/*--------------------------------*- C++ -*----------------------------------*\
  =========                 |
  \\      /  F ield         | OpenFOAM: The Open Source CFD Toolbox
   \\    /   O peration     | Website:  https://openfoam.org
    \\  /    A nd           | Version:  12
     \\/     M anipulation  |
\*---------------------------------------------------------------------------*/
FoamFile
{
    format      ascii;
    class       volScalarField;
    location    "0.116";
    object      alphat;
}
// * * * * * * * * * * * * * * * * * * * * * * * * * * * * * * * * * * * * * //

dimensions      [1 -1 -1 0 0 0 0];

internalField   nonuniform List<scalar> 
16000
(
4.9394299e-07
1.0742185e-05
1.9685838e-05
2.5823297e-05
1.9731563e-05
2.710026e-05
1.9182305e-05
2.6250252e-05
2.0541443e-05
2.82477e-05
2.3849297e-05
2.7971151e-05
2.5553383e-05
2.6233441e-05
2.5376715e-05
2.5250733e-05
2.5010836e-05
2.4962412e-05
2.4999838e-05
2.5144818e-05
2.538944e-05
2.5733361e-05
2.6174212e-05
2.6712342e-05
2.7350445e-05
2.809536e-05
2.8956214e-05
2.994742e-05
3.1086494e-05
3.2392317e-05
3.3885668e-05
3.5594088e-05
3.7553082e-05
3.9806398e-05
4.2407863e-05
4.5421731e-05
4.8924601e-05
5.3007902e-05
5.7784846e-05
6.3395727e-05
7.0005334e-05
7.7807997e-05
8.70487e-05
9.8027535e-05
0.00011110179
0.00012670025
0.00014535451
0.00016771246
0.00019456294
0.00022686734
0.00026580223
0.00031281069
0.00036965686
0.00043850234
0.00052199665
0.00062340204
0.00074675089
0.00089705043
0.0010805513
0.0011776818
0.001178631
0.0011794894
0.0011802467
0.0011808498
0.0011812765
0.0011814954
0.0011814837
0.0011812362
0.0011807708
0.0011801164
0.0011792741
0.0011781704
0.0011767161
0.0011752106
0.0011739737
0.0011729973
0.0011722365
0.0011723547
0.0011702952
0.0011692521
4.4532474e-07
1.0177114e-05
2.1253535e-05
2.3069945e-05
1.7768388e-05
2.4289179e-05
1.700777e-05
2.2981856e-05
1.8126109e-05
2.4934397e-05
2.1565131e-05
2.5195134e-05
2.33419e-05
2.3749199e-05
2.3085495e-05
2.2906223e-05
2.2710251e-05
2.2657065e-05
2.2695326e-05
2.2829228e-05
2.3056185e-05
2.3375512e-05
2.3785532e-05
2.4286677e-05
2.4881123e-05
2.5575288e-05
2.6377122e-05
2.7299647e-05
2.8359448e-05
2.9574933e-05
3.0965447e-05
3.255618e-05
3.4380003e-05
3.6477443e-05
3.8898874e-05
4.1704736e-05
4.4967545e-05
4.8773244e-05
5.3227352e-05
5.8462759e-05
6.4637872e-05
7.1935765e-05
8.0587317e-05
9.0878854e-05
0.00010315373
0.00011781979
0.00013538448
0.00015646845
0.00018182921
0.00021239076
0.00024928456
0.00029390233
0.00034794822
0.00041351473
0.00049316966
0.00059007801
0.00070815658
0.00085226509
0.0010284555
0.0011770095
0.0011779508
0.0011787548
0.0011794643
0.0011800209
0.0011804042
0.0011805862
0.0011805484
0.0011802893
0.001179826
0.0011791828
0.0011783587
0.0011772842
0.0011758724
0.0011744614
0.0011733071
0.0011723434
0.0011716794
0.0011714989
0.001169985
0.0011692587
3.9405724e-07
9.7350546e-06
2.0067628e-05
2.1110042e-05
1.5899132e-05
2.1368066e-05
1.5131138e-05
1.9959018e-05
1.6285657e-05
2.1865246e-05
1.9648052e-05
2.2423304e-05
2.1129446e-05
2.1257996e-05
2.075175e-05
2.0549805e-05
2.0387811e-05
2.0339847e-05
2.0380616e-05
2.0507834e-05
2.0720304e-05
2.1017717e-05
2.1398734e-05
2.1864057e-05
2.2415447e-05
2.3059087e-05
2.3802106e-05
2.4656317e-05
2.5637195e-05
2.6762675e-05
2.8051135e-05
2.95259e-05
3.121767e-05
3.3164202e-05
3.5412828e-05
3.8020496e-05
4.1056145e-05
4.4601446e-05
4.8755494e-05
5.3643837e-05
5.9419724e-05
6.6257632e-05
7.4376434e-05
8.4049726e-05
9.5609939e-05
0.00010944817
0.00012605188
0.00014601928
0.00017008233
0.00019913537
0.00023427339
0.00027684691
0.00032851177
0.00039130563
0.0004677318
0.00056087834
0.00067457054
0.00081355892
0.0009837511
0.0011765324
0.0011774538
0.0011781863
0.0011788273
0.0011793176
0.0011796385
0.0011797662
0.0011796874
0.001179404
0.0011789315
0.0011782864
0.0011774635
0.0011764001
0.0011750137
0.0011737008
0.0011726208
0.0011717252
0.001171154
0.0011709324
0.0011698155
0.0011691339
3.5492552e-07
9.4018695e-06
1.9025852e-05
1.9572407e-05
1.4278318e-05
1.8855857e-05
1.3473014e-05
1.7434711e-05
1.4647512e-05
1.9266059e-05
1.7922791e-05
1.9974371e-05
1.9092532e-05
1.9018922e-05
1.8629583e-05
1.8426805e-05
1.8294573e-05
1.8257205e-05
1.8303447e-05
1.842786e-05
1.862983e-05
1.8909482e-05
1.9265842e-05
1.9700014e-05
2.0213478e-05
2.0812343e-05
2.1503187e-05
2.2296873e-05
2.3207824e-05
2.4253595e-05
2.545193e-05
2.6824578e-05
2.8400481e-05
3.021503e-05
3.2312993e-05
3.4748324e-05
3.7586883e-05
4.090702e-05
4.480273e-05
4.939274e-05
5.4826368e-05
6.12716e-05
6.8937686e-05
7.8086917e-05
8.9043905e-05
0.0001021869
0.00011798761
0.0001370269
0.00016001711
0.000187831
0.00022153606
0.00026245297
0.00031220265
0.00037278436
0.00044665732
0.00053685731
0.00064714736
0.00078220613
0.00094785437
0.001151315
0.0011771594
0.0011778048
0.0011783604
0.0011787694
0.001179015
0.001179078
0.0011789495
0.0011786336
0.0011781424
0.001177483
0.001176645
0.0011755798
0.0011742089
0.0011729847
0.0011719745
0.0011711518
0.0011706301
0.0011703869
0.0011697247
0.00116918
3.1843351e-07
9.1526626e-06
1.81174e-05
1.9543614e-05
1.4210478e-05
1.6665994e-05
1.2018825e-05
1.5270388e-05
1.3240992e-05
1.7024044e-05
1.6390477e-05
1.777082e-05
1.7196412e-05
1.6986694e-05
1.6683953e-05
1.6495425e-05
1.6387928e-05
1.6361964e-05
1.6412588e-05
1.6533733e-05
1.6724995e-05
1.6987116e-05
1.7319534e-05
1.7723876e-05
1.8201499e-05
1.8758522e-05
1.9401137e-05
2.0139454e-05
2.0986861e-05
2.1960494e-05
2.3077681e-05
2.4358869e-05
2.5831554e-05
2.7529093e-05
2.9494058e-05
3.1777813e-05
3.4443485e-05
3.7566752e-05
4.1237814e-05
4.556893e-05
5.0706142e-05
5.6812635e-05
6.4090194e-05
7.2790549e-05
8.3232508e-05
9.5784459e-05
0.00011090525
0.00012916173
0.00015125024
0.00017802716
0.00021053783
0.0002500798
0.00029824646
0.0003570075
0.00042878884
0.00051658691
0.00062411785
0.000756006
0.00091800828
0.0011172638
0.0011770515
0.0011775961
0.0011780509
0.0011783647
0.001178523
0.001178511
0.0011783234
0.0011779651
0.0011774438
0.0011767574
0.0011758888
0.0011748081
0.0011734586
0.0011723168
0.0011713743
0.0011706198
0.0011701337
0.0011699144
0.0011695246
0.0011690088
2.9378367e-07
8.999028e-06
1.7393509e-05
1.9276674e-05
1.3965532e-05
1.475508e-05
1.1335868e-05
1.3484599e-05
1.2233895e-05
1.5135505e-05
1.5052289e-05
1.5840618e-05
1.5470623e-05
1.5181069e-05
1.4932906e-05
1.4760777e-05
1.4669159e-05
1.4650167e-05
1.4701341e-05
1.4816931e-05
1.4996497e-05
1.5241308e-05
1.5551029e-05
1.5927718e-05
1.6372719e-05
1.6892121e-05
1.7491803e-05
1.8181291e-05
1.8972972e-05
1.988353e-05
2.0930079e-05
2.2132017e-05
2.3515707e-05
2.5112824e-05
2.6964157e-05
2.9118937e-05
3.1638001e-05
3.4594928e-05
3.807753e-05
4.2192507e-05
4.7082956e-05
5.2909003e-05
5.9867714e-05
6.8201296e-05
7.8224933e-05
9.030061e-05
0.00010487774
0.00012251335
0.00014389205
0.00016986027
0.00020144796
0.00023993798
0.00028690598
0.00034430356
0.00041453783
0.00050058312
0.00060612932
0.00073577052
0.00089523153
0.0010916117
0.0011771183
0.0011775498
0.0011778908
0.0011780981
0.0011781594
0.0011780639
0.0011778087
0.0011773979
0.0011768343
0.0011761086
0.001175196
0.0011740847
0.0011727726
0.0011717087
0.0011708323
0.0011701362
0.0011696744
0.0011694874
0.0011693335
0.0011687274
2.6532791e-07
8.9116386e-06
1.6828822e-05
1.8234953e-05
1.3842559e-05
1.3033852e-05
1.1390641e-05
1.2411605e-05
1.1815046e-05
1.3511761e-05
1.3855129e-05
1.4140008e-05
1.3875946e-05
1.3551532e-05
1.3333976e-05
1.3178147e-05
1.3098055e-05
1.3084698e-05
1.3136058e-05
1.3247005e-05
1.3416753e-05
1.3647031e-05
1.3937431e-05
1.4206395e-05
1.461315e-05
1.5091297e-05
1.5645917e-05
1.628574e-05
1.7021955e-05
1.787043e-05
1.8848028e-05
1.9973135e-05
2.1271069e-05
2.2771902e-05
2.4514773e-05
2.6546966e-05
2.8927168e-05
3.1726904e-05
3.5032462e-05
3.9240095e-05
4.3931378e-05
4.9532548e-05
5.6238754e-05
6.4284074e-05
7.3981321e-05
8.5689467e-05
9.9851829e-05
0.00011701945
0.00013786886
0.00016324258
0.00019416115
0.00023190042
0.00027802711
0.00033448489
0.00040367472
0.00048856427
0.00059283537
0.00072107296
0.00087899588
0.0010737009
0.0011773434
0.0011776512
0.0011778681
0.0011779598
0.0011779164
0.0011777299
0.0011773989
0.0011769252
0.0011763067
0.0011755297
0.0011745641
0.0011734043
0.0011721591
0.0011711704
0.0011703577
0.0011697099
0.0011692645
0.0011691015
0.001169104
0.0011683468
2.3847634e-07
8.8623761e-06
1.6349606e-05
1.6590496e-05
1.2697488e-05
1.1357358e-05
9.8609709e-06
1.1084614e-05
1.0393317e-05
1.2143398e-05
1.2654405e-05
1.2581532e-05
1.2358349e-05
1.2042496e-05
1.1849907e-05
1.1715085e-05
1.1649109e-05
1.1644498e-05
1.1628299e-05
1.1720529e-05
1.1871572e-05
1.2082169e-05
1.2350034e-05
1.2675891e-05
1.3064572e-05
1.3519775e-05
1.4046861e-05
1.4654482e-05
1.5353219e-05
1.615847e-05
1.7087325e-05
1.8157631e-05
1.9394221e-05
2.0826159e-05
2.2491635e-05
2.4436717e-05
2.6718822e-05
2.9408239e-05
3.2590769e-05
3.6370946e-05
4.0876277e-05
4.6268215e-05
5.2742097e-05
6.1036123e-05
7.0500096e-05
8.1950906e-05
9.5829514e-05
0.00011268474
0.00013318881
0.00015818676
0.00018869606
0.00022599367
0.0002716469
0.00032760237
0.00039626833
0.00048062236
0.00058435802
0.00071207421
0.0008695108
0.0010637998
0.0011777077
0.0011778834
0.0011779682
0.0011779377
0.0011777836
0.0011774999
0.0011770851
0.0011765382
0.0011758528
0.0011750133
0.0011739912
0.001172769
0.0011716232
0.0011707083
0.0011699572
0.0011693485
0.0011689097
0.0011687436
0.0011687908
0.0011679794
2.2024013e-07
8.8143245e-06
1.5858086e-05
1.4525816e-05
1.0437229e-05
1.0094089e-05
8.1248335e-06
9.451659e-06
9.6578502e-06
1.0927277e-05
1.1438943e-05
1.1134739e-05
1.0930288e-05
1.0648226e-05
1.0481112e-05
1.0297263e-05
1.0220289e-05
1.0209906e-05
1.0258303e-05
1.0362659e-05
1.0518785e-05
1.0728627e-05
1.0991472e-05
1.1307529e-05
1.1681702e-05
1.211866e-05
1.2623814e-05
1.3205854e-05
1.3874948e-05
1.4646011e-05
1.5536469e-05
1.6563897e-05
1.7752965e-05
1.9132053e-05
2.0738783e-05
2.2618519e-05
2.4827947e-05
2.743672e-05
3.0530017e-05
3.4211551e-05
3.8609312e-05
4.388258e-05
5.0229986e-05
5.7882167e-05
6.7134804e-05
7.8355848e-05
9.2800393e-05
0.00010949827
0.00012984059
0.00015468109
0.0001850409
0.00022220629
0.00026775491
0.00032364751
0.00039231332
0.00047675685
0.00058070384
0.00070879109
0.00086680633
0.0010619526
0.0011781892
0.0011782264
0.0011781744
0.0011780172
0.0011777481
0.0011773618
0.0011768557
0.0011762265
0.001175464
0.0011745515
0.0011734736
0.0011722207
0.0011711689
0.0011703266
0.0011696339
0.0011690566
0.0011686128
0.0011684196
0.0011684216
0.0011676902
2.0205972e-07
8.7690833e-06
1.4275465e-05
1.2657364e-05
8.4398474e-06
8.9708351e-06
7.2194963e-06
8.5317618e-06
8.94515e-06
9.7787822e-06
1.0238374e-05
9.8178549e-06
9.6192528e-06
9.2858286e-06
9.1078534e-06
8.9990041e-06
8.9565245e-06
8.9714848e-06
9.0377559e-06
9.1520102e-06
9.3153257e-06
9.5251802e-06
9.7843618e-06
1.0093169e-05
1.0456718e-05
1.0880109e-05
1.1368918e-05
1.1932014e-05
1.2579315e-05
1.3325284e-05
1.4187758e-05
1.518438e-05
1.6339922e-05
1.7682388e-05
1.9249205e-05
2.1085486e-05
2.3247687e-05
2.5805432e-05
2.8844331e-05
3.2468658e-05
3.6806617e-05
4.2017177e-05
4.8302749e-05
5.5894279e-05
6.5090351e-05
7.6261649e-05
8.9865425e-05
0.00010643911
0.00012782324
0.0001527272
0.00018320143
0.00022054955
0.00026637011
0.00032264978
0.00039185328
0.00047703001
0.00058195968
0.00071134317
0.0008710446
0.0010683723
0.0011787639
0.001178659
0.0011784676
0.0011781816
0.0011777948
0.0011773019
0.0011766983
0.0011759787
0.0011751322
0.0011741393
0.0011729992
0.0011717676
0.0011707997
0.0011700265
0.0011693883
0.0011688364
0.0011683747
0.0011681309
0.0011680952
0.0011673836
1.8640301e-07
8.7221948e-06
1.134e-05
1.0519808e-05
6.9313221e-06
7.990961e-06
6.5835503e-06
7.6703038e-06
8.3727695e-06
8.7391435e-06
9.0627896e-06
8.5294152e-06
8.2793525e-06
8.0500435e-06
7.9206737e-06
7.8518458e-06
7.8388506e-06
7.8755398e-06
7.9574519e-06
8.0833968e-06
8.2508331e-06
8.4625898e-06
8.7204814e-06
9.025303e-06
9.382277e-06
9.7969837e-06
1.0275297e-05
1.0826332e-05
1.1459974e-05
1.2190325e-05
1.2968737e-05
1.3935618e-05
1.5059453e-05
1.6367848e-05
1.7898025e-05
1.9694891e-05
2.1814748e-05
2.4327255e-05
2.7318593e-05
3.0893917e-05
3.5182807e-05
4.0662583e-05
4.6951826e-05
5.4561613e-05
6.3793613e-05
7.5022658e-05
8.8719241e-05
0.00010543379
0.00012586099
0.00015086773
0.00018317911
0.00022103072
0.00026750766
0.00032463504
0.00039492838
0.0004815012
0.00058821024
0.00071984901
0.00088238943
0.0010832777
0.0011794069
0.0011791584
0.001178828
0.0011784131
0.0011779076
0.0011773056
0.0011766003
0.0011757846
0.0011748494
0.0011737756
0.0011725618
0.0011714106
0.0011705179
0.0011698076
0.0011692187
0.0011686915
0.001168209
0.0011678876
0.0011677936
0.0011671799
1.7265819e-07
8.6782795e-06
8.9496109e-06
8.9414665e-06
6.0944031e-06
7.0834407e-06
6.0500193e-06
6.9201456e-06
7.7920997e-06
7.7704359e-06
7.788546e-06
7.3358052e-06
7.1326185e-06
6.9661597e-06
6.878128e-06
6.8426422e-06
6.854918e-06
6.9109332e-06
7.0068436e-06
7.1427012e-06
7.3173218e-06
7.5327546e-06
7.7920449e-06
8.0964889e-06
8.4514054e-06
8.8246019e-06
9.2906438e-06
9.8287881e-06
1.0448786e-05
1.1164276e-05
1.199169e-05
1.2952399e-05
1.4070533e-05
1.5373835e-05
1.6899958e-05
1.8694366e-05
2.0814165e-05
2.3330063e-05
2.6330111e-05
2.9921859e-05
3.4238139e-05
3.9445009e-05
4.5746034e-05
5.3385494e-05
6.2670406e-05
7.4626091e-05
8.8546901e-05
0.00010555717
0.00012636454
0.00015186329
0.00018314756
0.00022365552
0.00027118271
0.00032963095
0.00040158275
0.00049023652
0.00059955064
0.00073444241
0.00090102793
0.001106923
0.0011800931
0.0011797017
0.0011792351
0.0011786932
0.0011780698
0.0011773581
0.0011765495
0.0011756352
0.0011746077
0.0011734611
0.0011721959
0.0011711498
0.0011703246
0.0011696685
0.0011691229
0.0011686236
0.0011681316
0.0011677311
0.0011675653
0.0011671615
1.6041937e-07
8.6272614e-06
7.1213916e-06
7.8553543e-06
5.435313e-06
6.2743897e-06
5.5942634e-06
6.25728e-06
7.1010887e-06
6.6699028e-06
6.6399134e-06
6.2929369e-06
6.132974e-06
6.0172861e-06
5.9646902e-06
5.9580246e-06
5.9928696e-06
6.0667306e-06
6.1767081e-06
6.323505e-06
6.5065711e-06
6.7282827e-06
6.9624757e-06
7.2638411e-06
7.615387e-06
8.0220309e-06
8.4919671e-06
9.0339855e-06
9.6580999e-06
1.0378209e-05
1.1210955e-05
1.2177508e-05
1.3303473e-05
1.4617066e-05
1.6156662e-05
1.7968704e-05
2.0111711e-05
2.2658021e-05
2.5698375e-05
2.9343886e-05
3.3730882e-05
3.9029334e-05
4.5453429e-05
5.3253825e-05
6.2747397e-05
7.432857e-05
8.8487708e-05
0.00010581817
0.00012817071
0.00015438652
0.00018657177
0.00022612605
0.00027740025
0.00033765474
0.00041184929
0.00050328989
0.00061606317
0.00075524289
0.00092713301
0.0011395544
0.0011807978
0.0011802667
0.0011796685
0.0011790032
0.0011782645
0.0011774446
0.001176534
0.0011755227
0.001174402
0.001173186
0.0011719499
0.0011709839
0.0011702189
0.0011696079
0.0011690997
0.0011686332
0.0011681496
0.0011676936
0.0011674644
0.001167216
1.4957554e-07
8.5654147e-06
5.7160382e-06
6.8709026e-06
4.8509669e-06
5.5563613e-06
5.2082245e-06
5.5825172e-06
6.2300264e-06
5.715246e-06
5.6328009e-06
5.3812134e-06
5.2620541e-06
5.188811e-06
5.1677601e-06
5.187188e-06
5.2432708e-06
5.3346504e-06
5.4592417e-06
5.597152e-06
5.7841549e-06
6.0097814e-06
6.2767722e-06
6.5886571e-06
6.9504555e-06
7.36752e-06
7.8479767e-06
8.4013497e-06
9.0379284e-06
9.7718314e-06
1.0619882e-05
1.1603563e-05
1.2691281e-05
1.4016279e-05
1.5570363e-05
1.7400924e-05
1.9568131e-05
2.214602e-05
2.5228075e-05
2.8929572e-05
3.3391506e-05
3.908387e-05
4.5691921e-05
5.3727033e-05
6.3517244e-05
7.5468616e-05
9.0095345e-05
0.00010801745
0.00012999503
0.0001584137
0.00019177424
0.00023279263
0.00028325815
0.00034870224
0.00042573702
0.00052068746
0.00063779864
0.00078233347
0.00096083398
0.0011813763
0.0011814971
0.0011808316
0.0011801082
0.0011793246
0.0011784748
0.0011775503
0.0011765413
0.0011754384
0.0011742332
0.0011729395
0.0011718079
0.0011709119
0.001170199
0.001169626
0.0011691518
0.0011687214
0.0011682588
0.0011677735
0.0011675099
0.0011673852
1.3997963e-07
8.447812e-06
4.6449811e-06
5.9964182e-06
4.3301441e-06
4.9184785e-06
4.8729203e-06
4.8475575e-06
5.3508004e-06
4.864031e-06
4.7602249e-06
4.5872956e-06
4.5071568e-06
4.4707562e-06
4.4785768e-06
4.5223643e-06
4.5990328e-06
4.6893053e-06
4.8231575e-06
4.9913925e-06
5.1951651e-06
5.4363719e-06
5.7185219e-06
6.0453714e-06
6.4225893e-06
6.8558323e-06
7.3533198e-06
7.9011645e-06
8.5511998e-06
9.2996595e-06
1.0163454e-05
1.1164138e-05
1.2328075e-05
1.3688402e-05
1.5284672e-05
1.7165901e-05
1.9395072e-05
2.2049104e-05
2.5225313e-05
2.9044948e-05
3.3655629e-05
3.9243453e-05
4.6033637e-05
5.4303803e-05
6.4396278e-05
7.7377193e-05
9.2597621e-05
0.00011126069
0.0001341643
0.00016229365
0.00019871399
0.00024152582
0.00029421718
0.00035909273
0.00044321141
0.0005424042
0.00066474744
0.00081572631
0.0010021708
0.0011829279
0.0011821683
0.0011813761
0.0011805348
0.0011796394
0.0011786841
0.0011776607
0.0011765589
0.00117537
0.001174101
0.0011728034
0.0011717625
0.001170929
0.0011702619
0.0011697241
0.0011692841
0.0011688909
0.0011684532
0.0011679584
0.0011677154
0.0011676662
1.3154565e-07
8.1267122e-06
3.9057727e-06
5.2212614e-06
3.8678401e-06
4.3545251e-06
4.3391055e-06
4.1830328e-06
4.502947e-06
4.1115471e-06
4.0127515e-06
3.902674e-06
3.8593649e-06
3.8557023e-06
3.8901977e-06
3.942452e-06
4.0322514e-06
4.1551311e-06
4.3104055e-06
4.4985335e-06
4.7213568e-06
4.9813437e-06
5.2824771e-06
5.6288344e-06
6.0127722e-06
6.4632287e-06
6.9786525e-06
7.5685695e-06
8.2449543e-06
9.0220743e-06
9.9173118e-06
1.095314e-05
1.2157056e-05
1.3563526e-05
1.5214905e-05
1.7162094e-05
1.9471557e-05
2.2223963e-05
2.552078e-05
2.9490652e-05
3.4287304e-05
4.0106452e-05
4.7188245e-05
5.5823052e-05
6.6372876e-05
7.9282222e-05
9.594349e-05
0.00011549636
0.00013950147
0.00016900467
0.0002052673
0.00025224856
0.00030755668
0.00037567298
0.00045958431
0.00056833249
0.00069680144
0.00085531844
0.0010510399
0.0011836637
0.0011827899
0.0011818814
0.0011809304
0.0011799306
0.0011788765
0.0011777611
0.0011765753
0.0011753103
0.0011739796
0.0011727735
0.0011718067
0.0011710293
0.0011704046
0.0011699031
0.0011694993
0.0011691396
0.0011687284
0.0011682475
0.0011680208
0.0011680506
1.2435363e-07
7.7100788e-06
3.4434827e-06
4.5346235e-06
3.4578851e-06
3.6935788e-06
3.8685272e-06
3.5742639e-06
3.7356936e-06
3.4579866e-06
3.3805852e-06
3.3203449e-06
3.3107778e-06
3.3366603e-06
3.3789494e-06
3.4630008e-06
3.5788959e-06
3.7254953e-06
3.9030932e-06
4.1129416e-06
4.3574807e-06
4.6394815e-06
4.9537409e-06
5.3204775e-06
5.7388137e-06
6.2154437e-06
6.7584118e-06
7.3775936e-06
8.0852242e-06
8.8964991e-06
9.8293824e-06
1.0907346e-05
1.215919e-05
1.362117e-05
1.5272345e-05
1.728194e-05
1.9667533e-05
2.2514148e-05
2.6084179e-05
3.0233911e-05
3.525322e-05
4.1347407e-05
4.8772906e-05
5.7836015e-05
6.8917586e-05
8.2489421e-05
9.9130771e-05
0.00011955308
0.00014592354
0.00017700297
0.00021521792
0.00026223169
0.00032312951
0.00039494471
0.0004834207
0.00059824544
0.00073370664
0.00090083528
0.0011071471
0.0011843265
0.0011833459
0.001182331
0.0011812794
0.0011801838
0.0011790387
0.0011778385
0.0011765767
0.0011752581
0.001173924
0.0011728285
0.0011719312
0.0011712056
0.0011706225
0.0011701599
0.0011697935
0.0011694564
0.0011690488
0.0011686081
0.0011684398
0.0011685128
1.1869671e-07
6.7068939e-06
3.0502024e-06
3.911795e-06
3.1049006e-06
3.08314e-06
3.3998017e-06
3.0229805e-06
3.0766832e-06
2.8998115e-06
2.8515682e-06
2.832015e-06
2.8447317e-06
2.8896636e-06
2.9702902e-06
3.0822731e-06
3.2236671e-06
3.3944308e-06
3.5956731e-06
3.8291182e-06
4.0916048e-06
4.3960555e-06
4.7426368e-06
5.1361272e-06
5.5822315e-06
6.0878691e-06
6.6614574e-06
7.3132659e-06
8.0559304e-06
8.8856193e-06
9.8543497e-06
1.0971885e-05
1.2268255e-05
1.3781088e-05
1.5557447e-05
1.7656171e-05
2.0150006e-05
2.3130019e-05
2.6709213e-05
3.1027217e-05
3.6257433e-05
4.2920748e-05
5.0736276e-05
6.0285298e-05
7.1968806e-05
8.6285572e-05
0.00010384945
0.00012541663
0.00015331225
0.00018615167
0.00022654449
0.00027624569
0.00034070505
0.00041663691
0.00051019872
0.0006255285
0.00077501376
0.00095176249
0.0011699096
0.0011849047
0.0011838236
0.0011827127
0.0011815701
0.0011803881
0.0011791608
0.0011778847
0.0011765559
0.0011751893
0.0011739586
0.0011729519
0.0011721228
0.0011714474
0.0011709068
0.0011704829
0.0011701512
0.0011698309
0.0011694287
0.001169027
0.001168937
0.0011690259
1.1416318e-07
4.7006156e-06
2.6954752e-06
3.3342887e-06
2.6559662e-06
2.5719346e-06
2.9057084e-06
2.5320303e-06
2.5280809e-06
2.429912e-06
2.4145288e-06
2.4224013e-06
2.465975e-06
2.5449774e-06
2.6550652e-06
2.7937564e-06
2.9604156e-06
3.1557289e-06
3.3781409e-06
3.6347969e-06
3.9269113e-06
4.2578427e-06
4.6316715e-06
5.0533589e-06
5.5288887e-06
6.0654755e-06
6.6718809e-06
7.3476335e-06
8.1238896e-06
9.0092429e-06
1.0024015e-05
1.1193448e-05
1.2549362e-05
1.4131718e-05
1.5990608e-05
1.818846e-05
2.080286e-05
2.3930335e-05
2.7690977e-05
3.2233806e-05
3.7743494e-05
4.444777e-05
5.3020242e-05
6.3103101e-05
7.5447631e-05
9.058163e-05
0.00010915522
0.00013197072
0.00016001791
0.00019626283
0.00023902356
0.00029164898
0.00035644549
0.00044035486
0.0005394417
0.00066158837
0.00082003103
0.0010072801
0.0011865594
0.0011853894
0.0011842165
0.0011830196
0.0011817953
0.0011805371
0.001179237
0.0011778935
0.0011765208
0.0011751615
0.0011740506
0.0011731283
0.0011723647
0.0011717376
0.00117124
0.0011708504
0.0011705449
0.0011702327
0.0011698364
0.0011694811
0.0011694659
0.0011695683
1.0937501e-07
3.9048626e-06
2.3239629e-06
2.8022871e-06
2.2904748e-06
2.1451642e-06
2.3939972e-06
2.1009747e-06
2.0821179e-06
2.0442589e-06
2.0575948e-06
2.0998463e-06
2.1792605e-06
2.2888916e-06
2.4261651e-06
2.5901675e-06
2.7812422e-06
2.998399e-06
3.2473107e-06
3.5292844e-06
3.8472935e-06
4.2049412e-06
4.6065388e-06
5.0572391e-06
5.5632362e-06
6.1320137e-06
6.7650711e-06
7.4854599e-06
8.3017883e-06
9.2311018e-06
1.0294848e-05
1.1519805e-05
1.2939652e-05
1.4596727e-05
1.6544314e-05
1.8849114e-05
2.1593922e-05
2.488133e-05
2.8838927e-05
3.3624396e-05
3.9433482e-05
4.6845202e-05
5.5555865e-05
6.6208528e-05
7.9258228e-05
9.5263203e-05
0.00011491149
0.00013905196
0.00017029568
0.00020709148
0.00025235766
0.00030807685
0.00037669253
0.00046556027
0.00057050441
0.00069988606
0.00086778061
0.0010661974
0.0011870167
0.0011857758
0.0011845235
0.0011832512
0.0011819541
0.001180629
0.0011792691
0.0011778673
0.00117645
0.0011752078
0.0011741849
0.0011733402
0.001172638
0.0011720544
0.0011715942
0.001171233
0.0011709426
0.001170635
0.0011702588
0.0011699659
0.0011700125
0.0011701108
1.0615183e-07
3.1451293e-06
2.0039394e-06
2.2646288e-06
1.990623e-06
1.7799205e-06
1.9181952e-06
1.7353261e-06
1.7319547e-06
1.7425652e-06
1.7857769e-06
1.8657796e-06
1.9759695e-06
2.1124145e-06
2.2741088e-06
2.4613324e-06
2.6739919e-06
2.9158029e-06
3.1885966e-06
3.4950939e-06
3.8385518e-06
4.2227828e-06
4.6522591e-06
5.1322795e-06
5.6692057e-06
6.2664239e-06
6.9398328e-06
7.6982023e-06
8.5557892e-06
9.5304906e-06
1.0645031e-05
1.1927801e-05
1.3414539e-05
1.5150107e-05
1.7190915e-05
1.9607882e-05
2.2489641e-05
2.5944959e-05
3.0109642e-05
3.5150847e-05
4.154767e-05
4.9072177e-05
5.8261056e-05
6.9505605e-05
8.3285657e-05
0.00010019241
0.00012095327
0.0001464661
0.00017944112
0.0002183252
0.00026617073
0.00032507328
0.00039762255
0.00049154186
0.00060252488
0.00073937794
0.00091697001
0.0011269401
0.0011873737
0.0011860683
0.0011847484
0.0011834125
0.0011820526
0.0011806664
0.0011792568
0.0011778333
0.0011764328
0.0011752976
0.0011743515
0.0011735707
0.0011729219
0.0011723871
0.0011719428
0.0011716078
0.0011713235
0.001171021
0.0011706816
0.0011704719
0.0011705754
0.0011706383
1.0479978e-07
2.4795501e-06
1.7272816e-06
1.7483039e-06
1.7143076e-06
1.467428e-06
1.5296643e-06
1.4439694e-06
1.4712368e-06
1.5166836e-06
1.5983871e-06
1.7087519e-06
1.8443025e-06
2.0034821e-06
2.1865805e-06
2.3947691e-06
2.6290003e-06
2.89282e-06
3.1883443e-06
3.5185555e-06
3.886881e-06
4.2972742e-06
4.7543308e-06
5.2634694e-06
5.8311822e-06
6.4653745e-06
7.1758054e-06
7.9746178e-06
8.8667162e-06
9.8872905e-06
1.1053285e-05
1.2394807e-05
1.3949795e-05
1.5765861e-05
1.7902591e-05
2.051798e-05
2.3562362e-05
2.7216161e-05
3.1624115e-05
3.6964718e-05
4.3457762e-05
5.1373489e-05
6.1045741e-05
7.2885455e-05
8.7398801e-05
0.00010520973
0.00012708612
0.00015531995
0.00018862795
0.0002295942
0.00028000834
0.00034208099
0.00042250753
0.00051743037
0.00063443938
0.00077876717
0.00096598271
0.0011875375
0.0011876434
0.0011862781
0.0011849001
0.0011835109
0.0011821022
0.0011806667
0.0011792042
0.0011777499
0.0011764816
0.0011754223
0.0011745402
0.001173807
0.0011731968
0.0011727084
0.0011722826
0.0011719652
0.0011716868
0.0011713934
0.0011710981
0.0011709726
0.0011711226
0.0011711316
1.0637253e-07
1.9095958e-06
1.496668e-06
1.3525873e-06
1.4327039e-06
1.2053852e-06
1.2452707e-06
1.2305453e-06
1.2903711e-06
1.3700628e-06
1.4802182e-06
1.6139669e-06
1.7699937e-06
1.9484179e-06
2.1504505e-06
2.3778314e-06
2.6323162e-06
2.9169491e-06
3.2342606e-06
3.587366e-06
3.9797946e-06
4.4155932e-06
4.8994602e-06
5.4369359e-06
6.0346668e-06
6.7007618e-06
7.4452678e-06
8.2807629e-06
9.2230941e-06
1.029231e-05
1.1513756e-05
1.2919532e-05
1.4550077e-05
1.6456224e-05
1.8701584e-05
2.1365473e-05
2.4546541e-05
2.836747e-05
3.2979997e-05
3.8571875e-05
4.5374904e-05
5.3674124e-05
6.3818018e-05
7.6238216e-05
9.146484e-05
0.00011106368
0.00013418813
0.00016259839
0.00019752615
0.00024049268
0.00029337493
0.00036185778
0.00044266735
0.00054224739
0.00066504014
0.00082449118
0.001012937
0.0011892767
0.0011878426
0.0011864238
0.0011849953
0.0011835574
0.0011821072
0.001180644
0.0011791724
0.0011777327
0.0011765634
0.001175574
0.0011747442
0.0011740484
0.001173469
0.0011730188
0.0011726068
0.0011723051
0.0011720356
0.001171756
0.0011715001
0.0011714362
0.0011716219
0.0011716044
1.1202325e-07
1.4416943e-06
1.3094835e-06
1.0636659e-06
1.2786217e-06
9.8778702e-07
1.052233e-06
1.0893395e-06
1.1759497e-06
1.283173e-06
1.414264e-06
1.5661516e-06
1.7392106e-06
1.9345654e-06
2.1539205e-06
2.3992787e-06
2.672921e-06
2.9772094e-06
3.315248e-06
3.6901201e-06
4.1054308e-06
4.5653126e-06
5.0745685e-06
5.6388713e-06
6.2650382e-06
6.9614016e-06
7.7383082e-06
8.6087984e-06
9.5893533e-06
1.0700915e-05
1.1969986e-05
1.3430212e-05
1.5124018e-05
1.7104759e-05
1.9439207e-05
2.2210646e-05
2.5522542e-05
2.9503088e-05
3.4310737e-05
4.0141047e-05
4.7558007e-05
5.6283385e-05
6.6946716e-05
8.0000387e-05
9.6000241e-05
0.00011563076
0.00013973556
0.00016935479
0.0002057678
0.00025290304
0.00030844675
0.0003768219
0.00046104671
0.00056486436
0.00069968179
0.00085891604
0.0010555648
0.0011894512
0.0011879826
0.0011865245
0.0011850578
0.0011835792
0.0011820855
0.0011805815
0.0011790982
0.0011777729
0.0011766696
0.0011757398
0.0011749553
0.001174293
0.0011737426
0.0011732832
0.0011729206
0.0011726285
0.0011723685
0.0011721059
0.0011718856
0.0011718582
0.0011720549
0.0011720491
1.2239466e-07
1.1396369e-06
1.1483561e-06
9.2356983e-07
9.3550944e-07
8.6382731e-07
9.2530455e-07
1.0043267e-06
1.1116538e-06
1.2383652e-06
1.3852687e-06
1.5521422e-06
1.7401944e-06
1.9509461e-06
2.1862527e-06
2.4481867e-06
2.7390657e-06
3.061473e-06
3.418303e-06
3.8128164e-06
4.2487179e-06
4.7302637e-06
5.2624105e-06
5.8510289e-06
6.5031979e-06
7.2249976e-06
8.03094e-06
8.9328622e-06
9.956835e-06
1.1110629e-05
1.2428113e-05
1.3944613e-05
1.5704632e-05
1.7764055e-05
2.0192763e-05
2.3077781e-05
2.6527129e-05
3.0674523e-05
3.5685109e-05
4.1762559e-05
4.9157802e-05
5.8179792e-05
6.920857e-05
8.2709514e-05
9.9257549e-05
0.00011955963
0.00014577346
0.00017663613
0.00021456362
0.00026120415
0.00031859404
0.00038925611
0.00047631608
0.00058920144
0.00072259709
0.00088727761
0.0010907741
0.0011895823
0.001188082
0.0011865922
0.0011850996
0.001183599
0.0011820859
0.0011805658
0.0011790827
0.001177843
0.0011767935
0.0011759093
0.001175161
0.0011745285
0.0011740124
0.0011735665
0.0011732138
0.0011729354
0.0011726819
0.0011724396
0.0011722541
0.0011722456
0.0011724196
0.0011724141
1.4378387e-07
1.1776548e-06
9.8853633e-07
7.0455719e-07
7.6405207e-07
7.7191042e-07
8.5517088e-07
9.5692441e-07
1.0806338e-06
1.222088e-06
1.3824232e-06
1.5625557e-06
1.7639829e-06
1.9883399e-06
2.2375107e-06
2.5135953e-06
2.8189438e-06
3.1561879e-06
3.5282831e-06
3.9385624e-06
4.3908097e-06
4.8893636e-06
5.4392665e-06
6.0464781e-06
6.7181777e-06
7.4631787e-06
8.2924759e-06
9.2199463e-06
1.0263236e-05
1.1444818e-05
1.2793255e-05
1.4344793e-05
1.6145148e-05
1.8251742e-05
2.0736347e-05
2.3688292e-05
2.7218385e-05
3.1463651e-05
3.6593157e-05
4.2815156e-05
5.0386012e-05
6.0048742e-05
7.1424213e-05
8.5344062e-05
0.00010239952
0.00012331712
0.00014899257
0.00018053068
0.00021929543
0.00026697026
0.0003256423
0.00040156943
0.00049124954
0.00060181354
0.0007382511
0.00090678617
0.001115184
0.0011897113
0.0011881777
0.0011866543
0.001185133
0.0011836096
0.001182082
0.0011805615
0.0011791209
0.0011779372
0.0011769305
0.0011760826
0.0011753649
0.0011747521
0.0011742534
0.0011738302
0.0011734821
0.0011732157
0.0011729711
0.0011727523
0.0011725978
0.001172591
0.0011727236
0.0011727317
1.3706552e-07
7.8419033e-07
8.1046475e-07
6.0059178e-07
6.5760349e-07
7.1790001e-07
8.1965506e-07
9.3812444e-07
1.0748635e-06
1.2288767e-06
1.401404e-06
1.593645e-06
1.8071272e-06
2.0435518e-06
2.3048424e-06
2.593156e-06
2.9109106e-06
3.2607739e-06
3.6458407e-06
4.0695039e-06
4.5356327e-06
5.0486517e-06
5.6136918e-06
6.2368045e-06
6.9252711e-06
7.6880237e-06
8.5362044e-06
9.4838884e-06
1.0557664e-05
1.1766911e-05
1.3146752e-05
1.4734359e-05
1.6576548e-05
1.8732069e-05
2.1274274e-05
2.4294407e-05
2.7905564e-05
3.2247551e-05
3.7492838e-05
4.3853845e-05
5.1591885e-05
6.1028054e-05
7.2556615e-05
8.6663675e-05
0.00010394658
0.00012514133
0.00015115521
0.00018471516
0.00022427589
0.00027291475
0.0003327599
0.00040644652
0.00049724757
0.0006092353
0.00074748738
0.00091834965
0.0011297518
0.0011898843
0.0011883218
0.0011867667
0.0011852138
0.001183661
0.0011821103
0.0011805858
0.0011792059
0.0011780551
0.0011770775
0.0011762518
0.001175553
0.0011749616
0.0011744907
0.0011740616