/*--------------------------------*- C++ -*----------------------------------*\
  =========                 |
  \\      /  F ield         | OpenFOAM: The Open Source CFD Toolbox
   \\    /   O peration     | Website:  https://openfoam.org
    \\  /    A nd           | Version:  12
     \\/     M anipulation  |
\*---------------------------------------------------------------------------*/
FoamFile
{
    format      ascii;
    class       volScalarField;
    location    "0.116";
    object      nut;
}
// * * * * * * * * * * * * * * * * * * * * * * * * * * * * * * * * * * * * * //

dimensions      [0 2 -1 0 0 0 0];

internalField   nonuniform List<scalar> 
16000
(
4.6831195e-07
9.8571677e-06
1.8464762e-05
2.3765872e-05
1.8232254e-05
2.496718e-05
1.7685569e-05
2.4164969e-05
1.8903954e-05
2.5970022e-05
2.1911223e-05
2.5675746e-05
2.3437063e-05
2.4039275e-05
2.3233044e-05
2.30957e-05
2.2853792e-05
2.2786319e-05
2.2796466e-05
2.2903747e-05
2.3100635e-05
2.3386499e-05
2.3758857e-05
2.4217686e-05
2.4765079e-05
2.5406852e-05
2.6150846e-05
2.7009622e-05
2.7998453e-05
2.9133751e-05
3.043353e-05
3.1921761e-05
3.3629405e-05
3.5594614e-05
3.7864316e-05
4.0494467e-05
4.3551692e-05
4.7115425e-05
5.1283998e-05
5.6179204e-05
6.1943869e-05
6.874618e-05
7.6798175e-05
8.6359406e-05
9.7738525e-05
0.00011130559
0.00012751928
0.0001469382
0.00017024214
0.000198259
0.00023200153
0.00027271131
0.00032190545
0.00038144211
0.00045359803
0.00054117564
0.00064763802
0.00077728451
0.00093548109
0.0010186407
0.0010186732
0.0010186725
0.001018629
0.0010184966
0.0010182561
0.0010178807
0.0010173512
0.001016664
0.0010158349
0.001014888
0.0010138229
0.0010125745
0.0010110647
0.0010095528
0.0010083148
0.0010073416
0.0010064861
0.0010068619
0.0010042126
0.0010046598
4.2226783e-07
9.3623899e-06
1.9782683e-05
2.1292588e-05
1.6466367e-05
2.2432697e-05
1.5723435e-05
2.1207144e-05
1.6724418e-05
2.2978008e-05
1.9860551e-05
2.3180311e-05
2.1456719e-05
2.1809795e-05
2.1179492e-05
2.0993404e-05
2.0791701e-05
2.0720205e-05
2.0731619e-05
2.0829479e-05
2.1011116e-05
2.1275591e-05
2.1621049e-05
2.204755e-05
2.2556721e-05
2.3154012e-05
2.3846217e-05
2.4644664e-05
2.5563818e-05
2.6619696e-05
2.7829057e-05
2.92138e-05
3.0802574e-05
3.2630704e-05
3.4742102e-05
3.7189392e-05
4.0035647e-05
4.3355516e-05
4.7240605e-05
5.1806272e-05
5.7189833e-05
6.3549683e-05
7.1085593e-05
8.0045205e-05
9.0725154e-05
0.00010347737
0.00011873965
0.00013704711
0.00015905249
0.00018555152
0.00021751807
0.00025614957
0.00030291155
0.00035960284
0.00042843
0.00051211192
0.00061401243
0.00073830412
0.00089018204
0.0010178489
0.0010178901
0.0010178575
0.0010177873
0.001017629
0.0010173644
0.0010169699
0.0010164299
0.0010157438
0.0010149263
0.0010139974
0.0010129552
0.001011738
0.0010102701
0.0010088452
0.0010076819
0.0010067007
0.0010060258
0.0010059219
0.0010040628
0.0010045055
3.7454421e-07
8.9765126e-06
1.8729834e-05
1.9541073e-05
1.4772249e-05
1.9781532e-05
1.4022199e-05
1.8459994e-05
1.5060142e-05
2.0193885e-05
1.8133212e-05
2.0672356e-05
1.9460929e-05
1.9558603e-05
1.9072384e-05
1.8865676e-05
1.8695371e-05
1.8629146e-05
1.8643509e-05
1.8736071e-05
1.890544e-05
1.9151021e-05
1.9471275e-05
1.9866515e-05
2.0337999e-05
2.0890982e-05
2.1531529e-05
2.2269902e-05
2.311959e-05
2.4096216e-05
2.5215698e-05
2.6498296e-05
2.7970749e-05
2.966595e-05
3.162514e-05
3.389789e-05
3.6544145e-05
3.963483e-05
4.325592e-05
4.7516356e-05
5.2548995e-05
5.8504745e-05
6.5572915e-05
7.3990076e-05
8.4043424e-05
9.6070371e-05
0.00011049139
0.0001278222
0.00014869346
0.00017387529
0.00020431011
0.00024115985
0.00028584848
0.00034012763
0.00040614843
0.0004865636
0.00058465832
0.00070451132
0.00085119351
0.0010171126
0.0010171625
0.0010170933
0.001016988
0.0010167952
0.0010164985
0.0010160776
0.0010155214
0.0010148319
0.0010140222
0.0010131055
0.0010120761
0.001010879
0.0010094427
0.0010081107
0.0010070137
0.0010060979
0.0010055325
0.0010052887
0.0010039663
0.0010042703
3.3831519e-07
8.6876286e-06
1.7802391e-05
1.8153214e-05
1.3296666e-05
1.7492675e-05
1.2511888e-05
1.6157521e-05
1.357136e-05
1.7826237e-05
1.6569966e-05
1.8445482e-05
1.7612635e-05
1.7524604e-05
1.7145821e-05
1.69386e-05
1.6795971e-05
1.673997e-05
1.6759973e-05
1.6850704e-05
1.701131e-05
1.7241603e-05
1.7540385e-05
1.790834e-05
1.8346488e-05
1.8860025e-05
1.9454539e-05
2.0139446e-05
2.092731e-05
2.1833432e-05
2.2873184e-05
2.4065435e-05
2.5435376e-05
2.701381e-05
2.8839718e-05
3.0960036e-05
3.343201e-05
3.6323646e-05
3.9716442e-05
4.3713344e-05
4.8443783e-05
5.4052998e-05
6.0721873e-05
6.86771e-05
7.8199083e-05
8.9614054e-05
0.00010332877
0.00011984387
0.00013977301
0.00016386762
0.0001930463
0.00022844521
0.00027145811
0.00032380353
0.00038759456
0.00046543887
0.00056056795
0.0006769986
0.00081972687
0.0009949506
0.0010164827
0.0010163743
0.0010162295
0.001015999
0.001015668
0.0010152201
0.0010146478
0.0010139549
0.0010131511
0.0010122418
0.001011217
0.0010100341
0.0010086258
0.0010073821
0.0010063532
0.0010055153
0.0010050021
0.0010047011
0.0010038875
0.0010042002
3.0509749e-07
8.4724331e-06
1.6989385e-05
1.8161006e-05
1.3259719e-05
1.5488184e-05
1.1181154e-05
1.417471e-05
1.2287349e-05
1.577475e-05
1.5173997e-05
1.6431444e-05
1.5881987e-05
1.5668732e-05
1.5369893e-05
1.517615e-05
1.505672e-05
1.5011755e-05
1.5036424e-05
1.5124883e-05
1.5276477e-05
1.5491594e-05
1.576942e-05
1.6111129e-05
1.6517638e-05
1.6994167e-05
1.7545965e-05
1.8181781e-05
1.8913263e-05
1.9755348e-05
2.0723052e-05
2.183409e-05
2.3112373e-05
2.4586899e-05
2.6294708e-05
2.828044e-05
3.0598925e-05
3.3315813e-05
3.6509252e-05
4.0276472e-05
4.4744023e-05
5.0052922e-05
5.6377492e-05
6.3935142e-05
7.3001188e-05
8.389323e-05
9.7006776e-05
0.00011283022
0.00013196326
0.00015514305
0.00018326894
0.00021745696
0.00025907699
0.0003098219
0.00037177593
0.00044751266
0.00054022299
0.0006538767
0.00079341465
0.00096496232
0.0010158509
0.0010157011
0.0010155128
0.0010152412
0.0010148736
0.0010143972
0.0010138076
0.0010131087
0.0010123068
0.0010113992
0.0010103704
0.0010091948
0.0010078238
0.0010066665
0.001005709
0.0010049473
0.0010044706
0.0010041796
0.0010036914
0.0010039277
2.8182313e-07
8.342028e-06
1.6339255e-05
1.7939172e-05
1.3052045e-05
1.3730849e-05
1.0560011e-05
1.2532193e-05
1.1365162e-05
1.4039139e-05
1.3947872e-05
1.4658712e-05
1.4298206e-05
1.4011613e-05
1.3763476e-05
1.358532e-05
1.3481039e-05
1.3443078e-05
1.3468895e-05
1.3552942e-05
1.369454e-05
1.389457e-05
1.4152433e-05
1.4469709e-05
1.4847309e-05
1.5290438e-05
1.5804071e-05
1.6396438e-05
1.7078292e-05
1.7864173e-05
1.8768913e-05
1.9809293e-05
2.1008213e-05
2.2393171e-05
2.3999616e-05
2.5870285e-05
2.8057966e-05
3.0626435e-05
3.365171e-05
3.7226088e-05
4.1473479e-05
4.653218e-05
5.2572316e-05
5.9802887e-05
6.8495951e-05
7.8963445e-05
9.1592544e-05
0.00010686297
0.00012536408
0.00014782424
0.0001751293
0.00020838233
0.00024893766
0.00029847227
0.00035905387
0.00043323668
0.00052418855
0.00063585277
0.00077314205
0.00094214715
0.0010152614
0.0010150688
0.0010148342
0.0010145196
0.0010141143
0.0010136087
0.0010130004
0.0010122926
0.0010114871
0.0010105754
0.001009536
0.0010083587
0.0010070426
0.0010059716
0.0010050888
0.0010043965
0.0010039481
0.0010036869
0.0010034763
0.0010035457
2.5370925e-07
8.2698211e-06
1.5830148e-05
1.6987268e-05
1.2951325e-05
1.2140299e-05
1.0620449e-05
1.1543634e-05
1.0983752e-05
1.2540317e-05
1.2844491e-05
1.308975e-05
1.2827499e-05
1.2509188e-05
1.2289785e-05
1.21272e-05
1.2034103e-05
1.2001919e-05
1.202852e-05
1.2108932e-05
1.2242169e-05
1.242954e-05
1.2670391e-05
1.2890438e-05
1.3234029e-05
1.3640467e-05
1.4114008e-05
1.4662165e-05
1.5294613e-05
1.602516e-05
1.6868413e-05
1.7840249e-05
1.8962633e-05
2.0261626e-05
2.1771194e-05
2.3532329e-05
2.5595889e-05
2.8023804e-05
3.0890708e-05
3.4543746e-05
3.8611983e-05
4.34683e-05
4.9281047e-05
5.6251991e-05
6.4650972e-05
7.4787159e-05
8.7042246e-05
0.00010189056
0.00011991418
0.00014183786
0.00016853899
0.00020111426
0.00024090991
0.00028959566
0.00034923343
0.00042237118
0.00051216926
0.00062256236
0.0007584573
0.00092594183
0.001014711
0.0010144742
0.0010141916
0.001013833
0.0010133893
0.0010128538
0.0010122249
0.0010115038
0.0010106885
0.0010097667
0.0010087128
0.0010075224
0.0010062896
0.0010053059
0.0010044994
0.0010038694
0.0010034449
0.0010032182
0.0010032031
0.001003053
2.2902407e-07
8.2300492e-06
1.5394904e-05
1.5465331e-05
1.1889086e-05
1.0584287e-05
9.199024e-06
1.0312776e-05
9.6650427e-06
1.1272375e-05
1.1731795e-05
1.1646036e-05
1.1421942e-05
1.1112111e-05
1.0916299e-05
1.0773656e-05
1.0694135e-05
1.0670572e-05
1.0635963e-05
1.0699966e-05
1.0816836e-05
1.0986964e-05
1.1207987e-05
1.1480284e-05
1.1807948e-05
1.2194016e-05
1.264301e-05
1.3162375e-05
1.3761241e-05
1.4452992e-05
1.5252432e-05
1.6174951e-05
1.7242064e-05
1.8478919e-05
1.9918605e-05
2.1601e-05
2.357579e-05
2.5903755e-05
2.8659028e-05
3.1931863e-05
3.5832274e-05
4.0499559e-05
4.6102109e-05
5.3281624e-05
6.1466459e-05
7.1365853e-05
8.3359215e-05
9.791866e-05
0.00011562224
0.00013719652
0.00016351583
0.0001956774
0.00023502746
0.00028323771
0.00034237574
0.00041499732
0.00050427208
0.00061414583
0.00074954245
0.00091657895
0.0010141951
0.0010139132
0.0010135817
0.0010131786
0.0010126965
0.00101213
0.0010114778
0.0010107386
0.0010099066
0.0010089687
0.0010079007
0.001006688
0.0010055693
0.0010046745
0.0010039453
0.0010033706
0.0010029634
0.0010027581
0.0010028304
0.0010025479
2.1184099e-07
8.1887846e-06
1.49422e-05
1.354391e-05
9.7767608e-06
9.4093909e-06
7.5807111e-06
8.7946786e-06
8.9795636e-06
1.0140628e-05
1.060009e-05
1.0300601e-05
1.0094306e-05
9.8163924e-06
9.6447143e-06
9.4577375e-06
9.3689183e-06
9.3408702e-06
9.3661322e-06
9.4418432e-06
9.5639111e-06
9.7338427e-06
9.9507223e-06
1.0214479e-05
1.0529277e-05
1.0899045e-05
1.1328352e-05
1.1824678e-05
1.239678e-05
1.3057595e-05
1.3822215e-05
1.4705773e-05
1.5729614e-05
1.6918245e-05
1.830421e-05
1.992671e-05
2.1834717e-05
2.4088371e-05
2.6761164e-05
2.994252e-05
3.3742747e-05
3.8299083e-05
4.3782616e-05
5.0391777e-05
5.8381016e-05
6.8066889e-05
8.053506e-05
9.4938359e-05
0.00011247895
0.00013389046
0.00016004995
0.0001920621
0.00023128145
0.00027939117
0.00033847613
0.00041111442
0.00050050233
0.00061061712
0.00074642255
0.00091409529
0.0010137092
0.0010133816
0.001013001
0.0010125536
0.0010120328
0.0010114341
0.001010755
0.0010099926
0.0010091382
0.0010081778
0.0010070987
0.0010058936
0.0010048858
0.0010040811
0.0010034286
0.0010029023
0.0010025043
0.0010023072
0.0010023807
0.0010020818
1.9421389e-07
8.1474671e-06
1.3455402e-05
1.180064e-05
7.9060854e-06
8.3606333e-06
6.7336571e-06
7.9346021e-06
8.3111984e-06
9.0673286e-06
9.4778317e-06
9.0715173e-06
8.8712377e-06
8.546962e-06
8.3662561e-06
8.2491505e-06
8.1927781e-06
8.1886412e-06
8.2308547e-06
8.3161243e-06
8.4451761e-06
8.6154725e-06
8.8292942e-06
9.0866664e-06
9.3919497e-06
9.7494624e-06
1.0163926e-05
1.0642976e-05
1.1195134e-05
1.1832917e-05
1.2571758e-05
1.342683e-05
1.4419529e-05
1.5573991e-05
1.6922526e-05
1.850405e-05
2.0367247e-05
2.2572134e-05
2.5192463e-05
2.8318015e-05
3.205913e-05
3.6552594e-05
4.1972568e-05
4.8517537e-05
5.6444199e-05
6.6071164e-05
7.779134e-05
9.2066263e-05
0.00011048302
0.00013192053
0.00015814558
0.00019027717
0.00022968713
0.00027808013
0.00033757066
0.00041077435
0.00050093273
0.00061207678
0.0007492343
0.00091867069
0.0010132486
0.0010128748
0.0010124459
0.0010119545
0.0010113948
0.0010107622
0.0010100529
0.0010092622
0.0010083811
0.0010073935
0.0010062994
0.0010051479
0.0010042436
0.0010035275
0.0010029492
0.0010024661
0.0010020697
0.0010018664
0.001001936
0.0010015698
1.7920724e-07
8.1013045e-06
1.0687412e-05
9.8050467e-06
6.4901938e-06
7.4422912e-06
6.1350946e-06
7.1261308e-06
7.7694524e-06
8.0916913e-06
8.375581e-06
7.8663115e-06
7.6196235e-06
7.3924802e-06
7.2574434e-06
7.1779209e-06
7.1492849e-06
7.1656285e-06
7.2226228e-06
7.3189419e-06
7.4520511e-06
7.624284e-06
7.8370459e-06
8.0908252e-06
8.3900776e-06
8.7395523e-06
9.1442351e-06
9.6119682e-06
1.0151234e-05
1.07742e-05
1.1437632e-05
1.2265091e-05
1.3228179e-05
1.4350636e-05
1.5664529e-05
1.7208516e-05
1.903106e-05
2.1192099e-05
2.376576e-05
2.6842448e-05
3.0533537e-05
3.5251608e-05
4.0664138e-05
4.7212488e-05
5.5155724e-05
6.4815702e-05
7.6596383e-05
9.0970127e-05
0.00010853311
0.00013002923
0.00015780236
0.00019032703
0.00023025549
0.00027932451
0.00033969123
0.0004140252
0.00050563276
0.00061862289
0.00075811419
0.00093048838
0.001012809
0.0010123887
0.0010119126
0.0010113779
0.0010107791
0.0010101112
0.0010093685
0.0010085453
0.0010076343
0.0010066198
0.0010055014
0.0010044545
0.0010036469
0.0010030145
0.0010025059
0.0010020649
0.0010016715
0.001001443
0.0010014803
0.0010011149
1.6590236e-07
8.0541455e-06
8.4293446e-06
8.3264372e-06
5.7005006e-06
6.5887282e-06
5.6294145e-06
6.4184769e-06
7.2165126e-06
7.1793865e-06
7.1807101e-06
6.7477198e-06
6.545407e-06
6.3771953e-06
6.281015e-06
6.2328041e-06
6.2279032e-06
6.262383e-06
6.3325127e-06
6.4381144e-06
6.5779047e-06
6.7535214e-06
6.9674869e-06
7.2207518e-06
7.5178543e-06
7.8300248e-06
8.2232954e-06
8.6789284e-06
9.2052697e-06
9.8140495e-06
1.0519398e-05
1.1339711e-05
1.2295721e-05
1.3411237e-05
1.4718631e-05
1.6256963e-05
1.8075293e-05
2.0234351e-05
2.2809753e-05
2.589382e-05
2.9600563e-05
3.4072499e-05
3.9484299e-05
4.6045515e-05
5.4019527e-05
6.4288223e-05
7.6241611e-05
9.0846319e-05
0.00010870916
0.00013059701
0.00015744801
0.00019221418
0.00023299681
0.00028314503
0.00034487237
0.00042091994
0.00051467986
0.00063036561
0.00077321752
0.00094976052
0.0010123863
0.0010119196
0.0010113977
0.0010108204
0.0010101825
0.0010094779
0.0010087001
0.0010078417
0.0010068973
0.0010058626
0.0010047389
0.0010038169
0.001003099
0.0010025428
0.0010020974
0.0010017009
0.0010013236
0.0010010696
0.0010010533
0.0010007885
1.5398725e-07
7.996664e-06
6.6998212e-06
7.3040194e-06
5.0755635e-06
5.8252329e-06
5.1939546e-06
5.7899744e-06
6.5587958e-06
6.1445753e-06
6.1020428e-06
5.7682883e-06
5.6068815e-06
5.4862917e-06
5.4233798e-06
5.4021641e-06
5.4183565e-06
5.4694498e-06
5.5526026e-06
5.6682409e-06
5.8156745e-06
5.9968426e-06
6.1883116e-06
6.4385922e-06
6.7323239e-06
7.0736583e-06
7.4696201e-06
7.9277255e-06
8.4565364e-06
9.0679824e-06
9.7763422e-06
1.0599789e-05
1.1560291e-05
1.2682022e-05
1.3997899e-05
1.5547748e-05
1.7381748e-05
1.9561919e-05
2.2166053e-05
2.5289392e-05
2.9048776e-05
3.358988e-05
3.9096279e-05
4.5782758e-05
5.3920867e-05
6.3848618e-05
7.5986231e-05
9.0842158e-05
0.00011000382
0.00013247517
0.00016006244
0.00019396484
0.0002379124
0.00028955316
0.00035313859
0.0004315007
0.00052813999
0.00064740228
0.00079468682
0.0009766919
0.001011977
0.0010114639
0.0010108979
0.0010102789
0.0010096018
0.0010088601
0.0010080464
0.0010071528
0.0010061728
0.0010051194
0.0010040581
0.0010032384
0.0010026029
0.0010021139
0.0010017248
0.0010013756
0.0010010318
0.0010007698
0.0010006972
0.0010004927
1.4335544e-07
7.9251613e-06
5.3685632e-06
6.3753587e-06
4.5192685e-06
5.1453698e-06
4.8212277e-06
5.1493321e-06
5.7338659e-06
5.2450482e-06
5.1550578e-06
4.9105832e-06
4.7876892e-06
4.7068477e-06
4.6734322e-06
4.676512e-06
4.7123798e-06
4.7795852e-06
4.8760526e-06
4.9838866e-06
5.1348393e-06
5.3193695e-06
5.5397303e-06
5.7988699e-06
6.1010418e-06
6.4507806e-06
6.8550362e-06
7.3219536e-06
7.8603193e-06
8.4822245e-06
9.2020705e-06
1.0038257e-05
1.096329e-05
1.2092101e-05
1.3417246e-05
1.4979284e-05
1.6829718e-05
1.9031909e-05
2.1665872e-05
2.4830268e-05
2.8645771e-05
3.351513e-05
3.9168008e-05
4.6042609e-05
5.4419758e-05
6.4647099e-05
7.7164878e-05
9.2503955e-05
0.00011131516
0.00013564116
0.00016419823
0.00019931201
0.00024251464
0.00029854208
0.00036449402
0.00044578588
0.00054605223
0.00066979903
0.00082262726
0.0010114513
0.0010115771
0.0010110182
0.0010104096
0.0010097498
0.0010090338
0.0010082551
0.0010074059
0.0010064792
0.0010054688
0.0010043874
0.0010034507
0.0010027226
0.001002161
0.0010017312
0.0010013925
0.0010010927
0.0010007943
0.0010005416
0.0010004285
0.0010002629
1.3386962e-07
7.7979399e-06
4.352344e-06
5.5485059e-06
4.0214763e-06
4.5394426e-06
4.4935618e-06
4.4532737e-06
4.9024636e-06
4.4422744e-06
4.3337496e-06
4.1627246e-06
4.076471e-06
4.0299845e-06
4.0233781e-06
4.0489311e-06
4.1036418e-06
4.1701589e-06
4.2750281e-06
4.4098548e-06
4.5754918e-06
4.7734576e-06
5.0066931e-06
5.2783532e-06
5.5932591e-06
5.9562112e-06
6.3742271e-06
6.8351844e-06
7.3838435e-06
8.0167636e-06
8.7483904e-06
9.5971418e-06
1.0585542e-05
1.1741901e-05
1.3100007e-05
1.4701731e-05
1.6600889e-05
1.8863202e-05
2.1571832e-05
2.4830401e-05
2.8765084e-05
3.3534968e-05
3.9332609e-05
4.6395404e-05
5.5016123e-05
6.6106019e-05
7.9111279e-05
9.5060542e-05
0.00011463648
0.00013868208
0.00016981822
0.00020642351
0.00025148088
0.00030696263
0.00037890607
0.00046375063
0.00056840452
0.00069756199
0.00085706826
0.0010117528
0.0010111819
0.0010105787
0.001009929
0.0010092293
0.0010084751
0.0010076603
0.0010067769
0.0010058186
0.0010047923
0.0010037431
0.0010029161
0.0010022709
0.0010017758
0.0010013996
0.0010011083
0.0010008575
0.0010006085
0.0010003741
0.0010002571
0.001000099
1.2545106e-07
7.4794072e-06
3.6482408e-06
4.8142155e-06
3.5777735e-06
4.0019229e-06
3.9819414e-06
3.8231026e-06
4.1023548e-06
3.7323265e-06
3.6295592e-06
3.517053e-06
3.4651458e-06
3.4489729e-06
3.4668933e-06
3.5005006e-06
3.5672191e-06
3.6628596e-06
3.786633e-06
3.938789e-06
4.1208092e-06
4.334733e-06
4.5839232e-06
4.8718231e-06
5.1917581e-06
5.5686664e-06
6.0010979e-06
6.4971722e-06
7.0671009e-06
7.7230494e-06
8.4798394e-06
9.3566353e-06
1.0376884e-05
1.1569975e-05
1.2972023e-05
1.4626441e-05
1.6589919e-05
1.8931276e-05
2.1737091e-05
2.5117153e-05
2.9202693e-05
3.4160815e-05
4.0196614e-05
4.755814e-05
5.6554694e-05
6.7566137e-05
8.1780609e-05
9.8466619e-05
0.00011895647
0.00014414442
0.00017510911
0.00021523184
0.00026247623
0.00032067065
0.00039236997
0.00048530055
0.00059510168
0.00073060001
0.00089791765
0.0010113929
0.0010107863
0.0010101414
0.0010094521
0.0010087136
0.0010079221
0.0010070725
0.0010061582
0.0010051725
0.0010041284
0.0010031893
0.0010024546
0.0010018839
0.0010014493
0.0010011241
0.0010008784
0.0010006722
0.0010004708
0.001000264
0.0010001336
0.0010000093
1.1817543e-07
7.0707491e-06
3.2035331e-06
4.1626903e-06
3.182416e-06
3.3763728e-06
3.5285519e-06
3.2457038e-06
3.3794847e-06
3.1155555e-06
3.0334218e-06
2.9671227e-06
2.9464076e-06
2.9573038e-06
2.9827109e-06
3.0448501e-06
3.1347197e-06
3.2511442e-06
3.3942412e-06
3.564989e-06
3.765413e-06
3.9978335e-06
4.2577272e-06
4.5624452e-06
4.9111662e-06
5.3095858e-06
5.7645521e-06
6.2844734e-06
6.8797665e-06
7.5633667e-06
8.3505648e-06
9.2613382e-06
1.0320196e-05
1.1557997e-05
1.2957101e-05
1.4661249e-05
1.6685569e-05
1.9102488e-05
2.2135046e-05
2.5661815e-05
2.9929433e-05
3.5112994e-05
4.1431265e-05
4.9145661e-05
5.85813e-05
7.0141025e-05
8.4319544e-05
0.00010172458
0.00012420358
0.00015070583
0.00018330105
0.00022341087
0.00027537426
0.00033667061
0.00041220247
0.00051024086
0.0006259256
0.00076867721
0.00094492268
0.0010110302
0.0010103871
0.0010097026
0.0010089752
0.0010081995
0.001007372
0.0010064888
0.0010055457
0.0010045476
0.0010035311
0.0010027143
0.0010020642
0.0010015611
0.0010011828
0.0010009068
0.0010007046
0.0010005329
0.0010003554
0.0010001856
0.0010000738
0.00099998053
1.1230387e-07
6.1245521e-06
2.8232001e-06
3.5709523e-06
2.8393064e-06
2.7994216e-06
3.0775627e-06
2.7231363e-06
2.7593001e-06
2.5887476e-06
2.5340282e-06
2.5051628e-06
2.5050654e-06
2.5334011e-06
2.5929503e-06
2.6796769e-06
2.7917164e-06
2.9289102e-06
3.092126e-06
3.2827823e-06
3.4981387e-06
3.7492308e-06
4.0361665e-06
4.3630072e-06
4.7346055e-06
5.1568478e-06
5.6368937e-06
6.1834751e-06
6.8073327e-06
7.5053098e-06
8.3214443e-06
9.2640943e-06
1.0358771e-05
1.1637444e-05
1.3140107e-05
1.4916775e-05
1.7029309e-05
1.955518e-05
2.2590554e-05
2.6254309e-05
3.0694132e-05
3.6352287e-05
4.2992452e-05
5.1108724e-05
6.1043145e-05
7.3221255e-05
8.8166927e-05
0.00010652564
0.00013027694
0.00015824966
0.00019266705
0.00023502824
0.00028997861
0.00035473176
0.00043453886
0.00053293629
0.00066049363
0.00081135531
0.00099758647
0.0010106631
0.0010099819
0.0010092597
0.0010084961
0.0010076855
0.0010068238
0.0010059095
0.0010049402
0.0010039299
0.0010030278
0.0010023104
0.00100174
0.0010012993
0.0010009737
0.0010007423
0.0010005789
0.0010004366
0.0010002809
0.0010001355
0.0010000545
0.00099999296
1.0741778e-07
4.2687941e-06
2.4785968e-06
3.0224137e-06
2.4093326e-06
2.3157411e-06
2.6058017e-06
2.2584446e-06
2.2434713e-06
2.1452403e-06
2.1208136e-06
2.1171117e-06
2.1447775e-06
2.2032536e-06
2.2885235e-06
2.3982787e-06
2.531867e-06
2.68981e-06
2.8707533e-06
3.080764e-06
3.320863e-06
3.5939052e-06
3.9033628e-06
4.2534577e-06
4.6492792e-06
5.0969598e-06
5.6039422e-06
6.1699292e-06
6.8212007e-06
7.5651092e-06
8.4188867e-06
9.4039397e-06
1.0547252e-05
1.1882719e-05
1.3452844e-05
1.5310616e-05
1.7521926e-05
2.0168789e-05
2.335329e-05
2.7202167e-05
3.1872551e-05
3.7558301e-05
4.4830691e-05
5.3389661e-05
6.387317e-05
7.6731206e-05
9.2518214e-05
0.0001119186
0.00013577689
0.00016661659
0.00020301767
0.00024783148
0.0003030274
0.00037451939
0.0004589748
0.00056311267
0.00069821855
0.00085793795
0.0010109873
0.0010102896
0.0010095703
0.0010088125
0.0010080145
0.0010071716
0.0010062785
0.0010053349
0.0010043544
0.0010033743
0.0010025962
0.0010019702
0.0010014731
0.0010010892
0.001000812
0.0010006166
0.0010004826
0.0010003615
0.0010002236
0.0010001021
0.0010000479
0.0010000139
1.0221149e-07
3.5206118e-06
2.1196531e-06
2.5182566e-06
2.0571932e-06
1.9115516e-06
2.1224439e-06
1.8514308e-06
1.8242233e-06
1.7808213e-06
1.7825342e-06
1.8095334e-06
1.8686442e-06
1.9536319e-06
2.0621425e-06
2.1933123e-06
2.3473917e-06
2.5235417e-06
2.7265561e-06
2.9575557e-06
3.2190752e-06
3.5141859e-06
3.8465598e-06
4.220581e-06
4.6415131e-06
5.1157091e-06
5.6445454e-06
6.2473996e-06
6.9316275e-06
7.7116618e-06
8.605658e-06
9.6362845e-06
1.0832058e-05
1.2228838e-05
1.3871772e-05
1.5817404e-05
1.8135963e-05
2.0914528e-05
2.4261448e-05
2.8310711e-05
3.3228728e-05
3.950555e-05
4.688762e-05
5.5920027e-05
6.6990326e-05
8.0574155e-05
9.7257933e-05
0.00011776535
0.00014431471
0.00017559955
0.00021410141
0.00026151209
0.00031991701
0.00039557793
0.000484964
0.00059519748
0.0007382717
0.00090741544
0.0010106302
0.001009908
0.0010091545
0.0010083638
0.0010075329
0.0010066601
0.0010057413
0.0010047713
0.0010037742
0.0010029134
0.0010022277
0.0010016834
0.0010012525
0.001000917
0.0010006789
0.0010005109
0.0010003947
0.0010002894
0.0010001745
0.0010000836
0.00100005
0.0010000272
9.8387136e-08
2.8108849e-06
1.8091558e-06
2.0133651e-06
1.7658651e-06
1.5657622e-06
1.6768841e-06
1.5068331e-06
1.494303e-06
1.4942631e-06
1.5225558e-06
1.5824e-06
1.6679126e-06
1.7756276e-06
1.904639e-06
2.0551685e-06
2.2271591e-06
2.4237479e-06
2.6465089e-06
2.8977679e-06
3.1803046e-06
3.4973691e-06
3.852769e-06
4.2510087e-06
4.6974884e-06
5.1951593e-06
5.7573662e-06
6.3915777e-06
7.1098502e-06
7.9273123e-06
8.8631675e-06
9.9414144e-06
1.119227e-05
1.2653682e-05
1.4373391e-05
1.6411449e-05
1.8842956e-05
2.1760147e-05
2.5278251e-05
2.9539192e-05
3.4947696e-05
4.1314554e-05
4.9093967e-05
5.8618854e-05
7.0297652e-05
8.4633786e-05
0.00010224688
0.000123902
0.00015189981
0.00018493482
0.00022560072
0.00027568483
0.0003373964
0.00041730596
0.00051177727
0.00062830741
0.00077955868
0.00095845411
0.0010102697
0.0010095218
0.0010087381
0.0010079186
0.0010070579
0.0010061552
0.0010052142
0.0010042446
0.0010032788
0.0010025243
0.0010019175
0.0010014395
0.0010010644
0.0010007782
0.0010005569
0.0010004122
0.0010003053
0.0010002126
0.0010001253
0.0010000745
0.001000065
0.0010000446
9.6143174e-08
2.1916354e-06
1.5391482e-06
1.53339e-06
1.4972719e-06
1.2702642e-06
1.3145172e-06
1.2318737e-06
1.2467407e-06
1.2773943e-06
1.3388755e-06
1.4245396e-06
1.531369e-06
1.6580365e-06
1.8047984e-06
1.9726651e-06
2.1624842e-06
2.3772487e-06
2.6187834e-06
2.8896358e-06
3.1927293e-06
3.5314316e-06
3.9096521e-06
4.3319934e-06
4.8039607e-06
5.3322476e-06
5.9251065e-06
6.5927951e-06
7.3396233e-06
8.1950145e-06
9.1733872e-06
1.0300156e-05
1.1607358e-05
1.3135222e-05
1.4934127e-05
1.7136841e-05
1.9703054e-05
2.27848e-05
2.6504796e-05
3.1014486e-05
3.6500475e-05
4.3192342e-05
5.1373837e-05
6.1394408e-05
7.3684677e-05
8.877568e-05
0.00010732118
0.00013126439
0.00015952971
0.00019431047
0.00023713206
0.00028987917
0.000358242
0.00043896883
0.00053851516
0.00066134541
0.00082071137
0.0010093851
0.0010099139
0.0010091384
0.001008327
0.0010074825
0.001006599
0.0010056718
0.0010047018
0.0010037205
0.0010028803
0.001002202
0.0010016595
0.0010012306
0.0010008955
0.0010006533
0.0010004486
0.0010003187
0.0010002199
0.0010001381
0.0010000752
0.0010000621
0.0010000804
0.001000059
9.6264823e-08
1.6639715e-06
1.311306e-06
1.1660973e-06
1.2272769e-06
1.0229918e-06
1.048565e-06
1.0286256e-06
1.0717697e-06
1.1317587e-06
1.2172261e-06
1.3224031e-06
1.446209e-06
1.5887823e-06
1.7511763e-06
1.9348879e-06
2.1414369e-06
2.3734017e-06
2.632953e-06
2.9227491e-06
3.2457985e-06
3.6055466e-06
4.0059873e-06
4.451823e-06
4.9486851e-06
5.5034324e-06
6.1245509e-06
6.8226526e-06
7.6110984e-06
8.5067863e-06
9.5310799e-06
1.0711043e-05
1.208079e-05
1.3683229e-05
1.5572094e-05
1.7814443e-05
2.0493741e-05
2.3713865e-05
2.7603392e-05
3.2321527e-05
3.8064954e-05
4.5075684e-05
5.3649785e-05
6.4154122e-05
7.7039491e-05
9.3630919e-05
0.0001132219
0.00013730404
0.00016692619
0.00020338418
0.00024827725
0.00030643207
0.00037509432
0.00045973982
0.00056415665
0.00069977958
0.00086013755
0.0010103599
0.0010095722
0.0010087697
0.0010079325
0.0010070624
0.0010061583
0.001005221
0.0010042557
0.0010032979
0.0010025516
0.0010019408
0.0010014499
0.0010010589
0.0010007544
0.0010005463
0.0010003527
0.0010002355
0.001000146
0.001000074
0.0010000274
0.0010000386
0.0010000833
0.0010000681
9.9551775e-08
1.2333409e-06
1.1226096e-06
8.9751311e-07
1.0700223e-06
8.1907927e-07
8.6596533e-07
8.9076774e-07
9.5661789e-07
1.0396512e-06
1.1424848e-06
1.2626523e-06
1.4005192e-06
1.5570723e-06
1.7337767e-06
1.9323481e-06
2.154736e-06
2.402967e-06
2.6796784e-06
2.9875055e-06
3.3295203e-06
3.7092399e-06
4.1307452e-06
4.5988476e-06
5.1193184e-06
5.6991994e-06
6.347221e-06
7.074373e-06
7.8945352e-06
8.8253393e-06
9.8891008e-06
1.1114161e-05
1.2536276e-05
1.4200448e-05
1.6163042e-05
1.8494418e-05
2.1282065e-05
2.4634469e-05
2.8685832e-05
3.3601899e-05
3.9857766e-05
4.7223769e-05
5.6231323e-05
6.7264775e-05
8.0796606e-05
9.7408882e-05
0.00011781927
0.00014291293
0.00017377897
0.00021374765
0.00026087795
0.00031892329
0.00039045559
0.0004786652
0.00059324522
0.00072864511
0.00089591791
0.0010100498
0.0010092483
0.0010084269
0.0010075706
0.0010066782
0.0010057484
0.0010047867
0.0010038205
0.0010029683
0.001002285
0.0010017309
0.0010012832
0.0010009245
0.0010006468
0.0010004305
0.0010002772
0.0010001673
0.0010000861
0.0010000228
0.00099998743
0.0010000083
0.0010000642
0.0010000627
1.0611035e-07
9.5277038e-07
9.5804115e-07
7.5911386e-07
7.6253816e-07
6.9852373e-07
7.4369517e-07
8.0353384e-07
8.8659951e-07
9.8572842e-07
1.1016175e-06
1.2341652e-06
1.3844251e-06
1.5537095e-06
1.743608e-06
1.9558945e-06
2.1925508e-06
2.455784e-06
2.7480652e-06
3.0721747e-06
3.431268e-06
3.8289643e-06
4.2694718e-06
4.7577647e-06
5.2998293e-06
5.9008696e-06
6.5730134e-06
7.3262708e-06
8.1824014e-06
9.1482324e-06
1.0252131e-05
1.1523831e-05
1.3000815e-05
1.473019e-05
1.6770912e-05
1.919647e-05
2.2098159e-05
2.558909e-05
2.9809073e-05
3.4930666e-05
4.1166611e-05
4.877901e-05
5.8090465e-05
6.9496243e-05
8.3484864e-05
0.0001006573
0.00012283854
0.00014897414
0.00018111022
0.00022064983
0.00026932686
0.00032928995
0.0004032019
0.00049906759
0.00061241336
0.00075239543
0.00092543429
0.0010097676
0.0010089514
0.0010081143
0.0010072464
0.0010063449
0.0010054074
0.0010044397
0.0010034806
0.001002707
0.0010020745
0.0010015632
0.0010011496
0.0010008183
0.0010005701
0.0010003637
0.0010002166
0.0010001171
0.0010000394
0.00099998264
0.00099995526
0.00099997862
0.0010000342
0.0010000448
1.2060994e-07
9.5667692e-07
7.9932375e-07
5.6276736e-07
6.0589718e-07
6.0881374e-07
6.7217548e-07
7.5074994e-07
8.4729328e-07
9.5856128e-07
1.0855357e-06
1.2290364e-06
1.3903507e-06
1.5708855e-06
1.7722554e-06
1.9962583e-06
2.2449038e-06
2.5204392e-06
2.8253858e-06
3.1625837e-06
3.535253e-06
3.9470808e-06
4.4023449e-06
4.9060924e-06
5.4643914e-06
6.0846767e-06
6.7762092e-06
7.5506636e-06
8.4228757e-06
9.4117344e-06
1.0541254e-05
1.1841923e-05
1.3352222e-05
1.5120529e-05
1.7207364e-05
1.9688125e-05
2.2656424e-05
2.6228126e-05
3.0546309e-05
3.5787351e-05
4.216853e-05
5.0315638e-05
5.9915635e-05
7.1670346e-05
8.6081996e-05
0.00010376801
0.0001254899
0.00015218728
0.00018502057
0.00022542242
0.00027516949
0.00033956864
0.00041568037
0.00050955776
0.00062545209
0.0007686672
0.00094582147
0.0010095385
0.0010087037
0.0010078473
0.0010069636
0.0010060507
0.0010051077
0.0010041459
0.0010032285
0.0010025072
0.001001915
0.0010014377
0.0010010525
0.0010007389
0.001000505
0.0010003161
0.0010001715
0.001000081
0.0010000067
0.0009999565
0.00099993569
0.00099995748
0.001000006
0.001000024
1.1058221e-07
6.1656341e-07
6.3367856e-07
4.6603455e-07
5.0835271e-07
5.5397244e-07
6.3241928e-07
7.2459214e-07
8.3178617e-07
9.5333198e-07
1.0902997e-06
1.2437379e-06
1.4149603e-06
1.6054278e-06
1.8167879e-06
2.0508844e-06
2.3097814e-06
2.5957559e-06
2.9114407e-06
3.2597249e-06
3.6438979e-06
4.0677169e-06
4.535532e-06
5.0524653e-06
5.6246677e-06
6.2596705e-06
6.966854e-06
7.7580528e-06
8.6554307e-06
9.6671628e-06
1.0822633e-05
1.2153092e-05
1.3697931e-05
1.5506626e-05
1.7641007e-05
2.0178061e-05
2.3213301e-05
2.6864904e-05
3.1278783e-05
3.6634789e-05
4.315433e-05
5.1109651e-05
6.0835235e-05
7.2743695e-05
8.7342324e-05
0.00010525642
0.00012725716
0.0001556509
0.00018914779
0.00023035396
0.00028108057
0.00034357092
0.00042061188
0.00051567167
0.00063307565
0.00077823037
0.00095789295
0.0010093909
0.0010085408
0.0010076658
0.0010067633
0.0010058324
0.0010048764
0.0010039171
0.0010030564
0.0010023674
0.0010018036
0.0010013481
0.0010009808
0.0010006863
0.0010004757