/*--------------------------------*- C++ -*----------------------------------*\
  =========                 |
  \\      /  F ield         | OpenFOAM: The Open Source CFD Toolbox
   \\    /   O peration     | Website:  https://openfoam.org
    \\  /    A nd           | Version:  12
     \\/     M anipulation  |
\*---------------------------------------------------------------------------*/
FoamFile
{
    format      ascii;
    class       surfaceScalarField;
    location    "0.116";
    object      phi;
}
// * * * * * * * * * * * * * * * * * * * * * * * * * * * * * * * * * * * * * //

dimensions      [1 0 -1 0 0 0 0];

internalField   nonuniform List<scalar> 
31760
(
-0.00064105631
-0.05080918
0.051449733
-0.0016061112
-0.064209027
0.065173572
-0.0025977677
-0.062863939
0.06385206
-0.0036180494
-0.068509595
0.06952929
-0.0046940709
-0.070185706
0.07126103
-0.0057979255
-0.074440758
0.075543845
-0.0069725814
-0.07736696
0.078540759
-0.0081856929
-0.081365838
0.082578001
-0.0094597408
-0.084984335
0.086257362
-0.010792385
-0.089095329
0.090426864
-0.012180925
-0.093223582
0.094610932
-0.013636895
-0.097628482
0.099083183
-0.015155043
-0.10219758
0.10371437
-0.016743595
-0.10699266
0.10857978
-0.018402163
-0.11200261
0.11365966
-0.020135497
-0.11724401
0.11897574
-0.021946271
-0.12272491
0.124534
-0.023837697
-0.12845672
0.13034636
-0.025813023
-0.13445042
0.13642388
-0.027875657
-0.14071726
0.14277793
-0.030029039
-0.14726962
0.14942094
-0.03227694
-0.15411943
0.15636517
-0.034622961
-0.16128027
0.16362402
-0.037071017
-0.1687658
0.17121148
-0.039624086
-0.17659053
0.17914112
-0.042286758
-0.18476855
0.18742861
-0.045062929
-0.19331605
0.1960895
-0.047956031
-0.20224963
0.20513988
-0.050969561
-0.21158617
0.21459672
-0.054107567
-0.2213437
0.2244786
-0.057373355
-0.23154115
0.23480369
-0.060770256
-0.24219828
0.24559179
-0.06430108
-0.25333656
0.25686385
-0.067968869
-0.26497709
0.26864119
-0.071775608
-0.2771439
0.2809468
-0.075722951
-0.28986127
0.2938046
-0.079812216
-0.30315488
0.30723996
-0.084043864
-0.31705242
0.32127971
-0.08841769
-0.33158186
0.33595115
-0.092932353
-0.34677465
0.35128458
-0.097585822
-0.36266253
0.36731107
-0.10237464
-0.37927928
0.38406296
-0.10729415
-0.39666094
0.40157512
-0.11233851
-0.4148454
0.41988422
-0.11749994
-0.43387302
0.43902871
-0.12276925
-0.45378548
0.45904883
-0.12813485
-0.4746277
0.47998712
-0.13358378
-0.4964461
0.50188863
-0.1391005
-0.5192908
0.52480089
-0.14466668
-0.54321363
0.54877296
-0.15026126
-0.56826904
0.57385653
-0.15586071
-0.59451508
0.60010723
-0.16143765
-0.62201211
0.62758152
-0.16696111
-0.65082371
0.65633943
-0.1723966
-0.68101638
0.68644391
-0.17770421
-0.71266069
0.71796012
-0.18283986
-0.74582974
0.75095699
-0.18775415
-0.7806003
0.78550599
-0.19239072
-0.81705321
0.82168098
-0.19668742
-0.85527256
0.85956027
-0.20057418
-0.89534605
0.89922368
-0.20397317
-0.93736491
0.94075467
-0.20679707
-0.98142458
0.98423925
-0.20894866
-1.0276242
1.0297666
-0.21031946
-1.0760653
1.0774272
-0.21078909
-1.1268547
1.1273158
-0.21022196
-1.1801018
1.1795268
-0.2084731
-1.2359181
1.2341621
-0.20537582
-1.2944228
1.2913193
-0.20074284
-1.3557352
1.3510969
-0.19437162
-1.4199771
1.4136015
-0.18604259
-1.4872756
1.4789429
-0.17550335
-1.5577718
1.5472293
-0.16248897
-1.6316072
1.6185891
-0.14664441
-1.7089556
1.6931058
-0.12790918
-1.7899244
1.771181
-0.10500861
-1.8745885
1.8516753
-0.079638002
-1.9641539
1.9387573
-0.047974248
-2.0554408
2.0237643
-2.1562398
2.1215121
-0.00063544044
-0.05017458
-0.001504648
-0.063340556
-0.0024064547
-0.061960702
-0.0033662394
-0.067550807
-0.0043375288
-0.069215433
-0.0053861089
-0.073393224
-0.0064502946
-0.076303854
-0.0075945757
-0.080222678
-0.0087650525
-0.08381502
-0.010010058
-0.087851533
-0.011298343
-0.091936555
-0.012654276
-0.096273864
-0.014067927
-0.10078529
-0.015548358
-0.10551366
-0.017095769
-0.11045669
-0.018714327
-0.11562702
-0.020406225
-0.12103465
-0.022175253
-0.12668941
-0.024024639
-0.13260283
-0.025957984
-0.13878581
-0.027978957
-0.14525062
-0.030090833
-0.15200963
-0.032297729
-0.15907554
-0.034603354
-0.16646245
-0.037012518
-0.17418375
-0.039528054
-0.1822555
-0.04215467
-0.19069205
-0.04489612
-0.19951091
-0.047756703
-0.20872844
-0.050740009
-0.21836338
-0.053850133
-0.22843414
-0.057090427
-0.23896124
-0.06046421
-0.24996618
-0.06397449
-0.26147036
-0.067623708
-0.27349839
-0.071414205
-0.28607464
-0.075347168
-0.29922595
-0.079424116
-0.31297969
-0.083644411
-0.32736597
-0.088007661
-0.34241599
-0.092512275
-0.35816271
-0.097155162
-0.37464138
-0.10193197
-0.39188933
-0.10683762
-0.40994515
-0.11186506
-0.42885122
-0.11700571
-0.44865067
-0.12224936
-0.46939013
-0.12758338
-0.4911184
-0.13299348
-0.51388726
-0.1384631
-0.53775081
-0.14397287
-0.56276632
-0.14950073
-0.58899452
-0.15502147
-0.61649892
-0.16050677
-0.64534619
-0.16592456
-0.67560664
-0.17123852
-0.70735502
-0.1764082
-0.74066859
-0.18138806
-0.77562921
-0.18612683
-0.81232345
-0.19056769
-0.85084092
-0.19464664
-0.89127649
-0.19829239
-0.93372868
-0.20142488
-0.97830164
-0.20395606
-1.0251025
-0.20578657
-1.074244
-0.20680754
-1.1258425
-0.20689389
-1.1800237
-0.20591086
-1.2369086
-0.2037078
-1.2966326
-0.20011569
-1.3593332
-0.19495006
-1.4251479
-0.18800463
-1.4942256
-0.179054
-1.5667268
-0.16784104
-1.642825
-0.1541043
-1.722699
-0.13755767
-1.8064806
-0.1176521
-1.8945094
-0.094751361
-1.9870806
-0.066917056
-2.0832937
-2.1873613
-0.00057480442
-0.049600554
-0.0013860955
-0.062530067
-0.0021949673
-0.061153065
-0.0030991211
-0.066647517
-0.0039930134
-0.068322425
-0.004973079
-0.072414094
-0.0059549135
-0.07532299
-0.0070201201
-0.079158495
-0.0081047606
-0.082731444
-0.0092622063
-0.086695207
-0.010459645
-0.090740286
-0.011721108
-0.095013632
-0.013037651
-0.099470036
-0.014417546
-0.10413512
-0.015861479
-0.10901418
-0.017373059
-0.11411693
-0.018955638
-0.11945363
-0.020612184
-0.1250345
-0.022346974
-0.13086976
-0.024162847
-0.13697173
-0.026064297
-0.14335106
-0.028054863
-0.15002104
-0.030138432
-0.15699404
-0.032319802
-0.16428325
-0.034602253
-0.17190357
-0.036991007
-0.17986913
-0.039489524
-0.18819602
-0.042102883
-0.19690015
-0.044834648
-0.2059994
-0.047689976
-0.2155109
-0.050671988
-0.22545511
-0.053785019
-0.23585133
-0.057032882
-0.24672157
-0.060418275
-0.25808837
-0.063944792
-0.26997544
-0.06761461
-0.28240854
-0.071429975
-0.29541448
-0.075391413
-0.30902232
-0.079499948
-0.32326169
-0.083755076
-0.3381653
-0.088155024
-0.35376739
-0.09269769
-0.37010355
-0.097379716
-0.38721236
-0.10219566
-0.40513448
-0.10713956
-0.42391281
-0.11220348
-0.44359249
-0.11737821
-0.46422137
-0.12265191
-0.48585093
-0.12801207
-0.50853358
-0.13344311
-0.53232652
-0.13892692
-0.55728951
-0.14444419
-0.58348453
-0.14997168
-0.61097899
-0.15548356
-0.63984215
-0.16095075
-0.67014757
-0.16634041
-0.70197377
-0.17161605
-0.73540164
-0.17673561
-0.77051862
-0.18165375
-0.80741457
-0.1863181
-0.84618606
-0.19067135
-0.88693295
-0.19464856
-0.92976133
-0.19817823
-0.97478191
-0.20117961
-1.0221109
-0.20356304
-1.0718703
-0.20522782
-1.1241871
-0.20606633
-1.1791939
-0.20595307
-1.23703
-0.20474866
-1.2978443
-0.20230474
-1.3617836
-0.19844776
-1.4290107
-0.19299626
-1.4996825
-0.18573918
-1.5739892
-0.17645034
-1.65212
-0.16488595
-1.7342714
-0.15074611
-1.8206319
-0.13372661
-1.9115468
-0.11366531
-2.0071684
-0.089556221
-2.1074259
-2.2147327
-0.00051853193
-0.0490827
-0.0012692445
-0.061780027
-0.0020053789
-0.060417833
-0.0028569415
-0.065796718
-0.0036846546
-0.067495523
-0.0045979477
-0.071501651
-0.0055028678
-0.07441897
-0.0064946246
-0.078167688
-0.0074990821
-0.081727983
-0.0085756713
-0.085619669
-0.0096891322
-0.089627927
-0.010863731
-0.093840194
-0.012091518
-0.098243466
-0.013379777
-0.10284814
-0.014730197
-0.1076651
-0.016146563
-0.11270197
-0.017632184
-0.11796949
-0.019190458
-0.12347777
-0.020824871
-0.12923697
-0.022539789
-0.13525852
-0.024338397
-0.14155423
-0.026225775
-0.14813553
-0.028205847
-0.15501593
-0.030282619
-0.16220853
-0.032461259
-0.16972708
-0.034745739
-0.1775869
-0.03714111
-0.18580301
-0.039651728
-0.19439201
-0.042283057
-0.20337066
-0.045038466
-0.21275821
-0.047923095
-0.22257332
-0.050941313
-0.23283608
-0.05409682
-0.24356918
-0.057393497
-0.25479495
-0.060834755
-0.26653759
-0.06442305
-0.27882382
-0.068160591
-0.29168067
-0.072049295
-0.30513752
-0.07608951
-0.31922556
-0.080281284
-0.33397781
-0.084624018
-0.34942913
-0.089115049
-0.3656172
-0.093751589
-0.38258071
-0.0985293
-0.40036188
-0.10344229
-0.41900517
-0.10848409
-0.43855628
-0.11364508
-0.45906622
-0.11891639
-0.48058572
-0.1242853
-0.50317105
-0.12973826
-0.52688022
-0.1352597
-0.55177502
-0.14083108
-0.57792039
-0.14643228
-0.60538534
-0.1520405
-0.63424179
-0.15762876
-0.66456749
-0.16316879
-0.69644225
-0.16862719
-0.72995208
-0.17396721
-0.76518776
-0.17914778
-0.80224348
-0.18412259
-0.84122103
-0.18884008
-0.88222549
-0.19324251
-0.92536912
-0.19726579
-0.97076895
-0.20083774
-1.0185493
-0.20387816
-1.06884
-0.2062996
-1.1217754
-0.20799734
-1.1775054
-0.20886608
-1.2361698
-0.20877773
-1.2979405
-0.2075998
-1.3629687
-0.20517904
-1.4314381
-0.20133963
-1.5035282
-0.19590472
-1.5794306
-0.18866279
-1.6593693
-0.17939285
-1.743551
-0.16782741
-1.8322107
-0.15372224
-1.9256723
-0.13679263
-2.0241261
-0.11639066
-2.1278542
-2.2381935
-0.00046290905
-0.048620448
-0.001166108
-0.06107747
-0.0018254315
-0.059759133
-0.0026207802
-0.065002103
-0.0033745727
-0.06674252
-0.0042298479
-0.070647196
-0.0050678327
-0.073581846
-0.0059939964
-0.077242431
-0.0069269701
-0.080795958
-0.0079304433
-0.084617194
-0.0089695536
-0.08858986
-0.010067295
-0.092743551
-0.011217852
-0.097094058
-0.01242742
-0.10163978
-0.013698397
-0.10639539
-0.015033907
-0.11136779
-0.016437717
-0.11656707
-0.017913623
-0.12200333
-0.019465329
-0.1276868
-0.021096889
-0.13362857
-0.022813026
-0.13983978
-0.024617111
-0.14633322
-0.026514669
-0.15312023
-0.028510309
-0.16021484
-0.030608566
-0.16763086
-0.032814739
-0.17538287
-0.035134051
-0.18348593
-0.037571464
-0.19195694
-0.04013192
-0.20081266
-0.042820646
-0.21007205
-0.045642535
-0.21975413
-0.048602086
-0.22987936
-0.051703678
-0.24047055
-0.05495169
-0.25155004
-0.058349309
-0.26314322
-0.061899646
-0.27527689
-0.065605234
-0.28797865
-0.069468003
-0.30127849
-0.073488738
-0.31520874
-0.077667862
-0.32980279
-0.082004365
-0.34509693
-0.086497107
-0.36112897
-0.091142841
-0.3779397
-0.095937924
-0.39557175
-0.10087793
-0.41407036
-0.10595593
-0.43348372
-0.11116473
-0.45386312
-0.11649526
-0.47526117
-0.12193685
-0.49773572
-0.12747799
-0.52134564
-0.13310425
-0.54615565
-0.1388002
-0.57223163
-0.14454784
-0.59964524
-0.15032686
-0.62847065
-0.1561149
-0.65878769
-0.16188618
-0.69067958
-0.16761147
-0.72423576
-0.17325943
-0.75954915
-0.17879342
-0.7967192
-0.18417349
-0.83585101
-0.18935393
-0.87705541
-0.19428429
-0.92044936
-0.1989077
-0.96615628
-0.2031611
-1.0143067
-0.20697383
-1.0650379
-0.21026571
-1.1184938
-0.21295212
-1.1748289
-0.21492798
-1.2342032
-0.21609315
-1.2967839
-0.21631433
-1.3627555
-0.21546332
-1.4322966
-0.21338654
-1.5056123
-0.20991781
-1.582907
-0.2048748
-1.6644212
-0.19805168
-1.7503854
-0.18921384
-1.8410641
-0.17814991
-1.9367595
-0.16456628
-2.0377401
-0.14798717
-2.1444633
-2.2575702
-0.00041301022
-0.048208054
-0.00107518
-0.060415903
-0.0016714924
-0.059163499
-0.00240868
-0.064265604
-0.0030864956
-0.066065439
-0.0038902135
-0.069844242
-0.0046615558
-0.072811309
-0.0055281434
-0.076376688
-0.0063977696
-0.079927218
-0.0073392962
-0.0836766
-0.0083178723
-0.08761226
-0.0093530584
-0.091709393
-0.010441287
-0.096006905
-0.011587239
-0.10049497
-0.012793744
-0.10519007
-0.014064677
-0.11009811
-0.015403543
-0.11522951
-0.01681423
-0.12059402
-0.018301241
-0.12620123
-0.019868579
-0.13206274
-0.021521344
-0.1381886
-0.023264362
-0.14459187
-0.025102777
-0.15128356
-0.027041705
-0.15827774
-0.029086765
-0.16558772
-0.031243774
-0.17322787
-0.033517473
-0.18121435
-0.035914171
-0.18956246
-0.038439171
-0.19828998
-0.041097856
-0.20741581
-0.043895816
-0.21695872
-0.046837632
-0.22694022
-0.049928702
-0.23738228
-0.053172332
-0.24830935
-0.056573034
-0.2597456
-0.060134157
-0.271719
-0.063857921
-0.28425829
-0.067746335
-0.29739364
-0.071800978
-0.31115784
-0.076021958
-0.32558573
-0.080409213
-0.3407138
-0.084960798
-0.35658171
-0.089675041
-0.37323001
-0.094548762
-0.39070281
-0.099576968
-0.40904718
-0.10475465
-0.42831133
-0.11007613
-0.4485472
-0.11553264
-0.46981051
-0.1211163
-0.49215822
-0.12681579
-0.51565262
-0.13262056
-0.54035768
-0.13851669
-0.56634265
-0.14448921
-0.59368024
-0.15052106
-0.6224467
-0.15659295
-0.65272409
-0.16268316
-0.68459807
-0.16876798
-0.71816005
-0.1748194
-0.75350727
-0.180807
-0.79074156
-0.18669583
-0.82997253
-0.19244782
-0.87131412
-0.19801915
-0.91488902
-0.20336122
-0.9608254
-0.20841919
-1.00926
-0.21313169
-1.0603366
-0.21742995
-1.1142065
-0.22123729
-1.1710321
-0.22447029
-1.2309802
-0.22702751
-1.2942361
-0.22880813
-1.3609838
-0.22968758
-1.4314256
-0.22953464
-1.5057737
-0.22820309
-1.5842476
-0.2255297
-1.6671051
-0.22133138
-1.7545968
-0.21540641
-1.8470071
-0.20755492
-1.9446371
-0.19752666
-2.0478012
-0.18494004
-2.1570838
-2.272658
-0.00037042259
-0.047838208
-0.0010016084
-0.05978528
-0.0015430425
-0.058622684
-0.0022327636
-0.063576521
-0.0028509102
-0.06544797
-0.0036068616
-0.069089004
-0.0043218874
-0.072097035
-0.0051270686
-0.075572294
-0.0059546917
-0.079100423
-0.0068498398
-0.082782326
-0.0077821687
-0.086680846
-0.0087675598
-0.090724968
-0.0098056532
-0.094969822
-0.010900497
-0.099401188
-0.012056146
-0.10403553
-0.013276097
-0.10887933
-0.01456521
-0.11394163
-0.015927592
-0.11923293
-0.017368043
-0.12476213
-0.018891972
-0.13054024
-0.020503984
-0.13657808
-0.022210295
-0.14288712
-0.02401612
-0.14947937
-0.025927161
-0.15636843
-0.027949773
-0.16356691
-0.030089603
-0.17108994
-0.032353538
-0.1789524
-0.034747143
-0.18717094
-0.037276152
-0.19576316
-0.039947174
-0.20474708
-0.04276522
-0.21414308
-0.045735885
-0.22397208
-0.048863851
-0.23425697
-0.052154247
-0.24502174
-0.055610144
-0.25629263
-0.059235227
-0.26809699
-0.06303263
-0.28046411
-0.06700406
-0.2934256
-0.071150669
-0.30701479
-0.075473135
-0.32126702
-0.079971448
-0.33621943
-0.084644395
-0.35191292
-0.089490459
-0.36838832
-0.094506526
-0.38569136
-0.099689729
-0.40386884
-0.10503557
-0.42297062
-0.11053866
-0.44304953
-0.11619353
-0.46416136
-0.12199227
-0.48636551
-0.12792751
-0.50972376
-0.13398928
-0.53430265
-0.14016726
-0.56017179
-0.14644979
-0.58740521
-0.15282278
-0.61608163
-0.15927111
-0.64628411
-0.16577696
-0.67810103
-0.17232105
-0.71162522
-0.17888098
-0.74695707
-0.18543146
-0.78420129
-0.19194454
-0.8234701
-0.1983877
-0.86488202
-0.20472526
-0.90856287
-0.21091623
-0.95464611
-0.21691495
-1.0032731
-0.22266992
-1.0545934
-0.22812257
-1.1087655
-0.23320801
-1.165958
-0.23785423
-1.2263449
-0.24197656
-1.2901242
-0.24548294
-1.3574873
-0.24827385
-1.4286444
-0.25023097
-1.5038263
-0.25122563
-1.5832634
-0.25112317
-1.6672198
-0.24975746
-1.7559778
-0.24695181
-1.8498334
-0.24253293
-1.9490853
-0.2362743
-2.0540948
-0.22789583
-2.1655004
-2.2832032
-0.00032721874
-0.047511529
-0.00093272405
-0.059180299
-0.0014247527
-0.058131235
-0.0020685385
-0.06293333
-0.0026422037
-0.064874942
-0.0033697096
-0.068362162
-0.0040513805
-0.071416066
-0.0048409371
-0.074783472
-0.0056289711
-0.078313168
-0.0064779407
-0.081934178
-0.0073678903
-0.085791755
-0.0083102444
-0.089783519
-0.0093075248
-0.093973489
-0.010363175
-0.098346536
-0.011481637
-0.10291811
-0.012667499
-0.10769456
-0.013924722
-0.11268555
-0.015259293
-0.11789957
-0.01667604
-0.12334665
-0.018180646
-0.12903697
-0.019778949
-0.13498118
-0.021476956
-0.14119058
-0.023280974
-0.14767689
-0.025198243
-0.15445277
-0.027234234
-0.16153262
-0.02939643
-0.16892952
-0.031690965
-0.17665973
-0.034124665
-0.1847392
-0.036704031
-0.19318584
-0.039435117
-0.20201815
-0.042323645
-0.21125681
-0.045375348
-0.22092275
-0.048595347
-0.23103946
-0.051987689
-0.24163202
-0.055556611
-0.25272646
-0.05930562
-0.26435088
-0.063236905
-0.27653587
-0.067352744
-0.28931297
-0.0716545
-0.30271642
-0.076142779
-0.31678231
-0.08081747
-0.33154851
-0.085678619
-0.34705575
-0.090724208
-0.36334693
-0.095952742
-0.38046727
-0.1013618
-0.39846448
-0.10694814
-0.41738926
-0.11270823
-0.43729472
-0.11863785
-0.45823734
-0.12473186
-0.48027743
-0.13098453
-0.50347737
-0.13738953
-0.52790431
-0.14393879
-0.5536296
-0.15062393
-0.58072756
-0.15743488
-0.60927863
-0.16436053
-0.63936689
-0.17138809
-0.67108238
-0.17850232
-0.70452041
-0.18568653
-0.73978282
-0.19292156
-0.77697672
-0.20018538
-0.81621726
-0.20745297
-0.85762588
-0.2146959
-0.90133181
-0.22188152
-0.94747269
-0.22897342
-0.99619355
-0.23592926
-1.04765
-0.24270236
-1.1020048
-0.24923889
-1.1594336
-0.25547733
-1.2201183
-0.26135121
-1.2842618
-0.26678671
-1.3520629
-0.2716881
-1.4237539
-0.27596664
-1.499559
-0.27950878
-1.5797334
-0.28219929
-1.6645435
-0.28390162
-1.7542931
-0.28446636
-1.8492924
-0.28373365
-1.9498507
-0.28149908
-2.056367
-0.27758134
-2.1694605
-2.2889152
-0.00028522399
-0.047226812
-0.00087150017
-0.058594514
-0.0013225656
-0.057680714
-0.0019423903
-0.062314061
-0.0024930409
-0.064324889
-0.0031987926
-0.067657034
-0.003853008
-0.07076251
-0.0046180598
-0.074019124
-0.0053758803
-0.077556074
-0.0061923438
-0.081118482
-0.0070551208
-0.08492978
-0.0079709091
-0.088868577
-0.0089445811
-0.093000701
-0.0099795633
-0.097312486
-0.011080924
-0.10181773
-0.012253499
-0.10652302
-0.013502947
-0.11143718
-0.014834686
-0.11656896
-0.01625472
-0.1219278
-0.017769824
-0.12752311
-0.019386027
-0.13336627
-0.021110857
-0.13946712
-0.022950676
-0.14583851
-0.024912867
-0.15249209
-0.027004995
-0.15944207
-0.02923383
-0.16670234
-0.031606882
-0.17428841
-0.034130998
-0.1822169
-0.036812591
-0.19050617
-0.03965844
-0.19917431
-0.042674579
-0.20824279
-0.045866037
-0.21773351
-0.049237669
-0.22767017
-0.052794259
-0.23807789
-0.056539467
-0.24898384
-0.060476051
-0.26041702
-0.064606903
-0.2724079
-0.068933913
-0.284989
-0.073458155
-0.29819539
-0.078180754
-0.3120631
-0.083101763
-0.32663109
-0.088220919
-0.3419404
-0.093538013
-0.35803388
-0.09905246
-0.37495711
-0.10476265
-0.39275884
-0.11066723
-0.41148951
-0.11676421
-0.43120288
-0.12305147
-0.45195556
-0.12952656
-0.47380816
-0.13618604
-0.4968241
-0.14302666
-0.52107031
-0.15004418
-0.54661912
-0.15723341
-0.57354584
-0.16458886
-0.60193117
-0.17210336
-0.63186089
-0.17976897
-0.66342582
-0.18757553
-0.69672346
-0.19551259
-0.73185594
-0.20356652
-0.76893356
-0.21172192
-0.8080732
-0.21996134
-0.84939833
-0.22826408
-0.89304142
-0.23660638
-0.93914315
-0.24496012
-0.98785286
-0.25329451
-1.0393289
-0.26157264
-1.09374
-0.26975411
-1.1512653
-0.2777893
-1.2120961
-0.28562662
-1.2764371
-0.29320106
-1.3445009
-0.30044679
-1.4165207
-0.30728348
-1.4927352
-0.31362444
-1.5734066
-0.31936935
-1.6588151
-0.32440949
-1.7492733
-0.32862325
-1.8451056
-0.33187049
-1.9466393
-0.33398091
-2.0542969
-0.33481076
-2.1686772
-2.2894845
-0.00024699639
-0.04698029
-0.00082208927
-0.05801988
-0.0012431621
-0.05726015
-0.0018874503
-0.061670292
-0.0024232973
-0.0637896
-0.0031041836
-0.066976732
-0.0037355022
-0.070131805
-0.0044589122
-0.073296354
-0.0052031754
-0.076812486
-0.0060039689
-0.080318402
-0.0068568248
-0.084077669
-0.0077645603
-0.087961629
-0.0087343041
-0.09203178
-0.0097699928
-0.096277665
-0.010877378
-0.10071125
-0.012062226
-0.10533912
-0.013330767
-0.11016964
-0.01468969
-0.11521109
-0.016145775
-0.12047281
-0.017705733
-0.1259643
-0.019378168
-0.13169505
-0.021169525
-0.13767704
-0.023088643
-0.14392072
-0.025142785
-0.15043934
-0.027339747
-0.15724657
-0.02968759
-0.16435604
-0.032193673
-0.17178394
-0.034864924
-0.17954735
-0.037708695
-0.18766418
-0.040730914
-0.19615396
-0.043937122
-0.20503855
-0.047332924
-0.21433978
-0.050922704
-0.22408257
-0.054710623
-0.23429227
-0.058699933
-0.24499696
-0.062893426
-0.25622609
-0.067293325
-0.26801071
-0.071901331
-0.28038386
-0.076719191
-0.29338056
-0.081747593
-0.30703792
-0.086987459
-0.32139465
-0.092439571
-0.33649193
-0.098104409
-0.35237291
-0.10398199
-0.36908366
-0.11007315
-0.38667209
-0.1163784
-0.40518897
-0.1228977
-0.42468861
-0.12963149
-0.44522714
-0.13657997
-0.46686543
-0.14374335
-0.48966688
-0.15112088
-0.51369935
-0.15871281
-0.53903423
-0.16651766
-0.56574852
-0.17453398
-0.59392291
-0.18275975
-0.62364373
-0.19119174
-0.65500304
-0.19982612
-0.68809889
-0.20865731
-0.7230352
-0.21767886
-0.75992309
-0.22688254
-0.79888124
-0.23625754
-0.84003566
-0.24579186
-0.88351998
-0.25547036
-0.92947802
-0.26527542
-0.97806158
-0.27518538
-1.029433
-0.28517525
-1.0837643
-0.29521545
-1.1412394
-0.30527301
-1.2020527
-0.31530668
-1.2664176
-0.32527215
-1.3345496
-0.33511942
-1.4066876
-0.34478133
-1.4830882
-0.3541957
-1.5640087
-0.36328656
-1.6497434
-0.37197104
-1.7406122
-0.38014736
-1.8369597
-0.38770529
-1.9391203
-0.394497
-2.0475477
-0.4004375
-2.1627872
-2.284549
-0.00021302589
-0.046767707
-0.00078861376
-0.057444717
-0.0011867735
-0.056862463
-0.0018484926
-0.061009067
-0.0023624911
-0.06327612
-0.0030342886
-0.066305476
-0.0036588431
-0.069507819
-0.0043772566
-0.072578542
-0.0051240404
-0.076066329
-0.0059250441
-0.079518061
-0.0067854949
-0.083217909
-0.0077055216
-0.087042332
-0.0086935947
-0.091044468
-0.0097545342
-0.095217529
-0.010895
-0.099571622
-0.012121709
-0.1041133
-0.013441821
-0.10885045
-0.014862667
-0.11379122
-0.016392656
-0.11894384
-0.018039696
-0.12431833
-0.019812028
-0.12992383
-0.021718541
-0.1357717
-0.023767339
-0.14187315
-0.025967096
-0.14824088
-0.028326483
-0.15488853
-0.03085286
-0.16183108
-0.033554014
-0.16908428
-0.03643719
-0.17666574
-0.039509096
-0.18459391
-0.042774923
-0.19288987
-0.046241053
-0.20157424
-0.0499113
-0.21067146
-0.053790403
-0.22020549
-0.057881102
-0.23020371
-0.062186187
-0.24069414
-0.066708563
-0.25170611
-0.071450129
-0.26327169
-0.076412398
-0.2754243
-0.08159709
-0.28819875
-0.087005999
-0.30163208
-0.092640625
-0.31576329
-0.098502748
-0.33063329
-0.10459402
-0.34628537
-0.11091703
-0.36276465
-0.1174741
-0.3801193
-0.12426758
-0.39840008
-0.1313011
-0.41766002
-0.13857713
-0.4379564
-0.14609964
-0.45934859
-0.15387195
-0.48190067
-0.16189788
-0.50567999
-0.17018029
-0.53075887
-0.17872301
-0.55721337
-0.18752935
-0.58512472
-0.19660182
-0.61458
-0.20594284
-0.64567139
-0.21555447
-0.6784973
-0.22543743
-0.71316297
-0.23559178
-0.74978018
-0.2460162
-0.78846895
-0.25670913
-0.82935555
-0.26766583
-0.87257673
-0.27888076
-0.91827712
-0.29034603
-0.96661084
-0.30205107
-1.0177429
-0.31398254
-1.0718481
-0.32612406
-1.1291134
-0.33845357
-1.1897389
-0.35094969
-1.2539372
-0.36358194
-1.3219332
-0.37631152
-1.3939744
-0.38910583
-1.4703111
-0.40191057
-1.5512231
-0.41467412
-1.637002
-0.42733692
-1.7279763
-0.4398382
-1.8244926
-0.45207671
-1.926924
-0.46394185
-2.0357277
-0.47538784
-2.1513954
-2.2736918
-0.00019163571
-0.046576479
-0.00078641776
-0.056850326
-0.0011805935
-0.056468723
-0.0018344793
-0.060355628
-0.0023412114
-0.062769864
-0.0030186777
-0.065628508
-0.0036580963
-0.068868923
-0.0043830217
-0.07185417
-0.0051513189
-0.075298609
-0.0059735315
-0.07869646
-0.0068633011
-0.082328776
-0.0078198403
-0.086086466
-0.0088527032
-0.090012307
-0.0099679555
-0.094103017
-0.011173299
-0.098367051
-0.012476616
-0.1028108
-0.01388633
-0.10744158
-0.015411257
-0.11226718
-0.017060002
-0.11729603
-0.018842484
-0.12253683
-0.020767469
-0.12799987
-0.022844585
-0.13369566
-0.025082605
-0.13963626
-0.027490576
-0.14583409
-0.030076957
-0.15230339
-0.032849751
-0.15905959
-0.0358159
-0.1661195
-0.038982474
-0.1735006
-0.042354859
-0.18122304
-0.045938987
-0.18930733
-0.049738604
-0.1977763
-0.053757795
-0.20665404
-0.057999819
-0.21596535
-0.062467208
-0.22573831
-0.067162389
-0.23600107
-0.07208756
-0.24678319
-0.077244377
-0.25811726
-0.082635269
-0.27003596
-0.088262151
-0.28257459
-0.094127725
-0.29576942
-0.10023486
-0.30965928
-0.10658691
-0.3242846
-0.11318801
-0.33968788
-0.1200424
-0.35591414
-0.1271549
-0.37301097
-0.13453145
-0.39102803
-0.14217784
-0.41001848
-0.15010068
-0.43003878
-0.1583067
-0.45114822
-0.16680337
-0.47341009
-0.17559818
-0.49689174
-0.1846996
-0.52166453
-0.19411533
-0.54780529
-0.20385369
-0.57539461
-0.21392245
-0.60452014
-0.22433041
-0.63527301
-0.23508478
-0.66775323
-0.24619328
-0.70206552
-0.25766315
-0.73832211
-0.26950117
-0.77664352
-0.28171286
-0.8171572
-0.29430334
-0.86000032
-0.3072764
-0.9053188
-0.32063436
-0.95326823
-0.33437818
-1.004015
-0.34850643
-1.0577362
-0.36301521
-1.1146214
-0.37789791
-1.1748733
-0.39314891
-1.2387038
-0.40874999
-1.3063501
-0.42469017
-1.3780529
-0.44094308
-1.4540782
-0.45748598
-1.5347022
-0.4742914
-1.620222
-0.49132234
-1.710976
-0.50854037
-1.8073129
-0.52587964
-1.909631
-0.54326642
-2.01839
-0.56066921
-2.1340516
-2.2564506
-0.00017308942
-0.046403767
-0.00079645916
-0.056227319
-0.0011972074
-0.056068378
-0.0018620375
-0.059691212
-0.0023813159
-0.062251026
-0.0030732361
-0.064937049
-0.0037429492
-0.068199693
-0.0044913315
-0.071106298
-0.0052995307
-0.074490941
-0.0061654557
-0.077831097
-0.007108712
-0.081386105
-0.008129255
-0.085066541
-0.00923739
-0.088904815
-0.010440828
-0.092900257
-0.011748598
-0.097059987
-0.013170019
-0.10139012
-0.014714817
-0.10589756
-0.016393083
-0.11058973
-0.018215061
-0.1154749
-0.02019066
-0.12056212
-0.022330258
-0.12586121
-0.024643424
-0.13138347
-0.027139315
-0.13714139
-0.029827075
-0.1431474
-0.032714437
-0.14941716
-0.035808645
-0.15596657
-0.03911685
-0.16281254
-0.042643867
-0.1699749
-0.046394866
-0.17747343
-0.050373721
-0.18532994
-0.054583802
-0.19356777
-0.059028111
-0.20221137
-0.063707983
-0.21128722
-0.06862663
-0.22082152
-0.073785475
-0.2308442
-0.079186466
-0.24138431
-0.084832501
-0.25247349
-0.090725872
-0.26414501
-0.096870784
-0.27643228
-0.10327104
-0.28937196
-0.10993131
-0.30300202
-0.11685716
-0.31736199
-0.12405534
-0.3324932
-0.13153278
-0.34844048
-0.13929757
-0.36525027
-0.14735868
-0.38297133
-0.15572549
-0.40165646
-0.16440815
-0.4213613
-0.17341787
-0.44214411
-0.18276588
-0.46406817
-0.1924646
-0.48719963
-0.2025259
-0.51161038
-0.21296373
-0.5373752
-0.22379097
-0.56457575
-0.23502201
-0.59329817
-0.24667031
-0.62363451
-0.25875083
-0.65568328
-0.27127776
-0.68954998
-0.2842655
-0.72534659
-0.29772932
-0.76319275
-0.31168297
-0.80321744
-0.32614095
-0.84555704
-0.34111729
-0.89035794
-0.35662519
-0.93777652
-0.37267669
-0.98798033
-0.38928345
-1.041147
-0.40645572
-1.0974672
-0.42420302
-1.1571447
-0.44252964
-1.2203965
-0.46144233
-1.2874576
-0.48094304
-1.3585734
-0.50103298
-1.4340111
-0.52170684
-1.5140537
-0.54295405
-1.5990037
-0.56477548
-1.6891891
-0.5871526
-1.7849784
-0.61006645
-1.8867682
-0.63347538
-1.9950357
-0.65736649
-2.1102267
-2.2323172
-0.00015900902
-0.046245107
-0.00082419175
-0.05556247
-0.0012385324
-0.055654408
-0.0019332923
-0.058996831
-0.002482664
-0.061702056
-0.0032031267
-0.064217009
-0.0039235035
-0.067479757
-0.0047164113
-0.070313858
-0.0055873973
-0.07362044
-0.0065241172
-0.076894891
-0.0075501187
-0.080360637
-0.0086675391
-0.083949684
-0.0098877504
-0.087685189
-0.011220531
-0.091568093
-0.012676441
-0.095604719
-0.014266545
-0.099800688
-0.016001957
-0.10416285
-0.017893893
-0.10869853
-0.019953442
-0.11341612
-0.022191378
-0.11832499
-0.024617766
-0.12343566
-0.027242492
-0.12875963
-0.030074686
-0.13431012
-0.033121825
-0.14010123
-0.036391372
-0.14614863
-0.039889239
-0.15246978
-0.04362024
-0.15908267
-0.047588667
-0.16600767
-0.05179762
-0.17326574
-0.056249421
-0.18087948
-0.06094582
-0.18887279
-0.065888904
-0.1972698
-0.071080132
-0.2060976
-0.076521278
-0.2153821
-0.082214847
-0.22515248
-0.088163536
-0.2354376
-0.09437084
-0.24626832
-0.10084188
-0.25767627
-0.10758107
-0.26969557
-0.11459552
-0.2823602
-0.12189215
-0.2957083
-0.12948033
-0.30977695
-0.13736855
-0.3246084
-0.14556764
-0.34024509
-0.15408963
-0.3567323
-0.16294622
-0.37411912
-0.17215112
-0.39245632
-0.18171883
-0.41179876
-0.1916641
-0.43220446
-0.20200333
-0.45373505
-0.21275286
-0.47645675
-0.22393104
-0.50043944
-0.2355554
-0.5257587
-0.24764521
-0.5524945
-0.26022066
-0.580732
-0.27330203
-0.6105632
-0.28691021
-0.64208599
-0.30106774
-0.6754042
-0.31579681
-0.71063016
-0.33111996
-0.74788315
-0.34706101
-0.78729085
-0.36364424
-0.82898916
-0.38089388
-0.87312451
-0.39883404
-0.91985342
-0.41749039
-0.96934183
-0.43688722
-1.0217688
-0.45704872
-1.0773251
-0.47799893
-1.1362148
-0.49976028
-1.1986564
-0.5223588
-1.2648815
-0.54581543
-1.3351407
-0.57014947
-1.409703
-0.5953804
-1.4888514
-0.62152855
-1.5728881
-0.64860796
-1.6621481
-0.67663762
-1.7569955
-0.70562901
-1.8578321
-0.7356031
-1.9651224
-0.76654987
-2.0793545
-2.200686
-0.00015095648
-0.046094472
-0.00087684143
-0.054836893
-0.0013100611
-0.055221529
-0.0020484769
-0.058258763
-0.0026486244
-0.061102277
-0.0034155864
-0.063450433
-0.0042096318
-0.066686114
-0.0050718789
-0.069452037
-0.0060313022
-0.072661458
-0.0070701277
-0.075856533
-0.0082139956
-0.079217252
-0.0094686018
-0.082695588
-0.010846818
-0.086307501
-0.012360462
-0.090055006
-0.014021889
-0.093943867
-0.015843432
-0.097979751
-0.017837371
-0.10216954
-0.020015565
-0.106521
-0.022389488
-0.11104288
-0.024969843
-0.11574536
-0.027766622
-0.12063963
-0.030788449
-0.12573859
-0.034042883
-0.13105651
-0.037536665
-0.13660832
-0.041274452
-0.14241176
-0.04526055
-0.14848464
-0.049497132
-0.1548471
-0.053986349
-0.16151953
-0.058729612
-0.16852362
-0.063727633
-0.17588268
-0.06898168
-0.18362005
-0.074492621
-0.19176026
-0.080262627
-0.2003291
-0.086293912
-0.20935243
-0.09259034
-0.21885779
-0.099155866
-0.22887396
-0.10599674
-0.23942947
-0.11311917
-0.25055604
-0.12053217
-0.26228496
-0.12824423
-0.27465074
-0.13626706
-0.2876883
-0.14461128
-0.30143581
-0.15329063
-0.3159324
-0.16231956
-0.33121982
-0.1717129
-0.34734295
-0.18148724
-0.36434913
-0.19166018
-0.38228812
-0.20225026
-0.40121386
-0.2132774
-0.42118298
-0.22476191
-0.44225672