/*--------------------------------*- C++ -*----------------------------------*\
  =========                 |
  \\      /  F ield         | OpenFOAM: The Open Source CFD Toolbox
   \\    /   O peration     | Website:  https://openfoam.org
    \\  /    A nd           | Version:  12
     \\/     M anipulation  |
\*---------------------------------------------------------------------------*/
FoamFile
{
    format      ascii;
    class       volScalarField;
    location    "0.116";
    object      rho;
}
// * * * * * * * * * * * * * * * * * * * * * * * * * * * * * * * * * * * * * //

dimensions      [1 -3 0 0 0 0 0];

internalField   nonuniform List<scalar> 
16000
(
1.057229
1.089827
1.0777897
1.0859568
1.0821338
1.0855538
1.0845819
1.0863929
1.0865419
1.0877445
1.0883945
1.0894048
1.09028
1.0912735
1.0922667
1.0933118
1.0943891
1.0955063
1.0966615
1.0978557
1.0990888
1.1003607
1.1016714
1.1030203
1.1044069
1.1058302
1.1072891
1.1087823
1.1103081
1.1118645
1.1134493
1.1150599
1.1166937
1.1183474
1.1200177
1.121701
1.1233937
1.1250916
1.1267906
1.1284865
1.1301751
1.131852
1.1335129
1.1351536
1.1367702
1.1383587
1.1399154
1.1414369
1.1429201
1.1443621
1.1457605
1.1471131
1.148418
1.1496738
1.1508792
1.1520333
1.1531357
1.1541858
1.1551837
1.1561294
1.157023
1.157865
1.1586558
1.1593959
1.1600857
1.1607258
1.1613165
1.1618578
1.1623501
1.1627933
1.1631877
1.163534
1.1638336
1.1640867
1.1642907
1.164448
1.1646835
1.1643671
1.1653869
1.1638269
1.0539258
1.0870375
1.0743605
1.0831141
1.0790648
1.0827531
1.0816803
1.0836629
1.083805
1.08511
1.0858116
1.0868971
1.0878463
1.0889141
1.0899877
1.0911136
1.0922759
1.0934803
1.0947258
1.0960127
1.0973409
1.0987103
1.1001204
1.1015703
1.1030593
1.1045859
1.1061487
1.1077459
1.1093753
1.1110344
1.1127206
1.1144307
1.1161615
1.1179092
1.11967
1.1214399
1.1232144
1.1249891
1.1267596
1.1285212
1.1302693
1.1319994
1.1337072
1.1353883
1.1370388
1.138655
1.1402333
1.1417706
1.1432643
1.1447117
1.1461111
1.1474605
1.1487588
1.150005
1.1511984
1.1523385
1.1534254
1.1544592
1.15544
1.1563685
1.1572451
1.1580704
1.1588451
1.1595698
1.1602453
1.1608719
1.1614501
1.1619802
1.1624622
1.1628963
1.1632825
1.1636217
1.163915
1.1641613
1.1643607
1.1645402
1.1646629
1.1646022
1.1652522
1.1640131
1.0509363
1.0844999
1.0714073
1.0805072
1.0763148
1.0802044
1.0791022
1.0812041
1.0813875
1.0827753
1.0835507
1.0847127
1.0857473
1.0868979
1.0880619
1.089279
1.0905367
1.0918389
1.0931848
1.0945746
1.0960078
1.0974839
1.0990021
1.1005612
1.10216
1.1037966
1.1054692
1.1071754
1.1089124
1.1106774
1.1124669
1.1142773
1.1161046
1.1179447
1.1197929
1.1216447
1.1234951
1.1253394
1.1271726
1.1289897
1.130786
1.1325568
1.1342977
1.1360046
1.1376737
1.1393014
1.1408847
1.1424209
1.1439077
1.1453434
1.1467264
1.1480558
1.1493308
1.1505511
1.1517166
1.1528276
1.1538844
1.1548877
1.1558382
1.1567368
1.1575844
1.1583817
1.1591297
1.1598291
1.1604808
1.1610853
1.161643
1.1621543
1.1626193
1.1630379
1.1634103
1.1637374
1.1640196
1.1642559
1.1644523
1.1646238
1.1647121
1.1647736
1.1651961
1.1641621
1.0482658
1.082204
1.0687293
1.0781571
1.0738288
1.0779507
1.0768252
1.079065
1.0792994
1.0807835
1.0816467
1.0828973
1.0840321
1.0852788
1.0865466
1.087868
1.0892335
1.0906455
1.0921035
1.093607
1.0951556
1.0967483
1.0983839
1.100061
1.1017777
1.1035319
1.105321
1.107142
1.1089916
1.1108661
1.1127615
1.1146734
1.116597
1.1185274
1.1204595
1.122388
1.1243076
1.1262128
1.1280984
1.1299592
1.1317904
1.1335872
1.1353454
1.1370612
1.1387309
1.1403517
1.1419211
1.1434368
1.1448975
1.146302
1.1476496
1.14894
1.1501732
1.1513497
1.15247
1.153535
1.1545457
1.1555033
1.1564089
1.1572637
1.1580691
1.1588261
1.1595357
1.160199
1.1608167
1.1613896
1.1619181
1.1624024
1.1628427
1.1632389
1.1635911
1.1639
1.1641656
1.1643879
1.164575
1.1647287
1.1648058
1.1649123
1.1651966
1.16429
1.0459578
1.0802806
1.0664074
1.076134
1.071666
1.07606
1.0749247
1.077308
1.0776144
1.079202
1.0801718
1.0815206
1.082769
1.0841225
1.0855045
1.0869402
1.0884229
1.0899541
1.0915333
1.0931598
1.0948328
1.096551
1.0983129
1.1001163
1.1019589
1.1038377
1.1057495
1.1076905
1.1096565
1.111643
1.113645
1.1156573
1.1176743
1.1196904
1.1216996
1.123696
1.1256739
1.1276274
1.129551
1.1314395
1.1332881
1.1350922
1.136848
1.1385521
1.1402015
1.141794
1.1433279
1.1448018
1.1462152
1.1475678
1.1488597
1.1500916
1.1512644
1.1523791
1.1534372
1.15444
1.1553893
1.1562867
1.1571338
1.1579322
1.1586835
1.1593889
1.1600498
1.1606672
1.1612419
1.1617747
1.162266
1.1627161
1.163125
1.1634926
1.1638191
1.1641045
1.1643487
1.164553
1.1647249
1.1648581
1.164928
1.1650468
1.1652246
1.1644354
1.0440595
1.0787513
1.0645315
1.0745636
1.0700002
1.0746064
1.0734599
1.0760066
1.0764019
1.0780978
1.0791864
1.0806368
1.0820056
1.0834724
1.0849756
1.0865341
1.0881433
1.0898038
1.091515
1.0932756
1.0950845
1.0969395
1.0988385
1.1007785
1.1027562
1.1047678
1.1068091
1.1088752
1.1109609
1.1130606
1.1151683
1.1172778
1.1193826
1.1214763
1.1235522
1.125604
1.1276253
1.1296102
1.1315532
1.1334491
1.1352934
1.1370822
1.1388122
1.1404807
1.1420857
1.1436258
1.1451004
1.1465093
1.1478528
1.1491316
1.1503471
1.1515007
1.1525941
1.1536293
1.1546084
1.1555335
1.1564068
1.1572304
1.1580062
1.1587364
1.1594225
1.1600661
1.1606686
1.1612311
1.1617545
1.1622395
1.1626865
1.1630957
1.1634671
1.1638006
1.1640959
1.164353
1.1645716
1.1647538
1.164905
1.1650156
1.1650766
1.1651928
1.1652835
1.1645979
1.0425683
1.0776234
1.0630908
1.0734601
1.068807
1.0736163
1.0725138
1.0751912
1.0756901
1.0774733
1.0786873
1.0802433
1.0817426
1.0833353
1.0849738
1.0866706
1.0884225
1.0902288
1.0920884
1.0939994
1.0959596
1.097966
1.1000155
1.1021041
1.1042273
1.1063802
1.1085572
1.1107522
1.1129589
1.1151703
1.1173795
1.119579
1.1217617
1.1239201
1.1260472
1.1281361
1.1301805
1.1321745
1.1341127
1.1359906
1.1378043
1.1395506
1.1412273
1.1428328
1.1443664
1.1458277
1.1472175
1.1485366
1.1497867
1.1509697
1.1520879
1.1531436
1.1541396
1.1550785
1.1559631
1.1567961
1.1575801
1.1583176
1.159011
1.1596624
1.1602738
1.1608467
1.1613826
1.1618827
1.1623477
1.1627783
1.1631749
1.1635376
1.1638662
1.1641605
1.1644201
1.1646447
1.164834
1.1649902
1.1651166
1.1652027
1.1652515
1.1653511
1.1653706
1.1647897
1.0414236
1.0768399
1.0620196
1.0727709
1.0680203
1.073053
1.071983
1.0748527
1.0753781
1.0772752
1.0786484
1.0803361
1.0819923
1.0837369
1.0855347
1.0873935
1.0893105
1.0912845
1.0933132
1.0953939
1.0975234
1.0996976
1.101912
1.1041614
1.1064398
1.1087408
1.1110575
1.1133822
1.1157073
1.1180244
1.1203255
1.1226022
1.1248464
1.1270502
1.1292062
1.1313075
1.1333479
1.1353221
1.1372254
1.1390542
1.1408057
1.142478
1.1440703
1.1455824
1.147015
1.1483695
1.1496477
1.1508521
1.1519855
1.153051
1.1540518
1.1549915
1.1558733
1.1567006
1.1574769
1.1582052
1.1588885
1.1595296
1.1601311
1.1606951
1.1612239
1.1617189
1.1621815
1.1626129
1.1630139
1.1633848
1.163726
1.1640375
1.164319
1.1645702
1.1647904
1.1649791
1.1651359
1.165263
1.1653611
1.1654217
1.165456
1.1655268
1.1654892
1.1650094
1.0406196
1.0763867
1.0613018
1.0725146
1.067581
1.0727809
1.0717982
1.074709
1.075541
1.0775818
1.0791445
1.0809891
1.0828273
1.0847498
1.086732
1.0887778
1.0908843
1.093049
1.0952688
1.0975395
1.0998567
1.1022146
1.1046073
1.1070276
1.1094681
1.1119205
1.1143762
1.1168259
1.1192604
1.1216703
1.1240461
1.1263789
1.12866
1.1308812
1.1330354
1.1351161
1.1371178
1.1390361
1.1408679
1.1426107
1.1442637
1.1458265
1.1473002
1.1486864
1.1499874
1.1512063
1.1523465
1.1534118
1.1544064
1.1553344
1.1561999
1.1570073
1.1577605
1.1584635
1.15912
1.1597334
1.160307
1.1608436
1.1613459
1.1618162
1.1622564
1.1626681
1.1630526
1.1634108
1.1637435
1.1640509
1.1643331
1.16459
1.1648212
1.1650263
1.1652043
1.1653544
1.1654765
1.1655718
1.1656392
1.1656743
1.1656919
1.1657255
1.1656416
1.1652602
1.0401886
1.0762971
1.0609736
1.0726143
1.0675396
1.0729962
1.0721587
1.0752681
1.0762826
1.0784714
1.0802535
1.0822826
1.0843297
1.086459
1.0886532
1.0909131
1.093235
1.0956149
1.0980482
1.1005291
1.1030511
1.1056068
1.1081879
1.1107854
1.1133896
1.1159903
1.1185768
1.1211384
1.1236642
1.1261438
1.128567
1.1309243
1.1332071
1.1354076
1.1375194
1.1395371
1.1414569
1.1432761
1.1449933
1.1466085
1.1481227
1.1495381
1.1508575
1.1520846
1.1532238
1.1542796
1.1552571
1.1561614
1.1569977
1.1577709
1.1584862
1.1591483
1.1597617
1.1603305
1.1608588
1.1613502
1.1618077
1.1622344
1.1626328
1.1630051
1.1633531
1.1636782
1.1639815
1.1642639
1.1645258
1.1647673
1.1649883
1.1651885
1.1653675
1.1655244
1.1656584
1.1657685
1.1658544
1.1659159
1.1659514
1.1659612
1.1659586
1.1659488
1.1658319
1.1655486
1.040198
1.0766415
1.0610887
1.0729244
1.0679896
1.0737339
1.073104
1.0763711
1.0776586
1.0800228
1.0820588
1.0843069
1.0865938
1.0889618
1.0913984
1.0939014
1.096466
1.0990861
1.101755
1.1044646
1.1072061
1.1099695
1.1127438
1.1155175
1.1182785
1.1210145
1.1237128
1.1263612
1.1289476
1.131461
1.1338908
1.1362279
1.1384645
1.1405943
1.1426123
1.1445155
1.1463023
1.1479726
1.1495277
1.1509703
1.1523041
1.1535335
1.1546638
1.1557007
1.1566503
1.1575188
1.1583126
1.1590376
1.1597001
1.1603056
1.1608597
1.1613674
1.1618334
1.1622621
1.1626572
1.1630224
1.1633608
1.163675
1.1639674
1.16424
1.1644943
1.1647317
1.1649529
1.1651585
1.1653487
1.1655235
1.1656826
1.1658254
1.1659514
1.1660595
1.1661487
1.1662181
1.1662671
1.1662939
1.1662974
1.1662826
1.1662561
1.1661988
1.1660615
1.1658761
1.0407299
1.0774932
1.0617462
1.0738766
1.0691098
1.0750955
1.0747226
1.0781676
1.0797668
1.0823346
1.0846586
1.0871638
1.0897248
1.0923667
1.0950789
1.0978566
1.1006924
1.1035776
1.1065027
1.1094563
1.1124264
1.1153997
1.1183624
1.1213001
1.1241982
1.1270421
1.1298177
1.1325114
1.1351111
1.1376054
1.139985
1.1422421
1.144371
1.1463678
1.1482307
1.1499598
1.1515567
1.1530249
1.1543687
1.155594
1.156707
1.157715
1.1586251
1.1594451
1.1601824
1.1608446
1.1614388
1.1619719
1.1624503
1.1628801
1.1632668
1.1636156
1.163931
1.1642173
1.164478
1.1647165
1.1649355
1.1651375
1.1653245
1.1654982
1.1656598
1.1658103
1.1659503
1.16608
1.1661994
1.1663083
1.1664061
1.1664921
1.1665655
1.1666252
1.1666701
1.1666993
1.1667115
1.1667038
1.1666766
1.1666382
1.1665844
1.1664788
1.1663324
1.1662399
1.0417798
1.0788589
1.0629447
1.0754961
1.0708877
1.0771151
1.0770791
1.0807167
1.08269
1.0855037
1.0881565
1.0909649
1.0938415
1.096798
1.0998236
1.1029097
1.1060455
1.1092184
1.1124148
1.1156196
1.1188167
1.1219892
1.1251202
1.1281922
1.1311883
1.1340924
1.1368895
1.1395661
1.1421106
1.1445138
1.1467685
1.1488704
1.1508172
1.1526093
1.1542489
1.1557404
1.1570894
1.158303
1.1593892
1.1603567
1.1612145
1.1619717
1.1626376
1.163221
1.1637305
1.1641742
1.1645598
1.1648945
1.1651846
1.1654362
1.1656547
1.1658447
1.1660107
1.1661564
1.1662851
1.1663995
1.1665022
1.1665951
1.1666798
1.1667576
1.1668295
1.166896
1.1669574
1.1670138
1.1670647
1.1671099
1.1671484
1.1671795
1.167202
1.1672148
1.1672168
1.1672072
1.1671835
1.1671426
1.1670873
1.1670268
1.1669432
1.1667926
1.1666484
1.1666391
1.0434002
1.080789
1.0647435
1.0777397
1.0734054
1.0798852
1.0802765
1.084132
1.0865408
1.0896557
1.0926856
1.0958514
1.0990923
1.102409
1.1057876
1.1092145
1.1126738
1.1161483
1.1196192
1.1230669
1.126471
1.1298108
1.133066
1.1362169
1.1392452
1.1421344
1.1448705
1.147442
1.1498405
1.1520606
1.1541001
1.1559596
1.1576424
1.1591539
1.1605016
1.1616943
1.1627421
1.1636557
1.164446
1.1651243
1.1657016
1.1661885
1.1665952
1.1669314
1.167206
1.1674273
1.1676028
1.1677393
1.1678432
1.1679198
1.1679741
1.1680102
1.168032
1.1680427
1.1680449
1.1680411
1.168033
1.1680222
1.1680099
1.167997
1.167984
1.1679711
1.1679582
1.1679452
1.1679315
1.1679163
1.1678988
1.1678779
1.1678523
1.1678208
1.1677825
1.1677361
1.1676785
1.1676067
1.1675267
1.1674454
1.1673304
1.1671399
1.1670086
1.1670778
1.0456515
1.0833426
1.0672531
1.0807377
1.0767634
1.083507
1.0844301
1.0885457
1.0914615
1.0949518
1.0984192
1.1020054
1.1056642
1.1093863
1.1131525
1.1169427
1.1207353
1.124507
1.1282335
1.1318899
1.1354514
1.138894
1.142195
1.1453341
1.1482939
1.1510605
1.1536238
1.1559774
1.1581192
1.1600504
1.1617756
1.1633023
1.16464
1.1658
1.166795
1.1676383
1.1683433
1.1689236
1.1693926
1.169763
1.1700467
1.1702552
1.1703988
1.1704871
1.1705288
1.1705317
1.1705028
1.1704483
1.1703736
1.1702836
1.1701823
1.1700733
1.1699597
1.169844
1.1697283
1.1696143
1.1695034
1.1693965
1.1692943
1.1691974
1.1691058
1.1690194
1.1689379
1.1688607
1.1687871
1.1687161
1.1686468
1.1685778
1.1685077
1.1684355
1.1683602
1.1682799
1.1681908
1.1680918
1.1679912
1.1678902
1.1677427
1.1675212
1.1674147
1.1675498
1.0485915
1.086552
1.0705995
1.0845612
1.0810831
1.0881163
1.0897041
1.0941544
1.09766
1.1016151
1.1055871
1.1096555
1.11378
1.1179414
1.1221135
1.1262689
1.1303785
1.1344119
1.1383386
1.1421286
1.1457537
1.1491886
1.1524116
1.1554056
1.1581585
1.1606631
1.1629175
1.1649241
1.1666896
1.1682241
1.16954
1.1706521
1.1715763
1.172329
1.1729271
1.173387
1.1737248
1.1739555
1.1740935
1.1741517
1.1741424
1.1740765
1.1739638
1.1738132
1.1736325
1.1734285
1.1732074
1.1729743
1.1727337
1.1724895
1.1722451
1.172003
1.1717655
1.1715345
1.1713115
1.1710974
1.170893
1.170699
1.1705154
1.1703424
1.1701797
1.1700268
1.1698831
1.1697478
1.16962
1.1694985
1.1693822
1.1692698
1.1691597
1.1690511
1.1689426
1.1688317
1.1687148
1.1685928
1.1684757
1.1683561
1.1681793
1.1679392
1.1678644
1.1680393
1.0522897
1.0904251
1.07491
1.0893591
1.086568
1.0939567
1.0963587
1.101238
1.1054143
1.1099213
1.1144581
1.119058
1.1236793
1.1282919
1.1328599
1.1373459
1.1417117
1.1459194
1.1499334
1.1537215
1.1572566
1.1605176
1.1634898
1.1661656
1.1685436
1.1706284
1.1724297
1.1739611
1.1752395
1.1762839
1.1771145
1.1777521
1.1782172
1.17853
1.1787097
1.1787742
1.1787402
1.1786231
1.1784365
1.1781931
1.1779038
1.1775785
1.1772258
1.1768534
1.1764676
1.1760743
1.1756781
1.1752832
1.174893
1.1745104
1.1741376
1.1737765
1.1734286
1.173095
1.1727765
1.1724736
1.1721864
1.1719151
1.1716593
1.1714189
1.1711931
1.1709813
1.1707825
1.1705957
1.1704199
1.1702538
1.170096
1.1699453
1.1698001
1.1696597
1.1695223
1.1693848
1.1692442
1.1691041
1.1689736
1.1688361
1.1686345
1.1683913
1.1683534
1.1685354
1.056934
1.0951071
1.0804141
1.0954582
1.09355
1.1013568
1.1047155
1.1101192
1.1150342
1.1201715
1.1253227
1.1304845
1.1356056
1.1406405
1.1455403
1.1502561
1.1547419
1.1589564
1.1628651
1.166442
1.1696697
1.1725401
1.1750535
1.1772178
1.1790471
1.1805604
1.1817804
1.1827317
1.1834403
1.1839322
1.184233
1.1843671
1.1843573
1.184225
1.1839896
1.1836687
1.183278
1.1828315
1.1823416
1.181819
1.1812732
1.1807122
1.1801432
1.179572
1.1790036
1.1784424
1.1778917
1.1773545
1.1768331
1.1763293
1.1758445
1.1753798
1.1749359
1.1745131
1.1741117
1.1737316
1.1733726
1.1730342
1.1727159
1.172417
1.1721366
1.1718736
1.171627
1.1713957
1.1711783
1.1709735
1.17078
1.1705963
1.1704213
1.1702539
1.1700921
1.1699323
1.1697728
1.1696196
1.1694783
1.1693228
1.1691009
1.1688682
1.1688731
1.1690342
1.0628059
1.1011719
1.0875094
1.1031962
1.1023742
1.1106391
1.1151022
1.121149
1.1268727
1.1327111
1.1385045
1.1442143
1.1497719
1.1551141
1.1601801
1.164916
1.1692777
1.1732324
1.1767602
1.179853
1.1825144
1.1847573
1.1866027
1.1880772
1.1892111
1.1900371
1.1905883
1.1908975
1.1909963
1.1909141
1.1906785
1.1903143
1.189844
1.1892877
1.1886632
1.1879859
1.1872694
1.1865254
1.185764
1.1849937
1.1842219
1.1834548
1.1826974
1.181954
1.1812281
1.1805225
1.1798394
1.1791805
1.1785471
1.1779401
1.17736
1.1768072
1.1762816
1.1757831
1.1753113
1.1748657
1.1744457
1.1740504
1.173679
1.1733304
1.1730036
1.1726972
1.1724101
1.172141
1.1718885
1.1716511
1.1714275
1.1712164
1.1710166
1.1708271
1.1706452
1.1704677
1.1702946
1.1701331
1.1699835
1.1698114
1.1695748
1.169361
1.1694096
1.169552
1.070095
1.1091568
1.0963969
1.1127967
1.1134068
1.1222191
1.1279545
1.1347949
1.141384
1.1479426
1.1543216
1.1604487
1.1662394
1.1716227
1.1765411
1.1809538
1.1848377
1.1881866
1.1910094
1.1933273
1.1951713
1.1965786
1.1975907
1.1982502
1.1986
1.1986814
1.198533
1.1981906
1.1976868
1.1970506
1.1963078
1.1954811
1.19459
1.1936518
1.1926809
1.1916898
1.1906891
1.1896877
1.1886931
1.1877115
1.1867478
1.1858064
1.1848904
1.1840025
1.1831447
1.1823186
1.1815251
1.1807649
1.1800383
1.1793455
1.1786863
1.1780603
1.1774669
1.1769054
1.1763752
1.1758752
1.1754044
1.1749618
1.1745462
1.1741563
1.1737909
1.1734485
1.1731278
1.1728275
1.1725459
1.1722818
1.1720336
1.1718002
1.1715807
1.1713734
1.1711757
1.1709848
1.1708033
1.170638
1.1704823
1.1702966
1.170054
1.1698673
1.1699537
1.170079
1.0789294
1.1189244
1.1076741
1.1248057
1.1272885
1.1367843
1.1439156
1.151649
1.1590504
1.1661827
1.172894
1.1790954
1.1847097
1.1896859
1.1939983
1.1976449
1.2006437
1.203029
1.2048463
1.2061486
1.2069918
1.2074329
1.2075267
1.2073251
1.2068757
1.2062214
1.2054006
1.2044468
1.2033892
1.202253
1.2010599
1.199828
1.1985729
1.1973076
1.1960429
1.1947877
1.1935496
1.1923343
1.191147
1.1899912
1.1888702
1.1877862
1.1867408
1.1857352
1.1847702
1.1838461
1.1829629
1.1821205
1.1813183
1.1805559
1.1798324
1.1791468
1.1784983
1.1778857
1.1773078
1.1767634
1.1762513
1.1757701
1.1753184
1.1748949
1.1744981
1.1741265
1.1737785
1.1734529
1.173148
1.1728624
1.1725948
1.172344
1.1721091
1.1718883
1.1716786
1.1714788
1.171293
1.1711267
1.1709666
1.1707719
1.1705343
1.170384
1.1704989
1.1705861
1.0900481
1.1313829
1.1222408
1.1401637
1.1449642
1.1552239
1.1636813
1.1721845
1.1800783
1.1873384
1.1938406
1.1995245
1.2043619
1.2083594
1.2115508
1.2139902
1.2157455
1.2168915
1.2175051
1.2176614
1.2174314
1.2168799
1.2160651
1.2150383
1.2138441
1.2125209
1.2111013
1.2096129
1.2080787
1.2065182
1.2049472
1.203379
1.2018243
1.2002919
1.1987888
1.1973205
1.1958915
1.1945052
1.193164
1.1918698
1.1906237
1.1894266
1.1882787
1.1871799
1.1861299
1.1851282
1.1841741
1.1832664
1.1824043
1.1815865
1.1808118
1.1800789
1.1793864
1.1787329
1.178117
1.1775372
1.1769919
1.1764798
1.1759993
1.1755489
1.1751269
1.1747319
1.1743624
1.1740168
1.1736936
1.1733913
1.1731088
1.172845
1.1725987
1.172368
1.17215
1.1719451
1.1717583
1.1715926
1.1714294
1.1712316
1.1710098
1.1708994
1.1710279
1.1710623
1.1050082
1.1476259
1.1413656
1.1599342
1.1673948
1.1783036
1.1876061
1.1963117
1.2039746
1.2105726
1.2160706
1.2204925
1.2238976
1.2263718
1.2280162
1.2289378
1.2292423
1.2290298
1.2283915
1.2274086
1.2261517
1.2246815
1.2230494
1.2212983
1.2194641
1.2175763
1.2156592
1.2137325
1.2118121
1.209911
1.2080393
1.2062053
1.2044153
1.202674
1.2009853
1.1993516
1.1977749
1.1962563
1.1947965
1.1933955
1.1920531
1.1907687
1.1895417
1.188371
1.1872554
1.1861937
1.1851845
1.1842262
1.1833174
1.1824565
1.1816418
1.1808718
1.1801448
1.1794592
1.1788133
1.1782055
1.1776341
1.1770976
1.1765943
1.1761226
1.1756809
1.1752676
1.1748812
1.1745202
1.1741829
1.1738681
1.1735746
1.1733013
1.173047
1.1728094
1.1725866
1.1723798
1.1721943
1.1720296
1.1718648
1.1716694
1.171468
1.171391
1.1715241
1.1715245
1.1252851
1.168946
1.1664727
1.1851332
1.1949596
1.2059826
1.2151089
1.2229329
1.2292895
1.2342453
1.2378957
1.2403781
1.2418445
1.2424498
1.2423409
1.2416516
1.2404994
1.2389854
1.2371947
1.2351981
1.2330537
1.230809
1.228502
1.2261637
1.2238184
1.2214856
1.2191805
1.2169152
1.2146988
1.2125382
1.2104388
1.2084042
1.2064372
1.2045394
1.2027117
1.2009544
1.1992674
1.19765
1.1961015
1.1946206
1.193206
1.1918563
1.1905698
1.1893449
1.1881797
1.1870725
1.1860214
1.1850245
1.18408
1.183186
1.1823406
1.1815419
1.1807882
1.1800776
1.1794084
1.1787787
1.1781869
1.1776313
1.1771102
1.1766219
1.1761649
1.1757375
1.1753381
1.1749653
1.1746175
1.1742935
1.173992
1.1737122
1.1734524
1.1732106
1.1729856
1.1727795
1.1725964
1.1724329
1.172268
1.1720795
1.1719005
1.1718486
1.1719798
1.1719756
1.1534744
1.1961361
1.1986589
1.2166509
1.2268461
1.2366568
1.2442088
1.2498974
1.2538503
1.2563051
1.257497
1.2576565
1.2569912
1.2556815
1.253879
1.2517089
1.2492724
1.2466506
1.2439076
1.2410941
1.2382493
1.2354039
1.2325815
1.2298
1.227073
1.2244107
1.2218205
1.2193077
1.2168759
1.2145273
1.2122632
1.2100841
1.2079895
1.205979
1.2040512
1.2022048
1.2004381
1.1987494
1.1971365
1.1955976
1.1941304
1.1927329
1.1914027
1.1901378
1.1889358
1.1877947
1.1867123
1.1856864
1.1847148
1.1837957
1.1829267
1.1821061
1.1813318
1.180602
1.1799146
1.179268
1.1786603
1.1780898
1.1775548
1.1770536
1.1765846
1.1761462
1.1757369
1.1753551
1.1749995
1.1746687
1.1743617
1.1740774
1.173814
1.17357
1.1733448
1.1731408
1.1729605
1.1727985
1.1726361
1.1724602
1.1723068
1.1722708
1.1723796
1.1723616
1.1921473
1.2309961
1.2367248
1.2519596
1.2610354
1.267902
1.2722531
1.2746344
1.2754052
1.2749292
1.2735044
1.2713772
1.2687434
1.265756
1.2625333
1.2591653
1.2557204
1.25225
1.2487922
1.2453756
1.2420209
1.238743
1.2355528
1.2324574
1.2294616
1.2265683
1.2237788
1.2210934
1.2185116
1.2160321
1.2136533
1.2113732
1.2091895
1.2070999
1.2051017
1.2031923
1.2013691
1.1996293
1.1979703
1.1963894
1.1948839
1.1934512
1.1920888
1.190794
1.1895644
1.1883977
1.1872913
1.186243
1.1852505
1.1843117
1.1834243
1.1825863
1.1817956
1.1810503
1.1803483
1.179688
1.1790674
1.1784848
1.1779384
1.1774266
1.1769478
1.1765005
1.176083
1.175694
1.1753321
1.1749961
1.1746849
1.1743972
1.1741314
1.1738862
1.1736616
1.1734598
1.1732817
1.173121
1.1729636
1.1728036
1.1726735
1.1726411
1.1727167
1.1727037
1.2394979
1.271883
1.2789926
1.2887367
1.2936059
1.2959218
1.2960718
1.2947024
1.292245
1.2890432
1.2853485
1.2813457
1.2771685
1.2729129
1.2686475
1.2644206
1.260266
1.256207
1.2522592
1.2484327
1.2447337
1.2411652
1.2377284
1.2344228
1.231247
1.2281987
1.2252751
1.2224731
1.2197894
1.2172204
1.2147626
1.2124124
1.2101661
1.2080204
1.2059717
1.2040166
1.2021518
1.200374
1.19868
1.1970669
1.1955316
1.1940712
1.1926829
1.1913639
1.1901117
1.1889235
1.187797
1.1867297
1.1857192
1.1847633
1.1838597
1.1830063
1.182201
1.1814418
1.1807268
1.180054
1.1794217
1.178828
1.1782713
1.1777499
1.1772621
1.1768065
1.1763815
1.1759859
1.1756182
1.1752773
1.174962
1.1746711
1.1744031
1.174157
1.173933
1.1737324
1.173555
1.1733952
1.1732434
1.1730997
1.1729914
1.1729633
1.1730071
1.172977
1.2933135
1.3138692
1.3183895
1.3207384
1.3199407
1.3172978
1.3134206
1.3087965
1.3037449
1.2984824
1.293152
1.2878482
1.2826323
1.2775434
1.2726055
1.2678327
1.2632323
1.2588068
1.254556
1.2504772
1.2465668
1.2428202
1.2392324
1.2357979
1.2325114
1.2293674
1.2263606
1.2234858
1.2207379
1.2181121
1.2156036
1.2132078
1.2109205
1.2087375
1.2066546
1.2046682
1.2027745
1.2009699
1.1992509
1.1976144
1.1960571
1.194576
1.1931681
1.1918306
1.1905607
1.1893558
1.1882133
1.1871307
1.1861056
1.1851358
1.1842189
1.1833528
1.1825354
1.1817647
1.1810387
1.1803555
1.1797133
1.1791103
1.1785449
1.1780152
1.1775199
1.1770572
1.1766259
1.1762245
1.1758518
1.1755065
1.1751877
1.174894
1.1746242
1.1743776
1.1741542
1.1739544
1.1737772
1.1736188
1.1734741
1.1733453
1.1732505
1.1732135
1.1732209
1.173196
1.3459364
1.349215
1.3479901
1.3435428
1.3377319
1.331181
1.3243518
1.3174848
1.3107255
1.3041525
1.2978085
1.2917137
1.2858748
1.280291
1.2749568
1.269864
1.2650033
1.2603645
1.2559377
1.2517129
1.2476804
1.2438311
1.2401563
1.2366477
1.2332978
1.230099
1.2270447
1.2241284
1.221344
1.2186859
1.2161485
1.213727
1.2114163
1.209212
1.2071098
1.2051055
1.2031952
1.2013752
1.1996419
1.1979918
1.1964217
1.1949284
1.1935089
1.1921604
1.1908799
1.1896648
1.1885125
1.1874205
1.1863864
1.1854078
1.1844825
1.1836084
1.1827832
1.182005
1.1812717
1.1805816
1.1799328
1.1793236
1.1787521
1.1782168
1.1777161
1.1772485
1.1768124
1.1764067
1.17603
1.1756812
1.1753592
1.1750629
1.1747912
1.1745437
1.1743199
1.1741198
1.1739422
1.1737848
1.1736456
1.173527
1.173438
1.1733887
1.173373
1.1733536
1.3798242
1.372276
1.3647625
1.3565311
1.3479787
1.3395187
1.3313159
1.3234445
1.3159327
1.3087838
1.3019891
1.2955341
1.2894017
1.2835739
1.2780332
1.2727626
1.2677462
1.2629692
1.2584177
1.2540792
1.2499419
1.2459951
1.2422288
1.2386337
1.2352015
1.2319242
1.2287945
1.2258057
1.2229514
1.2202256
1.2176228
1.2151377
1.2127655
1.2105014
1.2083412
1.2062805
1.2043155
1.2024424
1.2006575
1.1989575
1.197339
1.1957988
1.194334
1.1929415
1.1916186
1.1903626
1.1891709
1.1880409
1.1869703
1.1859566
1.1849976
1.1840912
1.1832351
1.1824274
1.1816661
1.1809492
1.180275
1.1796417
1.1790475
1.1784907
1.1779698
1.1774832
1.1770294
1.1766072
1.1762153
1.1758525
1.1755176
1.1752097
1.1749278
1.1746713
1.1744398
1.1742328
1.1740492
1.1738877
1.1737482
1.1736322
1.1735435
1.1734851
1.1734548
1.17344
1.1642575
1.16876
1.1832505
1.1950977
1.2005909
1.201857
1.2019267
1.2015984
1.2016301
1.2013412
1.2010889
1.2005319
1.1999442
1.1992946
1.1986055
1.1978774
1.1971134
1.1963193
1.1954998
1.1946592
1.1938014
1.1929298
1.1920477
1.191158
1.1902632
1.1893658
1.1884678
1.1875713
1.1866781
1.1857899
1.1849083
1.1840346
1.1831705
1.182317
1.1814757
1.1806476
1.1798339
1.1790358
1.1782545
1.1774911
1.1767466
1.1760221
1.1753187
1.1746374
1.1739792
1.1733452
1.1727362
1.1721531
1.1715969
1.1710682
1.1705677
1.1700961
1.1696537
1.169241
1.1688581
1.1685049
1.1681812
1.1678865
1.1676204
1.1673817
1.1671694
1.166982
1.1668182
1.1666764
1.1665555
1.166452
1.1663686
1.1662912
1.1662422
1.1661642
1.1661621
1.1660304
1.1661181
1.1658138
1.1660872
1.1654392
1.1660497
1.1649041
1.1659574
1.1641095
1.1599876
1.1707858
1.187021
1.1953351
1.1975952
1.1975041
1.1969781
1.1967283
1.1964092
1.1961053
1.1957096
1.1953137
1.1948687
1.1943895
1.1938705
1.1933195
1.1927374
1.1921272
1.1914912
1.1908318
1.1901512
1.1894518
1.1887358
1.1880054
1.1872628
1.1865102
1.1857497
1.1849832
1.1842129
1.1834406
1.1826682
1.1818976
1.1811305
1.1803687
1.1796138
1.1788675
1.1781313
1.1774067
1.1766953
1.1759985
1.1753177
1.1746543
1.1740096
1.173385
1.1727816
1.1722007
1.1716433
1.1711106
1.1706035
1.1701229
1.1696695
1.1692441
1.1688471
1.1684789
1.1681396
1.1678292
1.1675474
1.1672937
1.1670676
1.1668679
1.1666934
1.1665427
1.1664144
1.1663067
1.1662185
1.1661465
1.1660924
1.166044
1.16602
1.1659698
1.1659857
1.1658807
1.1659764
1.1657037
1.165982
1.1653632
1.1659698
1.1648364
1.1659288
1.1640391
1.1604685
1.1738115
1.1854893
1.1918603
1.1928278
1.1923477
1.1918362
1.1915738
1.1912777
1.1909937
1.1906597
1.1903228
1.1899506
1.1895658
1.1891539
1.1887224
1.1882679
1.1877924
1.1872961
1.1867798
1.1862445
1.1856912
1.185121
1.1845352
1.1839352
1.1833225
1.1826984
1.1820647
1.1814229
1.1807747
1.1801219
1.1794661
1.1788092
1.1781528
1.1774987
1.1768488
1.1762047
1.1755682
1.174941
1.1743248
1.1737212
1.1731318
1.1725583
1.172002
1.1714646
1.1709473
1.1704515
1.1699784
1.1695292
1.1691048
1.1687061
1.168334
1.1679888
1.1676712
1.1673811
1.1671186
1.1668834
1.1666751
1.1664928
1.1663356
1.1662021
1.1660909
1.1660005
1.1659291
1.1658755
1.1658365
1.1658133
1.1657947
1.1657969
1.1657745
1.16581
1.1657304
1.1658373
1.1655936
1.1658757
1.1652853
1.1658911
1.1647701
1.1658973
1.1639737
1.1581789
1.1724657
1.1831189
1.1878304
1.1876558
1.1872668
1.1868198
1.1866196
1.1862997
1.1860469
1.1857322
1.1854478
1.1851311
1.1848184
1.1844851
1.1841433
1.1837862
1.1834163
1.183032
1.1826332
1.1822198
1.1817918
1.1813495
1.1808931
1.1804231
1.1799403
1.1794455
1.1789396
1.1784237
1.1778991
1.1773672
1.1768292
1.1762868
1.1757415
1.175195
1.174649
1.1741051
1.1735652
1.1730311
1.1725045
1.1719872
1.1714809
1.1709874
1.1705083
1.1700452
1.1695998
1.1691734
1.1687675
1.1683833
1.168022
1.1676845
1.1673716
1.167084
1.1668222
1.1665863
1.1663763
1.1661919
1.1660326
1.1658977
1.1657861
1.1656965
1.1656272
1.1655769
1.1655438
1.1655265
1.1655219
1.1655307
1.1655429
1.1655724
1.1655778
1.1656341
1.1655788
1.1656993
1.1654827
1.1657704
1.1652064
1.1658142
1.1647057
1.1658634
1.1639145
1.1525154
1.1688343
1.1786729
1.1822171
1.1816643
1.1815786
1.1812134
1.1811521
1.1809064
1.1807714
1.1805472
1.1803715
1.1801518
1.1799458
1.1797173
1.1794843
1.1792367
1.1789787
1.178708
1.1784246
1.1781283
1.1778187
1.177496
1.1771602
1.1768116
1.1764503
1.176077
1.1756922
1.1752967
1.1748913
1.174477
1.1740549
1.1736264
1.1731926
1.1727551
1.1723153
1.171875
1.1714358
1.1709993
1.1705674
1.1701419
1.1697246
1.1693171
1.1689213
1.168539
1.1681716
1.1678209
1.1674882
1.167175
1.1668825
1.1666116
1.1663633
1.1661383
1.165937
1.1657596
1.1656062
1.1654764
1.1653697
1.1652854
1.1652223
1.1651791
1.1651541
1.165146
1.1651529
1.1651733
1.1652044
1.1652463
1.1652899
1.1653474
1.1653808
1.1654587
1.1654279
1.1655627
1.1653723
1.1656661
1.1651275
1.1657388
1.1646433
1.1658283
1.1638595
1.1464714
1.1652464
1.1737099
1.1766198
1.1759139
1.1760868
1.1757654
1.175843
1.1756618
1.1756395
1.1754963
1.1754227
1.1752925
1.175185
1.1750514
1.1749168
1.174767
1.1746086
1.1744387
1.1742578
1.1740655
1.1738616
1.1736461
1.1734188
1.1731798
1.1729291
1.1726671
1.1723939
1.1721102
1.1718163
1.1715131
1.1712014
1.1708822
1.1705565
1.1702255
1.1698907
1.1695534
1.1692151
1.1688775
1.1685423
1.1682111
1.1678857
1.1675678
1.1672593
1.1669618
1.1666769
1.1664064
1.1661516
1.165914
1.1656948
1.1654951
1.1653158
1.1651575
1.1650208
1.1649059
1.1648126
1.1647408
1.1646898
1.1646588
1.1646468
1.1646523
1.1646736
1.1647094
1.1647579
1.1648174
1.1648852
1.1649611
1.1650368
1.1651228
1.1651843
1.1652844
1.1652784
1.1654276
1.1652625
1.1655628
1.1650493
1.1656649
1.164583
1.165793
1.1638082
1.1412214
1.1618347
1.1688135
1.1714211
1.1706084
1.1709854
1.1706709
1.1708599
1.1707174
1.1707841
1.1707033
1.1707168
1.1706611
1.1706318
1.170572
1.1705166
1.1704475
1.1703728
1.1702889
1.170196
1.170094
1.1699822
1.1698606
1.1697288
1.1695868
1.1694346
1.1692721
1.1690994
1.168917
1.168725
1.1685241
1.1683147
1.1680978
1.1678741
1.1676446
1.1674105
1.1671731
1.1669336
1.1666935
1.1664543
1.1662177
1.1659851
1.1657584
1.1655391
1.1653289
1.1651294
1.1649421
1.1647686
1.1646101
1.1644678
1.1643429
1.1642361
1.1641481
1.1640794
1.16403
1.164
1.163989
1.1639964
1.1640213
1.1640625
1.1641187
1.1641881
1.1642694
1.1643606
1.1644603
1.1645657
1.1646762
1.1647845
1.1648993
1.1649889
1.1651118
1.1651311
1.1652945
1.1651542
1.165461
1.1649723
1.1655924
1.1645252
1.1657576
1.1637606
1.1363343
1.1587717
1.1642237
1.1667089
1.1657851
1.1663274
1.1659879
1.1662664
1.1661361