/*--------------------------------*- C++ -*----------------------------------*\
  =========                 |
  \\      /  F ield         | OpenFOAM: The Open Source CFD Toolbox
   \\    /   O peration     | Website:  https://openfoam.org
    \\  /    A nd           | Version:  12
     \\/     M anipulation  |
\*---------------------------------------------------------------------------*/
FoamFile
{
    format      ascii;
    class       volVectorField;
    location    "0.116";
    object      U;
}
// * * * * * * * * * * * * * * * * * * * * * * * * * * * * * * * * * * * * * //

dimensions      [0 1 -1 0 0 0 0];

internalField   nonuniform List<vector> 
16000
(
(215.30581 -3.1404292e-17 -8.3627341)
(252.17753 0 5.3715579)
(238.32535 0 -7.5504623)
(245.95314 4.9703408e-17 3.7797494)
(241.27895 -4.9059403e-17 -5.9330126)
(243.47775 0 1.7523505)
(241.69008 0 -4.3048035)
(242.19301 8.397324e-17 -0.023477468)
(241.35622 -7.9780529e-17 -3.1381197)
(241.23406 0 -1.255183)
(240.72177 7.2086827e-17 -2.5437842)
(240.37488 -2.0537475e-16 -1.9650199)
(239.93221 1.29989e-16 -2.3994065)
(239.50429 -1.236485e-16 -2.334898)
(239.04837 1.1731799e-16 -2.4929991)
(238.57859 -3.4800272e-18 -2.56221)
(238.09021 -3.3058675e-18 -2.6626621)
(237.58415 -9.7551491e-17 -2.75228)
(237.05986 1.9112374e-16 -2.8435113)
(236.5172 -9.0680657e-17 -2.9323906)
(235.95603 1.7248527e-16 -3.0193005)
(235.37628 -1.6350181e-16 -3.1035407)
(234.77795 0 -3.1846121)
(234.16113 1.5219206e-16 -3.2619313)
(233.52602 -4.1198362e-18 -3.3349072)
(232.87291 -2.6562142e-16 -3.4029169)
(232.20221 1.2589523e-16 -3.4653309)
(231.51445 0 -3.5215069)
(230.81029 0 -3.5708064)
(230.09052 2.1863425e-16 -3.6125994)
(229.35606 -2.0370959e-16 -3.6462783)
(228.60798 0 -3.6712659)
(227.84747 0 -3.6870271)
(227.07586 0 -3.6930824)
(226.29461 5.1391734e-18 -3.6890184)
(225.5053 1.5596475e-16 -3.6744991)
(224.7096 -1.4277355e-16 -3.6492776)
(223.9093 -1.3983408e-16 -3.6132043)
(223.10624 1.2381547e-16 -3.566236)
(222.30234 0 -3.5084435)
(221.49954 -1.1850046e-16 -3.4400128)
(220.69982 1.11852e-16 -3.3612496)
(219.90511 -2.1197806e-16 -3.272576)
(219.11736 1.9999744e-16 -3.1745271)
(218.33842 -1.9532496e-16 -3.0677446)
(217.5701 3.5761061e-16 -2.9529651)
(216.81408 5.6012751e-18 -2.8310103)
(216.07195 2.9597079e-19 -2.7027719)
(215.34516 -1.5052337e-16 -2.569196)
(214.63501 1.4236079e-16 -2.4312663)
(213.94265 -1.2574975e-16 -2.289987)
(213.26906 0 -2.1463643)
(212.61504 7.4736439e-18 -2.0013895)
(211.98123 0 -1.8560225)
(211.36807 6.650649e-18 -1.7111771)
(210.77584 2.0709285e-16 -1.5677102)
(210.20463 -3.7851721e-16 -1.4264103)
(209.65439 1.0930123e-17 -1.2879874)
(209.12489 1.6820211e-16 -1.1530629)
(208.61571 -1.488833e-16 -1.0221751)
(208.12618 1.4023978e-16 -0.895752)
(207.65552 -8.8244198e-18 -0.77415282)
(207.20274 0 -0.65762863)
(206.76663 0 -0.54632196)
(206.34575 -1.1120793e-16 -0.44029154)
(205.93852 1.1188717e-16 -0.3395139)
(205.54325 -9.9143579e-17 -0.24390144)
(205.15806 1.9352403e-16 -0.15332042)
(204.78084 -1.8886437e-16 -0.067611664)
(204.40926 8.3727318e-17 0.013404795)
(204.04089 5.2871333e-18 0.089898921)
(203.6736 0 0.1618762)
(203.30569 4.7535901e-18 0.2292704)
(202.93589 -4.5153409e-18 0.29244399)
(202.56275 0 0.35232999)
(202.1941 -3.3768503e-17 0.40477616)
(201.75036 6.2494452e-17 0.43615665)
(201.55499 -3.1759942e-17 0.58784454)
(200.74553 0 0.26420377)
(201.00573 0 1.1914936)
(216.61832 0 -11.180596)
(253.81193 -3.7271663e-18 3.3270298)
(239.23688 -1.1977954e-16 -10.473732)
(247.41707 1.1043844e-16 1.6974612)
(242.38659 0 -8.7924878)
(244.81688 1.0160819e-16 -0.40310541)
(242.8239 -1.8762975e-16 -7.0486956)
(243.41568 -1.0200574e-19 -2.3015451)
(242.48688 8.4557042e-17 -5.7275856)
(242.3655 0 -3.6512578)
(241.81213 -1.5273814e-16 -5.0184972)
(241.43625 1.4940619e-16 -4.4067389)
(240.96148 1.4209864e-16 -4.8279118)
(240.49917 -2.6158311e-16 -4.7640209)
(240.00875 1.2025092e-16 -4.902177)
(239.50265 1.105508e-17 -4.9640603)
(238.97699 1.1560181e-16 -5.049006)
(238.43238 -1.0295669e-16 -5.1249379)
(237.86842 0 -5.200168)
(237.285 0 -5.2720003)
(236.68205 5.6810675e-18 -5.3403179)
(236.05958 -1.7822216e-16 -5.4044125)
(235.41772 3.3794251e-16 -5.4636524)
(234.75668 -3.157815e-16 -5.5173556)
(234.07679 1.427307e-16 -5.5648265)
(233.37852 0 -5.6053548)
(232.66246 1.2448518e-16 -5.6382224)
(231.92932 -1.3348576e-16 -5.6627177)
(231.17997 0 -5.6781434)
(230.41543 3.5273742e-18 -5.6838283)
(229.63686 -1.337992e-17 -5.6791379)
(228.84554 0 -5.6634909)
(228.04293 0 -5.636366)
(227.2306 -1.7073378e-16 -5.5973229)
(226.41025 3.3901949e-16 -5.5460095)
(225.5837 -1.6279481e-16 -5.4821762)
(224.75284 -1.5919514e-16 -5.4056888)
(223.91967 1.4570582e-16 -5.3165342)
(223.08622 -1.1222515e-16 -5.214831)
(222.25455 -2.8480363e-19 -5.1008331)
(221.42675 -2.6641581e-19 -4.9749316)
(220.60486 2.3293758e-16 -4.8376535)
(219.79089 -1.0990345e-16 -4.6896572)
(218.98678 0 -4.5317237)
(218.19437 2.025031e-16 -4.3647468)
(217.4154 1.1942852e-17 -4.1897189)
(216.65145 -5.1225485e-18 -4.0077139)
(215.90398 -1.6464286e-16 -3.8198702)
(215.17426 0 -3.6273703)
(214.46341 -1.4664905e-16 -3.4314212)
(213.77236 -8.8639996e-18 -3.2332343)
(213.10187 2.6027984e-16 -3.0340042)
(212.4525 -1.3017251e-16 -2.8348906)
(211.82466 0 -2.6370012)
(211.21855 -2.0395752e-17 -2.441376)
(210.63423 -2.1134409e-16 -2.2489767)
(210.07157 3.6150637e-16 -2.0606745)
(209.53031 -2.1541212e-16 -1.8772418)
(209.01005 0 -1.6993432)
(208.5102 -1.7090583e-16 -1.5275413)
(208.02997 1.7959508e-16 -1.3622706)
(207.56843 2.6702323e-17 -1.2038733)
(207.12452 0 -1.0525853)
(206.69691 -1.4197523e-16 -0.90851526)
(206.28413 7.3247546e-18 -0.77168101)
(205.88452 1.1177373e-16 -0.64201167)
(205.49636 -1.9747937e-17 -0.51936703)
(205.11776 9.3053509e-17 -0.4035614)
(204.74662 -1.0518126e-16 -0.29438299)
(204.38059 5.511641e-18 -0.19159567)
(204.01724 -5.2005436e-18 -0.094998381)
(203.65424 0 -0.0045980718)
(203.28986 -4.640134e-18 0.079674279)
(202.92337 4.3888326e-18 0.15877349)
(202.55332 8.3118912e-18 0.23214269)
(202.17136 9.8488394e-19 0.291698)
(201.78034 0 0.359563)
(201.45705 3.0241716e-17 0.46344037)
(200.84683 -5.758097e-17 0.23052661)
(200.8965 2.5866315e-17 1.0655662)
(217.79501 0 -14.071818)
(255.29673 -1.2259635e-16 1.0862657)
(240.20829 2.4999866e-16 -13.483073)
(248.6759 -2.2326966e-16 -0.55638149)
(243.38388 1.1026541e-16 -11.730383)
(245.95077 -3.2651142e-18 -2.7510708)
(243.8302 9.9377979e-17 -9.8416437)
(244.44771 -9.4120056e-17 -4.7779486)
(243.46213 -5.5871114e-18 -8.3815269)
(243.31743 -5.3049212e-18 -6.2138043)
(242.72881 -1.0077394e-17 -7.5918924)
(242.31699 1.3903564e-16 -6.9854317)
(241.80683 -1.4093242e-16 -7.3753822)
(241.3061 1.3831545e-16 -7.3182633)
(240.77668 -1.188208e-16 -7.4350373)
(240.22992 -1.5573024e-17 -7.4887701)
(239.66235 0 -7.5580584)
(239.07456 -1.254639e-20 -7.6190918)
(238.46624 -2.2650133e-16 -7.6772061)
(237.83739 -3.6588609e-19 -7.7303721)
(237.18803 1.7360723e-16 -7.7781566)
(236.51833 1.705279e-17 -7.819765)
(235.82854 -2.1569517e-17 -7.854444)
(235.11906 0 -7.8814062)
(234.39039 7.5965718e-21 -7.8998589)
(233.6432 -1.655761e-16 -7.9090063)
(232.8783 1.4792464e-16 -7.9080612)
(232.09665 8.2561115e-18 -7.8962531)
(231.29936 0 -7.8728466)
(230.48771 -7.4067824e-18 -7.8371491)
(229.66314 -7.9010377e-22 -7.7885296)
(228.82724 -1.9937335e-16 -7.7264322)
(227.98174 2.0079477e-16 -7.6503901)
(227.1285 1.189749e-17 -7.5600457)
(226.2695 -1.801206e-16 -7.4551578)
(225.40683 1.486555e-16 -7.3356201)
(224.54264 -1.8113286e-16 -7.201469)
(223.67912 1.5182282e-16 -7.0528931)
(222.81851 -1.4375156e-16 -6.8902359)
(221.96301 1.3547916e-16 -6.7140005)
(221.11482 1.601852e-17 -6.5248465)
(220.27604 0 -6.3235818)
(219.44871 1.9982095e-16 -6.1111556)
(218.63472 -2.4186263e-16 -5.8886433)
(217.83583 0 -5.6572306)
(217.05364 1.7950662e-16 -5.4181952)
(216.28959 -1.5752312e-16 -5.1728837)
(215.5449 1.6995753e-16 -4.9226903)
(214.82063 -1.7976919e-16 -4.6690333)
(214.11762 0 -4.413332)
(213.43653 1.7726427e-16 -4.1569848)
(212.77783 -1.3322126e-16 -3.9013466)
(212.14178 0 -3.6477109)
(211.52849 0 -3.3972934)
(210.93789 1.2482269e-16 -3.1512161)
(210.36976 -2.0846003e-16 -2.9104991)
(209.82372 1.2237033e-16 -2.6760495)
(209.29928 1.8416247e-16 -2.4486561)
(208.79581 1.9891571e-19 -2.2289812)
(208.31255 1.7708825e-19 -2.0175671)
(207.84854 -3.241489e-16 -1.8148194)
(207.40272 8.9457409e-17 -1.6210257)
(206.97392 0 -1.436373)
(206.56072 1.4217805e-16 -1.2609095)
(206.16158 -1.6308934e-16 -1.0945876)
(205.77481 1.114713e-16 -0.937272)
(205.39864 1.3157661e-17 -0.78875887)
(205.03119 -8.6012446e-17 -0.64880221)
(204.67039 1.1550607e-17 -0.51712804)
(204.31395 2.1721118e-17 -0.39344464)
(203.9594 -1.0214708e-16 -0.27753933)
(203.60437 9.606726e-17 -0.16939329)
(203.24726 -7.2382159e-17 -0.068690016)
(202.88738 1.3634205e-16 0.025476052)
(202.52168 -5.6221267e-17 0.11081828)
(202.14358 -6.0657673e-17 0.18363622)
(201.77225 5.0115536e-17 0.27077025)
(201.40169 0 0.34607796)
(200.88683 3.2069876e-18 0.19740324)
(200.83364 -1.216224e-17 0.92918099)
(218.81159 0 -17.031738)
(256.63039 0 -1.2915759)
(240.96618 0 -16.6255)
(249.7565 1.0669888e-16 -2.912585)
(244.19631 -1.2388955e-16 -14.794151)
(246.91892 -2.2065075e-16 -5.2146589)
(244.65626 2.0985559e-16 -12.750285)
(245.30248 -1.242927e-17 -7.3798351)
(244.25269 5.9186676e-18 -11.144571)
(244.08077 -1.7404379e-16 -8.9065541)
(243.4523 1.7038721e-16 -10.275775)
(242.9991 1.012622e-17 -9.6886858)
(242.4487 -1.5376413e-16 -10.039587)
(241.90427 1.3659215e-16 -9.9908917)
(241.33075 -1.4020274e-20 -10.085069)
(240.73821 -8.1913126e-18 -10.128729)
(240.12375 0 -10.18078)
(239.48791 -7.3949416e-18 -10.224484)
(238.83052 -2.1049593e-16 -10.262845)
(238.1517 2.1254392e-16 -10.294282)
(237.45161 1.261648e-17 -10.318134)
(236.73056 -1.1961481e-17 -10.333519)
(235.98899 2.1554175e-16 -10.339584)
(235.22748 -1.716907e-16 -10.335449)
(234.44677 1.0181853e-17 -10.320233)
(233.64776 1.9305917e-16 -10.293068)
(232.83152 -1.2770966e-16 -10.253103)
(231.99931 0 -10.199528)
(231.15255 1.475644e-16 -10.131584)
(230.29284 -1.2386331e-16 -10.048587)
(229.42195 2.4962871e-16 -9.9499354)
(228.5418 -1.3335833e-17 -9.8351414)
(227.65446 -2.0968295e-16 -9.7038384)
(226.76212 1.7391204e-16 -9.5558025)
(225.86707 -1.8734897e-16 -9.3909633)
(224.97166 -2.8905517e-20 -9.2094196)
(224.0783 2.0943699e-16 -9.011445)
(223.18939 -3.1607475e-16 -8.7974933)
(222.30733 9.3027163e-17 -8.5682)
(221.43443 3.5219018e-17 -8.3243778)
(220.57292 -4.9801538e-17 -8.0670101)
(219.72493 0 -7.797236)
(218.89241 -8.8614682e-17 -7.5163362)
(218.07715 1.3878943e-16 -7.2257106)
(217.28074 -2.0955714e-16 -6.9268571)
(216.50456 1.968998e-16 -6.6213478)
(215.74979 -2.0884162e-16 -6.3107998)
(215.01736 3.9268933e-16 -5.9968508)
(214.30801 -3.0773997e-16 -5.6811334)
(213.62224 3.0859363e-16 -5.3652487)
(212.96037 -1.4484478e-16 -5.0507446)
(212.32251 1.3634258e-16 -4.7390948)
(211.70859 -9.5846704e-17 -4.4316797)
(211.11838 3.0053772e-17 -4.1297743)
(210.5515 0 -3.8345333)
(210.00743 0 -3.5469861)
(209.48553 0 -3.2680286)
(208.98504 2.326459e-17 -2.9984203)
(208.50512 0 -2.7387801)
(208.04483 -1.6373726e-16 -2.4895927)
(207.60307 1.916771e-16 -2.2512008)
(207.17864 -1.0788668e-16 -2.0238127)
(206.77025 -1.1780984e-19 -1.8075373)
(206.37644 2.5240628e-16 -1.6023458)
(205.99561 2.9646097e-17 -1.4081096)
(205.62603 -1.3843536e-16 -1.2246175)
(205.26591 5.1916178e-17 -1.0515947)
(204.91341 -1.458437e-16 -0.88872825)
(204.56651 -4.557082e-17 -0.7356786)
(204.22296 -6.4059633e-17 -0.59210533)
(203.88032 -6.0071938e-17 -0.45778141)
(203.53622 5.6293663e-17 -0.33260926)
(203.18916 0 -0.21609208)
(202.83812 0 -0.10777287)
(202.47943 -1.5516402e-17 -0.010471857)
(202.11055 0 0.076817008)
(201.74627 6.8539199e-18 0.17437053)
(201.36291 5.1613761e-17 0.23659941)
(200.91342 -7.2886705e-17 0.16166953)
(200.7696 -1.4837427e-20 0.79099045)
(219.6523 0 -20.189477)
(257.79302 -8.8206962e-18 -3.7465998)
(241.58953 2.6678538e-16 -19.904266)
(250.61669 -2.4919764e-16 -5.39432)
(244.77495 2.5428181e-16 -17.973252)
(247.6858 -2.326455e-16 -7.8314158)
(245.28364 -2.2176919e-16 -15.764851)
(245.94726 2.0993326e-16 -10.13992)
(244.83578 0 -14.010845)
(244.62598 0 -11.749306)
(243.95537 1.7991353e-16 -13.074016)
(243.45398 -1.7044244e-16 -12.524731)
(242.85857 -1.012561e-17 -12.826809)
(242.26522 2.8799672e-17 -12.785789)
(241.64264 -9.1141648e-18 -12.855287)
(240.99948 3.4566992e-17 -12.885128)
(240.33337 0 -12.916989)
(239.64481 0 -12.939607)
(238.93378 -2.3606661e-16 -12.954384)
(238.20048 2.0935838e-16 -12.959964)
(237.44527 0 -12.955498)
(236.66863 0 -12.940002)
(235.87122 -1.9048734e-16 -12.912493)
(235.05389 3.6049084e-16 -12.871986)
(234.21765 -1.7050005e-16 -12.8175)
(233.36373 -2.0199475e-17 -12.748085)
(232.49355 -3.8256739e-17 -12.662837)
(231.60873 -1.4495958e-16 -12.560917)
(230.71109 1.1968636e-16 -12.441575)
(229.80262 0 -12.304166)
(228.88549 -3.0653056e-17 -12.148178)
(227.96203 0 -11.973246)
(227.03467 0 -11.779174)
(226.10597 2.069331e-16 -11.565949)
(225.17853 -2.1933311e-16 -11.333753)
(224.25499 2.3008618e-17 -11.082973)
(223.33798 -2.1709925e-17 -10.814205)
(222.43008 -4.1041495e-17 -10.528252)
(221.53378 -8.3563835e-20 -10.226119)
(220.65143 7.9380725e-20 -9.9089978)
(219.78526 -7.4909987e-20 -9.578258)
(218.93726 0 -9.2354172)
(218.10924 -1.2183517e-16 -8.8821249)
(217.30275 1.1440912e-16 -8.5201287)
(216.51912 0 -8.1512469)
(215.7594 -5.0707671e-17 -7.7773418)
(215.0244 1.9058926e-16 -7.400283)
(214.31469 -2.2342613e-16 -7.0219237)
(213.63058 -2.101991e-16 -6.6440706)
(212.97218 1.5759545e-16 -6.2684602)
(212.33939 1.1114854e-16 -5.8967364)
(211.73192 -1.3874053e-16 -5.5304336)
(211.14932 -3.2528484e-17 -5.1709595)
(210.591 -2.136876e-16 -4.8195874)
(210.05623 1.1428813e-16 -4.4774448)
(209.5442 -1.0719114e-16 -4.1455122)
(209.05398 1.0026044e-16 -3.8246202)
(208.58458 2.3491292e-16 -3.5154485)
(208.13496 -1.7569434e-16 -3.2185267)
(207.70398 0 -2.9342425)
(207.29041 -3.8448671e-17 -2.6628379)
(206.89294 -7.19711e-17 -2.4044161)
(206.51019 1.344768e-16 -2.1589807)
(206.14066 1.2581744e-16 -1.9264066)
(205.7827 -2.3512109e-16 -1.706469)
(205.43459 8.2347135e-17 -1.4988701)
(205.09454 5.1333001e-17 -1.303256)
(204.76074 9.5966285e-17 -1.1192408)
(204.43125 1.3453865e-16 -0.94641736)
(204.1039 2.4775827e-20 -0.7844003)
(203.77631 0 -0.63293183)
(203.44618 0 -0.49180924)
(203.112 -3.4238388e-17 -0.36048387)
(202.7724 9.6064173e-17 -0.23899013)
(202.42411 -8.9844979e-17 -0.12973051)
(202.06712 -8.4102509e-17 -0.028707347)
(201.70884 5.2480645e-17 0.075834478)
(201.32437 0 0.13337988)
(200.91755 4.6081698e-17 0.12286209)
(200.72185 2.6913575e-20 0.65497233)
(220.29552 0 -23.519432)
(258.75769 1.926071e-20 -6.2782997)
(242.02137 9.0786171e-18 -23.279691)
(251.31038 2.8862589e-16 -8.0148646)
(245.19707 3.3273729e-19 -21.256392)
(248.22205 -5.0624666e-16 -10.599096)
(245.66676 -3.2299778e-19 -18.874861)
(246.35222 4.5659273e-16 -13.062461)
(245.1799 -2.1007627e-16 -16.978094)
(244.92552 -1.246087e-17 -14.741357)
(244.2113 1.183526e-17 -15.985447)
(243.65664 -1.7970844e-16 -15.48668)
(243.01249 1.9145712e-16 -15.731968)
(242.36599 -1.8191553e-16 -15.694594)
(241.69 3.0643942e-16 -15.737107)
(240.99165 -3.0874765e-16 -15.748641)
(240.26913 1.3760529e-16 -15.756882)
(239.52294 0 -15.754387)
(238.75322 0 -15.741426)
(237.9604 1.4657965e-17 -15.716652)
(237.14507 -2.7792158e-17 -15.679004)
(236.308 0 -15.627336)
(235.45019 1.9957617e-16 -15.560512)
(234.57283 4.7115818e-19 -15.477423)
(233.67735 -3.5717781e-16 -15.376993)
(232.7654 1.6876826e-16 -15.258206)
(231.83886 1.9968872e-17 -15.120139)
(230.89982 0 -14.961971)
(229.95056 -1.788787e-16 -14.783019)
(228.99357 1.3488625e-16 -14.582759)
(228.03147 -2.236763e-16 -14.360842)
(227.06704 2.1053701e-16 -14.117126)
(226.10312 -2.2785575e-16 -13.851681)
(225.14263 2.1447683e-16 -13.564813)
(224.18848 7.6029868e-17 -13.257062)
(223.24356 0 -12.929208)
(222.31065 0 -12.582269)
(221.39243 4.2376028e-17 -12.21749)
(220.49139 3.9912664e-17 -11.836324)
(219.60981 -3.757695e-17 -11.440413)
(218.74976 3.5363074e-17 -11.031561)
(217.91301 6.6714821e-17 -10.611701)
(217.10106 -6.2663862e-17 -10.18287)
(216.31511 3.5329789e-16 -9.7471628)
(215.55608 -2.7636044e-16 -9.3067048)
(214.82459 5.1871852e-17 -8.8636165)
(214.12098 -4.8806242e-17 -8.4199785)
(213.44532 0 -7.9778046)
(212.79745 2.1452159e-16 -7.5390137)
(212.17701 -1.6067931e-16 -7.1054094)
(211.58343 0 -6.6786597)
(211.01599 0 -6.2602866)
(210.47384 1.3221299e-16 -5.8516528)
(209.956 -6.1794489e-17 -5.453959)
(209.46144 0 -5.0682398)
(208.98903 -1.623666e-16 -4.6953652)
(208.53759 1.0106984e-16 -4.3360439)
(208.10592 1.4186509e-16 -3.990826)
(207.69276 -1.764678e-16 -3.6601078)
(207.29685 1.6494691e-16 -3.3441427)
(206.91683 -1.5385889e-16 -3.0430395)
(206.55132 6.3412685e-20 -2.7567721)
(206.19887 0 -2.4852182)
(205.85796 6.2540875e-17 -2.2281402)
(205.52694 -2.9158105e-16 -1.9852069)
(205.20409 1.6307469e-16 -1.7560258)
(204.88768 0 -1.5401594)
(204.57593 -1.4178882e-16 -1.3371455)
(204.267 8.80755e-17 -1.1465117)
(203.95883 1.2321378e-16 -0.96782715)
(203.64913 3.5135021e-20 -0.80078273)
(203.33572 -7.1313303e-17 -0.64507375)
(203.017 9.9735705e-17 -0.50020293)
(202.69135 -1.5493294e-16 -0.3665413)
(202.35638 8.6652704e-17 -0.2456265)
(202.01319 2.6919698e-17 -0.13214764)
(201.66301 5.0244363e-17 -0.021958498)
(201.28506 0 0.036878581)
(200.91277 -4.3749832e-17 0.079370884)
(200.67528 2.0387713e-17 0.5228196)
(220.72453 0 -27.018227)
(259.51642 9.8155918e-18 -8.9150664)
(242.2532 -3.0607214e-16 -26.778942)
(251.81952 2.4991928e-16 -10.777395)
(245.42332 2.5670647e-16 -24.638466)
(248.51683 -5.0068152e-16 -13.521379)
(245.84834 2.3029949e-16 -22.067536)
(246.50066 2.3315988e-16 -16.1472)
(245.28515 -2.2096759e-16 -20.03114)
(244.96823 3.9331589e-17 -17.869764)
(244.20958 0 -18.998158)
(243.59623 0 -18.559062)
(242.8984 -2.2369892e-17 -18.743895)
(242.19295 -1.6983206e-16 -18.705952)
(241.45724 1.4054937e-16 -18.720759)
(240.69707 1.9065661e-17 -18.710458)
(239.91129 -3.6140734e-17 -18.692091)
(239.10051 3.0835321e-16 -18.660586)
(238.26522 -2.2659817e-16 -18.615415)
(237.40615 2.4594656e-16 -18.555121)
(236.52428 -2.0324188e-16 -18.478433)
(235.6208 2.7555549e-17 -18.384051)
(234.69715 1.565534e-16 -18.270708)
(233.75502 -1.9690502e-16 -18.137206)
(232.79637 0 -17.982419)
(231.82339 0 -17.805333)
(230.83851 0 -17.605074)
(229.8444 -1.9720906e-16 -17.380933)
(228.84391 1.8577394e-16 -17.132396)
(227.84005 -3.5199882e-17 -16.859162)
(226.83597 0 -16.561179)
(225.8349 -2.8217784e-16 -16.238649)
(224.8401 2.3584373e-16 -15.892044)
(223.85479 -5.5781513e-17 -15.522115)
(222.88214 1.5775269e-16 -15.129893)
(221.92519 -4.9021415e-17 -14.716666)
(220.98677 -1.8594635e-16 -14.283985)
(220.06952 2.1935631e-16 -13.833625)
(219.17579 -1.6468074e-16 -13.36756)
(218.30763 7.7677626e-17 -12.887932)
(217.46678 -7.2891545e-17 -12.397016)
(216.6546 1.3701512e-16 -11.897167)
(215.87216 -6.4205152e-17 -11.390797)
(215.12013 -2.4164277e-16 -10.880319)
(214.39889 5.0953808e-16 -10.368118)
(213.70849 -2.1221591e-16 -9.856508)
(213.04869 -1.4954622e-16 -9.3477092)
(212.41902 9.2980633e-17 -8.8438129)
(211.81876 8.7460399e-17 -8.3467636)
(211.24703 -1.636193e-16 -7.8583418)
(210.70276 1.5287308e-16 -7.3801517)
(210.18481 0 -6.913616)
(209.69192 1.3380781e-16 -6.459971)
(209.22276 -1.8741976e-16 -6.0202695)
(208.77598 5.8405302e-17 -5.5953841)
(208.3502 5.4433768e-17 -5.186013)
(207.94401 0 -4.7926892)
(207.55603 0 -4.4157869)
(207.18486 0 -4.0555297)
(206.82911 0 -3.7120048)
(206.48737 0 -3.3851619)
(206.15818 -7.1517047e-17 -3.074826)
(205.8401 0 -2.7807348)
(205.5316 -5.1678438e-20 -2.5025272)
(205.23106 2.3093001e-16 -2.23976)
(204.93681 -2.1482473e-16 -1.9919423)
(204.64716 -1.0000159e-16 -1.7585513)
(204.36042 -1.8593889e-16 -1.53905)
(204.07484 2.5918129e-16 -1.3329048)
(203.7885 3.9309873e-20 -1.1396364)
(203.49926 7.4649296e-17 -0.95886811)
(203.20504 0 -0.79021564)
(202.90415 0 -0.63328322)
(202.59487 0 -0.48854271)
(202.27578 -1.1141779e-16 -0.3565538)
(201.94827 0 -0.23209301)
(201.609 -9.6260267e-17 -0.11680515)
(201.24228 1.341882e-16 -0.052081852)
(200.89696 8.316417e-17 0.027468427)
(200.63017 -1.9294091e-17 0.39624587)
(220.94347 0 -30.693845)
(260.07562 0 -11.660451)
(242.29153 3.220225e-16 -30.409878)
(252.14779 1.9320125e-17 -13.698)
(245.46484 -2.6947372e-16 -28.130216)
(248.62965 0 -16.620855)
(245.83107 1.6146064e-17 -25.338827)
(246.52283 -3.0604988e-17 -19.385843)
(245.14405 0 -23.149419)
(244.7566 1.9292192e-16 -21.117642)
(243.94657 -4.1767335e-16 -22.108045)
(243.26405 1.9777483e-16 -21.736339)
(242.50282 2.3473863e-17 -21.862727)
(241.72857 0 -21.819702)
(240.92327 2.1063747e-17 -21.805938)
(240.09162 -3.3976749e-16 -21.769453)
(239.23311 7.4904842e-17 -21.719943)
(238.34865 2.5039366e-16 -21.653746)
(237.43912 2.3779412e-16 -21.569833)
(236.50571 -2.5649405e-16 -21.466632)
(235.54989 0 -21.342707)
(234.5734 -2.8779702e-16 -21.196647)
(233.57825 2.443589e-16 -21.027109)
(232.56678 -2.0596306e-16 -20.832868)
(231.54157 1.9412469e-16 -20.612836)
(230.50549 -1.8397018e-16 -20.36609)
(229.46165 3.4705235e-16 -20.091927)
(228.41336 -1.6377263e-16 -19.78987)
(227.3641 1.5488968e-16 -19.459716)
(226.31746 -2.9201385e-16 -19.101547)
(225.2771 1.3744052e-16 -18.715759)
(224.24669 1.2980186e-16 -18.303065)
(223.22981 -2.4490277e-16 -17.864499)
(222.22993 5.6859828e-17 -17.401409)
(221.25032 -5.7304502e-19 -16.915451)
(220.29402 2.5479396e-16 -16.408548)
(219.36375 0 -15.882875)
(218.46189 1.9147595e-19 -15.340814)
(217.59045 0 -14.784907)
(216.75104 -7.9533203e-17 -14.217818)
(215.94485 -1.4946879e-16 -13.642282)
(215.17268 7.0174528e-17 -13.061048)
(214.43492 0 -12.476847)
(213.73161 -6.1838269e-17 -11.892338)
(213.06242 2.8944137e-16 -11.310073)
(212.42673 -3.2495063e-16 -10.732465)
(211.82366 -3.0447478e-16 -10.161759)
(211.25209 2.842885e-16 -9.6000168)
(210.71073 -1.7741337e-16 -9.0490957)
(210.19817 0 -8.5106468)
(209.71288 0 -7.9861092)
(209.25328 7.2406989e-17 -7.4767126)
(208.81774 6.7572964e-17 -6.9834832)
(208.40465 1.2593566e-16 -6.5072511)
(208.01237 -5.8723639e-17 -6.0486616)
(207.63933 -1.0939148e-16 -5.6081862)
(207.28396 -2.0399576e-16 -5.1861358)
(206.94473 -9.5167962e-17 -4.7826707)
(206.62017 1.7668698e-16 -4.3978116)
(206.30882 0 -4.0314564)
(206.00923 -7.6528771e-17 -3.6833775)
(205.71995 -1.4225538e-16 -3.3532401)
(205.43955 1.3216464e-16 -3.0406355)
(205.16654 6.1303681e-17 -2.7450739)
(204.89937 5.7015473e-17 -2.4660005)
(204.63644 0 -2.2028272)
(204.37613 1.9656871e-16 -1.9549488)
(204.11685 1.8239975e-16 -1.7217591)
(203.85697 -2.5381836e-16 -1.5026694)
(203.59471 7.8492468e-17 -1.2971482)
(203.32813 -7.2765198e-17 -1.1047436)
(203.05524 -4.669103e-20 -0.92502449)
(202.77423 2.500875e-16 -0.75768942)
(202.48346 -2.3177836e-16 -0.60306981)
(202.18241 5.365864e-17 -0.46086582)
(201.8721 1.4925644e-16 -0.32695892)
(201.54644 -4.6104532e-17 -0.2064314)
(201.19594 -4.2707092e-17 -0.13019908)
(200.87251 0 -0.028877105)
(200.58323 3.6598046e-17 0.27613444)
(220.9627 3.916342e-16 -34.556253)
(260.4402 5.416318e-19 -14.521703)
(242.11482 -3.5893314e-16 -34.188098)
(252.28908 0 -16.782238)
(245.24544 0 -31.698363)
(248.40553 -2.6779472e-16 -19.893475)
(245.50899 2.7090789e-16 -28.665032)
(246.03217 6.4252559e-17 -22.78509)
(244.73228 -2.4387354e-16 -26.367722)
(244.26633 2.306716e-16 -24.510942)
(243.39441 -2.4653454e-16 -25.342153)
(242.62992 2.0721413e-16 -25.033516)
(241.79319 -4.915838e-17 -25.100986)
(240.93847 -4.6615285e-17 -25.043342)
(240.0521 -1.7664512e-16 -24.995997)
(239.1379 1.6684538e-16 -24.9256)
(238.19607 -3.5630508e-16 -24.837006)
(237.2279 5.989267e-16 -24.727253)
(236.23484 -2.8298552e-16 -24.594921)
(235.21867 -2.6850617e-16 -24.438299)
(234.18149 2.5320531e-16 -24.255819)
(233.12575 -3.0151857e-17 -24.046002)
(232.05423 -2.2698054e-16 -23.807502)
(230.97002 2.1381845e-16 -23.539166)
(229.87651 2.5329028e-16 -23.240055)
(228.77736 -1.4282476e-16 -22.909489)
(227.67643 0 -22.547088)
(226.57776 2.5542294e-16 -22.152792)
(225.48548 -3.2081993e-16 -21.726901)
(224.40374 1.1288612e-16 -21.27008)
(223.33666 -2.8540087e-16 -20.783371)
(222.28822 2.0107744e-16 -20.268189)
(221.26222 -6.3357779e-17 -19.726308)
(220.26216 2.3810063e-16 -19.159832)
(219.29123 -2.2334387e-16 -18.571173)
(218.3522 -2.1049746e-16 -17.962989)
(217.44743 1.9729463e-16 -17.338149)
(216.57878 -4.6274834e-17 -16.699677)
(215.74766 0 -16.050685)
(214.95498 8.1884551e-17 -15.394324)
(214.20117 -7.6430347e-17 -14.733725)
(213.48622 0 -14.071946)
(212.8097 1.3458016e-16 -13.411925)
(212.17083 -6.2953378e-17 -12.75644)
(211.56849 -1.7652487e-16 -12.108075)
(211.00132 5.5061593e-16 -11.469199)
(210.46772 -2.0615248e-16 -10.841947)
(209.96596 9.615575e-17 -10.228211)
(209.49418 -2.6961216e-16 -9.6296362)
(209.05046 -1.8425872e-19 -9.0476274)
(208.63285 1.5632564e-16 -8.4833545)
(208.2394 -1.4583453e-16 -7.9377633)
(207.8682 -6.7869842e-17 -7.4115905)
(207.5174 -6.322014e-17 -6.9053787)
(207.18519 -1.1804154e-16 -6.4194917)
(206.86984 2.192159e-16 -5.9541313)
(206.5697 0 -5.5093525)
(206.28319 9.4735773e-17 -5.0850761)
(206.0088 -3.5251043e-16 -4.6811024)
(205.74506 2.453368e-16 -4.2971275)
(205.49055 7.5927785e-17 -3.9327394)
(205.24385 1.4105158e-16 -3.5874409)
(205.00361 1.3105302e-16 -3.2606786)
(204.76839 -1.212566e-16 -2.9518367)
(204.53675 -1.1237026e-16 -2.6602539)
(204.3072 -3.1259771e-16 -2.3852516)
(204.07821 -4.2232495e-20 -2.1261498)
(203.8483 -8.933797e-17 -1.8822823)
(203.61595 0 -1.6530118)
(203.37959 -2.2966424e-16 -1.4377516)
(203.13744 7.0815667e-17 -1.2359804)
(202.88762 0 -1.0472502)
(202.62823 1.211589e-16 -0.87129655)
(202.35782 0 -0.70812509)
(202.07652 1.0350828e-16 -0.55690196)
(201.78454 -1.4343775e-16 -0.41521368)
(201.47481 1.3254549e-16 -0.28915327)
(201.14476 -8.1628345e-17 -0.1969549)
(200.84052 7.5383091e-17 -0.081493221)
(200.5325 0 0.16320233)
(220.77015 -4.1143017e-16 -38.612376)
(260.59786 3.6347248e-16 -17.516489)
(241.68787 -3.3299459e-16 -38.143111)
(252.17759 3.311305e-16 -20.04236)
(244.74209 3.1709235e-16 -35.325614)
(247.9524 -1.8025871e-17 -23.351428)
(244.94383 -2.8392107e-16 -32.073804)
(245.4121 -2.6952228e-16 -26.376312)
(244.02624 2.8687066e-16 -29.705588)
(243.45277 0 -28.051229)
(242.5085 2.8624535e-17 -28.707814)
(241.64947 0 -28.450121)
(240.72459 -1.2874381e-16 -28.458148)
(239.77714 2.430864e-16 -28.374277)
(238.79751 0 -28.285552)
(237.7891 0 -28.170972)
(236.75289 0 -28.032354)
(235.6908 3.9148662e-17 -27.867011)
(234.60501 0 -27.673235)
(233.4981 -2.4485384e-16 -27.449218)
(232.37306 3.299007e-16 -27.193328)
(231.23322 1.2482975e-16 -26.904129)
(230.08232 1.7700421e-16 -26.580398)
(228.92441 -2.7802426e-16 -26.221214)
(227.7638 -5.2393395e-17 -25.825979)
(226.60505 -2.4794759e-16 -25.394465)
(225.45286 1.8661278e-16 -24.92685)
(224.31198 -2.2041083e-16 -24.423743)
(223.18715 8.2467408e-17 -23.886192)
(222.08297 7.7968516e-17 -23.315688)
(221.00387 0 -22.714155)
(219.95394 2.7737332e-16 -22.083912)
(218.93692 -2.6051019e-16 -21.42765)
(217.95607 0 -20.74837)
(217.01415 -2.3030799e-16 -20.049334)
(216.11337 2.1571883e-16 -19.333994)
(215.25536 -1.01658e-16 -18.605925)
(214.44115 1.9033044e-16 -17.868756)
(213.67123 -2.674304e-16 -17.126097)
(212.94553 1.2762097e-19 -16.381477)
(212.26349 -1.5625532e-16 -15.638287)
(211.6241 -7.312896e-17 -14.899727)
(211.02597 -1.3725104e-16 -14.168772)
(210.46741 2.5586241e-16 -13.448138)
(209.94647 -1.1940204e-16 -12.740263)
(209.46101 0 -12.047298)
(209.00876 -3.7697968e-19 -11.371104)
(208.5874 9.7136423e-17 -10.713259)
(208.19458 0 -10.075068)
(207.82795 8.4490138e-17 -9.4575739)
(207.48525 7.8998213e-17 -8.8615837)
(207.16426 -7.3348122e-17 -8.2876821)
(206.86287 2.7308806e-16 -7.736254)
(206.5791 -2.5387233e-16 -7.2075059)
(206.31105 -1.1807156e-16 -6.7014842)
(206.05694 -1.0968797e-16 -6.2180955)
(205.81512 1.0184985e-16 -5.7571216)
(205.584 1.8893567e-16 -5.3182348)
(205.36213 -3.5046631e-16 -4.9010104)
(205.14808 4.0616902e-16 -4.5049438)
(204.94051 -1.5050138e-16 -4.129442)
(204.73809 1.3949955e-16 -3.7738525)
(204.53955 -1.291377e-16 -3.4374873)
(204.34359 2.3916419e-16 -3.1196134)
(204.14888 -3.3200419e-16 -2.8194743)
(203.95404 2.0466222e-16 -2.5363116)
(203.75769 -7.605732e-20 -2.2693822)
(203.55846 8.7479832e-17 -2.0179715)
(203.35497 0 -1.7813989)
(203.1458 0 -1.5590236)
(202.9294 0 -1.3502727)
(202.70396 -1.2713709e-16 -1.1546976)
(202.46757 1.1140209e-20 -0.9719772)
(202.21906 0 -0.80171184)
(201.95877 0 -0.64301109)
(201.68597 9.1944437e-17 -0.49531351)
(201.39457 -1.6942721e-16 -0.36351826)
(201.08835 0 -0.25535943)
(200.80101 0 -0.1336583)
(200.47802 -1.3198346e-16 0.058005223)
(220.33258 2.7769553e-17 -42.871521)
(260.51208 -7.8696114e-16 -20.666792)
(240.98285 3.4838343e-16 -42.240259)
(251.54296 -2.1765587e-17 -23.484907)
(243.92445 3.7374981e-16 -39.072973)
(247.16571 -3.5246008e-16 -27.033044)
(244.07003 0 -35.599019)
(244.40662 -3.1748704e-16 -30.159689)
(242.96917 2.3339649e-16 -33.158499)
(242.27176 2.2168008e-16 -31.730781)
(241.24163 -2.3928601e-16 -32.207497)
(240.27396 0 -31.981923)
(239.24651 1.8891826e-19 -31.928325)
(238.19272 0 -31.804381)
(237.10663 3.8543397e-16 -31.662865)
(235.99165 -7.2811974e-16 -31.490419)
(234.84973 3.4374984e-16 -31.287031)
(233.68366 -4.0607003e-17 -31.05012)
(232.49664 -3.8584774e-17 -30.777799)
(231.29233 3.6670809e-17 -30.468257)
(230.07482 -6.8483773e-17 -30.119951)
(228.84864 -3.2441857e-16 -29.731648)
(227.61867 3.0533571e-16 -29.302482)
(226.39006 5.7560601e-17 -28.832021)
(225.16819 -2.7277831e-16 -28.320286)
(223.95855 -6.9671869e-19 -27.76782)
(222.76663 2.8972092e-16 -27.175677)
(221.59782 -1.8184075e-16 -26.545444)
(220.45728 -6.0970295e-19 -25.879221)
(219.34985 0 -25.179599)
(218.27992 0 -24.449612)
(217.25135 -7.1553103e-17 -23.692682)
(216.26742 1.3395986e-16 -22.912554)
(215.33072 0 -22.113209)
(214.44314 -1.1840018e-16 -21.298787)
(213.6059 2.2154772e-16 -20.4735)
(212.81949 -1.0379249e-16 -19.641537)
(212.08377 -1.9451431e-16 -18.806998)
(211.39798 9.0395738e-17 -17.973811)