/*--------------------------------*- C++ -*----------------------------------*\
  =========                 |
  \\      /  F ield         | OpenFOAM: The Open Source CFD Toolbox
   \\    /   O peration     | Website:  https://openfoam.org
    \\  /    A nd           | Version:  12
     \\/     M anipulation  |
\*---------------------------------------------------------------------------*/
FoamFile
{
    format      ascii;
    class       volScalarField;
    location    "0.074";
    object      k;
}
// * * * * * * * * * * * * * * * * * * * * * * * * * * * * * * * * * * * * * //

dimensions      [0 2 -2 0 0 0 0];

internalField   nonuniform List<scalar> 
16000
(
0.049185069
0.021417244
0.022302786
0.016440103
0.013953019
0.012636306
0.011851891
0.011384359
0.011066588
0.010853277
0.010695602
0.010578405
0.010486867
0.010414469
0.010356245
0.010309151
0.010270632
0.010238996
0.010213305
0.010192276
0.010174941
0.010160861
0.010149586
0.01014056
0.010133555
0.010128232
0.010124405
0.010121907
0.010120601
0.010120359
0.01012106
0.010122606
0.010124918
0.010127929
0.010131584
0.010135826
0.010140603
0.010145861
0.010151548
0.010157615
0.010164007
0.010170666
0.010177532
0.010184546
0.010191633
0.010198717
0.010205724
0.01021259
0.010219256
0.010225669
0.010231783
0.010237551
0.010242921
0.010247831
0.010252213
0.010255989
0.010259073
0.010261376
0.0102628
0.010263248
0.01026262
0.010260836
0.010257874
0.010253758
0.010248551
0.010242345
0.010235244
0.010227388
0.010219063
0.010210877
0.010203841
0.010199018
0.010195953
0.010189732
0.010171637
0.01013494
0.010078364
0.010048007
0.010002822
0.010019243
0.045424761
0.020284133
0.02087417
0.015900366
0.013612087
0.012434693
0.011691557
0.011269033
0.010967439
0.010771165
0.010623723
0.010515196
0.01043003
0.010363061
0.01030928
0.010266026
0.010230867
0.010202096
0.01017892
0.010160181
0.010144965
0.010132759
0.010123253
0.010115855
0.010110382
0.010106495
0.010104013
0.010102776
0.010102652
0.010103521
0.010105268
0.01010779
0.01011101
0.010114858
0.010119278
0.010124216
0.010129619
0.010135433
0.010141608
0.010148095
0.010154843
0.010161795
0.010168894
0.010176084
0.010183297
0.010190455
0.010197487
0.010204327
0.010210918
0.010217208
0.010223153
0.010228712
0.010233839
0.010238479
0.010242564
0.010246019
0.010248763
0.010250709
0.010251769
0.010251851
0.010250867
0.010248742
0.010245453
0.010241019
0.010235499
0.010228989
0.010221612
0.010213551
0.01020514
0.010196998
0.010190048
0.010185133
0.010181555
0.010174198
0.0101554
0.010117577
0.010070068
0.010037869
0.0099987917
0.010018016
0.042253995
0.019484415
0.0195623
0.015343541
0.013263417
0.01221088
0.011525412
0.011144494
0.010865994
0.010687732
0.01055138
0.010451971
0.010373656
0.010312415
0.010263378
0.010224182
0.010192604
0.010166929
0.010146465
0.010130107
0.010117162
0.010106953
0.010099325
0.010093654
0.0100898
0.010087429
0.010086367
0.010086459
0.010087579
0.010089614
0.010092451
0.01009599
0.010100151
0.010104863
0.010110069
0.010115713
0.010121744
0.010128108
0.010134753
0.010141633
0.010148699
0.010155896
0.01016317
0.010170467
0.010177725
0.01018487
0.010191831
0.010198545
0.010204954
0.01021101
0.010216672
0.010221904
0.010226667
0.010230912
0.010234575
0.010237583
0.010239858
0.010241318
0.01024188
0.010241461
0.01023998
0.010237372
0.010233616
0.010228733
0.010222781
0.010215863
0.010208133
0.010199823
0.010191318
0.010183237
0.010176383
0.010171318
0.010167012
0.010158203
0.010138338
0.010101445
0.010058289
0.010026111
0.0099964897
0.010010035
0.038402175
0.018941387
0.01842564
0.014843986
0.012947572
0.012008089
0.011373197
0.011030621
0.01077281
0.010610884
0.010485142
0.010394169
0.010322394
0.010266574
0.010222078
0.010186757
0.010158616
0.010135939
0.010118152
0.010104071
0.010093347
0.010085093
0.010079305
0.01007533
0.010073065
0.010072184
0.010072516
0.010073914
0.010076251
0.010079421
0.010083315
0.010087832
0.010092889
0.010098415
0.010104349
0.010110635
0.010117221
0.010124054
0.010131083
0.01013826
0.010145542
0.010152875
0.010160209
0.010167494
0.010174674
0.010181681
0.010188446
0.010194908
0.010201012
0.010206712
0.010211972
0.010216761
0.010221046
0.010224785
0.01022792
0.01023038
0.01023209
0.010232972
0.010232948
0.010231939
0.010229875
0.010226698
0.010222392
0.010216979
0.01021052
0.01020313
0.010195
0.010186419
0.01017781
0.010169756
0.010162893
0.010157464
0.010152146
0.010141788
0.010121221
0.010086138
0.010047553
0.010017725
0.0099950889
0.010006801
0.035623143
0.018636502
0.017445322
0.014380854
0.012653291
0.011816225
0.011230337
0.010923183
0.010685748
0.010539138
0.010423803
0.010340887
0.010275516
0.010224968
0.010184927
0.010153397
0.01012863
0.010108881
0.010093795
0.010081979
0.010073464
0.010067168
0.010063216
0.010060946
0.010060265
0.010060874
0.010062601
0.010065299
0.010068845
0.010073135
0.010078062
0.010083526
0.010089441
0.010095732
0.010102337
0.010109198
0.010116262
0.010123477
0.010130793
0.010138164
0.010145548
0.010152899
0.010160168
0.01016731
0.010174278
0.010181011
0.010187444
0.010193519
0.010199186
0.0102044
0.010209131
0.010213352
0.010217039
0.010220156
0.01022265
0.010224454
0.010225495
0.010225696
0.010224984
0.010223289
0.010220544
0.010216703
0.010211755
0.01020573
0.010198694
0.010190779
0.010182217
0.010173351
0.01016463
0.010156565
0.010149576
0.010143566
0.010136963
0.010125325
0.010104514
0.010071664
0.010037092
0.0100106
0.0099940254
0.010002648
0.033754998
0.018571421
0.016730718
0.013956145
0.012382292
0.011637602
0.011098192
0.010823543
0.010605722
0.010473232
0.010367992
0.010292683
0.010233509
0.010188043
0.010152333
0.01012449
0.010103027
0.010086093
0.010073692
0.01006417
0.010057845
0.010053528
0.010051396
0.010050858
0.010051733
0.010053829
0.010056941
0.010060926
0.01006566
0.010071039
0.010076958
0.010083316
0.010090025
0.010097006
0.010104195
0.010111533
0.010118966
0.010126445
0.010133922
0.010141352
0.010148697
0.010155917
0.010162971
0.010169818
0.010176421
0.010182726
0.010188677
0.010194219
0.010199306
0.010203901
0.010207972
0.010211502
0.010214471
0.010216852
0.010218597
0.010219643
0.010219917
0.010219343
0.010217853
0.010215382
0.010211871
0.010207282
0.010201617
0.010194916
0.010187256
0.010178787
0.010169778
0.010160626
0.010151778
0.010143633
0.010136363
0.010129545
0.010121366
0.010108954
0.010088372
0.01005809
0.010027606
0.010005004
0.0099933054
0.0099996874
0.030861955
0.018670309
0.016222473
0.013566651
0.012132425
0.011471593
0.010976555
0.010731576
0.01053265
0.010413116
0.010317632
0.010249539
0.010196373
0.010155841
0.010124372
0.010100147
0.010081975
0.010067794
0.010058038
0.01005088
0.010046737
0.01004451
0.010044146
0.010045465
0.010047791
0.010051368
0.010055855
0.010061107
0.010066995
0.010073416
0.010080266
0.010087444
0.010094857
0.010102425
0.010110082
0.010117768
0.010125432
0.010133025
0.010140504
0.010147829
0.010154966
0.010161885
0.010168551
0.010174933
0.010181
0.010186712
0.01019202
0.010196877
0.01020124
0.010205077
0.01020836
0.010211076
0.010213212
0.010214748
0.010215641
0.010215833
0.010215249
0.010213814
0.010211461
0.010208133
0.01020378
0.010198374
0.010191931
0.010184506
0.010176193
0.01016716
0.010157706
0.010148262
0.010139252
0.010130924
0.010123183
0.010115356
0.010105521
0.010092958
0.010073088
0.010045649
0.010019198
0.010000753
0.0099929772
0.0099973032
0.028511053
0.018859408
0.015809594
0.013209948
0.011902273
0.011317994
0.010864909
0.010647147
0.0104662
0.010358681
0.010272658
0.010211497
0.010164202
0.010128517
0.010101247
0.010080606
0.010065747
0.010054348
0.010047165
0.01004244
0.010040433
0.010040693
0.010041785
0.010044694
0.010048812
0.010053856
0.010059692
0.010066168
0.010073154
0.010080542
0.01008823
0.010096115
0.010104104
0.010112117
0.010120085
0.010127951
0.010135665
0.010143185
0.010150473
0.010157496
0.010164229
0.010170649
0.010176735
0.010182462
0.010187812
0.010192756
0.010197257
0.010201273
0.010204768
0.010207712
0.010210085
0.010211873
0.010213069
0.010213659
0.010213609
0.010212861
0.010211339
0.010208968
0.010205683
0.010201432
0.010196177
0.010189902
0.010182637
0.010174459
0.010165483
0.010155893
0.010146002
0.010136252
0.010127017
0.010118363
0.010109932
0.010100922
0.010090088
0.010077558
0.010058882
0.010034536
0.010012074
0.0099978908
0.0099930153
0.0099956646
0.026832177
0.01904791
0.015326356
0.012882883
0.011690234
0.011176045
0.010762586
0.010569504
0.010406436
0.010310169
0.010233307
0.01017886
0.010137322
0.010106425
0.010083339
0.010066265
0.010054694
0.010046221
0.01004136
0.010039231
0.010038554
0.010041404
0.010044891
0.010049539
0.010055196
0.010061678
0.010068808
0.010076433
0.01008442
0.010092658
0.010101045
0.010109479
0.010117869
0.010126133
0.010134207
0.010142037
0.010149579
0.010156797
0.010163664
0.010170158
0.010176263
0.010181967
0.010187262
0.010192136
0.010196581
0.010200581
0.010204111
0.010207136
0.010209626
0.010211555
0.010212905
0.010213664
0.010213827
0.010213387
0.010212314
0.010210553
0.01020803
0.010204665
0.010200393
0.010195171
0.010188974
0.010181798
0.01017369
0.010164747
0.010155111
0.01014498
0.010134658
0.010124567
0.010115007
0.010105852
0.010096537
0.010086144
0.010075177
0.010063019
0.010045983
0.010024928
0.010006286
0.009996214
0.0099936391
0.0099945249
0.025095682
0.019221529
0.01465949
0.012582778
0.011496293
0.011046144
0.010670401
0.010499778
0.010353929
0.010268031
0.01020001
0.010152096
0.010116204
0.010090049
0.010071141
0.010057659
0.01004913
0.010043964
0.010040328
0.010041342
0.010044843
0.010048552
0.010053824
0.010060173
0.010067368
0.010075211
0.010083534
0.010092182
0.01010102
0.010109932
0.010118818
0.010127582
0.010136135
0.0101444
0.010152318
0.010159845
0.010166945
0.010173595
0.010179779
0.010185488
0.010190721
0.010195479
0.010199768
0.010203589
0.010206944
0.010209832
0.010212237
0.010214135
0.010215499
0.010216308
0.010216541
0.010216188
0.010215245
0.010213707
0.01021155
0.010208723
0.010205152
0.010200754
0.010195464
0.010189245
0.010182085
0.010174
0.010165047
0.010155344
0.010145058
0.010134397
0.010123639
0.010113144
0.010103123
0.010093275
0.010082951
0.010071356
0.010061006
0.010049577
0.010034555
0.010016913
0.010001868
0.0099949617
0.0099943278
0.0099937684
0.023579031
0.019365665
0.014124194
0.012307441
0.011320953
0.010928684
0.010588913
0.010438597
0.010308863
0.010232666
0.010173193
0.010131689
0.010101364
0.010079932
0.010065202
0.010055435
0.010048889
0.010048231
0.010049108
0.010051716
0.010055979
0.010062008
0.010069117
0.010077092
0.010085714
0.010094784
0.010104133
0.010113608
0.01012307
0.010132406
0.010141517
0.010150316
0.010158723
0.010166673
0.010174117
0.010181023
0.01018737
0.010193151
0.010198365
0.010203021
0.010207132
0.010210715
0.010213788
0.010216367
0.010218465
0.010220091
0.010221241
0.010221898
0.010222039
0.010221643
0.01022069
0.010219168
0.010217068
0.010214388
0.010211107
0.010207181
0.010202536
0.010197088
0.010190771
0.010183551
0.010175433
0.010166448
0.010156669
0.010146223
0.010135296
0.010124105
0.010112883
0.010101892
0.010091249
0.010080537
0.010069114
0.010057495
0.010047791
0.010037445
0.01002468
0.010010416
0.0099986755
0.0099937942
0.0099942427
0.0099934824
0.0222182
0.019497225
0.013659285
0.012057153
0.011164184
0.010823365
0.010517932
0.010385701
0.01027158
0.010204557
0.01015336
0.010118198
0.010093392
0.010076694
0.010066133
0.010060385
0.010058509
0.01005912
0.010062381
0.010067654
0.010074466
0.010082384
0.010091212
0.010100672
0.010110541
0.010120618
0.010130736
0.010140746
0.010150512
0.010159926
0.010168898
0.010177357
0.010185238
0.010192492
0.01019909
0.010205017
0.010210273
0.010214867
0.010218821
0.010222158
0.010224908
0.010227103
0.010228775
0.01022995
0.010230653
0.010230899
0.010230693
0.010230026
0.010228877
0.010227223
0.010225044
0.01022232
0.010219042
0.0102152
0.010210781
0.010205743
0.01020002
0.010193529
0.010186198
0.010177998
0.010168944
0.010159087
0.010148514
0.010137352
0.010125787
0.010114038
0.010102299
0.010090709
0.010079276
0.010067625
0.01005505
0.010044588
0.010035768
0.010026775
0.010016351
0.010005237
0.0099964204
0.0099931858
0.0099936982
0.0099936214
0.020988075
0.019587683
0.01323312
0.011831968
0.011025578
0.01073017
0.01045759
0.010341707
0.010242432
0.010184232
0.010141093
0.010112264
0.010092971
0.010081046
0.010074702
0.010072622
0.01007388
0.010077894
0.010083923
0.010091546
0.010100384
0.010110132
0.010120483
0.01013118
0.010142001
0.010152747
0.010163259
0.010173392
0.010183027
0.01019207
0.010200447
0.010208108
0.010215016
0.010221147
0.010226495
0.010231068
0.01023489
0.010237992
0.010240411
0.010242191
0.010243376
0.010244009
0.010244134
0.010243785
0.010242994
0.010241783
0.01024016
0.010238122
0.010235649
0.010232718
0.010229301
0.010225375
0.010220923
0.01021593
0.010210382
0.010204245
0.010197461
0.010189951
0.010181644
0.010172504
0.010162555
0.010151864
0.010140532
0.010128684
0.010116484
0.010104125
0.01009178
0.0100795
0.01006715
0.010054569
0.01004216
0.010032835
0.010025117
0.010017642
0.010009492
0.010001194
0.0099949202
0.0099929648
0.0099936853
0.0099941414
0.019881071
0.019596468
0.01284645
0.011629893
0.010904394
0.010649144
0.010408009
0.010306936
0.010221896
0.010172344
0.010137129
0.010114667
0.010100921
0.010093823
0.010091747
0.010093485
0.010098151
0.010105057
0.010113679
0.010123554
0.010134298
0.010145576
0.010157112
0.010168651
0.010179979
0.010190907
0.010201288
0.010211001
0.010219951
0.010228069
0.010235313
0.010241663
0.010247115
0.010251678
0.010255374
0.010258238
0.010260316
0.010261658
0.01026232
0.010262357
0.010261826
0.01026078
0.010259265
0.010257324
0.010254991
0.01025229
0.010249232
0.010245815
0.010242022
0.010237824
0.01023319
0.01022809
0.010222496
0.010216388
0.010209748
0.010202547
0.010194739
0.010186254
0.010177021
0.010167001
0.010156209
0.010144726
0.010132668
0.010120158
0.010107323
0.010094299
0.010081226
0.010068178
0.010054963
0.010041359
0.010030558
0.010022429
0.010015939
0.010010016
0.010003959
0.0099981056
0.0099940479
0.0099929678
0.0099939309
0.0099948106
0.018883666
0.019396266
0.012497447
0.011449872
0.010800431
0.010580538
0.010369504
0.01028207
0.010210698
0.010169797
0.010142428
0.010126408
0.010118262
0.010116039
0.010118238
0.010123723
0.010131652
0.010141386
0.010152377
0.010164179
0.010176416
0.010188766
0.010200957
0.010212748
0.010223948
0.010234394
0.01024397
0.01025259
0.010260201
0.010266776
0.01027231
0.010276824
0.010280351
0.010282935
0.010284627
0.010285486
0.010285577
0.010284965
0.010283718
0.010281901
0.010279575
0.010276795
0.010273613
0.010270069
0.010266197
0.010262021
0.010257552
0.010252787
0.010247709
0.010242287
0.010236484
0.010230261
0.010223584
0.010216421
0.010208749
0.010200543
0.010191765
0.01018236
0.010172265
0.01016143
0.010149861
0.010137632
0.010124869
0.010111702
0.010098231
0.01008451
0.010070601
0.010056656
0.010042843
0.010029694
0.010020351
0.010013479
0.010008244
0.01000379
0.0099995628
0.0099957847
0.0099935226
0.0099932386
0.0099942801
0.0099955241
0.017981044
0.018572785
0.012183384
0.011291247
0.010713952
0.010524757
0.010342629
0.01026807
0.010209908
0.010177765
0.010158223
0.01014871
0.010146184
0.010148811
0.010155194
0.010164262
0.010175205
0.01018739
0.010200294
0.010213477
0.010226573
0.010239278
0.010251348
0.010262579
0.010272821
0.010281964
0.01028994
0.010296719
0.010302301
0.010306709
0.010309987
0.010312195
0.010313402
0.010313683
0.010313113
0.010311769
0.010309728
0.010307064
0.010303848
0.010300148
0.010296023
0.010291528
0.01028671
0.010281607
0.01027625
0.010270659
0.010264841
0.010258791
0.010252492
0.010245912
0.010239008
0.010231737
0.010224053
0.010215916
0.010207294
0.010198158
0.010188481
0.010178222
0.010167328
0.010155751
0.010143472
0.010130547
0.010117094
0.010103254
0.010089124
0.010074706
0.010059961
0.01004506
0.010030653
0.010019646
0.010011655
0.010006006
0.010001961
0.0099988091
0.0099961069
0.0099939962
0.0099930498
0.0099935138
0.00999458
0.0099962391
0.017164921
0.017223586
0.011906202
0.011153759
0.010644071
0.010482741
0.010328443
0.010266355
0.010220977
0.010197721
0.010185967
0.010182945
0.010185949
0.010193251
0.010203537
0.010215787
0.010229214
0.010243201
0.010257245
0.010270929
0.010283928
0.010295983
0.010306907
0.010316567
0.01032488
0.010331811
0.010337361
0.010341565
0.010344483
0.010346191
0.010346775
0.010346329
0.010344952
0.010342738
0.010339776
0.010336153
0.010331949
0.010327237
0.010322086
0.010316557
0.010310704
0.010304576
0.010298212
0.010291643
0.010284895
0.010277981
0.010270906
0.010263662
0.010256228
0.010248574
0.010240654
0.01023242
0.010223819
0.010214802
0.010205325
0.010195355
0.010184863
0.010173821
0.010162193
0.010149935
0.010137015
0.010123451
0.010109335
0.0100948
0.010079958
0.01006483
0.010049368
0.010033821
0.010020665
0.010011165
0.010004466
0.0099999396
0.0099969552
0.0099949015
0.009993407
0.0099925627
0.0099926931
0.0099936603
0.0099948284
0.0099968062
0.01643128
0.016362956
0.011672134
0.011037828
0.010591677
0.010455888
0.010328449
0.010278606
0.0102456
0.010231299
0.01022721
0.010230513
0.010238751
0.010250284
0.010263862
0.010278514
0.01029348
0.010308182
0.010322173
0.010335105
0.01034673
0.010356882
0.010365469
0.010372454
0.010377851
0.010381706
0.0103841
0.01038513
0.010384908
0.010383554
0.010381183
0.010377912
0.010373852
0.010369105
0.010363763
0.01035791
0.010351621
0.010344962
0.010337992
0.01033076
0.010323312
0.010315683
0.010307906
0.010300002
0.010291988
0.010283871
0.010275653
0.010267321
0.010258855
0.010250222
0.010241378
0.010232272
0.010222849
0.010213051
0.010202824
0.010192123
0.010180914
0.01016917
0.010156869
0.010143983
0.010130477
0.010116337
0.010101607
0.010086394
0.010070807
0.010054921
0.010038943
0.01002359
0.010012382
0.010004253
0.0099986882
0.0099951347
0.0099930419
0.0099918824
0.0099913318
0.0099914254
0.009992308
0.0099936805
0.0099951683
0.0099975132
0.015772355
0.015364043
0.011472278
0.010943988
0.010557726
0.010445897
0.010344286
0.010306731
0.010285691
0.01028028
0.010283543
0.010292694
0.010305462
0.010320288
0.010335997
0.010351691
0.010366695
0.010380528
0.010392863
0.010403477
0.010412256
0.010419165
0.010424232
0.010427535
0.010429181
0.010429299
0.010428032
0.010425526
0.010421927
0.010417375
0.010412
0.010405922
0.01039925
0.010392081
0.010384498
0.010376574
0.010368372
0.010359942
0.010351331
0.010342575
0.010333706
0.010324747
0.010315718
0.010306632
0.010297497
0.010288315
0.010279079
0.010269777
0.010260387
0.010250875
0.010241201
0.010231315
0.01022116
0.010210675
0.0101998
0.010188476
0.010176655
0.010164303
0.010151398
0.010137929
0.010123879
0.01010922
0.010093946
0.010078122
0.01006187
0.010045275
0.010028725
0.010015498
0.010005699
0.0099987663
0.009994159
0.0099913991
0.0099900111
0.00998955
0.0099897264
0.0099905037
0.0099919226
0.0099937198
0.0099956116
0.0099980734
0.015182448
0.014685652
0.011309022
0.010872919
0.010543253
0.010454964
0.010378143
0.010353082
0.010343482
0.01034651
0.0103563
0.010370159
0.010386005
0.010402404
0.010418326
0.010433038
0.010446041
0.010457037
0.010465885
0.010472546
0.010477067
0.010479558
0.010480169
0.010479072
0.010476453
0.010472494
0.010467374
0.01046126
0.010454308
0.010446655
0.010438428
0.010429732
0.010420663
0.010411301
0.010401713
0.010391955
0.010382072
0.0103721
0.010362067
0.010351995
0.010341902
0.0103318
0.010321696
0.010311594
0.010301492
0.010291386
0.010281265
0.010271114
0.010260909
0.01025062
0.010240208
0.010229626
0.010218821
0.010207734
0.010196299
0.010184451
0.010172126
0.01015927
0.01014585
0.010131855
0.010117291
0.010102154
0.010086414
0.010070067
0.010053266
0.010036459
0.010020574
0.010008986
0.010000457
0.0099945092
0.009990676
0.0099885295
0.0099876623
0.0099877108
0.0099884329
0.0099897393
0.0099915613
0.0099936764
0.0099958256
0.0099983363
0.014655936
0.013935831
0.011179087
0.010827279
0.010550073
0.010486429
0.010433068
0.010420376
0.010421068
0.01043115
0.010445602
0.010461949
0.010478385
0.010493736
0.010507249
0.010518476
0.010527193
0.010533347
0.010537023
0.010538371
0.010537591
0.01053491
0.010530563
0.010524782
0.010517786
0.010509776
0.010500933
0.010491416
0.010481366
0.010470902
0.010460128
0.010449128
0.010437974
0.010426724
0.010415425
0.010404112
0.010392812
0.010381545
0.010370324
0.010359156
0.010348045
0.01033699
0.010325989
0.010315035
0.01030412
0.010293233
0.010282359
0.010271479
0.010260569
0.010249601
0.010238538
0.010227339
0.010215955
0.010204332
0.010192407
0.010180113
0.010167377
0.010154128
0.010140306
0.010125877
0.010110849
0.010095256
0.010079119
0.010062404
0.010045112
0.010027883
0.010014246
0.010003906
0.0099964137
0.0099912582
0.0099880261
0.009986335
0.0099858349
0.0099862309
0.0099873251
0.0099890056
0.0099911345
0.0099934554
0.009995796
0.00999845
0.014192457
0.013354736
0.011087092
0.010811771
0.010582037
0.010544345
0.010512169
0.010510459
0.010518913
0.010533126
0.010548951
0.010564338
0.010577949
0.010589042
0.01059727
0.010602547
0.010604962
0.010604715
0.010602079
0.010597348
0.010590819
0.010582779
0.010573491
0.010563193
0.010552096
0.010540382
0.010528206
0.010515698
0.010502968
0.010490105
0.010477182
0.010464258
0.010451377
0.010438575
0.010425876
0.010413297
0.010400848
0.010388533
0.010376352
0.010364299
0.010352366
0.010340541
0.010328814
0.010317168
0.010305589
0.010294059
0.010282559
0.010271068
0.010259561
0.010248009
0.010236381
0.010224638
0.010212738
0.010200632
0.010188266
0.010175577
0.010162495
0.010148942
0.010134836
0.010120111
0.010104733
0.010088726
0.010072177
0.010055222
0.010038067
0.010021467
0.010009256
0.0099999983
0.009993322
0.0099887813
0.0099859988
0.0099846348
0.0099843881
0.0099850148
0.0099863432
0.0099882427
0.0099905523
0.0099930608
0.0099956433
0.0099984647
0.013797403
0.012893979
0.011035535
0.010831484
0.010664378
0.010631754
0.010616515
0.010622147
0.010633876
0.010647613
0.010660299
0.010670547
0.010677668
0.010681454
0.010681993
0.010679541
0.01067444
0.010667061
0.010657777
0.010646941
0.010634866
0.01062183
0.010608069
0.010593785
0.010579146
0.010564291
0.010549332
0.010534359
0.010519445
0.010504644
0.01049
0.010475543
0.010461294
0.010447267
0.010433467
0.010419895
0.010406547
0.010393412
0.01038048
0.010367734
0.010355158
0.010342731
0.010330433
0.010318243
0.010306139
0.010294097
0.010282096
0.010270108
0.01025811
0.010246072
0.010233963
0.010221749
0.010209392
0.010196851
0.01018408
0.010171025
0.010157626
0.010143812
0.010129503
0.010114617
0.010099078
0.010082843
0.010065937
0.010048541
0.010031287
0.010016606
0.010005398
0.0099969959
0.0099909449
0.0099868606
0.0099844007
0.0099832639
0.0099831902
0.0099839666
0.0099854305
0.009987444
0.0099898615
0.0099925344
0.0099953805
0.0099984222
0.013479932
0.012522961
0.011028494
0.010886344
0.010766302
0.010747941
0.010742427
0.010749267
0.010758118
0.010765853
0.010770648
0.010771928
0.010769662
0.010764119
0.010755712
0.010744901
0.010732141
0.010717848
0.010702389
0.010686078
0.010669178
0.010651904
0.010634432
0.010616901
0.010599421
0.010582078
0.010564938
0.01054805
0.010531451
0.010515163
0.010499202
0.010483577
0.010468286
0.010453328
0.010438692
0.010424366
0.010410334
0.010396577
0.010383074
0.010369803
0.010356738
0.010343855
0.010331125
0.010318522
0.010306019
0.010293589
0.010281202
0.010268832
0.010256449
0.010244024
0.010231526
0.010218922
0.010206176
0.010193254
0.010180115
0.010166717
0.010153011
0.010138939
0.010124438
0.010109435
0.010093856
0.010077635
0.010060748
0.010043337
0.010026201
0.010012829
0.010002438
0.0099946728
0.0099890821
0.0099853207
0.0099830803
0.0099820963
0.0099821389
0.0099830122
0.0099845536
0.0099866317
0.0099891401
0.0099919797
0.0099950786
0.0099983579
0.013256784
0.012253834
0.011068832
0.010982947
0.010898495
0.010884424
0.010879812
0.01088054
0.010880185
0.010876995
0.010870327
0.010860314
0.010847382
0.010832056
0.010814858
0.010796265
0.010776685
0.01075646
0.010735865
0.01071512
0.010694397
0.010673826
0.010653509
0.010633519
0.010613908
0.010594714
0.010575962
0.010557663
0.010539826
0.010522447
0.010505522
0.010489039
0.010472984
0.010457339
0.010442087
0.010427203
0.010412664
0.010398446
0.01038452
0.010370859
0.010357433
0.010344212
0.010331166
0.010318263
0.010305472
0.010292762
0.0102801
0.010267457
0.010254798
0.010242091
0.010229305
0.010216404
0.010203356
0.010190125
0.010176678
0.010162977
0.010148984
0.010134654
0.010119937
0.010104779
0.010089126
0.010072932
0.010056193
0.010039068
0.010022421
0.010009947
0.010000172
0.0099928604
0.0099875899
0.0099840449
0.009981948
0.0099810644
0.0099811868
0.0099821257
0.0099837157
0.0099858444
0.0099884474
0.0099914553
0.0099947823
0.0099982752
0.013128132
0.012085356
0.011162373
0.011110223
0.011045668
0.011027786
0.011014359
0.011002325
0.010988116
0.010971245
0.010951846
0.010930385
0.010907393
0.010883364
0.010858712
0.010833775
0.010808816
0.010784036
0.010759583
0.010735566
0.010712061
0.01068912
0.010666774
0.010645041
0.010623928
0.010603433
0.010583547
0.010564258
0.010545549
0.0105274
0.010509789
0.010492694
0.01047609
0.01045995
0.010444248
0.010428956
0.010414044
0.010399483
0.010385243
0.010371292
0.010357599
0.01034413
0.010330854
0.010317736
0.010304744
0.010291843
0.010278999
0.010266178
0.010253344
0.010240462
0.010227495
0.010214408
0.010201165
0.01018773
0.010174068
0.010160145
0.010145926
0.010131373
0.010116445
0.0101011
0.010085298
0.010069014
0.010052284
0.0100354
0.010019736
0.010007799
0.0099984617
0.0099914488
0.0099863811
0.0099829683
0.0099809591
0.0099801401
0.009980318
0.0099813074
0.0099829439
0.0099851305
0.0099878315
0.0099909984
0.0099945129
0.0099981921
0.013061112
0.01201319
0.011319657
0.011251746
0.011191396
0.011159347
0.011130266
0.011101951
0.011072719
0.01104258
0.011011805
0.010980759
0.010949768
0.010919098
0.010888946
0.010859452
0.010830712
0.010802784
0.010775701
0.010749476
0.010724109
0.010699588
0.010675895
0.010653006
0.010630894
0.01060953
0.010588884
0.010568924
0.01054962
0.01053094
0.010512852
0.010495325
0.010478327
0.010461826
0.010445793
0.010430195
0.010415
0.010400176
0.010385692
0.010371515
0.010357612
0.01034395
0.010330496
0.010317215
0.010304074
0.010291037
0.010278072
0.010265141
0.010252208
0.010239236
0.010226187
0.010213023
0.010199704
0.010186193
0.01017245
0.010158438
0.010144117
0.010129448
0.010114389
0.010098904
0.010082964
0.010066567
0.010049792
0.010033028
0.010017949
0.010006347
0.0099972571
0.0099904017
0.0099854296
0.0099820753
0.0099801084
0.0099793272
0.0099795429
0.0099805721
0.009982263
0.0099845245
0.0099873263
0.0099906177
0.0099942777
0.0099981182
0.013068232
0.01197223
0.011473451
0.011383814
0.011311998
0.011261597
0.011215494
0.011172217
0.011130482
0.011090105
0.011051036
0.0110133
0.010976916
0.010941889
0.010908203
0.01087583
0.010844731
0.010814857
0.01078616
0.010758587
0.010732085
0.010706602
0.010682086
0.010658488
0.010635759
0.010613855
0.01059273
0.010572343
0.010552653
0.010533622
0.010515212
0.010497387
0.010480112
0.010463352
0.010447074
0.010431244
0.01041583
0.010400799
0.010386118
0.010371756
0.010357678
0.010343853
0.010330246
0.010316826
0.010303558
0.010290409
0.010277346
0.010264332
0.010251335
0.010238316
0.010225241
0.01021207
0.010198767
0.010185292
0.010171604
0.010157661
0.010143419
0.010128828
0.010113839
0.010098403
0.01008248
0.010066056
0.010049211
0.010032374
0.010017387
0.010005816
0.0099967199
0.0099898368
0.0099848259
0.0099814365
0.00997945
0.0099786678
0.0099788977
0.0099799536
0.0099816883
0.0099840104
0.0099869074
0.0099903156
0.0099940913
0.0099980536
0.013158642
0.011997691
0.011588984
0.011479852
0.011392733
0.011326489
0.011267552
0.011214007
0.011164233
0.01111758
0.011073606
0.011032021
0.010992598
0.010955153
0.01091953
0.010885592
0.010853218
0.010822298
0.010792734
0.010764436
0.010737323
0.010711319
0.010686355
0.010662368
0.010639298
0.010617089
0.01059569
0.010575053
0.010555133
0.010535887
0.010517275
0.010499258
0.010481798
0.010464861
0.01044841
0.010432413
0.010416836
0.010401645
0.010386808
0.010372292
0.010358066
0.010344096
0.01033035
0.010316797
0.010303403
0.010290136
0.010276963
0.010263851
0.010250769
0.010237681
0.010224556
0.010211359
0.010198056
0.010184614
0.010170995
0.010157162
0.010143074
0.010128686
0.010113952
0.010098827
0.010083273
0.01006727
0.010050851
0.010034263
0.010018612
0.010006651
0.0099971917
0.0099900219
0.0099847868
0.0099812301
0.0099791232
0.0099782626
0.0099783975
0.0099794786
0.0099812309
0.0099836172
0.0099865893
0.009990076
0.0099939369
0.0099979959
0.013282155
0.01205377
0.011649777
0.011528304
0.01143108
0.011356546
0.011291552
0.011233529
0.011180437
0.011131298
0.011085441
0.011042411
0.011001866
0.010963539
0.010927212
0.010892706
0.010859864
0.010828553
0.010798658
0.010770073
0.010742707
0.010716477
0.010691307
0.010667128
0.010643878
0.010621498
0.010599934
0.010579137
0.010559059
0.010539658
0.01052089
0.010502718
0.010485104
0.010468011
0.010451404
0.01043525
0.010419514
0.010404164
0.010389167
0.01037449
0.010360103
0.010345971
0.010332063
0.010318346
0.010304788
0.010291357
0.01027802
0.010264745
0.010251499
0.010238249
0.010224963
0.010211609
0.010198154
0.010184564
0.010170805
0.010156841
0.010142632
0.010128132
0.010113296
0.010098077
0.010082435
0.010066352
0.010049882
0.010033355
0.010018224
0.010006463
0.0099971233
0.0099900033
0.0099848029
0.0099812664
0.0099791095
0.0099781058
0.0099778774
0.0099792174
0.0099809187
0.0099833504
0.009986347
0.0099898858
0.0099938129
0.0099979488
67.908505
367.89174
123.94207
14.916256
0.41053063
0.021277199
0.019923426
0.019616992
0.019360039
0.018313087
0.017003711
0.015838095
0.014950309
0.014385248
0.013982829
0.013604437
0.013237862
0.01291176
0.01263651
0.01240575
0.012209679
0.012040649
0.011893455
0.011764349
0.011650356
0.011549025
0.011458383
0.011376866
0.011303246
0.011236554
0.011175987
0.011120843
0.011070512
0.011024483
0.010982349
0.010943785
0.010908508
0.010876265
0.01084682
0.010819961
0.010795502
0.010773259
0.01075306
0.010734746
0.010718177
0.010703218
0.010689738
0.010677613