/*--------------------------------*- C++ -*----------------------------------*\
  =========                 |
  \\      /  F ield         | OpenFOAM: The Open Source CFD Toolbox
   \\    /   O peration     | Website:  https://openfoam.org
    \\  /    A nd           | Version:  12
     \\/     M anipulation  |
\*---------------------------------------------------------------------------*/
FoamFile
{
    format      ascii;
    class       volScalarField;
    location    "0.074";
    object      p;
}
// * * * * * * * * * * * * * * * * * * * * * * * * * * * * * * * * * * * * * //

dimensions      [1 -1 -2 0 0 0 0];

internalField   nonuniform List<scalar> 
16000
(
89625.833
89750.82
89762.768
89895.96
89922.027
90048.248
90098.386
90213.993
90287.308
90397.305
90488.67
90598.619
90703.861
90818.111
90934.251
91055.772
91181.314
91311.468
91446.113
91585.333
91729.134
91877.52
92030.47
92187.94
92349.862
92516.139
92686.646
92861.226
93039.69
93221.814
93407.341
93595.98
93787.405
93981.258
94177.15
94374.664
94573.355
94772.76
94972.395
95171.764
95370.365
95567.693
95763.244
95956.526
96147.059
96334.385
96518.071
96697.713
96872.943
97043.43
97208.883
97369.049
97523.722
97672.739
97815.98
97953.373
98084.884
98210.52
98330.324
98444.372
98552.767
98655.635
98753.123
98845.403
98932.663
99015.111
99092.961
99166.434
99235.751
99301.126
99362.732
99420.793
99475.636
99527.338
99576.281
99621.47
99682.143
99666.245
99848.558
99647.662
89258.2
89399.96
89409.304
89554.557
89582.283
89719.28
89771.886
89898.663
89975.788
90095.822
90193.504
90312.307
90425.76
90548.764
90674.038
90804.912
90940.205
91080.396
91225.403
91375.279
91530.019
91689.599
91853.972
92023.061
92196.757
92374.922
92557.384
92743.935
92934.332
93128.293
93325.503
93525.608
93728.219
93932.915
94139.245
94346.729
94554.866
94763.138
94971.013
95177.955
95383.426
95586.897
95787.848
95985.783
96180.227
96370.737
96556.908
96738.37
96914.797
97085.907
97251.461
97411.268
97565.181
97713.098
97854.963
97990.761
98120.515
98244.282
98362.153
98474.243
98580.69
98681.646
98777.28
98867.776
98953.333
99034.162
99110.484
99182.522
99250.504
99314.644
99375.136
99432.236
99486.205
99536.958
99584.741
99633.646
99677.984
99695.116
99824.012
99677.588
88921.11
89078.166
89087.368
89245.731
89273.512
89424.078
89478.307
89617.247
89699.164
89829.558
89934.906
90063.158
90186.05
90318.786
90454.36
90595.757
90742.002
90893.447
91050.029
91211.759
91378.602
91550.5
91727.366
91909.08
92095.488
92286.4
92481.589
92680.789
92883.693
93089.954
93299.185
93510.962
93724.823
93940.276
94156.798
94373.843
94590.848
94807.24
95022.439
95235.871
95446.972
95655.196
95860.021
96060.958
96257.556
96449.405
96636.14
96817.447
96993.06
97162.761
97326.385
97483.813
97634.973
97779.84
97918.428
98050.79
98177.014
98297.214
98411.531
98520.123
98623.164
98720.833
98813.319
98900.821
98983.545
99061.707
99135.529
99205.237
99271.058
99333.201
99391.881
99447.374
99499.834
99549.11
99596.212
99643.753
99682.014
99715.762
99812.277
99698.902
88617.781
88785.421
88795.752
88969.196
88996.467
89163.083
89219.504
89372.57
89460.221
89602.508
89716.989
89856.043
89989.986
90133.908
90281.291
90434.675
90593.286
90757.358
90926.829
91101.672
91281.823
91467.188
91657.636
91853.002
92053.078
92257.616
92466.321
92678.856
92894.837
93113.835
93335.379
93558.96
93784.03
94010.015
94236.312
94462.304
94687.363
94910.862
95132.178
95350.71
95565.876
95777.131
95983.969
96185.927
96382.598
96573.625
96758.711
96937.613
97110.145
97276.178
97435.633
97588.48
97734.738
97874.465
98007.758
98134.746
98255.583
98370.446
98479.529
98583.034
98681.168
98774.14
98862.156
98945.429
99024.171
99098.601
99168.941
99235.415
99298.242
99357.627
99413.796
99467.013
99517.335
99564.725
99610.55
99655.435
99691.242
99731.259
99808.195
99713.933
88351.499
88533.851
88541.211
88733.145
88759.322
88944.17
89002.752
89171.773
89266.445
89422.052
89547.462
89698.535
89845.06
90001.425
90161.867
90328.438
90500.572
90678.414
90861.903
91050.985
91245.56
91445.489
91650.589
91860.632
92075.337
92294.375
92517.366
92743.875
92973.422
93205.475
93439.461
93674.769
93910.753
94146.746
94382.062
94616.009
94847.901
95077.063
95302.845
95524.631
95741.847
95953.97
96160.532
96361.129
96555.421
96743.132
96924.054
97098.044
97265.017
97424.949
97577.864
97723.838
97862.987
97995.462
98121.446
98241.147
98354.79
98462.612
98564.857
98661.77
98753.589
98840.546
98922.865
99000.766
99074.468
99144.188
99210.145
99272.558
99331.633
99387.569
99440.591
99490.919
99538.544
99583.613
99627.467
99669.289
99703.348
99745.693
99808.334
99726.951
88127.493
88327.364
88332.367
88545.233
88570.304
88775.323
88836.195
89022.867
89125.799
89295.515
89433.11
89596.737
89756.772
89926.414
90100.858
90281.678
90468.483
90661.335
90860.149
91064.817
91275.175
91491.012
91712.062
91938.001
92168.45
92402.967
92641.057
92882.166
93125.688
93370.972
93617.322
93864.01
94110.285
94355.383
94598.535
94838.985
95075.999
95308.875
95536.957
95759.645
95976.399
96186.753
96390.311
96586.758
96775.855
96957.437
97131.414
97297.764
97456.527
97607.798
97751.722
97888.484
98018.305
98141.434
98258.139
98368.705
98473.424
98572.59
98666.491
98755.407
98839.605
98919.333
98994.826
99066.311
99134.006
99198.126
99258.883
99316.483
99371.118
99422.976
99472.27
99519.156
99563.588
99605.89
99647.176
99685.662
99717.897
99760.559
99811.326
99739.487
87946.202
88166.679
88168.941
88406.146
88430.274
88659.172
88723.267
88929.159
89040.37
89223.541
89374.214
89550.991
89725.845
89910.245
90100.351
90297.238
90500.597
90710.386
90926.45
91148.592
91376.556
91610.024
91848.615
92091.881
92339.309
92590.321
92844.275
93100.472
93358.162
93616.549
93874.806
94132.081
94387.516
94640.254
94889.462
95134.336
95374.121
95608.122
95835.712
96056.344
96269.559
96474.984
96672.339
96861.436
97042.172
97214.527
97378.554
97534.376
97682.173
97822.173
97954.646
98079.893
98198.238
98310.024
98415.599
98515.318
98609.53
98698.577
98782.783
98862.454
98937.876
99009.308
99076.992
99141.151
99202.002
99259.752
99314.6
99366.738
99416.339
99463.573
99508.628
99551.586
99592.397
99631.526
99669.739
99704.618
99734.873
99776.614
99816.468
99752.688
87802.002
88046.699
88044.758
88311.216
88332.339
88587.717
88654.892
88879.63
89002.3
89201.321
89368.687
89561.404
89754.059
89956.098
90164.622
90380.29
90602.825
90832.083
91067.816
91309.721
91557.417
91810.455
92068.303
92330.359
92595.944
92864.309
93134.639
93406.066
93677.673
93948.51
94217.612
94484.008
94746.744
95004.896
95257.59
95504.015
95743.438
95975.215
96198.803
96413.761
96619.757
96816.567
97004.072
97182.252
97351.177
97510.999
97661.939
97804.281
97938.353
98064.521
98183.179
98294.738
98399.618
98498.243
98591.031
98678.392
98760.721
98838.393
98911.755
98981.131
99046.812
99109.062
99168.119
99224.205
99277.523
99328.271
99376.631
99422.774
99466.848
99509.006
99549.392
99588.014
99624.849
99660.454
99695.156
99726.206
99754.363
99794.198
99823.996
99767.235
87693.102
87965.892
87959.569
88262.035
88277.458
88561.265
88633.642
88880.089
89019.332
89236.699
89424.391
89635.945
89849.442
90072.194
90302.116
90539.521
90784.1
91035.584
91293.596
91557.685
91827.31
92101.841
92380.562
92662.669
92947.28
93233.441
93520.136
93806.302
94090.847
94372.666
94650.665
94923.774
95190.977
95451.323
95703.948
95948.091
96183.103
96408.459
96623.763
96828.747
97023.268
97207.306
97380.949
97544.384
97697.885
97841.797
97976.522
98102.507
98220.228
98330.183
98432.877
98528.816
98618.499
98702.413
98781.029
98854.795
98924.131
98989.43
99051.049
99109.313
99164.512
99216.903
99266.716
99314.161
99359.428
99402.698
99444.133
99483.875
99522.05
99558.784
99594.164
99628.135
99660.728
99692.519
99723.332
99750.403
99776.326
99813.501
99834.434
99783.912
87621.715
87927.286
87917.658
88257.321
88271.549
88587.254
88670.819
88942.261
89101.218
89338.912
89550.535
89784.104
90021.691
90268.535
90523.136
90785.5
91055.216
91331.845
91614.833
91903.531
92197.181
92494.924
92795.8
93098.758
93402.67
93706.341
94008.53
94307.975
94603.41
94893.594
95177.337
95453.517
95721.112
95979.215
96227.049
96463.986
96689.548
96903.413
97105.411
97295.521
97473.853
97640.639
97796.215
97941.004
98075.499
98200.243
98315.815
98422.816
98521.855
98613.538
98698.461
98777.2
98850.31
98918.318
98981.721
99040.983
99096.533
99148.762
99198.021
99244.622
99288.845
99330.93
99371.093
99409.527
99446.407
99481.888
99516.111
99549.186
99581.215
99612.288
99642.428
99671.539
99699.721
99727.472
99754.113
99777.178
99800.666
99834.354
99847.72
99803.411
87594.717
87939.211
87925.671
88305.423
88323.446
88675.211
88773.659
89072.007
89256.344
89517.239
89757.01
90016.52
90281.922
90556.649
90839.558
91130.372
91428.507
91733.298
92043.949
92359.537
92679.019
93001.234
93324.919
93648.722
93971.23
94290.988
94606.527
94916.396
95219.191
95513.585
95798.358
96072.423
96334.848
96584.873
96821.924
97045.613
97255.74
97452.283
97635.383
97805.331
97962.542
98107.536
98240.917
98363.349
98475.536
98578.205
98672.091
98757.919
98836.401
98908.219
98974.026
99034.439
99090.037
99141.36
99188.905
99233.131
99274.451
99313.239
99349.822
99384.492
99417.503
99449.076
99479.404
99508.661
99536.999
99564.552
99591.428
99617.712
99643.473
99668.761
99693.535
99717.686
99741.376
99764.924
99787.236
99806.428
99827.397
99856.703
99863.727
99825.842
87620.943
88011.77
87994.298
88421.563
88444.493
88835.525
88953.267
89280.383
89495.773
89783.159
90055.413
90345.312
90642.703
90949.532
91264.771
91587.829
91917.848
92253.845
92594.676
92939.051
93285.551
93632.638
93978.688
94322.013
94660.899
94993.636
95318.559
95634.083
95938.744
96231.232
96510.42
96775.39
97025.449
97260.132
97479.206
97682.654
97870.664
98043.602
98201.987
98346.466
98477.782
98596.747
98704.221
98801.084
98888.222
98966.506
99036.782
99099.86
99156.507
99207.446
99253.347
99294.831
99332.47
99366.785
99398.253
99427.301
99454.31
99479.618
99503.518
99526.268
99548.091
99569.181
99589.706
99609.815
99629.638
99649.283
99668.828
99688.329
99707.824
99727.314
99746.703
99765.897
99785.084
99804.339
99822.292
99837.804
99856.171
99880.7
99882.552
99850.215
87701.561
88147.523
88126.703
88608.162
88639.339
89073.424
89217.932
89576.392
89829.893
90148.504
90458.342
90784.037
91118.414
91462.234
91814.34
92173.729
92539.13
92909.108
93282.051
93656.2
94029.675
94400.507
94766.678
95126.158
95476.957
95817.169
96145.023
96458.929
96757.519
97039.678
97304.568
97551.638
97780.621
97991.52
98184.589
98360.299
98519.309
98662.427
98790.576
98904.756
99006.017
99095.43
99174.059
99242.951
99303.112
99355.5
99401.017
99440.505
99474.738
99504.432
99530.235
99552.739
99572.477
99589.928
99605.52
99619.633
99632.6
99644.708
99656.207
99667.314
99678.215
99689.071
99700.023
99711.197
99722.695
99734.6
99746.963
99759.811
99773.15
99786.928
99801.013
99815.338
99830.075
99845.028
99858.714
99870.755
99886.306
99905.75
99903.607
99876.238
87841.569
88353.002
88329.421
88872.433
88918.169
89399.255
89579.741
89972.903
90272.244
90628.36
90981.809
91349.721
91726.967
92113.255
92507.027
92906.698
93310.424
93716.178
94121.771
94524.89
94923.141
95314.096
95695.355
96064.606
96419.687
96758.655
97079.837
97381.875
97663.76
97924.84
98164.821
98383.749
98581.977
98760.125
98919.039
99059.742
99183.387
99291.212
99384.505
99464.568
99532.686
99590.111
99638.038
99677.599
99709.848
99735.762
99756.237
99772.087
99784.05
99792.79
99798.9
99802.908
99805.286
99806.447
99806.755
99806.526
99806.033
99805.506
99805.145
99805.118
99805.575
99806.64
99808.427
99811.033
99814.537
99818.995
99824.434
99830.859
99838.239
99846.477
99855.419
99865.032
99875.424
99886.143
99895.747
99904.532
99917.077
99931.479
99926.185
99903.147
88047.661
88637.418
88612.918
89225.913
89293.348
89825.488
90053.087
90486.105
90840.216
91242.248
91646.739
92064.32
92490.903
92925.151
93364.85
93807.681
94251.076
94692.304
95128.503
95556.745
95974.106
96377.749
96765.013
97133.498
97481.144
97806.292
98107.726
98384.687
98636.871
98864.398
99067.773
99247.829
99405.668
99542.596
99660.065
99759.618
99842.84
99911.316
99966.598
100010.18
100043.48
100067.83
100084.46
100094.49
100098.95
100098.77
100094.78
100087.71
100078.23
100066.92
100054.27
100040.75
100026.72
100012.54
99998.485
99984.8
99971.691
99959.328
99947.857
99937.399
99928.062
99919.937
99913.105
99907.637
99903.588
99900.989
99899.848
99900.149
99901.831
99904.76
99908.782
99913.881
99920.064
99926.671
99932.427
99938.151
99947.588
99956.974
99949.176
99929.885
88326.191
89009.541
88986.945
89679.42
89779.707
90368.725
90657.986
91139.339
91558.686
92016.853
92480.636
92955.378
93437.198
93923.684
94411.768
94898.221
95379.595
95852.32
96312.791
96757.484
97183.08
97586.583
97965.435
98317.6
98641.614
98936.611
99202.304
99438.95
99647.28
99828.43
99983.852
100115.23
100224.41
100313.33
100383.93
100438.15
100477.87
100504.87
100520.81
100527.27
100525.65
100517.26
100503.26
100484.69
100462.49
100437.48
100410.36
100381.77
100352.26
100322.29
100292.27
100262.54
100233.41
100205.11
100177.86
100151.83
100127.14
100103.91
100082.24
100062.19
100043.84
100027.23
100012.43
99999.478
99988.397
99979.2
99971.879
99966.401
99962.68
99960.564
99959.915
99960.713
99962.829
99965.461
99967.604
99970.43
99976.777
99981.317
99971.476
99955.772
88684.561
89479.709
89464.455
90251.365
90401.407
91057.307
91425.258
91965.719
92460.855
92985.452
93516.158
94054.245
94595.34
95135.768
95671.293
96197.513
96709.914
97204.049
97675.713
98121.12
98537.062
98921.021
99271.247
99586.772
99867.386
100113.57
100326.4
100507.43
100658.61
100782.14
100880.36
100955.7
101010.58
101047.36
101068.3
101075.52
101070.99
101056.52
101033.73
101004.12
100968.98
100929.49
100886.68
100841.43
100794.53
100746.65
100698.36
100650.15
100602.44
100555.59
100509.88
100465.56
100422.83
100381.85
100342.74
100305.59
100270.49
100237.48
100206.6
100177.89
100151.38
100127.08
100105.03
100085.23
100067.69
100052.4
100039.33
100028.44
100019.63
100012.74
100007.67
100004.36
100002.53
100001.32
100000.07
100000.07
100003.15
100003.72
99992.425
99978.593
89142.149
90074.998
90078.447
90979.602
91196.915
91929.897
92393.747
93004.39
93584.765
94185.253
94789.221
95394.539
95995.502
96586.685
97162.305
97716.644
98244.283
98740.362
99200.809
99622.5
100003.35
100342.32
100639.37
100895.35
101111.85
101291.05
101435.55
101548.23
101632.12
101690.26
101725.66
101741.2
101739.58
101723.33
101694.75
101655.91
101608.7
101554.77
101495.58
101432.43
101366.43
101298.55
101229.61
101160.32
101091.29
101023.01
100955.9
100890.31
100826.53
100764.78
100705.25
100648.08
100593.39
100541.23
100491.67
100444.74
100400.43
100358.76
100319.73
100283.32
100249.53
100218.35
100189.79
100163.81
100140.41
100119.55
100101.19
100085.28
100071.69
100060.31
100051.03
100043.75
100038.08
100033.16
100028.65
100025.91
100025.65
100022.93
100010.37
99996.412
89731.322
90839.309
90871.838
91905.764
92208.856
93026.654
93604.957
94299.172
94974.21
95658.949
96339.662
97010.731
97664.301
98292.93
98889.48
99447.613
99962.098
100429.04
100845.97
101211.85
101526.99
101792.81
102011.66
102186.62
102321.2
102419.21
102484.52
102521
102532.37
102522.14
102493.54
102449.54
102392.82
102325.77
102250.5
102168.85
102082.45
101992.69
101900.76
101807.7
101714.36
101621.48
101529.67
101439.42
101351.16
101265.21
101181.84
101101.26
101023.62
100949.05
100877.62
100809.39
100744.38
100682.58
100623.98
100568.56
100516.26
100467.04
100420.87
100377.72
100337.53
100300.28
100265.93
100234.45
100205.78
100179.89
100156.71
100136.17
100118.15
100102.54
100089.25
100078.12
100068.67
100060.18
100052.58
100047.09
100043.74
100038.04
100023.85
100009.47
90481.53
91800.612
91876.664
93061.798
93484.408
94398.929
95113.041
95907.241
96684.312
97455.477
98206.497
98928.235
99610.93
100246.2
100827.23
101349.12
101809.02
102206.04
102541.05
102816.42
103035.66
103203.08
103323.48
103401.89
103443.33
103452.68
103434.54
103393.15
103332.39
103255.73
103166.25
103066.65
102959.3
102846.22
102729.16
102609.62
102488.86
102367.93
102247.72
102128.97
102012.28
101898.14
101786.93
101678.96
101574.47
101473.64
101376.58
101283.38
101194.09
101108.72
101027.25
100949.68
100875.93
100805.95
100739.66
100676.98
100617.83
100562.12
100509.8
100460.8
100415.04
100372.47
100333.04
100296.69
100263.34
100232.94
100205.4
100180.64
100158.54
100139
100121.91
100107.06
100093.97
100082.07
100071.53
100063.28
100056.65
100047.52
100032.61
100018.25
91421.726
93004.59
93160.145
94514.191
95101.348
96128.472
96995.267
97899.775
98773.336
99614.104
100406.34
101139.19
101803.53
102393.22
102904.99
103338.36
103695.22
103979.41
104196.15
104351.54
104452.17
104504.7
104515.63
104491.13
104436.86
104357.96
104259.01
104144.03
104016.55
103879.57
103735.69
103587.11
103435.69
103282.99
103130.29
102978.68
102829.03
102682.05
102538.32
102398.28
102262.3
102130.63
102003.47
101880.94
101763.12
101650.06
101541.75
101438.17
101339.27
101244.98
101155.21
101069.87
100988.85
100912.02
100839.27
100770.48
100705.52
100644.3
100586.72
100532.69
100482.12
100434.94
100391.06
100350.42
100312.93
100278.52
100247.08
100218.52
100192.73
100169.6
100148.99
100130.64
100114.16
100099.16
100085.83
100074.71
100065.01
100053.22
100037.85
100024.08
92634.361
94550.595
94830.027
96373.562
97172.314
98320.673
99335.426
100335.22
101268.92
102127.99
102898.85
103573.85
104149.39
104625.83
105006.83
105298.49
105508.6
105645.88
105719.37
105737.96
105710.08
105643.48
105545.13
105421.19
105277.03
105117.28
104945.87
104766.14
104580.86
104392.37
104202.6
104013.13
103825.24
103639.98
103458.2
103280.55
103107.55
102939.59
102776.96
102619.86
102468.43
102322.74
102182.8
102048.61
101920.11
101797.23
101679.87
101567.92
101461.24
101359.71
101263.18
101171.48
101084.48
101001.99
100923.88
100849.97
100780.14
100714.26
100652.21
100593.88
100539.18
100487.99
100440.25
100395.85
100354.72
100316.75
100281.85
100249.92
100220.85
100194.5
100170.72
100149.24
100129.78
100112.13
100096.38
100082.68
100070.19
100056.74
100042.14
100029.37
94250.36
96578.519
97036.172
98767.644
99813.025
101068.25
102179.41
103208.95
104119.49
104904.87
105560.89
106089.65
106497.68
106794.72
106992.46
107103.42
107140.12
107114.45
107037.32
106918.49
106766.48
106588.62
106391.13
106179.23
105957.27
105728.81
105496.81
105263.64
105031.25
104801.19
104574.68
104352.69
104135.99
103925.14
103720.56
103522.58
103331.37
103147.08
102969.75
102799.38
102635.92
102479.3
102329.39
102186.08
102049.2
101918.59
101794.07
101675.47
101562.6
101455.27
101353.29
101256.45
101164.56
101077.44
100994.89
100916.74
100842.84
100773.03
100707.2
100645.21
100586.95
100532.31
100481.2
100433.52
100389.17
100348.08
100310.13
100275.24
100243.29
100214.12
100187.57
100163.48
100141.6
100121.85
100104.2
100088.47
100074.08
100060.28
100047.23
100036.25
96458.879
99248.801
99946.582
101817.75
103072.87
104375.06
105467.41
106400.6
107161.71
107756.46
108195.76
108495.23
108672.59
108746.06
108733.13
108649.8
108510.24
108326.67
108109.44
107867.15
107606.89
107334.45
107054.49
106770.74
106486.21
106203.24
105923.69
105649.01
105380.28
105118.36
104863.85
104617.19
104378.69
104148.51
103926.76
103713.46
103508.54
103311.94
103123.51
102943.1
102770.52
102605.58
102448.06
102297.75
102154.41
102017.81
101887.73
101763.93
101646.17
101534.24
101427.9
101326.92
101231.07
101140.15
101053.96
100972.29
100894.99
100821.89
100752.86
100687.74
100626.43
100568.81
100514.78
100464.23
100417.08
100373.24
100332.64
100295.18
100260.75
100229.21
100200.4
100174.22
100150.56
100129.35
100110.36
100093.26
100078.05
100064.98
100054.32
100045.69
99511.24
102675.58
103678.83
105615.79
106912.57
108069.85
108978.47
109663.02
110141.03
110438.88
110584.27
110604.4
110524.12
110365.19
110146.03
109881.9
109585.18
109265.83
108931.72
108589.06
108242.69
107896.35
107552.92
107214.61
106883.05
106559.47
106244.75
105939.53
105644.2
105359.04
105084.15
104819.57
104565.23
104321.03
104086.8
103862.34
103647.43
103441.81
103245.23
103057.41
102878.08
102706.94
102543.71
102388.11
102239.86
102098.69
101964.31
101836.46
101714.88
101599.31
101489.49
101385.18
101286.13
101192.11
101102.92
101018.34
100938.19
100862.32
100790.57
100722.79
100658.86
100598.66
100542.09
100489.05
100439.46
100393.25
100350.35
100310.7
100274.19
100240.7
100210.12
100182.43
100157.6
100135.5
100115.74
100098.14
100083.26
100071.78
100063.89
100057.75
103665.16
107042.42
108247.55
109924.91
111041.24
111865.24
112395.66
112686.74
112782.67
112726.15
112553.26
112293.98
111972.3
111607.07
111212.89
110800.92
110379.62
109955.33
109532.79
109115.49
108705.98
108306.1
107917.12
107539.92
107175.06
106822.84
106483.41
106156.77
105842.81
105541.35
105252.17
104974.99
104709.5
104455.38
104212.28
103979.86
103757.76
103545.62
103343.1
103149.85
102965.5
102789.73
102622.2
102462.58
102310.55
102165.81
102028.07
101897.01
101772.37
101653.86
101541.21
101434.16
101332.44
101235.84
101144.11
101057.05
100974.48
100896.22
100822.12
100752.02
100685.8
100623.33
100564.53
100509.3
100457.57
100409.3
100364.43
100322.93
100284.7
100249.66
100217.77
100189.09
100163.62
100141.15
100121.23
100103.92
100090.18
100080.71
100075.56
100071.97
108851.11
112192.64
113302.6
114421.63
115029.32
115312.37
115334.66
115168.92
114868.72
114476.1
114022.27
113530.24
113016.69
112493.62
111969.59
111450.61
110940.89
110443.29
109959.72
109491.4
109039.04
108603
108183.35
107780.02
107392.76
107021.27
106665.16
106324.01
105997.36
105684.74
105385.7
105099.74
104826.41
104565.24
104315.76
104077.55
103850.15
103633.15
103426.13
103228.7
103040.45
102861.02
102690.04
102527.15
102372.03
102224.33
102083.74
101949.96
101822.69
101701.63
101586.5
101477.03
101372.96
101274.04
101180.05
101090.77
101006.01
100925.6
100849.36
100777.16
100708.85
100644.34
100583.51
100526.3
100472.67
100422.58
100376
100332.91
100293.26
100257.02
100224.21
100194.93
100169.2
100146.76
100127.23
100110.81
100098.52
100090.98
100088.28
100087.06
115020
117514.15
118120.8
118401.25
118309.56
117985.49
117507.68
116936.15
116311.14
115659.87
115000.44
114344.74
113700.48
113072.53
112463.89
111876.27
111310.5
110766.85
110245.21
109745.21
109266.33
108807.93
108369.33
107949.82
107548.66
107165.15
106798.58
106448.25
106113.51
105793.72
105488.25
105196.52
104917.96
104652.02
104398.17
104155.91
103924.77
103704.27
103493.97
103293.43
103102.25
102920.03
102746.38
102580.94
102423.35
102273.28
102130.4
101994.39
101864.94
101741.77
101624.57
101513.08
101407.02
101306.15
101210.24
101119.08
101032.46
100950.21
100872.16
100798.17
100728.09
100661.83
100599.29
100540.41
100485.17
100433.56
100385.57
100341.19
100300.43
100263.3
100229.88
100200.29
100174.55
100152.4
100133.39
100117.75
100106.91
100101.44
100100.8
100101.42
121593.62
122032.68
121818.3
121276.05
120553.23
119738.94
118888.76
118034.13
117193.42
116376.74
115589.46
114834.08
114111.42
113421.28
112762.87
112135.09
111536.68
110966.29
110422.58
109904.24
109410
108938.67
108489.09
108060.19
107650.95
107260.44
106887.75
106532.05
106192.55
105868.5
105559.21
105264.02
104982.29
104713.44
104456.91
104212.16
103978.67
103755.96
103543.57
103341.04
103147.96
102963.91
102788.5
102621.35
102462.11
102310.43
102165.99
102028.45
101897.51
101772.86
101654.22
101541.31
101433.85
101331.61
101234.33
101141.82
101053.86
100970.28
100890.91
100815.59
100744.2
100676.62
100612.77
100552.62
100496.12
100443.3
100394.16
100348.74
100307.07
100269.21
100235.29
100205.41
100179.57
100157.54
100138.97
100124.21
100114.49
100110.21
100110.81
100112.88
125434.73
124816.11
123910.59
122869.71
121796.93
120735.87
119709
118725.51
117788.83
116899.2
116055.32
115255.19
114496.46
113776.71
113093.58
112444.8
111828.28
111242.03
110684.23
110153.23
109647.46
109165.52
108706.09
108267.98
107850.07
107451.33
107070.8
106707.6
106360.91
106029.93
105713.96
105412.31
105124.33
104849.43
104587.02
104336.57
104097.56
103869.48
103651.89
103444.31
103246.32
103057.51
102877.49
102705.87
102542.29
102386.41
102237.9
102096.42
101961.66
101833.33
101711.12
101594.76
101483.96
101378.48
101278.07
101182.53
101091.63
101005.21
100923.07
100845.08
100771.08
100700.98
100634.69
100572.17
100513.41
100458.43
100407.27
100359.98
100316.62
100277.3
100242.14
100211.26
100184.68
100162.09
100143.26
100128.84
100119.21
100115.41
100116.65
100119.4
103706.13
103678.82
103725.78
103773.06
103808.05
103817.31
103799.47
103769.52
103733.59
103688.34
103629.51
103557.65
103476.52
103390.95
103301.76
103209.03
103113.06
103014.32
102913.23
102810.16
102705.49
102599.53
102492.62
102385.04
102277.06
102168.94
102060.9
101953.16
101845.93
101739.4
101633.75
101529.15
101425.77
101323.75
101223.26
101124.44
101027.45
100932.41
100839.47
100748.78
100660.47
100574.67
100491.52
100411.16
100333.72
100259.33
100188.12
100120.22
100055.73
99994.788
99937.488
99883.932
99834.205
99788.383
99746.528
99708.68
99674.865
99645.084
99619.318
99597.513
99579.59
99565.431
99554.904
99547.787
99544.018
99543.048
99545.519
99549.36
99558.559
99564.575
99584.022
99587.571
99625.429
99612.307
99685.05
99636.936
99763.709
99662.427
99857.647
99657.657
103045.04
103039.02
103053.69
103070.81
103069.82
103062.76
103052.45
103035.57
103007.15
102972.96
102931.79
102885.47
102833.22
102776.21
102714.44
102648.6
102578.92
102505.76
102429.41
102350.2
102268.42
102184.38
102098.36
102010.63
101921.48
101831.16
101739.93
101648.05
101555.75
101463.28
101370.87
101278.72
101187.07
101096.11
101006.06
100917.11
100829.46
100743.29
100658.79
100576.14
100495.52
100417.09
100341.04
100267.51
100196.68
100128.7
100063.71
100001.86
99943.292
99888.126
99836.48
99788.459
99744.155
99703.644
99666.987
99634.223
99605.369
99580.421
99559.349
99542.091
99528.554
99518.611
99512.118
99508.856
99508.733
99511.264
99516.961
99524.043
99535.961
99545.221
99566.632
99573.34
99612.202
99603.016
99675.7
99630.468
99758.077
99655.425
99857.037
99651.077
102621.67
102606.91
102579.97
102551.69
102524.32
102498.88
102468.03
102437.75
102403.83
102369.33
102330.76
102290.79
102247.15
102201.38
102152.48
102101.01
102046.78
101989.97
101930.6
101868.8
101804.7
101738.42
101670.11
101599.93
101528.06
101454.68
101379.97
101304.13
101227.36
101149.87
101071.87
100993.57
100915.19
100836.94
100759.04
100681.7
100605.15
100529.59
100455.23
100382.28
100310.95
100241.44
100173.94
100108.65
100045.74
99985.41
99927.819
99873.134
99821.506
99773.079
99727.98
99686.324
99648.209
99613.718
99582.91
99555.825
99532.476
99512.854
99496.922
99484.609
99475.814
99470.404
99468.224
99469.06
99472.801
99479.01
99488.114
99498.54
99513.363
99525.859
99549.477
99559.121
99599.363
99593.554
99666.64
99624.023
99752.581
99649.029
99855.981
99645.075
102042.4
102020.31
101992.03
101960.99
101930.22
101902.8
101871.11
101842.25
101809.24
101778.19
101743.6
101709.8
101673.15
101636.16
101596.99
101556.54
101514.26
101470.32
101424.6
101377.09
101327.78
101276.7
101223.86
101169.33
101113.18
101055.49
100996.37
100935.95
100874.37
100811.77
100748.33
100684.23
100619.64
100554.76
100489.81
100424.98
100360.49
100296.56
100233.4
100171.24
100110.29
100050.77
99992.89
99936.869
99882.908
99831.206
99781.952
99735.326
99691.496
99650.618
99612.83
99578.257
99547.003
99519.155
99494.774
99473.901
99456.545
99442.693
99432.301
99425.294
99421.563
99420.971
99423.356
99428.511
99436.311
99446.364
99459.027
99472.904
99490.779
99506.528
99532.514
99544.979
99586.84
99584.089
99657.873
99617.643
99747.22
99643.143
99854.632
99639.602
101328.92
101312.86
101297.05
101278.35
101257.85
101241.59
101219.53
101201.82
101178.76
101159.01
101134.78
101112.45
101086.86
101061.83
101034.66
101006.71
100977.15
100946.3
100913.94
100880.07
100844.66
100807.68
100769.13
100729.03
100687.41
100644.3
100599.77
100553.89
100506.77
100458.49
100409.2
100359.02
100308.12
100256.65
100204.8
100152.75
100100.7
100048.86
99997.446
99946.666
99896.746
99847.906
99800.368
99754.352
99710.072
99667.738
99627.55
99589.701
99554.366
99521.71
99491.88
99465.006
99441.198
99420.543
99403.104
99388.918
99377.994
99370.312
99365.825
99364.451
99366.078
99370.562
99377.743
99387.416
99399.449
99413.494
99429.849
99447.276
99468.309
99487.333
99515.796
99531.06
99574.63
99574.787
99649.386
99611.407
99742.02
99637.696
99853.103
99634.621
100620.05
100613.64
100609.07
100603.48
100594
100589.64
100578.05
100572.32
100559.76
100551.8
100538.18
100527.45
100512.75
100499.29
100483.46
100467.19
100449.32
100430.36
100410.06
100388.44
100365.49
100341.16
100315.45
100288.36
100259.88
100230.04
100198.85
100166.38
100132.66
100097.78
100061.83
100024.9
99987.127
99948.637
99909.582
99870.128
99830.45
99790.738
99751.188
99712.006
99673.404
99635.599
99598.808
99563.249
99529.139
99496.688
99466.1
99437.567
99411.27
99387.374
99366.03
99347.368
99331.497
99318.504
99308.449
99301.365
99297.257
99296.1
99297.839
99302.388
99309.631
99319.422
99331.598
99345.964
99362.385
99380.55
99400.707
99421.77
99446.035
99468.34
99499.367
99517.47
99562.737
99565.716
99641.181
99605.37
99737
99632.637
99851.488
99630.074
99976.651
99976.681
99977.554
99980.426
99978.127
99982.44
99978.121
99981.387
99976.389
99977.593
99972.369
99971.495
99965.838
99961.702
99954.9
99948.181
99940.02
99931.106
99921.106
99910.054
99897.904
99884.612
99870.152
99854.504
99837.655
99819.603
99800.356
99779.933
99758.37
99735.713
99712.025
99687.384
99661.883
99635.631
99608.753
99581.388
99553.689
99525.822
99497.964
99470.302
99443.031
99416.353
99390.474
99365.602
99341.942
99319.699
99299.068
99280.235
99263.377
99248.654
99236.21
99226.171
99218.642
99213.701
99211.403
99211.772
99214.808
99220.478
99228.719
99239.441
99252.522
99267.817
99285.161
99304.37
99325.306
99347.697
99371.744
99396.51
99424.05
99449.633
99483.291
99504.297
99551.191
99556.936
99633.268
99599.583
99732.162
99627.936
99849.853
99625.909
99398.559
99403.607
99407.588
99415.677
99417.135
99427.214