/*--------------------------------*- C++ -*----------------------------------*\
  =========                 |
  \\      /  F ield         | OpenFOAM: The Open Source CFD Toolbox
   \\    /   O peration     | Website:  https://openfoam.org
    \\  /    A nd           | Version:  12
     \\/     M anipulation  |
\*---------------------------------------------------------------------------*/
FoamFile
{
    format      ascii;
    class       volScalarField;
    location    "0.135";
    object      k;
}
// * * * * * * * * * * * * * * * * * * * * * * * * * * * * * * * * * * * * * //

dimensions      [0 2 -2 0 0 0 0];

internalField   nonuniform List<scalar> 
16000
(
0.049670171
0.021646618
0.022470907
0.016528141
0.014024127
0.012697094
0.011908279
0.011436862
0.011116969
0.010901724
0.010743012
0.010624833
0.010532657
0.010459722
0.01040102
0.010353406
0.01031453
0.010282707
0.010256735
0.01023548
0.010217867
0.01020357
0.010192101
0.010182894
0.010175711
0.010170205
0.010166191
0.010163501
0.010161992
0.010161533
0.010162001
0.010163294
0.010165328
0.010168034
0.010171354
0.010175229
0.010179605
0.010184423
0.010189628
0.010195165
0.010200972
0.010206978
0.010213118
0.010219322
0.010225517
0.010231628
0.010237595
0.010243367
0.010248897
0.01025414
0.010259046
0.010263563
0.010267634
0.010271204
0.010274224
0.010276654
0.010278454
0.010279579
0.010279975
0.01027956
0.010278216
0.010275792
0.010272133
0.010267056
0.01026036
0.010251853
0.010241386
0.010228826
0.010213888
0.010195955
0.010174447
0.010149403
0.010121022
0.010100083
0.010084366
0.010073095
0.010065961
0.010067103
0.010072028
0.01010738
0.04533974
0.020473424
0.021030545
0.015979807
0.013677499
0.012492192
0.011744459
0.011318654
0.011015171
0.010817244
0.010668876
0.010559502
0.010473766
0.010406342
0.01035217
0.010308441
0.010272916
0.010244
0.010220593
0.010201721
0.010186226
0.010173829
0.010164151
0.010156591
0.010150967
0.010146918
0.01014427
0.010142859
0.010142552
0.010143225
0.010144757
0.010147047
0.010150009
0.010153574
0.010157682
0.010162275
0.0101673
0.010172698
0.010178416
0.010184399
0.010190589
0.010196917
0.01020332
0.010209733
0.010216085
0.010222304
0.010228327
0.010234107
0.0102396
0.010244766
0.010249562
0.010253939
0.010257848
0.010261235
0.010264056
0.010266269
0.010267839
0.010268725
0.010268873
0.01026821
0.010266626
0.010263977
0.010260112
0.010254857
0.01024802
0.010239415
0.010228896
0.010216352
0.010201564
0.010183972
0.010162953
0.010138692
0.010111588
0.010091503
0.01007656
0.010065887
0.010059331
0.010057963
0.010067326
0.010101792
0.042150426
0.019649004
0.019698481
0.015415086
0.013323289
0.012264204
0.011575006
0.011191319
0.010911237
0.010731574
0.010594423
0.010494297
0.010415483
0.010353855
0.01030451
0.010264898
0.010232942
0.01020714
0.010186467
0.010170117
0.010156885
0.010146512
0.010138736
0.010132917
0.010128937
0.010126424
0.010125214
0.01012515
0.010126104
0.010127958
0.010130598
0.01013392
0.01013784
0.010142286
0.010147196
0.010152514
0.010158183
0.01016415
0.010170357
0.010176752
0.01018328
0.010189876
0.010196476
0.01020302
0.010209443
0.010215673
0.010221653
0.010227334
0.010232678
0.010237651
0.010242214
0.010246327
0.010249945
0.010253021
0.010255512
0.010257381
0.010258595
0.010259116
0.010258894
0.010257858
0.010255906
0.010252901
0.010248699
0.010243135
0.010236031
0.010227209
0.010216527
0.010203879
0.010189091
0.010171677
0.010150997
0.010127342
0.01010164
0.010082637
0.010068628
0.010058741
0.010052366
0.010050243
0.010061878
0.010086603
0.038896276
0.019090161
0.018548603
0.014909719
0.013002881
0.012058099
0.011419952
0.011075075
0.010815882
0.01065278
0.01052634
0.010434761
0.010362551
0.010306401
0.010261669
0.010225997
0.010197466
0.010174676
0.010156649
0.010142751
0.010131732
0.010123335
0.010117424
0.01011331
0.010110941
0.010109936
0.010110138
0.010111395
0.010113581
0.010116585
0.010120295
0.010124609
0.01012944
0.010134712
0.010140365
0.010146338
0.010152578
0.010159028
0.010165634
0.010172343
0.010179103
0.010185854
0.010192536
0.010199091
0.010205459
0.010211576
0.010217384
0.01022284
0.01022791
0.010232563
0.010236771
0.0102405
0.01024371
0.010246361
0.010248413
0.010249833
0.01025059
0.010250651
0.010249968
0.010248474
0.010246073
0.010242637
0.010238026
0.010232087
0.010224651
0.010215556
0.01020466
0.010191857
0.010177
0.01015969
0.010139279
0.010116068
0.010091719
0.010073823
0.010060784
0.010051668
0.010045398
0.010043138
0.010055144
0.010074155
0.035211058
0.018773947
0.017557482
0.014441528
0.012704778
0.011863386
0.01127467
0.010965593
0.010726956
0.01057936
0.010463416
0.010379987
0.010314236
0.010263403
0.010223185
0.010191375
0.010166208
0.010146389
0.010130978
0.010119508
0.0101107
0.010104275
0.010100225
0.010097827
0.010097055
0.010097557
0.010099166
0.010101738
0.010105145
0.010109281
0.010114036
0.010119308
0.010125006
0.010131055
0.010137388
0.010143946
0.010150674
0.010157517
0.010164421
0.010171335
0.010178211
0.010184994
0.010191629
0.01019806
0.010204238
0.010210103
0.010215601
0.010220694
0.010225353
0.010229554
0.010233275
0.01023649
0.010239168
0.010241273
0.01024277
0.01024363
0.010243824
0.010243323
0.010242083
0.01024004
0.010237102
0.01023315
0.010228052
0.01022166
0.010213821
0.010204381
0.010193208
0.010180191
0.01016519
0.010147894
0.010127678
0.010104736
0.010081922
0.010065178
0.010053135
0.010044776
0.01003866
0.010036522
0.01004808
0.010060972
0.033447938
0.01870351
0.016820001
0.014012648
0.012430614
0.0116824
0.011140506
0.010864243
0.010645367
0.010512051
0.010406277
0.010330531
0.010271026
0.010225308
0.010189465
0.010161416
0.010139537
0.010122634
0.010109798
0.010100727
0.010094121
0.010089688
0.010087471
0.010086843
0.010087616
0.010089617
0.010092624
0.010096494
0.010101099
0.010106332
0.010112088
0.010118262
0.010124761
0.010131506
0.01013843
0.010145472
0.010152575
0.010159688
0.010166758
0.010173739
0.010180585
0.010187249
0.010193682
0.010199835
0.010205665
0.010211123
0.01021616
0.010220742
0.010224845
0.010228455
0.010231556
0.01023413
0.010236153
0.010237596
0.010238429
0.010238624
0.010238157
0.010237002
0.010235117
0.010232443
0.010228893
0.010224354
0.010218701
0.010211794
0.010203488
0.010193644
0.010182142
0.010168865
0.010153666
0.010136307
0.01011625
0.010093426
0.010072298
0.010056744
0.010045711
0.010038111
0.010032288
0.010030296
0.010040686
0.010049018
0.031187713
0.018799256
0.016299054
0.013619651
0.012178139
0.011514444
0.011017209
0.010770861
0.010571004
0.010450776
0.010354821
0.010286354
0.010232899
0.010192142
0.010160571
0.01013622
0.010117592
0.010103588
0.010093315
0.010086634
0.010082228
0.010079925
0.01007944
0.010080814
0.010082935
0.010086429
0.010090821
0.010095966
0.010101733
0.010108016
0.010114708
0.010121705
0.010128913
0.010136248
0.010143643
0.010151035
0.01015837
0.010165598
0.010172673
0.010179552
0.010186195
0.010192565
0.01019862
0.01020432
0.010209631
0.010214514
0.010218928
0.010222844
0.010226246
0.010229125
0.010231473
0.010233281
0.010234532
0.010235202
0.010235266
0.010234699
0.010233481
0.010231586
0.010228978
0.010225599
0.010221367
0.010216177
0.01020991
0.010202432
0.010193606
0.010183308
0.010171428
0.010157855
0.010142418
0.010124921
0.010105004
0.01008241
0.010062957
0.01004862
0.010038589
0.010031762
0.010026386
0.010024535
0.010033378
0.010037648
0.028514652
0.018986709
0.015875866
0.013260014
0.011945847
0.011359242
0.010904175
0.010685272
0.010503501
0.010395395
0.010308957
0.010247472
0.010199927
0.010164041
0.010136687
0.010116014
0.010100643
0.010089556
0.010081857
0.010077542
0.010075298
0.010075642
0.010076478
0.010079309
0.010083383
0.010088348
0.010094097
0.010100473
0.010107343
0.010114597
0.010122129
0.010129835
0.01013762
0.010145399
0.010153103
0.010160672
0.010168055
0.010175207
0.010182089
0.010188665
0.010194904
0.010200778
0.010206258
0.010211315
0.010215923
0.010220054
0.010223679
0.010226774
0.010229329
0.010231342
0.010232812
0.010233737
0.010234107
0.010233905
0.010233108
0.010231694
0.010229644
0.010226936
0.010223536
0.01021939
0.010214419
0.010208524
0.010201593
0.0101935
0.010184115
0.010173322
0.010161029
0.010147128
0.010131426
0.010113715
0.010093899
0.010071768
0.010053971
0.010040866
0.010031818
0.01002577
0.010020999
0.010019271
0.010026273
0.010026381
0.026762622
0.019171713
0.015383936
0.012930482
0.011732067
0.011215953
0.01080072
0.010606702
0.01044289
0.010346124
0.010268897
0.010214171
0.010172418
0.010141344
0.010118178
0.010101179
0.01008909
0.010080958
0.01007587
0.010073743
0.010073141
0.010075666
0.010079154
0.010083748
0.010089339
0.010095751
0.010102799
0.010110328
0.010118202
0.010126306
0.010134537
0.01014279
0.010150971
0.010158997
0.010166801
0.010174327
0.01018153
0.010188374
0.010194828
0.010200867
0.010206474
0.010211632
0.010216325
0.010220536
0.010224251
0.010227454
0.010230127
0.010232251
0.010233822
0.010234844
0.010235323
0.010235263
0.010234659
0.010233499
0.010231764
0.010229432
0.010226486
0.010222905
0.010218657
0.010213693
0.010207937
0.010201295
0.010193663
0.010184922
0.01017495
0.010163641
0.010150907
0.010136653
0.010120665
0.010102672
0.010082861
0.010061605
0.01004542
0.010033553
0.010025456
0.010020169
0.010016126
0.01001451
0.010019493
0.010017158
0.025102098
0.019342839
0.014713824
0.012628261
0.011536711
0.011084985
0.010707662
0.010536209
0.010389723
0.010303395
0.010235056
0.0101869
0.010150827
0.010124522
0.010105525
0.010092207
0.010083427
0.010078293
0.010075932
0.010073658
0.010078868
0.01008256
0.010087779
0.010094081
0.010101224
0.010109001
0.010117245
0.010125798
0.010134521
0.010143298
0.010152023
0.010160599
0.010168936
0.010176953
0.010184591
0.010191802
0.010198551
0.010204813
0.010210573
0.010215818
0.010220545
0.010224753
0.01022844
0.010231603
0.01023424
0.010236347
0.010237915
0.010238933
0.010239401
0.010239327
0.01023872
0.010237591
0.010235939
0.010233755
0.010231023
0.01022772
0.010223829
0.010219331
0.010214196
0.010208377
0.010201803
0.010194384
0.010186026
0.010176617
0.010166046
0.010154213
0.010141029
0.010126394
0.010110103
0.010091803
0.010071808
0.010052003
0.010037369
0.010026737
0.010019558
0.010014983
0.010011737
0.010010336
0.010013331
0.01000984
0.023578401
0.019484301
0.0141752
0.012351226
0.011360266
0.010966683
0.010625486
0.01047445
0.010344156
0.01026759
0.010207841
0.010166131
0.010135654
0.010114102
0.010099279
0.010089664
0.010084172
0.010082061
0.010082728
0.010085944
0.010089822
0.010095824
0.010102903
0.010110837
0.010119409
0.010128415
0.010137685
0.010147062
0.010156405
0.010165598
0.010174539
0.010183139
0.010191318
0.010199005
0.010206152
0.010212726
0.010218705
0.010224082
0.010228856
0.010233034
0.010236628
0.010239653
0.010242124
0.010244049
0.01024544
0.010246301
0.010246635
0.010246435
0.010245705
0.010244453
0.010242692
0.010240435
0.010237683
0.010234431
0.010230663
0.010226357
0.010221492
0.010216049
0.010210001
0.010203305
0.010195895
0.010187685
0.010178588
0.010168506
0.010157334
0.010144983
0.010131354
0.010116318
0.010099694
0.010081154
0.010060793
0.010043021
0.010029879
0.010020463
0.010014179
0.010010254
0.010007801
0.010006816
0.010008171
0.01000349
0.022221735
0.019613057
0.013708624
0.012099566
0.011202626
0.010860667
0.010553973
0.010421135
0.010306514
0.010239173
0.010187742
0.010152407
0.010127477
0.010110689
0.010100064
0.010094196
0.010092089
0.010092994
0.010096246
0.010101383
0.010108251
0.010116147
0.010124948
0.010134371
0.01014419
0.010154201
0.010164236
0.01017414
0.010183777
0.010193036
0.010201824
0.010210067
0.0102177
0.010224672
0.010230952
0.010236526
0.010241392
0.010245562
0.010249055
0.010251897
0.010254117
0.010255746
0.010256812
0.010257338
0.010257344
0.010256844
0.010255845
0.010254348
0.010252356
0.010249875
0.01024692
0.010243501
0.010239624
0.010235284
0.010230464
0.010225141
0.010219291
0.010212895
0.010205927
0.010198348
0.010190096
0.010181093
0.01017126
0.010160509
0.010148748
0.010135891
0.010121831
0.010106385
0.010089372
0.010070733
0.010050618
0.010034706
0.010022994
0.010014761
0.010009368
0.01000605
0.010004297
0.010003903
0.010004235
0.009999004
0.020995169
0.019698634
0.013279723
0.011873242
0.011063345
0.010766942
0.010493248
0.010376836
0.010277135
0.010218663
0.010175331
0.010146361
0.010126973
0.010114981
0.010108598
0.010106514
0.010107792
0.01011173
0.010117762
0.010125402
0.010134219
0.010143952
0.010154278
0.010164937
0.010175705
0.010186379
0.010196796
0.010206811
0.010216301
0.010225169
0.010233341
0.010240764
0.010247399
0.010253222
0.010258226
0.01026242
0.010265827
0.010268479
0.010270417
0.010271683
0.010272323
0.01027238
0.010271896
0.010270902
0.010269427
0.010267489
0.0102651
0.010262263
0.010258979
0.010255252
0.010251092
0.010246509
0.010241507
0.010236081
0.010230214
0.010223882
0.010217057
0.010209716
0.010201836
0.010193381
0.010184297
0.010174514
0.010163958
0.010152554
0.010140223
0.010126873
0.010112383
0.010096543
0.010079107
0.010060324
0.010041347
0.010027131
0.010016756
0.010009645
0.010005151
0.010002439
0.010001225
0.010001503
0.010001534
0.0099960913
0.019891676
0.019703426
0.01289106
0.011670236
0.01094165
0.010685537
0.010443419
0.010341891
0.010256489
0.010206709
0.010171338
0.010148769
0.010134957
0.01012782
0.010125725
0.010127453
0.010132118
0.010139046
0.010147672
0.010157548
0.010168292
0.010179556
0.010191065
0.010202559
0.010213823
0.010224664
0.010234934
0.010244508
0.010253288
0.010261206
0.010268216
0.010274298
0.010279447
0.010283672
0.010286994
0.010289449
0.010291084
0.010291952
0.010292108
0.010291613
0.010290521
0.010288889
0.010286762
0.010284181
0.010281178
0.010277772
0.010273978
0.010269797
0.010265229
0.010260271
0.010254926
0.010249201
0.010243099
0.010236613
0.010229726
0.010222411
0.010214637
0.010206377
0.010197608
0.010188299
0.010178405
0.010167864
0.010156609
0.010144576
0.010131694
0.010117858
0.010102922
0.010086699
0.010068941
0.010049867
0.010032999
0.01002034
0.010011199
0.010005122
0.010001516
0.0099994548
0.0099986115
0.0099994367
0.010000101
0.0099948465
0.01889743
0.019478849
0.012540263
0.011489507
0.010837333
0.010616678
0.010404791
0.010316967
0.010245296
0.010204211
0.010176725
0.010160631
0.010152449
0.010150212
0.010152416
0.010157915
0.010165865
0.010175614
0.010186622
0.010198431
0.010210664
0.010222995
0.010235147
0.01024688
0.010257996
0.010268333
0.01027777
0.010286222
0.010293632
0.010299972
0.010305238
0.010309449
0.010312638
0.010314849
0.010316135
0.010316554
0.010316173
0.010315061
0.010313287
0.010310917
0.010308017
0.010304643
0.010300846
0.010296668
0.010292141
0.010287286
0.010282112
0.010276621
0.010270807
0.010264663
0.010258182
0.010251364
0.010244208
0.010236707
0.010228843
0.010220587
0.010211906
0.010202768
0.010193146
0.010183016
0.010172341
0.010161072
0.01014915
0.010136515
0.010123099
0.010108781
0.010093376
0.010076744
0.010058911
0.010040263
0.010025528
0.010014355
0.01000635
0.010001198
0.0099984156
0.0099970439
0.0099965219
0.0099975872
0.0099991352
0.0099945452
0.017997558
0.018614019
0.012224742
0.011330337
0.010750652
0.010560776
0.010377917
0.010303029
0.010244629
0.010212346
0.010192726
0.010183173
0.01018064
0.010183277
0.010189685
0.010198783
0.010209757
0.010221967
0.010234888
0.010248073
0.010261156
0.010273826
0.010285837
0.010296984
0.010307113
0.010316113
0.010323914
0.010330486
0.010335827
0.010339961
0.010342931
0.010344797
0.010345628
0.010345501
0.010344491
0.010342676
0.010340136
0.010336947
0.010333183
0.010328914
0.010324203
0.010319107
0.010313675
0.010307945
0.010301948
0.010295702
0.010289212
0.010282477
0.010275485
0.010268222
0.010260674
0.010252831
0.010244688
0.010236233
0.010227449
0.010218308
0.010208773
0.010198808
0.010188382
0.010177472
0.010166052
0.010154089
0.010141533
0.010128322
0.010114379
0.010099576
0.01008372
0.010066664
0.010048759
0.010031798
0.010018909
0.010009155
0.010002212
0.0099978817
0.0099957886
0.0099950471
0.0099949405
0.0099962629
0.0099986114
0.0099960646
0.017184263
0.017256467
0.011946711
0.011192479
0.010680685
0.01051877
0.010363857
0.010301498
0.010255941
0.010232591
0.010220796
0.010217769
0.010220793
0.010228129
0.010238456
0.010250747
0.010264208
0.010278218
0.010292269
0.01030594
0.010318902
0.010330894
0.010341727
0.010351264
0.010359423
0.010366167
0.010371497
0.010375449
0.010378081
0.01037947
0.010379703
0.010378876
0.010377085
0.010374427
0.010370994
0.010366873
0.010362144
0.010356887
0.010351169
0.010345058
0.01033861
0.010331875
0.010324898
0.010317711
0.010310338
0.010302793
0.010295079
0.010287189
0.010279106
0.010270811
0.01026228
0.010253496
0.010244444
0.01023511
0.010225475
0.010215511
0.010205184
0.010194451
0.010183277
0.010171637
0.010159512
0.010146888
0.010133728
0.010119966
0.010105497
0.01009019
0.010073922
0.010056622
0.010038731
0.010024308
0.010013094
0.010004678
0.0099987471
0.0099951669
0.0099936108
0.0099933172
0.0099936616
0.0099954043
0.0099982409
0.0099966336
0.016453399
0.016399498
0.011712117
0.011076338
0.010628344
0.010492059
0.010364118
0.010314064
0.010280936
0.010266586
0.010262495
0.010265824
0.010274107
0.01028569
0.010299318
0.01031401
0.010329003
0.010343711
0.010357685
0.010370572
0.010382123
0.010392168
0.010400615
0.010407429
0.010412619
0.010416236
0.010418359
0.010419086
0.010418531
0.010416812
0.010414049
0.010410357
0.010405848
0.010400626
0.010394785
0.01038841
0.010381577
0.010374355
0.010366805
0.010358981
0.01035093
0.010342694
0.010334305
0.01032579
0.010317165
0.010308439
0.010299611
0.01029067
0.010281596
0.010272364
0.010262944
0.01025331
0.010243437
0.010233306
0.010222896
0.01021218
0.010201124
0.010189687
0.010177825
0.01016551
0.010152727
0.010139474
0.010125731
0.010111433
0.010096453
0.010080641
0.010063948
0.010046672
0.010030204
0.010017672
0.010008018
0.010000837
0.0099958727
0.0099930047
0.0099918806
0.0099918123
0.0099924385
0.0099946189
0.0099976614
0.0099980587
0.015797009
0.015399949
0.011511875
0.010982443
0.010594578
0.010482349
0.010380348
0.010342642
0.010321538
0.010316123
0.010319419
0.010328622
0.010341449
0.010356329
0.010372082
0.0103878
0.010402803
0.010416607
0.010428881
0.010439401
0.010448051
0.010454796
0.010459666
0.010462737
0.010464119
0.010463943
0.010462351
0.010459492
0.010455513
0.010450554
0.010444747
0.010438214
0.010431063
0.010423392
0.010415288
0.010406823
0.010398061
0.010389057
0.010379857
0.010370503
0.010361028
0.010351461
0.010341823
0.010332132
0.010322398
0.010312622
0.010302801
0.01029292
0.010282959
0.010272887
0.010262673
0.010252281
0.010241679
0.01023084
0.010219736
0.010208341
0.010196622
0.01018454
0.010172052
0.010159122
0.010145734
0.010131886
0.010117572
0.010102739
0.010087267
0.010071018
0.010053983
0.010036739
0.010022804
0.010011892
0.010003608
0.0099975396
0.0099934764
0.0099912915
0.0099905704
0.0099906043
0.0099912633
0.0099939767
0.0099972725
0.0099987422
0.0152095
0.0147249
0.011348467
0.010911504
0.010580433
0.010491857
0.010414755
0.010389606
0.010379994
0.010383057
0.010392904
0.010406826
0.010422728
0.010439165
0.0104551
0.010469795
0.010482748
0.010493657
0.010502381
0.010508882
0.010513208
0.010515469
0.010515816
0.010514425
0.010511482
0.010507174
0.010501678
0.010495164
0.010487789
0.010479692
0.010471
0.01046182
0.010452248
0.010442364
0.010432238
0.010421926
0.010411474
0.01040092
0.010390295
0.010379623
0.010368925
0.010358215
0.010347506
0.010336802
0.010326108
0.01031542
0.010304729
0.010294021
0.010283273
0.010272456
0.010261535
0.010250473
0.010239231
0.01022777
0.010216057
0.010204059
0.010191744
0.010179077
0.010166017
0.010152529
0.010138592
0.010124195
0.010109329
0.010093957
0.010077991
0.010061364
0.010044323
0.010028528
0.01001637
0.010006924
0.0099998144
0.0099947129
0.0099914496
0.0099898836
0.009989565
0.0099897775
0.0099903268
0.0099934487
0.0099969767
0.0099993098
0.014685272
0.01397477
0.011218537
0.010866174
0.010587726
0.010523946
0.010470407
0.010457685
0.010458406
0.010468543
0.010483055
0.010499448
0.010515908
0.01053125
0.01054472
0.010555863
0.010564457
0.010570449
0.010573924
0.010575036
0.010573986
0.010571004
0.010566329
0.010560193
0.010552818
0.010544407
0.010535142
0.010525186
0.010514677
0.010503739
0.010492474
0.010480968
0.010469294
0.010457509
0.01044566
0.010433786
0.010421913
0.010410063
0.01039825
0.010386483
0.010374768
0.010363109
0.010351505
0.010339953
0.010328449
0.010316985
0.010305547
0.01029412
0.010282683
0.010271207
0.01025966
0.010248004
0.010236197
0.010224194
0.010211953
0.010199432
0.010186594
0.0101734
0.010159819
0.010145819
0.01013138
0.010116484
0.010101109
0.010085222
0.010068797
0.010051896
0.010035064
0.010021578
0.010010908
0.010002713
0.0099966039
0.0099923205
0.0099897314
0.009988664
0.0099886337
0.0099889977
0.0099897957
0.0099929911
0.0099968606
0.0099997077
0.014224084
0.013396267
0.011126815
0.010851202
0.010620314
0.010582694
0.010550424
0.010548723
0.010557218
0.010571475
0.010587325
0.010602706
0.010616273
0.01062728
0.010635379
0.010640485
0.010642689
0.010642193
0.010639273
0.010634227
0.010627357
0.010618949
0.010609272
0.010598565
0.010587041
0.010574884
0.010562249
0.01054927
0.010536054
0.010522694
0.010509262
0.010495817
0.010482404
0.010469059
0.010455806
0.010442663
0.010429642
0.010416747
0.010403977
0.01039133
0.010378798
0.010366373
0.010354046
0.010341804
0.010329636
0.010317527
0.010305462
0.010293423
0.010281389
0.010269335
0.010257231
0.010245044
0.010232731
0.010220249
0.010207548
0.010194579
0.010181292
0.010167642
0.010153592
0.010139118
0.01012421
0.010108857
0.010093035
0.0100767
0.010059861
0.010042875
0.0100276
0.010015697
0.010006355
0.0099992165
0.0099939534
0.0099903538
0.0099883151
0.0099876447
0.0099878487
0.0099884095
0.0099896047
0.0099926628
0.0099967391
0.0099997881
0.013831405
0.012936483
0.011075759
0.010871717
0.010703929
0.010671143
0.010655855
0.010661494
0.010673231
0.010686954
0.010699587
0.010709738
0.010716717
0.010720315
0.010720624
0.010717902
0.010712496
0.01070478
0.010695134
0.010683912
0.01067143
0.01065797
0.01064377
0.010629033
0.010613929
0.010598597
0.010583152
0.010567684
0.010552265
0.010536952
0.010521786
0.010506799
0.010492013
0.010477439
0.010463086
0.010448953
0.010435035
0.010421325
0.010407811
0.010394478
0.01038131
0.010368289
0.010355395
0.010342611
0.010329916
0.01031729
0.010304715
0.010292169
0.010279632
0.010267078
0.010254484
0.010241817
0.010229043
0.010216121
0.010203005
0.01018964
0.01017597
0.010161935
0.010147486
0.010132592
0.010117246
0.010101457
0.010085237
0.01006859
0.01005159
0.010034821
0.010021505
0.010010884
0.010002644
0.0099963892
0.0099918371
0.0099888075
0.009987205
0.0099868417
0.0099872516
0.0099879944
0.0099894013
0.0099925268
0.0099966382
0.0099998502
0.013516512
0.012567019
0.011069467
0.010927575
0.010806995
0.010788538
0.010782953
0.01078974
0.010798511
0.010806127
0.010810754
0.010811819
0.010809293
0.01080345
0.010794707
0.01078353
0.010770378
0.010755672
0.010739782
0.010723025
0.010705666
0.010687924
0.010669973
0.010651956
0.010633983
0.01061614
0.010598495
0.010581096
0.010563979
0.010547169
0.010530681
0.010514521
0.010498692
0.010483188
0.010468001
0.010453118
0.010438523
0.010424198
0.010410122
0.010396272
0.010382624
0.010369153
0.010355833
0.010342638
0.010329544
0.010316524
0.010303554
0.01029061
0.010277667
0.010264701
0.010251687
0.010238597
0.010225401
0.010212065
0.010198549
0.010184805
0.010170776
0.010156403
0.010141625
0.010126399
0.010110702
0.010094534
0.010077917
0.010060935
0.010043947
0.010028584
0.010016588
0.010007078
0.0099997267
0.009994192
0.0099902232
0.0099876627
0.0099863911
0.0099862045
0.0099867308
0.009987621
0.0099892666
0.0099924793
0.0099966134
0.0099998702
0.013296364
0.012299504
0.011110767
0.0110254
0.010940505
0.010926274
0.010921508
0.010922066
0.010921499
0.010918051
0.010911081
0.010900723
0.010887414
0.010871681
0.010854053
0.010835011
0.010814968
0.010794268
0.010773189
0.010751953
0.010730732
0.01070966
0.010688838
0.010668338
0.010648216
0.010628507
0.010609236
0.010590417
0.010572055
0.01055415
0.010536694
0.010519676
0.010503083
0.010486896
0.010471097
0.010455662
0.010440568
0.010425789
0.010411298
0.010397067
0.010383066
0.010369266
0.010355636
0.010342145
0.010328764
0.010315462
0.010302209
0.010288977
0.010275736
0.010262459
0.010249117
0.010235681
0.010222121
0.010208408
0.010194505
0.010180373
0.010165968
0.010151242
0.010136149
0.010120652
0.010104723
0.010088343
0.010071511
0.010054341
0.010037466
0.010023757
0.010012787
0.010004183
0.0099975505
0.0099925916
0.0099890846
0.0099868941
0.0099858854
0.0099857092
0.0099862855
0.0099872772
0.0099891334
0.0099924159
0.0099965386
0.0099997522
0.013169759
0.012132771
0.011206073
0.011153989
0.011088985
0.011070824
0.011057093
0.01104473
0.011030151
0.011012874
0.010993038
0.010971115
0.010947644
0.01092312
0.010897964
0.010872516
0.010847041
0.010821741
0.010796767
0.010772227
0.010748199
0.010724734
0.010701865
0.010679608
0.010657971
0.010636952
0.010616541
0.010596725
0.010577488
0.01055881
0.010540669
0.01052304
0.0105059
0.010489221
0.010472977
0.01045714
0.010441678
0.010426564
0.010411766
0.010397252
0.010382991
0.01036895
0.010355096
0.010341396
0.010327817
0.010314325
0.010300886
0.010287468
0.010274038
0.01026056
0.010247003
0.010233331
0.01021951
0.010205504
0.010191275
0.010176786
0.010162
0.010146887
0.010131426
0.010115608
0.010099429
0.010082886
0.010065995
0.010048929
0.010032629
0.010020071
0.01000996
0.010002072
0.0099960198
0.0099915313
0.0099883982
0.0099864754
0.0099856234
0.0099854224
0.0099860167
0.0099870792
0.0099890592
0.0099923187
0.0099963531
0.009999545
0.013105463
0.012061885
0.011365312
0.011296811
0.011235885
0.011203371
0.011173803
0.011144988
0.011115234
0.01108456
0.011053238
0.011021639
0.010990093
0.010958866
0.010928158
0.010898111
0.010868819
0.010840343
0.010812714
0.010785947
0.01076004
0.010734982
0.010710754
0.010687331
0.010664688
0.010642793
0.010621618
0.010601129
0.010581295
0.010562085
0.010543466
0.010525406
0.010507874
0.010490837
0.010474265
0.010458124
0.010442384
0.010427011
0.010411973
0.010397238
0.010382772
0.010368541
0.010354513
0.010340654
0.010326929
0.010313304
0.010299744
0.010286215
0.01027268
0.010259102
0.010245441
0.010231659
0.010217713
0.010203558
0.010189148
0.010174438
0.010159386
0.010143964
0.01012816
0.01011198
0.010095436
0.010078554
0.010061417
0.010044416
0.010029287
0.01001743
0.010007976
0.010000617
0.0099950034
0.0099908711
0.0099880209
0.0099863079
0.0099855906
0.0099854381
0.0099860701
0.0099872208
0.009989184
0.0099921699
0.009995832
0.0099990352
0.013115736
0.012021911
0.011520263
0.011429978
0.011357366
0.011306309
0.011259549
0.011215631
0.011173259
0.011132254
0.011092565
0.011054217
0.01101723
0.010981608
0.010947336
0.010914384
0.010882712
0.010852273
0.010823016
0.010794889
0.010767837
0.010741809
0.010716751
0.010692614
0.010669349
0.01064691
0.010625253
0.010604334
0.010584113
0.01056455
0.010545608
0.01052725
0.010509441
0.010492145
0.010475328
0.010458957
0.010442998
0.010427418
0.010412184
0.010397264
0.010382623
0.010368229
0.010354049
0.01034005
0.010326199
0.010312463
0.010298807
0.010285196
0.010271596
0.010257968
0.010244274
0.01023047
0.010216513
0.010202353
0.010187937
0.010173212
0.010158129
0.010142651
0.010126758
0.010110447
0.010093727
0.010076619
0.010059234
0.010042101
0.010027525
0.010016033
0.010006914
0.0099998422
0.009994478
0.0099905647
0.0099878988
0.0099863156
0.0099856795
0.0099856491
0.0099863055
0.0099875053
0.0099894032
0.0099921152
0.0099954395
0.0099986774
0.013209096
0.012047783
0.011636754
0.011526734
0.011438643
0.011371595
0.011311886
0.011257611
0.011207133
0.0111598
0.011115166
0.011072939
0.011032888
0.01099483
0.010958606
0.010924077
0.010891121
0.010859627
0.010829497
0.01080064
0.010772972
0.010746419
0.01072091
0.010696381
0.010672772
0.010650026
0.010628092
0.010606921
0.010586468
0.010566689
0.010547544
0.010528992
0.010510997
0.010493521
0.01047653
0.010459989
0.010443863
0.01042812
0.010412725
0.010397647
0.010382853
0.010368309
0.010353985
0.010339847
0.010325864
0.010312004
0.010298234
0.010284521
0.010270832
0.01025713
0.010243379
0.010229538
0.010215564
0.01020141
0.010187024
0.010172353
0.01015735
0.010141978
0.010126221
0.010110078
0.010093556
0.010076674
0.010059519
0.010042546
0.010027758
0.010016187
0.010007006
0.0099999058
0.0099945368
0.0099906382
0.0099879991
0.00998644
0.0099857718
0.0099856165
0.0099864204
0.0099876879
0.0099895854
0.0099921144
0.0099951669
0.0099984296
0.013334487
0.012104307
0.011698001
0.01157554
0.011477238
0.011401833
0.011336017
0.011277229
0.01122341
0.011173574
0.011127045
0.011083364
0.011042187
0.011003242
0.010966312
0.010931212
0.010897787
0.010865902
0.01083544
0.010806294
0.010778374
0.010751593
0.010725877
0.010701155
0.010677363
0.010654444
0.010632343
0.010611009
0.010590395
0.010570457
0.010551152
0.010532441
0.010514285
0.010496648
0.010479494
0.010462788
0.010446495
0.010430583
0.010415019
0.010399768
0.0103848
0.010370081
0.01035558
0.010341265
0.010327103
0.010313064
0.010299115
0.010285223
0.010271355
0.010257476
0.010243548
0.010229533
0.010215388
0.010201064
0.010186514
0.010171684
0.01015653
0.01014102
0.010125136
0.010108881
0.01009226
0.010075296
0.010058098
0.010041209
0.01002701
0.010015732
0.010006779
0.0099998267
0.009994559
0.0099907206
0.0099880971
0.0099865122
0.0099858462
0.0099857559
0.0099865027
0.0099878024
0.0099896799
0.0099920913
0.009994987
0.0099982769
66.367617
361.75289
121.50551
14.633443
0.40404854
0.021490316
0.020170146
0.019858172
0.019591279
0.018533675
0.017192316
0.01600089
0.01509656
0.014522034
0.014114422
0.013728449
0.013352395
0.013018947
0.012739192
0.012505308
0.012306535
0.012135072
0.011985768
0.011854854
0.011739288
0.011636568
0.011544692
0.011462061
0.01138742
0.011319779
0.011258318
0.011202321
0.011151167
0.011104329
0.011061395
0.011022029
0.010985947
0.010952895
0.010922638
0.010894966
0.010869692
0.010846633
0.010825608
0.010806442
0.010788972
0.010773036
0.010758469
0.010745122
0.010732861
0.010721572
0.010711139
0.01070145