/*--------------------------------*- C++ -*----------------------------------*\
  =========                 |
  \\      /  F ield         | OpenFOAM: The Open Source CFD Toolbox
   \\    /   O peration     | Website:  https://openfoam.org
    \\  /    A nd           | Version:  12
     \\/     M anipulation  |
\*---------------------------------------------------------------------------*/
FoamFile
{
    format      ascii;
    class       volScalarField;
    location    "0.135";
    object      rho;
}
// * * * * * * * * * * * * * * * * * * * * * * * * * * * * * * * * * * * * * //

dimensions      [1 -3 0 0 0 0 0];

internalField   nonuniform List<scalar> 
16000
(
1.0580418
1.0907567
1.0785244
1.0868955
1.0830544
1.0864943
1.0855163
1.0873387
1.0874874
1.0886968
1.089349
1.0903644
1.0912432
1.0922412
1.0932386
1.0942881
1.0953699
1.0964918
1.0976518
1.0988509
1.1000891
1.1013663
1.1026824
1.104037
1.1054293
1.1068586
1.1083237
1.1098232
1.1113555
1.1129186
1.1145102
1.1161278
1.1177686
1.1194296
1.1211072
1.1227981
1.1244983
1.1262038
1.1279105
1.1296143
1.1313106
1.1329954
1.1346641
1.1363128
1.1379371
1.1395334
1.1410978
1.142627
1.1441178
1.1455674
1.1469731
1.148333
1.1496449
1.1509075
1.1521196
1.1532801
1.1543886
1.1554446
1.1564483
1.1573996
1.158299
1.159147
1.1599442
1.1606915
1.1613896
1.1620391
1.1626404
1.1631932
1.1636975
1.1641531
1.1645603
1.1649195
1.1652305
1.1654925
1.1657036
1.1658618
1.1659626
1.16595
1.1661324
1.165401
1.0547845
1.0880232
1.0753161
1.0840959
1.0800282
1.083738
1.0826587
1.0846534
1.0847958
1.0861081
1.0868124
1.0879036
1.0888569
1.0899298
1.0910082
1.0921392
1.0933066
1.0945164
1.0957673
1.0970598
1.0983939
1.0997693
1.1011855
1.1026418
1.1041373
1.1056707
1.1072404
1.1088447
1.1104813
1.1121479
1.1138417
1.1155596
1.1172982
1.119054
1.1208229
1.1226009
1.1243837
1.1261667
1.1279456
1.1297155
1.131472
1.1332105
1.1349266
1.136616
1.1382747
1.1398989
1.1414852
1.1430304
1.1445317
1.1459867
1.1473934
1.1487499
1.1500551
1.1513079
1.1525076
1.1536539
1.1547465
1.1557858
1.156772
1.1577057
1.1585876
1.1594184
1.160199
1.1609305
1.1616137
1.1622492
1.1628376
1.1633786
1.1638719
1.1643173
1.1647148
1.1650646
1.1653664
1.1656195
1.1658218
1.1659686
1.1660495
1.1660779
1.166103
1.1655564
1.0518308
1.0855216
1.072411
1.0815257
1.0773171
1.0812294
1.080122
1.0822372
1.0824218
1.0838179
1.0845968
1.0857653
1.0868049
1.0879614
1.0891309
1.0903538
1.0916173
1.0929256
1.0942778
1.095674
1.0971138
1.0985966
1.1001218
1.1016881
1.1032941
1.1049383
1.1066186
1.1083326
1.1100778
1.1118509
1.1136488
1.1154678
1.1173038
1.1191526
1.1210096
1.1228703
1.1247298
1.1265831
1.1284252
1.1302513
1.1320566
1.1338363
1.135586
1.1373016
1.1389791
1.1406152
1.1422067
1.1437509
1.1452455
1.1466887
1.1480791
1.1494155
1.1506973
1.1519241
1.1530958
1.1542126
1.155275
1.1562836
1.1572392
1.1581427
1.1589952
1.1597977
1.1605513
1.1612572
1.1619162
1.1625292
1.1630967
1.1636184
1.1640939
1.1645228
1.164905
1.1652403
1.1655284
1.1657688
1.1659582
1.166089
1.1661606
1.1661911
1.1661191
1.1657273
1.0492039
1.0832685
1.069734
1.0792193
1.0748754
1.0790205
1.0778899
1.0801434
1.0803792
1.0818721
1.0827394
1.083997
1.0851374
1.0863906
1.0876645
1.0889925
1.0903645
1.0917833
1.0932482
1.0947589
1.0963147
1.0979149
1.0995582
1.1012433
1.1029681
1.1047306
1.1065281
1.1083579
1.1102163
1.1120999
1.1140045
1.1159257
1.1178587
1.1197987
1.1217404
1.1236786
1.1256078
1.1275226
1.1294178
1.1312882
1.1331289
1.134935
1.1367025
1.1384272
1.1401058
1.1417353
1.143313
1.144837
1.1463056
1.1477177
1.1490726
1.15037
1.15161
1.1527929
1.1539193
1.15499
1.1560062
1.1569688
1.1578794
1.158739
1.1595492
1.1603111
1.1610262
1.1616956
1.1623204
1.1629014
1.1634392
1.1639334
1.1643837
1.1647893
1.1651497
1.1654646
1.1657339
1.1659567
1.1661279
1.1662397
1.1663017
1.1663128
1.166179
1.1658957
1.0469398
1.0813911
1.0674706
1.0772405
1.0727556
1.0771739
1.0760336
1.0784312
1.0787394
1.0803366
1.0813113
1.0826676
1.0839223
1.0852829
1.0866717
1.0881146
1.0896045
1.0911432
1.0927299
1.0943643
1.0960453
1.0977718
1.0995422
1.1013543
1.1032058
1.1050938
1.1070149
1.1089654
1.1109412
1.1129376
1.1149496
1.116972
1.1189993
1.1210256
1.1230452
1.125052
1.1270402
1.1290039
1.1309378
1.1328364
1.1346949
1.1365088
1.1382742
1.1399876
1.1416462
1.1432475
1.14479
1.1462722
1.1476936
1.1490539
1.1503532
1.1515922
1.1527716
1.1538928
1.1549569
1.1559655
1.1569202
1.1578227
1.1586747
1.1594779
1.1602339
1.1609442
1.1616104
1.1622337
1.1628153
1.1633561
1.1638563
1.164316
1.1647343
1.1651104
1.1654435
1.1657329
1.1659787
1.1661797
1.1663283
1.1664192
1.1664687
1.1664497
1.1662701
1.1660814
1.0450836
1.0799048
1.0656369
1.0757144
1.0711363
1.0757651
1.0746136
1.0771757
1.0775722
1.0792792
1.080373
1.0818314
1.083207
1.0846814
1.086192
1.0877583
1.0893754
1.0910441
1.0927636
1.0945329
1.0963506
1.0982147
1.100123
1.1020726
1.1040601
1.1060818
1.1081333
1.1102098
1.1123061
1.1144166
1.1165351
1.1186556
1.1207715
1.1228762
1.1249632
1.127026
1.1290582
1.131054
1.1330077
1.1349142
1.1367689
1.1385678
1.1403077
1.1419858
1.1436002
1.1451494
1.1466327
1.14805
1.1494015
1.1506881
1.151911
1.1530717
1.1541719
1.1552136
1.1561988
1.1571298
1.1580085
1.1588373
1.1596182
1.1603532
1.1610441
1.1616928
1.1623006
1.1628691
1.1633993
1.1638921
1.1643478
1.1647663
1.1651466
1.1654876
1.1657882
1.1660476
1.1662657
1.1664406
1.1665629
1.1666313
1.1666645
1.1666079
1.1663917
1.1662898
1.0436336
1.0788197
1.0642378
1.0746546
1.0699848
1.0748191
1.0737144
1.0764059
1.0769069
1.0787
1.07992
1.0814844
1.0829912
1.0845922
1.0862389
1.0879443
1.0897048
1.0915203
1.0933891
1.0953096
1.0972795
1.0992961
1.1013558
1.103455
1.105589
1.1077528
1.109941
1.1121474
1.1143655
1.1165886
1.1188095
1.1210208
1.1232153
1.1253855
1.1275243
1.1296249
1.1316809
1.1336862
1.1356356
1.1375244
1.1393488
1.1411055
1.1427924
1.1444077
1.1459507
1.1474213
1.1488199
1.1501475
1.1514058
1.1525966
1.1537223
1.1547852
1.155788
1.1567335
1.1576244
1.1584633
1.1592531
1.159996
1.1606947
1.1613512
1.1619676
1.1625458
1.1630872
1.1635933
1.1640652
1.1645036
1.1649088
1.1652805
1.1656177
1.1659189
1.1661826
1.1664079
1.1665948
1.16674
1.166833
1.1668778
1.1668912
1.1667913
1.166546
1.1665282
1.0425277
1.0780767
1.0632066
1.0740071
1.0692393
1.074299
1.0732228
1.07611
1.076637
1.0785457
1.079926
1.0816229
1.0832877
1.0850414
1.0868484
1.0887167
1.0906435
1.0926275
1.0946664
1.0967577
1.098898
1.1010833
1.103309
1.10557
1.1078602
1.1101732
1.112502
1.1148391
1.1171765
1.1195062
1.1218198
1.1241091
1.1263658
1.128582
1.1307503
1.1328638
1.1349163
1.1369022
1.1388171
1.1406571
1.1424195
1.1441024
1.145705
1.147227
1.1486692
1.1500329
1.15132
1.152533
1.1536746
1.154748
1.1557564
1.1567034
1.1575922
1.1584263
1.1592091
1.1599436
1.1606329
1.1612799
1.161887
1.1624565
1.1629907
1.1634913
1.1639598
1.1643975
1.1648055
1.1651843
1.1655341
1.1658546
1.1661445
1.1664021
1.1666255
1.1668135
1.1669663
1.1670785
1.1671402
1.1671611
1.1671511
1.1670037
1.1667384
1.1668027
1.0417611
1.077662
1.0625267
1.0737922
1.0688389
1.0740643
1.0730791
1.0760077
1.0768442
1.0788966
1.0804676
1.0823222
1.08417
1.0861027
1.088095
1.0901514
1.0922686
1.0944445
1.0966756
1.098958
1.101287
1.1036572
1.1060622
1.1084952
1.1109485
1.113414
1.1158827
1.1183457
1.1207936
1.1232168
1.1256059
1.127952
1.1302462
1.1324804
1.1346474
1.1367407
1.1387547
1.1406851
1.1425286
1.1442828
1.1459468
1.1475203
1.1490043
1.1504004
1.151711
1.1529392
1.1540883
1.1551622
1.1561651
1.157101
1.1579743
1.1587891
1.1595496
1.1602596
1.1609229
1.161543
1.162123
1.162666
1.1631744
1.1636507
1.1640969
1.1645147
1.1649056
1.1652706
1.1656106
1.1659261
1.1662171
1.166483
1.1667227
1.1669339
1.1671144
1.167263
1.1673793
1.1674563
1.1674857
1.1674828
1.1674456
1.1672473
1.1669719
1.1671206
1.0413688
1.0776122
1.0622388
1.0739283
1.0688374
1.0743225
1.0734835
1.0766082
1.0776301
1.0798313
1.0816228
1.0836629
1.0857206
1.0878611
1.0900665
1.0923381
1.0946719
1.0970641
1.0995098
1.1020036
1.1045386
1.1071077
1.1097023
1.1123136
1.1149317
1.1175463
1.120147
1.1227227
1.1252627
1.1277564
1.1301936
1.1325647
1.1348611
1.137075
1.1392
1.1412305
1.1431628
1.1449941
1.1467231
1.1483497
1.1498749
1.1513008
1.1526305
1.1538675
1.1550162
1.1560812
1.1570677
1.1579806
1.1588251
1.1596065
1.1603297
1.1609995
1.1616204
1.1621966
1.1627322
1.1632307
1.1636953
1.1641289
1.1645341
1.1649131
1.1652678
1.1655997
1.1659101
1.1661998
1.1664695
1.1667195
1.1669497
1.1671593
1.1673469
1.16751
1.1676462
1.1677543
1.1678326
1.167873
1.1678704
1.1678442
1.1677754
1.1675246
1.1672509
1.1674861
1.0414174
1.0779968
1.0623938
1.074278
1.0693293
1.0751025
1.0744721
1.0777575
1.0790515
1.0814288
1.0834753
1.0857354
1.088034
1.0904144
1.0928633
1.0953793
1.0979569
1.1005906
1.1032732
1.1059969
1.1087527
1.1115305
1.1143195
1.1171081
1.1198841
1.122635
1.1253484
1.1280117
1.130613
1.133141
1.1355853
1.1379367
1.1401872
1.1423306
1.1443618
1.1462779
1.1480771
1.1497594
1.1513262
1.15278
1.1541245
1.1553643
1.1565047
1.1575514
1.1585104
1.159388
1.1601906
1.1609244
1.1615952
1.1622091
1.1627713
1.163287
1.1637609
1.1641975
1.1646005
1.1649734
1.1653195
1.1656414
1.1659415
1.1662217
1.1664836
1.1667287
1.1669577
1.1671715
1.1673703
1.1675542
1.1677229
1.1678756
1.1680106
1.1681252
1.168217
1.1682843
1.1683239
1.1683275
1.1682947
1.1682459
1.168141
1.1678396
1.1675808
1.1678981
1.0419882
1.0788887
1.0630916
1.0752746
1.0704925
1.0765067
1.0761344
1.0795978
1.0812056
1.0837872
1.0861232
1.0886415
1.0912156
1.0938711
1.0965971
1.0993891
1.1022393
1.1051394
1.1080795
1.1110485
1.1140341
1.1170231
1.1200017
1.1229553
1.1258693
1.1287291
1.1315204
1.1342298
1.1368447
1.1393541
1.1417485
1.1440199
1.1461627
1.1481731
1.1500491
1.1517907
1.1533998
1.1548797
1.1562348
1.1574709
1.1585945
1.1596125
1.1605325
1.161362
1.1621086
1.1627798
1.1633829
1.1639247
1.1644117
1.16485
1.1652452
1.1656024
1.1659263
1.1662211
1.1664903
1.1667374
1.166965
1.1671757
1.1673713
1.1675536
1.1677239
1.1678832
1.1680321
1.1681709
1.1682999
1.1684187
1.1685269
1.1686235
1.1687066
1.1687735
1.1688217
1.168849
1.1688505
1.1688182
1.1687582
1.1686873
1.168543
1.1681979
1.1679667
1.1683537
1.0430763
1.0802936
1.0643293
1.0769325
1.072312
1.078569
1.0785354
1.0821922
1.0841758
1.0870043
1.0896707
1.0924936
1.0953846
1.0983563
1.1013971
1.104499
1.1076506
1.1108399
1.1140528
1.1172743
1.1204881
1.1236776
1.1268255
1.1299143
1.1329272
1.1358478
1.1386612
1.1413537
1.1439138
1.146332
1.1486014
1.1507174
1.1526779
1.1544831
1.1561354
1.1576389
1.1589995
1.1602243
1.1613213
1.1622992
1.163167
1.1639341
1.1646094
1.1652021
1.1657207
1.1661735
1.166568
1.1669115
1.1672105
1.167471
1.1676983
1.1678974
1.1680725
1.1682274
1.1683655
1.1684894
1.1686017
1.1687043
1.1687988
1.1688865
1.1689684
1.1690449
1.1691166
1.1691833
1.169245
1.1693011
1.1693511
1.1693936
1.1694268
1.1694479
1.1694546
1.1694437
1.1694083
1.1693427
1.1692593
1.169167
1.1689811
1.1686046
1.1684148
1.1688511
1.0447355
1.0822636
1.0661683
1.0792181
1.074873
1.0813829
1.0817787
1.0856539
1.0880753
1.0912062
1.0942512
1.0974332
1.1006902
1.1040237
1.1074192
1.1108634
1.1143403
1.1178325
1.1213214
1.1247871
1.1282091
1.1315669
1.1348399
1.1380083
1.1410539
1.14396
1.1467125
1.1492999
1.1517137
1.1539486
1.1560022
1.1578753
1.159571
1.1610949
1.1624545
1.1636586
1.1647173
1.1656413
1.1664418
1.16713
1.1677168
1.1682131
1.168629
1.1689743
1.1692579
1.1694882
1.1696728
1.1698185
1.1699315
1.1700175
1.1700812
1.1701271
1.1701588
1.1701795
1.1701921
1.1701989
1.1702016
1.1702018
1.1702007
1.1701991
1.1701975
1.1701961
1.170195
1.1701939
1.1701922
1.1701895
1.1701846
1.1701764
1.1701626
1.1701409
1.170109
1.1700624
1.1699927
1.1698977
1.1697952
1.1696818
1.1694535
1.1690598
1.1689285
1.1693898
1.0470261
1.0848575
1.0687192
1.0822585
1.0782752
1.0850497
1.0859799
1.0901161
1.0930467
1.0965546
1.1000392
1.1036432
1.1073201
1.1110608
1.1148455
1.1186548
1.1224666
1.1262575
1.1300033
1.1336789
1.1372594
1.1407207
1.14404
1.147197
1.1501742
1.1529575
1.1555367
1.1579057
1.1600621
1.1620073
1.1637457
1.165285
1.1666346
1.1678061
1.168812
1.1696656
1.1703806
1.1709707
1.1714491
1.1718287
1.1721216
1.1723391
1.1724917
1.172589
1.1726397
1.1726518
1.1726322
1.1725871
1.1725221
1.172442
1.1723509
1.1722525
1.1721497
1.1720452
1.171941
1.1718388
1.17174
1.1716455
1.1715561
1.171472
1.1713935
1.1713204
1.1712523
1.1711887
1.1711289
1.171072
1.1710168
1.1709619
1.1709051
1.1708445
1.1707777
1.1706987
1.1705985
1.1704792
1.1703618
1.1702274
1.1699575
1.1695608
1.1695048
1.1699639
1.050006
1.0881078
1.0721085
1.0861257
1.0826412
1.0897061
1.091304
1.095776
1.0992991
1.1032736
1.1072649
1.1113532
1.1154977
1.1196796
1.1238722
1.1280484
1.1321786
1.1362327
1.1401797
1.1439898
1.1476345
1.1510884
1.1543297
1.1573413
1.1601109
1.1626315
1.164901
1.1669218
1.1687008
1.1702478
1.1715757
1.1726991
1.1736339
1.1743968
1.1750047
1.175474
1.1758209
1.1760605
1.1762072
1.1762742
1.1762736
1.1762164
1.1761126
1.175971
1.1757994
1.1756048
1.1753934
1.1751702
1.17494
1.1747065
1.1744731
1.1742424
1.1740169
1.1737983
1.173588
1.1733871
1.1731964
1.1730164
1.1728472
1.1726888
1.172541
1.1724033
1.1722749
1.1721552
1.1720431
1.1719377
1.1718374
1.1717407
1.1716457
1.1715508
1.1714531
1.1713456
1.1712197
1.1710821
1.1709535
1.1707983
1.1704919
1.1701034
1.1701307
1.1705736
1.0537454
1.0920232
1.0764636
1.0909698
1.0881754
1.0955967
1.0980122
1.1029148
1.1071111
1.1116397
1.1161982
1.1208202
1.1254637
1.1300987
1.1346891
1.1391974
1.1435852
1.1478146
1.1518496
1.155658
1.1592125
1.162492
1.1654819
1.1681742
1.1705677
1.172667
1.1744818
1.1760258
1.177316
1.1783713
1.1792122
1.1798595
1.1803339
1.1806556
1.1808439
1.1809168
1.180891
1.180782
1.1806037
1.1803685
1.1800876
1.1797709
1.1794271
1.1790638
1.1786875
1.1783039
1.177918
1.1775337
1.1771545
1.1767834
1.1764227
1.1760742
1.1757394
1.1754194
1.1751151
1.1748269
1.174555
1.1742994
1.1740599
1.1738361
1.1736272
1.1734326
1.1732514
1.1730824
1.1729245
1.1727766
1.172637
1.1725041
1.1723761
1.1722518
1.1721278
1.1719961
1.1718504
1.1717011
1.1715644
1.1713896
1.1710563
1.1706838
1.1707928
1.171217
1.0584334
1.0967499
1.0820161
1.0971181
1.0952102
1.1030508
1.1064268
1.1118557
1.1167938
1.1219553
1.1271306
1.1323169
1.1374623
1.1425217
1.1474453
1.1521846
1.1566931
1.1609294
1.164859
1.1684556
1.1717017
1.1745893
1.1771186
1.1792975
1.1811403
1.1826661
1.1838975
1.1848594
1.1855777
1.1860788
1.1863881
1.1865303
1.1865284
1.1864037
1.1861758
1.1858624
1.1854791
1.1850402
1.1845581
1.1840435
1.183506
1.1829537
1.1823936
1.1818318
1.1812733
1.1807224
1.1801825
1.1796567
1.1791472
1.178656
1.1781844
1.1777334
1.1773039
1.1768962
1.1765105
1.1761468
1.1758048
1.175484
1.1751839
1.1749037
1.1746423
1.1743989
1.1741723
1.1739611
1.1737642
1.1735802
1.1734073
1.1732439
1.1730886
1.1729401
1.1727942
1.1726433
1.1724839
1.1723296
1.1721883
1.1719955
1.171647
1.1713046
1.1714865
1.1718883
1.0643522
1.1028617
1.0891632
1.1049087
1.1040914
1.1123921
1.116877
1.1229514
1.1287014
1.1345669
1.1403871
1.1461237
1.1517076
1.1570755
1.1621663
1.1669259
1.1713099
1.1752857
1.1788328
1.1819435
1.1846212
1.186879
1.1887378
1.1902243
1.1913692
1.1922051
1.1927654
1.1930829
1.1931894
1.1931144
1.1928857
1.1925281
1.1920644
1.1915146
1.1908966
1.190226
1.1895164
1.1887796
1.1880257
1.1872634
1.1864999
1.1857416
1.1849934
1.1842599
1.1835444
1.1828498
1.1821783
1.1815317
1.1809112
1.1803179
1.1797522
1.1792144
1.1787047
1.1782228
1.1777684
1.1773409
1.1769397
1.176564
1.1762128
1.1758851
1.1755797
1.1752954
1.1750308
1.1747846
1.1745553
1.1743415
1.1741413
1.1739533
1.1737764
1.1736088
1.1734458
1.1732806
1.173114
1.1729606
1.1728174
1.172609
1.1722567
1.1719642
1.172212
1.1725792
1.0716902
1.1108983
1.0981053
1.1145685
1.1151881
1.1240381
1.1298003
1.1366713
1.1432902
1.1498787
1.1562869
1.1624425
1.1682605
1.1736697
1.1786123
1.1830475
1.186952
1.1903195
1.193159
1.1954919
1.1973491
1.1987681
1.1997904
1.2004591
1.2008171
1.2009057
1.2007639
1.2004276
1.1999295
1.1992988
1.1985614
1.19774
1.1968544
1.1959218
1.1949567
1.1939718
1.1929777
1.1919833
1.1909962
1.1900225
1.1890674
1.188135
1.1872288
1.1863513
1.1855046
1.1846903
1.1839093
1.1831624
1.1824499
1.1817719
1.1811283
1.1805188
1.1799428
1.1793995
1.1788883
1.1784083
1.1779582
1.1775372
1.1771441
1.1767774
1.176436
1.1761182
1.1758228
1.1755483
1.175293
1.1750555
1.1748339
1.174627
1.1744338
1.1742521
1.1740766
1.1739024
1.1737343
1.173586
1.1734431
1.1732249
1.1728823
1.1726523
1.1729525
1.1732655
1.0805785
1.1207229
1.109446
1.1266433
1.1291428
1.1386786
1.145842
1.1536094
1.1610437
1.168208
1.1749498
1.18118
1.1868208
1.1918214
1.1961557
1.1998217
1.2028377
1.2052379
1.2070682
1.2083815
1.2092343
1.2096835
1.2097843
1.2095887
1.2091446
1.2084951
1.2076786
1.2067289
1.2056753
1.2045432
1.2033542
1.2021266
1.2008762
1.1996158
1.1983565
1.1971073
1.1958755
1.1946673
1.1934875
1.19234
1.1912278
1.1901534
1.1891183
1.1881238
1.1871707
1.1862592
1.1853896
1.1845615
1.1837746
1.1830282
1.1823217
1.1816542
1.1810245
1.1804318
1.1798747
1.1793522
1.1788628
1.1784053
1.1779784
1.1775805
1.1772103
1.176866
1.1765464
1.1762497
1.1759743
1.1757187
1.1754812
1.1752607
1.1750561
1.1748646
1.1746812
1.1745032
1.1743382
1.174197
1.1740555
1.1738358
1.17352
1.1733559
1.1736786
1.1739179
1.0917585
1.1332472
1.1240868
1.1420778
1.1469036
1.1572059
1.1657002
1.1742403
1.1821686
1.1894609
1.1959927
1.2017031
1.2065641
1.2105821
1.2137911
1.2162455
1.2180132
1.2191695
1.2197915
1.2199548
1.2197303
1.2191834
1.2183723
1.2173487
1.2161574
1.2148367
1.2134196
1.2119336
1.2104022
1.2088445
1.2072768
1.2057122
1.2041617
1.2026339
1.2011359
1.1996735
1.1982509
1.1968717
1.1955384
1.1942528
1.1930161
1.1918291
1.1906922
1.1896053
1.188568
1.1875799
1.1866403
1.1857481
1.1849024
1.1841021
1.1833458
1.1826324
1.1819604
1.1813285
1.1807352
1.180179
1.1796586
1.1791724
1.1787189
1.1782967
1.177904
1.1775393
1.1772011
1.1768878
1.1765976
1.1763289
1.1760803
1.1758508
1.175639
1.1754416
1.1752544
1.1750772
1.1749189
1.174785
1.174645
1.174431
1.1741538
1.1740527
1.1743757
1.1745417
1.1067924
1.149568
1.1433008
1.1619392
1.1694345
1.1803878
1.1897297
1.1984725
1.2061686
1.2127963
1.2183198
1.2227634
1.2261866
1.2286757
1.2303319
1.2312628
1.2315745
1.2313673
1.230733
1.2297529
1.228498
1.2270292
1.2253981
1.2236478
1.2218144
1.2199274
1.2180113
1.2160859
1.2141672
1.2122682
1.2103993
1.2085685
1.2067822
1.2050455
1.2033619
1.2017341
1.2001641
1.1986529
1.1972013
1.1958094
1.1944769
1.1932034
1.1919881
1.1908301
1.1897281
1.1886809
1.1876873
1.1867456
1.1858545
1.1850123
1.1842175
1.1834685
1.1827636
1.1821012
1.1814798
1.1808976
1.1803531
1.1798447
1.1793709
1.1789299
1.1785202
1.1781402
1.1777883
1.1774629
1.1771623
1.1768849
1.1766294
1.1763947
1.1761791
1.1759792
1.1757918
1.175619
1.1754692
1.1753424
1.1752041
1.1750004
1.1747651
1.1747182
1.1750313
1.1751416
1.1271606
1.1709814
1.1685156
1.1872451
1.1971141
1.2081815
1.2173459
1.2252033
1.2315881
1.2365673
1.2402365
1.2427335
1.244211
1.2448243
1.244721
1.2440352
1.242885
1.2413718
1.239581
1.2375838
1.2354384
1.2331925
1.2308844
1.228545
1.226199
1.2238657
1.2215607
1.2192959
1.2170805
1.2149217
1.2128246
1.2107931
1.2088298
1.2069365
1.2051141
1.2033629
1.2016829
1.2000733
1.1985335
1.1970622
1.1956582
1.19432
1.193046
1.1918345
1.1906838
1.1895922
1.1885577
1.1875785
1.1866529
1.1857789
1.1849547
1.1841785
1.1834485
1.1827629
1.1821199
1.1815178
1.180955
1.1804297
1.1799404
1.1794854
1.179063
1.1786717
1.17831
1.1779762
1.1776686
1.1773859
1.1771268
1.17689
1.1766733
1.1764736
1.1762891
1.176123
1.1759822
1.1758614
1.1757264
1.1755392
1.1753493
1.1753465
1.1756319
1.175692
1.1554674
1.1982826
1.2008283
1.2188872
1.2291247
1.2389754
1.2465597
1.2522741
1.2562466
1.2587158
1.2599177
1.2600837
1.2594219
1.2581135
1.2563107
1.2541389
1.2517
1.2490752
1.246329
1.2435121
1.2406641
1.2378157
1.2349906
1.2322068
1.2294781
1.2268145
1.2242237
1.221711
1.2192799
1.2169328
1.214671
1.2124948
1.2104042
1.2083983
1.2064761
1.2046361
1.2028768
1.2011963
1.1995926
1.1980639
1.1966079
1.1952225
1.1939055
1.1926548
1.1914682
1.1903436
1.1892787
1.1882716
1.1873201
1.1864221
1.1855758
1.184779
1.18403
1.1833267
1.1826674
1.1820502
1.1814735
1.1809355
1.1804345
1.179969
1.1795373
1.1791378
1.178769
1.1784294
1.1781174
1.1778317
1.1775711
1.177334
1.1771182
1.176921
1.1767415
1.1765833
1.1764505
1.1763342
1.1762043
1.176039
1.1758953
1.1759231
1.1761624
1.1761723
1.1942853
1.2332752
1.2390352
1.2543274
1.2634414
1.2703376
1.2747098
1.2771054
1.2778848
1.2774131
1.2759893
1.2738607
1.2712236
1.2682318
1.2650039
1.2616303
1.2581796
1.2547034
1.2512402
1.2478183
1.2444588
1.2411767
1.2379828
1.2348843
1.2318861
1.2289911
1.2262007
1.2235152
1.220934
1.2184559
1.2160794
1.2138025
1.2116229
1.2095381
1.2075458
1.2056432
1.2038277
1.2020966
1.2004473
1.1988771
1.1973833
1.1959634
1.1946148
1.193335
1.1921215
1.190972
1.1898841
1.1888556
1.1878841
1.1869676
1.186104
1.1852911
1.184527
1.1838098
1.1831375
1.1825083
1.1819206
1.1813725
1.1808623
1.1803885
1.1799495
1.1795436
1.1791695
1.1788255
1.1785103
1.1782226
1.1779613
1.1777246
1.1775105
1.1773168
1.1771433
1.176993
1.1768669
1.1767546
1.1766329
1.1764927
1.1763879
1.176427
1.176611
1.1765926
1.241803
1.2743072
1.281453
1.2912362
1.296129
1.2984592
1.2986161
1.2972483
1.2947886
1.2915819
1.2878805
1.2838699
1.2796843
1.2754201
1.271146
1.2669107
1.262748
1.2586814
1.2547266
1.2508938
1.247189
1.2436155
1.2401743
1.2368653
1.2336867
1.2306365
1.2277118
1.2249096
1.2222265
1.219659
1.2172036
1.2148566
1.2126146
1.2104741
1.2084314
1.2064834
1.2046266
1.2028579
1.201174
1.199572
1.1980489
1.1966018
1.1952279
1.1939245
1.192689
1.1915188
1.1904115
1.1893647
1.1883761
1.1874434
1.1865646
1.1857374
1.1849599
1.1842301
1.1835462
1.1829062
1.1823083
1.181751
1.1812325
1.1807511
1.1803053
1.1798935
1.1795143
1.1791662
1.1788479
1.1785582
1.1782957
1.1780589
1.177846
1.1776554
1.1774873
1.1773432
1.1772221
1.1771149
1.1770064
1.1768948
1.1768201
1.1768486
1.1769638
1.1769313
1.2957995
1.3164376
1.3209849
1.3233492
1.3225563
1.3199114
1.3160278
1.3113944
1.306332
1.3010576
1.2957152
1.2903993
1.2851716
1.2800713
1.2751226
1.2703397
1.2657298
1.2612957
1.2570369
1.252951
1.2490344
1.2452824
1.2416899
1.2382517
1.2349623
1.2318163
1.2288084
1.2259334
1.2231862
1.2205619
1.2180559
1.2156636
1.2133807
1.211203
1.2091265
1.2071474
1.205262
1.2034667
1.2017582
1.2001331
1.1985884
1.197121
1.195728
1.1944065
1.1931538
1.1919674
1.1908447
1.1897833
1.1887808
1.187835
1.1869436
1.1861046
1.185316
1.1845757
1.1838819
1.1832328
1.1826264
1.1820613
1.1815356
1.1810477
1.1805962
1.1801793
1.1797958
1.1794441
1.179123
1.1788312
1.1785674
1.1783301
1.1781178
1.1779293
1.1777646
1.1776238
1.1775048
1.1774014
1.1773057
1.1772195
1.1771661
1.1771776
1.177238
1.1772186
1.3485957
1.3519014
1.3506853
1.3462313
1.340409
1.3338434
1.3269982
1.3201146
1.3133388
1.3067498
1.3003904
1.2942809
1.2884283
1.2828316
1.2774854
1.2723815
1.2675106
1.2628626
1.2584275
1.2541952
1.2501562
1.2463012
1.2426217
1.2391094
1.2357565
1.2325558
1.2295005
1.226584
1.2238004
1.221144
1.2186093
1.2161914
1.2138853
1.2116866
1.209591
1.2075943
1.2056926
1.2038822
1.2021596
1.2005213
1.1989641
1.1974848
1.1960806
1.1947484
1.1934855
1.1922894
1.1911573
1.1900869
1.1890759
1.1881218
1.1872226
1.186376
1.1855802
1.1848331
1.1841327
1.1834774
1.1828653
1.1822947
1.181764
1.1812716
1.1808158
1.1803952
1.1800084
1.1796539
1.1793305
1.1790369
1.1787717
1.1785337
1.1783215
1.1781343
1.1779714
1.1778317
1.1777133
1.1776127
1.1775271
1.1774584
1.1774152
1.1774065
1.1774219
1.177411
1.3825975
1.3750345
1.367513
1.3592624
1.35069
1.342209
1.3339857
1.3260945
1.3185637
1.3113968
1.3045852
1.2981143
1.2919671
1.2861256
1.2805721
1.2752898
1.2702626
1.2654757
1.2609154
1.256569
1.2524247
1.2484718
1.2447003
1.2411011
1.2376655
1.2343859
1.2312547
1.2282654
1.2254114
1.2226869
1.2200864
1.2176046
1.2152366
1.2129777
1.2108237
1.2087702
1.2068135
1.2049496
1.2031751
1.2014866
1.1998806
1.1983542
1.1969042
1.1955279
1.1942224
1.1929851
1.1918134
1.1907049
1.1896571
1.1886678
1.1877349
1.1868561
1.1860294
1.1852529
1.1845247
1.1838429
1.1832057
1.1826116
1.1820587
1.1815454
1.1810703
1.1806317
1.1802283
1.1798586
1.1795213
1.1792152
1.1789388
1.178691
1.1784706
1.1782766
1.178108
1.1779632
1.1778403
1.1777379
1.1776556
1.1775941
1.177553
1.1775297
1.1775195
1.1775157
1.163551
1.1682287
1.1828498
1.1947175
1.2002112
1.2014763
1.2015486
1.2012198
1.2012556
1.2009646
1.2007009
1.2001582
1.199568
1.1989266
1.1982405
1.1975138
1.1967513
1.1959586
1.1951406
1.1943015
1.1934452
1.1925752
1.1916947
1.1908067
1.1899138
1.1890183
1.1881225
1.1872283
1.1863376
1.185452
1.1845733
1.1837027
1.1828419
1.1819921
1.1811546
1.1803308
1.1795217
1.1787287
1.1779528
1.1771952
1.1764571
1.1757396
1.1750439
1.1743708
1.1737217
1.1730975
1.1724993
1.171928
1.1713845
1.1708698
1.1703846
1.1699295
1.1695052
1.1691121
1.1687504
1.1684202
1.1681213
1.1678534
1.1676161
1.1674083
1.167229
1.1670767
1.1669498
1.1668466
1.166765
1.166702
1.1666559
1.1666206
1.1665988
1.1665734
1.1665711
1.1665282
1.166564
1.1664528
1.1665783
1.1662766
1.1665852
1.165936
1.1665225
1.1653353
1.1593478
1.1703616
1.1866757
1.1950065
1.197272
1.1971832
1.1966521
1.1964029
1.1960857
1.1957836
1.1953923
1.1949953
1.1945517
1.1940722
1.1935537
1.1930034
1.1924223
1.1918131
1.1911782
1.19052
1.1898407
1.1891426
1.1884281
1.1876993
1.1869585
1.1862077
1.1854492
1.1846849
1.183917
1.1831472
1.1823777
1.1816101
1.1808462
1.180088
1.1793369
1.1785947
1.177863
1.1771434
1.1764373
1.1757463
1.1750719
1.1744154
1.1737783
1.1731618
1.1725674
1.1719962
1.1714495
1.1709284
1.170434
1.1699672
1.1695289
1.1691199
1.1687407
1.1683918
1.1680734
1.1677856
1.1675283
1.1673009
1.167103
1.1669336
1.1667914
1.166675
1.1665826
1.1665123
1.1664622
1.1664291
1.1664111
1.1664026
1.1664053
1.1664042
1.1664217
1.1664026
1.1664514
1.1663646
1.1664927
1.1662224
1.1665291
1.165903
1.1664918
1.1652965
1.1599806
1.1734572
1.1851808
1.1915599
1.1925317
1.1920534
1.1915479
1.1912873
1.1909943
1.1907116
1.1903793
1.1900437
1.1896732
1.1892898
1.1888794
1.1884492
1.187996
1.1875218
1.1870269
1.186512
1.1859781
1.1854262
1.1848576
1.1842735
1.1836753
1.1830644
1.1824424
1.1818108
1.1811714
1.1805258
1.1798757
1.1792228
1.1785691
1.1779162
1.1772659
1.1766201
1.1759805
1.1753489
1.174727
1.1741165
1.1735192
1.1729366
1.1723705
1.1718224
1.1712938
1.1707862
1.1703009
1.1698393
1.1694026
1.1689919
1.1686081
1.1682521
1.1679245
1.1676259
1.1673564
1.1671162
1.166905
1.1667224
1.1665679
1.1664404
1.1663384
1.1662606
1.1662051
1.1661701
1.1661532
1.1661517
1.1661632
1.1661827
1.1662109
1.1662346
1.1662732
1.1662774
1.1663408
1.1662767
1.1664103
1.1661675
1.1664736
1.1658691
1.1664614
1.1652592
1.1577376
1.1721384
1.1828499
1.1875626
1.1873963
1.1870099
1.1865688
1.18637
1.1860546
1.1858038
1.1854923
1.1852094
1.1848951
1.1845841
1.1842526
1.1839124
1.183557
1.1831886
1.1828059
1.1824087
1.1819969
1.1815706
1.18113
1.1806753
1.1802072
1.1797264
1.1792336
1.1787299
1.1782164
1.1776944
1.1771651
1.1766301
1.1760909
1.1755491
1.1750063
1.1744644
1.173925
1.17339
1.1728611
1.1723402
1.1718291
1.1713296
1.1708434
1.1703724
1.1699181
1.1694822
1.1690663
1.1686718
1.1683
1.1679521
1.1676293
1.1673324
1.1670621
1.166819
1.1666033
1.1664152
1.1662544
1.1661204
1.1660127
1.1659301
1.1658713
1.1658345
1.1658182
1.1658203
1.1658384
1.1658698
1.1659121
1.1659604
1.1660151
1.1660641
1.1661245
1.1661519
1.1662309
1.1661883
1.1663298
1.1661111
1.1664198
1.1658351
1.166432
1.1652241
1.152137
1.1685595
1.1784497
1.18199
1.181448
1.1813622
1.1810046
1.1809443
1.1807039
1.1805705
1.1803498
1.1801754
1.1799585
1.1797542
1.1795278
1.1792965
1.1790508
1.1787945
1.1785255
1.1782438
1.1779491
1.1776413
1.1773204
1.1769864
1.1766396
1.1762804
1.1759091
1.1755266
1.1751334
1.1747305
1.174319
1.1738999
1.1734745
1.1730442
1.1726105
1.1721749
1.171739
1.1713046
1.1708734
1.1704472
1.1700278
1.1696172
1.1692171
1.1688293
1.1684556
1.1680978
1.1677574
1.167436
1.1671351
1.1668558
1.1665995
1.1663669
1.1661589
1.165976
1.1658186
1.1656867
1.16558
1.1654982
1.1654404
1.1654057
1.1653925
1.1653992
1.165424
1.1654648
1.1655195
1.1655851
1.1656591
1.1657372
1.1658191
1.1658938
1.1659767
1.1660271
1.1661226
1.1661008
1.1662516
1.1660559
1.1663672
1.1658014
1.1664035
1.1651911
1.1461514
1.1650167
1.17353
1.1764355
1.1757447
1.1759151
1.1756024
1.1756797
1.1755046
1.175483
1.1753438
1.1752711
1.1751439
1.1750376
1.1749061
1.174773
1.1746251
1.1744683
1.1743001
1.1741208
1.1739302
1.173728
1.1735143
1.1732888
1.1730517
1.172803
1.1725431
1.1722721
1.1719908
1.1716995
1.1713991
1.1710904
1.1707743
1.1704521
1.170125
1.1697943
1.1694614
1.169128
1.1687956
1.1684661
1.168141
1.1678223
1.1675118
1.1672112
1.1669223
1.1666469
1.1663867
1.1661431
1.1659176
1.1657116
1.1655262
1.1653623
1.1652209
1.1651023
1.1650069
1.1649348
1.1648857
1.164859
1.164854
1.1648697
1.1649044
1.1649565
1.1650242
1.1651054
1.1651978
1.1652987
1.1654055
1.165514
1.1656236
1.1657246
1.1658302
1.1659037
1.1660159
1.1660147
1.1661754
1.1660019
1.1663164
1.1657687
1.166375
1.1651603
1.1409487
1.1616547
1.1686699
1.171276
1.1704862
1.1708581
1.1705535
1.1707409
1.1706051
1.1706718
1.1705952
1.1706095
1.1705572
1.1705286
1.1704706
1.1704166
1.1703494
1.1702762
1.1701939
1.1701028
1.1700024
1.1698923
1.1697724
1.1696425
1.1695024
1.1693522
1.1691918
1.1690214
1.1688414
1.168652
1.1684539
1.1682476
1.1680339
1.1678137
1.1675881
1.1673581
1.1671251
1.1668905
1.1666556
1.1664222
1.1661917
1.1659658
1.1657464
1.165535
1.1653335
1.1651433
1.1649663
1.1648038
1.1646573
1.164528
1.1644172
1.1643257
1.1642543
1.1642034
1.1641734
1.1641641
1.1641753
1.1642065
1.1642568
1.1643251
1.1644097
1.1645089
1.164621
1.1647439
1.1648751
1.1650122
1.1651524
1.1652919
1.1654297
1.1655571
1.1656857
1.1657821
1.1659115
1.1659307
1.166101
1.1659495
1.1662674
1.1657373
1.1663463
1.1651319
1.1361097
1.1586361
1.1641264
1.1666081
1.1657097
1.166245
1.1659157
1.1661918