/*--------------------------------*- C++ -*----------------------------------*\
  =========                 |
  \\      /  F ield         | OpenFOAM: The Open Source CFD Toolbox
   \\    /   O peration     | Website:  https://openfoam.org
    \\  /    A nd           | Version:  12
     \\/     M anipulation  |
\*---------------------------------------------------------------------------*/
FoamFile
{
    format      ascii;
    class       volVectorField;
    location    "0.135";
    object      U;
}
// * * * * * * * * * * * * * * * * * * * * * * * * * * * * * * * * * * * * * //

dimensions      [0 1 -1 0 0 0 0];

internalField   nonuniform List<vector> 
16000
(
(215.58243 -3.1402187e-17 -8.3828522)
(252.49329 0 5.3850289)
(238.54315 0 -7.5745511)
(246.26222 4.969637e-17 3.7855613)
(241.57319 -4.9053962e-17 -5.960811)
(243.77952 0 1.753617)
(241.9848 0 -4.3326751)
(242.49041 8.3963855e-17 -0.029666833)
(241.65051 -7.9772224e-17 -3.1650115)
(241.52848 0 -1.2703456)
(241.01445 7.2080117e-17 -2.5703027)
(240.66691 -2.0535632e-16 -1.9884769)
(240.22316 1.2997784e-16 -2.4281461)
(239.79434 -1.2363884e-16 -2.3649878)
(239.33748 1.173091e-16 -2.5263335)
(238.86678 -3.4798616e-18 -2.5982737)
(238.37748 -3.305728e-18 -2.7017966)
(237.87051 -9.7545849e-17 -2.794574)
(237.3453 1.9111345e-16 -2.8891143)
(236.80174 -9.067605e-17 -2.9814451)
(236.23964 1.7247801e-16 -3.0719505)
(235.65896 -1.6349506e-16 -3.1599341)
(235.0597 0 -3.2448985)
(234.44194 1.5218793e-16 -3.3262636)
(233.80588 -4.1192228e-18 -3.4034412)
(233.15182 -2.6561584e-16 -3.4758113)
(232.48016 1.2589284e-16 -3.5427473)
(231.79145 0 -3.6036096)
(231.08634 0 -3.6577624)
(230.36563 2.1863387e-16 -3.7045781)
(229.63024 -2.0370894e-16 -3.7434511)
(228.88125 0 -3.7738066)
(228.11985 0 -3.7951117)
(227.3474 0 -3.8068893)
(226.56535 5.1393741e-18 -3.8087285)
(225.77529 1.5596753e-16 -3.800296)
(224.97891 -1.4277563e-16 -3.7813482)
(224.17802 -1.3983724e-16 -3.7517381)
(223.37446 1.2381769e-16 -3.7114256)
(222.57018 0 -3.6604835)
(221.76713 -1.1850371e-16 -3.5990994)
(220.9673 1.118547e-16 -3.5275789)
(220.17265 -2.1198416e-16 -3.4463432)
(219.38513 2.0000244e-16 -3.3559253)
(218.60661 -1.9533061e-16 -3.2569636)
(217.8389 3.5761975e-16 -3.1501908)
(217.08368 5.6019984e-18 -3.036424)
(216.34254 2.9632553e-19 -2.9165488)
(215.6169 -1.5052617e-16 -2.791504)
(214.90807 1.4236319e-16 -2.6622647)
(214.21717 -1.2575104e-16 -2.5298249)
(213.54519 0 -2.3951794)
(212.89292 7.4738636e-18 -2.2593086)
(212.26103 0 -2.1231617)
(211.65001 6.6507571e-18 -1.9876421)
(211.06019 2.0708907e-16 -1.8535961)
(210.49173 -3.7850733e-16 -1.7218004)
(209.94461 1.0930813e-17 -1.5929517)
(209.41866 1.6819486e-16 -1.4676574)
(208.91342 -1.4887418e-16 -1.3464448)
(208.42822 1.4023042e-16 -1.2297373)
(207.96229 -8.8239132e-18 -1.1179019)
(207.51472 0 -1.01121)
(207.0844 0 -0.90984333)
(206.67005 -1.1119247e-16 -0.81391216)
(206.27012 1.1187062e-16 -0.72345014)
(205.88268 -9.9125353e-17 -0.6384227)
(205.50545 1.9348499e-16 -0.55872261)
(205.13594 -1.8882143e-16 -0.48415866)
(204.77174 8.3706509e-17 -0.41445135)
(204.41055 5.2857375e-18 -0.34923182)
(204.04985 0 -0.28803136)
(203.68631 4.7520165e-18 -0.23037907)
(203.31566 -4.5137041e-18 -0.17595188)
(202.93381 0 -0.12406973)
(202.53875 -3.3752217e-17 -0.074547914)
(202.12548 6.2473186e-17 -0.027019885)
(201.72567 -3.1746071e-17 0.031483215)
(201.1696 0 0.0092722449)
(200.9625 0 0.26761622)
(216.89193 0 -11.204263)
(254.12847 -3.7265016e-18 3.3384139)
(239.5489 -1.1976599e-16 -10.501033)
(247.71985 1.1042221e-16 1.7014293)
(242.67555 0 -8.823695)
(245.11452 1.0159461e-16 -0.40341075)
(243.11518 -1.8760715e-16 -7.0792257)
(243.71014 -1.0222791e-19 -2.3102266)
(242.77895 8.454706e-17 -5.7563862)
(242.65802 0 -3.669151)
(242.10332 -1.5272172e-16 -5.0469238)
(241.72704 1.4939036e-16 -4.4326916)
(241.25142 1.4208478e-16 -4.8586677)
(240.78835 -2.615583e-16 -4.7963487)
(240.29709 1.2023984e-16 -4.9375387)
(239.79013 1.1054232e-17 -5.0021508)
(239.26357 1.1559278e-16 -5.0900645)
(238.71803 -1.0294862e-16 -5.1690789)
(238.15311 0 -5.247524)
(237.56871 0 -5.3227081)
(236.96475 5.6808657e-18 -5.3945137)
(236.34126 -1.7821304e-16 -5.4622359)
(235.69835 3.3792611e-16 -5.5252445)
(235.03626 -3.1576734e-16 -5.5828602)
(234.3553 1.4272432e-16 -5.6343892)
(233.65595 0 -5.679124)
(232.9388 1.2448147e-16 -5.7163482)
(232.20458 -1.3348208e-16 -5.7453525)
(231.45415 0 -5.7654418)
(230.68854 3.5275774e-18 -5.7759467)
(229.90889 -1.3380076e-17 -5.7762349)
(229.11654 0 -5.7657271)
(228.31291 0 -5.7439043)
(227.4996 -1.7073324e-16 -5.7103283)
(226.67832 3.3901924e-16 -5.6646496)
(225.8509 -1.6279464e-16 -5.6066211)
(225.01924 -1.591961e-16 -5.5361112)
(224.18534 1.4570639e-16 -5.4531094)
(223.35127 -1.1222618e-16 -5.3577363)
(222.5191 -2.854338e-19 -5.2502476)
(221.69093 -2.669862e-19 -5.1310355)
(220.86882 2.3294044e-16 -5.0006272)
(220.05481 -1.0990463e-16 -4.8596804)
(219.25084 0 -4.7089748)
(218.45876 2.0250576e-16 -4.5494023)
(217.68032 1.1943863e-17 -4.3819523)
(216.9171 -5.122013e-18 -4.2076952)
(216.17056 -1.6464395e-16 -4.0277642)
(215.44195 0 -3.8433357)
(214.73238 -1.4664935e-16 -3.6556091)
(214.04276 -8.8637945e-18 -3.4657871)
(213.37385 2.6027801e-16 -3.275055)
(212.72622 -1.3017078e-16 -3.0845642)
(212.10027 0 -2.8954141)
(211.49626 -2.0395438e-17 -2.7086373)
(210.91428 -2.1133673e-16 -2.5251884)
(210.35429 3.61491e-16 -2.3459311)
(209.81605 -2.1540213e-16 -2.17163)
(209.29922 0 -2.0029424)
(208.80319 -1.7089307e-16 -1.8404271)
(208.32719 1.7958113e-16 -1.6845195)
(207.87028 2.6700024e-17 -1.5355755)
(207.43148 0 -1.3938534)
(207.00961 -1.4195717e-16 -1.2594985)
(206.60334 7.3254532e-18 -1.132574)
(206.21112 1.1175594e-16 -1.013058)
(205.83101 -1.9744403e-17 -0.90085495)
(205.46071 9.3032628e-17 -0.79579594)
(205.09766 -1.0515712e-16 -0.69762996)
(204.73931 5.510051e-18 -0.60602062)
(204.38325 -5.1988933e-18 -0.52052905)
(204.02702 0 -0.44058647)
(203.66734 -4.6383757e-18 -0.36567488)
(203.29972 4.3870415e-18 -0.29554942)
(202.91973 8.3086168e-18 -0.22946301)
(202.52563 9.8446295e-19 -0.1663338)
(202.11778 0 -0.10578703)
(201.688 3.0224133e-17 -0.051761499)
(201.205 -5.7576218e-17 -0.023892026)
(200.87963 2.5856044e-17 0.17366434)
(218.06786 0 -14.098872)
(255.61111 -1.2257128e-16 1.0925905)
(240.48988 2.4995424e-16 -13.511999)
(248.97864 -2.2322838e-16 -0.55079469)
(243.67336 1.102483e-16 -11.761019)
(246.24849 -3.2645252e-18 -2.7522122)
(244.12145 9.9363538e-17 -9.872732)
(244.74197 -9.4105978e-17 -4.7879085)
(243.75385 -5.5864545e-18 -8.4118267)
(243.6095 -5.3043263e-18 -6.2334855)
(243.01941 -1.0076333e-17 -7.6221165)
(242.60705 1.3901893e-16 -7.0135719)
(242.09593 -1.4091562e-16 -7.4081605)
(241.59432 1.3830055e-16 -7.3528389)
(241.06394 -1.1880809e-16 -7.4725828)
(240.5162 -1.5571507e-17 -7.529076)
(239.94762 0 -7.6013003)
(239.35878 -1.2230934e-20 -7.6653753)
(238.74938 -2.2648358e-16 -7.7266455)
(238.11942 -3.6683662e-19 -7.7830888)
(237.46893 1.7359419e-16 -7.8342726)
(236.79808 1.7051808e-17 -7.879407)
(236.10712 -2.1568214e-17 -7.9177404)
(235.39645 0 -7.9484889)
(234.66658 7.1241618e-21 -7.970862)
(233.91818 -1.6556919e-16 -7.9840662)
(233.15207 1.4791775e-16 -7.9873165)
(232.36919 8.255597e-18 -7.9798443)
(231.57069 0 -7.9609163)
(230.75784 -7.4063785e-18 -7.9298412)
(229.93208 -1.5167262e-21 -7.8859904)
(229.095 -1.9936918e-16 -7.8288093)
(228.24836 2.0079042e-16 -7.7578333)
(227.39402 1.1898267e-17 -7.6727063)
(226.53397 -1.801189e-16 -7.5731896)
(225.6703 1.4865299e-16 -7.4591787)
(224.80519 -1.811326e-16 -7.3307121)
(223.94084 1.5182168e-16 -7.1879805)
(223.0795 -1.4375054e-16 -7.0313292)
(222.22341 1.3547864e-16 -6.8612629)
(221.37476 1.6018977e-17 -6.6784421)
(220.53569 0 -6.4836755)
(219.70823 1.998208e-16 -6.2779123)
(218.8943 -2.418632e-16 -6.0622278)
(218.09568 0 -5.8378063)
(217.31396 1.7950706e-16 -5.605924)
(216.55059 -1.5752184e-16 -5.3679244)
(215.80679 1.6995685e-16 -5.1251979)
(215.0836 -1.7976826e-16 -4.8791572)
(214.38184 0 -4.631215)
(213.70217 1.7726256e-16 -4.3827626)
(213.04504 -1.3321863e-16 -4.1351477)
(212.4107 0 -3.8896571)
(211.79929 0 -3.6475006)
(211.21077 1.2481741e-16 -3.4097956)
(210.64494 -2.0845054e-16 -3.1775581)
(210.1015 1.2236333e-16 -2.9516918)
(209.58001 1.8414923e-16 -2.7329825)
(209.07987 1.9788251e-19 -2.5220906)
(208.60035 1.7599817e-19 -2.3195608)
(208.14049 -3.2411786e-16 -2.1258038)
(207.69925 8.9447911e-17 -1.9411263)
(207.27551 0 -1.7657414)
(206.86804 1.4215754e-16 -1.5997336)
(206.47545 -1.6306507e-16 -1.4430974)
(206.09616 1.1145108e-16 -1.2957378)
(205.72826 1.3153381e-17 -1.1574815)
(205.36944 -8.5994243e-17 -1.0280823)
(205.0171 1.154745e-17 -0.90722033)
(204.66859 2.1715621e-17 -0.79450189)
(204.32144 -1.021154e-16 -0.68941528)
(203.97324 9.6036186e-17 -0.59129738)
(203.62076 -7.235462e-17 -0.49963312)
(203.25937 1.3628797e-16 -0.41422825)
(202.88473 -5.6198467e-17 -0.33390133)
(202.49587 -6.0631174e-17 -0.25712903)
(202.09071 5.0094859e-17 -0.18698802)
(201.65564 0 -0.12668935)
(201.20941 3.2055869e-18 -0.06427653)
(200.8207 -1.2155523e-17 0.075582506)
(219.08494 0 -17.063115)
(256.94474 0 -1.2875194)
(241.2482 0 -16.658492)
(250.05773 1.0667871e-16 -2.9113814)
(244.48546 -1.2386939e-16 -14.829066)
(247.21613 -2.2061275e-16 -5.2196356)
(244.9468 2.0982228e-16 -12.785083)
(245.59573 -1.2427588e-17 -7.3933867)
(244.54327 5.9176629e-18 -11.178028)
(244.37152 -1.7401901e-16 -8.9296563)
(243.74145 1.7036294e-16 -10.308791)
(243.28754 1.012467e-17 -9.7199984)
(242.73604 -1.5374459e-16 -10.075085)
(242.19059 1.3657512e-16 -10.028297)
(241.61598 -1.3632233e-20 -10.125263)
(241.02233 -8.190982e-18 -10.171621)
(240.40673 0 -10.226504)
(239.76972 -7.3940537e-18 -10.273149)
(239.11113 -2.104774e-16 -10.314559)
(238.43108 2.1252487e-16 -10.34916)
(237.72974 1.2615161e-17 -10.376292)
(237.00741 -1.1960289e-17 -10.395076)
(236.26455 2.1552722e-16 -10.40466)
(235.50173 -1.7167882e-16 -10.404168)
(234.71969 1.0180984e-17 -10.39272)
(233.91935 1.9304874e-16 -10.36945)
(233.10177 -1.2770208e-16 -10.333508)
(232.26821 0 -10.284086)
(231.4201 1.4755888e-16 -10.220426)
(230.55905 -1.2385807e-16 -10.141845)
(229.68684 2.4962031e-16 -10.047743)
(228.80539 -1.3333638e-17 -9.9376322)
(227.91679 -2.0967644e-16 -9.8111488)
(227.02322 1.7390905e-16 -9.6680698)
(226.127 -1.8734436e-16 -9.5083264)
(225.23049 -3.0127918e-20 -9.3320189)
(224.3361 2.0943413e-16 -9.139423)
(223.44627 -3.1607031e-16 -8.9309941)
(222.56339 9.3025039e-17 -8.7073698)
(221.6898 3.5219661e-17 -8.469364)
(220.82777 -4.9801566e-17 -8.2179623)
(219.97941 0 -7.9543049)
(219.14671 -8.8614956e-17 -7.6796736)
(218.33146 1.3878718e-16 -7.3954689)
(217.53527 -2.0955541e-16 -7.1031887)
(216.75953 1.968973e-16 -6.8044044)
(216.0054 -2.0883845e-16 -6.500731)
(215.27383 3.9268447e-16 -6.1938033)
(214.56554 -3.0773481e-16 -5.8852494)
(213.88102 3.0858678e-16 -5.5766652)
(213.22056 -1.4483894e-16 -5.2695929)
(212.58427 1.3633826e-16 -4.9655006)
(211.97206 -9.5842384e-17 -4.6657634)
(211.38372 3.0053339e-17 -4.3716526)
(210.81889 0 -4.0843202)
(210.27708 0 -3.8047939)
(209.75771 0 -3.5339697)
(209.26009 2.3262255e-17 -3.2726081)
(208.78343 0 -3.0213308)
(208.3268 -1.6372137e-16 -2.7806294)
(207.88913 1.9165867e-16 -2.5508572)
(207.46923 -1.078744e-16 -2.3322435)
(207.06589 -1.1656682e-19 -2.124927)
(206.67781 2.5236923e-16 -1.9289133)
(206.30356 2.9639144e-17 -1.7441121)
(205.94156 -1.3841118e-16 -1.570344)
(205.58994 5.1903294e-17 -1.4073506)
(205.24641 -1.4581178e-16 -1.2548028)
(204.90834 -4.5560195e-17 -1.1123106)
(204.57299 -6.4041829e-17 -0.97942012)
(204.23787 -6.0052546e-17 -0.85553858)
(203.90058 5.6275561e-17 -0.73992731)
(203.55796 0 -0.63212)
(203.20534 0 -0.53185715)
(202.83872 -1.5509584e-17 -0.43732291)
(202.45709 0 -0.34759686)
(202.05505 6.850968e-18 -0.26901842)
(201.62429 5.1586875e-17 -0.19541425)
(201.20009 -7.2878704e-17 -0.10630997)
(200.76387 -1.0313574e-20 -0.023556657)
(219.92363 0 -20.225373)
(258.10537 -8.8188469e-18 -3.7448801)
(241.87209 2.667402e-16 -19.940441)
(250.91643 -2.491473e-16 -5.396801)
(245.06085 2.542384e-16 -18.01132)
(247.9804 -2.3260259e-16 -7.8398713)
(245.57159 -2.2173267e-16 -15.802795)
(246.23792 2.0989716e-16 -10.156908)
(245.12355 0 -14.04718)
(244.91405 0 -11.775829)
(244.24182 1.7988694e-16 -13.109751)
(243.73961 -1.7041787e-16 -12.559241)
(243.14303 -1.0124019e-17 -12.865076)
(242.54857 2.8796177e-17 -12.826062)
(241.92483 -9.1128364e-18 -12.898191)
(241.28046 3.4562941e-17 -12.930652)
(240.61312 0 -12.965242)
(239.9233 0 -12.990696)
(239.21096 -2.3604348e-16 -13.008413)
(238.47634 2.0933741e-16 -13.017041)
(237.71976 0 -13.015734)
(236.94173 0 -13.00351)
(236.14291 -1.9047165e-16 -12.979385)
(235.32414 3.6046409e-16 -12.942378)
(234.48645 -1.7048769e-16 -12.891509)
(233.63107 -2.0197674e-17 -12.825826)
(232.75941 -3.8254495e-17 -12.744427)
(231.87312 -1.449521e-16 -12.646474)
(230.97399 1.1968027e-16 -12.531217)
(230.06406 0 -12.398012)
(229.14548 -3.0652614e-17 -12.246346)
(228.22059 0 -12.075858)
(227.29184 0 -11.88635)
(226.3618 2.0692722e-16 -11.67781)
(225.43308 -2.1932687e-16 -11.450424)
(224.50834 2.3007394e-17 -11.204578)
(223.59021 -2.1708819e-17 -10.940872)
(222.6813 -4.1041813e-17 -10.660109)
(221.78411 -8.5764838e-20 -10.363298)
(220.90103 8.1461158e-20 -10.051631)
(220.03426 -7.6874077e-20 -9.7264824)
(219.18585 0 -9.3893707)
(218.35761 -1.2183336e-16 -9.041948)
(217.55111 1.144069e-16 -8.6859635)
(216.76767 0 -8.3232365)
(216.00837 -5.0708141e-17 -7.9556295)
(215.27402 1.9058527e-16 -7.5850114)
(214.56516 -2.2341923e-16 -7.2132329)
(213.88211 -2.1019455e-16 -6.8420977)
(213.22496 1.5759044e-16 -6.4733382)
(212.59359 1.1114554e-16 -6.108594)
(211.98768 -1.3873493e-16 -5.7493949)
(211.4068 -3.2526079e-17 -5.3971449)
(210.85033 -2.1367717e-16 -5.0531147)
(210.31758 1.1428157e-16 -4.7184306)
(209.80777 -1.0718382e-16 -4.3940739)
(209.32004 1.0025322e-16 -4.0808779)
(208.85344 2.3489425e-16 -3.7795263)
(208.407 -1.7567863e-16 -3.4905554)
(207.97961 0 -3.2143629)
(207.57007 -3.8443247e-17 -2.9512059)
(207.1771 -7.1959383e-17 -2.7012101)
(206.79939 1.3445866e-16 -2.46441)
(206.4356 1.2579729e-16 -2.2407136)
(206.08428 -2.3508047e-16 -2.02993)
(205.74386 8.2329641e-17 -1.8317841)
(205.4125 5.1320548e-17 -1.645923)
(205.08798 9.5943224e-17 -1.4719305)
(204.76768 1.3450066e-16 -1.3093442)
(204.44882 2.3991236e-20 -1.1576444)
(204.12884 0 -1.0161531)
(203.8054 0 -0.88408934)
(203.47537 -3.4226199e-17 -0.7610524)
(203.13422 9.6024652e-17 -0.64654378)
(202.77843 -8.9808838e-17 -0.53817315)
(202.40605 -8.406689e-17 -0.4365623)
(202.00951 5.2459621e-17 -0.34958606)
(201.58891 0 -0.25954967)
(201.18015 4.6083475e-17 -0.15279299)
(200.71209 1.7584029e-20 -0.12115115)
(220.56358 0 -23.559973)
(259.06734 1.8876306e-20 -6.2781519)
(242.30096 9.0767655e-18 -23.317792)
(251.60771 2.8856558e-16 -8.0209423)
(245.48107 3.3363855e-19 -21.297084)
(248.51334 -5.0614993e-16 -10.610825)
(245.95092 -3.2384269e-19 -18.915447)
(246.63972 4.5651227e-16 -13.08296)
(245.46326 -2.1004123e-16 -17.017109)
(245.2101 -1.2459143e-17 -14.771463)
(244.49427 1.1833166e-17 -16.02386)
(243.93871 -1.7968206e-16 -15.524366)
(243.29335 1.9142977e-16 -15.772959)
(242.64567 -1.8189052e-16 -15.737651)
(241.96845 3.0639916e-16 -15.782653)
(241.26881 -3.0870848e-16 -15.796726)
(240.54497 1.3758842e-16 -15.807603)
(239.79741 0 -15.807848)
(239.02628 0 -15.797728)
(238.23202 1.4656118e-17 -15.775899)
(237.4152 -2.7790176e-17 -15.741297)
(236.57662 0 -15.69278)
(235.71725 1.99561e-16 -15.62921)
(234.83832 4.7244839e-19 -15.54948)
(233.94125 -3.571509e-16 -15.452512)
(233.02769 1.6875578e-16 -15.337291)
(232.09954 1.9967055e-17 -15.202894)
(231.15887 0 -15.048499)
(230.208 -1.7887017e-16 -14.873424)
(229.2494 1.3487874e-16 -14.677144)
(228.28572 -2.2366738e-16 -14.459312)
(227.31974 2.1052598e-16 -14.219785)
(226.35433 -2.2784734e-16 -13.958634)
(225.39239 2.1446808e-16 -13.676166)
(224.43687 7.6028049e-17 -13.372923)
(223.49065 0 -13.049687)
(222.55656 0 -12.707478)
(221.63726 4.2373685e-17 -12.347544)
(220.73528 3.9910516e-17 -11.97134)
(219.85292 -3.7574968e-17 -11.580512)
(218.99225 3.5361233e-17 -11.176868)
(218.15507 6.6715223e-17 -10.762344)
(217.34289 -6.2660783e-17 -10.33898)
(216.55692 3.5328947e-16 -9.908874)
(215.79809 -2.7635462e-16 -9.4741533)
(215.06703 5.1868969e-17 -9.0369396)
(214.36406 -4.8806228e-17 -8.5993137)
(213.68927 0 -8.1632882)
(213.04248 2.145128e-16 -7.7307798)
(212.42329 -1.6067293e-16 -7.3035892)
(211.83114 0 -6.8833809)
(211.26528 0 -6.4716734)
(210.72484 1.3220566e-16 -6.0698264)
(210.20886 -6.179263e-17 -5.6790392)
(209.7163 0 -5.3003464)
(209.24607 -1.6235586e-16 -4.9346202)
(208.79705 1.0106176e-16 -4.582574)
(208.3681 1.4185302e-16 -4.2447646)
(207.95804 -1.7645067e-16 -3.9215974)
(207.56564 1.6492817e-16 -3.6133389)
(207.18959 -1.5384086e-16 -3.320115)
(206.82855 6.755659e-20 -3.0419234)
(206.48114 0 -2.7786715)
(206.14599 6.2528254e-17 -2.5301527)
(205.82165 -2.9153041e-16 -2.2960641)
(205.50659 1.6304129e-16 -2.0760261)
(205.19903 0 -1.8695874)
(204.89685 -1.4175158e-16 -1.6762432)
(204.59745 8.8052121e-17 -1.4954585)
(204.29804 1.2317911e-16 -1.3266392)
(203.99604 3.3268632e-20 -1.1690253)
(203.68911 -7.1288702e-17 -1.0218356)
(203.37416 9.9695358e-17 -0.8847113)
(203.04704 -1.5486846e-16 -0.7567436)
(202.70457 8.6619219e-17 -0.6352282)
(202.3433 2.690893e-17 -0.52292148)
(201.95484 5.0224646e-17 -0.42719173)
(201.54821 0 -0.31875887)
(201.15285 -4.3752031e-17 -0.20071966)
(200.66048 2.0372657e-17 -0.21601011)
(220.98904 0 -27.063012)
(259.82304 9.8129573e-18 -8.9177545)
(242.52991 -3.0601446e-16 -26.820324)
(252.1141 2.4986331e-16 -10.786884)
(245.70452 2.5665715e-16 -24.682094)
(248.80435 -5.0058158e-16 -13.536655)
(246.13043 2.3025576e-16 -22.110771)
(246.78532 2.3311736e-16 -16.171311)
(245.56616 -2.2092864e-16 -20.072489)
(245.24893 3.9325228e-17 -17.903197)
(244.48871 0 -19.038927)
(243.87435 0 -18.599666)
(243.17525 -2.2366028e-17 -18.787441)
(242.46852 -1.6980795e-16 -18.75164)
(241.73147 1.4052894e-16 -18.768854)
(240.9699 1.9063593e-17 -18.761039)
(240.18267 -3.6137053e-17 -18.745242)
(239.37039 3.0831794e-16 -18.716402)
(238.53354 -2.2657064e-16 -18.673986)
(237.67289 2.4592085e-16 -18.616538)
(236.78938 -2.0322097e-16 -18.542787)
(235.88423 2.7553613e-17 -18.451433)
(234.95888 1.5653994e-16 -18.341209)
(234.01502 -1.9688748e-16 -18.210915)
(233.05462 0 -18.059427)
(232.07988 0 -17.885728)
(231.09323 0 -17.688945)
(230.09735 -1.97198e-16 -17.468369)
(229.0951 1.8576116e-16 -17.223484)
(228.08951 -3.5198923e-17 -16.953991)
(227.08373 0 -16.659835)
(226.081 -2.8216794e-16 -16.341221)
(225.08459 2.3583234e-16 -15.998622)
(224.09774 -5.5780854e-17 -15.63279)
(223.12364 1.5774886e-16 -15.244757)
(222.16533 -4.9019746e-17 -14.835815)
(221.22568 -1.8593947e-16 -14.407517)
(220.30732 2.1935118e-16 -13.961642)
(219.41263 -1.6467523e-16 -13.500169)
(218.54367 7.7677642e-17 -13.025245)
(217.7022 -7.288764e-17 -12.539147)
(216.8896 1.3701481e-16 -12.044238)
(216.10694 -6.4201442e-17 -11.542931)
(215.35491 -2.416359e-16 -11.037646)
(214.6339 5.0952035e-16 -10.530769)
(213.94395 -2.1220851e-16 -10.024617)
(213.28483 -1.4954244e-16 -9.5214114)
(212.65606 9.2974155e-17 -9.0232428)
(212.0569 8.7459234e-17 -8.5320547)
(211.48645 -1.6361171e-16 -8.0496252)
(210.94363 1.5286532e-16 -7.5775558)
(210.42727 0 -7.1172662)
(209.93609 1.3379945e-16 -6.6699905)
(209.46877 -1.8740907e-16 -6.2367806)
(209.02396 5.8402674e-17 -5.8185098)
(208.60031 5.4427788e-17 -5.4158798)
(208.19648 0 -5.0294294)
(207.81114 0 -4.6595415)
(207.44297 0 -4.3064508)
(207.09065 0 -3.9702593)
(206.7528 0 -3.6509351)
(206.42805 -7.1505018e-17 -3.3483266)
(206.115 0 -3.0621992)
(205.81226 -5.5379687e-20 -2.7922187)
(205.51843 2.3088668e-16 -2.5379636)
(205.23202 -2.1478066e-16 -2.2989451)
(204.95135 -9.9980349e-17 -2.0746125)
(204.6744 -1.8589225e-16 -1.8643756)
(204.39866 2.5911291e-16 -1.6676252)
(204.12135 4.7305157e-20 -1.4836855)
(203.83988 7.4625183e-17 -1.3117298)
(203.55186 0 -1.1510175)
(203.2543 0 -1.0011634)
(202.94361 0 -0.86072074)
(202.61678 -1.113706e-16 -0.72707573)
(202.26839 0 -0.60534099)
(201.89061 -9.6216298e-17 -0.50031715)
(201.50106 1.3414846e-16 -0.37255749)
(201.11852 8.3168946e-17 -0.2482178)
(200.60808 -1.9266254e-17 -0.30632644)
(221.2043 0 -30.74325)
(260.37906 0 -11.66588)
(242.56534 3.2195898e-16 -30.454628)
(252.43946 1.9316768e-17 -13.711199)
(245.74277 -2.6941926e-16 -28.176885)
(248.91571 0 -16.6401)
(246.10865 1.6142594e-17 -25.384369)
(246.80474 -3.0599739e-17 -19.413482)
(245.42036 0 -23.192753)
(245.03333 1.9288875e-16 -21.154327)
(244.22164 -4.1760191e-16 -22.151173)
(243.53793 1.9774165e-16 -21.77989)
(242.77528 2.3470704e-17 -21.908935)
(241.9996 0 -21.868103)
(241.1928 2.1060235e-17 -21.856682)
(240.35958 -3.3972132e-16 -21.822621)
(239.49946 7.4892885e-17 -21.775607)
(238.61332 2.5036217e-16 -21.711984)
(237.70207 2.377678e-16 -21.630725)
(236.76691 -2.5646426e-16 -21.530256)
(235.80928 0 -21.40914)
(234.83094 -2.8776922e-16 -21.265968)
(233.83393 2.4433431e-16 -21.099394)
(232.82056 -2.059457e-16 -20.908194)
(231.79344 1.9410777e-16 -20.691277)
(230.75544 -1.839567e-16 -20.44772)
(229.70968 3.4702722e-16 -20.176819)
(228.65947 -1.6376315e-16 -19.878096)
(227.60832 1.548806e-16 -19.551348)
(226.55982 -2.9199884e-16 -19.196656)
(225.51764 1.3743247e-16 -18.814416)
(224.48547 1.2979541e-16 -18.405344)
(223.46689 -2.448922e-16 -17.970473)
(222.46541 5.685393e-17 -17.511155)
(221.4843 -5.7463964e-19 -17.029049)
(220.52661 2.5478188e-16 -16.52608)
(219.59508 0 -16.004429)
(218.6921 1.9409616e-19 -15.466482)
(217.81971 0 -14.914788)
(216.97952 -7.9528277e-17 -14.352016)
(216.17275 -1.4945988e-16 -13.780906)
(215.40019 7.0173861e-17 -13.204214)
(214.66227 0 -12.624677)
(213.95901 -6.1837903e-17 -12.044957)
(213.2901 2.8943276e-16 -11.467612)
(212.65491 -3.2494087e-16 -10.895056)
(212.05256 -3.0446528e-16 -10.329539)
(211.48193 2.84273e-16 -9.773119)
(210.94172 -1.7740487e-16 -9.2276555)
(210.43047 0 -8.6947968)
(209.94665 0 -8.1759798)
(209.48864 7.2404597e-17 -7.6724314)
(209.05482 6.7570364e-17 -7.1851759)
(208.64354 1.2592644e-16 -6.7150428)
(208.25319 -5.8720866e-17 -6.2626786)
(207.88222 -1.0938216e-16 -5.8285588)
(207.52912 -2.0397605e-16 -5.4130012)
(207.19244 -9.5160118e-17 -5.016176)
(206.87077 1.7666775e-16 -4.6381164)
(206.56274 0 -4.2787362)
(206.26697 -7.6521034e-17 -3.9378268)
(205.98206 -1.422344e-16 -3.615075)
(205.70665 1.3214922e-16 -3.3100962)
(205.4394 6.1292531e-17 -3.0224229)
(205.17892 5.7007084e-17 -2.7515134)
(204.92383 0 -2.4967704)
(204.67257 1.9652325e-16 -2.257548)
(204.42323 1.8235295e-16 -2.033176)
(204.17343 -2.53742e-16 -1.8229695)
(203.92046 7.8476939e-17 -1.6261675)
(203.6617 -7.2736398e-17 -1.4419044)
(203.39467 -4.292376e-20 -1.2695087)
(203.11655 2.499899e-16 -1.1084614)
(202.82446 -2.3168288e-16 -0.95673344)
(202.51529 5.3638875e-17 -0.81229546)
(202.18141 1.4919824e-16 -0.6824526)
(201.81688 -4.608851e-17 -0.56752626)
(201.44695 -4.2691533e-17 -0.42034882)
(201.07654 0 -0.29354509)
(200.55355 3.6555852e-17 -0.38641611)
(221.21992 3.9156849e-16 -34.610398)
(260.74049 5.429185e-19 -14.529849)
(242.38533 -3.5885858e-16 -34.236859)
(252.57739 0 -16.799494)
(245.51909 0 -31.74723)
(248.68519 -2.6773783e-16 -19.916676)
(245.7822 2.7085292e-16 -28.712757)
(246.30755 6.4239922e-17 -22.816616)
(245.00519 -2.438278e-16 -26.413583)
(244.53854 2.3062839e-16 -24.551381)
(243.66486 -2.4649236e-16 -25.388024)
(242.89896 2.0717826e-16 -25.080269)
(242.06066 -4.9150438e-17 -25.150115)
(241.20433 -4.6609154e-17 -25.094632)
(240.31627 -1.7661957e-16 -25.049534)
(239.40033 1.6682111e-16 -24.981463)
(238.45671 -3.5625742e-16 -24.895259)
(237.4867 5.9885002e-16 -24.787965)
(236.49174 -2.8294999e-16 -24.65816)
(235.47362 -2.6847648e-16 -24.504133)
(234.43446 2.5317675e-16 -24.324314)
(233.3767 -3.0151161e-17 -24.117221)
(232.30313 -2.2695975e-16 -23.881508)
(231.21685 2.137982e-16 -23.616021)
(230.12127 2.5327124e-16 -23.319818)
(229.02004 -1.4281124e-16 -22.992218)
(227.91704 0 -22.632838)
(226.81632 2.5540621e-16 -22.24162)
(225.72202 -3.2079935e-16 -21.818862)
(224.63831 1.1287543e-16 -21.365229)
(223.56932 -2.8538619e-16 -20.881764)
(222.51905 2.0106771e-16 -20.369884)
(221.4913 -6.3356572e-17 -19.831366)
(220.4896 2.3809068e-16 -19.268316)
(219.51715 -2.2333338e-16 -18.683152)
(218.57673 -2.1048958e-16 -18.078536)
(217.67071 1.972862e-16 -17.457344)
(216.80099 -4.6271758e-17 -16.822606)
(215.96897 0 -16.177441)
(215.17557 8.1883944e-17 -15.525008)
(214.42124 -7.6425372e-17 -14.868445)
(213.70598 0 -14.210816)
(213.02937 1.345753e-16 -13.555066)
(212.39063 -6.2952453e-17 -12.903979)
(211.78865 -1.7651287e-16 -12.260143)
(211.22205 5.505888e-16 -11.625932)
(210.68924 -2.0614855e-16 -11.00348)
(210.18847 9.6148351e-17 -10.394682)
(209.71787 -2.6960029e-16 -9.8011831)
(209.27549 -1.8428216e-19 -9.224385)
(208.85936 1.5631595e-16 -8.6654557)
(208.46752 -1.4582476e-16 -8.1253384)
(208.09802 -6.7862974e-17 -7.6047679)
(207.749 -6.3213359e-17 -7.1042862)
(207.41866 -1.1803463e-16 -6.6242584)
(207.10531 2.1919615e-16 -6.1648909)
(206.80735 0 -5.7262461)
(206.52326 9.472283e-17 -5.3082556)
(206.25163 -3.5246885e-16 -4.9107332)
(205.99109 2.4530455e-16 -4.5333915)
(205.74027 7.5915191e-17 -4.1758373)
(205.49785 1.4103035e-16 -3.8375929)
(205.26253 1.3103864e-16 -3.5181246)
(205.03302 -1.2124168e-16 -3.2168328)
(204.80802 -1.1235059e-16 -2.9330598)
(204.58625 -3.1253087e-16 -2.666106)
(204.36627 -4.0915978e-20 -2.4152397)
(204.14635 -8.9311943e-17 -2.1797176)
(203.92426 0 -1.9587776)
(203.6974 -2.2958801e-16 -1.7515785)
(203.46311 7.0795613e-17 -1.5572535)
(203.21877 0 -1.3752006)
(202.96186 1.2111595e-16 -1.2046384)
(202.69027 0 -1.0430306)
(202.4004 1.0346373e-16 -0.88944028)
(202.08256 -1.4337968e-16 -0.75278878)
(201.73399 1.3249843e-16 -0.62737386)
(201.38589 -8.1597482e-17 -0.46168106)
(201.0264 7.5368095e-17 -0.33723339)
(200.49602 0 -0.46232137)
(221.02331 -4.1135743e-16 -38.670839)
(260.89447 3.6337272e-16 -17.527408)
(241.95425 -3.3292423e-16 -38.19697)
(252.45961 3.3105019e-16 -20.064599)
(245.01093 3.1702476e-16 -35.376065)
(248.22789 -1.8019545e-17 -23.378834)
(245.2134 -2.8386126e-16 -32.124149)
(245.68297 -2.6946754e-16 -26.412047)
(244.29399 2.8681481e-16 -29.754138)
(243.71972 0 -28.095529)
(242.7736 2.8618758e-17 -28.756561)
(241.91298 0 -28.500106)
(240.98638 -1.2872266e-16 -28.510277)
(240.03713 2.4304602e-16 -28.42849)
(239.05566 0 -28.341908)
(238.04533 0 -28.229538)
(237.00714 0 -28.093187)
(235.94302 3.9144601e-17 -27.930172)
(234.85515 0 -27.738779)
(233.74612 -2.4482579e-16 -27.5172)
(232.6189 3.2986516e-16 -27.2638)
(231.47686 1.2481702e-16 -26.97714)
(230.32374 1.7698659e-16 -26.655995)
(229.16359 -2.7799956e-16 -26.299443)
(228.00075 -5.2387551e-17 -25.906881)
(226.83977 -2.4792756e-16 -25.47808)
(225.68537 1.8659807e-16 -25.013217)
(224.54232 -2.2039524e-16 -24.512902)
(223.41537 8.2458872e-17 -23.97818)
(222.30915 7.7961649e-17 -23.410547)
(221.22808 0 -22.811926)
(220.17628 2.773599e-16 -22.18464)
(219.1575 -2.6049996e-16 -21.531385)
(218.17502 0 -20.855166)
(217.2316 -2.302986e-16 -20.159253)
(216.32948 2.1570885e-16 -19.447104)
(215.47029 -1.0165677e-16 -18.722301)
(214.65509 1.9032337e-16 -17.988482)
(213.88436 -2.6742184e-16 -17.249266)
(213.15805 1.2800433e-19 -16.50819)
(212.47559 -1.5624871e-16 -15.768653)
(211.836 -7.3124223e-17 -15.033863)
(211.2379 -1.3724607e-16 -14.306803)
(210.67957 2.5585086e-16 -13.590193)
(210.15907 -1.1939328e-16 -12.886477)
(209.67427 0 -12.197809)
(209.22288 -3.8276473e-19 -11.526052)
(208.80257 9.7128441e-17 -10.872785)
(208.41096 0 -10.239312)
(208.04571 8.448254e-17 -9.6266738)
(207.7045 7.8995137e-17 -9.0356753)
(207.3851 -7.3344974e-17 -8.4668981)
(207.08538 2.7307084e-16 -7.9207252)
(206.80334 -2.5385507e-16 -7.3973621)
(206.53708 -1.180645e-16 -6.8968569)
(206.28488 -1.0968073e-16 -6.4191206)
(206.04511 1.0184245e-16 -5.9639431)
(205.81628 1.8891452e-16 -5.5310081)
(205.59701 -3.5042479e-16 -5.1199054)
(205.386 4.0611469e-16 -4.7301472)
(205.18197 -1.5047589e-16 -4.361159)
(204.98369 1.3947922e-16 -4.0123054)
(204.78996 -1.2911269e-16 -3.6829134)
(204.59959 2.391176e-16 -3.3722593)
(204.41139 -3.3193945e-16 -3.0795798)
(204.2242 2.0461997e-16 -2.8040844)
(204.03673 -8.2416886e-20 -2.5449685)
(203.84741 8.7460133e-17 -2.3014242)
(203.65423 0 -2.072612)
(203.45473 0 -1.8576264)
(203.24619 0 -1.6556397)
(203.02588 -1.270891e-16 -1.4660811)
(202.79161 1.6939184e-20 -1.2877867)
(202.54204 0 -1.1179303)
(202.27274 0 -0.95708107)
(201.9724 9.1906969e-17 -0.81476492)
(201.64272 -1.6936574e-16 -0.67833359)
(201.31823 0 -0.49607819)
(200.96764 0 -0.37845252)
(200.43547 -1.3190711e-16 -0.53210138)
(220.58072 2.7767228e-17 -42.934142)
(260.80381 -7.8674396e-16 -20.681063)
(241.24449 3.4830443e-16 -42.296991)
(251.81581 -2.1760883e-17 -23.510963)
(244.18803 3.7367003e-16 -39.126805)
(247.43557 -3.5238172e-16 -27.064832)
(244.33408 0 -35.652175)
(244.67167 -3.1742229e-16 -30.199728)
(243.23133 2.3335034e-16 -33.209581)
(242.53281 2.2163827e-16 -31.778917)
(241.50076 -2.3924144e-16 -32.259159)
(240.53131 0 -32.035059)
(239.50197 1.9141111e-19 -31.983428)
(238.44621 0 -31.861473)
(237.3581 3.8537705e-16 -31.721989)
(236.24101 -7.2801426e-16 -31.55163)
(235.09692 3.4370096e-16 -31.350376)
(233.92863 -4.0600715e-17 -31.115645)
(232.73933 -3.858107e-17 -30.845546)
(231.5327 3.6669475e-17 -30.538264)
(230.31283 -6.8474533e-17 -30.192254)
(229.08427 -3.2438498e-16 -29.806277)
(227.85189 3.0530352e-16 -29.379466)
(226.62089 5.7553882e-17 -28.911386)
(225.39664 -2.7275811e-16 -28.402057)
(224.18464 -6.9875682e-19 -27.852018)
(222.99041 2.8969687e-16 -27.262325)
(221.81935 -1.8182743e-16 -26.634563)
(220.67663 -6.1458997e-19 -25.970836)
(219.56711 0 -25.273736)
(218.4952 0 -24.546303)
(217.46478 -7.155142e-17 -23.791962)
(216.47913 1.3395324e-16 -23.014466)
(215.54086 0 -22.217803)
(214.65188 -1.1839818e-16 -21.406121)
(213.8134 2.215387e-16 -20.583642)
(213.02594 -1.0379024e-16 -19.754564)
(212.28935 -1.9450662e-16 -18.922996)