/*--------------------------------*- C++ -*----------------------------------*\
  =========                 |
  \\      /  F ield         | OpenFOAM: The Open Source CFD Toolbox
   \\    /   O peration     | Website:  https://openfoam.org
    \\  /    A nd           | Version:  12
     \\/     M anipulation  |
\*---------------------------------------------------------------------------*/
FoamFile
{
    format      ascii;
    class       volVectorField;
    location    "0.115";
    object      U;
}
// * * * * * * * * * * * * * * * * * * * * * * * * * * * * * * * * * * * * * //

dimensions      [0 1 -1 0 0 0 0];

internalField   nonuniform List<vector> 
16000
(
(215.4099 -3.1394285e-17 -8.3664728)
(252.28319 0 5.3724405)
(238.3808 0 -7.5522099)
(246.06203 4.9685574e-17 3.7844165)
(241.3869 -4.9042138e-17 -5.9314176)
(243.585 0 1.7545555)
(241.79729 0 -4.3029215)
(242.29956 8.3944331e-17 -0.021812371)
(241.46276 -7.9753061e-17 -3.1363377)
(241.34008 0 -1.2536669)
(240.82755 7.2062283e-17 -2.542008)
(240.48035 -2.0530489e-16 -1.9633977)
(240.03743 1.2994474e-16 -2.397578)
(239.60925 -1.2360668e-16 -2.3330388)
(239.15307 1.172782e-16 -2.4909877)
(238.68304 -3.4788548e-18 -2.560068)
(238.1944 -3.3047561e-18 -2.6603599)
(237.68807 -9.7518781e-17 -2.7498071)
(237.16351 1.9105964e-16 -2.8408545)
(236.62056 -9.0650236e-17 -2.9295392)
(236.05908 1.7242792e-16 -3.0162445)
(235.479 -1.6344728e-16 -3.1002713)
(234.88032 0 -3.1811206)
(234.26312 1.5214202e-16 -3.2582093)
(233.62761 -4.1181518e-18 -3.3309465)
(232.97406 -2.6553456e-16 -3.3987089)
(232.3029 1.258541e-16 -3.4608663)
(231.61464 0 -3.5167758)
(230.90995 0 -3.5657976)
(230.18961 2.1856467e-16 -3.6073006)
(229.45454 -2.036446e-16 -3.6406755)
(228.7058 0 -3.665344)
(227.9446 0 -3.6807693)
(227.17225 0 -3.686471)
(226.3902 5.1376029e-18 -3.6820344)
(225.60004 1.5591749e-16 -3.6671225)
(224.80344 -1.4273017e-16 -3.6414873)
(224.00217 -1.3979258e-16 -3.6049776)
(223.19808 1.2377863e-16 -3.5575483)
(222.39308 0 -3.4992683)
(221.58912 -1.1846656e-16 -3.4303209)
(220.78815 1.1181994e-16 -3.3510093)
(219.99213 -2.119191e-16 -3.2617529)
(219.20297 1.9994173e-16 -3.1630845)
(218.42255 -1.952723e-16 -3.0556437)
(217.65264 3.5751498e-16 -2.9401662)
(216.89495 5.6006583e-18 -2.8174726)
(216.15105 2.9671322e-19 -2.688454)
(215.42238 -1.5048493e-16 -2.5540557)
(214.71025 1.4232595e-16 -2.4152616)
(214.01581 -1.2571894e-16 -2.2730762)
(213.34003 0 -2.1285069)
(212.68373 7.4719346e-18 -1.982548)
(212.04754 0 -1.836163)
(211.43191 6.6492099e-18 -1.690271)
(210.83711 2.0704977e-16 -1.5457351)
(210.26325 -3.7843993e-16 -1.4033518)
(209.71026 1.0926828e-17 -1.2638429)
(209.17791 1.6816966e-16 -1.1278462)
(208.66579 -1.4885669e-16 -0.99592263)
(208.17331 1.4021477e-16 -0.86853039)
(207.69973 -8.8229491e-18 -0.74606398)
(207.24417 0 -0.62881359)
(206.80553 0 -0.51695667)
(206.38244 -1.1119203e-16 -0.41057763)
(205.97337 1.1187102e-16 -0.30966491)
(205.57662 -9.9130394e-17 -0.2141269)
(205.19032 1.9349838e-16 -0.12380854)
(204.81229 -1.8883995e-16 -0.038506268)
(204.44009 8.3716456e-17 0.042039622)
(204.0711 5.2864817e-18 0.11811831)
(203.70282 0 0.18986436)
(203.33333 4.7530451e-18 0.25736668)
(202.96111 -4.5148561e-18 0.32109731)
(202.58479 0 0.38192268)
(202.21257 -3.3765891e-17 0.43518071)
(201.76186 6.2490283e-17 0.46731901)
(201.56775 -3.1758786e-17 0.62731533)
(200.73276 0 0.2830685)
(201.01049 0 1.2642455)
(216.72125 0 -11.186281)
(253.91881 -3.7258929e-18 3.3303253)
(239.34257 -1.197466e-16 -10.478685)
(247.5226 1.1040258e-16 1.6958442)
(242.49129 0 -8.7967469)
(244.92171 1.0157482e-16 -0.40450789)
(242.92857 -1.8756782e-16 -7.0509181)
(243.52008 -1.0205458e-19 -2.3029892)
(242.59136 8.4528815e-17 -5.7285271)
(242.46965 0 -3.6522178)
(241.91615 -1.526871e-16 -5.0188135)
(241.54006 1.4935602e-16 -4.4070242)
(241.06511 1.4205109e-16 -4.8277997)
(240.60259 -2.6149542e-16 -4.7637297)
(240.11195 1.2021054e-16 -4.9016335)
(239.60561 1.1051386e-17 -4.9633016)
(239.0797 1.155633e-16 -5.0480321)
(238.53482 -1.0292228e-16 -5.1237536)
(237.97058 0 -5.1987757)
(237.38685 0 -5.2703999)
(236.78357 5.6791994e-18 -5.3385081)
(236.16075 -1.7816373e-16 -5.4023904)
(235.5185 3.378318e-16 -5.4614137)
(234.85706 -3.156785e-16 -5.5148949)
(234.17674 1.4268416e-16 -5.5621369)
(233.478 0 -5.6024287)
(232.76144 1.2444539e-16 -5.6350507)
(232.02777 -1.33443e-16 -5.6592901)
(231.27786 0 -5.6744483)
(230.51272 3.5262845e-18 -5.6798529)
(229.7335 -1.3375768e-17 -5.674868)
(228.9415 0 -5.6589111)
(228.13817 0 -5.6314597)
(227.32506 -1.7068203e-16 -5.5920722)
(226.50389 3.3891715e-16 -5.5403952)
(225.67646 -1.6274584e-16 -5.4761779)
(224.84467 -1.5914834e-16 -5.3992841)
(224.01051 1.4566291e-16 -5.3096992)
(223.17601 -1.1219296e-16 -5.2075395)
(222.34323 -2.8526063e-19 -5.0930567)
(221.51424 -2.6686279e-19 -4.9666394)
(220.6911 2.3287286e-16 -4.8288123)
(219.87581 -1.0987312e-16 -4.6802315)
(219.07031 0 -4.5216762)
(218.27643 2.0244985e-16 -4.3540388)
(217.4959 1.1940651e-17 -4.1783103)
(216.7303 -5.1203731e-18 -3.9955639)
(215.98109 -1.6460112e-16 -3.8069372)
(215.24954 0 -3.6136123)
(214.53677 -1.4661413e-16 -3.4167963)
(213.8437 -8.8626358e-18 -3.2177012)
(213.17109 2.6022005e-16 -3.017523)
(212.51953 -1.3014301e-16 -2.8174243)
(211.88939 0 -2.618516)
(211.28092 -2.0391449e-17 -2.4218427)
(210.69414 -2.1130133e-16 -2.2283717)
(210.12895 3.6143459e-16 -2.0389819)
(209.58508 -2.1537031e-16 -1.8544575)
(209.06213 0 -1.6754801)
(208.55952 -1.7087602e-16 -1.5026366)
(208.07652 1.7956404e-16 -1.3363945)
(207.61226 2.669798e-17 -1.177135)
(207.16576 0 -1.0251378)
(206.73582 -1.4195445e-16 -0.88055115)
(206.32102 7.3229291e-18 -0.74342199)
(205.91974 1.1175792e-16 -0.61369189)
(205.53025 -1.9745298e-17 -0.49121265)
(205.15063 9.3041725e-17 -0.37576831)
(204.77873 -1.0516763e-16 -0.26709019)
(204.41209 5.5109577e-18 -0.16484932)
(204.04804 -5.1999146e-18 -0.068713832)
(203.68394 0 0.021453568)
(203.3178 -4.6396145e-18 0.10586112)
(202.94877 4.3883752e-18 0.18558095)
(202.5755 8.3111206e-18 0.25995693)
(202.18937 9.8480692e-19 0.32027722)
(201.793 0 0.39006242)
(201.46502 3.0241169e-17 0.49926125)
(200.83764 -5.7579381e-17 0.24897687)
(200.90031 2.5866972e-17 1.1350432)
(217.89478 0 -14.078499)
(255.40155 -1.2255441e-16 1.0874414)
(240.31583 2.4991157e-16 -13.488435)
(248.77858 -2.2319508e-16 -0.55641287)
(243.4861 1.1022876e-16 -11.733835)
(246.05331 -3.2640263e-18 -2.7521257)
(243.93276 9.9344855e-17 -9.8437145)
(244.55016 -9.4088511e-17 -4.7795333)
(243.56477 -5.5852457e-18 -8.382836)
(243.41985 -5.3031506e-18 -6.2152823)
(242.83114 -1.0074033e-17 -7.5929014)
(242.41917 1.3898927e-16 -6.9865092)
(241.90886 -1.4088522e-16 -7.3761794)
(241.40794 1.3826945e-16 -7.3189487)
(240.87831 -1.1878112e-16 -7.435543)
(240.33131 -1.5567857e-17 -7.4891111)
(239.76348 0 -7.5582281)
(239.17541 -1.2522963e-20 -7.6190863)
(238.56678 -2.2642703e-16 -7.6770213)
(237.93759 -3.6622512e-19 -7.7300031)
(237.28788 1.7355028e-16 -7.7775979)
(236.61779 1.7047259e-17 -7.8190108)
(235.92759 -2.1562543e-17 -7.8534876)
(235.21767 0 -7.8802404)
(234.48854 7.5563534e-21 -7.8984758)
(233.74085 -1.6552365e-16 -7.9073971)
(232.97542 1.4787764e-16 -7.9062161)
(232.1932 8.2535025e-18 -7.8941613)
(231.39531 0 -7.8704964)
(230.58302 -7.4044751e-18 -7.8345275)
(229.75778 -8.5696082e-22 -7.7856224)
(228.92116 -1.9931299e-16 -7.7232237)
(228.07489 2.0073386e-16 -7.6468636)
(227.22084 1.1894033e-17 -7.5561827)
(226.36099 -1.8006768e-16 -7.4509382)
(225.49741 1.4861163e-16 -7.3310222)
(224.63225 -1.8108084e-16 -7.196469)
(223.76771 1.5177913e-16 -7.0474653)
(222.90603 -1.4371118e-16 -6.8843522)
(222.0494 1.3544114e-16 -6.7076309)
(221.20002 1.601417e-17 -6.5179586)
(220.35998 0 -6.3161411)
(219.53133 1.997681e-16 -6.1031261)
(218.71594 -2.4179879e-16 -5.8799874)
(217.91559 0 -5.6479094)
(217.13186 1.7946162e-16 -5.4081689)
(216.36619 -1.5748346e-16 -5.1621118)
(215.6198 1.6991651e-16 -4.9111319)
(214.89375 -1.7972593e-16 -4.6566472)
(214.18887 0 -4.4000773)
(213.50582 1.7722427e-16 -4.1428219)
(212.84508 -1.3319125e-16 -3.8862374)
(212.20691 0 -3.6316201)
(211.59142 0 -3.3801885)
(210.99856 1.2479739e-16 -3.1330685)
(210.42809 -2.0841861e-16 -2.8912853)
(209.87965 1.223465e-16 -2.6557535)
(209.35273 1.8412878e-16 -2.427273)
(208.84673 1.999146e-19 -2.206524)
(208.36089 1.7804837e-19 -1.994074)
(207.89431 -3.2409537e-16 -1.7903648)
(207.446 8.9442782e-17 -1.5957261)
(207.01485 0 -1.4103919)
(206.59957 1.4215776e-16 -1.234454)
(206.19865 -1.6306614e-16 -1.0678949)
(205.81043 1.114566e-16 -0.91058993)
(205.43312 1.315661e-17 -0.76232151)
(205.06479 -8.600118e-17 -0.62280472)
(204.7033 1.1549172e-17 -0.4916982)
(204.34622 2.1718492e-17 -0.36860777)
(203.99087 -1.0213532e-16 -0.2531847)
(203.63458 9.6056099e-17 -0.14526379)
(203.27549 -7.2374574e-17 -0.044386395)
(202.9129 1.3632842e-16 0.050460141)
(202.54382 -5.6216053e-17 0.13678533)
(202.16143 -6.0653381e-17 0.21049114)
(201.78556 5.0112713e-17 0.3001568)
(201.40864 0 0.37856416)
(200.87799 3.2069944e-18 0.21521779)
(200.83679 -1.2162744e-17 0.9942432)
(218.90996 0 -17.039727)
(256.73416 0 -1.2915628)
(241.06554 0 -16.631931)
(249.85807 1.0666313e-16 -2.9132478)
(244.29778 -1.2384822e-16 -14.798614)
(247.02063 -2.2057703e-16 -5.2167243)
(244.75781 2.0978541e-16 -12.753393)
(245.40381 -1.2425141e-17 -7.3825316)
(244.35409 5.9166886e-18 -11.14699)
(244.18189 -1.7398594e-16 -8.9091719)
(243.55324 1.7033035e-16 -10.277955)
(243.09984 1.0122845e-17 -9.6909461)
(242.54921 -1.5371326e-16 -10.041606)
(242.00454 1.3654681e-16 -9.9928048)
(241.43076 -1.3986759e-20 -10.086824)
(240.83794 -8.1886633e-18 -10.130331)
(240.22318 0 -10.182223)
(239.58702 -7.3925137e-18 -10.22576)
(238.92929 -2.1042771e-16 -10.26395)
(238.2501 2.1247479e-16 -10.295211)
(237.54962 1.2612388e-17 -10.31888)
(236.82816 -1.195762e-17 -10.334076)
(236.08615 2.1547323e-16 -10.339946)
(235.32417 -1.7163598e-16 -10.33561)
(234.54296 1.0178621e-17 -10.320184)
(233.74342 1.9299893e-16 -10.292801)
(232.92661 -1.2766966e-16 -10.252609)
(232.0938 0 -10.198796)
(231.2464 1.4751947e-16 -10.130603)
(230.38602 -1.2382548e-16 -10.047343)
(229.51441 2.4955393e-16 -9.9484151)
(228.6335 -1.3331038e-17 -9.8333282)
(227.74536 -2.0962066e-16 -9.7017145)
(226.85217 1.7386166e-16 -9.5533483)
(225.95623 -1.8729447e-16 -9.3881574)
(225.05988 -2.903683e-20 -9.2062384)
(224.16552 2.0937823e-16 -9.0078631)
(223.27557 -3.1598668e-16 -8.7934831)
(222.39241 9.3001202e-17 -8.5637319)
(221.51836 3.5209593e-17 -8.3194201)
(220.65566 -4.9788298e-17 -8.0615295)
(219.8064 0 -7.7911975)
(218.97256 -8.8592074e-17 -7.5097034)
(218.15592 1.3875376e-16 -7.2184461)
(217.35806 -2.0950517e-16 -6.9189224)
(216.58037 1.9685098e-16 -6.612704)
(215.82401 -2.0879165e-16 -6.3014075)
(215.08993 3.9259673e-16 -5.9866706)
(214.37884 -3.0766888e-16 -5.6701259)
(213.69127 3.0852388e-16 -5.3533756)
(213.02752 -1.4481227e-16 -5.0379689)
(212.3877 1.3631356e-16 -4.7253814)
(211.77175 -9.5826209e-17 -4.4169957)
(211.17944 3.0047707e-17 -4.1140897)
(210.6104 0 -3.8178215)
(210.0641 0 -3.5292248)
(209.53992 0 -3.2492027)
(209.03709 2.3260391e-17 -2.9785259)
(208.5548 0 -2.7178312)
(208.09212 -1.6371051e-16 -2.4676298)
(207.648 1.9164605e-16 -2.2283019)
(207.22131 -1.0787058e-16 -2.0001)
(206.81083 -1.1861306e-19 -1.783182)
(206.41519 2.5237056e-16 -1.577563)
(206.03283 2.964279e-17 -1.3831435)
(205.66204 -1.3841677e-16 -1.1997189)
(205.301 5.1909855e-17 -1.0269947)
(204.94776 -1.4582524e-16 -0.86461106)
(204.60023 -4.5565295e-17 -0.71215433)
(204.25603 -6.4052063e-17 -0.56917852)
(203.91249 -6.0065312e-17 -0.43532486)
(203.56696 5.6287215e-17 -0.31035558)
(203.21771 0 -0.19362843)
(202.86377 0 -0.084613024)
(202.50153 -1.551509e-17 0.013599343)
(202.12837 0 0.10190859)
(201.75988 6.8535824e-18 0.20217303)
(201.3698 5.1613055e-17 0.26598408)
(200.90628 -7.2885524e-17 0.17874037)
(200.77393 -1.5246115e-20 0.8516799)
(219.74886 0 -20.198816)
(257.89574 -8.8177069e-18 -3.7472476)
(241.68926 2.6669841e-16 -19.912197)
(250.71718 -2.4911467e-16 -5.3964084)
(244.87439 2.541983e-16 -17.979437)
(247.78587 -2.3256818e-16 -7.8347849)
(245.38342 -2.2169608e-16 -15.769469)
(246.0469 2.0986359e-16 -10.143942)
(244.93531 0 -14.014629)
(244.72535 0 -11.753236)
(244.05453 1.7985435e-16 -13.077517)
(243.55291 -1.703862e-16 -12.528283)
(242.95726 -1.0122268e-17 -12.830136)
(242.36365 2.879027e-17 -12.788992)
(241.74079 -9.1111727e-18 -12.858333)
(241.09733 3.4555755e-17 -12.888016)
(240.4309 0 -12.919716)
(239.74201 0 -12.942168)
(239.0306 -2.3599104e-16 -12.956777)
(238.29692 2.092911e-16 -12.962184)
(237.5413 0 -12.957541)
(236.76421 0 -12.941864)
(235.96633 -1.9042759e-16 -12.914169)
(235.1485 3.6037824e-16 -12.87347)
(234.31172 -1.704469e-16 -12.818785)
(233.45724 -2.0193203e-17 -12.749163)
(232.58645 -3.8245065e-17 -12.663698)
(231.701 -1.4491591e-16 -12.561551)
(230.80267 1.1965024e-16 -12.44197)
(229.89349 0 -12.304308)
(228.9756 -3.0644137e-17 -12.148051)
(228.05133 0 -11.972833)
(227.12313 0 -11.778455)
(226.19354 2.0687447e-16 -11.564902)
(225.26517 -2.1927101e-16 -11.332356)
(224.34065 2.3002138e-17 -11.081199)
(223.42262 -2.1703888e-17 -10.812028)
(222.51365 -4.1030531e-17 -10.525642)
(221.61624 -8.3822264e-20 -10.223045)
(220.73273 7.9623596e-20 -9.9054271)
(219.86535 -7.51374e-20 -9.5741564)
(219.01609 0 -9.2307495)
(218.18675 -1.2180485e-16 -8.8768552)
(217.3789 1.1438066e-16 -8.5142201)
(216.59384 0 -8.1446622)
(215.83265 -5.0695796e-17 -7.7700438)
(215.09611 1.9054527e-16 -7.3922344)
(214.38479 -2.2337462e-16 -7.0130876)
(213.69901 -2.1015267e-16 -6.6344111)
(213.03887 1.575607e-16 -6.2579425)
(212.40428 1.1112529e-16 -5.8853276)
(211.79493 -1.3871139e-16 -5.5181028)
(211.21039 -3.2521834e-17 -5.1576779)
(210.65007 -2.1364596e-16 -4.8053288)
(210.11325 1.1426605e-16 -4.4621859)
(209.5991 -1.0717158e-16 -4.1292341)
(209.10673 1.0024225e-16 -3.8073107)
(208.63514 2.3487289e-16 -3.4971064)
(208.18331 -1.7566461e-16 -3.199169)
(207.75012 0 -2.9139135)
(207.3344 -3.8442706e-17 -2.6416192)
(206.9349 -7.196077e-17 -2.3824349)
(206.55032 1.3445724e-16 -2.1364119)
(206.17923 1.2580055e-16 -1.9034673)
(205.82002 -2.3508993e-16 -1.6834015)
(205.47095 8.2336201e-17 -1.475917)
(205.13018 5.1326591e-17 -1.2806328)
(204.7958 9.5954626e-17 -1.0971098)
(204.46576 1.3452299e-16 -0.92486356)
(204.13776 2.5053842e-20 -0.76340642)
(203.80918 0 -0.61236066)
(203.47747 0 -0.4713945)
(203.14093 -3.4234966e-17 -0.33982107)
(202.79824 9.6055596e-17 -0.21765586)
(202.44622 -8.9837613e-17 -0.10759948)
(202.085 -8.4097216e-17 -0.0054727386)
(201.72272 5.2478185e-17 0.10168298)
(201.33191 0 0.15957715)
(200.91187 4.6080672e-17 0.13936408)
(200.72629 2.7690909e-20 0.71154252)
(220.38964 0 -23.530075)
(258.85881 1.9219987e-20 -6.2798136)
(242.11895 9.075617e-18 -23.288816)
(251.40941 2.8853007e-16 -8.0177668)
(245.29495 3.3297936e-19 -21.263659)
(248.32017 -5.0607965e-16 -10.603448)
(245.76422 -3.2325855e-19 -18.880574)
(246.45 4.5644261e-16 -13.067625)
(245.27689 -2.1000743e-16 -16.983076)
(245.0229 -1.2456821e-17 -14.746528)
(244.30848 1.1831371e-17 -15.990194)
(243.75359 -1.7965007e-16 -15.491437)
(243.1092 1.9139478e-16 -15.736512)
(242.46244 -1.8185672e-16 -15.699001)
(241.78617 3.0634047e-16 -15.74136)
(241.08751 -3.0864829e-16 -15.75274)
(240.36466 1.3756105e-16 -15.760828)
(239.6181 0 -15.758178)
(238.848 0 -15.74506)
(238.05477 1.4653304e-17 -15.720128)
(237.23899 -2.7783532e-17 -15.682318)
(236.40145 0 -15.630484)
(235.54313 1.9951489e-16 -15.563489)
(234.66522 4.7160046e-19 -15.480224)
(233.76917 -3.5706899e-16 -15.379608)
(232.85661 1.6871699e-16 -15.260628)
(231.92942 1.9962829e-17 -15.122356)
(230.98968 0 -14.963972)
(230.0397 -1.7882653e-16 -14.78479)
(229.08194 1.3484677e-16 -14.584283)
(228.11904 -2.2361252e-16 -14.362102)
(227.15376 2.1047652e-16 -14.118102)
(226.18895 -2.2779211e-16 -13.852352)
(225.22754 2.1441683e-16 -13.565155)
(224.27242 7.6009142e-17 -13.257048)
(223.32649 0 -12.928811)
(222.39253 0 -12.581461)
(221.47322 4.236472e-17 -12.216239)
(220.57105 3.9902169e-17 -11.834597)
(219.6883 -3.7567219e-17 -11.438177)
(218.82704 3.5354062e-17 -11.028783)
(217.98903 6.6698619e-17 -10.608346)
(217.17579 -6.2648652e-17 -10.178902)
(216.3885 3.532139e-16 -9.7425472)
(215.62808 -2.7629554e-16 -9.3014065)
(214.89515 5.1859778e-17 -8.8576011)
(214.19005 -4.8795447e-17 -8.413212)
(213.51284 0 -7.9702542)
(212.86337 2.1447566e-16 -7.530648)
(212.24127 -1.606452e-16 -7.0961989)
(211.64597 0 -6.6685768)
(211.07675 0 -6.2493059)
(210.53275 1.3218756e-16 -5.8397513)
(210.01303 -6.178267e-17 -5.441116)
(209.51652 0 -5.0544375)
(209.04211 -1.623381e-16 -4.6805899)
(208.58865 1.0105223e-16 -4.3202886)
(208.15492 1.4184206e-16 -3.9740949)
(207.7397 -1.7643912e-16 -3.6424232)
(207.34176 1.649219e-16 -3.3255544)
(206.9598 -1.5383563e-16 -3.0236343)
(206.59249 6.3535309e-20 -2.7366805)
(206.23847 0 -2.4646155)
(205.89627 6.253288e-17 -2.2072392)
(205.56426 -2.9154363e-16 -1.9642386)
(205.24071 1.6305402e-16 -1.7352132)
(204.92379 0 -1.5196904)
(204.61163 -1.4177232e-16 -1.3171492)
(204.30224 8.806505e-17 -1.1270396)
(203.99343 1.2320026e-16 -0.94883669)
(203.68269 3.5641948e-20 -0.78212836)
(203.36758 -7.130572e-17 -0.62649647)
(203.04637 9.9726317e-17 -0.48132886)
(202.71749 -1.5491941e-16 -0.34705391)
(202.37864 8.6645812e-17 -0.22550649)
(202.03127 2.691785e-17 -0.11091417)
(201.67716 5.0242228e-17 0.0016181492)
(201.29273 0 0.059720964)
(200.90913 -4.3748914e-17 0.095862284)
(200.68073 2.0388818e-17 0.57557088)
(220.8162 0 -27.030234)
(259.61598 9.8122389e-18 -8.9174166)
(242.34879 -3.0597245e-16 -26.789341)
(251.91713 2.4983588e-16 -10.781239)
(245.51947 2.5662262e-16 -24.646872)
(248.61307 -5.0051698e-16 -13.526753)
(245.94459 2.302242e-16 -22.074401)
(246.59697 2.3308372e-16 -16.153481)
(245.38089 -2.2089556e-16 -20.03719)
(245.06366 3.9318837e-17 -17.87598)
(244.30483 0 -19.003982)
(243.69124 0 -18.564873)
(242.99316 -2.2362634e-17 -18.749534)
(242.28743 -1.6977774e-16 -18.711468)
(241.55142 1.405042e-16 -18.726146)
(240.79091 1.9059652e-17 -18.715717)
(240.00476 -3.6129406e-17 -18.69722)
(239.19359 3.0825664e-16 -18.665584)
(238.35787 -2.2652681e-16 -18.620279)
(237.49835 2.4587048e-16 -18.559847)
(236.61599 -2.0317888e-16 -18.483018)
(235.71198 2.754721e-17 -18.388488)
(234.78777 1.5650614e-16 -18.274992)
(233.84505 -1.9684534e-16 -18.141328)
(232.88577 0 -17.986369)
(231.91212 0 -17.8091)
(230.92654 0 -17.608646)
(229.93168 -1.9715232e-16 -17.384296)
(228.93041 1.8572021e-16 -17.135532)
(227.92573 -3.5190055e-17 -16.862053)
(226.9208 0 -16.563804)
(225.91884 -2.8210057e-16 -16.240987)
(224.9231 2.3577874e-16 -15.89407)
(223.93683 -5.5766719e-17 -15.523803)
(222.96318 1.5771131e-16 -15.131213)
(222.00519 -4.9007987e-17 -14.717591)
(221.0657 -1.8589786e-16 -14.284483)
(220.14735 2.1930096e-16 -13.833663)
(219.25248 -1.646391e-16 -13.367105)
(218.38315 7.7658811e-17 -12.886953)
(217.54109 -7.2873812e-17 -12.395477)
(216.72768 1.3698274e-16 -11.895037)
(215.94396 -6.4189864e-17 -11.388041)
(215.19063 -2.4158768e-16 -10.876906)
(214.46804 5.0942298e-16 -10.364015)
(213.77626 -2.121686e-16 -9.8516852)
(213.11503 -1.4951441e-16 -9.3421377)
(212.48389 9.2960248e-17 -8.8374651)
(211.8821 8.7442603e-17 -8.3396143)
(211.30879 -1.6358656e-16 -7.8503678)
(210.7629 1.5284265e-16 -7.3713325)
(210.24327 0 -6.9039332)
(209.74864 1.3378309e-16 -6.4494089)
(209.27769 -1.8738567e-16 -6.0088149)
(208.82908 5.8395164e-17 -5.5830265)
(208.40142 5.4424382e-17 -5.1727463)
(207.99333 0 -4.7785142)
(207.60343 0 -4.4007158)
(207.23035 0 -4.0395931)
(206.87276 0 -3.6952602)
(206.52927 0 -3.3677023)
(206.19851 -7.1507156e-17 -3.0567851)
(205.8791 0 -2.7622858)
(205.56956 -5.1759248e-20 -2.4838733)
(205.26829 2.3090168e-16 -2.2211131)
(204.97357 -2.147988e-16 -1.9734967)
(204.68361 -9.9990458e-17 -1.7404571)
(204.39661 -1.8591841e-16 -1.5213937)
(204.11068 2.5915172e-16 -1.315696)
(203.82374 3.9086175e-20 -1.1228014)
(203.53345 7.4641241e-17 -0.94224806)
(203.23748 0 -0.77355772)
(202.93403 0 -0.61626212)
(202.62143 0 -0.47098705)
(202.29841 -1.1140989e-16 -0.33857353)
(201.9668 0 -0.21309386)
(201.62353 -9.6257215e-17 -0.095917977)
(201.25005 1.3418573e-16 -0.032992773)
(200.89546 8.3162513e-17 0.044780674)
(200.63592 -1.9296174e-17 0.44551858)
(221.03289 0 -30.70727)
(260.17376 0 -11.663686)
(242.38521 3.2191814e-16 -30.421648)
(252.24408 1.9314239e-17 -13.702901)
(245.55911 -2.6938582e-16 -28.139928)
(248.72519 0 -16.627324)
(245.925 1.6140783e-17 -25.346741)
(246.61779 -3.0595041e-17 -19.393082)
(245.23757 0 -23.156372)
(244.85025 1.928598e-16 -21.124783)
(244.03998 -4.1753878e-16 -22.114913)
(243.35718 1.9771114e-16 -21.743204)
(242.59565 2.3466435e-17 -21.869477)
(241.82107 0 -21.82636)
(241.01542 2.1057032e-17 -21.812497)
(240.18337 -3.3966108e-16 -21.77591)
(239.32444 7.4880603e-17 -21.726294)
(238.43953 2.5031565e-16 -21.659986)
(237.52952 2.3772138e-16 -21.575959)
(236.5956 -2.5641522e-16 -21.472638)
(235.63923 0 -21.348586)
(234.66215 -2.8771088e-16 -21.202393)
(233.66639 2.4428559e-16 -21.032712)
(232.65426 -2.0590261e-16 -20.838319)
(231.62836 1.9406758e-16 -20.618123)
(230.59155 -1.839173e-16 -20.371199)
(229.54695 3.4695303e-16 -20.096843)
(228.49785 -1.6372635e-16 -19.794576)
(227.44775 1.5484667e-16 -19.464192)
(226.40024 -2.9193354e-16 -19.105772)
(225.35898 1.3740276e-16 -18.719709)
(224.32763 1.2976697e-16 -18.306715)
(223.30977 -2.4483824e-16 -17.867821)
(222.30889 5.6843757e-17 -17.404375)
(221.32826 -5.7376764e-19 -16.918031)
(220.3709 2.5472857e-16 -16.410709)
(219.43955 0 -15.884586)
(218.53658 1.918599e-19 -15.342042)
(217.664 0 -14.785621)
(216.82343 -7.9513914e-17 -14.217985)
(216.01606 -1.4943342e-16 -13.64187)
(215.24269 7.0158431e-17 -13.060027)
(214.5037 0 -12.475186)
(213.79913 -6.1824856e-17 -11.89001)
(213.12865 2.8937926e-16 -11.30705)
(212.49164 -3.2488164e-16 -10.728722)
(211.88721 -3.0441224e-16 -10.157274)
(211.31424 2.8423004e-16 -9.5947685)
(210.77145 -1.7737816e-16 -9.0430665)
(210.25741 0 -8.5038215)
(209.77059 0 -7.9784754)
(209.30941 7.2393887e-17 -7.4682606)
(208.87224 6.7561068e-17 -6.974206)
(208.45747 1.259138e-16 -6.4971446)
(208.06348 -5.8713679e-17 -6.0377247)
(207.68868 -1.0937343e-16 -5.5964227)
(207.33153 -2.0396401e-16 -5.1735568)
(206.99052 -9.5154431e-17 -4.7692992)
(206.66421 1.7666068e-16 -4.3836893)
(206.35118 0 -4.0166509)
(206.05004 -7.6518429e-17 -3.6679899)
(205.7594 -1.4223699e-16 -3.3374076)
(205.4779 1.3214733e-16 -3.0245281)
(205.20408 6.1295469e-17 -2.7288824)
(204.93641 5.700839e-17 -2.4499133)
(204.67321 0 -2.187004)
(204.41278 1.9654637e-16 -1.9394961)
(204.15338 1.8237949e-16 -1.7067144)
(203.89325 -2.5379137e-16 -1.4879943)
(203.63045 7.8483747e-17 -1.2827302)
(203.36284 -7.2758334e-17 -1.0904018)
(203.08822 -4.7574504e-20 -0.91050592)
(202.80467 2.5006548e-16 -0.74272923)
(202.5106 -2.3176012e-16 -0.58766245)
(202.20567 5.3654469e-17 -0.44525768)
(201.89141 1.4924852e-16 -0.31052908)
(201.56153 -4.6102982e-17 -0.1887277)
(201.20363 -4.2706583e-17 -0.11539934)
(200.87246 0 -0.011948626)
(200.59043 3.6601226e-17 0.32230112)
(221.05012 3.9151165e-16 -34.571114)
(260.53698 5.4205343e-19 -14.525876)
(242.20647 -3.5881684e-16 -34.201241)
(252.38406 0 -16.788121)
(245.33755 0 -31.709107)
(248.49841 -2.6770726e-16 -19.900881)
(245.60097 2.7081989e-16 -28.67388)
(246.12435 6.4231869e-17 -22.793373)
(244.8244 -2.4379526e-16 -26.375905)
(244.3581 2.305973e-16 -24.519258)
(243.48587 -2.4645619e-16 -25.350255)
(242.72104 2.0714804e-16 -25.041592)
(241.88395 -4.9142868e-17 -25.10897)
(241.02884 -4.6600818e-17 -25.051242)
(240.14205 -1.7659026e-16 -25.003809)
(239.2274 1.6679342e-16 -24.933321)
(238.28509 -3.5619582e-16 -24.844632)
(237.31641 5.9874384e-16 -24.734779)
(236.32281 -2.8289935e-16 -24.602342)
(235.30605 -2.6842603e-16 -24.44561)
(234.26826 2.5312954e-16 -24.263011)
(233.21187 -3.0143385e-17 -24.053067)
(232.13966 -2.2691476e-16 -23.814428)
(231.05473 2.1375634e-16 -23.545942)
(229.96047 2.5321864e-16 -23.246668)
(228.86052 -1.4278383e-16 -22.91592)
(227.75877 0 -22.55332)
(226.65923 2.5535299e-16 -22.158804)
(225.56606 -3.2073272e-16 -21.73267)
(224.48339 1.1285493e-16 -21.275581)
(223.41536 -2.8532594e-16 -20.788577)
(222.36594 2.0102477e-16 -20.273072)
(221.33894 -6.3341852e-17 -19.730838)
(220.33785 2.3804082e-16 -19.163978)
(219.36587 -2.2328774e-16 -18.574903)
(218.42578 -2.1044621e-16 -17.966271)
(217.51992 1.9724661e-16 -17.340951)
(216.65017 -4.6263625e-17 -16.701967)
(215.81794 0 -16.052432)
(215.02413 8.186619e-17 -15.395498)
(214.26917 -7.6412789e-17 -14.734298)
(213.55306 0 -14.071891)
(212.87536 1.3455121e-16 -13.411218)
(212.23529 -6.2940045e-17 -12.755056)
(211.63174 -1.7648776e-16 -12.105995)
(211.06332 5.5050326e-16 -11.466405)
(210.52845 -2.0611182e-16 -10.838422)
(210.02539 9.6136963e-17 -10.223944)
(209.55226 -2.6956116e-16 -9.6246175)
(209.10716 -1.8476323e-19 -9.0418508)
(208.68812 1.5629712e-16 -8.4768168)
(208.29321 -1.4580888e-16 -7.9304646)
(207.9205 -6.7858055e-17 -7.403534)
(207.56814 -6.320949e-17 -6.8965707)
(207.23432 -1.1802323e-16 -6.4099423)
(206.91734 2.191814e-16 -5.943856)
(206.61556 0 -5.498375)
(206.3274 9.4721847e-17 -5.0734329)
(206.0514 -3.5246176e-16 -4.6688485)
(205.78615 2.4530291e-16 -4.2843434)
(205.53026 7.5917796e-17 -3.9195362)
(205.28241 1.4103415e-16 -3.5739609)
(205.04126 1.3103824e-16 -3.2470895)
(204.80545 -1.2124125e-16 -2.9383168)
(204.5735 -1.1235653e-16 -2.6469678)
(204.34386 -3.12563e-16 -2.3723238)
(204.1149 -4.2767302e-20 -2.1136426)
(203.88499 -8.9328387e-17 -1.8701829)
(203.65249 0 -1.6412312)
(203.41564 -2.2964151e-16 -1.4261343)
(203.17252 7.0808352e-17 -1.2243145)
(202.92105 0 -1.0352774)
(202.65923 1.2114873e-16 -0.85881829)
(202.38568 0 -0.69529479)
(202.10072 1.0350204e-16 -0.54406805)
(201.80498 -1.4343078e-16 -0.4017753)
(201.49063 1.3254153e-16 -0.27503258)
(201.15241 -8.1627869e-17 -0.18628342)
(200.84166 7.5383465e-17 -0.066327727)
(200.54075 0 0.20668762)
(220.85558 -4.1130183e-16 -38.628703)
(260.69323 3.6334909e-16 -17.521685)
(241.7775 -3.3288793e-16 -38.157531)
(252.27029 3.3102101e-16 -20.049128)
(244.83201 3.1699032e-16 -35.337378)
(248.04366 -1.8019219e-17 -23.359975)
(245.03434 -2.8382946e-16 -32.083945)
(245.50249 -2.6943558e-16 -26.385838)
(244.11619 2.8677899e-16 -29.715094)
(243.54241 0 -28.060779)
(242.59778 2.8615412e-17 -28.7172)
(241.73836 0 -28.459459)
(240.81307 -1.2870386e-16 -28.467404)
(239.86517 2.4301066e-16 -28.383452)
(238.88506 0 -28.294645)
(237.87614 0 -28.17998)
(236.83939 0 -28.041272)
(235.77672 3.9137117e-17 -27.875836)
(234.69032 0 -27.681959)
(233.58276 -2.4478217e-16 -27.457836)
(232.45703 3.2980452e-16 -27.201829)
(231.31648 1.2479386e-16 -26.912502)
(230.16482 1.7695395e-16 -26.58863)
(229.00611 -2.779459e-16 -26.229291)
(227.84468 -5.2378573e-17 -25.833882)
(226.68507 -2.478797e-16 -25.402174)
(225.53199 1.8656184e-16 -24.934342)
(224.39019 -2.2035206e-16 -24.430994)
(223.26441 8.2444821e-17 -23.893175)
(222.15926 7.7947848e-17 -23.322375)
(221.07917 0 -22.720516)
(220.02823 2.7730395e-16 -22.089916)
(219.01018 -2.6044574e-16 -21.433264)
(218.02829 0 -20.753562)
(217.08533 -2.3025307e-16 -20.054072)
(216.18349 2.1566741e-16 -19.338247)
(215.32441 -1.0163494e-16 -18.609661)
(214.50913 1.902873e-16 -17.871946)
(213.73813 -2.6737054e-16 -17.128712)
(213.01135 1.2784448e-19 -16.383492)
(212.32821 -1.5622126e-16 -15.639678)
(211.68772 -7.3113322e-17 -14.900474)
(211.08849 -1.3722313e-16 -14.168856)
(210.52881 2.5580985e-16 -13.447543)
(210.00673 -1.1937772e-16 -12.738975)
(209.52011 0 -12.045308)
(209.06668 -3.7770248e-19 -11.368405)
(208.64411 9.7117956e-17 -10.709847)
(208.25005 0 -10.070943)
(207.88215 8.4475108e-17 -9.4527397)
(207.53813 7.8985262e-17 -8.8560474)
(207.21579 -7.3335798e-17 -8.2814543)
(206.91301 2.7304407e-16 -7.7293489)
(206.6278 -2.5383229e-16 -7.1999413)
(206.35827 -1.1805374e-16 -6.6932826)
(206.10265 -1.0967195e-16 -6.2092855)
(205.8593 1.0183547e-16 -5.7477414)
(205.62668 1.8890988e-16 -5.3083359)
(205.40335 -3.5041962e-16 -4.8906636)
(205.18794 4.0611672e-16 -4.4942444)
(204.97917 -1.5048251e-16 -4.1185135)
(204.77577 1.3948255e-16 -3.762845)
(204.57652 -1.2912259e-16 -3.4265686)
(204.38013 2.3913742e-16 -3.1089525)
(204.18527 -3.3196804e-16 -2.8092157)
(203.99049 2.046398e-16 -2.5265493)
(203.79428 -7.6135795e-20 -2.260139)
(203.59514 8.7470899e-17 -2.0091892)
(203.39155 0 -1.772942)
(203.18197 0 -1.5506943)
(202.96467 0 -1.3418272)
(202.73771 -1.2712644e-16 -1.1458736)
(202.49911 1.0731334e-20 -0.96264273)
(202.24773 0 -0.79214253)
(201.98415 0 -0.6335771)
(201.70782 9.1940551e-17 -0.48540775)
(201.41117 -1.6942257e-16 -0.35331501)
(201.09573 0 -0.24819195)
(200.80286 0 -0.11972207)
(200.48744 -1.3198906e-16 0.099332938)
(220.41577 2.7761823e-17 -42.889276)
(260.60566 -7.8669546e-16 -20.672895)
(241.0703 3.4827155e-16 -42.255686)
(251.63192 -2.1758648e-17 -23.492744)
(244.0121 3.7363112e-16 -39.08614)
(247.25471 -3.5234665e-16 -27.042924)
(244.15818 0 -35.610533)
(244.49468 -3.1738665e-16 -30.170475)
(243.05683 2.3332267e-16 -33.169265)
(242.35905 2.2161081e-16 -31.741561)
(241.32852 -2.3921111e-16 -32.218151)
(240.36041 0 -31.992515)
(239.33248 1.8931741e-19 -31.938845)
(238.27818 0 -31.814825)
(237.19156 3.8531819e-16 -31.673233)
(236.076 -7.2790171e-16 -31.500706)
(234.93347 3.4364724e-16 -31.297233)
(233.76676 -4.0594892e-17 -31.060231)
(232.57905 -3.857378e-17 -30.787812)
(231.37401 3.6660872e-17 -30.478161)
(230.15575 -6.8463973e-17 -30.129734)
(228.92877 -3.2432772e-16 -29.741296)
(227.69796 3.0525024e-16 -29.311977)
(226.46848 5.7544541e-17 -28.841343)
(225.24572 -2.7270549e-16 -28.329413)
(224.03516 -6.9741676e-19 -27.776728)
(222.84229 2.8964424e-16 -27.184339)
(221.67251 -1.8179333e-16 -26.553831)
(220.53098 -6.1060667e-19 -25.887302)
(219.42254 0 -25.187343)
(218.35159 0 -24.456986)
(217.32201 -7.1536166e-17 -23.699652)
(216.33705 1.3392786e-16 -22.919088)
(215.39931 0 -22.119274)
(214.51071 -1.183735e-16 -21.304353)
(213.67244 2.2149773e-16 -20.478536)
(212.88501 -1.0376949e-16 -19.646016)
(212.14826 -1.9447193e-16 -18.810895)