/*--------------------------------*- C++ -*----------------------------------*\
  =========                 |
  \\      /  F ield         | OpenFOAM: The Open Source CFD Toolbox
   \\    /   O peration     | Website:  https://openfoam.org
    \\  /    A nd           | Version:  12
     \\/     M anipulation  |
\*---------------------------------------------------------------------------*/
FoamFile
{
    format      ascii;
    class       volScalarField;
    location    "950";
    object      Ma;
}
// * * * * * * * * * * * * * * * * * * * * * * * * * * * * * * * * * * * * * //

dimensions      [];

internalField   nonuniform List<scalar> 
16200
(
0.5341602974
0.6369866473
0.6950192768
0.7410339997
0.7842677514
0.8302876674
0.8810811282
0.9274439938
0.9442145521
0.9446614605
0.9435521892
0.9425035885
0.9412114222
0.9397865767
0.938112163
0.9361939722
0.9339586415
0.9313660984
0.9283476383
0.9248367825
0.9207537367
0.9160123779
0.9105185675
0.9041734817
0.8968780552
0.8885408293
0.8790907203
0.8684957137
0.8567881352
0.8440937713
0.8306563234
0.8168411739
0.8031033385
0.7899207306
0.7777157768
0.7667959588
0.757330237
0.7493582478
0.7428178578
0.7375779776
0.7334688747
0.7303072106
0.7279144498
0.726128895
0.7248118358
0.7238494153
0.7231512308
0.7226475055
0.7222855019
0.7220260506
0.7218404083
0.7217076561
0.7216126476
0.7215443316
0.7214947583
0.7214577547
0.7214299365
0.7214073672
0.7213889582
0.7213671885
0.5470415909
0.6532921018
0.7131896858
0.7607419562
0.8058113375
0.8543009582
0.9068405962
0.9467535926
0.9562583657
0.9559546017
0.954779835
0.953644457
0.9522540821
0.9507116316
0.9488948285
0.9468043668
0.9443622686
0.9415208373
0.9382047216
0.9343382973
0.9298327706
0.9245916962
0.9185107253
0.9114811978
0.9033964222
0.8941622522
0.8837143758
0.8720429521
0.8592242082
0.845452854
0.8310602593
0.8164976749
0.8022754982
0.7888762759
0.7766773799
0.7659114722
0.7566687
0.7489252849
0.7425795883
0.7374838298
0.7334681971
0.7303582743
0.7279874466
0.7262050718
0.7248810418
0.7239073159
0.7231970192
0.7226822003
0.722310887
0.7220440471
0.7218527755
0.7217158767
0.7216178988
0.7215475595
0.7214965836
0.7214587997
0.7214302397
0.7214074713
0.7213888012
0.7213655676
0.5596187554
0.6692994838
0.7310743212
0.7802644929
0.8273436966
0.8781607186
0.9314050711
0.9620216031
0.9662989026
0.965464261
0.9642169911
0.9629808796
0.9614636158
0.9597701118
0.9577744115
0.9554703837
0.9527757666
0.9496342386
0.9459632361
0.9416769995
0.9366765985
0.9308540545
0.9240937025
0.9162768172
0.9072908874
0.8970445967
0.8854912239
0.8726604245
0.858695829
0.8438862466
0.8286675681
0.8135750958
0.7991522963
0.7858526347
0.7739762235
0.7636586376
0.7549001517
0.7476105836
0.7416498611
0.7368561082
0.7330624194
0.7301066032
0.7278374809
0.7261191599
0.724833729
0.7238822654
0.7231842431
0.7226758628
0.7223077343
0.7220423541
0.7218516841
0.7217149986
0.7216170904
0.7215468013
0.7214958876
0.7214582486
0.7214297247
0.7214071623
0.7213888228
0.7213656698
0.571320674
0.6840923713
0.7475960938
0.7985766394
0.8479943593
0.9008914972
0.9519020226
0.9726442917
0.9738612201
0.9728662069
0.9715338147
0.9701814131
0.9685245713
0.9666625815
0.9644669719
0.961922747
0.9589429783
0.9554614372
0.9513873991
0.9466240025
0.9410613393
0.9345796006
0.9270525789
0.9183545155
0.908373625
0.8970327607
0.8843199248
0.870327412
0.8552921906
0.8396162698
0.8238393792
0.8085546857
0.7942956472
0.7814439777
0.7701940065
0.76057344
0.7524951571
0.7458113887
0.7403533825
0.735953216
0.7324527095
0.7297060162
0.7275804906
0.7259575472
0.724733673
0.7238209753
0.7231468812
0.7226530407
0.7222936524
0.7220334971
0.7218459538
0.7217111576
0.7216144207
0.7215448917
0.7214945025
0.7214572723
0.7214289739
0.7214066585
0.7213886256
0.7213652453
0.5820267883
0.6976683081
0.7627948644
0.8155639318
0.8675077578
0.9224708042
0.966837247
0.9792845244
0.9791070911
0.9780170129
0.9765742721
0.9750832979
0.9732626144
0.9712029839
0.968774751
0.9659524249
0.9626441781
0.9587728313
0.9542385142
0.9489323417
0.942732834
0.9355089466
0.9271264948
0.9174583982
0.9064034636
0.8939139278
0.8800340992
0.8649454998
0.8490022284
0.8327265602
0.8167419115
0.8016558324
0.7879422284
0.7758736091
0.7655214344
0.7568062775
0.7495643971
0.7436038298
0.73873868
0.7348031073
0.7316526904
0.7291608736
0.7272153953
0.725716382
0.7245759799
0.7237185282
0.7230805177
0.7226100324
0.7222656834
0.7220151981
0.7218338828
0.7217031178
0.7216090142
0.721541229
0.7214920247
0.7214556217
0.7214278546
0.7214059306
0.7213883475
0.7213649482
0.5913731464
0.7096844331
0.7763567966
0.8309583188
0.8854250292
0.9418782819
0.9767847083
0.9830083674
0.9819148719
0.9807538283
0.9791842012
0.9775376669
0.9755351022
0.973254878
0.9705669463
0.9674334886
0.9637569408
0.9594480676
0.9543970132
0.9484828609
0.9415735562
0.9335296687
0.9242142807
0.9135077236
0.9013329332
0.8876914244
0.8727099308
0.8566857406
0.8401035778
0.8235924112
0.8078172006
0.7933444755
0.7805414374
0.7695460862
0.7603042331
0.7526413364
0.746334603
0.7411644125
0.7369401741
0.7335060494
0.7307356848
0.7285238103
0.7267793576
0.7254215332
0.7243784499
0.7235870603
0.7229933702
0.7225523707
0.7222275344
0.7219899277
0.721817107
0.7216919521
0.7216015659
0.7215362579
0.7214887268
0.7214534637
0.7214264444
0.7214050129
0.7213879417
0.7213645225
0.5992020719
0.7201133775
0.7883582649
0.8450372526
0.9020631997
0.9574978068
0.9823627646
0.9850032068
0.9824584824
0.9811641279
0.9794504681
0.9776251834
0.9754147571
0.972881859
0.9698965945
0.966407667
0.9623114049
0.9575065023
0.9518734163
0.9452804797
0.9375872637
0.9286500714
0.9183363109
0.9065454919
0.8932428532
0.8785042437
0.8625666798
0.8458621807
0.8290005797
0.8126805543
0.7975511309
0.7840825467
0.7725008483
0.7628009129
0.754813671
0.7482892368
0.742966103
0.7386133391
0.7350467094
0.732126703
0.7297479428
0.7278272889
0.7262947201
0.7250880811
0.7241510721
0.7234330714
0.7228895965
0.7224826718
0.7221808241
0.7219586688
0.7217962104
0.7216779986
0.7215922646
0.7215300789
0.7214846577
0.7214508222
0.7214247508
0.7214039156
0.7213874334
0.7213640526
0.6054317204
0.7289528498
0.7989518779
0.8580438813
0.9176540437
0.9678442896
0.9835361233
0.9822571484
0.980800104
0.9793814324
0.977499255
0.9754648731
0.9730135344
0.970189614
0.9668638744
0.9629710064
0.9584009392
0.9530404737
0.9467606178
0.9394203534
0.9308738438
0.9209793119
0.9096193404
0.8967296491
0.8823415063
0.8666329675
0.8499741649
0.8329343188
0.8162190608
0.8005406588
0.7864705268
0.7743382863
0.7642123669
0.7559521278
0.7492944078
0.7439375964
0.7396016353
0.7360586823
0.7331396597
0.7307258251
0.7287342978
0.7271039203
0.7257848314
0.7247324749
0.7239052556
0.7232643592
0.7227744537
0.7224044342
0.7221278509
0.7219229117
0.7217721453
0.7216618547
0.7215814772
0.7215229115
0.7214799432
0.7214477672
0.7214228052
0.7214026537
0.7213868212
0.7213635069
0.6100202427
0.7361526512
0.8082475635
0.8699781018
0.9315882327
0.973494379
0.9800995249
0.978917882
0.9771059906
0.9755183796
0.9734483129
0.9711794275
0.968458635
0.965309855
0.9616042842
0.9572620145
0.9521658552
0.9461909757
0.9391997878
0.9310450021
0.921581356
0.9106793873
0.8982525732
0.8842944845
0.8689287466
0.8524603795
0.8354023444
0.8184412644
0.8023275782
0.7877221692
0.775065126
0.7645194761
0.7559983293
0.7492458246
0.7439309072
0.7397239859
0.7363441366
0.7335779172
0.7312775418
0.7293475412
0.7277277801
0.7263781346
0.7252674901
0.7243674688
0.7236499864
0.7230871508
0.7226521881
0.7223205086
0.7220704989
0.7218838808
0.7217456926
0.7216440079
0.7215695004
0.72151493
0.7214746811
0.7214443509
0.721420631
0.7214012391
0.721386113
0.7213628957
0.6132057514
0.7421103978
0.8165971763
0.8810109721
0.9425076105
0.9742065402
0.974901735
0.9734225899
0.9715455212
0.969769451
0.9674881082
0.964955367
0.9619315229
0.958418478
0.9542872536
0.9494433028
0.9437621822
0.9371090687
0.9293406838
0.9203092207
0.9098790281
0.8979464461
0.8844745773
0.8695387876
0.8533803267
0.836446731
0.8193841554
0.8029539558
0.7878866565
0.7747301516
0.7637565881
0.7549570419
0.7481071901
0.7428638471
0.7388553024
0.7357451624
0.7332656429
0.7312256418
0.7295022715
0.7280241751
0.7267532172
0.7256687987
0.7247568203
0.7240034558
0.7233927759
0.7229067794
0.7225265215
0.7222334487
0.7220104909
0.7218427183
0.7217175951
0.7216249306
0.7215566263
0.7215063092
0.7214689716
0.7214406279
0.721418253
0.7213996838
0.7213853129
0.7213622145
0.615128183
0.747088184
0.8242814424
0.8916073312
0.9492887027
0.9685397911
0.9679095615
0.966325983
0.964292465
0.9622994518
0.9597790759
0.9569486695
0.9535829133
0.9496610067
0.9450534206
0.939652101
0.9333264379
0.9259347587
0.9173326013
0.907379045
0.8959590292
0.8830106403
0.8685681931
0.8528140329
0.8361271925
0.8190976088
0.8024720608
0.7870257899
0.7734024106
0.7619894048
0.7528758846
0.7458941238
0.7407105811
0.7369251514
0.7341503963
0.7320601747
0.7304098055
0.7290353111
0.7278401698
0.7267766832
0.7258272708
0.724989013
0.724262949
0.7236481108
0.7231393226
0.7227273906
0.7224004115
0.722145325
0.7219492492
0.7218003825
0.7216884853
0.7216050301
0.7215431104
0.7214972033
0.7214629037
0.7214366468
0.721415694
0.7213979992
0.7213844254
0.7213614638
0.6158361074
0.7512908169
0.8313237106
0.9012405569
0.9518539113
0.9613423219
0.9593886592
0.9576895039
0.9554843608
0.9532462342
0.950455783
0.9472913483
0.9435427013
0.939166875
0.9340336585
0.9280232365
0.9210002344
0.9128196631
0.9033413132
0.8924404314
0.8800367021
0.8661299568
0.8508504101
0.8345104314
0.8176348098
0.8009339704
0.7852010867
0.7711561029
0.759298561
0.7498291998
0.7426600556
0.7374912156
0.7339127204
0.7314963404
0.7298594801
0.7286986564
0.7277984765
0.7270242416
0.7263056336
0.7256172605
0.724960229
0.7243473061
0.7237927785
0.7233068766
0.7228938088
0.7225521207
0.7222761562
0.7220577853
0.7218879313
0.7217576695
0.7216588984
0.7215846579
0.7215291765
0.72148775
0.7214565586
0.7214324525
0.7214129753
0.7213961962
0.7213834545
0.7213606425
0.615397229
0.7549894139
0.8380450702
0.9087317319
0.9468676795
0.951980978
0.9494790378
0.9476683969
0.9452556686
0.942743333
0.9396520699
0.9361191919
0.9319492059
0.9270777617
0.9213731704
0.9147054246
0.9069362363
0.8979223862
0.8875362881
0.8756826446
0.8623346688
0.8475778058
0.8316625998
0.8150451156
0.7983838119
0.7824641997
0.7680578589
0.7557646833
0.745902235
0.738481047
0.7332588072
0.7298373117
0.7277626125
0.7266028356
0.7259956069
0.7256680774
0.7254371632
0.7251975984
0.7249039779
0.7245513159
0.7241573415
0.7237485084
0.7233505382
0.7229832972
0.7226590932
0.7223832001
0.7221554459
0.7219720777
0.7218274363
0.7217152122
0.7216292697
0.7215641053
0.7215150141
0.7214780682
0.7214500074
0.721428085
0.7214101163
0.7213942853
0.7213824044
0.7213597499
0.6140093211
0.7584173399
0.8447316313
0.9132942917
0.9402680176
0.9410860625
0.9383575743
0.9363958413
0.9337532296
0.930942103
0.9275205012
0.9235848059
0.9189522585
0.9135384407
0.9072101358
0.8998306449
0.8912635572
0.881376018
0.8700652633
0.8572825197
0.8430766159
0.8276429852
0.8113701568
0.7948542366
0.7788514099
0.7641588328
0.7514573807
0.7411781501
0.7334423622
0.7280867814
0.7247479294
0.7229646929
0.7222676872
0.7222402705
0.7225505661
0.7229605723
0.7233201152
0.7235521309
0.7236341448
0.7235794083
0.7234201787
0.7231946877
0.7229384136
0.722679431
0.722436975
0.7222221185
0.7220394632
0.721889109
0.7217684394
0.7216734999
0.7215999444
0.7215436095
0.7215007812
0.7214682592
0.7214433124
0.7214235802
0.7214071352
0.7213922765
0.7213812789
0.7213587856
0.612105851
0.7618099759
0.850875243
0.9143404459
0.9298514528
0.9290716538
0.9262186824
0.9240507574
0.9211435933
0.9179938546
0.9141951789
0.9098049711
0.9046518771
0.898634849
0.8916211959
0.8834730933
0.8740627364
0.8632780619
0.8510558475
0.8374139808
0.8225006168
0.8066410695
0.7903650057
0.7743824034
0.7594905512
0.7464282043
0.7357281803
0.7276269009
0.7220572448
0.7187125385
0.7171452768
0.7168638911
0.7174063331
0.7183843145
0.7195022986
0.720558428
0.721434349
0.7220791115
0.7224908384
0.7226987851
0.7227477279
0.7226859163
0.7225570727
0.7223962044
0.722228426
0.7220697733
0.7219289758
0.7218095016
0.7217114249
0.7216328966
0.7215711879
0.7215233582
0.7214866063
0.7214584077
0.7214365271
0.7214189698
0.7214040486
0.7213901797
0.7213800796
0.7213577493
0.610117107
0.7656011344
0.8554473886
0.9092514658
0.9178268908
0.9160665886
0.9130782225
0.9106484841
0.907435578
0.9039009119
0.8996741188
0.8947764171
0.8890473116
0.8823729223
0.8746233661
0.8656655742
0.8553886021
0.8437147745
0.8306396683
0.8162711958
0.8008781255
0.784923558
0.7690604923
0.7540647764
0.740707332
0.7296051946
0.7211064618
0.7152508438
0.7118080574
0.7103652706
0.7104267029
0.7114971855
0.7131384734
0.7149986011
0.716820712
0.7184383211
0.7197627423
0.7207666036
0.7214661901
0.7219046023
0.7221372787
0.7222209067
0.7222061146
0.722133722
0.7220338004
0.721926609
0.7218244261
0.7217336498
0.7216567208
0.7215936623
0.7215431981
0.7215034967
0.7214725924
0.721448584
0.7214296974
0.7214142819
0.7214008722
0.7213880037
0.7213788031
0.7213566407
0.6084710289
0.7692978299
0.8575143481
0.9000911906
0.9042288408
0.9020107844
0.8988655877
0.8961290407
0.8925780037
0.8886226161
0.8839275473
0.8784803016
0.8721303069
0.8647548138
0.8562305315
0.846438369
0.8352977796
0.8227845535
0.808975518
0.794089422
0.7785260583
0.7628754312
0.7478747007
0.7343034346
0.7228406275
0.713935574
0.7077388253
0.7041113509
0.7026951082
0.703009136
0.704540183
0.7068096792
0.7094137842
0.7120406549
0.7144719204
0.7165743668
0.7182862503
0.7196010931
0.7205509705
0.7211908253
0.7215850903
0.7217974992
0.7218844212
0.7218915149
0.7218530077
0.7217927335
0.7217260093
0.7216617705
0.7216045312
0.7215559722
0.7215161167
0.7214841345
0.7214588206
0.7214388458
0.7214228621
0.7214095413
0.7213976201
0.7213857556
0.7213774421
0.7213554593
0.6079953187
0.7723283453
0.8565099433
0.8892829354
0.88941155
0.8869298425
0.8835900344
0.8805081453
0.8765836944
0.8721674501
0.8669583757
0.8609135568
0.8538934353
0.8457736202
0.8364459031
0.8258191477
0.8138605955
0.800619243
0.7862717182
0.7711586788
0.7558054644
0.7408987902
0.7272055099
0.7154439437
0.7061484563
0.6995771454
0.6956920117
0.694206763
0.6946744169
0.6965801567
0.6994173754
0.702737799
0.7061777045
0.7094660811
0.7124211781
0.7149402074
0.716985427
0.7185686195
0.7197354416
0.7205508756
0.7210868806
0.7214130287
0.721590427
0.7216687372
0.7216856511
0.7216680157
0.7216337387
0.7215939466
0.7215549638
0.7215199346
0.7214900403
0.7214653517
0.7214453537
0.7214292395
0.7214160546
0.7214047702
0.7213943053
0.7213834403
0.721375976
0.721354205
0.6094982532
0.7739673094
0.8524946232
0.8751211578
0.8734884287
0.8708242745
0.8672336566
0.8637578037
0.8594129783
0.8544848669
0.8487087158
0.8420170885
0.8342855595
0.8253985202
0.8152738445
0.8038629787
0.7911968868
0.7774136126
0.7628010955
0.7478214157
0.7331040805
0.7193867532
0.7074047265
0.6977580434
0.6908033747
0.6866067948
0.6849671861
0.6854888932
0.6876728303
0.6909982834
0.6949824388
0.6992154023
0.7033755582
0.7072313424
0.7106347827
0.7135103563
0.7158414074
0.7176555158
0.719009927
0.7199780739
0.7206381694
0.7210645882
0.7213223191
0.7214643134
0.7215311355
0.7215521606
0.7215474991
0.7215301631
0.7215080545
0.7214856062
0.7214650299
0.7214472044
0.721432239
0.721419803
0.7214093029
0.7213999881
0.7213909397
0.7213810607
0.7213744131
0.7213528786
0.6131391243
0.7736878878
0.8431958614
0.8595913986
0.8564254721
0.8535562136
0.8496671497
0.8457528456
0.8409468524
0.8354675316
0.8290893459
0.821728116
0.8132792149
0.8036463695
0.7927839619
0.7806994836
0.7675020604
0.753431514
0.7388913441
0.7244515509
0.7108088691
0.6986959198
0.6887577798
0.6814353033
0.6768964089
0.6750330585
0.6755160308
0.6778784777
0.6816006059
0.6861765926
0.6911582881
0.6961778536
0.7009551686
0.7052954511
0.7090812055
0.7122609909
0.7148364934
0.7168488611
0.7183651705
0.7194659281
0.7202345099
0.7207492121
0.7210781792
0.7212770472
0.721388748
0.7214447694
0.7214670879
0.7214703357
0.721463786
0.721453005
0.7214411187
0.7214297301
0.7214195118
0.7214105661
0.7214026311
0.7213952125
0.7213875343
0.721378621
0.7213728027
0.7213514827
0.6179934497
0.7715625502
0.830076376
0.8421520914
0.8381146498
0.8350192118
0.830796838
0.8264187945
0.8211322448
0.8150879772
0.8081011885
0.8000794945
0.7909424932
0.7806239459
0.7691263693
0.7565281066
0.7430309191
0.7289843438
0.714900167
0.7014268166
0.689278183
0.6791238295
0.6714718457
0.6665835741
0.6644473284
0.6648113608
0.6672563175
0.6712782533
0.6763610544
0.6820277702
0.6878706827
0.6935645034
0.6988683408
0.7036208712
0.7077316706
0.7111703539
0.7139544564
0.7161367252
0.7177925423
0.7190083081
0.7198716356
0.7204639979
0.7208560825
0.7211056988
0.7212577169
0.7213453824
0.7213922477
0.7214143337
0.7214221043
0.7214221203
0.7214183193
0.7214129515
0.7214071977
0.7214015531
0.7213960598
0.7213904594
0.7213841002
0.7213761313
0.7213711093
0.7213500223
0.6218161152
0.76742125
0.8160308832
0.8232362325
0.8186233523
0.8152607091
0.8106853109
0.8058265707
0.8000477627
0.7934347247
0.7858431068
0.7771828557
0.7674043442
0.7564847718
0.7444899485
0.7315843923
0.7180724297
0.7044097242
0.6911927345
0.679104104
0.6688193201
0.6608948362
0.6556734043
0.653237171
0.6534190965
0.6558598585
0.6600857339
0.6655833417
0.6718575211
0.6784684194
0.6850507109
0.6913200503
0.697071588
0.70217391
0.7065603816
0.7102189071
0.7131806615
0.7155082801
0.7172841432
0.7185995432
0.7195455486
0.7202061831
0.7206541627
0.7209490375
0.721137254
0.7212535116
0.7213226899
0.7213619972
0.7213829299
0.7213929218
0.7213966289
0.7213968803
0.7213953144
0.7213927829
0.7213896067
0.721385743
0.7213806472
0.721373598
0.7213693587
0.721348502
0.624833695
0.760815259
0.7990083525
0.8030592715
0.7980863969
0.7943918704
0.7894419369
0.7840804459
0.7777899328
0.7706000328
0.7624071889
0.753138071
0.7427844
0.7313830197
0.7190777052
0.706128832
0.6929415367
0.6800583342
0.6681219926
0.6577979413
0.6496724661
0.644154624
0.6414137435
0.6413699146
0.6437335101
0.6480737612
0.6538929266
0.6606887281
0.6679979325
0.6754215617
0.6826360277
0.689395074
0.6955263118
0.7009247467
0.7055445029
0.7093893115
0.7125020639
0.7149538159
0.7168328361
0.718234463
0.7192525644
0.7199731896
0.7204706519
0.7208058769
0.7210265828
0.7211686636
0.721258112
0.7213131499
0.7213461679
0.721365365
0.7213760336
0.7213815198
0.7213838739
0.7213842708
0.7213832874
0.7213810765
0.721377185
0.7213710305
0.7213675682
0.7213469224
0.6260849205
0.7516150521
0.7802565801
0.7817946244
0.7765437336
0.7724399722
0.7670845409
0.7611917582
0.7543657701
0.7465966012
0.7378238144
0.7280070363
0.7171917676
0.705487313
0.6931237789
0.6804562522
0.6679753163
0.6562779415
0.6460072013
0.6377621259
0.6320018407
0.6289726284
0.6286800449
0.6309101309
0.6352858104
0.6413370237
0.6485655787
0.6564941756
0.6646974247
0.6728178278
0.6805712441
0.6877460349
0.6941986491
0.6998472471
0.7046639975
0.7086663072
0.7119071318
0.7144647003
0.716432232
0.717908402
0.7189893275
0.7197626447
0.7203039023
0.720675096
0.7209249574
0.7210903546
0.7211982101
0.7212676087
0.7213117146
0.7213393971
0.7213565121
0.7213668673
0.7213728836
0.721376029
0.7213771155
0.7213764719
0.7213737228
0.7213684439
0.7213657918
0.7213452776
0.6249651769
0.735893593
0.7597727711
0.7593442703
0.7538699906
0.74927983
0.7434949169
0.737063279
0.7297066008
0.7213956456
0.7121164394
0.7018749886
0.6907801012
0.679020534
0.6669128058
0.654895141
0.6435173637
0.6333910206
0.6251135957
0.6191781917
0.6158955284
0.6153514165
0.6174099209
0.621755764
0.6279573329
0.6355313702
0.6439960153
0.6529072436
0.6618796824
0.6705958392
0.6788078361
0.6863349966
0.6930591576
0.6989186828
0.7039014032
0.7080365495
0.7113857352
0.7140333086
0.7160766523
0.7176171834
0.7187528095
0.7195723871
0.7201523974
0.7205556512
0.720831674
0.7210181211
0.7211426873
0.7212251902
0.7212794626
0.7213149603
0.7213380381
0.7213529158
0.7213623474
0.7213680673
0.7213711034
0.7213719402
0.7213702708
0.7213658632
0.7213640588
0.7213435668
0.6211532666
0.7190453394
0.7374396585
0.7355036654
0.7298592307
0.7247631256
0.7185612747
0.7116326627
0.7038034666
0.6950452905
0.6853946205
0.6749141818
0.6637827108
0.6522700104
0.6407713137
0.6297871874
0.6198928272
0.6116724991
0.6056386455
0.6021528766
0.6013730378
0.6032404294
0.6075067371
0.6137878163
0.621625432
0.63054261
0.640084645
0.6498447943
0.6594773131
0.6687020147
0.6773037251
0.6851291643
0.6920823995
0.6981193906
0.7032415718
0.7074884185
0.7109290127
0.7136529361
0.7157610739
0.7173570884
0.7185402943
0.7194004628
0.7200147542
0.7204465806
0.7207460766
0.7209515251
0.7210912587
0.7211857153
0.721249304
0.7212919944
0.7213205822
0.7213396552
0.7213522668
0.7213603938
0.7213652617
0.7213674914
0.7213668399
0.7213633146
0.7213622021
0.7213418273
0.6144477166
0.7003007485
0.713357048
0.7102764435
0.7044870322
0.6989177509
0.6923379771
0.6849862407
0.6767798654
0.667708643
0.65786475
0.6473756156
0.6364924331
0.6255606196
0.6150375799
0.6054572918
0.5973826924
0.5913325294
0.5877058632
0.5867224789
0.5883969011
0.5925503846
0.5988530399
0.6068806809
0.616170236
0.6262643567
0.6367415489
0.6472333023
0.6574315066
0.6670899717
0.6760226395
0.6841003095
0.6912464653
0.6974323989
0.7026713877
0.7070118139
0.7105292275
0.7133176991
0.7154810647
0.7171248161
0.7183493553
0.7192451134
0.7198897184
0.7203470045
0.7206675592
0.7208901578
0.721043655
0.7211490118
0.7212211335
0.7212704387
0.7213041133
0.7213270732
0.7213426411
0.7213530147
0.7213596003
0.7213631347
0.7213634417
0.7213608068
0.7213603029
0.7213400705
0.6049130027
0.6801823443
0.6877774486
0.6838070022
0.6778670603
0.6718755209
0.6649704975
0.6572866715
0.6488240366
0.6396052882
0.6297820568
0.619549734
0.609228
0.5992241392
0.5900332417
0.5821892325
0.5762067824
0.5725094805
0.5713680324
0.5728638085
0.5768872659
0.5831676193
0.5913221425
0.6009101046
0.6114793031
0.6226002339
0.6338871363
0.6450086707
0.6556914788
0.6657198708
0.6749334949
0.6832242402
0.6905325481
0.6968430993
0.7021795209
0.7065979747
0.7101796375
0.713022446
0.7152327235
0.7169174444
0.7181778313
0.7191047626
0.7197761573
0.720256122
0.7205955654
0.7208336398
0.7209996235
0.7211149159
0.7211948488
0.7212502331
0.7212885995
0.7213151563
0.7213334684
0.7213459352
0.7213541275
0.7213588787
0.7213600896
0.7213583544
0.7213583039
0.7213383113
0.5927665504
0.6573325632
0.6608636123
0.6561829834
0.6501037228
0.643759486
0.6366080613
0.6287128068
0.620149165
0.6109842858
0.6014303641
0.5917481092
0.5823148185
0.5735789712
0.5660443266
0.5602117045
0.5565179964
0.5552734097
0.5566182638
0.5605093135
0.5667373118
0.5749670439
0.5847874132
0.5957588918
0.6074505244
0.6194649148
0.6314521187
0.6431156944
0.654213763
0.6645577128
0.6740097757
0.6824802938
0.6899245432
0.6963389395
0.7017561973
0.7062393101
0.7098743749
0.7127626709
0.715012621
0.7167323912
0.7180238017
0.7189780007
0.7196730515
0.7201732072
0.7205295865
0.7207816216
0.7209589288
0.7210832734
0.7211703526
0.7212313193
0.7212740088
0.72130389
0.7213247456
0.7213391596
0.721348851
0.7213547315
0.7213567969
0.7213559643
0.7213562205
0.7213365761
0.5782755222
0.6323026478
0.6327352582
0.6274883339
0.6213115224
0.6147112671
0.6074231265
0.5994701391
0.5909962736
0.5821196664
0.5731103044
0.5642854181
0.55606296
0.54890766
0.5433025072
0.5396869125
0.5383999061
0.5396317987
0.5434009781
0.5495597119
0.5578245767
0.5678205414
0.5791274453
0.5913193855
0.6039927554
0.6167836885
0.6293765849
0.6415070021
0.6529612082
0.6635744736
0.6732288296
0.6818507794
0.6894086193
0.6959090987
0.7013929572
0.7059292218
0.7096083164
0.7125344223
0.7148177357
0.7165673701
0.7178855568
0.7188635662
0.7195794827
0.7200976017
0.7204691581
0.7207337811
0.7209213523
0.7210539395
0.721147552
0.7212136405
0.7212603093
0.721293259
0.7213164684
0.7213326909
0.7213437771
0.7213507008
0.7213535778
0.7213536414
0.7213540469
0.7213348751
0.561527458
0.6053946436
0.6035186646
0.5978563844
0.5916325351
0.5849025975
0.5776188904
0.5697927963
0.5616301086
0.5533003897
0.5451237076
0.5374598115
0.5307465736
0.5254392192
0.5219738105
0.5207075349
0.5218716164
0.5255399806
0.5316246134
0.5398959791
0.5500203416
0.5616031376
0.574229349
0.5874946568
0.6010257141
0.6144917021
0.6276090072
0.6401420641
0.6519020989
0.6627453755
0.6725712859
0.6813205266
0.6889728738
0.6955442286
0.7010824611
0.7056619613
0.7093769794
0.7123342278
0.7146454005
0.7164203534
0.7177615728
0.7187603283
0.7194946235
0.7200287087
0.7204138562
0.7206898221
0.7208866908
0.7210267782
0.7211263588
0.7211971422
0.7212474697
0.7212832477
0.7213086319
0.7213265314
0.7213389108
0.7213467941
0.7213504469
0.7213513863
0.7213517983
0.7213332258
0.5426445381
0.5768228666
0.5733118737
0.5674326306
0.5612468752
0.5545436872
0.5474382606
0.5399498112
0.5323394315
0.5248241254
0.5177627897
0.5115407476
0.506594023
0.503344616
0.5021610806
0.5033059636
0.5069018855
0.512917258
0.5211768894
0.5313917867
0.5431984517
0.5561984069
0.5699914987
0.5841994756
0.59847992
0.6125334009
0.62610551
0.638986465
0.6510095128
0.6620493535
0.6720206305
0.6808765548
0.6886070794
0.6952362609
0.7008183468
0.7054325233
0.7091764442
0.7121590377
0.7144932628
0.7162895445
0.7176504935
0.7186672756
0.7194177296
0.7199659878
0.7203632943
0.7206494726
0.7208547566
0.7210016626
0.7211066897
0.7211817721
0.7212354591
0.7212738402
0.7213012307
0.7213206824
0.7213342563
0.7213430191
0.7213474192
0.721349199
0.7213494834
0.7213316465
0.5217590702
0.546857296
0.5422150602
0.5364567835
0.5304180662
0.5239109463
0.5171727482
0.5102414134
0.503425603
0.496982583
0.4912961508
0.4867586272
0.483783148
0.4827386115
0.4839121268
0.4874672189
0.4934243556
0.5016618222
0.5119373881
0.5239227372
0.5372411592
0.5515015348
0.566324649
0.5813602499
0.5962960346
0.6108616453
0.6248289749
0.6380110986
0.6502606421
0.6614685051
0.6715627695
0.6805077333
0.6883024228
0.6949782086
0.7005950777
0.7052365322
0.7090032684
0.7120061621
0.7143592384
0.7161733447
0.7175511058
0.718583499
0.7193481282
0.7199089479
0.7203171189
0.7206124822
0.720825375
0.7209784737
0.7210884658
0.7211674795
0.7212242473
0.7212650201
0.7212942585
0.7213151441
0.7213298164
0.7213393836
0.7213445093
0.721347077
0.7213471171
0.7213301648
0.499058295
0.5158932797
0.5108492306
0.5051877365
0.4994259829
0.493286967
0.4871067794
0.4809488075
0.4751591886
0.4700250404
0.4659392648
0.4632825476
0.4624266362
0.4636726009
0.4672189521
0.473132577
0.4813431716
0.4916562225
0.5037815012
0.5173683033
0.532039255
0.5474181909
0.5631501336
0.5789130095
0.5944229281
0.6094360111
0.623747626
0.6371910321
0.6496359021
0.6609874016
0.6711855037
0.6802043813
0.6880512016
0.6947639363
0.7004077706
0.705070112
0.7088543907
0.7118731995
0.714241459
0.7160703145
0.7174623126
0.7185081719
0.7192852045
0.7198571373
0.7202750027
0.7205786168
0.7207983818
0.7209570981
0.7210716107
0.7211542152
0.7212138038
0.7212567706
0.7212877082
0.7213099155
0.7213255926
0.721335896
0.7213417302
0.7213450141
0.7213447176
0.7213288182
0.47454423
0.4843079038
0.479309798
0.4738877439
0.4685369295
0.4629408097
0.4575082415
0.4523307648
0.4477802454
0.4441614402
0.4418605699
0.4412299762
0.4425854985
0.446151262
0.4520360957
0.4602176727
0.4705490354
0.4827801751
0.4965896107
0.5116176904
0.5274953416
0.5438660189
0.5604002703
0.5768032367
0.5928172662
0.6082223195
0.6228345936
0.6365051379
0.6491186372
0.6605928611
0.670878354
0.6799581362
0.6878467242
0.6945880843
0.7002521367
0.7049298419
0.7087270964
0.7117580098
0.7141382519
0.715979159
0.7173831221
0.7184405431
0.7192283964
0.7198101406
0.7202366424
0.7205476584
0.7207736222
0.720937428
0.7210560512
0.7211419306
0.7212040979
0.721249074
0.7212815717
0.7213049939
0.7213215857
0.7213325654
0.7213390917
0.7213430011
0.7213423262
0.7213276377
0.4487960665
0.4524930441
0.4478638914
0.4428087581
0.4380131214
0.4331337925
0.4286303193
0.4246223744
0.421495922
0.4195611153
0.4191831306
0.4206722008
0.4242781041
0.4301440719
0.4382929975
0.4486240272
0.4609286064
0.4749172054
0.4902509987
0.5065715003
0.52352392
0.5407737792
0.5580170474
0.5749844257
0.5914421347
0.6071914156
0.6220668775
0.6359352417
0.6486944358
0.6602734048
0.6706321378
0.6797616264
0.6876830599
0.6944458798
0.7001243415
0.7048126516
0.7086189403
0.7116586595
0.7140481006
0.7158986999
0.7173126282
0.7183799235
0.7191771853
0.7197675721
0.7202017548
0.7205194015
0.7207509494
0.7209193603
0.7210417161
0.7211305781
0.7211950991
0.7212419121
0.72127584
0.7213003753
0.7213177956
0.7213294008
0.721336599
0.7213410307
0.7213400074
0.7213265275
0.4220064921
0.4208401184
0.4167779278
0.4122195944
0.4081128196
0.4041072055
0.4006930083
0.3980153758
0.3964628166
0.3963390496
0.3979756615
0.4016300538
0.4074797886
0.4155874893
0.4258972736
0.4382421124
0.4523664988
0.4679552676
0.4846632311
0.5021402722
0.5200495196
0.5380794138
0.5559503489
0.5734165847
0.5902658382
0.6063182424
0.6214246544
0.6354656117
0.6483507569
0.6600189866
0.6704387715
0.6796083251
0.6875549304
0.6943330547
0.7000209412
0.7047157741
0.7085277115
0.7115733943
0.7139696246
0.7158278608
0.7172499997
0.7183256786
0.7191310914
0.7197290734
0.7201700752
0.7204936528
0.7207302241
0.720902796
0.7210285365
0.7211201108
0.7211867764
0.7212352661
0.721270503
0.7212960543
0.7213142221
0.7213264104
0.7213342529
0.7213391031
0.7213377721
0.7213255449
0.3944884825
0.3897028322
0.3863165745
0.38237714
0.3790753103
0.3760765899
0.373883545
0.3726630165
0.372795719
0.3745681596
0.3782676341
0.3840907096
0.3921399976
0.4024011003
0.4147487288
0.428962499
0.4447533434
0.4617919686
0.4797350991
0.498245794
0.5170069637
0.5357297224
0.5541573599
0.5720655605
0.5892612438
0.6055812536
0.6208907754
0.635082543
0.6480765937
0.6598207222
0.6702910544
0.679492381
0.6874575762
0.6942457419
0.6999388028
0.7046366823
0.7084513839
0.7115006017
0.7139015508
0.7157656457
0.7171944649
0.7182772154
0.719089665
0.7196943065
0.7201413522
0.7204702279
0.7207113123
0.7208876393
0.7210164448
0.7211104819
0.7211790987
0.7212291167
0.7212655494
0.721292024
0.7213108648
0.7213236005