/*--------------------------------*- C++ -*----------------------------------*\
  =========                 |
  \\      /  F ield         | OpenFOAM: The Open Source CFD Toolbox
   \\    /   O peration     | Website:  https://openfoam.org
    \\  /    A nd           | Version:  12
     \\/     M anipulation  |
\*---------------------------------------------------------------------------*/
FoamFile
{
    format      ascii;
    class       volScalarField;
    location    "950";
    object      nut;
}
// * * * * * * * * * * * * * * * * * * * * * * * * * * * * * * * * * * * * * //

dimensions      [0 2 -1 0 0 0 0];

internalField   nonuniform List<scalar> 
16200
(
0.0005122034096
0.001748982138
0.002908567833
0.003808710148
0.004076798554
0.003574480611
0.002605241424
0.001399705291
0.0007122335725
0.0001891420159
5.903797224e-06
2.654024157e-06
2.404007087e-06
2.364130716e-06
1.87346724e-06
1.612616742e-06
1.406023336e-06
1.259836145e-06
1.164228859e-06
1.101665861e-06
1.064333937e-06
1.049187215e-06
1.053169887e-06
1.074280846e-06
1.111785479e-06
1.166436578e-06
1.240836566e-06
1.339991327e-06
1.472486322e-06
1.6529269e-06
1.906483777e-06
2.277287876e-06
2.844317876e-06
3.754167207e-06
5.294800569e-06
8.062622822e-06
1.33413579e-05
2.395713549e-05
4.621999339e-05
9.438760725e-05
0.0002010482115
0.0004414414511
0.0009907318676
0.001002215384
0.001001787225
0.001000833078
0.0009995081469
0.0009989156281
0.0009986855185
0.000998608303
0.0009985934519
0.000998603464
0.000998624228
0.0009986520525
0.0009986881184
0.0009987367563
0.0009988046355
0.0009989030982
0.0009990486228
0.0009992761869
0.0005053921062
0.001710710376
0.002812847211
0.003611527737
0.003705815061
0.003075925373
0.002120503279
0.001028693951
0.0005636190805
4.203818388e-05
2.721150747e-06
2.232704244e-06
2.032652277e-06
1.99332093e-06
1.681495672e-06
1.443809996e-06
1.255223403e-06
1.121864373e-06
1.03624631e-06
9.81361029e-07
9.49658351e-07
9.379991469e-07
9.433371812e-07
9.636017289e-07
9.979788355e-07
1.047059043e-06
1.113175422e-06
1.200937408e-06
1.318373773e-06
1.47917169e-06
1.706641894e-06
2.040999297e-06
2.55343441e-06
3.375378061e-06
4.764404875e-06
7.25350413e-06
1.198998545e-05
2.150038465e-05
4.142573079e-05
8.45096204e-05
0.0001798765556
0.0003947793982
0.0008858449362
0.001002075384
0.00100169001
0.001000842612
0.0009995203042
0.0009989215325
0.0009986895199
0.0009986125087
0.0009985986843
0.0009986098918
0.0009986317169
0.000998660307
0.0009986968128
0.0009987454405
0.0009988130435
0.0009989109689
0.0009990565925
0.0009992878846
0.0004993130737
0.001671974524
0.002715160444
0.00340683104
0.003331843745
0.002605053614
0.001628091362
0.0007521335937
0.0003765437097
1.431426115e-05
2.124257521e-06
1.881741537e-06
1.718555072e-06
1.681291765e-06
1.497223771e-06
1.2825937e-06
1.112330295e-06
9.918974478e-07
9.159339374e-07
8.681305627e-07
8.412424484e-07
8.320294675e-07
8.374681151e-07
8.55475766e-07
8.852469892e-07
9.273483362e-07
9.840560736e-07
1.059924579e-06
1.16290162e-06
1.306266785e-06
1.511898489e-06
1.816492658e-06
2.284171309e-06
3.032977586e-06
4.294191569e-06
6.546122527e-06
1.081744656e-05
1.937023133e-05
3.724394535e-05
7.579296422e-05
0.0001608970445
0.0003521753745
0.0007881996367
0.001001975299
0.001001608068
0.001000841969
0.0009995342831
0.0009989320478
0.0009986980435
0.0009986202968
0.0009986064737
0.0009986180176
0.0009986402591
0.0009986691834
0.0009987058481
0.0009987543512
0.0009988216033
0.0009989190115
0.0009990646138
0.0009992989483
0.0004951051395
0.001633653263
0.002613451719
0.003160859729
0.002945028013
0.002173811114
0.001155481094
0.0005574882915
0.0001848500222
5.101873373e-06
1.780695675e-06
1.600331794e-06
1.466196944e-06
1.43088004e-06
1.332667601e-06
1.138062778e-06
9.839145301e-07
8.749657198e-07
8.074228619e-07
7.656460826e-07
7.426710556e-07
7.351804859e-07
7.402228612e-07
7.558304631e-07
7.813558387e-07
8.17539837e-07
8.668730022e-07
9.341979628e-07
1.027710239e-06
1.160522842e-06
1.353370591e-06
1.640180121e-06
2.079869036e-06
2.781197493e-06
3.957893129e-06
6.052427576e-06
1.001645255e-05
1.794152934e-05
3.448150142e-05
7.010369875e-05
0.000148621897
0.0003248030875
0.0007257587806
0.001001896408
0.0010015301
0.001000810851
0.0009995376532
0.0009989393527
0.0009987060142
0.0009986282979
0.0009986145552
0.0009986263142
0.0009986488336
0.0009986780025
0.0009987147929
0.0009987632128
0.000998830186
0.0009989271892
0.0009990728213
0.0009993100364
0.000491121507
0.001595040731
0.002509472982
0.00291208599
0.00256318962
0.001792875933
0.0008293209095
0.0004244711411
4.410185231e-05
2.062868678e-06
1.507101075e-06
1.362170571e-06
1.252157833e-06
1.219597595e-06
1.177965341e-06
1.00280198e-06
8.64390125e-07
7.667161419e-07
7.072112692e-07
6.710126286e-07
6.515396131e-07
6.455073985e-07
6.501476373e-07
6.637392425e-07
6.859185003e-07
7.177570893e-07
7.621412903e-07
8.243287507e-07
9.127419575e-07
1.040208985e-06
1.226335885e-06
1.502699168e-06
1.92407055e-06
2.592052378e-06
3.707086845e-06
5.684617309e-06
9.41775134e-06
1.68668368e-05
3.238494126e-05
6.573839294e-05
0.0001390884095
0.0003032770345
0.0006760510219
0.001001840627
0.001001462157
0.001000760936
0.0009995357827
0.0009989460874
0.0009987148341
0.000998637322
0.0009986234325
0.000998635112
0.0009986576645
0.0009986869165
0.0009987237513
0.0009987720893
0.0009988388291
0.0009989355173
0.0009990812053
0.0009993210285
0.0004867789699
0.00155572303
0.002401581843
0.002656020417
0.002187549212
0.001394814268
0.0006125985647
0.0002926933281
1.71848938e-05
1.56373842e-06
1.282302273e-06
1.163634932e-06
1.07300197e-06
1.042844155e-06
1.035482761e-06
8.782537698e-07
7.545329454e-07
6.675823795e-07
6.156467394e-07
5.847120627e-07
5.686299087e-07
5.642098771e-07
5.689276872e-07
5.813936738e-07
6.016264523e-07
6.311426139e-07
6.732968201e-07
7.337211278e-07
8.209355604e-07
9.474321587e-07
1.131926231e-06
1.404320877e-06
1.816504406e-06
2.465209386e-06
3.542119806e-06
5.445171072e-06
9.029452992e-06
1.616906757e-05
3.101631251e-05
6.286213508e-05
0.0001327301749
0.0002887234959
0.0006419730718
0.001001802614
0.001001403776
0.001000709891
0.0009995272926
0.0009989511587
0.0009987237303
0.0009986468521
0.0009986327725
0.000998644203
0.0009986666271
0.0009986958534
0.000998732686
0.0009987809603
0.0009988475287
0.0009989439989
0.000999089794
0.0009993320092
0.0004813997799
0.001514881643
0.002288444754
0.00238266624
0.001828326998
0.001014903881
0.0004590434538
0.0001733372541
5.469925459e-06
1.296047037e-06
1.091652438e-06
9.935481867e-07
9.185879741e-07
8.909981928e-07
9.024302646e-07
7.626083906e-07
6.532946131e-07
5.771377964e-07
5.328158432e-07
5.07239345e-07
4.947349043e-07
4.922810229e-07
4.976841559e-07
5.099828623e-07
5.296587703e-07
5.584823636e-07
6.006703002e-07
6.618653063e-07
7.505584543e-07
8.789324477e-07
1.065627282e-06
1.338626454e-06
1.748264006e-06
2.388035412e-06
3.444075326e-06
5.303594252e-06
8.798248119e-06
1.574753952e-05
3.017262313e-05
6.104463434e-05
0.0001286018048
0.0002790133324
0.0006186475051
0.001001778751
0.001001353521
0.001000658776
0.0009995137341
0.0009989549851
0.0009987327513
0.0009986568448
0.0009986425298
0.0009986535618
0.0009986757151
0.0009987048195
0.0009987416098
0.0009987898383
0.0009988562961
0.0009989526415
0.0009990985953
0.0009993429787
0.000474287852
0.001470750821
0.002166763119
0.002101265834
0.001503240702
0.0007297128079
0.00035442643
6.131435861e-05
2.427739135e-06
1.090774586e-06
9.279875532e-07
8.467227114e-07
7.850775413e-07
7.604941458e-07
7.805075709e-07
6.575553523e-07
5.622347579e-07
4.967073884e-07
4.598217801e-07
4.394820534e-07
4.305512121e-07
4.302693813e-07
4.368533291e-07
4.498199553e-07
4.69912618e-07
4.999965137e-07
5.439130123e-07
6.076665986e-07
6.997347584e-07
8.32164439e-07
1.022774563e-06
1.300527832e-06
1.713207279e-06
2.352891609e-06
3.402902513e-06
5.245594621e-06
8.701926195e-06
1.556458977e-05
2.978499174e-05
6.015214288e-05
0.0001264317058
0.0002735768781
0.0006048519259
0.001001764893
0.001001309225
0.001000606709
0.0009994958319
0.0009989575422
0.0009987416878
0.000998667097
0.0009986525565
0.000998663096
0.0009986848788
0.0009987137933
0.0009987505184
0.0009987987261
0.0009988651382
0.0009989614512
0.0009991076202
0.0009993539595
0.0004656800401
0.001421525168
0.00201185997
0.001815428218
0.001193249292
0.0005384419413
0.0002682628449
3.264358314e-05
1.482457651e-06
9.211299136e-07
7.914297934e-07
7.232970635e-07
6.723887419e-07
6.505826154e-07
6.72269571e-07
5.647282934e-07
4.822927582e-07
4.267226693e-07
3.967790011e-07
3.81363291e-07
3.75885457e-07
3.778939464e-07
3.858051665e-07
4.001215167e-07
4.219694108e-07
4.54105965e-07
5.008400178e-07
5.682863364e-07
6.649564404e-07
8.029224004e-07
1.000014197e-06
1.284917546e-06
1.705150998e-06
2.35190915e-06
3.407882619e-06
5.255302914e-06
8.71473927e-06
1.557453563e-05
2.976584933e-05
6.000634258e-05
0.0001258404194
0.0002715812817
0.0005987188357
0.001001757594
0.001001269057
0.001000552913
0.0009994747483
0.0009989590539
0.0009987504686
0.0009986774824
0.0009986627479
0.0009986727382
0.0009986940833
0.0009987227627
0.0009987594133
0.0009988076306
0.0009988740636
0.0009989704344
0.0009991168751
0.0009993649618
0.0004555324955
0.001367632465
0.001838115585
0.001534187196
0.0008738092626
0.0004037328992
0.0001899592643
1.809703647e-05
1.150957591e-06
7.807215426e-07
6.763879999e-07
6.18975957e-07
5.767043781e-07
5.575321918e-07
5.767804629e-07
4.83314406e-07
4.127600185e-07
3.665322259e-07
3.430854943e-07
3.322990971e-07
3.301167809e-07
3.341722734e-07
3.441572309e-07
3.602435296e-07
3.841696187e-07
4.190162637e-07
4.692765783e-07
5.411706154e-07
6.43318541e-07
7.879653502e-07
9.931731372e-07
1.287696095e-06
1.719268782e-06
2.379123272e-06
3.451164925e-06
5.321540998e-06
8.819265479e-06
1.57475971e-05
3.005988724e-05
6.049740955e-05
0.0001265986859
0.0002725304692
0.0005991475289
0.001001753889
0.001001231385
0.001000496589
0.0009994514769
0.0009989597053
0.0009987590191
0.0009986878772
0.000998673001
0.0009986824211
0.0009987032925
0.0009987317144
0.0009987682947
0.0009988165585
0.0009988830805
0.0009989795972
0.000999126365
0.0009993759961
0.000443720525
0.001309066672
0.001652305855
0.001266858161
0.0006272777703
0.0003080000388
0.0001250090538
1.22800914e-05
9.404039244e-07
6.631990774e-07
5.790783079e-07
5.304247088e-07
4.952010129e-07
4.785421301e-07
4.932354641e-07
4.126519128e-07
3.530636745e-07
3.155468583e-07
2.980862861e-07
2.915240316e-07
2.920510215e-07
2.986025275e-07
3.104871709e-07
3.285523123e-07
3.549257936e-07
3.929258041e-07
4.471885444e-07
5.24060634e-07
6.32348883e-07
7.845936491e-07
9.99261759e-07
1.305457088e-06
1.751516696e-06
2.429491814e-06
3.526075314e-06
5.43479035e-06
9.000679328e-06
1.605844605e-05
3.062001886e-05
6.153160098e-05
0.0001285100681
0.0002759974279
0.0006051856084
0.00100175143
0.001001194893
0.001000437043
0.0009994269509
0.0009989597086
0.0009987673037
0.0009986981887
0.0009986832331
0.0009986920891
0.000998712477
0.0009987406383
0.0009987771649
0.0009988255171
0.0009988921976
0.0009989889453
0.0009991360931
0.0009993870698
0.0004299208552
0.001244984298
0.001461784855
0.001002874255
0.000469785264
0.0002413889121
5.984218393e-05
6.779837407e-06
7.576143605e-07
5.648747138e-07
4.965476035e-07
4.553164077e-07
4.259558007e-07
4.117630964e-07
4.211016468e-07
3.521623591e-07
3.025362141e-07
2.729496426e-07
2.608142438e-07
2.576480041e-07
2.610913745e-07
2.697045008e-07
2.834614927e-07
3.036823049e-07
3.327833583e-07
3.742526291e-07
4.328540047e-07
5.150968868e-07
6.300470944e-07
7.906386749e-07
1.01587916e-06
1.335454542e-06
1.798631217e-06
2.498961937e-06
3.627310968e-06
5.587628866e-06
9.247680089e-06
1.648820372e-05
3.141180877e-05
6.304134705e-05
0.0001314343909
0.0002816793564
0.0006161599714
0.001001748404
0.001001158551
0.001000373692
0.0009994019384
0.0009989592526
0.0009987753027
0.0009987083443
0.0009986933769
0.0009987016966
0.0009987216129
0.000998749527
0.0009987860268
0.0009988345143
0.0009989014233
0.0009989984836
0.0009991460608
0.0009993981882
0.0004139241389
0.001173204098
0.001266076441
0.0007510655938
0.0003651747635
0.0001876470735
3.066877464e-05
3.487374121e-06
6.12724907e-07
4.826932386e-07
4.270237305e-07
3.919975951e-07
3.674763465e-07
3.555101096e-07
3.593356672e-07
3.007306854e-07
2.600339347e-07
2.375475259e-07
2.300404446e-07
2.299940512e-07
2.358026228e-07
2.462664341e-07
2.619342742e-07
2.844826235e-07
3.165304083e-07
3.616948028e-07
4.248742322e-07
5.1278241e-07
6.348056128e-07
8.043488282e-07
1.041068682e-06
1.375427776e-06
1.857907012e-06
2.584167053e-06
3.75048683e-06
5.77398557e-06
9.551159245e-06
1.702188034e-05
3.240826245e-05
6.49741858e-05
0.0001352635298
0.0002893435905
0.0006315543214
0.00100174348
0.001001121593
0.001000306083
0.0009993770529
0.0009989585032
0.0009987830117
0.0009987182923
0.0009987033815
0.0009987112085
0.0009987306823
0.0009987583763
0.0009987948848
0.0009988435584
0.000998910766
0.0009990082166
0.000999156268
0.0009994093549
0.0003963127736
0.001092980072
0.00106947959
0.0005592360844
0.0002808409845
0.0001391049342
1.84465369e-05
1.897140047e-06
5.014269932e-07
4.124358596e-07
3.68419683e-07
3.384001328e-07
3.176870268e-07
3.076045907e-07
3.062253405e-07
2.56885676e-07
2.242826552e-07
2.081548845e-07
2.042848012e-07
2.073407434e-07
2.151240616e-07
2.273469936e-07
2.450084884e-07
2.700356418e-07
3.051881226e-07
3.541980733e-07
4.221191671e-07
5.159081863e-07
6.453201769e-07
8.242916132e-07
1.073289479e-06
1.42350209e-06
1.927097698e-06
2.682322913e-06
3.892015167e-06
5.988980539e-06
9.903957674e-06
1.764796677e-05
3.358908458e-05
6.729133474e-05
0.0001399185361
0.0002988216285
0.0006509965258
0.001001735718
0.00100108347
0.001000233886
0.0009993527526
0.0009989575954
0.0009987904356
0.0009987279976
0.0009987132102
0.0009987205993
0.0009987396727
0.0009987671847
0.0009988037447
0.000998852658
0.000998920234
0.000999018148
0.0009991667133
0.0009994205715
0.0003783662533
0.001007291057
0.0008600522268
0.0004271926571
0.0002272256462
0.0001009382587
1.284402239e-05
1.087830206e-06
4.142301119e-07
3.519529963e-07
3.166437437e-07
2.918586983e-07
2.74406334e-07
2.661410157e-07
2.603756406e-07
2.195489924e-07
1.943599317e-07
1.838690013e-07
1.834159294e-07
1.887670234e-07
1.982804465e-07
2.122465887e-07
2.319904926e-07
2.59605667e-07
2.979583818e-07
3.509001709e-07
4.236644917e-07
5.234824039e-07
6.605138457e-07
8.492752857e-07
1.111029559e-06
1.478105685e-06
2.004322601e-06
2.791111442e-06
4.0489418e-06
6.228665222e-06
1.030041217e-05
1.835757945e-05
3.49389674e-05
6.996410399e-05
0.0001453418639
0.0003099918909
0.0006742197601
0.001001724493
0.001001043813
0.001000156881
0.0009993293622
0.0009989566355
0.0009987975852
0.0009987374391
0.0009987228384
0.0009987298519
0.000998748577
0.0009987759532
0.0009988126127
0.0009988618219
0.000998929835
0.000999028281
0.0009991773945
0.0009994318382
0.0003606987444
0.0009144072369
0.0006920624894
0.0003496602986
0.0001917022035
5.657234664e-05
8.53989235e-06
6.790379373e-07
3.455072526e-07
2.999823493e-07
2.715769984e-07
2.510598648e-07
2.369631056e-07
2.30414018e-07
2.211706999e-07
1.880966087e-07
1.695991302e-07
1.636243924e-07
1.663712754e-07
1.735888646e-07
1.846965596e-07
2.004244178e-07
2.223155303e-07
2.5257613e-07
2.941689281e-07
3.510775267e-07
4.287358487e-07
5.346721966e-07
6.794787462e-07
8.782926553e-07
1.153244378e-06
1.537916344e-06
2.088009966e-06
2.908613578e-06
4.218855811e-06
6.489884462e-06
1.073612113e-05
1.914402891e-05
3.644674246e-05
7.297214126e-05
0.0001514935973
0.0003227713879
0.0007010437636
0.001001709419
0.001001002387
0.001000082291
0.0009993070945
0.0009989557031
0.0009988044749
0.0009987466065
0.0009987322518
0.0009987389566
0.0009987573922
0.000998784685
0.0009988214962
0.0009988710589
0.0009989395762
0.0009990386178
0.0009991883095
0.0009994431535
0.0003459037333
0.0008136912826
0.0005594923485
0.0002897361317
0.0001596060031
3.126099041e-05
4.066393046e-06
4.592409647e-07
2.907412451e-07
2.560974533e-07
2.330905978e-07
2.160111229e-07
2.045162e-07
1.997368489e-07
1.879035787e-07
1.618668753e-07
1.493399652e-07
1.47493838e-07
1.524955604e-07
1.612937836e-07
1.739265917e-07
1.914334268e-07
2.15498458e-07
2.484147326e-07
2.932444069e-07
3.541155584e-07
4.366769046e-07
5.487708725e-07
7.014443e-07
9.104977675e-07
1.198972715e-06
1.601829363e-06
2.176858572e-06
3.033258383e-06
4.39981513e-06
6.77015717e-06
1.120773721e-05
2.000243323e-05
3.810461582e-05
7.63018425e-05
0.0001583480203
0.000337108098
0.0007313575556
0.001001690292
0.001000958681
0.001000012255
0.0009992860757
0.0009989548559
0.0009988111212
0.0009987554983
0.0009987414444
0.0009987479095
0.0009987661187
0.0009987933849
0.0009988304028
0.0009988803772
0.0009989494642
0.0009990491603
0.0009991994583
0.0009994545148
0.0003372053111
0.0007086848522
0.0004601315349
0.00024178348
0.000129449957
1.862823682e-05
1.945268845e-06
3.329204447e-07
2.458678938e-07
2.186825209e-07
1.999146358e-07
1.857147689e-07
1.763605509e-07
1.731337297e-07
1.59844585e-07
1.402745582e-07
1.327092485e-07
1.345275837e-07
1.412871766e-07
1.514744878e-07
1.65588526e-07
1.848716485e-07
2.111017557e-07
2.466496729e-07
2.94682473e-07
3.594818088e-07
4.469211299e-07
5.651705687e-07
7.257526649e-07
9.451525832e-07
1.247409915e-06
1.668931315e-06
2.269806002e-06
3.163781299e-06
4.590286861e-06
7.067583186e-06
1.171280907e-05
2.092942818e-05
3.990760024e-05
7.994517722e-05
0.0001658910847
0.0003529753486
0.0007651067011
0.001001667058
0.001000912214
0.000999946795
0.0009992663663
0.0009989541341
0.0009988175418
0.000998764119
0.0009987504165
0.0009987567113
0.0009987747602
0.0009988020592
0.0009988393406
0.000998889785
0.0009989595049
0.0009990599105
0.0009992108392
0.000999465918
0.0003374056541
0.0006046857071
0.0003732888739
0.0002067719145
0.0001023283305
1.222692322e-05
9.491137609e-07
2.564928343e-07
2.082290172e-07
1.864874662e-07
1.711978316e-07
1.595355853e-07
1.521053968e-07
1.502943736e-07
1.365826528e-07
1.229021015e-07
1.198575771e-07
1.241811191e-07
1.323277416e-07
1.437755291e-07
1.593359693e-07
1.803742394e-07
2.087361692e-07
2.468691369e-07
2.980492086e-07
3.667184424e-07
4.589833901e-07
5.833540076e-07
7.518463235e-07
9.816649159e-07
1.297894378e-06
1.738481096e-06
2.36600182e-06
3.299186186e-06
4.789092466e-06
7.380760251e-06
1.224964699e-05
2.192293282e-05
4.18530765e-05
8.389881566e-05
0.0001741185825
0.0003703678386
0.0008022844248
0.001001639768
0.001000862626
0.0009998858143
0.0009992479795
0.0009989535643
0.0009988237545
0.0009987724781
0.000998759173
0.0009987653665
0.0009987833219
0.0009988107149
0.0009988483175
0.0009988992897
0.0009989697033
0.0009990708696
0.0009992224459
0.0009994773578
0.0003473870077
0.0005101606481
0.0003166626552
0.0001842250731
5.978299256e-05
8.597608911e-06
4.904554968e-07
2.059368791e-07
1.76687441e-07
1.591260041e-07
1.467302954e-07
1.372865225e-07
1.315593088e-07
1.310475859e-07
1.177209519e-07
1.092559794e-07
1.098425162e-07
1.159472448e-07
1.252365213e-07
1.378698566e-07
1.548476899e-07
1.77607364e-07
2.080521215e-07
2.487075869e-07
3.029627401e-07
3.754259713e-07
4.72445038e-07
6.028812501e-07
7.792622547e-07
1.01954063e-06
1.34989353e-06
1.809893024e-06
2.464785973e-06
3.438716396e-06
4.995366829e-06
7.708721519e-06
1.28172189e-05
2.298196088e-05
4.394042384e-05
8.816335797e-05
0.0001830344737
0.0003892979319
0.0008429235102
0.001001608548
0.001000809655
0.0009998291401
0.000999230896
0.0009989531631
0.0009988297771
0.0009987805878
0.0009987677225
0.000998773882
0.0009987918111
0.0009988193597
0.0009988573413
0.0009989088983
0.0009989800639
0.0009990820379
0.0009992342658
0.0009994888275
0.0003647313394
0.0004724854013
0.0002754084302
0.0001654611908
3.193386072e-05
3.545398462e-06
2.817401738e-07
1.703016059e-07
1.506265988e-07
1.362888028e-07
1.262154618e-07
1.186266056e-07
1.143878344e-07
1.149485247e-07
1.027109968e-07
9.857372785e-08
1.020135114e-07
1.093974104e-07
1.196954737e-07
1.334760952e-07
1.518415322e-07
1.76277851e-07
2.087442412e-07
2.518472736e-07
3.090935865e-07
3.85263347e-07
4.869534872e-07
6.233877488e-07
8.076229459e-07
1.058386244e-06
1.402992021e-06
1.88271968e-06
2.565665079e-06
3.581822747e-06
5.208514742e-06
8.050873917e-06
1.341505673e-05
2.410646621e-05
4.617074223e-05
9.274279859e-05
0.0001926497857
0.0004097933198
0.000887091482
0.001001573571
0.001000753109
0.0009997765548
0.0009992150754
0.00099895294
0.000998835627
0.0009987884628
0.0009987760759
0.0009987822667
0.0009988002356
0.0009988280013
0.0009988664193
0.0009989186166
0.0009989905897
0.0009990934133
0.0009992462834
0.0009995003186
0.0003858339384
0.0004113978998
0.0002470208575
0.0001467691069
1.728994888e-05
1.349371758e-06
1.877706326e-07
1.434342283e-07
1.289935407e-07
1.171888584e-07
1.089589591e-07
1.0295591e-07
1.000610336e-07
1.004471645e-07
9.096057781e-08
9.05385158e-08
9.584073864e-08
1.042110241e-07
1.154553234e-07
1.303560201e-07
1.500707423e-07
1.761279028e-07
2.10544717e-07
2.560118739e-07
3.161583742e-07
3.959413838e-07
5.02214623e-07
6.445751414e-07
8.366252878e-07
1.097892247e-06
1.456869902e-06
1.956623688e-06
2.668276116e-06
3.728116589e-06
5.428148601e-06
8.406911419e-06
1.404312676e-05
2.529713236e-05
4.854648303e-05
9.764383177e-05
0.0002029812342
0.0004318941316
0.0009348841128
0.001001535038
0.001000692845
0.0009997278186
0.0009992004643
0.0009989528993
0.0009988413208
0.0009987961188
0.0009987842457
0.0009987905304
0.0009988086041
0.0009988366476
0.0009988755583
0.0009989284499
0.0009990012827
0.0009991049919
0.0009992584858
0.0009995118219
0.0004115477705
0.0003776295278
0.0002334432075
0.0001262450857
1.004739208e-05
4.855306936e-07
1.436695251e-07
1.219394736e-07
1.107277974e-07
1.009970515e-07
9.435884651e-08
8.978832729e-08
8.79212609e-08
8.711585322e-08
8.194703778e-08
8.440816093e-08
9.095544556e-08
1.001616505e-07
1.123162969e-07
1.283032499e-07
1.493177054e-07
1.769306729e-07
2.132200152e-07
2.609637616e-07
3.239173042e-07
4.072199979e-07
5.179895931e-07
6.662068996e-07
8.660354369e-07
1.137826746e-06
1.511294929e-06
2.031368461e-06
2.772375186e-06
3.87735572e-06
5.65406991e-06
8.776788624e-06
1.470178758e-05
2.655529718e-05
5.107129861e-05
0.0001028755265
0.000214050489
0.0004556511486
0.0009864189217
0.00100149317
0.001000628745
0.0009996826843
0.0009991870023
0.0009989530418
0.0009988468745
0.0009988035718
0.0009987922449
0.0009987986836
0.0009988169253
0.0009988453059
0.0009988847643
0.0009989384023
0.0009990121437
0.000999116768
0.0009992708563
0.0009995233275
0.0004389959363
0.0003641437787
0.0002285142959
8.536170371e-05
5.04199642e-06
1.964498033e-07
1.184744618e-07
1.040968876e-07
9.515078183e-08
8.73677104e-08
8.199107817e-08
7.859099218e-08
7.772238603e-08
7.666152421e-08
7.518713287e-08
7.963925225e-08
8.711019482e-08
9.707409658e-08
1.101036751e-07
1.271323402e-07
1.493882805e-07
1.784866412e-07
2.165682374e-07
2.665013571e-07
3.321714411e-07
4.189050498e-07
5.340908848e-07
6.881035286e-07
8.956827243e-07
1.178028022e-06
1.56611357e-06
2.106807264e-06
2.877823964e-06
4.029427036e-06
5.886246117e-06
9.160687399e-06
1.539173733e-05
2.788285953e-05
5.374985946e-05
0.0001084489439
0.000225883332
0.0004811239153
0.001002172715
0.001001448204
0.00100056069
0.0009996409082
0.0009991746259
0.0009989533658
0.0009988523027
0.000998810838
0.000998800087
0.0009988067369
0.0009988252078
0.0009988539834
0.0009988940426
0.0009989484768
0.0009990231722
0.0009991287336
0.0009992833692
0.0009995348271
0.0004827951397
0.0003659860292
0.0002284898403
4.152560134e-05
1.366470723e-06
1.205051166e-07
1.004871083e-07
8.941116292e-08
8.219278818e-08
7.579966045e-08
7.152810672e-08
6.923363199e-08
6.932621358e-08
6.875277537e-08
7.01920703e-08
7.595211496e-08
8.41283256e-08
9.479913857e-08
1.086617689e-07
1.266798908e-07
1.501142971e-07
1.806256751e-07
2.204198389e-07
2.724579893e-07
3.407590978e-07
4.308416657e-07
5.503719609e-07
7.101279619e-07
9.254402618e-07
1.218379722e-06
1.62121992e-06
2.182844764e-06
2.984542225e-06
4.184287463e-06
6.124734896e-06
9.558914929e-06
1.611386641e-05
2.928204969e-05
5.658747181e-05
0.0001143764602
0.0002385084001
0.0005083783324
0.00100214233
0.001001400391
0.001000488541
0.0009996022561
0.0009991632719
0.0009989538681
0.0009988576193
0.0009988179328
0.0009988077853
0.0009988147009
0.0009988334597
0.0009988626862
0.0009989033974
0.0009989586752
0.000999034366
0.0009991408769
0.000999295995
0.0009995463118
0.0005238014404
0.0003597458448
0.0002229839976
1.94264302e-05
3.290162667e-07
9.683561464e-08
8.640399742e-08
7.734802177e-08
7.131597537e-08
6.609686707e-08
6.283156752e-08
6.157046643e-08
6.25656825e-08
6.297101261e-08
6.648888372e-08
7.309364735e-08
8.186362371e-08
9.319906539e-08
1.078483125e-07
1.268003715e-07
1.51349335e-07
1.832027217e-07
2.246332711e-07
2.786976143e-07
3.495515259e-07
4.429099018e-07
5.667228794e-07
7.321811873e-07
9.552206574e-07
1.258806655e-06
1.676551528e-06
2.259432656e-06
3.092502826e-06
4.341957348e-06
6.369674248e-06
9.971887235e-06
1.686922662e-05
3.07553662e-05
5.958993768e-05
0.0001206714453
0.0002519564338
0.0005374849744
0.001002108325
0.001001350001
0.001000412113
0.0009995665068
0.0009991528783
0.0009989545444
0.0009988628367
0.0009988248711
0.0009988153523
0.0009988225855
0.0009988416886
0.0009988714196
0.0009989128317
0.000998968998
0.000999045721
0.0009991531826
0.0009993087289
0.0009995577672
0.0005627164752
0.0003494517897
0.0002093284059
9.638904673e-06
1.268022459e-07
8.279897601e-08
7.475895914e-08
6.732969401e-08
6.224328243e-08
5.801814901e-08
5.568866637e-08
5.540101168e-08
5.722728767e-08
5.882691468e-08
6.369431172e-08
7.088595915e-08
8.019034189e-08
9.214904634e-08
1.075369265e-07
1.273675064e-07
1.529691654e-07
1.860976488e-07
2.29094458e-07
2.851140844e-07
3.584521739e-07
4.550242896e-07
5.83070508e-07
7.54203567e-07
9.849789368e-07
1.299279807e-06
1.732096998e-06
2.336580235e-06
3.201745719e-06
4.502538332e-06
6.62130491e-06
1.04001568e-05
1.765906436e-05
3.230561003e-05
6.276357143e-05
0.0001273482008
0.0002662599667
0.0005685180686
0.001002070951
0.001001297334
0.001000331153
0.0009995334537
0.0009991433857
0.0009989553895
0.0009988679664
0.0009988316668
0.0009988228001
0.0009988303999
0.0009988499013
0.0009988801882
0.0009989223475
0.0009989794446
0.0009990572312
0.0009991656354
0.0009993215803
0.0009995691735
0.0005814456169
0.0003384972928
0.0001854024048
5.644252812e-06
9.441544371e-08
7.153035321e-08
6.509005457e-08
5.895884474e-08
5.465620054e-08
5.131533147e-08
4.989074701e-08
5.051771825e-08
5.308426259e-08
5.584863715e-08
6.154924686e-08
6.920224837e-08
7.899994967e-08
9.154074077e-08
1.076195479e-07
1.28274999e-07
1.548707767e-07
1.892123359e-07
2.337116508e-07
2.916233546e-07
3.673858385e-07
4.671194513e-07
5.993601392e-07
7.761518461e-07
1.014684176e-06
1.339781635e-06
1.787853633e-06
2.414302767e-06
3.312314569e-06
4.666134179e-06
6.879867646e-06
1.084427112e-05
1.848461088e-05
3.393554942e-05
6.611462736e-05
0.0001344209323
0.0002814513982
0.0006015517304
0.001002030441
0.001001242729
0.001000252943
0.0009995029058
0.000999134738
0.0009989563978
0.0009988730186
0.0009988383326
0.0009988301399
0.0009988381527
0.0009988581037
0.0009988889953
0.0009989319455
0.0009989900127
0.0009990688887
0.0009991782209
0.0009993345385
0.0009995805116
0.0005688689523
0.0003331781977
0.0001531481398
2.184251395e-06
7.700131858e-08
6.226738261e-08
5.701937525e-08
5.19327437e-08
4.83077792e-08
4.579470277e-08
4.525685652e-08
4.671464178e-08
4.988816711e-08
5.365769729e-08
5.988938661e-08
6.79415821e-08
7.819689123e-08
9.127968387e-08
1.080040288e-07
1.29434484e-07
1.569710302e-07
1.924702709e-07
2.384162173e-07
2.981657071e-07
3.763026202e-07
4.791560366e-07
6.155636581e-07
7.980098025e-07
1.044332857e-06
1.38032238e-06
1.843847041e-06
2.492644756e-06
3.424284005e-06
4.832882433e-06
7.145640043e-06
1.130481584e-05
1.934713128e-05
3.564796915e-05
6.964932446e-05
0.0001419036686
0.0002975625897
0.0006366586326
0.001001987008
0.001001186266
0.001000180518
0.0009994746866
0.0009991268821
0.0009989575632
0.0009988780022
0.0009988448803
0.0009988373816
0.0009988458514
0.0009988663008
0.0009988978431
0.0009989416249
0.0009990006986
0.0009990806834
0.0009991909237
0.0009993475864
0.0009995917636
0.0005525942824
0.0003306927313
8.212495983e-05
7.39784182e-07
6.532195909e-08
5.466313531e-08
5.030289621e-08
4.605411647e-08
4.30325638e-08
4.13169973e-08
4.162447175e-08
4.379400677e-08
4.730431322e-08
5.200084931e-08
5.860980401e-08
6.702261294e-08
7.770143655e-08
9.128768853e-08
1.086149138e-07
1.307743828e-07
1.592033593e-07
1.958108542e-07
2.431543493e-07
3.046947541e-07
3.851641076e-07
4.911039934e-07
6.316597312e-07
8.197651516e-07
1.073922152e-06
1.420909233e-06
1.900095411e-06
2.57163815e-06
3.53771002e-06
5.002893525e-06
7.418857081e-06
1.178230209e-05
2.02477503e-05
3.744537659e-05
7.337331773e-05
0.0001498092612
0.0003146229
0.0006739060202
0.001001940859
0.001001127891
0.001000113449
0.0009994486341
0.0009991197682
0.0009989588796
0.0009988829252
0.0009988513202
0.0009988445345
0.0009988535026
0.0009988744963
0.0009989067324
0.0009989513839
0.0009990114967
0.0009990926032
0.000999203728
0.0009993607066
0.0009996029084
0.0005320724259
0.0003255061351
4.486182446e-05
2.782704095e-07
5.668660896e-08
4.840316201e-08
4.470234386e-08
4.113397149e-08
3.868019138e-08
3.774620509e-08
3.882003895e-08
4.156382104e-08
4.545976348e-08
5.072124577e-08
5.763250877e-08
6.637523584e-08
7.744529581e-08
9.14991809e-08
1.09390419e-07
1.322376992e-07
1.61516538e-07
1.991893599e-07
2.478884608e-07
3.111805818e-07
3.939485033e-07
5.029499875e-07
6.476438135e-07
8.4142252e-07
1.103466301e-06
1.461566728e-06
1.956634591e-06
2.65133296e-06
3.652666997e-06
5.176295193e-06
7.699764596e-06
1.227723147e-05
2.118753003e-05
3.933008695e-05
7.729175666e-05
0.0001581493025
0.0003326586176
0.0007133537618
0.001001892199
0.001001067525
0.001000051346
0.0009994245994
0.0009991133499
0.0009989603404
0.0009988877944
0.0009988576618
0.0009988516064
0.0009988611117
0.0009988826931
0.0009989156629
0.0009989612191