/*--------------------------------*- C++ -*----------------------------------*\
  =========                 |
  \\      /  F ield         | OpenFOAM: The Open Source CFD Toolbox
   \\    /   O peration     | Website:  https://openfoam.org
    \\  /    A nd           | Version:  12
     \\/     M anipulation  |
\*---------------------------------------------------------------------------*/
FoamFile
{
    format      ascii;
    class       volScalarField;
    location    "950";
    object      omega;
}
// * * * * * * * * * * * * * * * * * * * * * * * * * * * * * * * * * * * * * //

dimensions      [0 0 -1 0 0 0 0];

internalField   nonuniform List<scalar> 
16200
(
713409.801
282470.7444
159957.2119
110817.7671
86169.71288
70093.95723
55229.19949
33619.54496
7765.233736
783.033736
318.7756957
200.0133425
129.6581083
86.99832398
62.17143196
46.61892132
35.11302233
26.68963554
20.56141537
15.97225295
12.49767585
9.862129165
7.854973776
6.317394946
5.13120425
4.208332505
3.484359652
2.912460035
2.458855739
2.099645721
1.817390073
1.59782171
1.427904095
1.296502989
1.195910419
1.121152107
1.068362173
1.033472557
1.011992249
0.9996241008
0.9929309729
0.9895529366
0.9880495658
0.9876287867
0.9872675394
0.9864993665
0.9854465563
0.9849648589
0.9847721502
0.9847118896
0.9847219769
0.9847847031
0.9849051585
0.9851031701
0.985412032
0.9858820442
0.9865883303
0.9876488503
0.9892607187
0.9918111136
749284.3384
297777.3381
168521.8284
116776.4664
90596.79247
72688.38085
54759.12651
26871.82407
4061.587659
598.7318801
322.6714236
203.8773417
132.1635289
88.46992857
62.8546907
47.05652256
35.35059071
26.78462369
20.58132191
15.95191439
12.45549743
9.810776209
7.802265575
6.267711463
5.086834544
4.170171592
3.452463988
2.886372406
2.437763083
2.082641915
1.803802172
1.587387386
1.420535994
1.291872874
1.193398435
1.120024569
1.067987789
1.033428613
1.012052174
0.9996900492
0.9929703435
0.9895585851
0.9880193007
0.9875608878
0.9872376558
0.9865574252
0.9855123462
0.9850320005
0.9848443339
0.9847908616
0.9848082027
0.9848777537
0.9850038665
0.9852056343
0.9855156699
0.9859836397
0.9866848314
0.9877389657
0.989350985
0.9919389042
783762.4297
312730.5972
176929.4445
122637.5652
94633.59306
74723.82845
52415.28478
19161.29042
2130.369591
547.5074393
327.5702642
207.3167546
134.360433
89.74396848
63.42735292
47.40445676
35.51590327
26.82126497
20.55373389
15.89395902
12.38392107
9.73657095
7.731730355
6.203940714
5.031141423
4.122752396
3.412903606
2.853921485
2.411427067
2.061369775
1.786765674
1.57417898
1.410976352
1.285577065
1.189693823
1.118107297
1.067139235
1.033133872
1.012002551
0.9997257155
0.9930186134
0.9895899161
0.9880202833
0.9875209012
0.987216318
0.9866040639
0.9855757168
0.9850986041
0.9849156689
0.9848680795
0.9848918037
0.9849675826
0.9850991174
0.9853048186
0.9856166129
0.986083557
0.9867809333
0.9878299914
0.9894425337
0.9920649632
815981.959
326740.6762
184978.7535
128306.4356
98091.55662
76210.51305
47334.14758
11883.93272
1301.725649
536.8673175
331.4294078
210.0103837
136.0811134
90.73201687
63.84616665
47.63358729
35.58941286
26.78561092
20.46971978
15.79180845
12.27793797
9.635513126
7.640012089
6.123155835
4.96151283
4.063729073
3.363589068
2.813291152
2.378339934
2.034661268
1.765448535
1.557646101
1.3988728
1.277382217
1.184627384
1.115265843
1.065704797
1.032495723
1.011768539
0.9996723643
0.9930307393
0.9896129141
0.9880276075
0.9874946186
0.9871950829
0.9866238808
0.9856273829
0.985158975
0.9849826016
0.9849413175
0.9849714058
0.9850533703
0.9851904519
0.9854004815
0.9857147521
0.9861817457
0.9868766549
0.9879220316
0.9895357302
0.9921901475
845567.9585
339807.785
192548.0502
133666.3241
101247.0095
75798.51401
38485.59055
6585.938246
1013.728927
537.3532492
334.2622113
211.9913378
137.3338845
91.42947939
64.11028542
47.74055329
35.5672618
26.6744177
20.32678287
15.64335823
12.13580802
9.506131622
7.525833264
6.024246421
4.877007924
3.992350259
3.303984783
2.764186349
2.338458788
2.002707707
1.740218907
1.538245007
1.384679852
1.267678781
1.178499055
1.111710738
1.063821178
1.031597023
1.011397506
0.9995558819
0.9930203937
0.9896345158
0.9880446131
0.9874837905
0.9871789248
0.9866262151
0.9856718259
0.9852155019
0.9850465778
0.9850115716
0.9850477679
0.98513573
0.9852783757
0.9854930332
0.9858104073
0.9862784348
0.9869721546
0.9880152208
0.9896307792
0.9923146483
871956.1687
351916.7419
199678.0845
138533.8827
103858.8611
72889.46643
29378.39263
3846.46684
928.3262053
539.2897678
335.9160306
213.1878299
138.0737598
91.80590911
64.20329875
47.71197012
35.4390844
26.48025924
20.11958656
15.44451949
11.95435179
9.345890526
7.387135846
5.90555357
4.776333053
3.907682091
3.233520404
2.706388617
2.291870616
1.965818085
1.711504676
1.516422185
1.368787371
1.256762117
1.171505852
1.10755771
1.061546828
1.030460977
1.010893813
0.9993721938
0.992980735
0.9896476741
0.9880650235
0.987484522
0.9871677489
0.9866250268
0.9857082776
0.9852676591
0.9851073365
0.9850787909
0.9851209848
0.9852148471
0.9853631196
0.985582712
0.9859037964
0.986373799
0.9870675667
0.9881096757
0.9897278742
0.9924387674
894851.4133
363265.6183
206546.6795
142667.2373
106205.7299
66958.56463
20810.30052
2555.40521
901.004948
539.5491991
336.351194
213.584459
138.291237
91.85094187
64.11772718
47.53993954
35.19752108
26.19732469
19.84370478
15.19187138
11.73101136
9.152905189
7.222558005
5.766158543
4.658978991
3.809616893
3.15247234
2.640497212
2.2393861
1.924881226
1.680158224
1.492917717
1.351786299
1.245068933
1.163947258
1.102997532
1.058994279
1.02914852
1.010287211
0.9991338297
0.9929156117
0.989652201
0.988086822
0.9874942324
0.9871606836
0.9866213979
0.9857382188
0.9853160708
0.9851652329
0.9851432721
0.9851913586
0.9852910362
0.985444999
0.9856698153
0.9859951806
0.9864680465
0.9871630435
0.9882055108
0.989827159
0.992562699
914025.1426
374041.019
213312.9071
146609.7663
106480.3176
56207.54605
13464.69612
1979.33514
885.7041847
538.2979874
335.6540001
213.2106813
137.9918158
91.55860276
63.84410386
47.21413085
34.83322024
25.81878737
19.49453157
14.88242956
11.4639825
8.926152278
7.031610211
5.606004895
4.525292277
3.698480127
3.061526143
2.567460075
2.182056955
1.880901724
1.647156788
1.4684971
1.334244571
1.232998629
1.156088179
1.098194917
1.056258732
1.027710051
1.009601452
0.9988500267
0.9928270742
0.9896469226
0.988107433
0.9875099136
0.9871562716
0.9866148848
0.9857624698
0.9853609972
0.9852204023
0.9852051698
0.9852590948
0.9853645464
0.9855242859
0.9857546143
0.9860848078
0.9865613815
0.9872587375
0.9883028341
0.9899287507
0.9926866184
929339.6535
384585.9325
219811.8357
150158.7037
103271.8224
44378.98413
8651.072174
1714.945308
880.991145
535.4182952
333.8003144
212.0465915
137.1615646
90.91755425
63.37054985
46.72439118
34.33838426
25.34005434
19.06975181
14.51532336
11.15326347
8.66611713
6.815102607
5.426203866
4.376078137
3.576195536
2.96277887
2.489322509
2.121691338
1.835336545
1.613389448
1.443898879
1.316686916
1.220913722
1.148169822
1.093302689
1.053431361
1.02619615
1.008862182
0.9985322562
0.9927191561
0.9896322463
0.9881254857
0.9875290793
0.9871532994
0.9866051076
0.9857821716
0.9854028722
0.9852730677
0.985264679
0.9853244153
0.9854356316
0.9856012525
0.9858373806
0.986172928
0.9866540128
0.9873548039
0.9884017489
0.9900327377
0.9928106598
941017.5562
394938.6552
225540.3643
153801.0326
96065.06229
33678.27826
5846.797758
1582.235334
873.073418
530.7691304
330.764455
210.0816038
135.7973818
89.9257989
62.68921978
46.06406883
33.70823876
24.75926815
18.56937498
14.09168959
10.80054947
8.374727755
6.574219236
5.228065606
4.214140795
3.445289396
2.858654421
2.408220782
2.060014489
1.789482706
1.579867795
1.419739383
1.299532291
1.209097779
1.140380672
1.088441629
1.050585562
1.024648487
1.008091148
0.9981906548
0.9925957198
0.989608872
0.9881400796
0.9875496034
0.987150689
0.9865916523
0.985798317
0.9854420809
0.985323431
0.985321979
0.9853875268
0.9855045305
0.9856761583
0.985918376
0.9862597855
0.9867461477
0.987451398
0.9885023534
0.9901391866
0.9929349307
949204.0378
405233.7969
230800.5296
156282.2413
83227.15029
24093.62239
4267.388161
1503.166353
862.8193147
524.4712448
326.611136
207.3484869
133.9162457
88.59196513
61.79568243
45.22899331
32.94042518
24.0772467
17.99596641
13.61497421
10.4094441
8.054269777
6.31270652
5.015536791
4.042807723
3.308902816
2.751907194
2.326371187
1.998664824
1.744466266
1.547327139
1.396487863
1.283087061
1.19775576
1.13285874
1.083702649
1.0477785
1.023100777
1.007306746
0.9978343298
0.9924606383
0.9895779058
0.9881508698
0.9875698207
0.9871475932
0.9865741691
0.9858118356
0.9854790128
0.9853717069
0.9853772558
0.9854486347
0.9855714762
0.9857492549
0.9859978552
0.9863456197
0.9868379907
0.987548673
0.9886047397
0.9902481423
0.9930595106
953939.7065
415462.3333
236055.6191
153702.4947
69110.72077
16630.11799
3393.558627
1448.773408
848.7078285
516.5262118
321.3605678
203.8636907
131.5304994
86.92516945
60.68530531
44.21630539
32.03523559
23.29817201
17.35509073
13.09099321
9.983744976
7.709980084
6.035002986
4.792844892
3.866046476
3.170524742
2.645351867
2.245851129
1.939052811
1.701178897
1.51630389
1.374461561
1.267548081
1.187017859
1.125693836
1.07914746
1.045050822
1.021578105
1.006523308
0.9974707639
0.992317352
0.9895405463
0.9881578526
0.9875884695
0.9871433722
0.9865523802
0.985823514
0.9855140228
0.985418106
0.9854306942
0.9855079403
0.9856366941
0.9858207844
0.9860760638
0.9864306625
0.9869297412
0.9876467781
0.9887089933
0.9903596317
0.993184456
955342.7449
425379.0409
241788.8394
145507.6358
56312.93583
11855.17317
2908.185316
1405.953821
831.0286272
507.032303
315.0763625
199.6657015
128.6645595
84.94261556
59.35742751
43.02737447
30.99756958
22.4304872
16.65527269
12.52571941
9.530525827
7.347544979
5.746335415
4.564901428
3.68821985
3.03369302
2.541599891
2.168427245
1.882280134
1.660257841
1.487145255
1.35384492
1.253021038
1.17695329
1.118936497
1.074813738
1.042429337
1.020098151
1.005751557
0.9971059128
0.9921688259
0.9894979998
0.9881612714
0.987604648
0.9871375781
0.9865260952
0.985834005
0.9855474334
0.9854628353
0.9854824796
0.985565642
0.9857004027
0.9858909806
0.9861532384
0.9865151378
0.9870215927
0.9877458576
0.9888151923
0.9904736643
0.9933098015
953748.6789
434118.3253
249151.9836
131872.4686
42894.97395
8695.075515
2608.394509
1364.731755
810.7295611
494.9274285
307.8038499
194.7941562
125.3494546
82.66752891
57.81475806
41.66706333
29.83607392
21.48578159
15.90677951
11.92814949
9.056931626
6.973242031
5.452634965
4.33707669
3.513709439
2.901620248
2.442801606
2.095428312
1.82910391
1.62209612
1.460034768
1.334715414
1.239541019
1.167584585
1.112606916
1.070720181
1.039929609
1.018672363
1.004999038
0.9967442913
0.9920174978
0.9894513855
0.9881615106
0.9876177485
0.9871299213
0.9864952074
0.9858438281
0.9855795295
0.9855060942
0.9855327954
0.9856219343
0.9857628138
0.9859600676
0.9862296057
0.9865992606
0.9871137309
0.9878460492
0.9889234068
0.9905902339
0.9934355622
949768.284
441654.314
250742.5142
113825.1972
32035.91255
6711.4449
2410.617547
1322.118021
787.9434333
481.2243956
299.1781633
189.324339
121.6307284
80.12780055
56.06146769
40.14190023
28.56203803
20.47788671
15.11731727
11.30746053
8.570465654
6.594096329
5.160443515
4.114765193
3.346407036
2.776834227
2.350470212
2.027694651
1.779948666
1.586876126
1.435094325
1.317071731
1.22709311
1.15890155
1.106703745
1.066871668
1.037558758
1.017307355
1.004270738
0.9963891918
0.9918653154
0.9894017007
0.9881590271
0.9876273967
0.9871202384
0.986459683
0.985853387
0.9856105605
0.9855480734
0.9855818215
0.9856770069
0.9858241316
0.9860282605
0.9863053823
0.986683236
0.9872063332
0.9879474825
0.9890336979
0.9907093197
0.9935617352
943967.8033
445654.6095
242472.2619
98574.27134
24148.6755
5483.435683
2272.523021
1280.071069
763.6459666
466.3162956
289.6211901
183.0789869
117.5370375
77.34241285
54.09824534
38.45890223
27.18956352
19.42270644
14.30064723
10.67285182
8.079316596
6.21796482
4.876408183
3.90268051
3.189231497
2.660971831
2.265443089
1.965608574
1.734953962
1.554609174
1.412208066
1.300858761
1.215629679
1.150872745
1.10121134
1.063263565
1.035317852
1.016006122
1.003569646
0.996042903
0.99171379
0.9893498035
0.9881542988
0.9876333966
0.9871084625
0.9864252457
0.9858629881
0.9856407432
0.9855889535
0.9856297333
0.9857310437
0.9858845523
0.9860957644
0.9863807742
0.9867672588
0.9872995672
0.9880502786
0.9891461172
0.990830888
0.993688301
937251.7866
444013.9603
226113.158
82073.50844
18288.61054
4693.538209
2163.778594
1237.196055
737.7449211
450.2107018
279.2352099
176.2218881
112.9765367
74.33189765
51.92900476
36.63036543
25.73782679
18.33008724
13.46899919
10.03403734
7.592804767
5.853108248
4.606362645
3.704242016
3.043940343
2.554812578
2.187980197
1.90918816
1.694044744
1.525193352
1.391274488
1.285988478
1.205084176
1.143454532
1.096105542
1.05988524
1.033203913
1.014769117
1.002897271
0.9957069319
0.9915640684
0.9892964169
0.9881477935
0.9876356841
0.9870943032
0.9863936726
0.9858728599
0.9856702667
0.985628905
0.9856767002
0.9857842222
0.9859442635
0.9861627741
0.9864559764
0.9868515126
0.9873935898
0.9881545482
0.9892607056
0.9909548935
0.9938152245
930983.2052
435538.914
201651.4545
65813.84085
14011.26463
4157.996054
2065.766157
1192.661152
710.2291623
432.9770755
268.0922302
168.8501457
108.0489232
71.08252968
49.56104208
34.67384909
24.23016329
17.22514444
12.63436825
9.401753675
7.121073049
5.506921173
4.354437246
3.521376117
2.911247663
2.458459989
2.1179201
1.858197989
1.657001068
1.498483865
1.372154752
1.272355004
1.195380711
1.136597306
1.09135769
1.056722558
1.031211389
1.013595059
1.002254057
0.9953821866
0.9914169977
0.9892421374
0.9881399499
0.987634303
0.9870774856
0.9863650906
0.9858831706
0.9856992957
0.985668088
0.9857228844
0.9858367123
0.9860034439
0.9862294742
0.9865311723
0.9869361697
0.9874885472
0.9882603912
0.9893774933
0.9910812767
0.9939424563
926130.4354
420761.9251
176793.3495
52226.68596
11024.52814
3787.635535
1973.161504
1146.775778
681.541036
414.8730765
256.3387238
161.0507439
102.8319739
67.6399058
47.00649978
32.61459905
22.68125645
16.12802805
11.80942691
8.788193356
6.673767189
5.184696894
4.122873386
3.354773655
2.791114847
2.371569937
2.05484117
1.812254552
1.623535482
1.47421939
1.354692606
1.2598462
1.186441165
1.130250081
1.086937636
1.053759812
1.029333323
1.012481588
1.001639726
0.9950691397
0.9912731902
0.9891874514
0.9881311691
0.9876293751
0.9870578209
0.9863395268
0.9858940429
0.9857279749
0.9857066525
0.985768441
0.9858886761
0.9860622628
0.9862960383
0.9866065339
0.9870213901
0.987584573
0.9883678958
0.9894964988
0.9912099622
0.9940699335
922268.7042
401196.0238
159066.5145
41531.55311
8955.212063
3517.004555
1885.365017
1098.21119
651.8230311
395.988501
244.0327718
152.8681069
97.36251059
64.06034563
44.28544484
30.48725843
21.13251983
15.04769207
11.00790404
8.205649734
6.25797239
4.889172177
3.912348215
3.204240624
2.683004442
2.293525056
1.998178084
1.770899648
1.593288736
1.452166092
1.338726783
1.248350316
1.178189086
1.124362998
1.082815428
1.05098084
1.027562067
1.011425703
1.001053512
0.9947679456
0.9911330728
0.9891327485
0.9881218133
0.9876210718
0.9870351882
0.9863169418
0.9859055661
0.9857564325
0.9857447387
0.9858135169
0.9859402669
0.9861208795
0.9863626292
0.9866822214
0.9871073217
0.9876817888
0.9884771374
0.9896177268
0.9913408571
0.9941975802
917571.9574
378939.6292
142235.1509
32806.87939
7506.116655
3303.080586
1799.74171
1048.453362
621.2225629
376.4374828
231.2677677
144.3785849
91.73695246
60.39244534
41.4359495
28.33755971
19.61675208
13.9982989
10.24470283
7.664135164
5.87743607
4.621099599
3.722515302
3.069037866
2.586096683
2.223575365
1.947312219
1.733661605
1.565922061
1.432092142
1.324101107
1.237761387
1.170552803
1.118889318
1.078962685
1.048369975
1.025889897
1.010424126
1.000494373
0.9944785481
0.9909969358
0.9890783378
0.9881122098
0.9876095959
0.9870095169
0.9862972544
0.9859178056
0.9857847824
0.985782477
0.9858582504
0.9859916293
0.9861794437
0.9864293985
0.9867583828
0.9871940993
0.9877803027
0.9885881781
0.9897411678
0.9914738536
0.9943253087
912203.9681
350652.4953
123286.7431
25564.41975
6473.504727
3115.148872
1715.402261
997.8361855
590.051853
356.4409664
218.1979287
135.7303877
86.09119103
56.65136778
38.51183403
26.20260942
18.16221004
12.99573589
9.533416946
7.169236543
5.533050302
4.379894317
3.552355901
2.948085472
2.499418238
2.160918505
1.901620366
1.700075384
1.541109915
1.41377699
1.310668861
1.227981189
1.163466401
1.113786052
1.07535308
1.045912422
1.024309301
1.009473504
0.9999611109
0.9942007462
0.9908649647
0.9890244588
0.9881026578
0.9875951678
0.9869807677
0.9862803595
0.9859308093
0.9858131267
0.9858199889
0.9859027713
0.9860428986
0.9862380945
0.9864964862
0.9868351535
0.9872818449
0.987880209
0.9887010653
0.9898667967
0.9916088336
0.9944530197
904531.7306
328576.9218
106151.8122
19893.1833
5757.5383
2949.482283
1632.095335
947.2287565
558.8245415
336.2993994
205.1331378
127.1606886
80.3687373
52.84433118
35.58041386
24.14671358
16.79134961
12.05629621
8.883075816
6.722372014
5.223911546
4.164155921
3.400450234
2.840127995
2.421943103
2.104758603
1.860507279
1.669710504
1.518551155
1.397017487
1.298295729
1.218920525
1.156870335
1.109014356
1.07196267
1.043594545
1.022813195
1.008570555
0.9994524662
0.99393425
0.9907372694
0.9889712916
0.9880934378
0.9875780182
0.9869489144
0.9862661405
0.9859446129
0.9858415574
0.9858573865
0.9859472004
0.9860942006
0.9862969608
0.9865640213
0.9869126566
0.9873706665
0.9879815876
0.9888158315
0.9899945727
0.9917456632
0.994580605
893245.736
317194.7
89386.44093
15607.42875
5271.285865
2800.868099
1548.737505
897.4619568
527.9731618
316.733157
192.2122426
118.5171275
74.6313748
48.96052431
32.71873021
22.219119
15.52093068
11.19387602
8.296805808
6.322274726
4.94807506
3.971997684
3.265168198
2.743849972
2.352658306
2.054340818
1.8234238
1.642175538
1.497973706
1.381630332
1.286860813
1.2104995
1.150711457
1.104539551
1.068769976
1.041403977
1.021395041
1.007712169
0.9989671838
0.9936787197
0.9906139055
0.9889189641
0.988084822
0.9875583848
0.9869139264
0.9862544774
0.9859592438
0.9858701574
0.9858947735
0.98599165
0.9861456517
0.9863561608
0.9866321204
0.9869910021
0.9874606582
0.9880845034
0.9889324931
0.9901244384
0.9918841891
0.9947079479
877633.7631
313098.3104
72827.81194
12711.82146
4949.644412
2665.953841
1469.456241
850.1124442
498.5496202
297.2244063
179.2245295
109.8824055
68.95728834
45.09442988
30.00522425
20.44163516
14.36211914
10.4160573
7.773360975
5.966281899
4.703030827
3.801300531
3.144823464
2.65796458
2.290610963
2.008974337
1.789876565
1.617122715
1.479136861
1.367453342
1.276257201
1.202647651
1.144943
1.100331127
1.065756033
1.039329708
1.020048935
1.006895473
0.9985040641
0.9934337985
0.9904948945
0.9888675571
0.9880742781
0.9875365131
0.9868757519
0.9862452521
0.9859747229
0.9858990011
0.9859322447
0.9860362227
0.9861973582
0.9864158017
0.9867008884
0.9870702862
0.9875518991
0.988189005
0.9890510492
0.990256317
0.9920242415
0.994834923
857774.7492
297897.2835
56940.14688
10870.92951
4704.582913
2531.260897
1396.524622
804.1470628
469.1300491
277.6872657
166.255733
101.359217
63.44087663
41.35826047
27.50194667
18.83212948
13.32063921
9.722912072
7.308973708
5.650893332
4.485922752
3.649841128
3.037743963
2.581246385
2.234919471
1.968032902
1.759424479
1.594243693
1.461827832
1.35434299
1.266390186
1.195302644
1.139523677
1.096362156
1.062904053
1.037361921
1.018769544
1.006117825
0.9980619692
0.9931991215
0.9903802318
0.9888172183
0.9880609231
0.9875126594
0.9868342993
0.9862383514
0.9859910662
0.9859281558
0.9859698865
0.9860810123
0.9862494164
0.9864759795
0.9867704172
0.9871505915
0.9876444528
0.9882951243
0.9891714807
0.9903901124
0.9921656573
0.9949613932
833888.4445
273735.4497
43022.75358
9715.177163
4485.93381
2406.191427
1324.492511
758.6270015
439.8631171
258.2576346
153.4544986
93.08943941
58.18945573
37.86065808
25.24366997
17.39515597
12.39176306
9.109858946
6.89881963
5.372271256
4.293825225
3.515451138
2.942357401
2.512573563
2.184792238
1.930961814
1.731680441
1.573269357
1.445861214
1.342174053
1.257177026
1.188410047
1.134417476
1.092609171
1.060199385
1.035491996
1.017552135
1.00537684
0.9976398478
0.9929743338
0.9902698959
0.9887681063
0.9880449895
0.9874870979
0.9867894195
0.9862336684
0.9860082862
0.9859576813
0.9860077768
0.9861261033
0.9863019125
0.9865367791
0.9868407865
0.9872319862
0.9877383672
0.988402876
0.9892937497
0.9905257116
0.9923082716
0.9950872098
806453.8409
242098.4303
32152.77319
9049.534987
4286.83471
2284.15046
1254.062569
713.9768027
411.0005296
239.1356801
141.0199115
85.23152577
53.3005215
34.67786725
23.23803574
16.12532395
11.57181585
8.570220108
6.537628512
5.12649442
4.123883113
3.396087364
2.857220794
2.450936361
2.139526625
1.897273491
1.706306418
1.553965632
1.431075944
1.330837621
1.248545662
1.181922463
1.129593087
1.089051791
1.057629291
1.033712402
1.016392529
1.004670385
0.997236739
0.9927590972
0.9901638539
0.9887203578
0.9880266927
0.9874601319
0.9867467995
0.9862311029
0.986026392
0.9859876306
0.9860459854
0.9861715708
0.9863549223
0.9865982733
0.9869120625
0.9873145236
0.9878336737
0.9885122563
0.9894177987
0.9906629849
0.9924518911
0.9952122188
775552.8529
205364.0386
24884.56681
8596.683801
4091.696751
2166.16887
1185.654784
670.4428977
382.7224682
220.5212273
129.1599871
77.92120142
48.83967401
31.84095012
21.47397368
15.01063577
10.85227976
8.096528994
6.219994725
4.909715838
3.973389827
3.289863188
2.781027714
2.395433616
2.098501922
1.866540239
1.683007302
1.536128757
1.417331943
1.320238868
1.240433267
1.175798575
1.125023255
1.085672313
1.055182704
1.032016565
1.015287044
1.003996551
0.996851767
0.9925530913
0.9900620649
0.988674097
0.9880062294
0.9874318581
0.9867088304
0.9862305616
0.9860453897
0.9860180501
0.9860845734
0.9862174806
0.986408511
0.9866605234
0.9869842979
0.9873982417
0.9879303861
0.9886232425
0.9895435496
0.9908017838
0.9925963046
0.9953362612
740808.3838
167696.1939
20608.43561
8187.288614
3895.902347
2053.413891
1119.855489
628.3553705
355.2808048
202.6855967
118.0943245
71.26269198
44.8398666
29.34838484
19.93295852
14.03692062
10.22310146
7.681487919
5.940823348
4.718405105
3.839914106
3.195111755
2.712638093
2.345285878
2.061184563
1.838395931
1.661531158
1.519585074
1.404509897
1.310296989
1.232786273
1.170003159
1.120684786
1.082455702
1.052850229
1.030398878
1.014232511
1.003353674
0.9964841542
0.9923560228
0.9899644873
0.9886294478
0.987983788
0.9874022655
0.9866752157
0.9862319572
0.9860652819
0.986048979
0.9861235936
0.9862638883
0.9864627324
0.9867235777
0.9870575309
0.9874831619
0.9880285003
0.9887357918
0.9896709033
0.9909419411
0.9927412886
0.9954591705
701864.1152
134079.6344
17902.97359
7789.755542
3710.548471
1946.112999
1056.808801
587.8354968
328.8648721
185.8801413
107.9751602
65.29931555
41.28248974
27.17555105
18.59165904
13.18831369
9.673543911
7.317809834
5.695186853
4.549232816
3.721207494
3.110313988
2.651023984
2.29979564
2.027099556
1.812515792
1.641655057
1.504181182
1.392504501
1.300940634
1.225557348
1.164505112
1.116557243
1.079388756
1.050623622
1.028854404
1.013226108
1.002740253
0.9961331864
0.992167612
0.9898710748
0.9885865413
0.9879595535
0.9873713225
0.9866456845
0.9862352074
0.9860860683
0.9860804501
0.98616309
0.9863108403
0.9865176296
0.9867874721
0.9871317854
0.9875692892
0.9881279934
0.9888498407
0.9897997389
0.9910832704
0.9928866047
0.9955807763
659147.8062
105029.5502
16249.55797
7429.721479
3536.284706
1844.880653
996.8208336
549.0974147
303.754056
170.362768
98.89558252
60.03675793
38.16617943
25.29057056
17.42694803
12.44961449
9.193561645
6.99883134
5.478654081
4.399245473
3.61529648
3.034147021
2.595295219
2.258361198
1.995838209
1.788620879
1.6231878
1.489785689
1.381225664
1.292108823
1.218706076
1.159277906
1.112623254
1.076460298
1.048495919
1.02737895
1.012265418
1.002154984
0.9957982318
0.9919876033
0.9897817815
0.9885455289
0.987933714
0.987338962
0.9866199894
0.9862402348
0.9861077449
0.9861124889
0.9862030979
0.9863583718
0.9865732333
0.9868522281
0.987207069
0.9876566105
0.9882288221
0.9889653032
0.989929912
0.9912255649
0.9930320001
0.9957009044
612733.6326
80881.16903
15165.36437
7108.504073
3373.62723
1750.263988
940.1801443
512.3579947
280.2486747
156.3150605
90.87369804
55.44284438
35.4609149
23.65928432
16.41650498
11.80652408
8.773906044
6.718527477
5.287276934
4.265842254
3.520458848
2.965464229
2.544684071
2.220465545
1.967050373
1.766472798
1.605966369
1.476286853
1.370596978
1.28374998
1.212198372
1.15429925
1.108868296
1.073661049
1.046461358
1.025969039
1.011348412
1.001596755
0.9954787441
0.9918157686
0.9896965633
0.988506595
0.9879064682
0.9873050645
0.9865979041
0.9862469643
0.9861303028
0.986145112
0.9862436413
0.9864065053
0.9866295591
0.9869178503
0.9872833693
0.9877450895
0.9883309175
0.9890820651
0.9900612494
0.9913685915
0.9931772029
0.9958193698
562256.5144
62037.08655
14481.04625
6826.511646
3223.148112
1662.690096
887.1410775
477.8357803
258.6212535
143.8121073
83.86792474
51.46138812
33.12317353
22.24859849
15.53961042
11.24599524
8.406262584
6.471548348
5.117584306
4.146753941
3.435200332
2.903274663
2.498528832
2.185663897
1.940435217
1.745866974
1.589851057
1.463589063
1.360553184
1.27582014
1.206005239
1.149550213
1.105280081
1.070983193
1.044515088
1.024621716
1.010473337
1.001064592
0.9951742327
0.9916518925
0.9896153678
0.9884699678
0.9878780355
0.987269436
0.9865792188
0.9862553235
0.9861537285
0.986178329
0.9862847349
0.9864552527
0.9866866104
0.9869843289
0.9873606581
0.9878346722
0.9884341908
0.9891999905
0.9901935562
0.9915120995
0.9933219311
0.9959359847
506234.8642
49171.15002
14160.16621
6553.824455
3085.138902
1582.131563
837.7269264
445.6535322
239.0160994
132.8100423
77.78724867
48.01944336
31.10324917
21.02634115
14.77658619
10.75581261
8.082940761
6.252994296
4.966421728
4.039930252
3.358176459
2.846689332
2.456237114
2.153558681
1.915724216
1.726621083
1.574717596
1.451607496
1.351036587
1.268280578
1.200101221
1.145014239
1.101847933
1.068419991
1.042652939
1.023334424
1.009638658
1.000557622
0.99488425
0.9914957679
0.9895381267
0.9884359343
0.9878486718
0.9872317811
0.9865637385
0.9862652414
0.9861780046
0.9862121416
0.9863263843
0.9865046143
0.9867443773
0.9870516388
0.987438889
0.9879252839
0.9885385306
0.9893189189
0.990326614
0.991655819
0.9934658896
0.9960505601
443775.8034
40825.71266
14009.60101
6284.061287
2959.211659
1508.394961
791.8898691
415.9148231
221.4729515
123.2050778
72.52670636
45.04520563
29.35537326
19.9645805
14.11052507
10.32556225
7.797427821
6.058738627
4.831143896
3.943657645
3.288266592
2.794968926
2.417317295
2.123820657
1.892695556
1.708584968
1.560464019
1.440272868
1.342000307
1.261100022
1.1944659
1.140678131
1.09856341
1.065966159
1.040871642
1.02210513
1.008843118
1.000075117
0.9946084123
0.9913472057
0.9894647483
0.9884048608
0.9878186969
0.9871916704
0.986551281
0.9862766471
0.9862031075
0.9862465431
0.9863685836
0.9865545774
0.9868028347
0.9871197374
0.9875179959
0.9880168281
0.9886438008
0.9894386637
0.9904601799
0.9917994596
0.993608768
0.9961629157
373384.009
35573.41691
13929.12551
6043.936461
2846.162337
1441.705675
749.739632
388.7533783
205.9503207
114.864251
67.98056038
42.47205132
27.83877465
19.03899551
13.52676202
9.946240798
7.544108867
5.885231276
4.709478602
3.856465714
3.224509718
2.747479756
2.381348217
2.096168023
1.871159657
1.691630591
1.547003682
1.429526599
1.333404984
1.254252448
1.189082435
1.136531092
1.095419684
1.063617486
1.039168603
1.020932196
1.008085682
0.9996164575
0.9943463866
0.9912060299
0.9893950968
0.9883772139
0.9877885348
0.9871484951
0.9865416746
0.9862894694
0.9862290079
0.986281517
0.9864113153
0.9866051156
0.9868619415
0.9871885634
0.9875978913
0.9881091841
0.988749839
0.9895590103
0.9905939853
0.991942708
0.9937502415
0.9962728749
292322.8393
32333.89082
13861.05567
5830.050874
2744.807936
1381.40846
710.9484627
364.0489024
192.2489633
107.589986
64.02950443
40.23196474
26.51431064
18.22676878
13.01172213
9.609604506
7.31788827
5.729273876
4.599391193
3.777044775
3.166054078
2.703662907
2.347960346
2.070354979
1.85095229
1.675647935
1.53426286
1.419319426
1.325217974
1.247716624
1.183937339
1.132564649
1.092411539
1.061370842
1.037541924
1.019814404
1.007365552
0.9991811557
0.9940979059
0.9910720908
0.9893289655
0.9883535861
0.9877587788
0.9871021236
0.9865347567
0.9863036335
0.986255666
0.9863170327
0.9864545445
0.9866561814
0.986921632
0.9872580274
0.9876784557
0.9882021954
0.9888564432
0.9896797025
0.9907277211
0.9920852127
0.9938899586
0.9963802471
193864.7274
30570.83406
13772.80751
5644.095756
2655.960029
1327.699759
675.5375043
341.7717029
180.1051862
101.2485511
60.58627931
38.27355641
25.3515437
17.51007794
12.55474432
9.309151614
7.11473376
5.588328907
4.499264284
3.704352447
3.112221389
2.663073433
2.316859895
2.046186634
1.831943763
1.660550628
1.522184145
1.409613414
1.317414516
1.241476752
1.179020779
1.128772739
1.089535334
1.059224109
1.035990314
1.018750878
1.006682112
0.9987688138
0.9938627458
0.9909452588
0.9892660199
0.9883301891
0.9877302181
0.9870609946
0.986530371
0.9863190624
0.9862830358
0.9863530503
0.9864982244
0.9867077138
0.986981825
0.9873280223
0.9877595495
0.9882956837
0.9889633878
0.9898004611
0.9908610579
0.9922266054
0.9940275664
0.9964848477
62071.64733
29973.6097
13556.50382
5483.977996
2578.743319
1279.973691
641.7828636
321.05791
169.3542857
95.67893438
57.55876878
36.54594278
24.32167948
16.87231096
12.14600302
9.038945045
6.930991508
5.460112095
4.407650454
3.637461037
3.062411318
2.625319815
2.287790052
2.023493901
1.814022553
1.646265188
1.510719321
1.400377193
1.309974517
1.235520309
1.174325163
1.125150807
1.086788437
1.057175813
1.034512873
1.017740966
1.006034868
0.9983790984
0.9936407151
0.9908254413
0.989206218
0.9883068114
0.987702983
0.9870247982
0.9865283667
0.9863356765
0.9863110635
0.9863895192
0.9865422952
0.986759636
0.9870424211
0.9873984196
0.9878410097