/*--------------------------------*- C++ -*----------------------------------*\
  =========                 |
  \\      /  F ield         | OpenFOAM: The Open Source CFD Toolbox
   \\    /   O peration     | Website:  https://openfoam.org
    \\  /    A nd           | Version:  12
     \\/     M anipulation  |
\*---------------------------------------------------------------------------*/
FoamFile
{
    format      ascii;
    class       volScalarField;
    location    "950";
    object      p;
}
// * * * * * * * * * * * * * * * * * * * * * * * * * * * * * * * * * * * * * //

dimensions      [1 -1 -2 0 0 0 0];

internalField   nonuniform List<scalar> 
16200
(
79615.74321
79622.59524
79631.61644
79643.32833
79658.68294
79678.96785
79706.14684
79742.20133
79787.41715
79841.67247
79906.29122
79983.20564
80074.2939
80182.693
80310.93813
80463.20573
80643.2328
80856.30945
81107.77022
81404.2734
81752.95791
82162.04848
82640.38326
83197.45488
83842.87312
84585.74341
85433.47514
86390.04713
87453.5801
88613.43615
89847.61589
91122.0901
92393.73862
93616.88468
94751.05822
95766.83358
96648.04102
97390.75731
98000.58264
98489.53034
98873.21805
99168.58064
99392.16706
99559.01533
99682.0603
99771.93883
99837.1059
99884.09019
99917.82524
99941.97479
99959.22538
99971.52909
99980.29205
99986.52805
99990.95196
99994.10902
99996.30169
99998.00952
99998.71258
100000.0261
78559.65265
78567.90252
78577.51275
78590.46727
78607.66919
78630.59388
78661.70234
78702.37402
78753.00336
78813.39402
78885.14877
78970.56848
79071.62589
79191.90715
79334.1149
79502.92805
79702.4444
79938.54501
80217.16425
80545.7267
80932.23362
81385.89133
81916.60148
82534.93464
83251.46457
84075.8704
85015.30733
86072.06052
87240.42177
88503.29696
89830.02904
91177.7113
92497.14125
93741.62437
94874.78963
95874.45919
96732.24643
97450.57587
98039.08798
98511.60464
98883.90345
99172.15418
99391.80279
99556.82817
99679.31645
99769.31021
99834.88586
99882.35709
99916.54857
99941.07995
99958.62838
99971.15283
99980.07351
99986.41578
99990.91502
99994.10661
99996.33283
99998.03541
99998.72143
100000.0286
77679.38683
77688.56789
77699.34708
77713.92404
77733.36825
77759.43893
77794.93504
77840.4902
77896.5115
77963.10766
78042.15761
78136.37538
78247.79995
78380.55184
78537.56969
78724.13345
78944.83501
79206.27707
79515.14988
79879.77016
80309.11972
80813.46537
81403.81803
82091.77963
82888.64334
83804.06658
84843.86767
86006.96211
87281.54377
88641.62046
90046.32199
91444.33033
92783
94018.32769
95121.34582
96079.15315
96891.87765
97568.16758
98121.2176
98566.10984
98918.29629
99192.75909
99403.46908
99563.0065
99682.30887
99770.5671
99835.27026
99882.35361
99916.41084
99940.92878
99958.51239
99971.08441
99980.04866
99986.4243
99990.94862
99994.1492
99996.38623
99998.07912
99998.74747
100000.0718
76977.20842
76987.18215
76999.64898
77016.24668
77038.44556
77068.41081
77108.85624
77159.96874
77222.13692
77296.07854
77383.78199
77488.4855
77612.31886
77760.0183
77934.81502
78142.64156
78388.63598
78680.15505
79024.69671
79431.52765
79910.70556
80473.65294
81132.51925
81899.76628
82786.89268
83802.56185
84949.71438
86221.68755
87597.90667
89041.29128
90500.47039
91918.04912
93242.07671
94435.41694
95479.31836
96371.2489
97119.67252
97738.68915
98244.19348
98651.83538
98976.24867
99230.88073
99427.95905
99578.43231
99691.87762
99776.44226
99838.86182
99884.55464
99917.77384
99941.78911
99959.07081
99971.45992
99980.31133
99986.61587
99991.0941
99994.26059
99996.47506
99998.14325
99998.77881
100000.0981
76475.60586
76486.74506
76501.28932
76520.32563
76545.86403
76580.61882
76626.88401
76684.59628
76754.0874
76836.81782
76934.83812
77051.94486
77190.32139
77355.34592
77550.57818
77782.65071
78057.34727
78382.89576
78767.77752
79222.37806
79757.96269
80387.10199
81122.85535
81978.01261
82963.37595
84085.22748
85341.57846
86717.49171
88181.02885
89683.04793
91163.54877
92563.42538
93836.4495
94956.12099
95915.57002
96722.49281
97392.55927
97943.95426
98394.11016
98758.43306
99050.24305
99281.17115
99461.53346
99600.52633
99706.26086
99785.74013
99844.85224
99888.41499
99920.27038
99943.41427
99960.1386
99972.16969
99980.78966
99986.94368
99991.32283
99994.42247
99996.59134
99998.2243
99998.82095
100000.137
76187.54142
76200.15788
76217.18196
76239.13431
76268.70382
76309.1632
76362.25086
76427.39392
76504.90951
76597.0477
76706.02508
76836.40026
76990.49332
77174.42145
77392.19958
77651.28354
77958.25852
78322.33037
78753.04187
79261.87173
79861.16082
80564.35086
81384.95848
82335.37961
83424.55527
84654.54213
86015.80399
87482.26817
89008.96748
90535.81553
91998.32491
93341.2386
94528.75884
95547.48957
96402.65557
97110.9635
97693.57123
98171.16323
98561.53423
98879.1095
99135.50181
99340.34995
99501.99257
99627.84663
99724.53341
99797.87877
99852.88229
99893.71686
99923.77079
99945.72856
99961.67258
99973.18986
99981.47099
99987.40138
99991.63227
99994.63349
99996.7351
99998.32152
99998.8717
100000.1803
76095.62832
76110.04367
76129.95764
76155.4238
76189.94654
76237.00426
76297.62592
76370.19972
76456.53191
76559.77776
76681.83729
76828.01721
77000.83325
77207.20337
77451.66021
77742.49571
78087.12383
78495.69512
78978.77486
79548.85016
80219.21022
81003.91234
81916.40119
82967.66361
84163.05804
85497.89046
86952.10866
88486.30259
90042.76004
91554.06035
92957.03536
94205.86096
95278.58293
96175.68622
96913.35505
97515.33467
98006.29217
98407.84838
98737.11747
99006.9539
99226.99695
99404.82136
99546.80941
99658.64702
99745.50723
99812.06116
99862.42389
99900.1143
99928.05088
99948.58829
99963.58179
99974.46371
99982.32066
99987.96829
99992.01074
99994.88702
99996.90362
99998.43363
99998.93151
100000.2314
76189.63898
76206.46378
76229.5608
76259.14515
76299.70161
76354.20831
76422.76392
76504.1943
76601.71852
76718.21352
76855.76927
77020.50923
77215.14868
77447.43112
77722.47219
78049.42424
78436.60469
78895.15405
79436.7137
80074.75209
80823.31368
81696.54816
82706.80787
83862.01107
85161.55666
86591.09657
88117.52135
89687.54773
91233.50835
92686.30636
93990.35177
95113.67983
96049.72472
96811.9913
97425.51737
97918.77543
98318.01602
98644.44743
98913.69224
99136.63284
99320.80419
99471.73924
99593.95319
99691.50291
99768.1996
99827.62014
99873.03092
99907.3133
99932.91963
99951.87126
99965.78935
99975.94386
99983.31019
99988.6279
99992.44916
99995.17825
99997.09488
99998.5597
99998.99978
100000.2896
76460.13203
76479.90982
76506.67317
76541.18187
76589.05041
76651.83013
76729.67812
76822.06909
76931.46981
77062.45478
77217.01367
77402.21
77621.03996
77882.12459
78191.27998
78558.58482
78993.36204
79507.76929
80114.46932
80827.64954
81661.53813
82629.38153
83740.92964
84998.93057
86394.16321
87899.95311
89468.86129
91035.50923
92527.39137
93880.36145
95051.82732
96026.19037
96811.90513
97433.39075
97921.94038
98308.46691
98619.14064
98873.71486
99085.76683
99263.98867
99413.79836
99538.78261
99641.72615
99725.19299
99791.74679
99843.95496
99884.29216
99915.03673
99938.19317
99955.45742
99968.21831
99977.58205
99984.41008
99989.36279
99992.93775
99995.50192
99997.30662
99998.69879
99999.0763
100000.3554
76887.11261
76910.34594
76941.3439
76981.73044
77037.79346
77108.98213
77195.98155
77300.0948
77423.6087
77571.52589
77745.84901
77954.64656
78201.29212
78495.32774
78843.38149
79256.49385
79745.01824
80322.01059
81000.87789
81796.00246
82720.96346
83786.86996
84999.10457
86352.87017
87827.63967
89382.5513
90956.54252
92476.38015
93871.34673
95088.51922
96101.9025
96912.63012
97542.25444
98023.2978
98390.65978
98675.69134
98903.1911
99090.74348
99249.56772
99386.10363
99503.73152
99604.23807
99688.84221
99758.76887
99815.4622
99860.57753
99895.86682
99923.0507
99943.71375
99959.24229
99970.80081
99979.33519
99985.59373
99990.15716
99993.46757
99995.85328
99997.53669
99998.84998
99999.16077
100000.429
77456.02984
77483.30986
77519.23962
77566.79329
77632.1907
77714.225
77813.44833
77930.81464
78069.71851
78236.45101
78432.89554
78668.17776
78946.16941
79277.36011
79669.23294
80133.68977
80681.96263
81327.71511
82084.67822
82966.79164
83986.00706
85149.81129
86457.07927
87892.80679
89422.84613
90991.87172
92528.3866
93957.55365
95217.32231
96270.72467
97109.68778
97750.56768
98225.11416
98570.96083
98824.23949
99015.16058
99166.25488
99292.5238
99402.7149
99501.07222
99589.08066
99666.90249
99734.36754
99791.52038
99838.81702
99877.10224
99907.4792
99931.16189
99949.34836
99963.1361
99973.47755
99981.16504
99986.83717
99990.99654
99994.0303
99996.22785
99997.78306
99999.01234
99999.25295
100000.5106
78155.22806
78187.25338
78228.96845
78284.81995
78359.57243
78451.86116
78563.75444
78697.02276
78854.11116
79042.77722
79264.93744
79530.73368
79844.52698
80217.64902
80658.39918
81179.42767
81792.74978
82512.43277
83352.11639
84324.49473
85438.54076
86696.11674
88087.00039
89583.41828
91136.51785
92678.59855
94133.31517
95431.38376
96525.19243
97396.182
98053.35248
98525.47013
98851.20903
99070.54808
99218.93782
99324.32993
99406.45196
99477.55315
99543.94472
99607.81204
99668.92388
99726.00576
99777.67507
99822.9507
99861.42807
99893.24088
99918.91763
99939.21823
99954.99004
99967.06521
99976.19893
99983.03903
99988.11964
99991.86819
99994.61851
99996.62159
99998.04385
99999.185
99999.3526
100000.6004
78972.28973
79009.84609
79058.29337
79123.69097
79210.90814
79316.86908
79443.05156
79594.02918
79771.48763
79984.49158
80234.94578
80534.05873
80886.78942
81305.34552
81798.97332
82381.08119
83064.33896
83862.77336
84789.08136
85853.37239
87059.73895
88401.95394
89858.05673
91385.88099
92922.95395
94393.88285
95724.55222
96857.83535
97764.19559
98443.52565
98919.39348
99229.53334
99416.39725
99520.01881
99573.77634
99602.67053
99623.38537
99645.43085
99672.81779
99705.85762
99742.79829
99781.11542
99818.38231
99852.73705
99883.03363
99908.78847
99930.02628
99947.10438
99960.55552
99970.9709
99978.92454
99984.93006
99989.4235
99992.76109
99995.2256
99997.03084
99998.31731
99999.3671
99999.45946
100000.6988
79897.7354
79941.76224
79998.40075
80075.13373
80175.40737
80295.09195
80436.42225
80606.08719
80805.20431
81044.4113
81325.58665
81661.1561
82056.84298
82525.7088
83077.86108
83727.11701
84486.21692
85368.27473
86383.8513
87538.8475
88830.28239
90241.26872
91736.10389
93258.45044
94735.92876
96092.10021
97262.18645
98205.98314
98913.12905
99400.00576
99701.30053
99860.24086
99920.36657
99920.05167
99889.70702
99851.04228
99817.67768
99796.51982
99789.47469
99795.18646
99810.57831
99832.05317
99856.29545
99880.69421
99903.47036
99923.60895
99940.69669
99954.73691
99965.9825
99974.80794
99981.62239
99986.81613
99990.73411
99993.66582
99995.84584
99997.45237
99998.60182
99999.55778
99999.57323
100000.806
80905.80444
80957.6736
81023.91343
81112.01023
81225.07539
81361.08542
81520.69386
81712.63219
81937.43197
82207.58763
82524.90055
82902.93062
83348.06838
83873.94698
84491.21363
85213.62421
86053.3988
87021.88397
88126.16285
89365.92159
90728.56772
92184.32203
93683.27598
95157.63542
96531.08881
97733.41569
98714.85827
99454.37364
99959.57451
100260.0731
100397.9727
100418.9107
100365.4366
100273.1169
100168.9172
100071.1815
99990.5957
99931.67228
99894.43633
99876.0746
99872.37231
99878.82224
99891.35919
99906.74065
99922.65093
99937.62081
99950.85868
99962.05866
99971.22638
99978.54269
99984.26792
99988.67983
99992.03951
99994.57453
99996.47429
99997.88331
99998.89591
99999.75619
99999.69387
100000.9221
82001.16451
82062.46789
82139.21821
82240.56961
82368.3781
82522.70951
82703.70423
82921.71482
83176.17565
83481.60021
83839.70043
84265.00664
84764.49843
85352.2173
86039.16291
86838.65176
87761.65058
88816.40449
90004.46118
91316.73754
92728.68096
94196.72824
95658.66658
97040.36069
98268.61504
99285.77349
100060.4287
100590.4287
100898.5118
101023.7287
101012.1665
100909.4084
100755.5671
100582.7423
100414.2956
100265.3138
100143.7685
100052.0233
99988.45212
99948.98535
99928.44173
99921.54916
99923.61568
99930.87003
99940.54469
99950.78426
99960.47209
99969.03357
99976.25702
99982.1512
99986.84285
99990.5077
99993.33017
99995.48069
99997.10672
99998.32111
99999.19818
99999.96154
99999.82187
100001.0475
83185.68326
83258.5206
83347.63327
83466.87461
83613.01637
83787.74788
83991.83821
84238.33837
84525.10993
84868.72228
85270.94067
85747.2364
86305.20422
86959.12425
87719.93827
88599.62178
89606.38874
90743.31806
92004.02001
93368.47606
94799.13845
96239.88979
97620.42539
98866.80935
99915.59291
100725.9824
101285.6803
101609.1877
101730.6678
101694.9105
101549.1414
101337.1069
101095.5979
100852.9698
100629.0459
100435.8771
100278.9864
100158.8425
100072.3896
100014.4869
99979.1398
99960.43884
99953.17195
99953.12817
99957.16163
99963.0903
99969.51947
99975.64192
99981.05572
99985.61734
99989.33406
99992.2896
99994.59855
99996.37899
99997.73954
99998.76353
99999.50739
100000.1733
99999.95857
100001.1823
84459.19951
84546.32684
84649.55439
84787.79375
84952.67189
85150.31176
85379.62446
85657.43962
85979.99006
86365.85075
86816.93566
87349.4753
87971.41103
88696.58635
89534.8636
90495.40284
91581.83312
92790.09645
94104.05162
95491.70191
96903.17475
98273.07082
99528.75491
100603.1255
101447.5026
102039.749
102385.2333
102511.6858
102460.8532
102280.0718
102015.5673
101708.0984
101390.6992
101087.9765
100816.4227
100585.3338
100398.0635
100253.4318
100147.1574
100073.1936
100024.8671
99995.74116
99980.1752
99973.59501
99972.5396
99974.55184
99978.00005
99981.87633
99985.61265
99988.93116
99991.73266
99994.01813
99995.83885
99997.2651
99998.3697
99999.20859
99999.82239
100000.391
100000.1067
100001.3268
85820.70996
85925.24248
86041.98561
86199.27691
86385.62882
86610.42116
86869.15193
87183.03163
87546.70686
87980.48496
88486.25573
89080.46237
89770.79087
90569.66349
91484.68914
92520.83238
93675.63205
94936.40202
96276.13945
97650.9806
99001.06133
100256.5882
101348.9242
102223.3268
102848.6461
103220.846
103360.0145
103303.2742
103096.4854
102787.0386
102418.7103
102028.6409
101646.0028
101291.8278
100979.5633
100716.052
100502.7513
100337.06
100213.654
100125.7263
100066.0404
100027.7269
100004.7947
99992.37115
99986.73442
99985.19666
99985.92485
99987.73839
99989.92464
99992.08747
99994.03305
99995.68811
99997.04669
99998.13555
99998.99462
99999.65452
100000.1422
100000.6148
100000.2678
100001.4813
87285.23051
87409.92451
87541.93644
87721.60916
87931.065
88186.73473
88478.75427
88832.58473
89241.31136
89726.58694
90290.01199
90947.58475
91706.16776
92575.87793
93561.04995
94661.23304
95866.44902
97154.08301
98485.85219
99807.55333
101053.3579
102154.9464
103053.4559
103710.0691
104111.5643
104269.6795
104215.5598
103992.0736
103646.3775
103224.1515
102765.862
102304.7928
101866.3707
101468.3292
101121.3884
100830.2362
100594.6867
100410.9223
100272.7362
100172.6862
100103.072
100056.6714
100027.2085
100009.5678
99999.81251
99995.062
99993.3128
99993.23602
99993.99334
99995.08466
99996.23215
99997.29607
99998.21881
99998.98757
99999.6121
100000.0998
100000.4657
100000.8446
100000.4384
100001.6456
88861.0519
89009.77742
89161.41515
89368.31414
89602.08103
89890.07868
90217.03416
90612.26204
91067.24168
91604.56244
92225.38328
92944.61145
93767.76416
94701.74
95746.41378
96894.42947
98126.7554
99410.07299
100695.7569
101922.5969
103024.1455
103939.3518
104623.3226
105054.4376
105235.8216
105191.6555
104960.4438
104587.7157
104119.8445
103599.6822
103063.9811
102542.2001
102056.2703
101620.9507
101244.5544
100929.8934
100675.3668
100476.1194
100325.2006
100214.6397
100136.3564
100082.8431
100047.595
100025.3
100011.8455
100004.1906
100000.1878
99998.38142
99997.82383
99997.92373
99998.32883
99998.83993
99999.35286
99999.81895
100000.2203
100000.5429
100000.7923
100001.08
100000.6163
100001.8194
90546.22315
90722.68545
90894.18722
91128.67292
91388.00936
91709.64485
92072.8583
92510.46592
93012.35645
93601.58379
94278.85151
95057.1912
95939.97654
96929.58401
98019.79902
99194.76959
100425.4965
101668.6019
102867.9177
103960.0339
104883.4996
105589.104
106047.9661
106254.8499
106226.3634
105995.5205
105604.9127
105100.3605
104526.065
103921.4516
103319.4783
102745.9815
102219.714
101752.7958
101351.4354
101016.8213
100746.1384
100533.6484
100371.775
100252.1096
100166.2625
100106.4971
100066.1268
100039.6816
100022.9062
100012.6275
100006.5767
100003.1894
100001.4235
100000.6075
100000.3234
100000.3186
100000.4472
100000.6279
100000.8175
100000.9826
100001.1208
100001.3204
100000.802
100002.0023
92326.75216
92532.59958
92723.76826
92988.94738
93275.45091
93631.76777
94032.5891
94513.93804
95064.23075
95705.98614
96439.14176
97273.57232
98209.13858
99242.09083
100358.6269
101533.6356
102728.6829
103892.7278
104966.3003
105889.0332
106609.1641
107091.951
107324.4531
107315.5211
107091.8518
106691.938
106159.8432
105540.0218
104873.6879
104196.622
103538.1198
102920.6911
102360.2515
101866.6039
101444.1282
101092.6123
100808.1999
100584.402
100413.1161
100285.5721
100193.1298
100127.8714
100082.9668
100052.8221
100033.0666
100020.4185
100012.5075
100007.6763
100004.801
100003.1402
100002.217
100001.7318
100001.5007
100001.4131
100001.4023
100001.4178
100001.4507
100001.5653
100000.9927
100002.1945
94204.21412
94434.76633
94639.35236
94935.79192
95253.79
95648.88839
96091.32968
96619.6393
97220.95387
97915.65697
98702.23392
99586.02707
100562.0587
101619.4082
102736.1208
103878.3365
105000.167
106046.5345
106959.3866
107685.9793
108187.2489
108443.5073
108456.0644
108244.8007
107843.1742
107292.3662
106636.0051
105916.1386
105170.6137
104431.6055
103725.0033
103070.3261
102480.9874
101964.77
101524.4693
101158.6656
100862.6093
100629.1726
100449.8109
100315.4562
100217.2672
100147.1844
100098.267
100064.8248
100042.3953
100027.6081
100018.0081
100011.859
100007.9661
100005.5266
100004.0118
100003.0798
100002.5128
100002.1734
100001.9736
100001.8474
100001.7812
100001.8135
100001.1824
100002.397
96162.51191
96427.38342
96659.22206
96988.99415
97341.37658
97778.0236
98264.23467
98839.35918
99489.79072
100232.2774
101063.1299
101982.2592
102978.9636
104034.7443
105119.7858
106193.0223
107204.0888
108098.0029
108822.4405
109335.4852
109611.9016
109645.9751
109450.6338
109053.6033
108492.2186
107808.2328
107043.5745
106237.3269
105423.8944
104632.0443
103884.5761
103198.3581
102584.6148
102049.373
101594.0565
101216.203
100910.2949
100668.6596
100482.3809
100342.1458
100238.9533
100164.6351
100112.167
100075.7861
100050.9574
100034.2393
100023.106
100015.7544
100010.9287
100007.772
100005.7102
100004.3632
100003.4831
100002.908
100002.5302
100002.2705
100002.1115
100002.0625
100001.3661
100002.6108
98245.75089
98548.43242
98807.25671
99170.46363
99555.66308
100031.146
100557.8965
101173.9386
101865.4094
102644.4335
103504.2782
104438.7313
105430.7938
106454.5394
107473.4265
108441.6473
109307.9401
110021.3942
110538.6634
110830.2041
110884.0997
110706.4596
110318.8867
109754.0697
109050.9493
108250.3808
107391.85
106511.2687
105639.7183
104802.8409
104020.6813
103307.7803
102673.455
102122.2081
101654.2739
101266.2871
100952.068
100703.4775
100511.2868
100365.9822
100258.4376
100180.4031
100124.7942
100085.7943
100058.8132
100040.3521
100027.8274
100019.3791
100013.6987
100009.8821
100007.3148
100005.5831
100004.4114
100003.616
100003.0712
100002.6863
100002.4406
100002.3092
100001.5525
100002.8338
100449.0018
100791.5006
101077.3448
101472.2752
101886.8328
102395.7013
102957.2273
103605.9731
104327.4705
105128.4512
105998.3193
106924.3182
107883.1642
108842.4967
109761.1136
110591.5958
111285.3956
111798.8563
112099.4348
112169.9546
112010.1648
111635.3842
111073.102
110358.6148
109530.8272
108628.7742
107689.1471
106744.7112
105823.4586
104948.2238
104136.6228
103401.1638
102749.505
102184.8234
101706.3189
101309.8412
100988.6364
100734.1651
100536.9348
100387.2685
100275.9429
100194.6502
100136.264
100094.9306
100066.0185
100045.9845
100032.1972
100022.749
100016.2857
100011.8625
100008.8287
100006.7405
100005.2979
100004.297
100003.5956
100003.0939
100002.7675
100002.5519
100001.7507
100003.0621
102759.5036
103138.9964
103446.8955
103872.3291
104314.6059
104851.7324
105441.1811
106112.6989
106850.724
107656.0184
108513.7149
109404.696
110300.1707
111163.1494
111950.4575
112616.2998
113117.8523
113420.686
113503.4608
113360.1969
113000.0696
112445.0016
111726.0051
110879.2179
109942.422
108952.3318
107942.7615
106943.4985
105979.7329
105071.8115
104235.2238
103480.7072
102814.4753
102238.5493
101751.2247
101347.6651
101020.6164
100761.194
100559.6826
100406.2725
100291.6678
100207.521
100146.6805
100103.2685
100072.6245
100051.1712
100036.2387
100025.8791
100018.6994
100013.7186
100010.2546
100007.8367
100006.1427
100004.9505
100004.1028
100003.4927
100003.091
100002.7894
100001.9615
100003.2934
105170.6344
105582.9603
105909.722
106359.5579
106824.2922
107381.5002
107988.489
108669.2307
109406.7465
110195.4842
111016.2272
111844.2489
112646.6936
113384.2738
114014.6609
114496.4518
114794.5366
114884.4042
114755.1787
114410.2339
113865.8142
113148.1523
112289.9482
111326.9589
110295.202
109228.8732
108159.0002
107112.6381
106112.4783
105176.6833
104318.8872
103548.2851
102869.8291
102284.5277
101789.8818
101380.4513
101048.5441
100784.9763
100579.844
100423.2311
100305.7885
100219.1451
100156.1374
100110.8748
100078.678
100055.9445
100039.9734
100028.7836
100020.9485
100015.4559
100011.5956
100008.8731
100006.9463
100005.5761
100004.5921
100003.8821
100003.4098
100003.0214
100002.1864
100003.5251
107664.0932
108104.6143
108446.8219
108913.7144
109393.4367
109960.6264
110572.6831
111246.6533
111964.0571
112713.2436
113471.1619
114208.865
114891.377
115479.5725
115934.4173
116220.8133
116312.2283
116193.6902
115863.337
115331.8298
114620.3271
113757.5274
112776.5005
111711.8528
110597.522
109465.1883
108343.2837
107256.4076
106225.0488
105265.4611
104389.6623
103605.5003
102916.8217
102323.7423
101823.0605
101408.8018
101072.8876
100805.8734
100597.696
100438.3539
100318.4617
100229.6384
100164.7189
100117.81
100084.2217
100060.334
100043.4216
100031.4759
100023.0418
100017.0797
100012.8547
100009.8511
100007.7089
100006.1736
100005.0629
100004.2615
100003.7225
100003.2477
100002.4251
100003.7553
110224.9582
110686.2057
111039.1544
111515.4375
112000.3252
112564.0649
113165.5195
113813.9812
114489.5605
115175.2975
115845.3114
116468.1338
117008.6667
117430.0776
117698.369
117785.6984
117674.0121
117356.7918
116839.4394
116137.9383
115276.5738
114285.1389
113196.1998
112042.7858
110856.6647
109667.1271
108500.2486
107378.4526
106320.2993
105340.3789
104449.2985
103653.7258
102956.5324
102357.0427
101851.429
101433.2406
101094.0561
100824.2029
100613.4824
100451.8265
100329.8272
100239.1044
100172.5012
100124.129
100089.2947
100064.3668
100046.6019
100033.9685
100024.9872
100018.5949
100014.0348
100010.7722
100008.4311
100006.7427
100005.5149
100004.6302
100004.0276
100003.4688
100002.6775
100003.9822
112834.0936
113305.531
113662.385
114137.7258
114616.322
115160.9104
115733.864
116336.9071
116948.9843
117548.8644
118109.0483
118597.2634
118980.0472
119224.4441
119302.4526
119193.6003
118887.5449
118384.7932
117696.2758
116841.6165
115846.8545
114741.9315
113558.3851
112327.4847
111078.8821
109839.671
108633.8255
107481.8582
106400.6471
105403.332
104499.2852
103694.1352
102989.8879
102385.1613
101875.5661
101454.224
101112.4075
100840.2436
100627.4188
100463.8136
100340.0094
100247.6361
100179.5525
100129.8813
100093.9323
100068.0681
100049.5315
100036.273
100026.7926
100020.0064
100015.1386
100011.6379
100009.1134
100007.2835
100005.9478
100004.9877
100004.3235
100003.6851
100002.9427
100004.2033
115472.1309
115939.6188
116287.9591
116745.5528
117204.4578
117714.352
118241.3842
118780.3822
119309.6232
119804.8006
120238.0821
120577.9729
120794.0064
120858.0572
120748.3683
120451.3385
119963.2097
119290.029
118446.7214
117455.2225
116342.342
115137.5687
113871.1414
112572.5503
111269.4702
109987.0206
108747.3233
107569.2235
106468.1338
105455.9272
104540.8911
103727.7329
103017.6859
102408.7323
101895.9753
101472.1507
101128.256
100854.2412
100639.6957
100474.4617
100349.1194
100255.3169
100185.9345
100135.1121
100098.1671
100071.4608
100052.2267
100038.4005
100028.4651
100021.3188
100016.1691
100012.4496
100009.7564
100007.7958
100006.3615
100005.3334
100004.6089
100003.8973
100003.2197
100004.4152
118093.7658
118541.529
118873.6655
119302.6949
119728.9759
120189.8854
120655.4597
121114.3563
121544.9224
121921.1131
122215.961
122400.0093
122446.6302
122332.8735
122042.9304
121569.2174
120913.3312
120085.5059
119103.4149
117990.3231
116773.1554
115480.6031
114141.5119
112783.6731
111432.9667
110112.7641
108843.568
107642.7718
106524.5112
105499.5493
104575.2146
103755.3936
103040.6241
102428.3125
101913.101
101487.3739
101141.881
100866.4154
100650.4843
100483.9025
100357.2579
100262.2225
100191.7038
100139.8629
100102.0291
100074.5664
100054.7023
100040.3613
100030.0118
100022.5368
100017.129
100013.2091
100010.3607
100008.2799
100006.7558
100005.6663
100004.8823
100004.1066
100003.5072
100004.6129
120656.7957
121077.6826
121387.4547
121776.7767
122158.7915
122557.7442
122948.3723
123314.2383
123634.4759
123882.5061
124033.1017
124059.6417
123939.6616
123655.2511
123195.9206
122559.1194
121750.6427
120783.7826
119678.0136
118457.2491
117148.1272
115778.3797
114375.4786
112965.6526
111573.1843
110219.9133
108924.9337
107704.3766
106571.2622
105535.3763
104603.1959
103777.87
103059.307
102444.3879
101927.3327
101500.2053
101153.5302
100876.9616
100659.9375
100492.2547
100364.5157
100268.4218
100196.9118
100144.1717
100105.5463
100077.405
100056.9728
100042.1654
100031.4394
100023.6647
100018.0213
100013.9179
100010.9273
100008.736
100007.1308
100005.9857
100005.1427
100004.3145
100003.8011
100004.7927
123145.9987
123524.8518
123801.6511
124139.0902
124465.3086
124791.3861
125096.7576
125360.8292
125563.9703
125680.008
125685.9645
125558.4231
125279.0107
124834.4207
124218.7147
123433.4177
122487.534
121396.5328
120181.0119
118865.0932
117474.9106
116037.1979
114578.1414
113122.5714
111693.3673
110311.038
108993.4555
107755.6528
106609.6726
105564.437
104625.6611
103795.8279
103074.2717
102457.3917
101939.0196
101510.9246
101163.427
100886.0566
100668.1939
100499.6262
100370.9758
100273.9781
100201.6062
100148.0739
100108.7445
100079.9955
100059.0515
100043.8222
100032.7545
100024.707
100018.8486
100014.5778
100011.4568
100009.1645
100007.4868
100006.2907
100005.3897
100004.5225
100004.0942
100004.9602
125510.8011
125841.3258
126081.1498
126360.3697
126623.7959
126870.2616
127084.3139
127242.4405
127326.5767
127311.6492
127177.1153
126902.8064
126474.1296
125881.8153
125123.7108
124204.5784
123135.8414
121934.496
120621.8046
119221.8367
117760.1308
116262.4607
114753.8513
113257.9036
111796.2774
110388.3307
109050.8767
107797.991
106640.8571
105587.6286
104643.3355
103809.8553
103085.9956
102467.7112
101948.4747
101519.7842
101171.773
100893.8608
100675.3801
100506.1154
100376.7144
100278.9493
100205.8308
100151.6025
100111.6481
100082.3555
100060.9513
100045.3409
100033.9635
100025.6681
100019.614
100015.1905
100011.9503
100009.5661
100007.8237
100006.5802
100005.6235
100004.7308
100004.3804
100005.1219
127739.2953
128011.3081
128206.7485
128421.1148
128616.455
128779.9333
128900.7313
128953.2944
128921.0118
128780.2765
128512.9413
128101.9417
127536.0529
126809.4595
125923.1099
124884.3175
123706.3263
122407.2036
121008.5871
119534.359
118009.455
116458.772
114906.3125
113374.6117
111884.2783
110453.6786
109098.7078
107832.6057
106665.7964
105605.7469
104656.8671
103820.481
103094.9102
102475.6978
101955.9837
101527.0146
101178.7535
100900.5217
100681.6123
100511.8136
100381.8021
100283.3899
100209.627
100154.7884
100114.2801
100084.5021
100062.6844
100046.7303
100035.0725
100026.5521
100020.3203
100015.7578
100012.4088
100009.9414
100008.1416
100006.8537
100005.8446
100004.9387
100004.6549
100005.2772
129789.2831
130001.4902
130152.8553
130302.3313
130429.8631
130512.1845
130542.3375
130493.7523
130351.1969
130092.8139
129702.7326
129166.7594
128476.6036
127629.364
126628.5151
125483.3863
124208.6078
122823.0139
121348.4484
119808.5569
118227.7161
116630.0508
115038.681
113475.2278
111959.4014
110508.7147
109138.2669
107860.5655
106685.3612
105619.5043
104666.8407
103828.1852
103101.41
102481.6749
101961.8099
101532.8296
101184.5406
100906.1769
100687
100516.8067
100386.3059
100287.3515
100213.0341
100157.6614
100116.6629
100086.4517
100064.2631
100047.9991
100036.0878
100027.3636
100020.9705
100016.2817
100012.8335
100010.2913
100008.4407
100007.1107
100006.0535
100005.1443
100004.913
100005.4282
131646.8648
131799.6535
131910.1602
131998.2098
132060.9405
132066.8361
132011.7819
131869.0928
131624.7629
131258.7985
130757.3924
130108.9249
129307.6201
128353.018
127250.6577
126011.4816
124651.2031
123189.2309
121647.5299
120049.5147
118419.0753
116779.6759
115153.687
113561.9558
112023.4281
110554.883
109170.7296
107882.8321
106700.342
105629.5526
104673.7947
103833.4131
103105.862
102485.9439
101966.2002
101537.43
101189.2965
100910.9564
100691.6464
100521.1761
100390.2894
100290.8833
100216.09
100160.2503
100118.818
100088.2205
100065.6991
100049.1561
100037.0157
100028.107
100021.5678
100016.7643
100013.2258
100010.6168
100008.7213
100007.351
100006.2504
100005.3451
100005.1554
100005.5801
133308.4931
133406.9246
133479.729
133511.3602
133513.5313
133449.2218
133316.1069
133087.9736
132751.757
132289.2811
131688.532
130940.1403
130040.4641
128991.0873
127799.2518
126477.2181
125041.5776
123512.1994
121911.1389
120261.6192
118587.1271
116910.5763
115253.7118
113636.7334
112077.9386
110593.4772
109197.16
107900.2847
106711.4677
105636.4977
104678.2329
103836.5831
103108.6128
102488.7908
101969.3889
101541.0064
101193.1755
100914.984
100695.6501
100524.9998
100393.8137
100294.0329
100218.8311
100162.5829
100120.7666
100089.8243
100067.0043
100050.2099
100037.8626
100028.7869
100022.1154
100017.2076
100013.5874
100010.919
100008.9834
100007.5745
100006.4353
100005.54
100005.3908
100005.7334
134784.9659
134832.4281
134868.1226
134848.6786
134795.6081
134668.4288
134465.5137