/*--------------------------------*- C++ -*----------------------------------*\
  =========                 |
  \\      /  F ield         | OpenFOAM: The Open Source CFD Toolbox
   \\    /   O peration     | Website:  https://openfoam.org
    \\  /    A nd           | Version:  12
     \\/     M anipulation  |
\*---------------------------------------------------------------------------*/
FoamFile
{
    format      ascii;
    class       surfaceScalarField;
    location    "950";
    object      phi;
}
// * * * * * * * * * * * * * * * * * * * * * * * * * * * * * * * * * * * * * //

dimensions      [1 0 -1 0 0 0 0];

internalField   nonuniform List<scalar> 
32120
(
-0.0006230239524
-0.04524213128
0.04586515524
-0.001392852359
-0.06431066735
0.06508049643
-0.002340247067
-0.08362613058
0.08457352575
-0.003481682228
-0.1063000112
0.1074414469
-0.004743758314
-0.1342534556
0.1355155323
-0.005919410475
-0.1699275723
0.1711032254
-0.006936063396
-0.2161868849
0.2172035391
-0.009810283205
-0.2727365247
0.2756107467
-0.01748802941
-0.3311159263
0.3387936759
-0.02795657949
-0.394767466
0.4052360208
-0.04042696754
-0.4698923674
0.4823627614
-0.05522925396
-0.55943767
0.5742399635
-0.07282319393
-0.6659718376
0.6835657859
-0.09373609425
-0.7928324599
0.8137453698
-0.1185870251
-0.9438032147
0.9686541566
-0.1481167193
-1.123513936
1.153043643
-0.1831986654
-1.337375143
1.372457104
-0.2248746591
-1.59187708
1.633553089
-0.2743784151
-1.894683578
1.944187351
-0.3331791869
-2.254914452
2.313715242
-0.4030229899
-2.68336262
2.753206442
-0.4859913333
-3.192816563
3.275784926
-0.5845678354
-3.798388114
3.896964635
-0.7017255137
-4.51791204
4.635069738
-0.8410331504
-5.372386251
5.511693903
-1.006790248
-6.386478661
6.552235776
-1.204194071
-7.589104328
7.786508161
-1.439537888
-9.014110419
9.249454245
-1.720427606
-10.70113128
10.98202101
-2.055983496
-12.69672746
13.03228337
-2.456983029
-15.05596674
15.45696629
-2.935915163
-17.84461949
18.32355165
-3.506989587
-21.14204015
21.71311461
-4.186237842
-25.04461287
25.72386116
-4.991862619
-29.66951306
30.47513787
-5.944884126
-35.15864866
36.1116702
-7.069986249
-41.68289319
42.80799535
-8.396382137
-49.4469169
50.77331283
-9.95854179
-58.69494804
60.25710772
-11.79669458
-69.71779599
71.55594883
-13.95709199
-82.86143732
85.02183474
-16.49200689
-98.53754621
101.0724612
-19.45939456
-117.2363385
120.2037261
-22.92203436
-139.5422054
143.0048452
-26.94582548
-166.1526552
170.1764463
-31.59674852
-197.9012483
202.5521713
-36.93576135
-235.7853315
241.1243443
-43.01058463
-280.9996759
287.0744992
-49.84287251
-334.9773835
341.8096713
-57.4086017
-399.4398367
407.0055659
-65.60856923
-476.4579452
484.6579128
-74.22455317
-568.527595
577.1435789
-82.85473295
-678.6631132
687.293293
-90.81928712
-810.5136293
818.4781835
-97.02314952
-968.5089788
974.7128412
-99.75733498
-1158.043777
1160.777962
-96.41262914
-1385.712237
1382.367531
-83.06698172
-1659.609313
1646.263666
-53.8948187
-1989.701379
1960.529216
-2388.360286
2334.787266
-0.0005465550452
-0.04469557592
-0.001231376898
-0.06362584481
-0.002066293305
-0.08279121363
-0.003053037392
-0.1053132665
-0.004124006233
-0.1331824859
-0.00512499623
-0.1689265811
-0.006094738424
-0.2152171406
-0.01001031898
-0.2688209409
-0.01752082233
-0.3236054183
-0.02680904014
-0.3854792422
-0.03784934185
-0.4588520584
-0.05098794184
-0.5462990614
-0.06661643417
-0.6503433354
-0.08520996822
-0.7742389144
-0.1073251113
-0.9216880587
-0.1336303363
-1.097208696
-0.1649130811
-1.306092382
-0.2021136611
-1.554676482
-0.2463453055
-1.850451914
-0.298934841
-2.202324895
-0.3614611441
-2.620836296
-0.4358115257
-3.118466159
-0.5242472768
-3.709952343
-0.629489756
-4.412669539
-0.7548286683
-5.247047323
-0.9042611945
-6.237046118
-1.082663675
-7.410701838
-1.295988839
-8.80078524
-1.551465665
-10.44565442
-1.857759351
-12.39043374
-2.225033788
-14.68869225
-2.664893927
-17.40475926
-3.190292297
-20.61664173
-3.815589308
-24.41931573
-4.556926855
-28.92817548
-5.432918687
-34.28265662
-6.465513359
-40.6502985
-7.680840714
-48.23158926
-9.109905227
-57.26588352
-10.78906041
-68.03864051
-12.76025051
-80.89024722
-15.07100277
-96.22679373
-17.7741025
-114.5332388
-20.92679081
-136.389517
-24.58919535
-162.4902507
-28.8215598
-193.6688837
-33.67960389
-230.9272874
-39.20706824
-275.4722115
-45.42407703
-328.7603746
-52.30935099
-392.5545627
-59.77344896
-468.9938472
-67.61898566
-560.6820583
-75.48206876
-670.80003
-82.74660585
-803.2490922
-88.41978535
-962.8357992
-90.95179159
-1155.51177
-87.97595055
-1388.688078
-75.93441058
-1671.650853
-49.54181102
-2016.093978
-2436.88344
-0.0004216980035
-0.04427387748
-0.0009347264013
-0.06311281553
-0.001546183733
-0.08217975557
-0.002223056737
-0.1046363927
-0.002852489204
-0.1325530523
-0.003314668878
-0.1684643996
-0.004024597086
-0.2145072095
-0.008206387341
-0.2646391462
-0.01502850584
-0.3167832937
-0.02330532273
-0.3772024176
-0.0331408553
-0.4490165167
-0.04484316393
-0.5345967421
-0.05876137621
-0.6364251108
-0.07531915731
-0.7576811193
-0.09501016703
-0.9019970331
-0.1184291062
-1.07378974
-0.1462762337
-1.278245235
-0.1793899913
-1.521562703
-0.2187660197
-1.811075864
-0.2655961599
-2.155494732
-0.3213060191
-2.565126414
-0.3876095311
-3.052162624
-0.4665741105
-3.630987744
-0.5607087099
-4.31853492
-0.6730780306
-5.13467799
-0.8074493314
-6.102674803
-0.9684666985
-7.249684465
-1.161838343
-8.607413588
-1.394502249
-10.21299051
-1.674712438
-12.11022353
-2.011985978
-14.35141869
-2.416932736
-16.99981247
-2.901125774
-20.13244867
-3.477219868
-23.84322159
-4.159418507
-28.24597684
-4.964211682
-33.47786338
-5.91121096
-39.70329922
-7.023919909
-47.11888023
-8.330346102
-55.95945733
-9.863421153
-66.50556538
-11.66121694
-79.09245144
-13.76694076
-94.12106987
-16.22863992
-112.0715397
-19.09846728
-133.5196896
-22.43125631
-159.1574616
-26.28199854
-189.8181415
-30.70163685
-226.5076491
-35.73031074
-270.4435376
-41.38681291
-323.1038724
-47.65247299
-386.2889026
-54.44691651
-462.1994037
-61.59202138
-553.5369534
-68.7588291
-663.6332223
-75.38990371
-796.6180176
-80.58644111
-957.6392618
-82.94487673
-1153.153335
-80.32130325
-1391.311652
-69.49221238
-1682.479944
-45.66812339
-2039.918067
-2480.752833
-0.0003119648828
-0.04396191213
-0.0006816398102
-0.06274313972
-0.001109380395
-0.08175201424
-0.001530023103
-0.1042157491
-0.001774334653
-0.1323087395
-0.001719871725
-0.1685188605
-0.002670303791
-0.2135567743
-0.006973426588
-0.2603360187
-0.01308515441
-0.3106715597
-0.02038616836
-0.3699013961
-0.0290619825
-0.4403406937
-0.03938501627
-0.524273698
-0.05166092426
-0.6241491909
-0.06626550052
-0.7430765294
-0.08363555858
-0.8846269597
-0.1043001313
-1.05312515
-0.1288834589
-1.253661889
-0.1581356709
-1.492310471
-0.1929504723
-1.776261041
-0.2344013616
-2.11404382
-0.2837783794
-2.515749376
-0.3426428942
-2.993298087
-0.4128969338
-3.560733688
-0.4968784508
-4.234553385
-0.5974839595
-5.034072471
-0.7183189746
-5.981839778
-0.8638675526
-7.104135882
-1.039657196
-8.431623941
-1.252367452
-10.00028025
-1.509809703
-11.85278126
-1.820748165
-14.04048021
-2.194665045
-16.62589557
-2.641682206
-19.6854315
-3.172807143
-23.31209662
-3.800501115
-27.61828285
-4.539427273
-32.73893719
-5.407211345
-38.83551514
-6.425103144
-46.10098839
-7.618493815
-54.76606665
-9.017273778
-65.10678537
-10.65603074
-77.45369448
-12.57405034
-92.20305023
-14.81505816
-109.8305319
-17.4265605
-130.9081873
-20.45855421
-156.1254679
-23.96124482
-186.3154509
-27.98124022
-222.4876537
-32.55543936
-265.8693385
-37.70149541
-317.9578164
-43.40323841
-380.5871596
-49.58874186
-456.0139002
-56.0977094
-547.0279858
-62.63341667
-657.0975151
-68.69247287
-790.5589614
-73.46257675
-952.869158
-75.67464571
-1150.941266
-73.38949888
-1393.596799
-63.69078978
-1692.178653
-42.2444617
-2061.364395
-2520.32751
-0.0002110932094
-0.04375081832
-0.0004387009108
-0.06251553108
-0.0006784417821
-0.08151227254
-0.0008435240674
-0.1040506658
-0.0007258416624
-0.1324264204
-0.0001817429988
-0.1690629569
-0.001502765106
-0.2122357485
-0.00558863867
-0.25625014
-0.01094253788
-0.3053176539
-0.01731121448
-0.3635327115
-0.02488656874
-0.4327653301
-0.03390784507
-0.515252411
-0.04464376387
-0.6134132598
-0.05742754268
-0.7302927367
-0.07264535467
-0.8694091322
-0.09076618089
-1.035004306
-0.112343747
-1.232084305
-0.1380448936
-1.466609305
-0.1686674086
-1.745638507
-0.2051758711
-2.077535337
-0.2487415919
-2.472183636
-0.3008012052
-2.941238454
-0.3631323304
-3.498402548
-0.4379544278
-4.159731271
-0.5280554112
-4.943971479
-0.6369418001
-5.87295338
-0.7689967535
-6.972080922
-0.9296041974
-8.271016493
-1.125167192
-9.804717243
-1.362957193
-11.61499125
-1.650838557
-13.75259883
-1.997052493
-16.27968161
-2.410271658
-19.27221231
-2.899995776
-22.82237248
-3.477188077
-27.04109054
-4.15498193
-32.0611433
-4.949331431
-38.04116562
-5.879550721
-45.17076906
-6.968735528
-53.67688183
-8.244067549
-63.83145331
-9.736993177
-75.96076885
-11.48323951
-90.45680387
-13.52259536
-107.791176
-15.89832781
-128.5324548
-18.65602373
-153.367772
-21.84153545
-183.1299391
-25.49754477
-218.8316443
-29.65804828
-261.7088349
-34.33974427
-313.2761204
-39.528874
-375.3980299
-45.16140403
-450.3813702
-51.09356635
-541.0958235
-57.05845541
-651.132626
-62.60248847
-785.0149284
-66.99308111
-948.4785653
-69.08491388
-1148.849433
-67.12712434
-1395.554588
-58.4857562
-1700.820021
-39.24530713
-2080.604845
-2555.932566
-0.0001333376546
-0.0436174801
-0.0002365705867
-0.06241229732
-0.00030108751
-0.08144775486
-0.0002082249444
-0.1041435274
0.000267781144
-0.1329024251
0.00104676226
-0.1698419358
-0.0005331216912
-0.2106558612
-0.004082703733
-0.2527005534
-0.008744457252
-0.3006558946
-0.01429312449
-0.3579840375
-0.02089260411
-0.4261658425
-0.02875213505
-0.5073928709
-0.03810457584
-0.6040608086
-0.04924123085
-0.7191560699
-0.06249926022
-0.8561510898
-0.07829015382
-1.019213398
-0.0971025654
-1.213271878
-0.1195296251
-1.444182228
-0.1462889233
-1.718879192
-0.1782591665
-2.045565077
-0.2165232109
-2.433919576
-0.2624293116
-2.895332337
-0.3176716655
-3.443160182
-0.3843967032
-4.09300622
-0.4653345603
-4.863033614
-0.563945566
-5.774342367
-0.6845504745
-6.851476007
-0.8323821308
-8.123184828
-1.013481205
-9.623618158
-1.234427535
-11.3940449
-1.502042117
-13.48498423
-1.823282657
-15.95844106
-2.205471732
-18.89002322
-2.656813744
-22.37103045
-3.187037966
-26.5108663
-3.80801787
-31.44016337
-4.534294696
-37.31488878
-5.38350061
-44.32156311
-6.37669722
-52.68368521
-7.538637676
-62.66951282
-8.897932057
-74.60147446
-10.48708009
-88.86765582
-12.34229159
-105.9359645
-14.50297622
-126.3717701
-17.01071471
-150.8600335
-19.90741225
-180.2332416
-23.2322107
-215.5068459
-27.01652249
-257.9245231
-31.27627607
-309.0163668
-36.00005065
-370.6742553
-41.13122258
-445.2501983
-46.54139499
-535.6856511
-51.99124174
-645.6827793
-57.07323126
-779.9329389
-61.12828373
-944.4235128
-63.12510656
-1146.85261
-61.48623093
-1397.193464
-53.83753266
-1708.46872
-36.64850201
-2097.793875
-2587.861801
-6.662801117e-05
-0.04355085157
-5.254355796e-05
-0.06242638103
6.350195757e-05
-0.08156379968
0.0004435752806
-0.1045235999
0.001336346046
-0.1337951946
0.002002401508
-0.1705079891
0.0002442065287
-0.2088976632
-0.003097176233
-0.2493591666
-0.007095531589
-0.2966575343
-0.01185680151
-0.3532227617
-0.01751975682
-0.4205028804
-0.02426654565
-0.5006460743
-0.03229822376
-0.5960291217
-0.04186924022
-0.7095850435
-0.05327525998
-0.8447450591
-0.06687994517
-1.005608701
-0.08311932235
-1.197032488
-0.1025278742
-1.424773663
-0.1257603366
-1.695646716
-0.1536289149
-2.017696484
-0.1871498387
-2.40039864
-0.2276096716
-2.854872491
-0.2766538932
-3.39411595
-0.3364005054
-4.033259596
-0.4095719329
-4.789862179
-0.4996226603
-5.684291633
-0.6108130201
-6.740285638
-0.7481543778
-7.98584346
-0.917179888
-9.454592634
-1.123615732
-11.18760904
-1.373156464
-13.23544348
-1.671534251
-15.66006325
-2.024907322
-18.53665013
-2.440433903
-21.95550385
-2.926861248
-26.02443894
-3.495028264
-30.87199634
-4.15826631
-36.65165072
-4.932723958
-43.54710544
-5.837642012
-51.77876714
-6.895582366
-61.61157244
-8.132589405
-73.36446741
-9.578235613
-87.42200959
-11.26548339
-104.2487167
-13.23024486
-124.4070087
-15.51046948
-148.5798089
-18.14449876
-177.5992123
-21.16829833
-212.4830463
-24.61100284
-254.4818186
-28.48794651
-305.1394231
-32.79000457
-366.3721972
-37.46752971
-440.5726731
-42.40645524
-530.7467256
-47.39306066
-640.6961738
-52.06240479
-775.2635947
-55.8232953
-940.6626223
-57.74965763
-1144.926248
-56.42380708
-1398.519314
-49.71096062
-1715.181566
-34.4350472
-2113.069789
-2616.380116
-9.037780113e-06
-0.04354181336
0.0001120699217
-0.06254748816
0.0004125451559
-0.08186427436
0.001086536774
-0.1051975908
0.002382791309
-0.135091448
0.002762071284
-0.1708872674
0.000798627195
-0.2069342167
-0.00216734003
-0.2463931963
-0.005545113971
-0.2932797567
-0.009571200124
-0.3491966712
-0.01436548745
-0.4157085881
-0.02008684381
-0.4949247121
-0.02690939262
-0.5892065663
-0.03505572597
-0.7014387029
-0.04478617215
-0.8350146049
-0.05642330476
-0.9939715599
-0.07035834096
-1.183097442
-0.08707623969
-1.408055754
-0.1071803938
-1.675542552
-0.1314325907
-1.993444277
-0.1608061845
-2.371025038
-0.1965602388
-2.819118426
-0.2403355037
-3.350340678
-0.2942692494
-3.979325841
-0.3611141974
-4.723017223
-0.4443251664
-5.601080657
-0.5480469352
-6.636563859
-0.6769393195
-7.856951063
-0.8358604723
-9.295671468
-1.029566748
-10.99390275
-1.262640628
-13.00236959
-1.539742676
-15.38296119
-1.866103174
-18.21028962
-2.248080357
-21.57352666
-2.6936514
-25.57886788
-3.212794012
-30.35285371
-3.817781418
-36.0466633
-4.523432573
-42.84145427
-5.347341961
-50.95485774
-6.310087606
-60.64882678
-7.435387673
-72.23916734
-8.750165427
-86.10723182
-10.28444281
-102.7144393
-12.07096842
-122.6204831
-14.14441525
-146.5063621
-16.53992154
-175.203706
-19.29062254
-209.7323453
-22.42366442
-251.3487767
-25.95396902
-301.6091185
-29.87467663
-362.4514896
-34.14274704
-436.3046027
-38.6575188
-526.2319538
-43.22907821
-636.1246144
-47.53198017
-770.9606928
-51.03784238
-937.1567601
-52.91776951
-1143.046321
-51.90155762
-1399.535526
-46.07510931
-1721.008015
-32.58898948
-2126.555908
-2641.725741
4.443493177e-05
-0.04358624793
0.0002745602925
-0.06277761293
0.0007674567962
-0.0823571703
0.001728277495
-0.1061584107
0.003252044261
-0.1366152137
0.003269574753
-0.1709047963
0.001318755043
-0.2049833947
-0.001050648956
-0.2440237894
-0.003887022294
-0.2904433799
-0.007274028926
-0.3458096605
-0.0113089192
-0.4116736931
-0.01612902299
-0.490104603
-0.02188451067
-0.5834510727
-0.02876950778
-0.694553699
-0.03701371386
-0.8267703915
-0.04690471969
-0.9840805461
-0.05879726578
-1.171204888
-0.0731387128
-1.393714299
-0.09049841816
-1.658182839
-0.111612354
-1.972330332
-0.1374434055
-2.345193979
-0.1692613822
-2.78730044
-0.2087412289
-3.310860825
-0.258070371
-3.92999669
-0.3200389197
-4.661048665
-0.3980608098
-5.523058759
-0.4960555203
-6.538569139
-0.6181707325
-7.734835838
-0.7684508862
-9.145391299
-0.9506541166
-10.8116995
-1.168366686
-12.784657
-1.425395722
-15.12593213
-1.726286786
-17.90939854
-2.076809059
-21.22300437
-2.484330718
-25.17134621
-2.958091655
-29.87909276
-3.509418359
-35.49533658
-4.15192245
-42.19895016
-4.901700754
-50.20507943
-5.777528937
-59.77299858
-6.801019846
-71.21567642
-7.996699508
-84.91155215
-9.391936997
-101.3192018
-11.01662928
-120.9957908
-12.90250722
-144.6204841
-15.08184586
-173.0243673
-17.58527548
-207.2289157
-20.43823594
-248.4958163
-23.65541204
-298.3919424
-27.23220608
-358.8746956
-31.13186648
-432.4049423
-35.26631333
-522.097507
-39.46784901
-631.9230787
-43.44770786
-766.9808339
-46.73573361
-933.8687344
-48.59294711
-1141.189107
-47.8854505
-1400.243023
-42.90289221
-1725.990573
-31.09722969
-2138.361571
-2664.112163
0.0001008861943
-0.04368713387
0.0004541225946
-0.06313084883
0.001157976976
-0.0830610242
0.002443143159
-0.1074435763
0.00394400265
-0.1381160722
0.003429509672
-0.170390302
0.001790517162
-0.2033444004
-0.000177866397
-0.2420554036
-0.002507090414
-0.2881141531
-0.005296214193
-0.3430205336
-0.008626996467
-0.4083429072
-0.01261811765
-0.4861134777
-0.01739984891
-0.5786693367
-0.02314214902
-0.6888113937
-0.03004967643
-0.8198628583
-0.03838271233
-0.9757475039
-0.04847055977
-1.161117034
-0.06073890381
-1.381445947
-0.07574427404
-1.643177462
-0.09422299094
-1.953851608
-0.1171565086
-2.322260455
-0.1458543243
-2.758602617
-0.182049676
-3.274665467
-0.2279885554
-3.884057804
-0.2864714927
-4.602565719
-0.36078469
-5.448745552
-0.4544770996
-6.444876719
-0.5710343688
-7.618278557
-0.7136212441
-9.002804411
-0.885070628
-10.64025011
-1.088164332
-12.58156328
-1.326093449
-14.888003
-1.602933156
-17.63255882
-1.924022929
-20.90191458
-2.296231734
-24.79913739
-2.728145716
-29.44717877
-3.230227616
-34.99325467
-3.814982937
-41.61419482
-4.497141407
-49.52292095
-5.293842689
-58.97629728
-6.224794721
-70.28472438
-7.312362796
-83.82398407
-8.581528619
-100.050036
-10.0596324
-119.517687
-11.77577382
-142.9043427
-13.7596874
-171.0404537
-16.03981055
-204.9487925
-18.64014348
-245.8954833
-21.57531708
-295.4567688
-24.84300617
-355.6070065
-28.41248039
-428.8354681
-32.20752412
-518.3024633
-36.08121592
-628.0493869
-39.77896567
-763.2830842
-42.88469408
-930.763006
-44.7427928
-1139.331008
-44.34550448
-1400.640311
-40.17090583
-1730.165171
-29.94940343
-2148.583073
-2683.729945
0.0001537218855
-0.04384085542
0.0006368478281
-0.06361397422
0.001554010368
-0.08397818619
0.003164053147
-0.1090536183
0.004457543631
-0.1394095616
0.003673526816
-0.1696062836
0.002341491971
-0.2020123636
0.0007499826881
-0.2404638919
-0.001141034197
-0.2862231334
-0.003410436281
-0.3407511282
-0.006126030745
-0.405627309
-0.009389556868
-0.4828499473
-0.01331464355
-0.5747442453
-0.01805239518
-0.6840736368
-0.02379061682
-0.8141246311
-0.03077395735
-0.9687641574
-0.03932100746
-1.152569978
-0.04985310333
-1.370913845
-0.06293317804
-1.630097381
-0.07931909421
-1.937465685
-0.1000338091
-2.301545734
-0.1264483999
-2.73218802
-0.160366186
-3.240747675
-0.2040768237
-3.84034716
-0.2603258844
-4.54631665
-0.3321465124
-5.376924914
-0.4225664761
-6.354456746
-0.5343138371
-7.506531185
-0.6697029845
-8.86741525
-0.8308000184
-10.47915306
-1.019807736
-12.39255555
-1.239518268
-14.66829246
-1.493700132
-17.37837695
-1.787369104
-20.6082456
-2.126963349
-24.45954314
-2.520471525
-29.05367058
-2.977558743
-34.53616745
-3.509713214
-41.08204034
-4.130417686
-48.90221647
-4.855328145
-58.25138681
-5.702435378
-69.43761714
-6.692163575
-82.83425586
-7.847356211
-98.89484338
-9.193070978
-118.1719722
-10.75607361
-141.3413401
-12.56386027
-169.2326671
-14.64297085
-202.8696819
-17.01623031
-243.5222239
-19.69839317
-292.774606
-22.68944231
-352.6159573
-25.96444789
-425.5604625
-29.45842665
-514.8084845
-33.04397144
-624.4638421
-36.49841993
-759.8286357
-39.45603248
-927.8053934
-41.3386416
-1137.448399
-41.25549448
-1400.723458
-37.85918204
-1733.561484
-29.13777111
-2157.304484
-2700.748333
0.0001998082992
-0.04404066341
0.0008211310188
-0.06423529635
0.001958287747
-0.08511534232
0.003772080617
-0.1108674104
0.004492484519
-0.1401299644
0.00378684117
-0.1689006388
0.002738522401
-0.2009640429
0.00149713293
-0.2392225001
1.732436791e-05
-0.2847433221
-0.001768183307
-0.3389656173
-0.003918370653
-0.4034771179
-0.006523119031
-0.4802451948
-0.0096865369
-0.5715808228
-0.01354911565
-0.6802110531
-0.01829062021
-0.8093831212
-0.02414902733
-0.9629057447
-0.03144146022
-1.145277539
-0.040596057
-1.361759243
-0.05219715014
-1.618496282
-0.06704387075
-1.922618959
-0.08622224233
-2.282367357
-0.1111802137
-2.707230043
-0.1437852964
-3.208142585
-0.1863220951
-3.797810355
-0.241375756
-4.491262983
-0.3115837018
-5.306716961
-0.3993378015
-6.266702637
-0.5065979635
-7.399271013
-0.6349484418
-8.739064761
-0.7858945938
-10.32820689
-0.9612769565
-12.21717318
-1.163659215
-14.46591019
-1.396611813
-17.14542434
-1.664888184
-20.33996922
-1.97453499
-24.14989632
-2.332984159
-28.6952214
-2.749159973
-34.11999163
-3.233616341
-40.59758396
-3.798701269
-48.33713153
-4.458731967
-57.5913561
-5.23015669
-68.66619241
-6.131663335
-81.93274921
-7.184192093
-97.84231461
-8.410777707
-116.9453866
-9.836127742
-139.91599
-11.48578979
-167.583005
-13.38469132
-200.9707804
-15.55473281
-241.3521824
-18.01097838
-290.3183604
-20.75576964
-349.871166
-23.76980324
-422.5464289
-26.99879273
-511.579495
-30.33371066
-621.1289242
-33.58182249
-756.5805238
-36.42440255
-924.9628134
-38.35538068
-1135.517421
-38.59274759
-1400.486091
-35.95102476
-1736.203207
-28.65712727
-2164.598382
-2715.316654
0.0002481097914
-0.0442887729
0.001022502793
-0.06500968901
0.002414271273
-0.08650711042
0.004277466971
-0.1127306056
0.004639135997
-0.1404916327
0.004038211345
-0.1682997131
0.003247930262
-0.2001737606
0.00230950891
-0.2382840773
0.001178339581
-0.2836121511
-0.0002023948292
-0.3375848809
-0.001885356986
-0.4017941536
-0.003952495217
-0.478178054
-0.006500449726
-0.5690328656
-0.00966146091
-0.6770500389
-0.01361040461
-0.8054341742
-0.01858485449
-0.9579312912
-0.0249117856
-1.138950604
-0.03304397924
-1.353627045
-0.04360943195
-1.607930825
-0.05747076824
-1.908757618
-0.07579185459
-2.264046266
-0.1000949877
-2.682926905
-0.1322759437
-3.175961622
-0.1745281469
-3.755558145
-0.2291466116
-4.436644511
-0.2982496574
-5.237613908
-0.3835501118
-6.181402176
-0.4863203044
-7.296500812
-0.6075946173
-8.617790438
-0.7485288457
-10.18727265
-0.9107780515
-12.05492396
-1.096792685
-14.27989554
-1.310005559
-16.93221145
-1.554937402
-20.09503737
-1.837266429
-23.86756729
-2.163901144
-28.36858668
-2.543079485
-33.74081328
-2.984500848
-40.15616259
-3.49948599
-47.82214638
-4.101150719
-56.98969136
-4.804565135
-67.96277799
-5.626876119
-81.11043822
-6.587338834
-96.88185189
-7.707208439
-115.825517
-9.009399313
-138.6137991
-10.51778496
-166.0746194
-12.25595161
-199.2326137
-14.24512441
-239.3630096
-16.50086356
-288.0626212
-19.0279403
-347.3440893
-21.81254875
-419.7618205
-24.81063198
-508.5814118
-27.93057813
-618.0089781
-31.0078011
-753.5033009
-33.76758459
-922.2030299
-35.77119281
-1133.513813
-36.33790394
-1399.91938
-34.43284085
-1738.10827
-28.50475403
-2170.526469
-2727.565645
0.0002981556669
-0.04458692822
0.00122497267
-0.06593650551
0.002846418865
-0.08812855606
0.004579589292
-0.1144637753
0.004736984689
-0.1406490271
0.004255133194
-0.1678178604
0.003666758455
-0.1995853843
0.002960010322
-0.2375773273
0.002101086708
-0.2827532253
0.001040702858
-0.3365244946
-0.000267387632
-0.4004860604
-0.001897450545
-0.4765479882
-0.003943128634
-0.5669871843
-0.006534746794
-0.6744584174
-0.009853248693
-0.8021156689
-0.01415163042
-0.9536329061
-0.01978554069
-1.133316691
-0.02725146682
-1.346161116
-0.03723708079
-1.597945208
-0.05067834215
-1.895316353
-0.06881463652
-2.245909967
-0.09321530425
-2.658526231
-0.1257355112
-3.143441409
-0.1683650877
-3.712928562
-0.2229858789
-4.382023715
-0.2911302669
-5.169469515
-0.3738752205
-6.098657216
-0.4719550896
-7.198420935
-0.5860536146
-8.503691904
-0.7171575687
-10.05616869
-0.8668600407
-11.90522148
-1.037562616
-14.10919295
-1.23258619
-16.73718787
-1.456230024
-19.87139353
-1.71381998
-23.60997732
-2.011773813
-28.07063284
-2.357697175
-33.39488991
-2.760513924
-39.75334583
-3.230622721
-47.35203758
-3.780066625
-56.44024745
-4.422696127
-67.32014848
-5.174298061
-80.35883628
-6.052650675
-96.00349928
-7.077462323
-114.8007053
-8.270102213
-137.4211592
-9.653033282
-164.6916883
-11.24876322
-197.6368838
-13.07808614
-237.5336866
-15.15724904
-285.9834583
-17.49354342
-345.0077949
-20.0785714
-417.1767925
-22.87812558
-505.7818576
-25.81716638
-615.0699373
-28.75767014
-750.5627971
-31.46630772
-919.4943923
-33.56737857
-1131.412742
-34.47477092
-1399.011988
-33.2940118
-1739.289029
-28.6803219
-2175.140158
-2737.608558
0.000379185663
-0.0449661138
0.00148942617
-0.06704674597
0.003258397445
-0.08989752727
0.004572955074
-0.1157783328
0.004520453332
-0.1405965252
0.00418351928
-0.1674809262
0.003790585089
-0.19919245
0.003306644234
-0.2370933862
0.002706119561
-0.2821527003
0.001944071708
-0.3357624464
0.0009746638079
-0.3995166519
-0.0002750597013
-0.475298264
-0.001904031109
-0.565358212
-0.004052848773
-0.6723095987
-0.006919481606
-0.7992490346
-0.01078319491
-0.9497691913
-0.01603743625
-1.128062447
-0.02323029964
-1.33896825
-0.03311598329
-1.588059521
-0.04670506655
-1.881727266
-0.0652957926
-2.227319236
-0.0904513356
-2.633370683
-0.1238898878
-3.110002849
-0.1672817447
-3.669536698
-0.2220148772
-4.327290577
-0.2890462247
-5.102438163
-0.3689335995
-6.018769836
-0.4620545152
-7.105300013
-0.5689219618
-8.396824449
-0.690485356
-9.934605285
-0.8283474447
-11.76735938
-0.984886906
-13.95265348
-1.16331721
-16.55875756
-1.367720128
-19.6669906
-1.603085034
-23.37461241
-1.875373129
-27.79834473
-2.191614203
-33.07864883
-2.560034864
-39.38492516
-2.990212915
-46.92185953
-3.493243948
-55.93721641
-4.081908096
-66.73148433
-4.770804194
-79.66994017
-5.576433157
-95.19787031
-6.517171555
-113.8599669
-7.613086253
-136.3252445
-8.885480201
-163.4192944
-10.35603913
-196.1663249
-12.04536474
-235.844361
-13.97059053
-284.0582325
-16.14163725
-342.8367482
-18.55546722
-414.7629625
-21.1874196
-503.1499052
-23.97828576
-612.2790711
-26.81526756
-747.7258153
-29.50404589
-916.805614
-31.72816971
-1129.188618
-32.99015988
-1397.749998
-32.52676834
-1739.752421
-29.18590147
-2178.481025
-2745.542185
0.000488121855
-0.04545423544
0.001780172197
-0.06833879594
0.003575614106
-0.09169296877
0.004435805573
-0.1166385237
0.004392005321
-0.1405527243
0.004193643883
-0.1672825639
0.003966168274
-0.1989649734
0.00366585974
-0.2367930765
0.003270850283
-0.2817576896
0.002736560717
-0.3352281554
0.002013102858
-0.3987931925
0.001022482394
-0.4743076419
-0.0003432407013
-0.5639924871
-0.002238756374
-0.6704140813
-0.004884665802
-0.7966031232
-0.008592010353
-0.946061845
-0.01380091952
-1.122853536
-0.02112263237
-1.331646535
-0.03138527854
-1.577796871
-0.04566435001
-1.867448191
-0.06527463006
-2.20770895
-0.09169176048
-2.606953546
-0.1263908324
-3.075303773
-0.1706358159
-3.625291711
-0.2253063984
-4.272619992
-0.2908680954
-5.036876463
-0.367517546
-5.942120381
-0.4554493056
-7.017368247
-0.5551435085
-8.29713024
-0.6675924655
-9.82215632
-0.7944384484
-11.64051339
-0.9380395473
-13.80905238
-1.101497219
-16.39529988
-1.288678775
-19.47980904
-1.504256228
-23.15903495
-1.753772475
-27.54882848
-2.043739027
-32.78868228
-2.381763431
-39.04690075
-2.77670108
-46.52692188
-3.238821616
-55.47509586
-3.77997456
-66.19033138
-4.413738081
-79.03617665
-5.155520303
-94.45608808
-6.022579533
-112.9929077
-7.033906154
-135.3139179
-8.209888491
-162.243312
-9.571639778
-194.8045736
-11.13980938
-234.2761914
-12.93262056
-282.2654214
-14.96275286
-340.8066159
-17.23252262
-412.4931927
-19.72656981
-500.655858
-22.40092969
-609.6047112
-25.16682663
-744.9599184
-27.86691875
-914.1055218
-30.2406068
-1126.81493
-31.87373744
-1396.116867
-32.12609717
-1739.500061
-30.02586133
-2180.581261
-2751.447747
0.0006465367734
-0.04610077225
0.002076117128
-0.06976837617
0.003787333433
-0.09340418497
0.004459336672
-0.1173105269
0.004433540848
-0.1405269283
0.004331557782
-0.1671805806
0.004211249969
-0.1988446653
0.004026474945
-0.2366083012
0.003755554677
-0.2814867689
0.003352750763
-0.3348253509
0.002762749935
-0.398203191
0.001900513881
-0.4734454051
0.0006451064586
-0.5627370787
-0.001177274356
-0.6685916994
-0.003818062232
-0.7939623339
-0.007634292086
-0.9422456139
-0.01312709419
-1.117360731
-0.02097869623
-1.323794931
-0.03208171136
-1.566693853
-0.04753908151
-1.851990816
-0.06861183713
-2.186636187
-0.09659503856
-2.578970337
-0.1326359019
-3.039262903
-0.1775596715
-3.580367937
-0.2317922047
-4.218387456
-0.2954392703
-4.973229394
-0.3684987446
-5.869060903
-0.451122757
-6.93474423
-0.5438473268
-8.204405663
-0.6477444328
-9.718259207
-0.7644991657
-11.52375865
-0.8964392194
-13.67711232
-1.046548224
-16.24519087
-1.218486186
-19.30787107
-1.416631345
-22.96088979
-1.646149799
-27.31931002
-1.913094152
-32.52173792
-2.224530607
-38.73546429
-2.588688318
-46.16276416
-3.01512602
-55.04865816
-3.514899681
-65.69055772
-4.10072404
-78.45035228
-4.787094946
-93.76971718
-5.590352461
-112.1896502
-6.528633043
-134.3756373
-7.621646698
-161.1502984
-8.890179326
-193.5360409
-10.35516879
-232.811202
-12.03614129
-280.5844488
-13.94868368
-338.8940735
-16.1004975
-410.3413789
-18.48536081
-498.2709947
-21.07404414
-607.0160279
-23.80080384
-742.2331587
-26.54347292
-911.3628528
-29.09435536
-1124.264048
-31.11789998
-1394.093322
-32.08961553
-1738.528345
-31.20690311
-2181.463974
-2755.391672
0.0008711198223
-0.04697189188
0.002374971208
-0.07127222722
0.003925228512
-0.09495444191
0.004344418897
-0.1177297168
0.004335869554
-0.1405183784
0.004293046933
-0.1671377573
0.004233448926
-0.1987850665
0.004113086057
-0.2364879374
0.003907815726
-0.2812814975
0.003568355967
-0.3344858901
0.003030579191
-0.3976654131
0.002196627679
-0.4726114524
0.0009239256986
-0.5614643754
-0.0009925680169
-0.6666752046
-0.003848377191
-0.7911065232
-0.008057338411
-0.9380366515
-0.01418400757
-1.11123406
-0.02296863668
-1.3150103
-0.03533438629
-1.554328099
-0.05235377902
-1.834971417
-0.075156323
-2.163833637
-0.1047783612
-2.549348294
-0.1419976528
-3.00204361
-0.1872293176
-3.535136272
-0.2405496086
-4.165067163
-0.3018510286
-4.911927972
-0.371071383
-5.799840545
-0.4484164246
-6.857399184
-0.5345229897
-8.118299093
-0.6305493927
-9.622232798
-0.7382122099
-11.41609583
-0.8597968534
-13.55552767
-0.9981666969
-16.10682102
-1.156786741
-19.14925102
-1.339769878
-22.77790665
-1.55194977
-27.10713012
-1.798980936
-32.27470676
-2.087464642
-38.44698058
-2.425098076
-45.82513073
-2.820839405
-54.65291682
-3.285084485
-65.22631263
-3.829833992
-77.90560277
-4.468844753
-93.13070641
-5.217734139
-111.4407608