/*--------------------------------*- C++ -*----------------------------------*\
  =========                 |
  \\      /  F ield         | OpenFOAM: The Open Source CFD Toolbox
   \\    /   O peration     | Website:  https://openfoam.org
    \\  /    A nd           | Version:  12
     \\/     M anipulation  |
\*---------------------------------------------------------------------------*/
FoamFile
{
    format      ascii;
    class       volScalarField;
    location    "950";
    object      T;
}
// * * * * * * * * * * * * * * * * * * * * * * * * * * * * * * * * * * * * * //

dimensions      [0 0 0 1 0 0 0];

internalField   nonuniform List<scalar> 
16200
(
294.4923047
294.5040248
294.364988
294.0134543
293.2911794
291.794829
288.6142758
282.7942649
279.412413
279.1384442
279.240811
279.333991
279.4497231
279.5773739
279.7272354
279.898786
280.0985114
280.3299059
280.5989787
280.9114877
281.2743055
281.6947704
282.1808051
282.7405799
283.3820738
284.1123347
284.9363208
285.8552616
286.8645262
287.9512938
289.0928062
290.2565551
291.4035384
292.4942243
293.4950658
294.3830127
295.1468359
295.7857938
296.3069981
296.7225772
297.0472212
297.2962543
297.4842813
297.624343
297.7275173
297.8028355
297.8574349
297.896806
297.9250891
297.9453541
297.9598511
297.9702158
297.9776318
297.9829622
297.9868273
297.9897052
297.9918474
297.9935505
297.9949765
297.9971045
293.6752039
293.6489418
293.4515965
293.0052398
292.1035218
290.2070825
286.2140341
280.3279031
278.2042251
278.1242616
278.2300563
278.3327637
278.4579205
278.5967168
278.760056
278.947849
279.1670176
279.4217393
279.7186242
280.0642429
280.4662576
280.9328968
281.4729386
282.0953413
282.8086315
283.6199139
284.5333148
285.5478406
286.6547494
287.835037
289.0583681
290.2851318
291.4721246
292.5800479
293.5796751
294.4545087
295.1999232
295.8203138
296.3258827
296.7299895
297.0472464
297.292217
297.4785361
297.6183616
297.7220915
297.7983009
297.8538516
297.8940923
297.9231043
297.9439474
297.9588846
297.9695736
297.9772217
297.9827103
297.9866851
297.989625
297.9918279
297.9935486
297.9949908
297.9972459
292.9574167
292.8795178
292.6075735
292.0474697
290.9336754
288.5591747
283.5594858
278.4282905
277.2185803
277.2645937
277.3783641
277.4901909
277.6272635
277.7802005
277.9602664
278.1679752
278.4106472
278.6932302
279.0229768
279.4073492
279.854886
280.3747929
280.9767725
281.6705513
282.4649904
283.366701
284.3779601
285.493988
286.6998942
287.9684222
289.2604466
290.529735
291.7310864
292.8284652
293.799688
294.6365685
295.341858
295.9251974
296.3996826
296.7796104
297.0792144
297.3119897
297.4902918
297.6250835
297.7257871
297.8002544
297.8548461
297.8945845
297.9233485
297.9440781
297.9589688
297.9696415
297.9772845
297.9827694
297.9867396
297.9896689
297.9918714
297.9935783
297.9949889
297.9972251
292.3757929
292.2390914
291.8789833
291.1741759
289.7840427
286.8425585
280.9268318
277.0526639
276.5097461
276.5944141
276.7154148
276.8381379
276.9882314
277.1568273
277.3554509
277.5854013
277.8544227
278.1683425
278.5351294
278.9632091
279.4620504
280.0418338
280.713078
281.4859575
282.3690271
283.3673405
284.4797739
285.6957452
286.9920698
288.3318393
289.6675638
290.9489914
292.1327958
293.1897997
294.1070821
294.885438
295.5345959
296.0685866
296.5025282
296.8509609
297.1272474
297.34347
297.510448
297.6377395
297.733613
297.8050436
297.8577632
297.8963653
297.9244467
297.9447685
297.9594153
297.9699407
297.9774926
297.9829184
297.9868478
297.9897458
297.9919328
297.9936228
297.9950053
297.9972526
291.9340492
291.7347148
291.278072
290.4034405
288.6527592
284.9423905
278.6743455
276.2120175
276.0284576
276.1264957
276.2575654
276.3930649
276.5582991
276.7451085
276.9651433
277.2206341
277.5197585
277.8693074
278.2780374
278.7553992
279.3118151
279.9583474
280.7060506
281.5649765
282.5424326
283.640517
284.8528007
286.1606655
287.5308074
288.9164504
290.2639123
291.5229425
292.6563427
293.644764
294.4856851
295.1885534
295.7690028
296.2442595
296.6304825
296.9417843
297.1902473
297.3863025
297.5390831
297.6566282
297.7459507
297.8130522
297.8629478
297.8997236
297.9266298
297.9461964
297.960357
297.9705679
297.9779144
297.9832042
297.9870413
297.9898752
297.9920226
297.9936845
297.9950281
297.9972686
291.6467814
291.3843248
290.8276993
289.7677465
287.587325
282.8533082
277.1761671
275.7496393
275.7797398
275.8772505
276.0199317
276.1696845
276.3515852
276.5585622
276.8023042
277.0861348
277.4187256
277.8079159
278.263303
278.7953333
279.4152535
280.1347021
280.9647401
281.9144534
282.988645
284.1846854
285.4886217
286.8717108
288.2897654
289.6878147
291.0100015
292.2109166
293.2632888
294.1593576
294.9068685
295.5226675
296.0267145
296.4380336
296.7728144
297.0441176
297.2624152
297.4363383
297.5732753
297.6797199
297.7614056
297.8233306
297.8697572
297.9042271
297.9296083
297.9481689
297.9616661
297.9714391
297.9784956
297.9835922
297.9872987
297.990044
297.9921346
297.9937606
297.9950611
297.9972952
291.5118909
291.1807805
290.5123805
289.2271076
286.518241
280.7427298
276.2293491
275.506909
275.718009
275.839523
275.9953083
276.1613041
276.3620863
276.5919724
276.862623
277.1785501
277.548934
277.9826418
278.4900546
279.0824607
279.7716852
280.5695146
281.4863213
282.5291193
283.6985721
284.9851714
286.3652048
287.7985527
289.2311649
290.6035568
291.8628289
292.9729521
293.9190713
294.7052721
295.3483224
295.8706459
296.294798
296.6402769
296.922442
297.1528288
297.3400933
297.4910174
297.611267
297.7058305
297.7791945
297.8353697
297.8778661
297.9096712
297.9332557
297.9506091
297.9632971
297.972528
297.9792214
297.9840745
297.9876164
297.9902505
297.9922685
297.9938503
297.9951022
297.997325
291.5309326
291.1238846
290.3261176
288.7418503
285.3007349
278.9455063
275.8736047
275.7320023
275.8722654
276.0012836
276.1723035
276.3571552
276.5796355
276.8356881
277.1368822
277.488952
277.9015903
278.3846474
278.9492302
279.6072958
280.370924
281.2514309
282.2574718
283.3924435
284.6508136
286.0139254
287.4466919
288.8979635
290.3069356
291.6147548
292.7766488
293.7692773
294.5910237
295.2567284
295.7901973
296.2173973
296.5618427
296.8423893
297.0729127
297.2631139
297.4197453
297.5477731
297.6512237
297.7336695
297.7984235
297.8485592
297.8868634
297.9157825
297.9373923
297.9534007
297.9651755
297.973788
297.9800633
297.9846339
297.9879845
297.9904892
297.9924217
297.9939526
297.9951515
297.9973606
291.7000817
291.2179715
290.2699577
288.3119234
283.8718809
277.738847
275.8511164
276.0379507
276.2072415
276.3519748
276.5398154
276.74564
276.9921708
277.2771688
277.6121129
278.0039919
278.4630486
279.0000566
279.6267258
280.3553487
281.1976602
282.1635164
283.2584189
284.480258
285.8151402
287.2334405
288.6884076
290.1202116
291.4661264
292.6734979
293.7098114
294.5659621
295.2528035
295.7938885
296.2177641
296.5520027
296.819707
297.0382546
297.2196129
297.371498
297.4987731
297.604686
297.6917485
297.7622371
297.8183888
297.8624116
297.8964169
297.922338
297.941871
297.9564481
297.9672405
297.9751809
297.9809981
297.9852568
297.9883952
297.9907561
297.9925926
297.9940665
297.9952083
297.997401
291.9949233
291.4301793
290.2976234
287.8930907
282.3500884
277.2250514
276.438577
276.5385178
276.7119812
276.8731678
277.0797486
277.3089667
277.5822931
277.899436
278.2718172
278.7076563
279.2177233
279.8135225
280.5070523
281.3103645
282.2339819
283.2850596
284.4643012
285.7621058
287.1543131
288.5995046
290.0407685
291.4138262
292.6597173
293.7368572
294.6273855
295.3361837
295.8846143
296.3024353
296.6206915
296.8669168
297.0627718
297.2236077
297.3592625
297.4754485
297.5752304
297.6602771
297.7317349
297.7907193
297.8385023
297.8765098
297.9062356
297.9291383
297.9465571
297.9596619
297.9694339
297.97667
297.9820029
297.9859297
297.988841
297.9910468
297.9927792
297.9941911
297.9952723
297.9974465
292.4050947
291.7451354
290.3620485
287.3281679
280.9810769
277.1137763
277.0202351
277.182806
277.3685607
277.5488507
277.7764296
278.0317949
278.3350526
278.687901
279.1017127
279.5858015
280.1513262
280.810189
281.5742162
282.4545006
283.4593339
284.5917614
285.8458845
287.2026704
288.6264252
290.0646232
291.4536455
292.7302703
293.8447432
294.7698531
295.5028507
296.0609014
296.4732488
296.7733176
296.9927072
297.1576596
297.287706
297.3958764
297.4898243
297.5733353
297.6478172
297.7135224
297.7703905
297.8185156
297.8583185
297.8905295
297.9160882
297.9360213
297.9513395
297.9629674
297.9717064
297.9782234
297.9830578
297.9866405
297.9893146
297.9913577
297.9929797
297.9943255
297.9953431
297.9974971
292.9241015
292.1582281
290.4652071
286.5367934
280.06254
277.7671356
277.7940216
277.9638467
278.1635526
278.3652198
278.6162816
278.9006873
279.2370938
279.6291138
280.0880541
280.624125
281.2487025
281.9737161
282.8102799
283.7676571
284.8506479
286.0565003
287.3707768
288.7634493
290.1872614
291.5811798
292.8799613
294.0272119
294.9865527
295.7464626
296.3180558
296.7281668
297.0111282
297.2017702
297.3307317
297.4221072
297.4929152
297.5537701
297.6102056
297.664221
297.7157363
297.7637583
297.807177
297.845201
297.8775104
297.9042257
297.9257953
297.9428585
297.9561278
297.9663023
297.9740162
297.9798136
297.9841454
297.9873783
297.98981
297.9916852
297.9931926
297.9944691
297.9954204
297.9975527
293.5429233
292.6391803
290.561959
285.5840477
279.8712325
278.5031394
278.6910054
278.8664636
279.0832817
279.3086664
279.5855835
279.9016407
280.2740577
280.7082577
281.2155195
281.806762
282.4933619
283.2867661
284.1965857
285.2290625
286.3839068
287.6506711
289.0046506
290.4042706
291.7925015
293.1042546
294.2784936
295.2705531
296.0596734
296.6494211
297.0623399
297.3319686
297.4951537
297.586319
297.6340797
297.6598832
297.6780913
297.6969541
297.720028
297.747702
297.7785866
297.8106113
297.8417656
297.8704993
297.8958549
297.9174242
297.9352246
297.9495524
297.9608518
297.9696173
297.9763292
297.981418
297.9852509
297.9881341
297.9903214
297.9920263
297.9934163
297.9946208
297.9955038
297.9976133
294.2575632
293.1565888
290.5391601
284.6339615
279.8732548
279.4487184
279.6933997
279.8768727
280.1129231
280.3638478
280.6687877
281.0189838
281.4303754
281.9100356
282.469179
283.1190665
283.8705953
284.7339191
285.7160466
286.8187396
288.0348492
289.3444683
290.7116919
292.0844716
293.3997443
294.5939726
295.6157249
296.4352197
297.0475029
297.4691583
297.7311429
297.8708456
297.9254985
297.9278072
297.9037118
297.8717974
297.843799
297.8257485
297.8194108
297.8237538
297.8362553
297.8539247
297.8739877
297.8942505
297.9132119
297.9300088
297.944284
297.956032
297.9654586
297.972874
297.9786186
297.9830179
297.9863618
297.9888997
297.990844
297.992378
297.9936495
297.9947801
297.9955931
297.997679
295.053892
293.6900965
290.3343479
283.9647912
280.6878166
280.5052166
280.7793827
280.9776697
281.2358217
281.5153619
281.8519081
282.2401224
282.6947563
283.2241753
283.8393025
284.5511929
285.3696225
286.3025092
287.3529983
288.5167517
289.7780187
291.1062651
292.4548619
293.7642573
294.970529
296.0173213
296.8667357
297.5049332
297.9412321
298.2023155
298.3244926
298.3465592
298.3045401
298.228581
298.1416302
298.0594034
297.9911537
297.9408936
297.9088006
297.8926095
297.888831
297.8936977
297.9037935
297.9163833
297.9295059
297.9419094
297.9529135
297.9622488
297.9699105
297.9760442
297.9808636
297.9845988
297.9874683
297.9896687
297.9913737
297.992738
297.9938908
297.9949461
297.995688
297.9977497
295.9180171
294.1800582
289.97565
283.8759754
281.6474522
281.66578
281.9479984
282.1657368
282.4492714
282.7609288
283.1328704
283.5628814
284.0645458
284.6471313
285.3210215
286.096499
286.9814663
287.9804352
289.0911276
290.3013628
291.5854599
292.9023007
294.1968235
295.4065381
296.4722381
297.3492727
298.0151887
298.4712363
298.7383538
298.8501594
298.8455875
298.7629485
298.6359912
298.4918497
298.3504142
298.2246627
298.1215767
298.0433709
297.9888403
297.9546631
297.9365338
297.9300352
297.9312166
297.9368908
297.9447098
297.9530918
297.9610787
297.968172
297.9741819
297.9791074
297.9830487
297.9861492
297.9885622
297.9904355
297.9919069
297.993104
297.9941391
297.9951182
297.9957879
297.9978255
296.8369873
294.6135995
289.5907725
283.9639008
282.77765
282.9124913
283.2025237
283.4443659
283.7555519
284.1017114
284.5116632
284.9860342
285.5372915
286.1751984
286.9092225
287.7480335
288.6964932
289.7541542
290.9116296
292.147573
293.426168
294.6974217
295.9017473
296.9789998
297.879528
298.5730796
299.0525599
299.3320789
299.441063
299.4171144
299.2996029
299.125029
298.9242454
298.7212209
298.5328898
298.3697071
298.2366219
298.1342758
298.0602738
298.0103993
297.9796633
297.9631099
297.9563463
297.9558105
297.9588311
297.9635475
297.9687644
297.9737848
297.9782569
297.98205
297.9851629
297.9876607
297.9896372
297.9911957
297.9924404
297.9934742
297.9943932
297.9952957
297.9958909
297.9979063
297.7504323
294.9763991
289.3456019
284.4701959
284.0332896
284.2388631
284.5404695
284.8097121
285.1508973
285.5341254
285.9849506
286.5064802
287.1099344
287.8048852
288.5991177
289.498488
290.5034091
291.6070098
292.7916323
294.0264615
295.2667805
296.45693
297.5375753
298.4558534
299.1749685
299.6797682
299.9768548
300.0902396
300.0547552
299.9095248
299.6927582
299.4383261
299.1739145
298.9203795
298.691906
298.4966786
298.3378593
298.2147296
298.1238803
298.0603425
298.0185599
297.9931332
297.9793065
297.9732093
297.9719012
297.9732872
297.9759697
297.9790808
297.9821271
297.9848636
297.9871986
297.9891269
297.9906884
297.9919455
297.9929719
297.9938467
297.9946521
297.9954776
297.9960026
297.9979923
298.5608823
295.287367
289.3505297
285.7147168
285.399314
285.6430755
285.9609049
286.2613881
286.6357076
287.059252
287.5541384
288.1253652
288.7825218
289.5340553
290.3851371
291.3376422
292.3863827
293.5170993
294.7034749
295.9060079
297.0735782
298.1490235
299.0780438
299.8188075
300.3488217
300.6670233
300.7910811
300.7518039
300.5867472
300.3346899
300.0316377
299.7084159
299.3895225
299.0928835
298.8301929
298.6076291
298.4268007
298.2858233
298.1804298
298.105023
298.0535785
298.0203349
298.0002405
297.9891721
297.983967
297.9823339
297.9827036
297.984061
297.9857896
297.9875437
297.9891511
297.9905436
297.9917122
297.9926821
297.9934989
297.9942201
297.994915
297.995664
297.9961239
297.9980833
299.2417906
295.5818274
289.7748328
286.8494726
286.8713391
287.1352307
287.4720461
287.8068012
288.2165618
288.6823291
289.2225313
289.8433204
290.5522503
291.3557495
292.2555675
293.2486402
294.3232973
295.4573527
296.6161759
297.7534272
298.8151017
299.7470287
300.5039453
301.0571431
301.3981317
301.537746
301.5017257
301.3248474
301.0452763
300.7001661
300.3227318
299.9406328
299.5753201
299.242043
298.9502819
298.7044627
298.5048559
298.3485835
298.2306561
298.1449542
298.0850703
298.0449488
298.0192992
298.0037929
297.9950846
297.9907191
297.9889821
297.9887322
297.9892458
297.9900889
297.9910178
297.9919077
297.9927057
297.9934032
297.9940198
297.994593
297.995181
297.9958547
297.9962535
297.9981791
299.85715
295.8755216
290.4187081
288.2520857
288.4409559
288.7185007
289.0780861
289.4481223
289.8935
290.4008831
290.9848924
291.6520566
292.4075433
293.2549194
294.1916917
295.2089164
296.2877154
297.397979
298.4980909
299.53784
300.4644737
301.2308951
301.803491
302.1670409
302.3254079
302.2985539
302.1174082
301.8183966
301.4387779
301.0133033
300.572154
300.1399024
299.7351868
299.370862
299.0544665
298.7889089
298.573312
298.4039546
298.2752411
298.1806201
298.1133715
298.0672034
298.036634
298.0171691
298.0053144
297.9984787
297.9948253
297.9931045
297.9925
297.9925001
297.9927977
297.9932174
297.9936669
297.9941067
297.9945328
297.9949641
297.9954492
297.9960493
297.9963886
297.9982796
300.4976786
296.2324237
291.1178714
289.7849121
290.0926114
290.3857007
290.7691779
291.1744743
291.6547476
292.2020268
292.8271835
293.536212
294.3314091
295.2124976
296.1717525
297.1935297
298.251551
299.3087955
300.3191841
301.2323953
302.000943
302.5877571
302.9718396
303.150373
303.1371356
302.9583858
302.6477788
302.2416577
301.7753967
301.2809577
300.785484
300.3106603
299.87259
299.4820172
299.1447913
298.8625134
298.6333254
298.4527913
298.3148078
298.2124672
298.1387966
298.0873159
298.0523914
298.0293973
298.0147183
298.0056511
298.0002558
297.9971905
297.9955584
297.9947796
297.994491
297.994472
297.9945945
297.9947913
297.9950366
297.9953324
297.995719
297.9962473
297.9965287
297.9983843
301.1463187
296.7291829
292.350877
291.4305267
291.8098015
292.1227644
292.5312142
292.9718853
293.4867145
294.0722452
294.7356281
295.4811525
296.3075051
297.2094854
298.1733519
299.1765638
300.1862828
301.1607593
302.0528115
302.8158076
303.4106348
303.8116851
304.0100449
304.0132663
303.8423594
303.5273489
303.1027016
302.6035017
302.0626932
301.5093425
300.9677021
300.4568303
299.9905835
299.5778632
299.2230572
298.9266428
298.6859236
298.4958579
298.3499175
298.2409019
298.161635
298.1054885
298.0667101
298.0405705
298.0233571
298.0122747
298.0052973
298.001004
297.9984284
297.9969309
297.9960988
297.9956711
297.9954876
297.9954558
297.9955299
297.9956968
297.9959895
297.9964481
297.9966722
297.9984934
301.8617452
297.383918
293.7466103
293.1631672
293.584686
293.9226632
294.3573752
294.8337181
295.3827743
296.0041131
296.7010732
297.4750233
298.3202752
299.2260627
300.1725068
301.1309289
302.0637857
302.927525
303.6773273
304.2733325
304.6865577
304.9028234
304.923708
304.7646876
304.4514871
304.0158528
303.4917044
302.9121563
302.3074971
301.7039757
301.123185
300.5818406
300.0918294
299.6604532
299.2908383
298.9824959
298.7320126
298.5338326
298.3810721
298.2662907
298.1821503
298.1219075
298.0797193
298.0507764
298.0312892
298.0183876
298.0099736
298.0045593
298.0011181
297.9989581
297.9976227
297.9968149
297.9963455
297.9960992
297.9960117
297.9960564
297.99626
297.9966504
297.9968155
297.9986075
302.6788925
298.4716957
295.2513322
294.9783082
295.4210329
295.7899224
296.2510771
296.7612826
297.341541
297.9927335
298.7142871
299.5037937
300.3507951
301.238918
302.1427609
303.0290343
303.857945
304.5871978
305.177262
305.5969868
305.8279029
305.866113
305.7215451
305.4151812
304.9753462
304.4339967
303.8236318
303.1750416
302.5158518
301.8696815
301.2557323
300.6886575
300.1786294
299.731565
299.3495017
299.0311183
298.7723865
298.5673134
298.408717
298.2889611
298.2005797
298.1367422
298.0915378
298.0600968
298.0385697
298.0240259
298.0143078
298.0078707
298.0036359
298.0008658
297.9990649
297.997904
297.9971679
297.9967207
297.9964811
297.9964103
297.9965298
297.9968524
297.9969616
297.9987272
303.5724061
299.6073628
296.917194
296.8784273
297.3289543
297.729378
298.213742
298.7517642
299.3557385
300.0262852
300.75885
301.5467626
302.3747433
303.2212662
304.0565937
304.8448623
305.5466781
306.1237121
306.5437298
306.7850012
306.8388487
306.7098628
306.4140741
305.9758554
305.4245092
304.7911818
304.1064624
303.3987124
302.6930245
302.01063
301.3686145
300.7798306
300.2529635
299.7927313
299.4002297
299.0734181
298.8077386
298.5968251
298.4332456
298.3092043
298.217136
298.1501456
298.1022739
298.0686071
298.0452499
298.0292239
298.0183224
298.0109523
298.0059902
298.0026587
298.0004276
297.9989391
297.9979548
297.9973197
297.9969371
297.9967577
297.996798
297.9970527
297.9971078
297.9988515
304.5675818
300.7197983
298.7173568
298.8513324
299.3028956
299.7303915
300.2324528
300.7897184
301.4071398
302.0838467
302.8112283
303.5781652
304.3648945
305.1457185
305.8882622
306.5563995
307.1136043
307.5275115
307.7741301
307.8408089
307.7272298
307.4444587
307.0125805
306.4576772
305.808885
305.095921
304.3472555
303.588881
302.8435615
302.1304013
301.4646327
300.8575436
300.31653
299.8452709
299.4440436
299.1101832
298.8386733
298.6228278
298.4550047
298.3272788
298.2320092
298.1622554
298.1120258
298.076376
298.0513773
298.0340137
298.0220382
298.0138174
298.0081893
298.0043414
298.0017132
297.9999213
297.9987062
297.9978957
297.9973791
297.9970979
297.9970636
297.9972497
297.997259
297.9989778
305.6929451
301.9322206
300.6222978
300.8745
301.3254614
301.7736702
302.2868923
302.8537295
303.4728116
304.1408836
304.8454051
305.5710596
306.2944286
306.9871138
307.6160983
308.1472145
308.5487172
308.7952961
308.8711747
308.7717043
308.5031836
308.0812372
307.5283178
306.8709845
306.1374719
305.3557526
304.552158
303.7504674
302.9713532
302.2320492
301.5461745
300.9236599
300.3707822
299.8903156
299.4818236
299.1420957
298.8657163
298.6457238
298.4742992
298.3434131
298.2453683
298.1731948
298.1208819
298.0834661
298.0569952
298.0384247
298.0254751
298.016479
298.0102412
298.0059187
298.0029242
298.0008515
297.9994222
297.9984484
297.9978064
297.9974303
297.9973257
297.9974425
297.9974186
297.9991032
306.9223954
303.4345096
302.6044505
302.9318138
303.3794537
303.8405576
304.3566385
304.9216397
305.5288269
306.172026
306.835149
307.4993757
308.1388548
308.724207
309.2237129
309.6069361
309.8480525
309.9290122
309.8414984
309.5874094
309.1779217
308.6315824
307.9719329
307.2251788
306.4182364
305.5772296
304.7264495
303.8876664
303.079704
302.3181646
301.6152675
300.9797653
300.4169606
299.9288358
299.5143276
299.1697458
298.8893249
298.6658648
298.491397
298.357809
298.2573636
298.1830743
298.1289221
298.0899343
298.0621436
298.0424844
298.0286514
298.0189489
298.0121534
298.0073952
298.0040632
298.001731
298.0001031
297.9989773
297.9982184
297.9977543
297.9975832
297.9976305
297.997586
297.999223
308.222678
305.0840496
304.6342741
305.0071007
305.4466817
305.9111907
306.4200674
306.9702724
307.5506638
308.152067
308.7555048
309.3396962
309.8777924
310.3411133
310.7008143
310.9313101
311.0130567
310.9347814
310.694457
310.2989979
309.7629208
309.1064124
308.3532053
307.5286445
306.6581402
305.7660018
304.874643
304.0040469
303.1714198
302.3909481
301.6736367
301.0272135
300.4561282
299.9616665
299.5422106
299.1936456
298.9098976
298.6835585
298.5065338
298.3706451
298.2681286
298.1919922
298.1362181
298.095832
298.0668587
298.046218
298.0315843
298.0212387
298.0139332
298.0087752
298.0051326
298.0025608
298.0007492
297.9994823
297.9986146
297.9980691
297.9978349
297.9978133
297.9977598
297.9993419
309.591359
306.8452134
306.6854896
307.0801391
307.5072219
307.96414
308.4543827
308.9759297
309.5141665
310.0572885
310.584347
311.0728143
311.496241
311.8280235
312.0432289
312.1215717
312.049521
311.8216773
311.4409983
310.9180121
310.2693333
309.5158547
308.6809206
307.7887482
306.8632081
305.92691
305.0005827
304.1026397
303.2488825
302.45227
301.7227524
301.0671619
300.4891975
299.9895274
299.5660399
299.2142409
298.9277828
298.6990755
298.5199177
298.3820796
298.2777823
298.2000371
298.1428347
298.1012058
298.0711736
298.0496485
298.0342896
298.0233588
298.0155876
298.0100631
298.0061349
298.0033423
298.001361
297.9999631
297.9989945
297.9983743
297.9980798
297.9979907
297.9979395
297.9994574
311.021176
308.6841025
308.7362525
309.1313235
309.5392122
309.9765056
310.4357413
310.9147086
311.3961961
311.8663812
312.3033341
312.6844355
312.9847827
313.1807889
313.251915
313.1830765
312.9660857
312.6003406
312.0925433
311.4556682
310.7074944
309.8689905
308.9627764
308.0118415
307.0385792
306.0640566
305.1075152
304.1860029
303.3141043
302.5037144
301.7638641
301.1005985
300.5169512
300.0130389
299.5863065
299.2319193
298.9432849
298.7126531
298.5317319
298.3922527
298.2864306
298.2072878
298.1488299
298.106098
298.0751185
298.0527973
298.036782
298.0253191
298.0171229
298.0112629
298.0070724
298.0040766
298.0019387
298.0004197
297.999358
297.9986692
297.9983167
297.9981628
297.998124
297.9995686
312.4918665
310.566258
310.766619
311.1356018
311.5168198
311.9230369
312.3395998
312.7635618
313.1759757
313.5617017
313.8987739
314.1654651
314.33924
314.4000241
314.3316905
314.123885
313.7729026
313.2818746
312.6601833
311.9223462
311.0866516
310.173754
309.2053872
308.2033218
307.1885909
306.1808915
305.1981686
304.2562882
303.3687829
302.5466234
301.7980355
301.1283686
300.5400625
300.0327375
299.6034373
299.2470194
298.9566711
298.7245004
298.5421389
298.4012891
298.2941683
298.2138154
298.1542562
298.1105469
298.0787211
298.0556839
298.0390751
298.0271291
298.0185454
298.0123786
298.0079476
298.0047651
298.0024829
298.000852
297.9997047
297.9989533
297.9985445
297.9983298
297.9983123
297.9996733
313.9588862
312.452287
312.7257193
313.0690047
313.4157995
313.7810048
314.1450421
314.5039833
314.8380188
315.131425
315.36302
315.5127003
315.5607608
315.4907414
315.2906144
314.9540915
314.481065
313.8774601
313.1544936
312.3275712
311.4150626
310.4370944
309.4144694
308.3678129
307.3169399
306.2803493
305.2748639
304.3153303
303.4143706
302.5821499
301.8261851
301.1512062
300.5591189
300.0490935
299.6178086
299.2598409
298.9681786
298.7348041
298.551284
298.409301
298.3010808
298.2196844
298.1591618
298.1145878
298.0820069
298.0583265
298.0411818
298.0287975
298.0198611
298.013414
298.0087628
298.005409
298.0029942
298.0012602
298.0000345
297.9992259
297.9987621
297.9984921
297.998503
297.9997687
315.4224074
314.3080388
314.6000566
314.9101409
315.2158591
315.5317848
315.8355321
316.1221744
316.3718317
316.5688394
316.6933891
316.7274225
316.654192
316.4606601
316.1383975
315.6844678
315.101556
314.3976153
313.5850658
312.6797563
311.6998832
310.6649522
309.5948648
308.5092096
307.4267322
306.3648944
305.3395535
304.3646775
303.4520987
302.6112768
301.8491003
301.1697442
300.57463
300.0625174
299.6297501
299.2706479
298.9780178
298.7437304
298.5592974
298.4163892
298.3072455
298.2249535
298.1635905
298.1182532
298.0849996
298.0607423
298.0431142
298.0303328
298.0210756
298.0143729
298.0095204
298.0060098
298.0034732
298.0016444
298.0003474
297.9994862
297.9989687
297.9986505
297.9986929
297.9998521
316.8654029
316.093803
316.3694914
316.64134
316.9002973
317.1606372
317.3987879
317.6089052
317.7716291
317.871808
317.8913337
317.814335
317.6269013
317.319055
316.8854023
316.32569
315.6447232
314.8518962
313.9603876
312.9862069
311.9472448
310.8623743
309.7506679
308.6308005
307.5205928
306.4366164
305.3939008
304.4056567
303.4830294
302.6348576
301.8674698
301.1845396
300.587047
300.0733744
299.6395568
299.2796775
298.9863781
298.7514293
298.566297
298.4226456
298.3127331
298.2296763
298.1675828
298.1215731
298.0877214
298.0629472
298.0448836
298.031743
298.0221945
298.015259
298.0102229
298.0065688
298.0039205
298.002005
298.0006434
297.9997335
297.9991641
297.9988055
297.9988766
297.9999246
318.2718665
317.7778807
318.0177582
318.2474916
318.4561774
318.6573771
318.8275697
318.96014
319.0366562
319.0427567
318.9621467
318.7810883
318.4882475
318.0762827
317.5422969
316.8881492
316.1202373
315.2489699
314.2879885
313.2532998
312.1624394
311.0336845
309.8853718
308.7353873
307.6007595
306.4973016
305.4393337
304.4394129
303.5080848
302.6536381
301.8818989
301.1960849
300.596771
300.0819907
299.6474931
299.287143
298.9934306
298.758037
298.5723903
298.4281539
298.3176084
298.2339024
298.171176
298.1245756
298.0901928
298.0649564
298.046501
298.0330358
298.0232232
298.0160761
298.0108725
298.0070875
298.0043371
298.0023423
298.0009225
297.9999673
297.9993481
297.9989572
297.9990497
297.9999989
319.6234727
319.336889
319.5325356
319.7178502
319.8751073
320.0163867
320.1191352
320.1760863
320.1699353
320.087225
319.9134389
319.6368132
319.2482774
318.7427112
318.1192435
317.3813874
316.5367381
315.5964234
314.5743625
313.4864787
312.3499562
311.1825393
310.0019304
308.8253436
307.6691366
306.5484784
305.4770825
304.4669405
303.528072
302.6682766
301.8929259
301.2048212
300.6041633
300.0886616
299.6537997
299.2932392
298.9993318
298.7636786
298.577676
298.4329917
298.3219315
298.237678
298.1744053
298.127287
298.0924335
298.0667842
298.0479769
298.0342188
298.024167
298.0168276
298.0114718
298.0075675
298.0047237
298.0026569
298.0011847
298.0001869
297.9995208
297.9991049
297.9992142
298.0000652
320.9040156
320.7543946
320.9051354
321.0458185
321.1530233
321.236434
321.2749021
321.2606148
321.1774777
321.0129738
320.7542623
320.3913528
319.9171237
319.3283046
318.6256626
317.814011
316.9018592
315.9008583
314.8251002
313.6903981
312.5136194
311.3120518
310.1028623
308.9027011
307.7273631
306.5914719
305.5082223
304.4891158
303.5437086
302.6793625
301.9010367
301.2111493
300.609554
300.0936585
299.6586982
299.2981466
299.0042276
298.7684706
298.5822469
298.4372319
298.3257592
298.2410471
298.1773043
298.1297326
298.0944625
298.0684447
298.0493216
298.0352993
298.0250312
298.0175175
298.0120233
298.0080104
298.0050814
298.0029495
298.0014301
298.0003922
297.9996826
297.9992472
297.9993636
298.000126
322.0996972
322.020177
322.1321133
322.2306501
322.2913438
322.3210229
322.3001852
322.2206226
322.0674857
321.8291819
321.4943931
321.0546836
320.5045854
319.842361
319.0701062
318.1936714
317.2222819
316.1679898
315.0450067
313.8690433
312.656702
311.4248915
310.1903361
308.9692202
307.77687
306.627449
305.5337087
304.5067248
303.5556439
302.6874341
301.906678
301.2154398
300.6132501
300.0972345
299.6623966
299.3020345
299.0082549
298.7725233
298.5861906
298.4409437
298.3291457
298.2440515
298.1799051
298.131937
298.0962983
298.0699517
298.0505451
298.0362848
298.0258211
298.0181495
298.0125296
298.0084178
298.0054113
298.0032208
298.001659
298.0005829
297.9998334
297.9993824
297.9995016
298.0001848
323.2012179
323.1385496
323.2178473
323.2776412
323.2960437
323.2770348
323.2027883
323.0647585
322.849263
322.5455503
322.1436316
321.6364056
321.0197936
320.2933282
319.460194
318.5270854
317.5038102
316.4027479
315.2382122
314.0258382
312.7820208
311.5233651
310.2662378
309.0264441
307.8189231
306.657452
305.5544037
304.5204835
303.5644749
302.6929899
301.9102664
301.2180403
300.6155406
300.0996289
299.6650916
299.3050638
299.0115443
298.7759416
298.589591
298.4441934
298.3321429
298.2467316
298.1822388
298.1339239
298.0979586
298.0713186
298.0516575
298.0371827
298.0265421
298.0187273
298.0129935
298.0087917
298.0057147
298.0034716
298.0018714
298.000759
297.9999732
297.9995099
297.999631
298.0002372
324.1703478
324.1202071
324.1699983
324.1949096
324.1756818
324.1135542
323.9922592
323.8029132