/*--------------------------------*- C++ -*----------------------------------*\
  =========                 |
  \\      /  F ield         | OpenFOAM: The Open Source CFD Toolbox
   \\    /   O peration     | Website:  https://openfoam.org
    \\  /    A nd           | Version:  12
     \\/     M anipulation  |
\*---------------------------------------------------------------------------*/
FoamFile
{
    format      ascii;
    class       volVectorField;
    location    "950";
    object      U;
}
// * * * * * * * * * * * * * * * * * * * * * * * * * * * * * * * * * * * * * //

dimensions      [0 1 -1 0 0 0 0];

internalField   nonuniform List<vector> 
16200
(
(184.0324563 -7.288621444e-17 -1.499734315)
(219.4658954 3.518174528e-17 -1.425984412)
(239.4034925 -2.443141416e-20 -1.600739798)
(255.1006158 0 -1.773288231)
(269.6513633 0 -1.962437655)
(284.7441354 -2.522748014e-17 -2.191100067)
(300.5106842 2.884975104e-17 -2.510063384)
(313.1156329 6.222498996e-17 -2.890437796)
(316.8648606 -1.210923554e-16 -3.019699009)
(316.8596052 1.08399514e-16 -2.995834622)
(316.5449952 -4.614416414e-17 -3.051855513)
(316.2461438 0 -3.029771934)
(315.877351 0 -3.092062537)
(315.4711319 -5.363673932e-17 -3.094070056)
(314.9928204 4.47669917e-17 -3.152644652)
(314.444745 0 -3.184443819)
(313.8051248 0 -3.249004193)
(313.0625498 8.196358595e-19 -3.310880436)
(312.1966707 4.441233611e-17 -3.394861053)
(311.1879688 -3.606349149e-17 -3.489884466)
(310.0126507 0 -3.605326326)
(308.6449177 -2.49068184e-17 -3.739123728)
(307.0562063 2.228800946e-17 -3.894186005)
(305.2161481 3.793584491e-17 -4.069170296)
(303.0937092 -3.186847925e-17 -4.261642026)
(300.6594186 -2.725758047e-17 -4.464894099)
(297.8890695 2.291780264e-17 -4.667179528)
(294.7693085 0 -4.84986679)
(291.3053789 0 -4.986774571)
(287.5303058 5.734220634e-17 -5.045311484)
(283.5130071 -3.613814531e-17 -4.991278376)
(279.3604089 -1.040307655e-17 -4.797990347)
(275.2086966 0 -4.457223619)
(271.2036397 -4.589565506e-17 -3.986257954)
(267.4766964 5.15252775e-17 -3.426058416)
(264.1262164 -8.877802993e-17 -2.830756589)
(261.2091964 7.484867963e-17 -2.253569379)
(258.7430201 0 -1.73533721)
(256.7130763 0 -1.299221279)
(255.0823907 0 -0.9515241982)
(253.8008726 7.750720503e-17 -0.6862792155)
(252.8132034 -1.309843131e-16 -0.4908210283)
(252.064796 1.102185856e-16 -0.3504201394)
(251.5057914 0 -0.2512472149)
(251.093178 1.567647035e-16 -0.1817863288)
(250.7915177 -1.319021714e-16 -0.1331846244)
(250.572601 -4.912907927e-20 -0.09898326911)
(250.4146165 1.871112838e-16 -0.0746500884)
(250.3010595 -3.153117828e-16 -0.05708121263)
(250.2196614 2.655784809e-16 -0.04417900603)
(250.1614139 2.238934992e-16 -0.0345315498)
(250.1197584 3.77741109e-16 -0.0271850424)
(250.0899442 -3.188299819e-16 -0.02148733077)
(250.0685049 8.082212661e-16 -0.01699158379)
(250.052946 -4.557866389e-16 -0.01338989627)
(250.041329 0 -0.01047090549)
(250.0325866 1.638506978e-16 -0.008036989661)
(250.0254791 0 -0.005994789716)
(250.0196971 -4.753435748e-16 -0.003641080353)
(250.0130449 -3.971170405e-19 -0.003800401137)
(188.1690226 -1.538863971e-16 -4.160275411)
(224.7180275 1.505242234e-16 -4.419582381)
(245.2371893 -5.445792777e-17 -4.915560292)
(261.388133 -4.887427929e-17 -5.305960598)
(276.4456583 5.047658973e-17 -5.698803191)
(292.1252768 0 -6.143662764)
(307.9453916 0 -6.706604839)
(318.171341 6.697208728e-17 -7.140175688)
(320.1450066 -6.255674839e-17 -7.227338761)
(319.9980505 0 -7.191202267)
(319.6638624 0 -7.260103228)
(319.343214 0 -7.228342039)
(318.9475759 -6.64074577e-17 -7.295664876)
(318.5101594 5.541055437e-17 -7.291748575)
(317.9930661 -1.420523434e-18 -7.349532969)
(317.3984378 -1.190395909e-18 -7.376009757)
(316.7023612 0 -7.434902638)
(315.8917672 -2.525541524e-18 -7.488232077)
(314.9440878 0 -7.560708289)
(313.8373154 1.176870724e-18 -7.640500784)
(312.5449131 4.006214295e-18 -7.735785149)
(311.0380423 -2.893796681e-17 -7.843474585)
(309.2850046 -1.746335332e-17 -7.964631447)
(307.252361 3.866292868e-17 -8.095762766)
(304.906557 0 -8.231242056)
(302.2169748 6.968696896e-18 -8.360090338)
(299.1609905 -1.185722698e-17 -8.464806835)
(295.7313964 0 -8.519652041)
(291.9461498 -3.47189077e-17 -8.490578396)
(287.8587085 1.448987334e-17 -8.338049046)
(283.5644052 -3.782135477e-17 -8.024761655)
(279.1963921 1.077156098e-17 -7.52797275)
(274.9080507 -3.691824083e-17 -6.851690762)
(270.8468889 -1.573824741e-17 -6.031538622)
(267.130758 0 -5.128320087)
(263.8351035 4.598662266e-17 -4.213030366)
(260.9927072 -3.876372825e-17 -3.350353212)
(258.6014901 0 -2.586976715)
(256.6348085 1.121460341e-16 -1.947317485)
(255.0507503 -9.487174239e-17 -1.435667785)
(253.7994379 8.01668524e-17 -1.041973089)
(252.8285324 2.706412183e-16 -0.748380514)
(252.0873159 -1.138789876e-16 -0.5346583222)
(251.5294847 0 -0.3817410372)
(251.1147814 4.852943993e-16 -0.2735025642)
(250.8096268 -5.443872659e-16 -0.1972698716)
(250.5869379 -3.435589745e-16 -0.143567086)
(250.4254874 3.854177095e-16 -0.1055636061)
(250.3090169 0 -0.07845650755)
(250.2253044 -2.727933902e-16 -0.05891881885)
(250.1652926 2.295343251e-16 -0.04466371697)
(250.1223369 5.796258029e-16 -0.03412126138)
(250.0915916 3.253725921e-16 -0.02620859966)
(250.0695176 -2.74068884e-16 -0.02017735524)
(250.0535188 9.239811669e-16 -0.01551393305)
(250.0416575 -7.793028181e-16 -0.01185809814)
(250.0326835 -4.933753934e-16 -0.008926835929)
(250.0255143 5.558573949e-16 -0.006569012969)
(250.0196487 1.058118896e-15 -0.003929264531)
(250.0125424 9.803952984e-17 -0.003936650914)
(192.1824151 -1.589894804e-19 -6.917155869)
(229.838632 1.616516207e-16 -7.678505433)
(250.9322884 -2.364404281e-16 -8.483060947)
(267.557274 1.076040501e-16 -9.118528595)
(283.1561879 1.130438916e-16 -9.747280696)
(299.3142921 -2.555911821e-16 -10.44471891)
(314.6901965 2.832699625e-16 -11.25802341)
(322.0753293 3.681745123e-19 -11.65781935)
(322.8022647 -2.637741617e-16 -11.72590571)
(322.5518148 1.147933767e-16 -11.67247241)
(322.1979366 0 -11.74958649)
(321.8509714 7.868841303e-17 -11.70312643)
(321.4202145 -6.559445509e-17 -11.77003758)
(320.9423155 -2.611040443e-18 -11.75576611)
(320.3761223 4.820804607e-17 -11.80671642)
(319.7233251 3.766415669e-18 -11.8230891)
(318.9578597 -3.280360709e-17 -11.8709158)
(318.0647262 1.733015025e-18 -11.91138164)
(317.0189569 -4.654643192e-17 -11.96832045)
(315.7957379 3.657053428e-17 -12.02970309)
(314.3654488 -2.594787013e-20 -12.10201377)
(312.6958243 -2.100234633e-17 -12.18086623)
(310.7516851 1.755768747e-17 -12.26472475)
(308.4964193 0 -12.3469286)
(305.8944576 -4.247500304e-17 -12.41714514)
(302.9156548 7.008356667e-18 -12.45813004)
(299.5422097 3.689166293e-17 -12.4443443)
(295.778323 2.131468728e-17 -12.34079028)
(291.6618977 1.840383386e-17 -12.10437652)
(287.2746736 -1.485909572e-17 -11.68981057)
(282.743763 1.929339205e-19 -11.06151449)
(278.2281415 -4.479901046e-17 -10.20872179)
(273.8915476 3.815776967e-17 -9.156164801)
(269.8727503 -9.826398209e-17 -7.96328321)
(266.2659508 2.766946485e-17 -6.711362162)
(263.1167641 0 -5.484744124)
(260.4303472 -8.070331793e-17 -4.354032447)
(258.1842616 -6.855594908e-17 -3.366293854)
(256.3401763 -1.609984939e-20 -2.543090237)
(254.8520375 4.907221061e-17 -1.884338747)
(253.671088 -8.259027176e-17 -1.375052735)
(252.7489751 -6.973089814e-17 -0.9923710888)
(252.0399291 2.351335798e-16 -0.7112529472)
(251.5023444 2.971632159e-16 -0.5082234201)
(251.0998357 -1.665659587e-16 -0.3632923769)
(250.8017124 2.803240227e-16 -0.2605415563)
(250.5828999 5.8910126e-16 -0.187879708)
(250.4234832 -3.961236126e-16 -0.1364366192)
(250.3080193 6.657264496e-16 -0.0998652755)
(250.2247686 -2.796795348e-16 -0.07369634285)
(250.1649477 -4.699007123e-16 -0.05481322916)
(250.12206 1.973310485e-16 -0.04105130355)
(250.0913372 -6.63053327e-16 -0.0309054767)
(250.0692794 0 -0.02332927975)
(250.0533003 -1.871153679e-15 -0.01760018504)
(250.0414848 7.858370567e-16 -0.01321065433)
(250.0325232 3.300421837e-16 -0.009785626976)
(250.0254197 -1.386141755e-16 -0.007111604633)
(250.0196554 -9.315524832e-16 -0.004150814531)
(250.0125691 0 -0.004069027367)
(195.8881021 -3.438640254e-16 -9.800369407)
(234.5265984 -1.695041139e-19 -11.17043573)
(256.1358586 0 -12.27706578)
(273.2679964 1.162280728e-19 -13.17961961)
(289.4796819 -1.271479355e-16 -14.0698757)
(305.9639458 1.434088481e-16 -15.04325083)
(319.9225667 -3.015588951e-19 -16.02648135)
(324.6296846 -5.98048756e-19 -16.30699197)
(324.7141448 1.064005744e-18 -16.37243521)
(324.4350035 1.157834483e-16 -16.29927951)
(324.0561848 -9.755577531e-17 -16.38660874)
(323.6788449 1.277544903e-18 -16.32775132)
(323.2090466 -6.81097204e-17 -16.39549281)
(322.6855829 5.866913779e-17 -16.37396943)
(322.0640577 4.776713671e-17 -16.42013901)
(321.3452537 -4.247423737e-17 -16.42946246)
(320.5008069 -4.192297102e-18 -16.46853101)
(319.5134017 0 -16.49831581)
(318.3554124 0 -16.5408321)
(316.9989013 0 -16.58370604)
(315.4109142 -3.819731103e-17 -16.6311806)
(313.5556296 1.418339043e-17 -16.67711859)
(311.3945862 3.64209229e-17 -16.71666879)
(308.8888627 -2.042145362e-17 -16.73888843)
(306.0028105 2.61729812e-17 -16.7272143)
(302.7101669 1.483196395e-17 -16.6564009)
(299.0031819 -2.545698718e-17 -16.49133126)
(294.9046187 2.14165008e-17 -16.18700532)
(290.4804508 -1.843079961e-17 -15.69249983)
(285.8468082 -3.021676195e-19 -14.96129811)
(281.1625801 2.682556281e-17 -13.96740039)
(276.6045475 4.621810355e-17 -12.72068744)
(272.333385 0 -11.27240999)
(268.4657345 6.750921339e-17 -9.706568374)
(265.0631724 0 -8.12119586)
(262.1380937 0 -6.6080631)
(259.6688176 2.082787554e-16 -5.237862653)
(257.6153169 3.518177592e-17 -4.053607273)
(255.9306256 2.392261833e-16 -3.07130888)
(254.567056 5.057749293e-17 -2.285324276)
(253.4787773 5.543853285e-16 -1.675624118)
(252.6226988 -2.156721077e-16 -1.214862855)
(251.9589595 -1.211532411e-16 -0.8739918918)
(251.4514477 -9.172064558e-16 -0.6259618387)
(251.0683373 -1.728772995e-19 -0.4476513317)
(250.7824245 7.201543759e-16 -0.3204756044)
(250.5711458 6.050722188e-16 -0.2301507588)
(250.4163054 -1.1176687e-15 -0.1660591995)
(250.3035916 -5.117221148e-16 -0.1205024465)
(250.2219845 2.862451109e-16 -0.08799147723)
(250.1631469 -1.200305605e-15 -0.06465580228)
(250.1208533 0 -0.04778204312)
(250.0904987 1.349439907e-15 -0.03547036846)
(250.0686798 1.130398414e-15 -0.02639264779)
(250.0528655 9.464186361e-16 -0.01962622722)
(250.0411786 0 -0.0145225051)
(250.0322887 6.621706249e-16 -0.01061455562)
(250.0252638 6.91550373e-17 -0.007642496571)
(250.0195939 -2.078036588e-15 -0.00438234391)
(250.0124335 3.174850306e-15 -0.004204257384)
(199.243014 -7.282857827e-16 -12.85829002)
(238.783376 3.733504617e-16 -14.85887742)
(260.8657854 -1.407752209e-16 -16.28691073)
(278.4873274 -6.501127937e-22 -17.47880476)
(295.3225583 0 -18.65632451)
(311.9948585 3.141012346e-19 -19.92670054)
(323.3653145 3.166685186e-21 -20.94017476)
(326.0801175 0 -21.0859572)
(325.9066819 -2.205421863e-18 -21.16780083)
(325.6062882 -1.184285673e-16 -21.07636961)
(325.1950803 9.948468998e-17 -21.17409193)
(324.7809758 0 -21.10445934)
(324.2648478 -7.174573267e-17 -21.17235656)
(323.6872619 -1.951092867e-18 -21.14447725)
(323.0007595 4.568204377e-17 -21.18464118)
(322.2047712 -8.204802644e-17 -21.18599686)
(321.2685857 7.301908669e-17 -21.21391515)
(320.1721903 3.61847308e-18 -21.23013879)
(318.8850341 0 -21.25426702)
(317.3757155 4.127956824e-17 -21.27369958)
(315.6077621 -4.332748681e-17 -21.28993192)
(313.5419349 3.687918231e-17 -21.29427542)
(311.1372496 -3.724489691e-17 -21.27722466)
(308.3541892 0 -21.22179794)
(305.1600291 -1.796049539e-17 -21.10332947)
(301.5370674 0 -20.88687936)
(297.4943132 2.633769394e-17 -20.52667816)
(293.0814393 -2.21596441e-17 -19.96823058)
(288.4000473 0 -19.15647663)
(283.6030234 0 -18.05135447)
(278.8748241 0 -16.64625161)
(274.3964026 0 -14.97957944)
(270.3097646 0 -13.1317522)
(266.6976418 1.054490626e-16 -11.2084378)
(263.5836689 -1.492294075e-16 -9.318215561)
(260.9473393 1.015562934e-16 -7.553520458)
(258.7435892 -1.717016495e-16 -5.979614534)
(256.919038 -1.82260034e-16 -4.631796283)
(255.4216979 -9.204318963e-17 -3.518583216)
(254.2047697 -1.558409649e-16 -2.628115656)
(253.2268938 -5.698915896e-16 -1.935509639)
(252.4511364 -2.955846971e-16 -1.409598606)
(251.8441041 4.357030337e-16 -1.018187351)
(251.3756054 8.373410993e-16 -0.7315212758)
(251.0187605 -7.038373974e-16 -0.524115599)
(250.750225 -7.389135296e-16 -0.3753391158)
(250.5502924 -8.683587625e-16 -0.2691827778)
(250.4027937 1.040707345e-15 -0.1936169495)
(250.2948062 1.221666007e-15 -0.1398222674)
(250.2162375 -1.462505966e-16 -0.1014437104)
(250.1593563 1.347168695e-15 -0.0739568281)
(250.1183289 -1.844913881e-15 -0.05416333556)
(250.0888013 -2.914295738e-15 -0.03980911893)
(250.06753 -1.002678147e-15 -0.02930976571)
(250.0520878 0 -0.02155815323)
(250.0406607 1.595117445e-15 -0.01577474481)
(250.0319384 -4.980878805e-16 -0.01140422218)
(250.0250373 -2.070572698e-16 -0.008148532657)
(250.0195071 1.832990997e-15 -0.004607307986)
(250.0123372 -3.034129301e-15 -0.004340707536)
(202.1263305 1.880962284e-19 -16.06585444)
(242.4976886 0 -18.72598105)
(265.0239318 1.504994001e-19 -20.49235794)
(283.1377564 -1.450470482e-19 -21.99726027)
(300.5485947 -3.144383296e-19 -23.48831647)
(317.0478851 0 -25.04503424)
(325.4622967 7.044967959e-19 -25.95255101)
(326.6973928 -1.303791917e-18 -25.98366929)
(326.3418983 1.132374988e-18 -26.08020572)
(326.0204119 -9.525967081e-19 -25.96914001)
(325.5716098 0 -26.07439601)
(325.1158751 8.498319324e-17 -25.99302208)
(324.5479973 -7.096681774e-17 -26.05670992)
(323.9094384 6.146574245e-17 -26.02033087)
(323.1498641 -4.985874957e-17 -26.05078665)
(322.2667104 5.246021892e-18 -26.04157577)
(321.2267635 0 -26.05515411)
(320.0068736 -6.325183901e-17 -26.05469547)
(318.5733727 4.991712847e-17 -26.05645022)
(316.8913456 -1.058592263e-17 -26.04692404)
(314.9211262 8.926865911e-18 -26.0236468)
(312.6209081 0 -25.97393533)
(309.9487874 0 -25.88205994)
(306.8673279 0 -25.7233915)
(303.3509219 0 -25.46369753)
(299.3966485 -6.374797476e-17 -25.05722333)
(295.038509 -3.876759146e-19 -24.44761437)
(290.3615076 -2.326172066e-17 -23.57380815)
(285.5072096 2.723320092e-19 -22.38381976)
(280.6610175 1.684602552e-17 -20.85447001)
(276.0196178 -2.930918626e-17 -19.00812773)
(271.7505811 1.247796142e-16 -16.91615467)
(267.9623672 -8.537048999e-17 -14.68599356)
(264.6959305 -7.221875763e-17 -12.43833095)
(261.9362577 1.228808609e-16 -10.28446036)
(259.6338671 -1.04345081e-16 -8.310935467)
(257.7259122 0 -6.573253932)
(256.1508674 -1.87977765e-16 -5.096706837)
(254.8556054 -2.853638805e-16 -3.881483395)
(253.7966607 1.068528576e-16 -2.909572251)
(252.9384571 1.060166766e-19 -2.151796366)
(252.2508114 2.655380946e-16 -1.573966246)
(251.7070283 -5.106366829e-16 -1.141606331)
(251.2829374 4.295408663e-16 -0.823081964)
(250.9566926 1.442635849e-15 -0.5912650065)
(250.7089231 1.514021583e-16 -0.4240650341)
(250.5229189 -1.269251399e-16 -0.3042002341)
(250.3846845 0 -0.2185626573)
(250.2828267 -1.604487725e-15 -0.1574490525)
(250.2083028 1.491922842e-16 -0.1138019008)
(250.1540893 2.246049054e-15 -0.08255300741)
(250.1148235 3.127521591e-15 -0.06009224882)
(250.0864632 4.176342503e-15 -0.04385919367)
(250.0659696 0 -0.03204435073)
(250.0510527 0 -0.02337634697)
(250.0399836 -1.60560551e-15 -0.01695775553)
(250.0314966 1.664866712e-16 -0.01215141086)
(250.0247512 -2.756070274e-16 -0.008629034104)
(250.0193803 -1.820461192e-15 -0.00482850641)
(250.0122008 -5.849501162e-18 -0.004474785333)
(204.4819443 -1.996207046e-19 -19.40465505)
(245.6563731 2.170619604e-16 -22.75031301)
(268.6281145 -3.389380474e-16 -24.87966981)
(287.2925853 1.653261433e-16 -26.72657585)
(305.2243867 3.526801503e-19 -28.56903158)
(320.6710571 1.924370216e-16 -30.31897849)
(326.3273746 -1.902730635e-16 -31.02180581)
(326.7865856 1.35006638e-18 -30.95645311)
(326.0512825 -1.470052413e-16 -31.05578594)
(325.7031184 1.240471716e-16 -30.9202111)
(325.2112757 -1.62204772e-18 -31.03024722)
(324.7067839 0 -30.94015712)
(324.0790852 -3.448733138e-21 -30.99959024)
(323.3695735 -3.812203774e-18 -30.95675834)
(322.5253568 3.194090478e-18 -30.97752822)
(321.5413287 3.230739584e-17 -30.95791741)
(320.3818396 -3.607547331e-17 -30.95551588)
(319.0204731 0 -30.93499)
(317.4206123 6.446493812e-18 -30.90818623)
(315.5441627 -3.27671665e-17 -30.85995778)
(313.3489486 3.659475557e-17 -30.78294655)
(310.7918417 1.565037961e-17 -30.65937952)
(307.8322104 0 -30.46604607)
(304.438382 -2.264214084e-17 -30.16920004)
(300.5975986 0 -29.72372037)
(296.3296636 -3.733225585e-19 -29.07261561)
(291.7024258 2.790863708e-17 -28.1510494)
(286.8422376 4.779499792e-17 -26.89777843)
(281.9288046 -4.095307295e-17 -25.27438796)
(277.1681523 0 -23.28561537)
(272.7508095 0 -20.989332)
(268.8134297 9.706911299e-19 -18.48914571)
(265.4202092 -7.018064362e-19 -15.91291586)
(262.5679087 3.752833164e-17 -13.38748784)
(260.2065441 -1.589973551e-16 -11.01903902)
(258.2640554 -2.697905285e-17 -8.882958406)
(256.6662673 2.052811814e-16 -7.022223108)
(255.3486284 -2.70661573e-16 -5.451165971)
(254.2602934 2.599937897e-16 -4.161736455)
(253.363062 2.751608957e-17 -3.130361758)
(252.6280078 -9.238354789e-17 -2.324362968)
(252.0319275 3.884784729e-17 -1.707370165)
(251.5547536 6.543178558e-17 -1.243443856)
(251.1781818 -9.33940675e-16 -0.8998129986)
(250.8852713 -7.380056063e-16 -0.6483483417)
(250.6605605 0 -0.4660284976)
(250.4903311 1.037981231e-15 -0.3347133162)
(250.3627993 0 -0.2405295607)
(250.2681611 0 -0.1731183764)
(250.1984892 0 -0.1248816772)
(250.1475293 -4.189629049e-15 -0.09031981869)
(250.1104433 -1.588523136e-15 -0.06548741151)
(250.0835435 -2.823015161e-15 -0.04756931985)
(250.0640301 -2.494822701e-15 -0.03456545858)
(250.0497755 -1.827704457e-15 -0.02506320147)
(250.0391547 0 -0.01806226054)
(250.0309658 0 -0.01285238482)
(250.0244085 1.376021681e-16 -0.00908040752)
(250.0192214 1.809387838e-15 -0.005040151451)
(250.0120505 -1.156412638e-17 -0.004606154147)
(206.276277 2.121726287e-19 -22.89383966)
(248.2576886 0 -26.90678682)
(271.7243319 1.822456077e-19 -29.44721759)
(291.0102277 -9.320676637e-22 -31.6681667)
(309.3414596 -2.00409286e-16 -33.90181655)
(322.5741974 2.090038967e-16 -35.64750125)
(325.9861456 0 -36.09801747)
(325.4878207 0 -35.95912726)
(325.0689158 1.50321708e-16 -36.08415727)
(324.6862152 2.080968238e-19 -35.9357444)
(324.1437143 -1.057539246e-16 -36.04817337)
(323.5813121 0 -35.94944619)
(322.8838722 2.317907257e-18 -36.00091501)
(322.0917365 6.631842484e-17 -35.94926409)
(321.149933 -5.554849169e-17 -35.95523114)
(320.0503473 5.495794884e-18 -35.91930105)
(318.7550131 -4.654453479e-18 -35.89270683)
(317.2341466 7.852818901e-18 -35.84169707)
(315.4483261 -5.298227321e-17 -35.77305881)
(313.3566607 -3.840843619e-19 -35.66928963)
(310.9154182 8.521804793e-17 -35.51713862)
(308.0821039 -4.793423747e-17 -35.29222927)
(304.8208157 0 -34.96215144)
(301.111071 -2.824762704e-19 -34.48241239)
(296.9605286 1.969775728e-17 -33.79630299)
(292.4205951 3.376517127e-17 -32.8371256)
(287.6001746 0 -31.53708705)
(282.6675507 0 -29.84482154)
(277.8308901 -2.151052786e-17 -27.7474249)
(273.2986361 1.812578705e-17 -25.28614227)
(269.2354327 0 -22.55554909)
(265.7331746 -1.329291119e-16 -19.68546883)
(262.8070444 1.357687397e-16 -16.81450755)
(260.4124884 -1.919374463e-17 -14.06640218)
(258.4714288 -6.76101704e-19 -11.5356777)
(256.896797 -2.218558565e-16 -9.283110571)
(255.6094308 -4.446610114e-16 -7.338037088)
(254.5462181 4.137356669e-16 -5.704045734)
(253.6612883 -3.328294347e-17 -4.365635761)
(252.923037 0 -3.294610312)
(252.3096159 -4.733518165e-17 -2.455692615)
(251.8047205 -5.971279387e-16 -1.811150998)
(251.3946091 0 -1.324309243)
(251.0665025 0 -0.9618962093)
(250.8080783 -7.541422597e-16 -0.6953251239)
(250.6075848 0 -0.5010937765)
(250.454179 -9.265579937e-16 -0.3605626692)
(250.3382364 1.661754472e-15 -0.2593702615)
(250.251531 -9.261844927e-17 -0.1867089437)
(250.1872644 -2.397536054e-15 -0.1345904129)
(250.1399751 2.19315062e-15 -0.09719041423)
(250.1053758 -3.54595439e-15 -0.07030289148)
(250.0801575 0 -0.05090940512)
(250.0617805 2.373404766e-15 -0.03685438207)
(250.0482959 5.89773028e-15 -0.02660781753)
(250.0381959 0 -0.01908241706)
(250.0303557 1.673177677e-16 -0.01350500028)
(250.024014 -1.374306833e-16 -0.009502517006)
(250.0190299 1.799635741e-15 -0.005242969367)
(250.0118763 5.871412453e-15 -0.004735161593)
(207.4920965 -9.220655562e-16 -26.49181821)
(250.2832559 2.545159823e-16 -31.18571443)
(274.3470359 -2.008626259e-19 -34.18413178)
(294.2845792 4.024459343e-19 -36.81688079)
(312.6487562 4.278070646e-19 -39.44240632)
(323.1414551 -2.210706721e-16 -40.94912929)
(324.2128443 2.058568305e-16 -41.19399146)
(323.9488691 0 -41.02215913)
(323.4209547 1.534490321e-16 -41.1749856)
(322.9944882 2.376922053e-19 -41.00524741)
(322.3955385 -1.063351196e-16 -41.11345312)
(321.7675967 0 -41.0029757)
(320.9920791 2.384081615e-18 -41.03918526)
(320.1070931 0 -40.97283476)
(319.0560017 -2.421069251e-20 -40.95585023)
(317.8271381 0 -40.8947022)
(316.3802492 -3.822666885e-17 -40.83302189)
(314.6821352 -1.523558627e-19 -40.73828701)
(312.6909426 2.028728368e-17 -40.6112922)
(310.363959 4.620777119e-17 -40.43081577)
(307.6578533 -4.849088177e-17 -40.17613714)
(304.5341079 -1.669147633e-17 -39.81444379)
(300.9665957 -2.840647946e-17 -39.30267624)
(296.9529607 2.387257874e-17 -38.58495823)
(292.5296931 2.073022369e-17 -37.59421733)
(287.7876097 1.807782765e-17 -36.25869491)
(282.8794458 0 -34.51687066)
(278.0085302 -5.21211322e-17 -32.33948123)
(273.3946063 8.920939293e-17 -29.74950629)
(269.2275031 5.718765889e-17 -26.82816716)
(265.6290843 1.460407813e-16 -23.70196483)
(262.6388607 1.106056855e-16 -20.51693125)
(260.2244553 0 -17.4117818)
(258.3069526 0 -14.49912056)
(256.7887005 1.003826576e-16 -11.85737)
(255.5751365 2.551173535e-16 -9.531186699)
(254.5876027 1.916058884e-16 -7.536539307)
(253.7678816 3.234234587e-16 -5.86732302)
(253.0769149 5.463121881e-16 -4.501797758)
(252.4904136 4.599953422e-16 -3.408234904)
(251.9936385 -4.838059058e-17 -2.549664164)
(251.5768541 6.908713789e-16 -1.887730577)
(251.2321799 -1.093081226e-15 -1.385635094)
(250.9519022 -5.734322821e-17 -1.010126059)
(250.7279339 8.171698065e-16 -0.7325994289)
(250.5519506 -8.057508495e-17 -0.5294396977)
(250.4157957 6.741938315e-17 -0.38180613)
(250.3118904 -3.608931101e-15 -0.2750838166)
(250.2335277 0 -0.1981959268)
(250.1750127 2.514724826e-15 -0.1428975071)
(250.1316719 -2.095005051e-15 -0.1031367937)
(250.0997741 6.969919771e-15 -0.07451635846)
(250.0763983 -1.808347455e-16 -0.05386318004)
(250.0592754 -2.247242771e-15 -0.0389001336)
(250.0466443 -3.83843431e-15 -0.02800331885)
(250.0371238 -3.367803203e-15 -0.02001427773)
(250.0296739 0 -0.01410771504)
(250.0235715 0 -0.0098946663)
(250.0188083 -3.582161645e-15 -0.005436927922)
(250.0116814 -5.806321341e-15 -0.004861652561)
(208.1982576 6.759196191e-20 -30.18487856)
(251.8490263 -2.770476638e-16 -35.59875408)
(276.5876347 0 -39.10175592)
(297.1404878 4.51805011e-19 -42.195778)
(314.7496617 -9.394855928e-19 -45.10306916)
(322.3682481 0 -46.20251858)
(322.1159805 -2.125515776e-16 -46.33969307)
(321.7072733 1.842399739e-16 -46.12539026)
(321.1545087 -1.245768325e-18 -46.28114263)
(320.6774424 0 -46.09409896)
(320.014948 3.467698752e-18 -46.19333039)
(319.312231 9.275373368e-17 -46.07038817)
(318.4485735 -2.154505072e-18 -46.08617168)
(317.4586198 2.652905744e-19 -46.00041022)
(316.2844853 -5.834701473e-17 -45.95306298)
(314.910549 0 -45.85744315)
(313.2945114 4.863657862e-18 -45.74841471)
(311.4001817 -8.214955936e-18 -45.59377571)
(309.1843189 -2.806340839e-17 -45.38716923)
(306.6042579 1.162570657e-17 -45.10204926)
(303.620031 2.022319752e-17 -44.70881785)
(300.2014701 5.576824958e-21 -44.16497952)
(296.3382735 0 -43.41639464)
(292.0539036 2.509540221e-17 -42.39674011)
(287.4216674 4.270841823e-19 -41.03231297)
(282.5763685 -1.812794073e-17 -39.25432887)
(277.7107129 0 -37.01946719)
(273.0484915 1.071722509e-16 -34.33230881)
(268.7997196 -1.140691373e-16 -31.25758034)
(265.1160267 -5.836127759e-17 -27.91357288)
(262.0655837 -1.326874242e-16 -24.44898965)
(259.6348291 1.522445231e-17 -21.01430723)
(257.7503243 -3.609065144e-17 -17.7387179)
(256.308055 -3.065438601e-16 -14.71795447)
(255.1994934 -2.93465275e-16 -12.01217447)
(254.3291725 -1.895174943e-16 -9.650090486)
(253.6232053 3.687728767e-16 -7.635583574)
(253.0306373 3.521352406e-16 -5.954401491)
(252.5202601 -1.132907071e-15 -4.579953919)
(252.0752992 -4.398035126e-16 -3.478079568)
(251.6878484 -2.465911428e-17 -2.610941967)
(251.3542404 -4.148686642e-17 -1.940188791)
(251.0718945 1.113974097e-15 -1.429390764)
(250.8376407 9.056852002e-16 -1.045720865)
(250.647195 4.895453307e-17 -0.7608991857)
(250.4953314 0 -0.5514848733)
(250.376349 -2.195637642e-15 -0.3986739399)
(250.2845629 1.834534754e-15 -0.2877898751)
(250.214692 -9.570337342e-17 -0.2076366443)
(250.1620926 -1.098538597e-20 -0.1498268483)
(250.1228528 1.99055115e-16 -0.1081660963)
(250.0937863 -3.63862962e-15 -0.07812743422)
(250.0723576 0 -0.05642758269)
(250.0565697 2.570232615e-15 -0.04069930332)
(250.0448524 -1.247037921e-16 -0.02924689849)
(250.0359554 3.281492128e-15 -0.02085588677)
(250.0289279 -2.689031982e-15 -0.01465974681)
(250.0230848 0 -0.01025656218)
(250.0185578 3.567245174e-15 -0.005621993349)
(250.0114644 5.759113291e-15 -0.004985447133)
(208.4329282 -5.214286998e-16 -33.9683799)
(253.0315073 -3.026487153e-16 -40.14884232)
(278.5109814 2.530814701e-16 -44.20847275)
(299.6409528 -4.959103926e-19 -47.82220258)
(315.4195228 -2.576406795e-16 -50.74356739)
(319.6021434 4.863412422e-16 -51.36276164)
(319.314786 -2.178498915e-16 -51.47897898)
(318.9112588 1.470238579e-18 -51.25222714)
(318.3055408 -1.580143392e-16 -51.41736325)
(317.7700926 -3.102300327e-19 -51.20869572)
(317.0363341 1.091856648e-16 -51.28993325)
(316.248713 -9.783365564e-17 -51.14944823)
(315.2857753 7.941416442e-17 -51.13596768)
(314.177627 0 -51.02199283)
(312.8657062 -4.950262934e-17 -50.93281461)
(311.3304385 9.505383287e-17 -50.78861592)
(309.5281292 -2.987838988e-17 -50.61432777)
(307.4205679 3.408121594e-17 -50.37675432)
(304.964707 -2.860105168e-17 -50.06132477)
(302.1203829 -2.471333322e-17 -49.63478911)
(298.854626 2.059732063e-17 -49.05772848)
(295.1508467 1.782793075e-17 -48.27732964)
(291.0215678 0 -47.22889996)
(286.5240621 0 -45.8384865)
(281.7744678 -4.374507634e-17 -44.03258468)
(276.950594 -3.816425202e-17 -41.75656045)
(272.2734184 0 -38.99783244)
(267.9666897 -1.108841726e-16 -35.80299947)
(264.2090875 -9.538902507e-17 -32.27797846)
(261.0996877 2.026715181e-17 -28.56935773)
(258.6494668 1.209747455e-16 -24.83557943)
(256.7971679 -1.015012739e-16 -21.22034568)
(255.4379491 -1.8574029e-16 -17.83606934)
(254.4525361 3.123020939e-16 -14.75851833)
(253.7293137 2.815051369e-16 -12.02945831)
(253.177095 2.376047491e-16 -9.663065771)
(252.7297152 -4.258213775e-16 -7.653005538)
(252.344848 -3.165426686e-16 -5.978618396)
(251.9995051 5.685836124e-16 -4.609844408)
(251.6842269 -2.992712573e-17 -3.511094003)
(251.3974515 8.301536822e-16 -2.644369193)
(251.1409789 4.225610322e-17 -1.971820877)
(250.9169254 2.234423003e-20 -1.457764777)
(250.7261242 -9.808745496e-16 -1.070099472)
(250.5676485 -4.982138341e-17 -0.7811223798)
(250.4390278 -1.451328925e-20 -0.567783975)
(250.336767 4.496540703e-15 -0.4115001963)
(250.2569034 0 -0.2976842652)
(250.1954701 -9.710418118e-17 -0.2151423476)
(250.1488048 1.617057904e-16 -0.1554392558)
(250.1137162 2.083578145e-15 -0.1123099153)
(250.0875402 0 -0.08115135583)
(250.0681155 0 -0.05860911369)
(250.0537117 -1.524724761e-16 -0.04225403796)
(250.042948 4.142502369e-15 -0.0303387563)
(250.034706 1.030077678e-16 -0.02160675846)
(250.0281252 2.610431685e-15 -0.01516081492)
(250.0225573 -1.096767681e-15 -0.01058800772)
(250.0182799 -1.777171136e-15 -0.005798032137)
(250.0112254 -5.739980231e-15 -0.005106196201)
(208.2028887 0 -37.83843102)
(253.8902029 6.438720826e-19 -44.84598325)
(280.1134983 0 -49.52307428)
(301.5510419 -2.790590853e-16 -53.66403979)
(314.8148234 7.738284314e-19 -56.32854618)
(316.6652084 5.049936454e-16 -56.55652166)
(315.9969014 -2.231635563e-16 -56.66819515)
(315.5689899 -1.921815014e-16 -56.38769548)
(314.9060165 -2.918089467e-18 -56.55402875)
(314.3029401 1.393730458e-16 -56.32664983)
(313.4889206 0 -56.38340724)
(312.6051985 1.000072802e-16 -56.22115917)
(311.5311365 -8.636352687e-17 -56.1698278)
(310.2915459 6.871101902e-17 -56.01731863)
(308.8279018 -5.03237393e-17 -55.872027)
(307.1169167 0 -55.66059246)
(305.1142164 -1.023540088e-17 -55.39743106)
(302.7807037 -3.50455942e-17 -55.04726614)
(300.0754146 -3.193765541e-19 -54.5866213)
(296.9638105 6.271563848e-17 -53.9743757)
(293.4246276 -2.123487062e-17 -53.16063219)
(289.4614044 -1.808239164e-17 -52.08229189)
(285.1173678 1.570160697e-17 -50.66618326)
(280.4905478 -1.321011771e-17 -48.83640103)
(275.7414008 6.914730227e-17 -46.52993085)
(271.0821441 -2.010141871e-17 -43.71913662)
(266.7431782 -8.442017424e-17 -40.43224601)
(262.9254778 8.542752723e-17 -36.75988944)
(259.7587902 7.265342274e-17 -32.8420018)
(257.2827906 -1.050604032e-17 -28.84083881)
(255.4547849 -1.052496489e-16 -24.91194742)
(254.1753652 -1.199845896e-16 -21.18333023)
(253.3191046 1.890622722e-16 -17.74632553)
(252.7605313 1.712446333e-16 -14.65607695)
(252.3911939 0 -11.93735652)
(252.1278351 0 -9.591950242)
(251.9137576 -4.097075526e-16 -7.605409437)
(251.715808 3.447886453e-16 -5.952380674)
(251.5190865 5.981218315e-16 -4.600586197)
(251.3209779 -5.027870379e-16 -3.513862392)
(251.1256517 -1.612166686e-15 -2.654614128)
(250.9397331 6.662365063e-16 -1.985873387)
(250.7694322 1.189813048e-15 -1.472970642)
(250.6190574 -3.020646312e-17 -1.084741341)
(250.4906055 0 -0.7942385837)
(250.3840233 4.233834867e-17 -0.5789601155)
(250.2977705 -2.299193072e-15 -0.4206775555)
(250.2294292 5.90471775e-17 -0.305009399)
(250.1762253 -4.919990067e-17 -0.2208593719)
(250.1353991 0 -0.1598207939)
(250.1044302 0 -0.115617266)
(250.0811463 1.127117356e-16 -0.08361488628)
(250.0637423 2.981922755e-15 -0.0604215532)