/*--------------------------------*- C++ -*----------------------------------*\
  =========                 |
  \\      /  F ield         | OpenFOAM: The Open Source CFD Toolbox
   \\    /   O peration     | Website:  https://openfoam.org
    \\  /    A nd           | Version:  12
     \\/     M anipulation  |
\*---------------------------------------------------------------------------*/
FoamFile
{
    format      ascii;
    class       volScalarField;
    location    "0.113";
    object      k;
}
// * * * * * * * * * * * * * * * * * * * * * * * * * * * * * * * * * * * * * //

dimensions      [0 2 -2 0 0 0 0];

internalField   nonuniform List<scalar> 
16000
(
0.049306949
0.021580589
0.022362305
0.016453221
0.013967946
0.012651041
0.011866688
0.01139878
0.011080822
0.010867129
0.010709377
0.010591977
0.010500332
0.010427809
0.010369446
0.010322176
0.010283534
0.010251844
0.010226072
0.010204943
0.010187437
0.010173252
0.010161865
0.010152724
0.010145622
0.010140187
0.010136246
0.010133631
0.010132202
0.01013183
0.010132393
0.01013379
0.010135938
0.010138769
0.010142224
0.010146246
0.010150776
0.010155757
0.010161132
0.010166846
0.010172836
0.010179033
0.010185375
0.010191797
0.010198229
0.010204601
0.010210857
0.010216952
0.010222847
0.010228504
0.010233888
0.01023896
0.01024368
0.010248012
0.010251929
0.010255415
0.010258457
0.010261045
0.010263164
0.010264787
0.010265851
0.010266248
0.010265859
0.010264554
0.010262189
0.010258578
0.01025345
0.010246404
0.010236893
0.010224205
0.010207424
0.01018561
0.010158917
0.010130629
0.010108204
0.010091743
0.01007952
0.010091778
0.010055102
0.010077071
0.045365685
0.020415878
0.020930927
0.015911204
0.013624897
0.012447258
0.011704626
0.011281626
0.010980125
0.010783524
0.010636029
0.010527335
0.01044207
0.010375001
0.010321105
0.010277673
0.010242359
0.010213523
0.010190284
0.010171513
0.010156094
0.010143783
0.010134169
0.010126648
0.010121078
0.010117078
0.010114479
0.010113122
0.010112872
0.01011361
0.010115215
0.010117587
0.010120642
0.01012431
0.010128532
0.01013325
0.010138408
0.010143949
0.010149817
0.010155956
0.010162309
0.01016881
0.010175397
0.010182009
0.010188581
0.010195044
0.010201341
0.010207429
0.01021327
0.010218832
0.010224085
0.010228996
0.010233529
0.010237652
0.01024134
0.010244577
0.010247355
0.010249664
0.010251493
0.01025282
0.010253593
0.010253714
0.010253063
0.010251499
0.010248868
0.010244981
0.010239562
0.010232201
0.010222339
0.010209292
0.010192294
0.010170593
0.010144584
0.010118247
0.010097522
0.010081045
0.010072095
0.010079752
0.010052122
0.010073503
0.041786377
0.019593006
0.019610403
0.015352332
0.013274297
0.01222189
0.011536915
0.011155681
0.010877271
0.010698747
0.010562356
0.010462809
0.010384403
0.010323076
0.010273952
0.010234587
0.010202821
0.01017705
0.010156502
0.010140232
0.010127048
0.010116732
0.010109002
0.0101032
0.010099248
0.010096762
0.01009558
0.010095548
0.010096538
0.010098437
0.010101129
0.010104513
0.010108505
0.010113034
0.010118039
0.010123461
0.010129245
0.010135334
0.010141671
0.010148204
0.010154876
0.010161625
0.010168391
0.010175117
0.010181743
0.010188203
0.010194442
0.010200418
0.010206096
0.01021145
0.010216454
0.010221082
0.010225306
0.010229097
0.010232432
0.010235298
0.010237692
0.010239605
0.010241029
0.010241942
0.010242303
0.010242024
0.010240987
0.010239043
0.010236027
0.010231739
0.010225895
0.010218077
0.010207715
0.010194142
0.01017675
0.010155064
0.010129578
0.010105331
0.01008621
0.010071161
0.010064147
0.010067195
0.010050067
0.010068352
0.039007892
0.019036299
0.018468185
0.014851612
0.012956853
0.012017673
0.011383359
0.011040556
0.010782864
0.010620731
0.010494957
0.01040387
0.01033201
0.010276114
0.010231552
0.01019608
0.010167731
0.010144931
0.010126979
0.01011314
0.010102149
0.01009378
0.010087897
0.010083784
0.010081418
0.01008042
0.010080629
0.010081898
0.010084101
0.01008713
0.010090874
0.010095231
0.010100115
0.010105452
0.01011118
0.010117239
0.010123574
0.010130128
0.010136846
0.010143673
0.010150559
0.010157445
0.010164274
0.010170992
0.010177546
0.010183877
0.01018993
0.010195666
0.010201056
0.010206076
0.010210708
0.010214932
0.010218727
0.01022207
0.010224941
0.01022733
0.010229234
0.01023065
0.010231571
0.010231977
0.010231834
0.010231065
0.010229554
0.010227149
0.010223669
0.010218906
0.010212564
0.010204216
0.010193293
0.010179148
0.010161312
0.010139674
0.010114748
0.010092514
0.010075006
0.01006157
0.010055431
0.010056716
0.010048898
0.010065971
0.035221848
0.018723313
0.017484739
0.014387463
0.012661313
0.011824687
0.01123937
0.010932065
0.010694748
0.010547979
0.010432613
0.010349601
0.010284148
0.010233528
0.010193439
0.010161781
0.010136794
0.010116942
0.01010155
0.010090119
0.010081324
0.0100749
0.010070859
0.01006845
0.01006766
0.01006815
0.01006975
0.010072316
0.010075723
0.010079867
0.010084638
0.010089936
0.01009567
0.010101766
0.010108158
0.010114785
0.01012159
0.01012852
0.010135518
0.010142532
0.010149516
0.010156415
0.010163178
0.010169755
0.010176101
0.010182163
0.010187892
0.010193252
0.010198217
0.010202771
0.010206899
0.010210592
0.010213834
0.010216609
0.0102189
0.0102207
0.010222008
0.010222825
0.010223143
0.010222946
0.010222203
0.010220849
0.010218772
0.010215815
0.010211788
0.010206467
0.010199545
0.010190583
0.010179028
0.01016427
0.01014594
0.010124342
0.010100182
0.010079908
0.010064066
0.010052225
0.010046658
0.010047388
0.01004592
0.010060671
0.033049857
0.01865428
0.016753454
0.013961992
0.012389302
0.01164515
0.011106283
0.010831537
0.010613825
0.010481214
0.010375942
0.01030055
0.010241297
0.010195759
0.010160011
0.010132066
0.010110362
0.010093424
0.010080554
0.010071499
0.010064895
0.010060444
0.010058215
0.010057565
0.010058303
0.010060277
0.01006326
0.010067109
0.010071699
0.010076925
0.010082682
0.010088866
0.010095386
0.010102163
0.01010913
0.010116224
0.01012339
0.010130572
0.01013772
0.010144784
0.01015172
0.010158482
0.010165025
0.010171305
0.010177286
0.010182924
0.010188177
0.010193011
0.010197408
0.010201357
0.01020485
0.010207884
0.010210451
0.010212541
0.010214143
0.01021525
0.010215863
0.010215985
0.010215611
0.010214724
0.010213297
0.010211271
0.010208543
0.010204954
0.010200302
0.01019435
0.010186779
0.010177139
0.010164891
0.010149504
0.010130692
0.010109117
0.01008602
0.010067669
0.010053516
0.010043165
0.010038072
0.010038886
0.010042338
0.010054197
0.031215901
0.018750287
0.016236067
0.013571892
0.012138649
0.011478415
0.010983866
0.010738828
0.010539992
0.010420367
0.010324848
0.010256682
0.010203438
0.010162832
0.010131332
0.010107038
0.010088574
0.010074551
0.010064198
0.010057509
0.010053096
0.010050763
0.010050244
0.010051581
0.010053661
0.010057114
0.010061468
0.010066579
0.010072319
0.010078581
0.010085261
0.010092255
0.01009947
0.010106823
0.010114246
0.010121677
0.010129059
0.010136342
0.010143479
0.010150425
0.010157141
0.01016359
0.010169737
0.010175546
0.01018099
0.010186035
0.010190649
0.010194803
0.010198486
0.01020169
0.010204415
0.010206665
0.01020844
0.010209735
0.010210544
0.010210861
0.010210689
0.010210031
0.010208882
0.010207227
0.010205037
0.01020226
0.010198802
0.010194505
0.010189158
0.01018251
0.010174231
0.010163857
0.010150867
0.010134842
0.010115615
0.01009403
0.010072437
0.010055969
0.010043489
0.010034535
0.010029923
0.010031094
0.010038489
0.010046328
0.028517097
0.018935966
0.0158158
0.013214716
0.011907883
0.011324233
0.010871562
0.01065378
0.010472901
0.010365313
0.010279252
0.010218025
0.010170657
0.010134896
0.010107597
0.010086938
0.010071703
0.010060622
0.010052816
0.010048468
0.010046204
0.010046525
0.0100473
0.010050081
0.010054103
0.010059017
0.010064716
0.010071047
0.010077878
0.0100851
0.010092608
0.0101003
0.010108079
0.010115864
0.010123583
0.010131178
0.010138594
0.010145787
0.010152715
0.010159342
0.010165638
0.010171575
0.010177128
0.010182274
0.010186996
0.010191272
0.010195079
0.010198397
0.010201219
0.010203543
0.010205376
0.010206726
0.0102076
0.010208
0.010207923
0.010207365
0.010206328
0.010204817
0.010202825
0.010200334
0.010197315
0.010193718
0.01018946
0.010184388
0.010178284
0.010170883
0.010161845
0.010150699
0.010136939
0.010120277
0.01010075
0.01007913
0.010059563
0.010044937
0.010034093
0.010026452
0.010022362
0.010023868
0.010033566
0.01003743
0.026668799
0.019120871
0.015325714
0.012887294
0.011695383
0.011181807
0.010768704
0.010575627
0.010412612
0.01031629
0.010239388
0.010184882
0.010143274
0.010112303
0.010089179
0.010072162
0.010060155
0.010052056
0.01004686
0.01004467
0.010044053
0.010046529
0.010049956
0.010054488
0.010060015
0.010066366
0.010073355
0.010080829
0.010088653
0.010096715
0.010104911
0.010113139
0.010121304
0.010129323
0.010137131
0.01014467
0.010151894
0.010158764
0.010165251
0.010171327
0.010176974
0.010182177
0.010186925
0.010191206
0.010195014
0.010198342
0.010201178
0.01020351
0.010205333
0.010206653
0.01020748
0.010207828
0.010207708
0.010207127
0.010206085
0.010204582
0.010202616
0.010200191
0.010197299
0.01019392
0.010190018
0.010185547
0.01018043
0.010174523
0.01016761
0.010159412
0.010149573
0.010137633
0.010123115
0.010105834
0.010086147
0.010064788
0.010047523
0.010034692
0.010025417
0.010019006
0.010015504
0.010017275
0.010027261
0.010029853
0.025052024
0.019291227
0.014660693
0.012586913
0.011501125
0.011051559
0.010676126
0.0105055
0.010359697
0.01027375
0.010205688
0.010157718
0.010121762
0.010095536
0.010076572
0.010063218
0.010054425
0.01004935
0.010046914
0.010044602
0.010049748
0.01005337
0.010058521
0.010064753
0.010071823
0.01007953
0.010087705
0.010096195
0.010104859
0.010113583
0.010122264
0.010130805
0.010139114
0.010147114
0.010154745
0.010161957
0.010168714
0.010174991
0.010180769
0.010186036
0.010190788
0.010195024
0.010198747
0.01020196
0.010204669
0.010206879
0.01020859
0.010209797
0.010210501
0.01021071
0.010210438
0.010209699
0.01020851
0.010206881
0.010204815
0.010202312
0.01019937
0.010195987
0.010192156
0.01018785
0.01018303
0.010177643
0.010171622
0.010164836
0.010157071
0.010148039
0.010137373
0.010124633
0.01010941
0.01009158
0.010071804
0.010051619
0.010036421
0.010025322
0.010017526
0.01001225
0.010009367
0.010011405
0.01002087
0.010023159
0.023527648
0.019431919
0.014125521
0.012311453
0.011325618
0.010933875
0.010594356
0.010444033
0.010314325
0.010238086
0.010178571
0.010137015
0.01010663
0.010085134
0.010070331
0.010060685
0.010055019
0.010053042
0.010053663
0.010056817
0.010060623
0.010066555
0.010073555
0.01008141
0.0100899
0.010098828
0.010108021
0.010117325
0.010126601
0.010135732
0.01014462
0.010153175
0.010161317
0.010168977
0.010176105
0.010182669
0.010188645
0.010194023
0.010198802
0.010202988
0.01020659
0.010209627
0.010212114
0.010214068
0.010215508
0.010216451
0.010216905
0.010216874
0.010216362
0.010215378
0.010213935
0.01021205
0.01020974
0.010207018
0.010203889
0.010200352
0.010196403
0.010192037
0.010187243
0.010181991
0.010176232
0.010169909
0.010162958
0.010155259
0.01014661
0.010136721
0.010125218
0.01011169
0.010095838
0.010077619
0.010057697
0.010039594
0.010026356
0.010016896
0.010010467
0.010006239
0.010003977
0.010006203
0.010015122
0.010017598
0.022173853
0.019560029
0.013662324
0.012061203
0.011168793
0.010828404
0.010523182
0.010390943
0.010276835
0.010209774
0.010158535
0.010123325
0.010098463
0.01008171
0.010071086
0.010065214
0.010063103
0.010063901
0.010067099
0.010072164
0.010078956
0.010086768
0.010095482
0.010104817
0.010114547
0.010124471
0.010134421
0.010144244
0.010153805
0.010162994
0.01017172
0.010179908
0.010187495
0.01019443
0.010200681
0.010206233
0.010211084
0.010215243
0.010218729
0.010221564
0.010223777
0.0102254
0.010226463
0.010226997
0.010227029
0.010226585
0.010225683
0.010224331
0.010222536
0.010220305
0.010217651
0.010214588
0.010211132
0.010207294
0.010203084
0.010198499
0.010193532
0.010188175
0.010182413
0.01017621
0.010169512
0.010162252
0.010154363
0.010145738
0.010136188
0.010125427
0.010113098
0.01009882
0.0100824
0.010064027
0.010044308
0.010028771
0.010017383
0.010009455
0.01000428
0.010001032
0.0099993975
0.010001626
0.010009792
0.010012744
0.02095007
0.019645219
0.01323562
0.011836141
0.011030214
0.010735147
0.010462739
0.010346844
0.010247572
0.010189337
0.010146159
0.010117285
0.010097941
0.010085965
0.010079566
0.010077445
0.010078665
0.010082557
0.010088509
0.010096069
0.010104796
0.010114438
0.010124669
0.010135232
0.010145903
0.010156481
0.010166806
0.010176732
0.010186138
0.010194928
0.010203028
0.010210387
0.010216967
0.010222743
0.010227707
0.010231869
0.01023525
0.01023788
0.010239797
0.010241043
0.01024166
0.010241694
0.010241188
0.01024018
0.010238706
0.010236798
0.010234479
0.010231761
0.010228651
0.010225154
0.010221276
0.01021703
0.010212427
0.010207478
0.010202191
0.010196563
0.010190587
0.010184249
0.01017753
0.010170391
0.010162769
0.010154589
0.010145777
0.010136231
0.010125778
0.010114149
0.010101021
0.010086072
0.010069143
0.010050741
0.010032562
0.010019163
0.010009525
0.01000301
0.0099989809
0.0099966598
0.009995662
0.0099977119
0.010004765
0.010008585
0.019848527
0.019649557
0.012849062
0.011634222
0.010909126
0.010654148
0.010413141
0.010312055
0.01022701
0.010177426
0.010142175
0.010119674
0.010105883
0.010098742
0.010096615
0.010098296
0.010102896
0.010109745
0.010118289
0.010128073
0.010138719
0.010149883
0.010161288
0.010172678
0.010183837
0.010194576
0.010204744
0.010214222
0.010222911
0.010230743
0.010237674
0.010243684
0.010248768
0.010252936
0.010256209
0.010258621
0.010260219
0.010261051
0.010261175
0.010260645
0.010259516
0.010257844
0.010255677
0.01025306
0.010250033
0.01024663
0.010242876
0.010238786
0.010234364
0.010229611
0.010224529
0.010219122
0.010213398
0.010207363
0.010201024
0.01019438
0.010187419
0.010180125
0.010172475
0.010164428
0.010155915
0.010146851
0.010137148
0.010126707
0.010115373
0.010102902
0.010089015
0.010073489
0.010056232
0.010037704
0.010022223
0.010010794
0.010002761
0.0099975354
0.0099945464
0.0099930977
0.0099927363
0.0099945362
0.010000151
0.010004583
0.018855994
0.019426192
0.012500133
0.011454449
0.010805328
0.010585638
0.010374702
0.010287252
0.010215871
0.010174944
0.010147544
0.010131492
0.010123309
0.010121047
0.010123201
0.010128637
0.010136509
0.010146172
0.010157083
0.010168791
0.010180917
0.010193138
0.010205179
0.0102168
0.010227805
0.010238031
0.010247361
0.01025571
0.010263021
0.010269268
0.010274447
0.010278578
0.010281693
0.010283838
0.010285064
0.01028543
0.010285001
0.010283842
0.010282022
0.010279605
0.010276653
0.010273223
0.010269367
0.010265132
0.010260558
0.010255677
0.010250513
0.01024508
0.010239382
0.010233415
0.010227172
0.010220651
0.010213853
0.010206779
0.010199433
0.010191814
0.010183909
0.010175699
0.010167157
0.01015824
0.010148878
0.010138978
0.010128435
0.010117146
0.010104976
0.010091722
0.010077142
0.010061097
0.010043812
0.010026366
0.010013235
0.010003623
0.0099970423
0.0099929758
0.009990915
0.0099902506
0.0099904847
0.0099921243
0.0099963876
0.010000445
0.017957568
0.018565335
0.012186293
0.011296117
0.010719079
0.010530032
0.010347974
0.0102734
0.01021523
0.010183066
0.0101635
0.010153962
0.010151406
0.010153999
0.010160341
0.010169361
0.010180243
0.010192354
0.010205168
0.010218242
0.01023121
0.010243762
0.010255654
0.010266683
0.010276694
0.010285578
0.010293266
0.010299728
0.010304964
0.010308999
0.010311874
0.010313652
0.010314402
0.010314199
0.01031312
0.010311241
0.010308642
0.010305395
0.010301573
0.010297243
0.010292466
0.010287299
0.010281791
0.010275985
0.010269917
0.010263617
0.010257106
0.010250394
0.010243482
0.010236364
0.010229026
0.010221457
0.01021365
0.010205601
0.010197308
0.010188769
0.010179972
0.010170896
0.01016151
0.01015177
0.01014161
0.010130931
0.010119614
0.010107543
0.010094604
0.010080646
0.01006549
0.010049041
0.010031653
0.010016705
0.010005564
0.0099975812
0.0099922925
0.0099892546
0.0099880059
0.0099880036
0.0099887436
0.0099903814
0.0099938945
0.0099979198
0.017145489
0.017211153
0.011909719
0.011158991
0.010649486
0.01048827
0.010334021
0.01027192
0.010226536
0.010203268
0.010191496
0.010188457
0.010191436
0.010198707
0.010208952
0.01022115
0.010234508
0.010248407
0.010262342
0.010275893
0.010288733
0.010300601
0.010311309
0.010320722
0.010328759
0.010335382
0.010340594
0.010344431
0.010346953
0.010348237
0.010348369
0.010347446
0.010345566
0.010342824
0.010339312
0.010335116
0.010330317
0.010324989
0.010319201
0.010313017
0.01030649
0.010299671
0.010292602
0.01028532
0.010277855
0.01027023
0.010262463
0.01025456
0.010246519
0.010238331
0.010229977
0.010221439
0.010212701
0.010203751
0.010194584
0.010185193
0.010175566
0.010165681
0.010155506
0.010144997
0.01013409
0.010122694
0.01011068
0.010097916
0.010084297
0.010069721
0.010054086
0.010037552
0.010021015
0.0100085
0.0099991495
0.0099925899
0.0099884261
0.0099862879
0.0099857411
0.0099862772
0.0099874544
0.0099892992
0.0099925164
0.0099967527
0.016415661
0.016356921
0.011676337
0.011043483
0.010597448
0.010461751
0.010334345
0.010284496
0.010251489
0.010237183
0.010233084
0.010236376
0.010244592
0.010256093
0.010269623
0.010284209
0.010299086
0.010313674
0.010327524
0.010340284
0.010351707
0.010361625
0.010369944
0.01037663
0.010381695
0.010385189
0.01038719
0.0103878
0.01038713
0.010385301
0.01038243
0.010378636
0.01037403
0.010368714
0.010362784
0.010356324
0.010349408
0.010342104
0.010334471
0.010326561
0.01031842
0.010310086
0.010301593
0.010292968
0.010284232
0.010275403
0.010266492
0.010257503
0.010248431
0.010239263
0.010229979
0.010220557
0.010210972
0.010201205
0.010191243
0.010181074
0.010170686
0.010160057
0.010149155
0.010137934
0.010126338
0.010114286
0.010101656
0.010088302
0.010074112
0.010059039
0.01004303
0.010026371
0.010012274
0.010001661
0.0099938967
0.0099885689
0.009985364
0.0099839963
0.0099840542
0.0099850131
0.0099865443
0.0099887928
0.0099921807
0.0099965374
0.015760162
0.015358822
0.011477124
0.010950124
0.010563919
0.010452175
0.010350593
0.01031304
0.010292008
0.0102866
0.01028986
0.010298999
0.010311739
0.01032652
0.010342161
0.010357761
0.010372641
0.010386318
0.010398462
0.010408852
0.010417372
0.010423988
0.010428728
0.010431672
0.010432928
0.010432627
0.010430913
0.010427934
0.010423836
0.010418762
0.010412843
0.0104062
0.010398943
0.01039117
0.010382966
0.010374404
0.010365547
0.010356448
0.010347153
0.010337701
0.010328124
0.010318448
0.010308695
0.010298882
0.010289022
0.010279126
0.010269197
0.010259235
0.010249235
0.010239182
0.010229057
0.010218834
0.010208486
0.010197987
0.010187313
0.010176448
0.010165374
0.01015407
0.010142506
0.01013064
0.010118416
0.010105767
0.010092594
0.010078755
0.010064103
0.010048627
0.01003262
0.010016841
0.010005029
0.0099961048
0.0099897002
0.0099854359
0.0099830422
0.0099823059
0.0099828818
0.0099841752
0.0099859855
0.0099886766
0.0099924866
0.009996997
0.015173403
0.014685518
0.011314574
0.010879628
0.010549937
0.010461756
0.010384966
0.010359918
0.010350333
0.010353368
0.01036315
0.010376986
0.010392783
0.010409107
0.01042492
0.01043949
0.010452314
0.010463093
0.010471688
0.010478059
0.010482256
0.010484388
0.010484608
0.010483091
0.010480024
0.010475591
0.010469972
0.010463337
0.010455841
0.010447625
0.010438814
0.010429518
0.010419831
0.010409835
0.010399598
0.010389177
0.010378616
0.010367955
0.010357221
0.010346439
0.010335627
0.010324799
0.010313964
0.010303131
0.010292302
0.010281479
0.010270662
0.010259847
0.010249024
0.010238182
0.0102273
0.010216357
0.010205323
0.010194168
0.010182865
0.010171385
0.010159706
0.010147804
0.010135651
0.01012321
0.010110431
0.010097249
0.010083586
0.010069344
0.010054381
0.010038586
0.010022443
0.010009233
0.0099991472
0.009991692
0.0099864404
0.0099830915
0.0099814064
0.0099811498
0.0099821437
0.0099837035
0.0099857547
0.0099888281
0.0099930481
0.0099976982
0.014649812
0.013936556
0.011185354
0.01083465
0.010557313
0.010493851
0.010440526
0.010427855
0.010428558
0.010438636
0.010453058
0.010469347
0.010485689
0.010500909
0.010514252
0.010525268
0.010533733
0.010539598
0.010542947
0.010543933
0.010542759
0.010539654
0.010534856
0.010528597
0.0105211
0.010512566
0.010503179
0.010493099
0.010482468
0.010471406
0.010460017
0.010448388
0.010436589
0.010424681
0.01041271
0.010400713
0.010388718
0.010376746
0.010364811
0.01035292
0.01034108
0.010329293
0.010317557
0.010305869
0.010294225
0.01028262
0.010271046
0.010259494
0.010247955
0.010236416
0.01022486
0.010213268
0.010201615
0.010189872
0.010178009
0.010165993
0.010153792
0.010141376
0.010128714
0.010115775
0.01010252
0.010088886
0.010074789
0.010060154
0.010044978
0.010029434
0.010014241
0.010003043
0.0099945075
0.0099882858
0.0099839932
0.0099814083
0.0099803749
0.0099805339
0.0099817604
0.0099835117
0.0099857997
0.0099892923
0.0099939489
0.0099984898
0.014189154
0.013359084
0.011094181
0.010819933
0.010589894
0.010552525
0.010520382
0.010518683
0.010527124
0.010541294
0.010557037
0.010572302
0.010585747
0.010596631
0.010604605
0.010609589
0.010611671
0.010611055
0.010608016
0.010602853
0.010595866
0.010587341
0.010577547
0.010566722
0.010555079
0.010542801
0.010530044
0.010516941
0.010503599
0.010490111
0.010476549
0.010462973
0.010449427
0.010435948
0.010422559
0.010409281
0.010396123
0.01038309
0.010370184
0.010357399
0.01034473
0.010332167
0.0103197
0.010307318
0.010295008
0.010282757
0.010270553
0.010258382
0.010246232
0.01023409
0.01022194
0.010209768
0.010197554
0.010185275
0.010172906
0.010160416
0.010147769
0.010134927
0.010121849
0.010108497
0.010094839
0.010080835
0.010066419
0.010051486
0.010035992
0.010020465
0.010007831
0.0099981191
0.0099909127
0.0099857424
0.009982265
0.0099802919
0.0099796606
0.0099803495
0.0099817088
0.0099835966
0.0099861284
0.0099900544
0.009995082
0.0099992563
0.0137969
0.012900263
0.011043518
0.01084059
0.010673475
0.010640811
0.010625577
0.010631176
0.010642832
0.010656452
0.010668972
0.010679006
0.010685867
0.010689349
0.010689543
0.010686709
0.010681193
0.010673369
0.010663615
0.010652284
0.010639695
0.010626125
0.010611813
0.010596963
0.010581744
0.010566294
0.010550726
0.010535133
0.010519586
0.010504141
0.010488839
0.010473713
0.010458784
0.010444066
0.010429565
0.010415281
0.010401212
0.010387349
0.010373682
0.010360196
0.010346877
0.010333706
0.010320665
0.010307734
0.010294896
0.01028213
0.010269419
0.010256745
0.01024409
0.010231441
0.010218783
0.010206102
0.010193385
0.010180616
0.010167779
0.010154851
0.010141805
0.010128606
0.010115206
0.010101547
0.010087572
0.010073244
0.010058562
0.010043568
0.010028374
0.01001362
0.010002692
0.0099943063
0.0099881665
0.0099838791
0.0099811445
0.0099797697
0.0099793847
0.0099803992
0.0099819291
0.0099839363
0.0099866507
0.0099907365
0.0099957183
0.0099995384
0.013482299
0.012531523
0.011037457
0.010896451
0.010776335
0.010757952
0.010752364
0.010759085
0.010767763
0.010775275
0.010779795
0.010780753
0.010778123
0.010772178
0.010763335
0.010752062
0.010738814
0.010724012
0.010708025
0.01069117
0.010673712
0.010655868
0.010637813
0.010619687
0.010601601
0.010583642
0.010565875
0.01054835
0.010531102
0.010514156
0.010497526
0.01048122
0.01046524
0.01044958
0.010434233
0.010419187
0.010404426
0.010389932
0.010375687
0.010361668
0.010347852
0.010334217
0.010320738
0.010307389
0.010294147
0.010280987
0.010267885
0.01025482
0.010241769
0.010228716
0.010215644
0.010202539
0.01018939
0.010176186
0.010162917
0.010149573
0.010136141
0.010122602
0.010108923
0.010095049
0.010080896
0.010066371
0.010051422
0.01003614
0.010021061
0.010008432
0.0099987225
0.0099914289
0.0099861381
0.0099825323
0.0099803671
0.0099794755
0.0099793658
0.0099805891
0.00998225
0.0099843399
0.0099870865
0.0099909531
0.0099955077
0.0099992025
0.01326235
0.012264534
0.011078827
0.010994146
0.010909563
0.010895356
0.010890556
0.01089104
0.010890386
0.010886847
0.010879787
0.010869342
0.010855947
0.010840132
0.010822423
0.010803299
0.010783174
0.010762391
0.010741227
0.010719903
0.010698591
0.010677424
0.010656502
0.010635898
0.010615666
0.010595842
0.01057645
0.010557504
0.010539009
0.010520964
0.010503362
0.010486192
0.01046944
0.010453089
0.010437119
0.010421509
0.010406235
0.010391273
0.010376597
0.01036218
0.010347995
0.010334014
0.010320209
0.010306551
0.010293012
0.010279564
0.010266178
0.01025283
0.010239492
0.010226144
0.010212765
0.010199339
0.010185853
0.010172297
0.010158661
0.010144941
0.010131133
0.010117234
0.010103237
0.01008912
0.010074835
0.010060305
0.010045456
0.010030338
0.010015593
0.010004419
0.0099957543
0.0099893281
0.0099847358
0.0099816715
0.0099799001
0.0099793061
0.0099797001
0.0099808385
0.0099825533
0.0099846447
0.0099873298
0.0099909775
0.0099952886
0.0099989953
0.013135476
0.012098128
0.011174263
0.011122483
0.011057689
0.011039527
0.011025759
0.011013335
0.01099869
0.010981346
0.010961444
0.010939458
0.010915923
0.010891335
0.010866114
0.0108406
0.010815056
0.010789684
0.010764635
0.010740016
0.010715903
0.010692349
0.010669384
0.010647027
0.010625283
0.01060415
0.010583619
0.010563677
0.010544306
0.010525486
0.010507196
0.010489411
0.010472106
0.010455256
0.010438834
0.010422811
0.010407159
0.010391849
0.010376852
0.010362137
0.010347675
0.010333436
0.010319389
0.010305504
0.01029175
0.010278098
0.010264517
0.010250978
0.010237453
0.010223916
0.010210343
0.010196714
0.01018301
0.010169217
0.010155323
0.010141323
0.010127211
0.010112988
0.010098655
0.010084211
0.010069643
0.01005493
0.010040074
0.01002527
0.010011663
0.010001434
0.0099935901
0.0099878256
0.0099837847
0.009981172
0.009979746
0.0099792946
0.0099799699
0.0099811626
0.0099828849
0.0099849722
0.0099876066
0.0099910508
0.0099950895
0.009998756
0.013071041
0.012027295
0.011333377
0.011264987
0.011204208
0.011171701
0.011142114
0.011113266
0.011083474
0.01105276
0.011021398
0.010989757
0.010958166
0.010926892
0.010896134
0.010866032
0.010836682
0.010808143
0.010780446
0.010753606
0.010727621
0.010702478
0.010678159
0.01065464
0.010631892
0.010609887
0.010588593
0.010567978
0.010548011
0.010528659
0.01050989
0.010491672
0.010473974
0.010456762
0.010440007
0.010423676
0.010407737
0.01039216
0.010376913
0.010361964
0.010347283
0.010332838
0.010318598
0.010304534
0.010290615
0.01027681
0.01026309
0.010249425
0.010235787
0.010222145
0.010208475
0.010194751
0.010180951
0.010167054
0.010153044
0.010138907
0.010124638
0.010110234
0.010095695
0.010081022
0.010066209
0.010051258
0.010036237
0.01002154
0.01000899
0.0099994182
0.0099921515
0.0099868466
0.0099831921
0.0099809342
0.0099798524
0.0099795716
0.0099802366
0.0099815117
0.0099832453
0.0099853685
0.0099880031
0.0099912965
0.0099950589
0.0099985949
0.013080927
0.011987452
0.011487885
0.011397836
0.011325348
0.011274324
0.011227574
0.011183653
0.01114127
0.011100249
0.011060539
0.011022165
0.010985148
0.010949491
0.010915179
0.010882181
0.010850459
0.010819964
0.010790645
0.01076245
0.010735325
0.010709216
0.010684071
0.01065984
0.010636475
0.010613928
0.010592155
0.010571113
0.01055076
0.010531058
0.010511968
0.010493453
0.010475478
0.010458008
0.010441008
0.010424444
0.010408285
0.010392497
0.010377049
0.010361907
0.010347042
0.010332422
0.010318016
0.010303796
0.010289732
0.010275795
0.010261958
0.010248192
0.010234471
0.010220766
0.010207052
0.010193303
0.010179493
0.0101656
0.010151603
0.010137483
0.010123229
0.010108831
0.01009428
0.010079568
0.010064682
0.01004962
0.010034475
0.010019755
0.010007741
0.0099985334
0.0099915848
0.0099865222
0.0099830343
0.0099808969
0.0099799881
0.0099798338
0.0099805475
0.0099818465
0.0099836087
0.0099857646
0.009988366
0.0099914755
0.0099949674
0.0099984324
0.013173772
0.012013773
0.011604083
0.011494329
0.011406377
0.011339389
0.011279717
0.01122546
0.01117499
0.011127655
0.011083013
0.01104077
0.011000699
0.010962613
0.010926355
0.010891786
0.010858785
0.01082724
0.010797052
0.01076813
0.010740393
0.010713763
0.01068817
0.010663551
0.010639844
0.010616993
0.010594947
0.010573656
0.010553075
0.010533159
0.010513868
0.010495163
0.010477005
0.010459358
0.010442187
0.010425456
0.010409132
0.010393182
0.010377573
0.010362273
0.010347251
0.010332476
0.010317919
0.010303549
0.010289341
0.010275266
0.010261298
0.010247413
0.010233586
0.010219793
0.010206009
0.010192213
0.010178383
0.0101645
0.010150544
0.0101365
0.010122354
0.010108092
0.010093705
0.010079186
0.010064528
0.010049739
0.0100349
0.010020423
0.010008189
0.009998912
0.0099919115
0.0099868374
0.0099833638
0.0099812233
0.0099802172
0.0099801376
0.0099808319
0.0099821219
0.0099838987
0.0099860807
0.0099886474
0.0099915959
0.0099948678
0.0099983055
0.013298572
0.012070195
0.011665182
0.011542988
0.011444845
0.011369513
0.011303747
0.011244987
0.011191183
0.011141352
0.011094819
0.011051127
0.011009932
0.010970963
0.010934001
0.010898864
0.010865396
0.010833462
0.010802943
0.010773737
0.010745748
0.010718892
0.010693094
0.010668284
0.010644398
0.010621377
0.010599166
0.010577715
0.010556975
0.010536904
0.010517458
0.010498596
0.010480282
0.010462478
0.010445148
0.010428256
0.01041177
0.010395656
0.010379881
0.010364412
0.010349218
0.010334269
0.010319535
0.010304986
0.010290595
0.010276335
0.010262181
0.010248107
0.010234091
0.010220109
0.01020614
0.010192165
0.010178166
0.010164129
0.010150039
0.010135879
0.010121628
0.01010726
0.010092756
0.010078102
0.010063304
0.01004839
0.010033477
0.010019077
0.010007437
0.0099984701
0.0099917177
0.0099868133
0.0099834611
0.0099813973
0.0099803986
0.0099801205
0.0099809904
0.0099822417
0.0099840276
0.0099862226
0.0099887673
0.0099916245
0.0099947803
0.0099982197
67.005454
364.23332
122.50059
14.777601
0.40804014
0.021443131
0.020110727
0.01980391
0.019528153
0.018466334
0.017129281
0.015946107
0.015048075
0.014476899
0.014071303
0.013686635
0.013311829
0.012980097
0.01270224
0.012469971
0.012272462
0.012102054
0.011953679
0.011823571
0.011708692
0.011606568
0.01151522
0.011433066
0.011358863
0.011291627
0.011230546
0.011174912
0.011124106
0.011077609
0.011035009
0.010995975
0.010960222
0.010927499
0.010897571
0.010870226
0.010845279
0.010822546
0.010801845
0.010783004
0.010765861
0.010750258
0.010736039
0.010723057
0.010711189
0.010700322
0.010690347
0.010681152