/*--------------------------------*- C++ -*----------------------------------*\
  =========                 |
  \\      /  F ield         | OpenFOAM: The Open Source CFD Toolbox
   \\    /   O peration     | Website:  https://openfoam.org
    \\  /    A nd           | Version:  12
     \\/     M anipulation  |
\*---------------------------------------------------------------------------*/
FoamFile
{
    format      ascii;
    class       volScalarField;
    location    "0.113";
    object      nut;
}
// * * * * * * * * * * * * * * * * * * * * * * * * * * * * * * * * * * * * * //

dimensions      [0 2 -1 0 0 0 0];

internalField   nonuniform List<scalar> 
16000
(
4.6667108e-07
9.8548069e-06
1.801492e-05
2.3604415e-05
1.8209665e-05
2.4908341e-05
1.7666676e-05
2.4115463e-05
1.8893573e-05
2.592594e-05
2.1899216e-05
2.5644843e-05
2.3417609e-05
2.4014818e-05
2.3211253e-05
2.3073388e-05
2.2831791e-05
2.276399e-05
2.2773772e-05
2.2880456e-05
2.3076562e-05
2.336146e-05
2.3732633e-05
2.4190049e-05
2.4735804e-05
2.537566e-05
2.6117427e-05
2.6973619e-05
2.7959449e-05
2.9091252e-05
3.0386946e-05
3.1870383e-05
3.3572367e-05
3.5530855e-05
3.7792528e-05
4.041303e-05
4.3458597e-05
4.7008173e-05
5.1159473e-05
5.6033517e-05
6.1772152e-05
6.854233e-05
7.6554508e-05
8.6066212e-05
9.7383466e-05
0.00011087292
0.00012698878
0.00014628384
0.00016943026
0.00019724618
0.00023073167
0.00027111158
0.00031988042
0.00037886541
0.00045030069
0.00053692871
0.00064212653
0.00077007369
0.0009259884
0.0010187889
0.0010188423
0.0010188658
0.0010188808
0.0010188468
0.0010187651
0.0010186234
0.0010184007
0.0010180611
0.001017552
0.001016803
0.0010157267
0.0010142508
0.0010124174
0.0010104706
0.0010088123
0.0010074206
0.0010062131
0.0010063897
0.0010045068
0.001005546
4.1767953e-07
9.3581399e-06
1.9745835e-05
2.1345977e-05
1.6449988e-05
2.2387795e-05
1.5706623e-05
2.1176176e-05
1.6713615e-05
2.2956599e-05
1.9852947e-05
2.3163823e-05
2.1443718e-05
2.1792715e-05
2.1162483e-05
2.0975089e-05
2.0772605e-05
2.0700055e-05
2.0710473e-05
2.0807255e-05
2.0987726e-05
2.1250942e-05
2.1594996e-05
2.2019918e-05
2.2527335e-05
2.3122627e-05
2.381255e-05
2.4608371e-05
2.5524485e-05
2.6576823e-05
2.7782041e-05
2.9161911e-05
3.0744922e-05
3.2566202e-05
3.4669411e-05
3.7106863e-05
3.9941243e-05
4.3246707e-05
4.7114246e-05
5.165843e-05
5.7015578e-05
6.3342814e-05
7.0838276e-05
7.9747502e-05
9.0364413e-05
0.00010303744
0.00011819982
0.00013638073
0.00015822515
0.0001845187
0.00021622221
0.00025451601
0.00030084282
0.00035697067
0.00042506443
0.00050778577
0.00060841815
0.00073102292
0.00088065489
0.0010180038
0.0010180819
0.001018084
0.0010180843
0.0010180351
0.0010179356
0.0010177731
0.0010175261
0.001017158
0.0010166151
0.0010158299
0.0010147281
0.0010132529
0.0010114628
0.001009647
0.0010081124
0.0010067505
0.001005756
0.0010058286
0.0010042069
0.0010051999
3.7455994e-07
8.9739836e-06
1.8708939e-05
1.9490164e-05
1.4751328e-05
1.9747957e-05
1.4004422e-05
1.8437102e-05
1.5047627e-05
2.0173715e-05
1.8121659e-05
2.0653501e-05
1.9444678e-05
1.953983e-05
1.905384e-05
1.8846424e-05
1.867561e-05
1.8608589e-05
1.8622127e-05
1.8713746e-05
1.8882042e-05
1.9126432e-05
1.9445335e-05
1.9839026e-05
2.0308772e-05
2.0859761e-05
2.1498018e-05
2.2233745e-05
2.3080361e-05
2.4053401e-05
2.5168681e-05
2.6446332e-05
2.7912937e-05
2.9601191e-05
3.1552086e-05
3.3814882e-05
3.6449135e-05
3.9525276e-05
4.3128659e-05
4.736743e-05
5.2373422e-05
5.8296251e-05
6.5323557e-05
7.3689763e-05
8.3679298e-05
9.5626021e-05
0.00010994579
0.00012714832
0.00014785635
0.00017282974
0.0002029976
0.00023950453
0.0002837516
0.00033745989
0.00040273964
0.00048218861
0.00057901687
0.00069720121
0.00084168582
0.0010172683
0.0010173707
0.0010173473
0.0010173256
0.0010172547
0.0010171313
0.0010169414
0.0010166624
0.0010162569
0.0010156703
0.0010148366
0.0010136962
0.0010122169
0.001010465
0.001008787
0.00100737
0.00100612
0.0010052553
0.0010050286
0.0010039702
0.0010047755
3.4133812e-07
8.6859121e-06
1.7780977e-05
1.815609e-05
1.3281669e-05
1.7460303e-05
1.2496281e-05
1.613458e-05
1.3560559e-05
1.7806382e-05
1.6558337e-05
1.8426568e-05
1.7595823e-05
1.7505998e-05
1.712736e-05
1.6919668e-05
1.677662e-05
1.6719933e-05
1.6739182e-05
1.6829027e-05
1.6988596e-05
1.7217715e-05
1.7515155e-05
1.7881555e-05
1.8317949e-05
1.8829472e-05
1.942167e-05
2.0103902e-05
2.0888665e-05
2.1791174e-05
2.2826698e-05
2.4013981e-05
2.5378062e-05
2.6949547e-05
2.8767174e-05
3.0877571e-05
3.3337597e-05
3.6214767e-05
3.958996e-05
4.3565325e-05
4.8269268e-05
5.3845733e-05
6.0473935e-05
6.8378423e-05
7.7836832e-05
8.9171853e-05
0.00010278565
0.00011917287
0.00013893929
0.00016282606
0.00019173848
0.0002267954
0.00026936804
0.00032114502
0.0003841999
0.00046108822
0.00055497211
0.00066977603
0.00081038158
0.00098287134
0.0010167011
0.0010166486
0.0010165992
0.0010165014
0.0010163494
0.0010161278
0.0010158126
0.0010153655
0.001014732
0.0010138485
0.0010126678
0.001011189
0.0010094828
0.001007937
0.0010066367
0.0010055066
0.0010047178
0.0010043913
0.0010037614
0.0010045169
3.0130541e-07
8.4719318e-06
1.69702e-05
1.8160653e-05
1.3276956e-05
1.5460492e-05
1.116806e-05
1.415538e-05
1.2278207e-05
1.5759166e-05
1.5162926e-05
1.6414552e-05
1.5866154e-05
1.5651768e-05
1.5352849e-05
1.5158661e-05
1.5038754e-05
1.4993065e-05
1.5016925e-05
1.5104447e-05
1.5254951e-05
1.546884e-05
1.5745281e-05
1.6085393e-05
1.6490109e-05
1.6964592e-05
1.751405e-05
1.8147178e-05
1.8875554e-05
1.9714033e-05
2.067753e-05
2.1783638e-05
2.3056116e-05
2.4523772e-05
2.6223406e-05
2.8199354e-05
3.0506062e-05
3.3208695e-05
3.6384783e-05
4.013077e-05
4.4572185e-05
4.984876e-05
5.6133163e-05
6.3640687e-05
7.2643898e-05
8.3456889e-05
9.6470623e-05
0.00011216757
0.00013113963
0.00015411378
0.00018197617
0.00021582573
0.00025701019
0.00030719333
0.00036842127
0.00044321814
0.00053471097
0.00064678659
0.0007842835
0.0009532248
0.0010160738
0.0010159889
0.0010159058
0.0010157757
0.00101559
0.0010153318
0.0010149759
0.0010144824
0.0010137982
0.0010128638
0.0010116419
0.0010101647
0.0010085195
0.0010071017
0.0010059195
0.0010049077
0.0010041752
0.001003815
0.0010034704
0.0010040814
2.7672629e-07
8.3427185e-06
1.6321762e-05
1.7926863e-05
1.3054455e-05
1.3707475e-05
1.0577356e-05
1.2516143e-05
1.1415373e-05
1.4031267e-05
1.3938039e-05
1.4644094e-05
1.4284018e-05
1.3996624e-05
1.3748154e-05
1.3569446e-05
1.3464559e-05
1.3425778e-05
1.3450698e-05
1.353374e-05
1.3674195e-05
1.3872953e-05
1.4129406e-05
1.4445073e-05
1.4820871e-05
1.526196e-05
1.577327e-05
1.6362978e-05
1.704177e-05
1.7824105e-05
1.8724716e-05
1.9760265e-05
2.0953504e-05
2.2331745e-05
2.3930201e-05
2.5791311e-05
2.7967485e-05
3.052202e-05
3.3530325e-05
3.7083923e-05
4.1305721e-05
4.6332746e-05
5.2333498e-05
5.9514895e-05
6.8146292e-05
7.8536172e-05
9.1067243e-05
0.00010621341
0.0001245564
0.0001468146
0.00017386086
0.00020678152
0.00024690932
0.00029589316
0.00035576423
0.00042903007
0.00051879985
0.00062894318
0.00076428337
0.00093082263
0.0010154832
0.0010153622
0.0010152398
0.0010150722
0.0010148479
0.0010145489
0.0010141483
0.0010136049
0.001012867
0.0010118827
0.0010106238
0.00100915
0.0010075838
0.0010062909
0.0010052264
0.001004326
0.0010036439
0.0010032883
0.0010031864
0.0010036277
2.5603599e-07
8.2706424e-06
1.5815172e-05
1.6962239e-05
1.2954751e-05
1.2119324e-05
1.062327e-05
1.1541015e-05
1.0973606e-05
1.2528966e-05
1.2835469e-05
1.3077118e-05
1.2814522e-05
1.2495593e-05
1.227565e-05
1.2112431e-05
1.2018662e-05
1.1985631e-05
1.2011317e-05
1.2090725e-05
1.2222835e-05
1.2408946e-05
1.2648419e-05
1.2867013e-05
1.3208847e-05
1.3613318e-05
1.4084619e-05
1.4630215e-05
1.5259716e-05
1.5986852e-05
1.6826136e-05
1.7793329e-05
1.8910252e-05
2.0202787e-05
2.1704671e-05
2.3456604e-05
2.5509078e-05
2.7923555e-05
3.0774072e-05
3.4405969e-05
3.844926e-05
4.3274677e-05
4.9048973e-05
5.5971883e-05
6.4310594e-05
7.437089e-05
8.6530095e-05
0.00010125686
0.00011912585
0.00014085208
0.00016730029
0.0001995509
0.00023892921
0.000287078
0.00034602448
0.00041827272
0.00050692927
0.00061586385
0.00074990675
0.0009150713
0.0010149257
0.0010147646
0.0010145976
0.0010143873
0.0010141199
0.001013776
0.0010133273
0.0010127311
0.0010119372
0.0010109043
0.0010096172
0.001008149
0.0010066849
0.0010055141
0.0010045646
0.0010037698
0.0010031394
0.0010028042
0.0010029011
0.0010031241
2.2927359e-07
8.2302516e-06
1.5380899e-05
1.543408e-05
1.1852646e-05
1.0566403e-05
9.1712438e-06
1.0300171e-05
9.6337027e-06
1.1265795e-05
1.1721589e-05
1.1633991e-05
1.1409251e-05
1.1099074e-05
1.0902766e-05
1.0759556e-05
1.0679424e-05
1.0655088e-05
1.0619685e-05
1.068276e-05
1.0798593e-05
1.0967516e-05
1.118725e-05
1.1458071e-05
1.178407e-05
1.2168248e-05
1.2615089e-05
1.3131992e-05
1.3728026e-05
1.4416498e-05
1.5212121e-05
1.6130174e-05
1.7192032e-05
1.8422666e-05
1.9854944e-05
2.152846e-05
2.3492541e-05
2.5807508e-05
2.8546912e-05
3.1800264e-05
3.5676632e-05
4.0314094e-05
4.5879487e-05
5.3010201e-05
6.1136264e-05
7.0961624e-05
8.2861433e-05
9.7302295e-05
0.00011485509
0.00013623696
0.00016231006
0.00019415584
0.00023310043
0.00028078987
0.00033925902
0.00041102272
0.00049920152
0.00060768441
0.00074133137
0.00090619921
0.0010143955
0.0010141905
0.001013974
0.0010137162
0.0010134016
0.0010130091
0.0010125092
0.0010118585
0.0010110078
0.0010099282
0.0010086243
0.0010071655
0.0010058302
0.0010047783
0.0010039398
0.001003245
0.0010026702
0.0010023614
0.0010025756
0.0010025751
2.1031346e-07
8.1892926e-06
1.4926668e-05
1.351657e-05
9.7455094e-06
9.3937995e-06
7.561099e-06
8.7868044e-06
8.9736009e-06
1.013123e-05
1.0589189e-05
1.0288911e-05
1.008209e-05
9.8039891e-06
9.6319097e-06
9.4444919e-06
9.3551471e-06
9.326421e-06
9.3509014e-06
9.4257121e-06
9.5467838e-06
9.7156475e-06
9.9312679e-06
1.0193614e-05
1.0506819e-05
1.0874782e-05
1.1302031e-05
1.1796003e-05
1.2365396e-05
1.3023074e-05
1.3784041e-05
1.4663319e-05
1.5682118e-05
1.6864775e-05
1.8243616e-05
1.9857566e-05
2.1755245e-05
2.3996345e-05
2.6653789e-05
2.9816272e-05
3.3593176e-05
3.812055e-05
4.3567956e-05
5.0131895e-05
5.8064321e-05
6.7678584e-05
8.0051918e-05
9.4339681e-05
0.00011173349
0.00013295796
0.00015887843
0.00019058452
0.0002294116
0.00027701863
0.00033545994
0.00040727587
0.00049561832
0.00060441543
0.00073857926
0.00090424085
0.001013887
0.0010136343
0.0010133643
0.0010130546
0.0010126889
0.0010122446
0.0010116909
0.0010109848
0.0010100799
0.0010089573
0.001007648
0.0010062191
0.0010050265
0.0010040901
0.0010033569
0.001002756
0.0010022422
0.0010019612
0.001002183
0.0010020885
1.9388872e-07
8.1475955e-06
1.3409386e-05
1.1778797e-05
7.8802057e-06
8.3491546e-06
6.7265904e-06
7.9268124e-06
8.304517e-06
9.0587309e-06
9.4671626e-06
9.0607285e-06
8.8600151e-06
8.5356221e-06
8.354567e-06
8.2370026e-06
8.1800985e-06
8.1753445e-06
8.2167902e-06
8.3011895e-06
8.429342e-06
8.5985668e-06
8.8111978e-06
9.0672281e-06
9.3709959e-06
9.7267893e-06
1.0139294e-05
1.06161e-05
1.1165675e-05
1.1800466e-05
1.2535816e-05
1.3386795e-05
1.4374664e-05
1.5523395e-05
1.6865085e-05
1.8438377e-05
2.0291613e-05
2.248437e-05
2.5089841e-05
2.8197095e-05
3.1915565e-05
3.6380875e-05
4.1765695e-05
4.826663e-05
5.6137953e-05
6.5695171e-05
7.7327206e-05
9.1490527e-05
0.000109759
0.00013101503
0.00015700872
0.00018884479
0.00022787703
0.00027578752
0.00033466268
0.00040708395
0.00049625331
0.00060616001
0.00074179203
0.00090938423
0.0010133942
0.0010130906
0.0010127637
0.0010123985
0.0010119783
0.0010114795
0.00101087
0.0010101087
0.0010091555
0.0010079981
0.0010066897
0.0010053431
0.0010042803
0.001003455
0.0010028198
0.0010023046
0.0010018539
0.0010016065
0.001001793
0.0010016739
1.787872e-07
8.101218e-06
1.0650602e-05
9.7722806e-06
6.4732157e-06
7.4325286e-06
6.1292652e-06
7.119122e-06
7.7630961e-06
8.083698e-06
8.3657255e-06
7.8566791e-06
7.6096611e-06
7.3823115e-06
7.2469072e-06
7.1669217e-06
7.1376942e-06
7.1535753e-06
7.2097554e-06
7.3052812e-06
7.4374825e-06
7.6087107e-06
7.8203415e-06
8.0728486e-06
8.3706636e-06
8.7185069e-06
9.1213291e-06
9.5869292e-06
1.0123736e-05
1.0743851e-05
1.1404125e-05
1.2227712e-05
1.3186221e-05
1.4303232e-05
1.5610605e-05
1.7146733e-05
1.8959745e-05
2.1109149e-05
2.3668529e-05
2.6727596e-05
3.0396841e-05
3.5086357e-05
4.0464622e-05
4.6970037e-05
5.4859322e-05
6.445134e-05
7.6146224e-05
9.0411498e-05
0.00010783713
0.00012915899
0.00015670048
0.00018894118
0.00022850811
0.00027711735
0.00033690079
0.00041049777
0.00050118043
0.00061302343
0.0007511171
0.00092182865
0.0010129113
0.0010125542
0.0010121684
0.0010117449
0.0010112674
0.0010107119
0.0010100457
0.0010092306
0.0010082365
0.0010070586
0.0010057505
0.0010045368
0.0010035978
0.0010028778
0.001002332
0.0010018934
0.0010015046
0.0010012931
0.0010014523
0.0010012962
1.6553458e-07
8.0538474e-06
8.4021646e-06
8.3136543e-06
5.6932143e-06
6.5800623e-06
5.6243353e-06
6.4127053e-06
7.2100284e-06
7.1720864e-06
7.1719614e-06
6.7392103e-06
6.5365907e-06
6.3681219e-06
6.2715642e-06
6.2229089e-06
6.2174904e-06
6.2513368e-06
6.3208128e-06
6.4256557e-06
6.564601e-06
6.7392684e-06
6.952168e-06
7.2042325e-06
7.4999769e-06
7.8106812e-06
8.2022118e-06
8.6558457e-06
9.1798783e-06
9.7859749e-06
1.0488184e-05
1.1304798e-05
1.2256421e-05
1.3366705e-05
1.4667818e-05
1.6198562e-05
1.8007666e-05
2.0155443e-05
2.271697e-05
2.5783894e-05
2.946936e-05
3.3914783e-05
3.9293438e-05
4.5813111e-05
5.3734933e-05
6.3934786e-05
7.5804745e-05
9.0304227e-05
0.00010803424
0.00012975425
0.00015639287
0.00019087744
0.00023131701
0.00028103165
0.00034221285
0.00041757614
0.00051048555
0.00062512811
0.00076672736
0.00094181082
0.0010124329
0.0010120205
0.0010115753
0.0010110919
0.0010105551
0.0010099414
0.0010092191
0.0010083537
0.0010073246
0.0010061438
0.0010048592
0.0010038041
0.0010029829
0.0010023615
0.0010018968
0.0010015269
0.001001197
0.0010010133
0.001001143
0.0010009795
1.5366638e-07
7.9959368e-06
6.6808491e-06
7.2926123e-06
5.0698937e-06
5.8183801e-06
5.1893626e-06
5.7850127e-06
6.5521995e-06
6.1379853e-06
6.0943713e-06
5.7607598e-06
5.599075e-06
5.4782083e-06
5.4149275e-06
5.3932794e-06
5.4089736e-06
5.4595116e-06
5.5420279e-06
5.656959e-06
5.8036e-06
5.9838796e-06
6.1744009e-06
6.4235707e-06
6.7160421e-06
7.055941e-06
7.4502581e-06
7.9064691e-06
8.4330865e-06
9.041976e-06
9.747336e-06
1.0567238e-05
1.1523522e-05
1.2640207e-05
1.3950011e-05
1.5492505e-05
1.7317544e-05
1.9486737e-05
2.2077354e-05
2.5183973e-05
2.8922594e-05
3.3437826e-05
3.8911885e-05
4.5557864e-05
5.3645165e-05
6.3509096e-05
7.556648e-05
9.0321526e-05
0.0001093505
0.00013166124
0.0001590466
0.00019269512
0.0002363083
0.00028754638
0.00035062962
0.00042836976
0.00052424646
0.00064258799
0.00078878855
0.00096956701
0.001011954
0.0010114856
0.0010109818
0.0010104386
0.0010098419
0.0010091696
0.0010083931
0.0010074833
0.0010064249
0.0010052504
0.0010040681
0.0010031469
0.001002437
0.0010019067
0.0010015156
0.0010012082
0.0010009346
0.0010007676
0.0010008481
0.0010007218
1.4306984e-07
7.924342e-06
5.355065e-06
6.3660444e-06
4.5143603e-06
5.1397307e-06
4.8170371e-06
5.1449336e-06
5.7274714e-06
5.2390997e-06
5.1483886e-06
4.9039451e-06
4.7807989e-06
4.69968e-06
4.6659153e-06
4.6685909e-06
4.7039959e-06
4.7706773e-06
4.8665588e-06
4.9737658e-06
5.1239956e-06
5.3077119e-06
5.5271539e-06
5.7852525e-06
6.0862401e-06
6.434626e-06
6.8373265e-06
7.3024459e-06
7.8387221e-06
8.4581831e-06
9.1751516e-06
1.0007927e-05
1.0929077e-05
1.2053051e-05
1.3372359e-05
1.4927313e-05
1.6769099e-05
1.8960685e-05
2.1581576e-05
2.4729793e-05
2.8525205e-05
3.3368329e-05
3.8989699e-05
4.5824909e-05
5.4152758e-05
6.4318371e-05
7.675885e-05
9.2001198e-05
0.00011069149
0.00013485929
0.00016322683
0.00019810469
0.0002410142
0.00029666075
0.0003621633
0.00044290785
0.00054251663
0.00066548874
0.0008174328
0.0010053019
0.0010114698
0.0010109461
0.0010103861
0.0010097846
0.0010091291
0.0010083998
0.0010075721
0.0010066254
0.0010055503
0.0010043778
0.0010033639
0.0010025672
0.001001959
0.0010015111
0.0010011864
0.0010009362
0.0010007156
0.0010005589
0.0010005705
0.0010004866
1.3361666e-07
7.7947072e-06
4.3431605e-06
5.5409011e-06
4.0173645e-06
4.5349016e-06
4.4895901e-06
4.449381e-06
4.8965781e-06
4.4369813e-06
4.3279972e-06
4.1569197e-06
4.0704344e-06
4.0236792e-06
4.0167453e-06
4.0419211e-06
4.0962027e-06
4.1622608e-06
4.2666e-06
4.4008308e-06
4.565797e-06
4.7630063e-06
4.995385e-06
5.2660713e-06
5.5798643e-06
5.9415393e-06
6.3580808e-06
6.817395e-06
7.3640777e-06
7.9946767e-06
8.7235615e-06
9.5690531e-06
1.0553553e-05
1.1705221e-05
1.305765e-05
1.4652477e-05
1.6543208e-05
1.8795182e-05
2.1491069e-05
2.4733876e-05
2.8649007e-05
3.3394575e-05
3.9161923e-05
4.6186945e-05
5.4760541e-05
6.5788901e-05
7.8720409e-05
9.4577989e-05
0.00011404024
0.00013794529
0.00016889953
0.00020529065
0.00025008624
0.00030524996
0.00037679043
0.00046117753
0.00056529948
0.00069385652
0.00085271666
0.0010115358
0.0010109758
0.0010103992
0.0010097865
0.0010091299
0.0010084189
0.0010076368
0.0010067633
0.0010057848
0.0010047123
0.0010036113
0.0010027435
0.0010020626
0.0010015459
0.0010011705
0.0010009047
0.0010007048
0.001000531
0.0010003866
0.0010003335
0.0010002367
1.2522627e-07
7.4729705e-06
3.6441589e-06
4.8081775e-06
3.5742512e-06
3.9982718e-06
3.9781708e-06
3.819573e-06
4.0972355e-06
3.7277022e-06
3.624643e-06
3.5120311e-06
3.4599051e-06
3.443474e-06
3.4610874e-06
3.494361e-06
3.5606959e-06
3.6559027e-06
3.779188e-06
3.9307948e-06
4.1121953e-06
4.3254173e-06
4.5738087e-06
4.8607958e-06
5.1797201e-06
5.5554325e-06
5.9864766e-06
6.4809332e-06
7.0489651e-06
7.7026781e-06
8.4568199e-06
9.3304595e-06
1.0346926e-05
1.1535457e-05
1.2931982e-05
1.4579685e-05
1.6534958e-05
1.8866252e-05
2.1659685e-05
2.5024454e-05
2.9091071e-05
3.4025734e-05
4.0032411e-05
4.7357787e-05
5.6309478e-05
6.7265322e-05
8.1407617e-05
9.800826e-05
0.00011839341
0.00014345361
0.00017426347
0.00021418996
0.00026121049
0.00031914085
0.00039053356
0.00048309572
0.000592514
0.00072761737
0.00089456936
0.0010110678
0.0010104678
0.0010098427
0.0010091819
0.0010084753
0.0010077136
0.0010068851
0.0010059749
0.0010049729
0.0010038996
0.00100295
0.0010022048
0.0010016285
0.0010011935
0.00100088
0.0010006652
0.0010005065
0.0010003694
0.0010002436
0.0010001722
0.0010000747
1.1797706e-07
7.0659814e-06
3.200203e-06
4.1578379e-06
3.179429e-06
3.3734648e-06
3.52497e-06
3.2425305e-06
3.3752308e-06
3.1115975e-06
3.0292556e-06
2.9628176e-06
2.941892e-06
2.9525432e-06
2.9776857e-06
3.0395144e-06
3.1290326e-06
3.245061e-06
3.3877114e-06
3.5579545e-06
3.7578054e-06
3.989573e-06
4.2487455e-06
4.5526144e-06
4.9003543e-06
5.2976356e-06
5.7512755e-06
6.2696447e-06
6.8631127e-06
7.5445554e-06
8.3291925e-06
9.2369086e-06
1.0292098e-05
1.1525475e-05
1.2919452e-05
1.4617143e-05
1.6633579e-05
1.9040844e-05
2.2060993e-05
2.5573044e-05
2.9822525e-05
3.4983711e-05
4.1274359e-05
4.8954686e-05
5.8348367e-05
6.9856546e-05
8.3971978e-05
0.00010130022
0.0001236817
0.00015007201
0.00018253476
0.00022249
0.00027426567
0.00033536205
0.00041067726
0.00050847598
0.00062395169
0.00076654562
0.00094274602
0.0010105851
0.0010099447
0.0010092757
0.001008572
0.0010078221
0.0010070169
0.0010061488
0.0010052098
0.0010042051
0.0010031848
0.0010023807
0.0010017442
0.0010012585
0.0010008967
0.0010006342
0.0010004627
0.0010003367
0.0010002285
0.0010001249
0.0010000532
0.00099998972
1.1212818e-07
6.1051414e-06
2.820486e-06
3.5670898e-06
2.8368076e-06
2.7971199e-06
3.07423e-06
2.7203485e-06
2.7558294e-06
2.5853964e-06
2.530509e-06
2.501493e-06
2.5012085e-06
2.5293314e-06
2.5886332e-06
2.6750786e-06
2.7867997e-06
2.9236329e-06
3.086439e-06
3.2766288e-06
3.4914684e-06
3.7419559e-06
4.0281952e-06
4.3542309e-06
4.7248952e-06
5.1460504e-06
5.624826e-06
6.169917e-06
6.7920186e-06
7.4879904e-06
8.3016771e-06
9.241403e-06
1.0332571e-05
1.1607013e-05
1.3104554e-05
1.4875001e-05
1.6979957e-05
1.9496574e-05
2.2520629e-05
2.6170522e-05
3.059336e-05
3.6229683e-05
4.2844163e-05
5.0929052e-05
6.0825241e-05
7.295697e-05
8.7846709e-05
0.00010613853
0.00012980636
0.00015768639
0.00019199815
0.00023424235
0.00028905924
0.00035368669
0.00043338049
0.00053169807
0.00065923099
0.00081020152
0.00099674359
0.001010089
0.0010094079
0.0010086993
0.0010079581
0.0010071725
0.0010063327
0.0010054341
0.0010044734
0.0010034656
0.0010025892
0.0010018986
0.0010013565
0.0010009453
0.0010006499
0.0010004284
0.0010002922
0.001000191
0.0010001054
0.0010000345
0.00099999165
0.00099996079
1.072509e-07
4.2614188e-06
2.4760126e-06
3.0195242e-06
2.4072095e-06
2.3138989e-06
2.6028085e-06
2.2560227e-06
2.2406416e-06
2.1424213e-06
2.117855e-06
2.1140185e-06
2.1415208e-06
2.199805e-06
2.2848529e-06
2.394354e-06
2.527652e-06
2.685263e-06
2.8658348e-06
3.0754143e-06
3.3150168e-06
3.5874864e-06
3.8962826e-06
4.245611e-06
4.6405419e-06
5.087184e-06
5.592951e-06
6.1575558e-06
6.8071604e-06
7.5490946e-06
8.4005234e-06
9.3827707e-06
1.0522718e-05
1.1854131e-05
1.3419358e-05
1.5271197e-05
1.7475307e-05
2.011342e-05
2.3287284e-05
2.7123231e-05
3.1777908e-05
3.7444613e-05
4.4692788e-05
5.3223778e-05
6.3673748e-05
7.6491853e-05
9.2231777e-05
0.00011157739
0.00013537321
0.00016613927
0.00020246624
0.00024720644
0.00030233764
0.00037378046
0.00045823729
0.00056245231
0.00069775417
0.00085787008
0.0010102973
0.0010095825
0.0010088618
0.0010081174
0.0010073435
0.0010065295
0.0010056636
0.0010047426
0.0010037824
0.0010028267
0.001002086
0.0010014976
0.0010010377
0.0010006847
0.0010004437
0.0010002593
0.001000151
0.0010000676
0.00099999878
0.00099996161
0.00099996273
0.00099996974
1.0206236e-07
3.5150044e-06
2.1176086e-06
2.5161965e-06
2.0552797e-06
1.9100029e-06
2.1199354e-06
1.8493613e-06
1.8219243e-06
1.7784818e-06
1.7800851e-06
1.8069668e-06
1.8659308e-06
1.9507455e-06
2.059054e-06
2.1899895e-06
2.3437985e-06
2.5196437e-06
2.7223028e-06
2.9528924e-06
3.213939e-06
3.5085042e-06
3.8402476e-06
4.2135385e-06
4.6336221e-06
5.1068291e-06
5.634542e-06
6.2360502e-06
6.9186909e-06
7.6968457e-06
8.5886064e-06
9.6165642e-06
1.0809141e-05
1.220208e-05
1.3840389e-05
1.5780441e-05
1.8092265e-05
2.0862706e-05
2.4199837e-05
2.8237331e-05
3.3141238e-05
3.9400287e-05
4.6762185e-05
5.5770803e-05
6.6813296e-05
8.0365016e-05
9.7012348e-05
0.00011747943
0.00014398267
0.00017522435
0.00021368805
0.00026107371
0.00031947977
0.00039518412
0.00048469381
0.00059516958
0.00073866938
0.00090850478
0.0010098102
0.0010090698
0.0010083143
0.001007538
0.0010067349
0.0010058973
0.0010050144
0.0010040779
0.001003114
0.0010023064
0.0010016664
0.0010011658
0.0010007802
0.0010004901
0.0010002698
0.0010001255
0.0010000397
0.00099996939
0.00099991319
0.00099990268
0.00099994524
0.00099999214
9.8251846e-08
2.8065216e-06
1.8074433e-06
2.0118544e-06
1.7641469e-06
1.5644571e-06
1.6749171e-06
1.5051199e-06
1.492461e-06
1.4923617e-06
1.5205686e-06
1.5803034e-06
1.6656806e-06
1.7732343e-06
1.9020554e-06
2.0523628e-06
2.2240998e-06
2.4203932e-06
2.6428129e-06
2.8936786e-06
3.1757625e-06
3.4923057e-06
3.8471046e-06
4.24465e-06
4.6903249e-06
5.1870812e-06
5.7482043e-06
6.3811447e-06
7.0979199e-06
7.9136106e-06
8.8473611e-06
9.9230991e-06
1.1170956e-05
1.2628779e-05
1.4344187e-05
1.6377091e-05
1.8802427e-05
2.1712251e-05
2.5221592e-05
2.9472164e-05
3.4867787e-05
4.1220316e-05
4.8983199e-05
5.8489268e-05
7.0147021e-05
8.4460207e-05
0.00010204923
0.00012368062
0.00015165546
0.00018467725
0.00022534474
0.00027545658
0.00033723919
0.00041728853
0.00051200782
0.00062894541
0.00078084861
0.00096072092
0.0010093252
0.0010085604
0.0010077757
0.0010069723
0.0010061434
0.001005283
0.0010043884
0.0010034678
0.0010025625
0.001001875
0.0010013266
0.001000896
0.0010005638
0.0010003334
0.0010001532
0.0010000328
0.00099996088
0.00099990205
0.00099985919
0.00099987552
0.00099995697
0.001000023
9.6020276e-08
2.1886092e-06
1.5377374e-06
1.5323398e-06
1.4957334e-06
1.2691744e-06
1.3130383e-06
1.2305026e-06
1.2452919e-06
1.2758888e-06
1.3372869e-06
1.4228453e-06
1.5295439e-06
1.6560549e-06
1.8026319e-06
1.9702828e-06
2.1598553e-06
2.3743329e-06
2.6155374e-06
2.8860108e-06
3.1886699e-06
3.5268743e-06
3.9045235e-06
4.3262077e-06
4.7974168e-06
5.3248251e-06
5.9166604e-06
6.5831504e-06
7.3286168e-06
8.1823585e-06
9.158775e-06
1.0283218e-05
1.1587649e-05
1.3112213e-05
1.4907192e-05
1.710499e-05
1.966564e-05
2.2740849e-05
2.6453219e-05
3.0954102e-05
3.6430048e-05
4.3110652e-05
5.1279786e-05
6.1287198e-05
7.3564077e-05
8.8642449e-05
0.00010717771
0.00013111426
0.00015938351
0.0001941836
0.00023704938
0.00028987962
0.00035838662
0.00043934814
0.0005392632
0.00066265718
0.0008228848
0.0010096524
0.0010088529
0.0010080655
0.0010072577
0.0010064324
0.0010055846
0.0010047073
0.0010037964
0.0010028797
0.0010021209
0.0010015219
0.001001056
0.0010006913
0.0010004027
0.0010002033
0.0010000578
0.00099997999
0.00099991916
0.00099987488
0.0009998535
0.00099990375
0.0010000153
0.001000064
9.6151987e-08
1.6619568e-06
1.310141e-06
1.1653624e-06
1.2260176e-06
1.0221017e-06
1.047479e-06
1.0275613e-06
1.0706495e-06
1.1305808e-06
1.2159635e-06
1.3210333e-06
1.4447079e-06
1.5871252e-06
1.7493362e-06
1.9328352e-06
2.1391413e-06
2.3708258e-06
2.6300566e-06
2.919487e-06
3.2421199e-06
3.6013937e-06
4.0012938e-06
4.4465115e-06
4.9426646e-06
5.4965946e-06
6.1167651e-06
6.8137608e-06
7.6009089e-06
8.495067e-06
9.5175513e-06
1.0695371e-05
1.2062577e-05
1.3662012e-05
1.5547338e-05
1.778554e-05
2.0460021e-05
2.3674608e-05
2.7557862e-05
3.2269021e-05
3.8004887e-05
4.5007716e-05
5.357401e-05
6.4071338e-05
7.69516e-05
9.3540633e-05
0.00011313629
0.00013723304
0.00016688525
0.00020339669
0.00024837803
0.00030667463
0.00037555289
0.00046052326
0.00056542139
0.00070176734
0.00086314826
0.001009212
0.0010084026
0.0010075962
0.001006772
0.0010059293
0.001005067
0.001004187
0.0010032955
0.0010024259
0.0010017634
0.0010012396
0.0010008372
0.001000531
0.0010002979
0.0010001346
0.0010000013
0.00099995151
0.0009999098
0.00099988361
0.00099988582
0.00099995529
0.0010000626
0.0010000803
9.9446443e-08
1.232141e-06
1.121662e-06
8.970023e-07
1.0689045e-06
8.1834691e-07
8.6517928e-07
8.8996125e-07
9.5575832e-07
1.0387273e-06
1.1414709e-06
1.2615269e-06
1.39926e-06
1.5556559e-06
1.7321777e-06
1.9305386e-06
2.1526856e-06
2.4006431e-06
2.6770432e-06
2.9845177e-06
3.3261339e-06
3.7054031e-06
4.126399e-06
4.5939237e-06
5.1137365e-06
5.6928636e-06
6.3400158e-06
7.0661579e-06
7.8851397e-06
8.8145572e-06
9.8766852e-06
1.109982e-05
1.2519669e-05
1.4181186e-05
1.6140693e-05
1.8468517e-05
2.1252136e-05
2.460006e-05
2.8646572e-05
3.3557586e-05
3.9807964e-05
4.7169545e-05
5.6174005e-05
6.7206816e-05
8.0742108e-05
9.7364353e-05
0.00011779467
0.00014292308
0.00017384557
0.00021390336
0.00026116697
0.00031940884
0.00039122649
0.00047984587
0.00059502682
0.00073125843
0.00089969582
0.001008801
0.0010079795
0.00100716
0.0010063274
0.0010054765
0.0010046023
0.0010037092
0.0010028272
0.0010020801
0.0010014884
0.0010010259
0.0010006696
0.0010004019
0.0010002133
0.0010000807
0.00099996791
0.00099993642
0.00099990988
0.00099989609
0.00099990711
0.00099996627
0.0010000455
0.0010000568
1.0601073e-07
9.5269982e-07
9.5729156e-07
7.5857788e-07
7.6190924e-07
6.9798711e-07
7.4311933e-07
8.0292657e-07
8.8593243e-07
9.8498624e-07
1.1007794e-06
1.2332115e-06
1.3833351e-06
1.5524613e-06
1.7421777e-06
1.954256e-06
2.1906754e-06
2.4536405e-06
2.7456194e-06
3.0693892e-06
3.4281015e-06
3.8253706e-06
4.2653985e-06
4.7531515e-06
5.2946052e-06
5.8949662e-06
6.5663189e-06
7.3186626e-06
8.1736844e-06
9.1382571e-06
1.0240681e-05
1.1510654e-05
1.2985625e-05
1.4712674e-05
1.6750741e-05
1.9173321e-05
2.207175e-05
2.5559236e-05
2.9775769e-05
3.4894205e-05
4.1127752e-05
4.873922e-05
5.8052252e-05
6.9463636e-05
8.3464061e-05
0.00010065757
0.00012287366
0.00014906388
0.00018128242
0.00022094338
0.00026979558
0.00033000775
0.0004042698
0.00050063826
0.00061466463
0.00075558238
0.00092989798
0.0010084377
0.0010075998
0.0010067645
0.0010059245
0.0010050755
0.0010042114
0.0010033325
0.0010024728
0.0010018101
0.0010012811
0.0010008704
0.0010005541
0.0010003126
0.0010001484
0.0010000336
0.00099996474
0.00099992344
0.0009999041
0.00099989246
0.00099990029
0.00099994746
0.0010000174
0.0010000393
1.2051784e-07
9.5616736e-07
7.9873117e-07
5.6242246e-07
6.054756e-07
6.0841704e-07
6.7174665e-07
7.5027676e-07
8.4675398e-07
9.5793905e-07
1.0848134e-06
1.228196e-06
1.3893729e-06
1.5697495e-06
1.7709386e-06
1.9947363e-06
2.2431499e-06
2.5184248e-06
2.8230802e-06
3.1599534e-06
3.5322617e-06
3.9436884e-06
4.3985069e-06
4.9017576e-06
5.4594997e-06
6.0791561e-06
6.7699722e-06
7.5436032e-06
8.4148618e-06
9.4026107e-06
1.0530838e-05
1.1830004e-05
1.3338573e-05
1.5104911e-05
1.7189548e-05
1.9667926e-05
2.2633747e-05
2.6203038e-05
3.0519141e-05
3.5758849e-05
4.2140059e-05
5.0289098e-05
5.9895036e-05
7.1661182e-05
8.6092402e-05
0.00010380981
0.00012557999
0.00015234948
0.00018528798
0.00022584052
0.00027580011
0.00034050382
0.00041702656
0.00051146525
0.00062812059
0.00077236018
0.00095088189
0.0010081497
0.0010072943
0.0010064389
0.001005582
0.0010047227
0.0010038605
0.001003004
0.0010022131
0.0010016036
0.0010011234
0.001000753
0.0010004714
0.0010002578
0.0010001099
0.00099999986
0.00099995365
0.00099991727
0.00099990074
0.00099989089
0.00099989737
0.00099993502
0.00099999377
0.0010000213
1.1049852e-07
6.1649195e-07
6.3327985e-07
4.657666e-07
5.0805787e-07
5.5367605e-07
6.3208539e-07
7.2420388e-07
8.3132615e-07
9.5278499e-07
1.0896498e-06
1.2429682e-06
1.4140525e-06
1.6043622e-06
1.8155431e-06
2.0494373e-06
2.3081075e-06
2.5938291e-06
2.909233e-06
3.2572064e-06
3.6410368e-06
4.0644785e-06
4.5318782e-06
5.0483526e-06
5.6200453e-06
6.2544775e-06
6.9610156e-06
7.7514778e-06
8.6479629e-06
9.6587001e-06
1.0813019e-05
1.2142154e-05
1.3685487e-05
1.5492502e-05
1.7625063e-05
2.0160227e-05
2.3193642e-05
2.68437e-05
3.1256649e-05
3.6612852e-05
4.313446e-05
5.1094792e-05
6.0829865e-05
7.2754447e-05
8.7378844e-05
0.00010533251
0.0001273923
0.00015587411
0.00018949546
0.00023087711
0.00028184782
0.00034467376
0.0004221715
0.00051784761
0.00063607651
0.0007823261
0.00096342706
0.0010079555
0.0010070904
0.0010062229
0.0010053531
0.0010044812
0.0010036104
0.0010027611
0.0010020313
0.0010014604
0.0010010135
0.0010006696
0.0010004118
0.0010002264