/*--------------------------------*- C++ -*----------------------------------*\
  =========                 |
  \\      /  F ield         | OpenFOAM: The Open Source CFD Toolbox
   \\    /   O peration     | Website:  https://openfoam.org
    \\  /    A nd           | Version:  12
     \\/     M anipulation  |
\*---------------------------------------------------------------------------*/
FoamFile
{
    format      ascii;
    class       volVectorField;
    location    "0.113";
    object      U;
}
// * * * * * * * * * * * * * * * * * * * * * * * * * * * * * * * * * * * * * //

dimensions      [0 1 -1 0 0 0 0];

internalField   nonuniform List<vector> 
16000
(
(215.60745 -3.1374302e-17 -8.3767285)
(252.50243 0 5.3828476)
(238.60262 0 -7.56265)
(246.27423 4.9653365e-17 3.7806955)
(241.59696 -4.9010266e-17 -5.9429045)
(243.7956 0 1.7518822)
(242.00763 0 -4.3099438)
(242.5094 8.3888094e-17 -0.02537892)
(241.67274 -7.9699257e-17 -3.1405561)
(241.54949 0 -1.2569351)
(241.03671 7.2013481e-17 -2.5450337)
(240.68915 -2.0516548e-16 -1.9661042)
(240.24587 1.2985624e-16 -2.4000429)
(239.8173 -1.235228e-16 -2.335358)
(239.36072 1.1719835e-16 -2.4931923)
(238.89025 -3.4764949e-18 -2.5622184)
(238.40117 -3.3025184e-18 -2.6624937)
(237.89436 -9.7452968e-17 -2.7519605)
(237.36929 1.9093068e-16 -2.8430581)
(236.82582 -9.0589053e-17 -2.9318191)
(236.26379 1.7231249e-16 -3.0186236)
(235.68312 -1.6333762e-16 -3.1027695)
(235.08383 0 -3.1837557)
(234.46598 1.5204127e-16 -3.2609974)
(233.82978 -4.114857e-18 -3.3339019)
(233.17551 -2.6535967e-16 -3.4018444)
(232.50358 1.2577132e-16 -3.4641934)
(231.81451 0 -3.5203041)
(231.10896 0 -3.5695348)
(230.38771 2.1842415e-16 -3.6112521)
(229.65168 -2.0351344e-16 -3.6448439)
(228.90192 0 -3.6697285)
(228.13964 0 -3.6853652)
(227.36615 0 -3.691269)
(226.58291 5.1344131e-18 -3.6870204)
(225.79147 1.5582123e-16 -3.6722768)
(224.99353 -1.4264193e-16 -3.6467847)
(224.19084 -1.3970767e-16 -3.6103872)
(223.38525 1.2370334e-16 -3.5630333)
(222.57867 0 -3.5047853)
(221.77302 -1.1839655e-16 -3.4358198)
(220.97027 1.1175388e-16 -3.3564321)
(220.17236 -2.1179643e-16 -3.2670324)
(219.38121 1.9982613e-16 -3.1681434)
(218.59865 -1.9516186e-16 -3.0603933)
(217.82649 3.5731423e-16 -2.9445054)
(217.0664 5.5985487e-18 -2.8212877)
(216.31993 2.9746251e-19 -2.6916185)
(215.58853 -1.5040345e-16 -2.5564307)
(214.87348 1.4225088e-16 -2.416695)
(214.1759 -1.2565296e-16 -2.2734025)
(213.49677 0 -2.1275468)
(212.83687 7.4682062e-18 -1.9801078)
(212.19681 0 -1.832036)
(211.57703 6.6460254e-18 -1.6842386)
(210.97776 2.0695274e-16 -1.5375693)
(210.39906 -3.7826597e-16 -1.3928188)
(209.84082 1.0920965e-17 -1.250707)
(209.30276 1.6809622e-16 -1.1118771)
(208.78444 -1.4879464e-16 -0.97690398)
(208.28528 1.4015755e-16 -0.84627201)
(207.80465 -8.8195356e-18 -0.72041643)
(207.34187 0 -0.59968612)
(206.89607 0 -0.48432963)
(206.46616 -1.1115485e-16 -0.37451034)
(206.05079 1.1183447e-16 -0.27029645)
(205.64834 -9.9100314e-17 -0.17167384)
(205.25694 1.9344123e-16 -0.078565265)
(204.87449 -1.8878621e-16 0.0091534724)
(204.49858 8.3692903e-17 0.091670316)
(204.1266 5.2850557e-18 0.16924405)
(203.75579 0 0.2420731)
(203.38371 4.7518112e-18 0.31038825)
(203.00857 -4.5137103e-18 0.37493252)
(202.62879 0 0.43674091)
(202.25271 -3.3758422e-17 0.49111375)
(201.79424 6.2477419e-17 0.52602766)
(201.59508 -3.1753714e-17 0.69706137)
(200.72517 0 0.32427905)
(201.00915 0 1.3969404)
(216.9137 0 -11.197997)
(254.13416 -3.7232372e-18 3.3345081)
(239.5718 -1.1965694e-16 -10.488523)
(247.73126 1.1032564e-16 1.6991791)
(242.69729 0 -8.8035593)
(245.12961 1.0150463e-16 -0.40396677)
(243.13562 -1.8743863e-16 -7.0557728)
(243.72763 -1.0222692e-19 -2.3045723)
(242.79886 8.4470429e-17 -5.7321653)
(242.677 0 -3.6549712)
(242.1233 -1.525822e-16 -5.022046)
(241.74701 1.4925309e-16 -4.4102074)
(241.27179 1.4195375e-16 -4.8310687)
(240.80896 -2.6131612e-16 -4.7670694)
(240.31796 1.2012806e-16 -4.9050338)
(239.81123 1.1043845e-17 -4.9667706)
(239.28488 1.1548476e-16 -5.0515721)
(238.73953 -1.0285214e-16 -5.1273702)
(238.17477 0 -5.2024758)
(237.59049 0 -5.2741913)
(236.98662 5.675388e-18 -5.3423993)
(236.36318 -1.7804461e-16 -5.4063905)
(235.72027 3.3760617e-16 -5.4655317)
(235.05811 -3.1546853e-16 -5.5191399)
(234.37705 1.4258933e-16 -5.5665174)
(233.67752 0 -5.6069524)
(232.96012 1.2436411e-16 -5.6397239)
(232.22556 -1.3335572e-16 -5.6641179)
(231.47472 0 -5.6794334)
(230.70858 3.5240488e-18 -5.6849956)
(229.92832 -1.3367257e-17 -5.6801656)
(229.13522 0 -5.6643573)
(228.33072 0 -5.6370442)
(227.5164 -1.7057548e-16 -5.59778)
(226.69394 3.3870631e-16 -5.5462067)
(225.86515 -1.6264494e-16 -5.4820682)
(225.03194 -1.5905136e-16 -5.405223)
(224.19627 1.4557412e-16 -5.3156509)
(223.36018 -1.1212586e-16 -5.2134621)
(222.52573 -2.8585402e-19 -5.0989017)
(221.69499 -2.6742825e-19 -4.9723512)
(220.86999 2.3273704e-16 -4.8343273)
(220.05274 -1.0980942e-16 -4.685477)
(219.24517 0 -4.5265697)
(218.4491 2.0233637e-16 -4.3584874)
(217.66626 1.1935131e-17 -4.1822102)
(216.89821 -5.1165552e-18 -3.9988003)
(216.1464 -1.6451167e-16 -3.8093841)
(215.41208 0 -3.6151327)
(214.69636 -1.4653769e-16 -3.4172415)
(214.00014 -8.8587766e-18 -3.2169108)
(213.32418 2.6008838e-16 -3.0153247)
(212.66902 -1.3007806e-16 -2.8136344)
(212.03505 0 -2.6129405)
(211.42246 -2.0381776e-17 -2.4142791)
(210.83127 -2.1120361e-16 -2.218612)
(210.26134 3.6127073e-16 -2.0268161)
(209.71235 -2.1527496e-16 -1.8396787)
(209.18384 0 -1.6578915)
(208.67522 -1.7080574e-16 -1.4820595)
(208.18576 1.7949204e-16 -1.3126809)
(207.71468 2.6687776e-17 -1.1501776)
(207.26117 0 -0.99488682)
(206.82429 -1.4190519e-16 -0.8470242)
(206.40288 7.3196554e-18 -0.70670909)
(205.99554 1.1172189e-16 -0.57395549)
(205.60062 -1.9739287e-17 -0.44868435)
(205.21623 9.3014945e-17 -0.33074779)
(204.84024 -1.0513749e-16 -0.21994519)
(204.47025 5.5094494e-18 -0.11600564)
(204.10356 -5.1985255e-18 -0.018613331)
(203.73725 0 0.072433625)
(203.36875 -4.6384238e-18 0.1575054)
(202.99681 4.3872773e-18 0.2379567)
(202.61993 8.3091097e-18 0.31335587)
(202.22916 9.8458724e-19 0.374881)
(201.82611 0 0.44828615)
(201.48857 3.023738e-17 0.56550416)
(200.83304 -5.7572371e-17 0.29059886)
(200.89915 2.5867063e-17 1.264049)
(218.08779 0 -14.09292)
(255.61578 -1.2246738e-16 1.0894471)
(240.51048 2.4974041e-16 -13.500355)
(248.98882 -2.2303717e-16 -0.55469929)
(243.69352 1.1015179e-16 -11.742464)
(246.26195 -3.2617394e-18 -2.7537837)
(244.1403 9.9275772e-17 -9.850295)
(244.75765 -9.4022783e-17 -4.783285)
(243.77203 -5.581365e-18 -8.3883042)
(243.62665 -5.2994725e-18 -6.2200769)
(243.03754 -1.0067061e-17 -7.5980278)
(242.62517 1.3889335e-16 -6.9916452)
(242.11444 -1.407877e-16 -7.3813534)
(241.61308 1.3817443e-16 -7.3241864)
(241.08297 -1.1869926e-16 -7.4408234)
(240.53547 -1.5557192e-17 -7.4944431)
(239.96711 0 -7.5636137)
(239.37848 -1.2490109e-20 -7.6245298)
(238.76926 -2.2627375e-16 -7.6825282)
(238.13944 -3.6682083e-19 -7.7355792)
(237.48906 1.734329e-16 -7.7832496)
(236.81828 1.7035841e-17 -7.8247447)
(236.12734 -2.1548148e-17 -7.85931)
(235.41663 0 -7.8861574)
(234.68667 7.4928542e-21 -7.9044926)
(233.93811 -1.6541519e-16 -7.9135179)
(233.17175 1.4778052e-16 -7.9124437)
(232.38856 8.2481098e-18 -7.9004965)
(231.58965 0 -7.8769376)
(230.77629 -7.3996963e-18 -7.84107)
(229.94991 -9.7159934e-22 -7.7922585)
(229.1121 -1.9918738e-16 -7.7299418)
(228.26458 2.0060719e-16 -7.6536478)
(227.40921 1.188679e-17 -7.5630125)
(226.54797 -1.7995691e-16 -7.4577884)
(225.68294 1.4851993e-16 -7.3378622)
(224.81626 -1.8097146e-16 -7.2032628)
(223.95012 1.5168735e-16 -7.0541709)
(223.08675 -1.436258e-16 -6.8909216)
(222.22837 1.3536085e-16 -6.714009)
(221.37713 1.600492e-17 -6.5240833)
(220.53516 0 -6.3219422)
(219.70446 1.9965466e-16 -6.1085249)
(218.88694 -2.4166209e-16 -5.8848963)
(218.08433 0 -5.6522314)
(217.29824 1.7936372e-16 -5.4117977)
(216.53006 -1.5739761e-16 -5.1649315)
(215.78103 1.6982637e-16 -4.913017)
(215.05217 -1.7963129e-16 -4.6574625)
(214.34431 0 -4.3996779)
(213.65811 1.7713491e-16 -4.1410529)
(212.99399 -1.3312458e-16 -3.8829346)
(212.35224 0 -3.6266103)
(211.73294 0 -3.3732918)
(211.136 1.2473923e-16 -3.1240997)
(210.56118 -2.0832343e-16 -2.8800572)
(210.00808 1.2229174e-16 -2.642081)
(209.47616 1.8404938e-16 -2.4109784)
(208.96476 2.0064624e-19 -2.1874437)
(208.4731 1.7876229e-19 -1.9720664)
(208.0003 -3.2396851e-16 -1.7653231)
(207.54542 8.9408735e-17 -1.5675867)
(207.10753 0 -1.37915)
(206.68558 1.4210925e-16 -1.2001719)
(206.27835 -1.6301227e-16 -1.0307044)
(205.88438 1.1142207e-16 -0.8706897)
(205.50199 1.3153456e-17 -0.71997078)
(205.12927 -8.5975954e-17 -0.57831939)
(204.7641 1.1545949e-17 -0.44544837)
(204.40409 2.1712587e-17 -0.32100346)
(204.04651 -1.0210855e-16 -0.20462886)
(203.68834 9.6030632e-17 -0.096073076)
(203.32712 -7.2356447e-17 0.005310058)
(202.96163 1.3629452e-16 0.10082606)
(202.58873 -5.6202348e-17 0.18815821)
(202.20121 -6.0640445e-17 0.26325305)
(201.81856 5.0102927e-17 0.3568843)
(201.43034 0 0.44070057)
(200.87337 3.206754e-18 0.25709172)
(200.83617 -1.2163583e-17 1.1184331)
(219.10252 0 -17.056903)
(256.94825 0 -1.2905662)
(241.27035 0 -16.647285)
(250.06618 1.0658846e-16 -2.9152805)
(244.50331 -1.2376227e-16 -14.811208)
(247.22776 -2.2042305e-16 -5.2212029)
(244.9637 2.0963912e-16 -12.763173)
(245.60969 -1.2416495e-17 -7.3889746)
(244.55968 5.9125635e-18 -11.155058)
(244.38704 -1.7386515e-16 -8.9164562)
(243.75796 1.7021173e-16 -10.285409)
(243.30411 1.0115815e-17 -9.6983718)
(242.75302 -1.5360714e-16 -10.048989)
(242.20786 1.3645225e-16 -10.000201)
(241.63355 -1.3943604e-20 -10.094222)
(241.04018 -8.1830979e-18 -10.137742)
(240.42483 0 -10.189653)
(239.78805 -7.387459e-18 -10.233216)
(239.12966 -2.1028532e-16 -10.271439)
(238.44978 2.123306e-16 -10.302738)
(237.74857 1.2603863e-17 -10.326452)
(237.02634 -1.1949573e-17 -10.341699)
(236.28351 2.1533004e-16 -10.347624)
(235.52068 -1.7152169e-16 -10.343348)
(234.73856 1.0171873e-17 -10.327985)
(233.93807 1.928728e-16 -10.300667)
(233.12026 -1.2758598e-16 -10.260539)
(232.28639 0 -10.206788)
(231.43788 1.4742508e-16 -10.13865)
(230.57632 -1.2374607e-16 -10.055437)
(229.70349 2.4939646e-16 -9.956542)
(228.82129 -1.3321252e-17 -9.8414715)
(227.9318 -2.0948932e-16 -9.7098526)
(227.03719 1.7375491e-16 -9.5614549)
(226.13976 -1.8717912e-16 -9.3962008)
(225.24186 -2.9270053e-20 -9.2141817)
(224.34588 2.0925287e-16 -9.0156635)
(223.45423 -3.1579856e-16 -8.8010919)
(222.5693 9.2945799e-17 -8.571094)
(221.6934 3.5189305e-17 -8.3264736)
(220.82876 -4.9759734e-17 -8.0682055)
(219.9775 0 -7.7974196)
(219.14155 -8.8542742e-17 -7.5153876)
(218.32271 1.3867621e-16 -7.2235004)
(217.52255 -2.0939093e-16 -6.923247)
(216.74244 1.9674404e-16 -6.616191)
(215.98354 -2.0868082e-16 -6.3039411)
(215.24679 3.923911e-16 -5.9881268)
(214.53288 -3.0751022e-16 -5.6703728)
(213.84233 3.0836735e-16 -5.3522733)
(213.17542 -1.4473938e-16 -5.0353695)
(212.53225 1.3624722e-16 -4.7211301)
(211.91274 -9.5779826e-17 -4.4109319)
(211.31666 3.0033767e-17 -4.1060484)
(210.74361 0 -3.8076357)
(210.19305 0 -3.5167292)
(209.66432 0 -3.2342374)
(209.15664 2.3250451e-17 -2.9609422)
(208.66914 0 -2.6974985)
(208.20086 -1.6364584e-16 -2.4444426)
(207.75077 1.9157243e-16 -2.2021926)
(207.31779 -1.0783132e-16 -1.9710479)
(206.90087 -1.1924386e-19 -1.751226)
(206.49887 2.5228557e-16 -1.5428112)
(206.11051 2.9633899e-17 -1.3457732)
(205.73429 -1.3837388e-16 -1.1599715)
(205.36852 5.1894848e-17 -0.98516561)
(205.01128 -1.4578346e-16 -0.82104189)
(204.66048 -4.555276e-17 -0.66722489)
(204.31375 -6.4034865e-17 -0.52328579)
(203.96835 -6.0049867e-17 -0.3888293)
(203.62127 5.6272291e-17 -0.26349986)
(203.27009 0 -0.14643652)
(202.91327 0 -0.036813581)
(202.54694 -1.551149e-17 0.062399611)
(202.16831 0 0.15232102)
(201.79293 6.8523419e-18 0.25674123)
(201.39091 5.1607203e-17 0.32396284)
(200.90213 -7.2878087e-17 0.22040745)
(200.77473 -1.6630874e-20 0.97074226)
(219.93943 0 -20.218687)
(258.10809 -8.811341e-18 -3.7482752)
(241.89117 2.6651353e-16 -19.92986)
(250.92387 -2.4893806e-16 -5.3999993)
(245.07712 2.540216e-16 -17.994072)
(247.99086 -2.3240431e-16 -7.841322)
(245.58714 -2.2154145e-16 -15.781288)
(246.25071 2.0971625e-16 -10.152594)
(245.13867 0 -14.02478)
(244.9284 0 -11.762751)
(244.25712 1.797294e-16 -13.087125)
(243.75503 -1.7026749e-16 -12.537908)
(243.15887 -1.0115235e-17 -12.839711)
(242.56472 2.8770414e-17 -12.798566)
(241.9413 -9.1048761e-18 -12.867893)
(241.29724 3.4532047e-17 -12.897568)
(240.63018 0 -12.929265)
(239.94062 0 -12.951719)
(239.22851 -2.3583152e-16 -12.966336)
(238.49408 2.0914919e-16 -12.971756)
(237.73766 0 -12.967133)
(236.95974 0 -12.951481)
(236.16097 -1.9030133e-16 -12.923814)
(235.3422 3.6014011e-16 -12.883146)
(234.50444 -1.7033449e-16 -12.828494)
(233.64891 -2.0179945e-17 -12.758902)
(232.77703 -3.8220305e-17 -12.673464)
(231.89042 -1.4482312e-16 -12.571336)
(230.99089 1.195735e-16 -12.451762)
(230.08043 0 -12.314094)
(229.16121 -3.0625076e-17 -12.157812)
(228.23554 0 -11.982546)
(227.30588 0 -11.78809)
(226.37477 2.0674857e-16 -11.574427)
(225.44481 -2.1913766e-16 -11.341731)
(224.51863 2.2988201e-17 -11.090381)
(223.59888 -2.1690868e-17 -10.820965)
(222.68812 -4.1006722e-17 -10.534279)
(221.78884 -8.4298131e-20 -10.231319)
(220.90341 8.0075933e-20 -9.9132688)
(220.03401 -7.5565844e-20 -9.5814906)
(219.18267 0 -9.2374942)
(218.35117 -1.2173777e-16 -8.8829218)
(217.54107 1.1431785e-16 -8.5195135)
(216.75367 0 -8.1490806)
(215.99003 -5.0669243e-17 -7.7734789)
(215.25093 1.9044612e-16 -7.3945717)
(214.53693 -2.2325896e-16 -7.0142058)
(213.84834 -2.10047e-16 -6.6341827)
(213.18523 1.5748199e-16 -6.2562341)
(212.5475 1.1107157e-16 -5.8820001)
(211.93484 -1.3864468e-16 -5.5130124)
(211.3468 -3.2506413e-17 -5.1506774)
(210.78276 -2.1354834e-16 -4.7962695)
(210.242 1.1421459e-16 -4.4509201)
(209.7237 -1.071249e-16 -4.1156184)
(209.22691 1.0019937e-16 -3.7912106)
(208.75063 2.3477624e-16 -3.4784019)
(208.29378 -1.7559384e-16 -3.1777608)
(207.85524 0 -2.8897311)
(207.43382 -3.8428213e-17 -2.6146322)
(207.02835 -7.1934983e-17 -2.3526633)
(206.63766 1.3441068e-16 -2.1039388)
(206.26055 1.2575944e-16 -1.8684485)
(205.89568 -2.3501598e-16 -1.6460644)
(205.54156 8.2310959e-17 -1.4365535)
(205.19645 5.1311685e-17 -1.2395845)
(204.85849 9.5927843e-17 -1.0547543)
(204.5256 1.3448684e-16 -0.88159899)
(204.19549 2.5386425e-20 -0.71962107)
(203.86542 0 -0.56837172)
(203.53245 0 -0.42736241)
(203.19416 -3.4226385e-17 -0.29564674)
(202.84857 9.6032713e-17 -0.17295017)
(202.49222 -8.9816726e-17 -0.061904575)
(202.1252 -8.4080073e-17 0.042076901)
(201.75592 5.2468729e-17 0.15346292)
(201.35313 0 0.2131058)
(200.90884 4.6075709e-17 0.18030677)
(200.72925 3.0316169e-20 0.82509882)
(220.57792 0 -23.552775)
(259.06941 1.9173641e-20 -6.282549)
(242.31853 9.0692787e-18 -23.308883)
(251.61448 2.8832501e-16 -8.0233576)
(245.49629 3.3347232e-19 -21.280562)
(248.52292 -5.0572261e-16 -10.612188)
(245.96527 -3.2376221e-19 -18.894594)
(246.6516 4.5612217e-16 -13.078667)
(245.47717 -2.0986039e-16 -16.9955)
(245.22352 -1.2448158e-17 -14.758475)
(244.50861 1.1823099e-17 -16.002116)
(243.95323 -1.7952558e-16 -15.503351)
(243.30831 1.9126187e-16 -15.748341)
(242.66099 -1.8173137e-16 -15.710791)
(241.98411 3.0612957e-16 -15.753111)
(241.28481 -3.0843655e-16 -15.764461)
(240.56128 1.3746676e-16 -15.772527)
(239.81401 0 -15.769863)
(239.04313 0 -15.75674)
(238.24909 1.4643386e-17 -15.731808)
(237.43244 -2.7765068e-17 -15.694004)
(236.59398 0 -15.64218)
(235.73469 1.9938374e-16 -15.575196)
(234.85576 4.7240946e-19 -15.491942)
(233.95862 -3.5683597e-16 -15.391334)
(233.04491 1.6860716e-16 -15.272354)
(232.11652 1.9949891e-17 -15.134075)
(231.17552 0 -14.97567)
(230.22421 -1.7871411e-16 -14.79645)
(229.26507 1.3476174e-16 -14.595883)
(228.30072 -2.2347455e-16 -14.373616)
(227.33392 2.1034583e-16 -14.1295)
(226.36755 -2.2765391e-16 -13.863596)
(225.40449 2.1428658e-16 -13.576204)
(224.44768 7.5963934e-17 -13.267856)
(223.49999 0 -12.939324)
(222.56421 0 -12.59162)
(221.64302 4.2339917e-17 -12.22598)
(220.73891 3.9879074e-17 -11.843851)
(219.85416 -3.7545733e-17 -11.446868)
(218.99083 3.533409e-17 -11.036829)
(218.15069 6.666243e-17 -10.615661)
(217.33523 -6.2614466e-17 -10.185395)
(216.54567 3.5302496e-16 -9.7481209)
(215.78289 -2.7614946e-16 -9.3059586)
(215.0475 5.1832451e-17 -8.8610244)
(214.33984 -4.8770826e-17 -8.4153946)
(213.65997 0 -7.9710795)
(213.00771 2.1436958e-16 -7.5299946)
(212.38267 -1.6056675e-16 -7.0939416)
(211.78428 0 -6.6645868)
(211.2118 0 -6.243452)
(210.66437 1.3212726e-16 -5.831901)
(210.14101 -6.1755121e-17 -5.4311379)
(209.64067 0 -5.0422036)
(209.16223 -1.6226934e-16 -4.6659794)
(208.70449 1.0101013e-16 -4.303192)
(208.26624 1.4178538e-16 -3.9544199)
(207.84623 -1.7636994e-16 -3.6201008)
(207.4432 1.6485991e-16 -3.3005467)
(207.05584 -1.537794e-16 -2.9959464)
(206.68289 6.400014e-20 -2.7063712)
(206.32312 0 -2.4318106)
(205.97527 6.2512897e-17 -2.1721427)
(205.638 -2.914543e-16 -1.9271307)
(205.3098 1.6300569e-16 -1.6964414)
(204.98896 0 -1.4796499)
(204.67366 -1.4173376e-16 -1.2762616)
(204.36186 8.804132e-17 -1.0857281)
(204.05135 1.2316851e-16 -0.9074849)
(203.73947 3.6232457e-20 -0.74101193)
(203.42337 -7.1287503e-17 -0.58569021)
(203.10055 9.9702165e-17 -0.44060226)
(202.76875 -1.5488278e-16 -0.30589927)
(202.42534 8.662581e-17 -0.18337752)
(202.07194 2.6911921e-17 -0.066643029)
(201.71076 5.0233554e-17 0.050091454)
(201.31398 0 0.10835014)
(200.90795 -4.3744412e-17 0.13611933)
(200.68693 2.0390157e-17 0.68340822)
(221.00181 0 -27.055819)
(259.82462 9.8050434e-18 -8.9219707)
(242.54597 -3.0575914e-16 -26.812079)
(252.1204 2.4965643e-16 -10.788969)
(245.71855 2.5644249e-16 -24.666201)
(248.81332 -5.0016262e-16 -13.537736)
(246.14399 2.3006204e-16 -22.090705)
(246.79662 2.3291994e-16 -16.166883)
(245.57942 -2.2074047e-16 -20.051726)
(245.26167 3.9291375e-17 -17.890125)
(244.50235 0 -19.018035)
(243.88824 0 -18.578914)
(243.1896 -2.2347063e-17 -18.763505)
(242.48327 -1.6966086e-16 -18.725405)
(241.7466 1.4040708e-16 -18.740056)
(240.9854 1.9046685e-17 -18.729607)
(240.19849 -3.6104956e-17 -18.711098)
(239.38652 3.0804857e-16 -18.679456)
(238.54994 -2.263732e-16 -18.63415)
(237.68951 2.457064e-16 -18.57372)
(236.80619 -2.0304301e-16 -18.496894)
(235.90116 2.7529155e-17 -18.402366)
(234.97587 1.5640394e-16 -18.288869)
(234.03201 -1.9671633e-16 -18.155198)
(233.07152 0 -18.000224)
(232.09661 0 -17.822927)
(231.1097 0 -17.622429)
(230.11346 -1.9702874e-16 -17.398014)
(229.11073 1.8560329e-16 -17.149161)
(228.10454 -3.5168542e-17 -16.875564)
(227.09804 0 -16.577162)
(226.09444 -2.8193085e-16 -16.254151)
(225.09702 2.3563614e-16 -15.906995)
(224.109 -5.5734043e-17 -15.536438)
(223.13355 1.5761965e-16 -15.143503)
(222.1737 -4.8978558e-17 -14.729474)
(221.23231 -1.8579034e-16 -14.295892)
(220.31199 2.1917735e-16 -13.844527)
(219.41512 -1.6454617e-16 -13.377349)
(218.54373 7.7616481e-17 -12.896494)
(217.69956 -7.283375e-17 -12.404231)
(216.88399 1.3690957e-16 -11.902913)
(216.09805 -6.4155225e-17 -11.394947)
(215.34243 -2.4146165e-16 -10.882745)
(214.61748 5.0915943e-16 -10.368686)
(213.92326 -2.120602e-16 -9.8550849)
(213.25951 -1.4944042e-16 -9.3441583)
(212.62573 9.2913406e-17 -8.8379965)
(212.0212 8.7401002e-17 -8.3385432)
(211.44501 -1.6350928e-16 -7.8475791)
(210.89609 1.5277129e-16 -7.3667092)
(210.37328 0 -6.897358)
(209.8753 1.3372364e-16 -6.4407653)
(209.40082 -1.8730419e-16 -5.9979894)
(208.94849 5.8370663e-17 -5.5699113)
(208.51693 5.4401531e-17 -5.157243)
(208.10473 0 -4.7605381)
(207.7105 0 -4.3802013)
(207.33286 0 -4.0164998)
(206.97043 0 -3.6695806)
(206.62186 0 -3.3394743)
(206.28582 -7.1482617e-17 -3.0261039)
(205.96104 0 -2.7293182)
(205.64628 -5.2117343e-20 -2.4488702)
(205.34017 2.3083294e-16 -2.1844084)
(205.04123 -2.1473723e-16 -1.9354955)
(204.74783 -9.9963481e-17 -1.7016118)
(204.45815 -1.858695e-16 -1.4821738)
(204.17028 2.5908373e-16 -1.2765529)
(203.88205 3.8934884e-20 -1.0841167)
(203.59095 7.4622238e-17 -0.9042585)
(203.29423 0 -0.73625337)
(202.9893 0 -0.57928295)
(202.67375 0 -0.43371395)
(202.34596 -1.1138574e-16 -0.30034276)
(202.00823 0 -0.172414)
(201.65786 -9.6242872e-17 -0.051211133)
(201.27163 1.3416939e-16 0.010158454)
(200.89725 8.31541e-17 0.085413052)
(200.64566 -1.9299393e-17 0.54748743)
(221.21584 0 -30.735878)
(260.38051 0 -11.670158)
(242.57989 3.2169295e-16 -30.447181)
(252.44561 1.9301455e-17 -13.712885)
(245.75565 -2.6919541e-16 -28.161828)
(248.92448 0 -16.640694)
(246.12122 1.612936e-17 -25.365167)
(246.81562 -3.057348e-17 -19.408673)
(245.433 0 -23.172839)
(245.04572 1.9272509e-16 -21.141013)
(244.23487 -4.1724707e-16 -22.131114)
(243.55148 1.9757306e-16 -21.759429)
(242.78929 2.345028e-17 -21.88568)
(242.01401 0 -21.842555)
(241.2076 2.1042495e-17 -21.828689)
(240.37475 -3.3942998e-16 -21.792099)
(239.51497 7.4828085e-17 -21.742484)
(238.62914 2.5014607e-16 -21.676177)
(237.71816 2.37563e-16 -21.59215)
(236.78321 -2.5624365e-16 -21.488829)
(235.82575 0 -21.364774)
(234.84752 -2.8752287e-16 -21.218571)
(233.85055 2.4412561e-16 -21.048872)
(232.83714 -2.0577035e-16 -20.85445)
(231.80991 1.9394262e-16 -20.634209)
(230.7717 -1.8380124e-16 -20.387221)
(229.72563 3.4673486e-16 -20.112777)
(228.67501 -1.6362444e-16 -19.810392)
(227.62333 1.5475175e-16 -19.479858)
(226.57417 -2.9175596e-16 -19.121248)
(225.53121 1.3731925e-16 -18.734951)
(224.4981 1.2968954e-16 -18.321674)
(223.47845 -2.4469445e-16 -17.882442)
(222.47572 5.6808386e-17 -17.418597)
(221.49319 -5.7498989e-19 -16.931791)
(220.53389 2.5458208e-16 -16.423937)
(219.60056 0 -15.897208)
(218.69558 1.9258717e-19 -15.35398)
(217.82096 0 -14.796794)
(216.9783 -7.9470134e-17 -14.228309)
(216.1688 -1.4935261e-16 -13.651257)
(215.39326 7.0121627e-17 -13.068388)
(214.65206 0 -12.482429)
(213.94522 -6.1793759e-17 -11.896039)
(213.27242 2.8923445e-16 -11.311769)
(212.63301 -3.2472096e-16 -10.732033)
(212.02611 -3.0426503e-16 -10.159076)
(211.45057 2.8409277e-16 -9.5949605)
(210.9051 -1.7729475e-16 -9.041545)
(210.38826 0 -8.5004828)
(209.89851 0 -7.9732161)
(209.43424 7.2362311e-17 -7.4609783)
(208.99383 6.753224e-17 -6.964801)
(208.57564 1.2586052e-16 -6.485522)
(208.17807 -5.8689682e-17 -6.0237971)
(207.79951 -1.0932933e-16 -5.5801139)
(207.43842 -2.0388445e-16 -5.1548062)
(207.09328 -9.511919e-17 -4.7480667)
(206.76263 1.7659561e-16 -4.3599613)
(206.44505 0 -3.9904484)
(206.13915 -7.6492587e-17 -3.6393811)
(205.84359 -1.4219036e-16 -3.3065211)
(205.55713 1.3210584e-16 -2.9915685)
(205.27853 6.1276432e-17 -2.694145)
(205.00648 5.6991866e-17 -2.4137828)
(204.73955 0 -2.1499415)
(204.47616 1.9649352e-16 -1.9020095)
(204.2146 1.8233188e-16 -1.6693195)
(203.953 -2.5372697e-16 -1.451168)
(203.68933 7.846386e-17 -1.2468508)
(203.42124 -7.2740853e-17 -1.0556687)
(203.14607 -4.8454293e-20 -0.8768283)
(202.86117 2.5000661e-16 -0.7096295)
(202.56413 -2.3170783e-16 -0.55442107)
(202.2543 5.3642283e-17 -0.41106475)
(201.93401 1.4921998e-16 -0.27362331)
(201.5971 -4.609573e-17 -0.1481908)
(201.22612 -4.2702111e-17 -0.078404125)
(200.87802 0 0.028190667)
(200.60407 3.6607966e-17 0.4184463)
(221.23052 3.9124971e-16 -34.602834)
(260.74184 5.4287084e-19 -14.534356)
(242.39834 -3.5856393e-16 -34.229674)
(252.58373 0 -16.800341)
(245.53098 0 -31.733223)
(248.69387 -2.6751671e-16 -19.916477)
(245.7943 2.7062792e-16 -28.694342)
(246.3181 6.4186606e-17 -22.811332)
(245.0177 -2.4362429e-16 -26.394798)
(244.55073 2.3043504e-16 -24.537951)
(243.67781 -2.462849e-16 -25.368921)
(242.91227 2.0700359e-16 -25.060269)
(242.07441 -4.910894e-17 -25.127635)
(241.21848 -4.6569069e-17 -25.069898)
(240.33082 -1.764701e-16 -25.022461)
(239.41524 1.6667962e-16 -24.951969)
(238.47195 -3.5595624e-16 -24.863277)
(237.50223 5.9834259e-16 -24.75342)
(236.50752 -2.8271019e-16 -24.620977)
(235.4896 -2.6824974e-16 -24.464234)
(234.45058 2.5296286e-16 -24.281616)
(233.3929 -3.0124542e-17 -24.071642)
(232.31933 -2.2676952e-16 -23.83296)
(231.23298 2.1361917e-16 -23.564412)
(230.13723 2.530599e-16 -23.265052)
(229.03573 -1.4269327e-16 -22.934192)
(227.93237 0 -22.571445)
(226.83117 2.5519722e-16 -22.176745)
(225.73627 -3.2053823e-16 -21.750384)
(224.65183 1.127855e-16 -21.293017)
(223.58197 -2.8515786e-16 -20.805682)
(222.53069 2.0090653e-16 -20.289786)
(221.50178 -6.3305858e-17 -19.747097)
(220.49876 2.3790548e-16 -19.179713)
(219.52481 -2.2316073e-16 -18.590042)
(218.58273 -2.1032949e-16 -17.980737)
(217.67485 1.9713727e-16 -17.354666)
(216.80307 -4.6238036e-17 -16.714849)
(215.96878 0 -16.064398)
(215.17289 8.1823707e-17 -15.406463)
(214.41582 -7.6372236e-17 -14.744175)
(213.69757 0 -14.080593)
(213.01771 1.3448339e-16 -13.418656)
(212.37542 -6.2908898e-17 -12.761142)
(211.76961 -1.7640011e-16 -12.110638)
(211.19887 5.5023665e-16 -11.469514)
(210.6616 -2.0601532e-16 -10.839907)
(210.15605 9.6091714e-17 -10.223713)
(209.68034 -2.6943855e-16 -9.6225792)
(209.23254 -1.8515043e-19 -9.0379148)
(208.81067 1.5622827e-16 -8.4708941)
(208.41278 -1.4574624e-16 -7.9224687)
(208.03695 -6.7829112e-17 -7.3933825)
(207.6813 -6.3183176e-17 -6.8841875)
(207.34404 -1.1797695e-16 -6.3952605)
(207.02345 2.1909593e-16 -5.9268215)
(206.7179 0 -5.4789504)
(206.42582 9.4686616e-17 -5.0516026)
(206.14571 -3.5233692e-16 -4.6446244)
(205.87618 2.4521822e-16 -4.2577725)
(205.61586 7.5892378e-17 -3.8907143)
(205.36345 1.4098947e-16 -3.543047)
(205.11777 1.3099966e-16 -3.2143223)
(204.87763 -1.2120582e-16 -2.9040311)
(204.64179 -1.1232465e-16 -2.6115939)
(204.40893 -3.1247869e-16 -2.3363724)
(204.17754 -4.3043493e-20 -2.0776697)
(203.94599 -8.9305513e-17 -1.8347422)
(203.71252 0 -1.6068168)
(203.47523 -2.2958567e-16 -1.3931142)
(203.23195 7.0791019e-17 -1.1928484)
(202.98015 0 -1.0051983)
(202.7171 1.2112079e-16 -0.82955184)
(202.44057 0 -0.66603828)
(202.1507 1.0348126e-16 -0.51385453)
(201.84913 -1.4340465e-16 -0.36868867)
(201.52798 1.3252178e-16 -0.23887317)
(201.17688 -8.1619916e-17 -0.15509621)
(200.85193 7.5379188e-17 -0.028809561)
(200.55861 0 0.29725109)
(221.03323 -4.1102523e-16 -38.663595)
(260.89599 3.6307853e-16 -17.532315)
(241.96633 -3.3265415e-16 -38.188833)
(252.46652 3.3078081e-16 -20.063533)
(245.02208 3.1676626e-16 -35.363667)
(248.23652 -1.8004749e-17 -23.378115)
(245.22533 -2.8362811e-16 -32.106958)
(245.69336 -2.6924542e-16 -26.406465)
(244.30608 2.8657723e-16 -29.736606)
(243.73167 0 -28.082062)
(242.78624 2.8595371e-17 -28.738462)
(241.926 0 -28.480708)
(240.99983 -1.2861576e-16 -28.488641)
(240.05099 2.4284368e-16 -28.404673)
(239.06989 0 -28.315856)
(238.05991 0 -28.20118)
(237.02204 0 -28.062462)
(235.95819 3.9111475e-17 -27.897011)
(234.87054 0 -27.703115)
(233.76167 -2.4462309e-16 -27.478962)
(232.63455 3.2959077e-16 -27.222913)
(231.49255 1.24714e-16 -26.933527)
(230.33937 1.7684196e-16 -26.609574)
(229.17908 -2.7777096e-16 -26.250126)
(228.016 -5.2345528e-17 -25.854577)
(226.85469 -2.4772758e-16 -25.422691)
(225.69985 1.8644757e-16 -24.954636)
(224.55624 -2.2021983e-16 -24.451017)
(223.4286 8.2394137e-17 -23.912872)
(222.32156 7.7901265e-17 -23.341686)
(221.23954 0 -22.739376)
(220.18665 2.7714604e-16 -22.108256)
(219.16662 -2.6029874e-16 -21.451012)
(218.18274 0 -20.770642)
(217.23777 -2.3012682e-16 -20.070406)
(216.33392 2.1554922e-16 -19.353755)
(215.47282 -1.0158147e-16 -18.624262)
(214.65552 1.9018701e-16 -17.885558)
(213.88249 -2.6723121e-16 -17.141253)
(213.15367 1.2815786e-19 -16.39488)
(212.46848 -1.5614151e-16 -15.64983)
(211.82593 -7.3076358e-17 -14.909309)
(211.22461 -1.3715642e-16 -14.176292)
(210.6628 2.5568527e-16 -13.453499)
(210.13855 -1.1931976e-16 -12.743372)
(209.6497 0 -12.048063)
(209.19398 -3.7922614e-19 -11.369439)
(208.76904 9.7073285e-17 -10.709081)
(208.3725 0 -10.068298)
(208.00202 8.4437952e-17 -9.4481406)
(207.65529 7.8952538e-17 -8.8494196)
(207.33009 -7.3305641e-17 -8.2727275)
(207.02431 2.7293411e-16 -7.7184583)
(206.73595 -2.5373237e-16 -7.1868297)
(206.46312 -1.1800887e-16 -6.6779036)
(206.20405 -1.096314e-16 -6.1916066)
(205.95711 1.0179891e-16 -5.7277479)
(205.72076 1.8884318e-16 -5.2860358)
(205.49354 -3.5029981e-16 -4.8660927)
(205.27413 4.0598231e-16 -4.4674743)
(205.06123 -1.5043391e-16 -4.0896654)
(204.85364 1.3943984e-16 -3.7321045)
(204.65027 -1.2908415e-16 -3.3942044)
(204.45002 2.3906965e-16 -3.0753327)
(204.25177 -3.3187822e-16 -2.7748082)
(204.05429 2.045862e-16 -2.4919042)
(203.85619 -7.6665079e-20 -2.2258488)
(203.65596 8.7449552e-17 -1.9758313)
(203.45192 0 -1.7410125)
(203.24234 0 -1.5205383)
(203.02522 0 -1.3135559)
(202.79816 -1.2709747e-16 -1.1192486)
(202.55845 1.0369323e-20 -0.93702067)
(202.30417 0 -0.76667112)
(202.03578 0 -0.60717202)
(201.75388 9.192479e-17 -0.45615994)
(201.45061 -1.6939844e-16 -0.32170835)
(201.12305 0 -0.22159192)
(200.81884 0 -0.08387521)
(200.50972 -1.32e-16 0.18472845)
(220.5901 2.7744921e-17 -42.927325)
(260.80559 -7.8610962e-16 -20.685581)
(241.25565 3.4802483e-16 -42.289364)
(251.82218 -2.174319e-17 -23.50953)
(244.19847 3.7336809e-16 -39.115251)
(247.44393 -3.5209543e-16 -27.063918)
(244.34536 0 -35.636251)
(244.68175 -3.1716407e-16 -30.193834)
(243.24295 2.3315896e-16 -33.193362)
(242.5444 2.2145714e-16 -31.765466)
(241.51297 -2.3904489e-16 -32.242037)
(240.54393 0 -32.016373)
(239.515 1.899918e-19 -31.962688)
(238.45964 0 -31.83865)
(237.37188 3.8506028e-16 -31.697043)
(236.25512 -7.2741577e-16 -31.524499)
(235.11132 3.4341843e-16 -31.321006)
(233.94326 -4.0567919e-17 -31.083977)
(232.75414 -3.8549118e-17 -30.811518)
(231.54762 3.6638405e-17 -30.501811)
(230.3278 -6.8419703e-17 -30.153309)
(229.09919 -3.2412366e-16 -29.764767)
(227.86669 3.0505814e-16 -29.335313)
(226.63547 5.750845e-17 -28.864506)
(225.4109 -2.725408e-16 -28.35236)
(224.19848 -6.987812e-19 -27.799407)
(223.00371 2.8947046e-16 -27.206695)
(221.83199 -1.8168559e-16 -26.575803)
(220.68849 -6.1233554e-19 -25.908824)
(219.57806 0 -25.208344)
(218.50511 0 -24.477393)
(217.47351 -7.1497078e-17 -23.719389)
(216.48654 1.3385403e-16 -22.938075)
(215.5468 0 -22.137433)
(214.6562 -1.1831132e-16 -21.321602)
(213.81595 2.2138098e-16 -20.494796)
(213.02654 -1.0371569e-16 -19.661208)
(212.28784 -1.9437217e-16 -18.82494)