/*--------------------------------*- C++ -*----------------------------------*\
  =========                 |
  \\      /  F ield         | OpenFOAM: The Open Source CFD Toolbox
   \\    /   O peration     | Website:  https://openfoam.org
    \\  /    A nd           | Version:  12
     \\/     M anipulation  |
\*---------------------------------------------------------------------------*/
FoamFile
{
    format      ascii;
    class       volScalarField;
    location    "0.047";
    object      nut;
}
// * * * * * * * * * * * * * * * * * * * * * * * * * * * * * * * * * * * * * //

dimensions      [0 2 -1 0 0 0 0];

internalField   nonuniform List<scalar> 
16000
(
4.7681359e-07
1.0146088e-05
1.8650157e-05
2.472944e-05
1.8835308e-05
2.6096627e-05
1.8154387e-05
2.5089024e-05
1.9186439e-05
2.6822065e-05
2.2189325e-05
2.6472282e-05
2.3921922e-05
2.4704062e-05
2.38066e-05
2.3694731e-05
2.3435438e-05
2.3368886e-05
2.3378441e-05
2.3488698e-05
2.3691446e-05
2.3986231e-05
2.4370401e-05
2.4844128e-05
2.5409606e-05
2.6073068e-05
2.6842511e-05
2.7730958e-05
2.8754374e-05
2.9930103e-05
3.1277042e-05
3.2820138e-05
3.4591603e-05
3.6631178e-05
3.8987879e-05
4.1720291e-05
4.4898365e-05
4.8605512e-05
5.2944894e-05
5.8044599e-05
6.4055488e-05
7.1155268e-05
7.9568111e-05
8.9569507e-05
0.00010148848
0.00011571925
0.00013275064
0.00015317902
0.00017773141
0.00020729455
0.0002429545
0.00028604388
0.00033819076
0.00040138878
0.00047807984
0.00057126129
0.00068461415
0.00082268479
0.00099114649
0.0010251271
0.0010252107
0.0010253273
0.0010254042
0.0010253643
0.0010251436
0.001024648
0.0010237373
0.0010221439
0.0010193294
0.0010146646
0.0010093735
0.0010057803
0.0010039196
0.0010033807
0.0010034976
0.0010046923
0.0010065422
0.0010085295
0.0010094829
0.0010072557
4.3473189e-07
9.6301091e-06
2.0182017e-05
2.2138057e-05
1.698031e-05
2.3399718e-05
1.613381e-05
2.1972729e-05
1.700533e-05
2.3693263e-05
2.0140374e-05
2.3880144e-05
2.1920841e-05
2.2407145e-05
2.1713624e-05
2.1541469e-05
2.1329285e-05
2.1258166e-05
2.1270905e-05
2.1372691e-05
2.1561035e-05
2.1835168e-05
2.2192989e-05
2.2634892e-05
2.3162474e-05
2.3781681e-05
2.449952e-05
2.5327751e-05
2.6281488e-05
2.7377683e-05
2.8634029e-05
3.0073425e-05
3.1725783e-05
3.3628006e-05
3.5826073e-05
3.8375199e-05
4.1341747e-05
4.4804353e-05
4.8859372e-05
5.3628183e-05
5.9255937e-05
6.591039e-05
7.380294e-05
8.3196112e-05
9.4405918e-05
0.00010780682
0.00012386394
0.0001431458
0.00016634592
0.00019430932
0.0002280692
0.00026889389
0.00031833046
0.00037827045
0.00045102587
0.00053943194
0.00064696781
0.00077791604
0.00093762145
0.0010240271
0.0010241004
0.0010241605
0.0010241811
0.0010240786
0.0010237972
0.0010232501
0.0010223068
0.0010207232
0.0010180117
0.0010135823
0.0010086152
0.0010053396
0.0010036773
0.0010032209
0.001003469
0.0010047702
0.0010065639
0.0010082074
0.0010087946
0.0010059617
3.858624e-07
9.2266033e-06
1.9092724e-05
2.0267115e-05
1.5215204e-05
2.0602556e-05
1.4379069e-05
1.9096044e-05
1.5300573e-05
2.0787123e-05
1.8387265e-05
2.1274618e-05
1.9892114e-05
2.008414e-05
1.9554828e-05
1.9355057e-05
1.9178101e-05
1.9112088e-05
1.9128389e-05
1.9225044e-05
1.9400923e-05
1.9655763e-05
1.9987681e-05
2.039745e-05
2.088617e-05
2.1459594e-05
2.2124055e-05
2.2890184e-05
2.3772039e-05
2.4786087e-05
2.5949138e-05
2.7282392e-05
2.8813769e-05
3.0577607e-05
3.2617046e-05
3.4984007e-05
3.7741423e-05
4.0963886e-05
4.474173e-05
4.9189251e-05
5.4446298e-05
6.0672279e-05
6.806684e-05
7.6879399e-05
8.7414054e-05
0.00010002759
0.00011516331
0.00013336406
0.00015529276
0.00018175725
0.00021374328
0.00025246182
0.00029938818
0.0003563246
0.0004254702
0.00050951982
0.00061178183
0.0007363272
0.00088822714
0.0010229578
0.0010230324
0.0010230327
0.0010229916
0.0010228215
0.0010224746
0.001021872
0.0010208909
0.0010192987
0.0010166394
0.0010123955
0.0010077998
0.0010048809
0.0010034318
0.0010030652
0.0010034505
0.0010048034
0.0010064995
0.0010078428
0.0010079815
0.0010045128
3.4793844e-07
8.9246263e-06
1.8129051e-05
1.8771002e-05
1.3680968e-05
1.8193811e-05
1.282326e-05
1.6686826e-05
1.3782643e-05
1.8321019e-05
1.6812177e-05
1.8964306e-05
1.8014353e-05
1.7986436e-05
1.7579418e-05
1.7374047e-05
1.7227182e-05
1.7171248e-05
1.719347e-05
1.728841e-05
1.7455354e-05
1.7694566e-05
1.8004425e-05
1.8386153e-05
1.8840536e-05
1.9373224e-05
1.9990099e-05
2.0700904e-05
2.1518693e-05
2.2459523e-05
2.3539607e-05
2.4778689e-05
2.620306e-05
2.7844837e-05
2.9744733e-05
3.1951807e-05
3.4525993e-05
3.7538626e-05
4.1075188e-05
4.5243387e-05
5.0178846e-05
5.6034394e-05
6.2999906e-05
7.131313e-05
8.1268858e-05
9.3209724e-05
0.00010756123
0.00012484553
0.00014570102
0.00017090692
0.00020141175
0.00023838284
0.00028324162
0.00033772532
0.0004039527
0.00048452093
0.00058262392
0.00070220097
0.00084816612
0.0010219165
0.001021998
0.001021935
0.0010218296
0.0010215925
0.0010211838
0.0010205341
0.0010195288
0.0010179463
0.0010153605
0.0010113229
0.0010071064
0.0010045065
0.0010032295
0.0010029414
0.0010034224
0.0010047567
0.0010063039
0.0010073805
0.0010070797
0.0010035403
3.1171868e-07
8.6948581e-06
1.728686e-05
1.8820988e-05
1.3538946e-05
1.6086871e-05
1.145068e-05
1.4614271e-05
1.2472806e-05
1.6186237e-05
1.5406558e-05
1.6875781e-05
1.6249852e-05
1.6070404e-05
1.5753343e-05
1.555879e-05
1.5436763e-05
1.5392117e-05
1.5419292e-05
1.5512182e-05
1.5670049e-05
1.5893783e-05
1.6182112e-05
1.6536764e-05
1.6958434e-05
1.7452718e-05
1.8025159e-05
1.8684816e-05
1.944376e-05
2.0317595e-05
2.1322113e-05
2.2475838e-05
2.3803688e-05
2.5335839e-05
2.7110889e-05
2.9175374e-05
3.1586509e-05
3.4412889e-05
3.7736225e-05
4.165795e-05
4.6310021e-05
5.1840032e-05
5.8429783e-05
6.630606e-05
7.5755907e-05
8.7110296e-05
0.00010077941
0.00011726763
0.000137192
0.0001613078
0.00019053136
0.00022599298
0.00026906829
0.00032144018
0.00038516096
0.00046274745
0.00055730163
0.00067266134
0.00081362648
0.00098632182
0.0010210028
0.0010208759
0.0010207046
0.001020401
0.0010199327
0.0010192396
0.0010182162
0.0010166504
0.0010141459
0.0010103272
0.0010064948
0.0010041833
0.0010030567
0.0010028333
0.0010033623
0.0010046335
0.0010059846
0.0010067356
0.0010062373
0.0010030902
2.8733341e-07
8.5537345e-06
1.6617448e-05
1.8654667e-05
1.3361539e-05
1.4236413e-05
1.0717637e-05
1.2898591e-05
1.1367849e-05
1.4369224e-05
1.4169779e-05
1.5036293e-05
1.4628219e-05
1.4357957e-05
1.4098538e-05
1.3918872e-05
1.381342e-05
1.3776351e-05
1.3804974e-05
1.3893616e-05
1.4041376e-05
1.4249613e-05
1.4517325e-05
1.4846555e-05
1.523815e-05
1.5697543e-05
1.6230002e-05
1.6844066e-05
1.7550857e-05
1.8365497e-05
1.9303522e-05
2.0382451e-05
2.1626102e-05
2.3063023e-05
2.4730049e-05
2.66716e-05
2.8942561e-05
3.1609278e-05
3.4750875e-05
3.8463345e-05
4.2875307e-05
4.8130557e-05
5.4405266e-05
6.1916204e-05
7.0944628e-05
8.1812913e-05
9.4919079e-05
0.00011075365
0.0001299164
0.00015314481
0.00018132971
0.00021557308
0.00025721545
0.00030789901
0.00036962766
0.00044486022
0.00053663519
0.00064872655
0.00078587031
0.00095413117
0.0010200443
0.0010198547
0.0010196175
0.0010192499
0.0010187252
0.0010179925
0.0010169554
0.0010154135
0.0010130035
0.0010094227
0.0010059713
0.0010039098
0.0010029019
0.001002724
0.0010032559
0.0010044402
0.0010055959
0.001006094
0.0010054814
0.0010027069
2.6216991e-07
8.4741437e-06
1.6089907e-05
1.7693583e-05
1.3246584e-05
1.2565969e-05
1.0806595e-05
1.1833922e-05
1.1171869e-05
1.2834605e-05
1.3058765e-05
1.341088e-05
1.3121026e-05
1.280837e-05
1.2582e-05
1.2417848e-05
1.2324401e-05
1.2293471e-05
1.232283e-05
1.2407651e-05
1.254667e-05
1.2741544e-05
1.2991482e-05
1.3220543e-05
1.3576735e-05
1.3997676e-05
1.4487998e-05
1.5055503e-05
1.5710182e-05
1.6466339e-05
1.7339204e-05
1.8345314e-05
1.9507458e-05
2.085262e-05
2.2415984e-05
2.4240015e-05
2.6377396e-05
2.8892261e-05
3.1861883e-05
3.5644624e-05
3.9858554e-05
4.4888064e-05
5.0906375e-05
5.8121383e-05
6.6809834e-05
7.7288465e-05
8.9946215e-05
0.00010526334
0.00012382578
0.00014635887
0.0001737338
0.00020703172
0.00024756707
0.00029695239
0.00035715747
0.00043060053
0.0005202777
0.00062992654
0.00076425604
0.0009293173
0.0010191243
0.0010188739
0.0010185726
0.001018145
0.0010175684
0.001016799
0.0010157502
0.0010142367
0.0010119341
0.0010086089
0.0010055244
0.0010036724
0.0010027521
0.0010026112
0.0010031008
0.0010041881
0.0010051649
0.0010054686
0.00100477
0.0010022971
2.349558e-07
8.4293293e-06
1.5643463e-05
1.609635e-05
1.2271062e-05
1.0937653e-05
9.4388607e-06
1.0586694e-05
9.8627422e-06
1.1516729e-05
1.1944263e-05
1.1922459e-05
1.1682416e-05
1.1372026e-05
1.117126e-05
1.1026867e-05
1.0947147e-05
1.0924926e-05
1.0891396e-05
1.0959104e-05
1.1081039e-05
1.1257454e-05
1.1486881e-05
1.1768767e-05
1.2107667e-05
1.2506813e-05
1.2970891e-05
1.3507618e-05
1.4126408e-05
1.4841069e-05
1.5666959e-05
1.662006e-05
1.7722628e-05
1.9000625e-05
2.048821e-05
2.2226542e-05
2.4266891e-05
2.6671932e-05
2.9518024e-05
3.289812e-05
3.6925659e-05
4.1743139e-05
4.7523136e-05
5.4924914e-05
6.3356407e-05
7.3543706e-05
8.5870077e-05
0.00010080899
0.00011893617
0.00014097077
0.00016777042
0.0002004033
0.00024016714
0.00028865615
0.00034782062
0.000420056
0.00050833682
0.00061639095
0.00074893689
0.00091205892
0.0010182429
0.0010179346
0.0010175723
0.00101709
0.0010164672
0.0010156654
0.0010146069
0.0010131256
0.0010109409
0.0010078806
0.0010051396
0.0010034587
0.0010025969
0.0010024823
0.0010029058
0.0010038838
0.001004692
0.0010048435
0.0010041053
0.0010019471
2.1643671e-07
8.385345e-06
1.5188263e-05
1.4049784e-05
1.0083422e-05
9.7156208e-06
7.7722423e-06
9.0063658e-06
9.1034318e-06
1.0363764e-05
1.0806758e-05
1.0539022e-05
1.0322441e-05
1.0041114e-05
9.8655039e-06
9.6753989e-06
9.5858986e-06
9.5590643e-06
9.5864115e-06
9.6658189e-06
9.7929675e-06
9.9688389e-06
1.019312e-05
1.0465378e-05
1.0790369e-05
1.1171907e-05
1.1614755e-05
1.2126636e-05
1.2716567e-05
1.339785e-05
1.4186064e-05
1.5096868e-05
1.6152272e-05
1.73775e-05
1.8806026e-05
2.0478158e-05
2.2444219e-05
2.476597e-05
2.7518784e-05
3.0794231e-05
3.4705288e-05
3.9391441e-05
4.5027645e-05
5.181435e-05
6.0008909e-05
6.9930162e-05
8.2683227e-05
9.7382181e-05
0.00011523812
0.00013696964
0.00016342721
0.0001956737
0.00023499944
0.00028299138
0.00034159458
0.00041319929
0.00050077835
0.0006080742
0.00073984805
0.00090226062
0.0010174008
0.0010170383
0.0010166188
0.0010160882
0.0010154263
0.0010145981
0.0010135342
0.0010120896
0.0010100279
0.0010072288
0.0010047993
0.0010032589
0.0010024262
0.0010023108
0.0010026763
0.001003534
0.0010041777
0.001004215
0.0010034951
0.0010016573
1.9907368e-07
8.3396862e-06
1.3867972e-05
1.2190006e-05
8.1577303e-06
8.6142062e-06
6.8716468e-06
8.1196408e-06
8.4306727e-06
9.2617426e-06
9.6699008e-06
9.2746648e-06
9.0671906e-06
8.7373159e-06
8.5530431e-06
8.4343062e-06
8.3777794e-06
8.3753874e-06
8.4199464e-06
8.5098594e-06
8.6423255e-06
8.8182752e-06
9.0389093e-06
9.3042783e-06
9.6187777e-06
9.986903e-06
1.0413536e-05
1.0906536e-05
1.1474662e-05
1.2130748e-05
1.2890649e-05
1.3770006e-05
1.4790808e-05
1.5977814e-05
1.7364141e-05
1.8989647e-05
2.0904155e-05
2.3169018e-05
2.5859569e-05
2.9067296e-05
3.2904282e-05
3.7509418e-05
4.3058759e-05
4.9752159e-05
5.7847121e-05
6.7661939e-05
7.9587121e-05
9.4077068e-05
0.00011272581
0.00013435007
0.00016069993
0.00019284044
0.00023206423
0.0002799623
0.00033848913
0.00041004814
0.00049763113
0.00060501942
0.0007370493
0.00090000003
0.0010165991
0.0010161861
0.001015714
0.0010151413
0.0010144486
0.001013603
0.0010125416
0.0010111389
0.0010091985
0.0010066423
0.0010044887
0.0010030655
0.001002244
0.0010020961
0.0010024142
0.0010031403
0.0010036362
0.0010035917
0.0010029336
0.0010013947
1.8351866e-07
8.2895462e-06
1.1016377e-05
1.013502e-05
6.6789511e-06
7.6532524e-06
6.2539943e-06
7.2839526e-06
7.8831413e-06
8.2601882e-06
8.5473655e-06
8.036281e-06
7.7833467e-06
7.5523836e-06
7.415138e-06
7.3348953e-06
7.3066048e-06
7.3249092e-06
7.3842846e-06
7.4830454e-06
7.6217547e-06
7.7992486e-06
8.0182656e-06
8.2792974e-06
8.5869216e-06
8.9459918e-06
9.3616439e-06
9.8419238e-06
1.0395526e-05
1.10349e-05
1.171591e-05
1.2564808e-05
1.3552674e-05
1.4703781e-05
1.6050878e-05
1.7633408e-05
1.9500765e-05
2.1713948e-05
2.434829e-05
2.7495471e-05
3.1268162e-05
3.6086582e-05
4.1607e-05
4.82765e-05
5.6353131e-05
6.6155944e-05
7.8083363e-05
9.2596735e-05
0.00011027363
0.00013182866
0.00015957733
0.00019189407
0.00023135493
0.00027956649
0.00033850772
0.00041061489
0.00049892089
0.00060727054
0.00074060667
0.00090536802
0.0010158385
0.0010153793
0.0010148594
0.0010142508
0.0010135359
0.0010126836
0.0010116355
0.0010102805
0.0010084539
0.0010061124
0.0010041994
0.0010028776
0.0010020526
0.001001848
0.0010021174
0.00100271
0.0010030823
0.0010029893
0.0010024215
0.0010011611
1.6985929e-07
8.2385237e-06
8.6803626e-06
8.5631402e-06
5.8384031e-06
6.7694689e-06
5.7326068e-06
6.5512129e-06
7.3289456e-06
7.3253525e-06
7.3275775e-06
6.8890179e-06
6.6823049e-06
6.5114087e-06
6.4139798e-06
6.3657438e-06
6.3616884e-06
6.3973064e-06
6.4709149e-06
6.5800988e-06
6.7237952e-06
6.9043618e-06
7.1241018e-06
7.3840212e-06
7.6887553e-06
8.0090298e-06
8.4120859e-06
8.8788959e-06
9.4179917e-06
1.0041347e-05
1.0763381e-05
1.1602869e-05
1.2580978e-05
1.3721975e-05
1.5058798e-05
1.6631149e-05
1.8488827e-05
2.069337e-05
2.3321274e-05
2.6465701e-05
3.0241353e-05
3.4791197e-05
4.0289789e-05
4.6945414e-05
5.5018682e-05
6.5395945e-05
7.7439883e-05
9.2111245e-05
0.00010999318
0.00013181659
0.00015846653
0.0001928245
0.00023286672
0.00028180651
0.00034166285
0.00041492626
0.0005046954
0.00061490471
0.00075063366
0.00091851764
0.0010151196
0.0010146186
0.0010140561
0.0010134175
0.0010126882
0.0010118402
0.0010108167
0.0010095147
0.0010077922
0.0010056342
0.0010039285
0.0010026957
0.001001861
0.0010015952
0.0010017931
0.00100227
0.0010025375
0.0010024276
0.0010019665
0.0010009703
1.5761778e-07
8.1777221e-06
6.88901e-06
7.5041638e-06
5.191941e-06
5.9733337e-06
5.2847562e-06
5.9039807e-06
6.6683391e-06
6.2671541e-06
6.224983e-06
5.8857017e-06
5.7211962e-06
5.5988652e-06
5.5354098e-06
5.5146348e-06
5.5321227e-06
5.5852455e-06
5.6708942e-06
5.7898058e-06
5.9412413e-06
6.1270261e-06
6.3234268e-06
6.5797303e-06
6.8803541e-06
7.2295302e-06
7.6344129e-06
8.1026706e-06
8.6430313e-06
9.2676373e-06
9.9910159e-06
1.0831652e-05
1.1811888e-05
1.2956276e-05
1.4298193e-05
1.5877961e-05
1.7746315e-05
1.996583e-05
2.2614851e-05
2.5789042e-05
2.9605378e-05
3.4209208e-05
3.9783035e-05
4.6539079e-05
5.4744387e-05
6.4729492e-05
7.6902886e-05
9.1754612e-05
0.00011085133
0.00013313806
0.0001603681
0.00019365409
0.00023659382
0.00028668701
0.00034797262
0.00042301868
0.00051501771
0.0006280216
0.00076727483
0.0009396379
0.0010144419
0.0010139039
0.0010133051
0.0010126422
0.0010119049
0.0010110688
0.001010078
0.0010088316
0.0010072018
0.0010052069
0.001003677
0.0010025196
0.0010016886
0.0010013645
0.0010014634
0.0010018412
0.0010020321
0.0010019251
0.0010015702
0.0010008051
1.4669193e-07
8.1027501e-06
5.5121742e-06
6.5420298e-06
4.6184884e-06
5.26751e-06
4.9020186e-06
5.2467451e-06
5.8355797e-06
5.3476065e-06
5.2567507e-06
5.0079999e-06
4.8830171e-06
4.8011968e-06
4.7677816e-06
4.77164e-06
4.8089452e-06
4.8782248e-06
4.9773516e-06
5.0881183e-06
5.2427342e-06
5.4315431e-06
5.6568245e-06
5.9215769e-06
6.2301298e-06
6.5870954e-06
6.9995341e-06
7.4757251e-06
8.0246001e-06
8.6584314e-06
9.3918267e-06
1.0243441e-05
1.1185133e-05
1.2333824e-05
1.3681658e-05
1.5269546e-05
1.7149363e-05
1.9384786e-05
2.2056056e-05
2.5261847e-05
2.9122423e-05
3.4043537e-05
3.9745161e-05
4.6665286e-05
5.507856e-05
6.532288e-05
7.7823834e-05
9.3090207e-05
0.00011174008
0.00013576939
0.0001638188
0.00019812195
0.0002400796
0.00029421231
0.00035745866
0.00043493536
0.00052996083
0.00064673415
0.0007906902
0.00096892789
0.0010138043
0.001013234
0.0010126065
0.0010119253
0.0010111842
0.0010103626
0.001009405
0.0010082083
0.0010066528
0.00100483
0.0010034469
0.0010023484
0.0010015464
0.0010011721
0.0010011547
0.0010014476
0.0010015842
0.0010014907
0.0010012149
0.001000636
1.3694462e-07
7.9713539e-06
4.4612029e-06
5.6863747e-06
4.1055486e-06
4.6399742e-06
4.5669006e-06
4.535226e-06
4.9927461e-06
4.5274022e-06
4.4173453e-06
4.2433852e-06
4.1558494e-06
4.1089951e-06
4.1028188e-06
4.1294461e-06
4.1857867e-06
4.2542207e-06
4.3616395e-06
4.4995211e-06
4.6687228e-06
4.8707753e-06
5.1086651e-06
5.3855933e-06
5.7064508e-06
6.0761087e-06
6.5016785e-06
6.9708185e-06
7.5289736e-06
8.1726064e-06
8.9163244e-06
9.7787434e-06
1.0782606e-05
1.1956473e-05
1.333437e-05
1.4958386e-05
1.6882533e-05
1.9172614e-05
2.1911706e-05
2.5203051e-05
2.9171875e-05
3.3975571e-05
3.9803691e-05
4.6888696e-05
5.5515686e-05
6.6588295e-05
7.9526596e-05
9.5338092e-05
0.0001146685
0.00013830781
0.00016879193
0.00020440625
0.00024798849
0.00030132525
0.0003701366
0.00045071426
0.0005495895
0.00067113933
0.00082101073
0.0010065363
0.0010132053
0.0010126072
0.0010119594
0.0010112664
0.0010105239
0.0010097132
0.0010087798
0.0010076202
0.0010061325
0.0010044998
0.0010032403
0.0010021933
0.0010014169
0.0010010327
0.0010008901
0.0010010963
0.0010011976
0.0010011199
0.0010008916
0.0010004474
1.2829333e-07
7.6455183e-06
3.7253878e-06
4.9276391e-06
3.6492385e-06
4.0847567e-06
4.0466771e-06
3.8921905e-06
4.1786833e-06
3.802345e-06
3.6979851e-06
3.5836726e-06
3.5311605e-06
3.5151275e-06
3.5338299e-06
3.5685824e-06
3.6369934e-06
3.7347906e-06
3.8611567e-06
4.0163337e-06
4.2018179e-06
4.4196715e-06
4.6732973e-06
4.9661819e-06
5.2915488e-06
5.674661e-06
6.1140327e-06
6.6178672e-06
7.1964777e-06
7.8621437e-06
8.6298084e-06
9.5187845e-06
1.0552676e-05
1.1761037e-05
1.3180134e-05
1.4853465e-05
1.683775e-05
1.9201676e-05
2.2031441e-05
2.5436087e-05
2.9545404e-05
3.452415e-05
4.0573633e-05
4.7935901e-05
5.691121e-05
6.786601e-05
8.1970497e-05
9.8459826e-05
0.00011862855
0.00014331366
0.00017351333
0.00021247205
0.00025804312
0.00031384395
0.00038218537
0.00047036445
0.0005739284
0.00070127186
0.00085826725
0.0010132486
0.0010126425
0.0010120219
0.0010113616
0.0010106627
0.0010099197
0.001009113
0.0010081903
0.0010070585
0.0010056477
0.0010042085
0.0010030599
0.0010020694
0.0010012964
0.0010008929
0.0010006819
0.0010007887
0.0010008678
0.0010008097
0.0010006128
0.0010002648
1.2081101e-07
7.2266099e-06
3.2689188e-06
4.2560263e-06
3.2431419e-06
3.4422531e-06
3.5865615e-06
3.3034515e-06
3.4416577e-06
3.1726907e-06
3.0893066e-06
3.0220894e-06
3.0013328e-06
3.0127811e-06
3.0390772e-06
3.1026625e-06
3.1943925e-06
3.313058e-06
3.4587694e-06
3.6325093e-06
3.8363218e-06
4.0725498e-06
4.3366091e-06
4.6460426e-06
5.0000083e-06
5.4042506e-06
5.8656732e-06
6.3927484e-06
6.9959672e-06
7.6883514e-06
8.4852772e-06
9.4068224e-06
1.0477595e-05
1.1728545e-05
1.3141314e-05
1.4861008e-05
1.6902007e-05
1.9336422e-05
2.2388196e-05
2.593197e-05
3.021387e-05
3.5406096e-05
4.1722989e-05
4.9419147e-05
5.8809588e-05
7.0282455e-05
8.4311233e-05
0.00010147333
0.00012356779
0.00014949048
0.00018122479
0.00022007746
0.00027018504
0.00032890332
0.00040084911
0.00049383355
0.00060292033
0.00073705047
0.00090231487
0.0010127292
0.0010121134
0.0010114761
0.0010108087
0.0010101073
0.0010093637
0.0010085559
0.0010076364
0.001006531
0.0010052049
0.0010039487
0.0010029056
0.0010019861
0.0010012262
0.001000768
0.0010005347
0.0010005251
0.00100059
0.0010005653
0.0010003969
0.0010000642
1.1476493e-07
6.313501e-06
2.878972e-06
3.6473731e-06
2.8909197e-06
2.8510898e-06
3.1291666e-06
2.7707552e-06
2.8089502e-06
2.6351656e-06
2.5796991e-06
2.5505829e-06
2.5507988e-06
2.5799305e-06
2.6407379e-06
2.729102e-06
2.8431198e-06
2.9826195e-06
3.1484722e-06
3.342106e-06
3.5607486e-06
3.8155346e-06
4.1065645e-06
4.4379268e-06
4.8145046e-06
5.2422194e-06
5.7282702e-06
6.281434e-06
6.9125012e-06
7.6181554e-06
8.4428542e-06
9.394854e-06
1.0499713e-05
1.1789427e-05
1.3303968e-05
1.5093251e-05
1.7218891e-05
1.9757894e-05
2.2805622e-05
2.6479631e-05
3.0925521e-05
3.6583985e-05
4.3210513e-05
5.1293574e-05
6.1164579e-05
7.3233768e-05
8.800312e-05
0.00010608702
0.00012941327
0.00015676006
0.00019026103
0.00023129889
0.00028430875
0.00034638805
0.00042249013
0.00051583209
0.00063638026
0.00077822992
0.00095279817
0.0010122441
0.0010116177
0.0010109679
0.0010102946
0.0010095906
0.0010088447
0.0010080347
0.0010071205
0.0010060475
0.0010048084
0.0010037178
0.001002775
0.001001931
0.0010012019
0.0010006877
0.0010004523
0.0010003091
0.0010003482
0.0010003735
0.0010002487
0.00099985289
1.0975094e-07
4.3881777e-06
2.5268379e-06
3.0841791e-06
2.451229e-06
2.3561924e-06
2.6504298e-06
2.2973021e-06
2.2828827e-06
2.1829077e-06
2.1582399e-06
2.1547038e-06
2.1830517e-06
2.2426426e-06
2.3293819e-06
2.4409168e-06
2.5765792e-06
2.7368883e-06
2.9204757e-06
3.1334509e-06
3.3768368e-06
3.6535019e-06
3.9669338e-06
4.3213718e-06
4.721925e-06
5.174748e-06
5.6873082e-06
6.2592289e-06
6.9169917e-06
7.667908e-06
8.5292413e-06
9.5224209e-06
1.067444e-05
1.2019171e-05
1.3599044e-05
1.5466883e-05
1.7688257e-05
2.0344629e-05
2.3537183e-05
2.7391231e-05
3.2061718e-05
3.7739209e-05
4.4991234e-05
5.3508013e-05
6.3918381e-05
7.6657419e-05
9.2258306e-05
0.00011137522
0.00013480991
0.00016501134
0.00020049743
0.00024399539
0.00029731999
0.00036610284
0.00044687369
0.00054595214
0.00067395663
0.00082436879
0.0010091495
0.0010117938
0.0010111553
0.0010104946
0.0010098133
0.001009103
0.0010083514
0.0010075384
0.001006633
0.0010056007
0.0010044649
0.0010035165
0.0010026637
0.0010018868
0.0010012005
0.0010006615
0.0010003559
0.0010001585
0.0010001183
0.0010001856
0.0010001031
0.00099971233
1.0439353e-07
3.6158608e-06
2.1596875e-06
2.5671983e-06
2.091693e-06
1.9435285e-06
2.1590314e-06
1.8828066e-06
1.8555389e-06
1.8114273e-06
1.8133018e-06
1.8408771e-06
1.9010058e-06
1.9873383e-06
2.0974788e-06
2.2305447e-06
2.3867826e-06
2.5653443e-06
2.7710495e-06
3.0050203e-06
3.2697995e-06
3.5684668e-06
3.9047024e-06
4.2828992e-06
4.7083305e-06
5.1873603e-06
5.7213148e-06
6.3296818e-06
7.0197907e-06
7.8060885e-06
8.7067435e-06
9.7444273e-06
1.0947642e-05
1.2352201e-05
1.4003151e-05
1.5956849e-05
1.8283194e-05
2.1068712e-05
2.4420878e-05
2.8472325e-05
3.3387415e-05
3.9654157e-05
4.7012461e-05
5.6001983e-05
6.7001045e-05
8.0472057e-05
9.6982484e-05
0.00011722881
0.00014338158
0.00017409131
0.00021175506
0.00025795471
0.00031462533
0.00038775249
0.00047365028
0.00057901565
0.00071510914
0.00087481978
0.0010120329
0.0010113776
0.0010107239
0.0010100519
0.0010093598
0.0010086394
0.0010078787
0.0010070604
0.001006161
0.0010051681
0.0010041813
0.0010033473
0.0010025731
0.0010018515
0.0010012112
0.0010007004
0.0010003279
0.0010000704
0.00099992151
0.0010000126
0.00099998732
0.00099982207
1.0045094e-07
2.8865269e-06
1.8421453e-06
2.0501086e-06
1.7951116e-06
1.5913e-06
1.7053503e-06
1.5319048e-06
1.5193274e-06
1.5192904e-06
1.5481122e-06
1.6088963e-06
1.6956657e-06
1.804896e-06
1.9356637e-06
2.0881859e-06
2.262403e-06
2.4614639e-06
2.6869459e-06
2.9411797e-06
3.2269492e-06
3.5475079e-06
3.9066655e-06
4.308928e-06
4.759697e-06
5.2618966e-06
5.8289172e-06
6.4682131e-06
7.1918449e-06
8.0149461e-06
8.9567247e-06
1.0041177e-05
1.1298501e-05
1.2766604e-05
1.4493137e-05
1.6538e-05
1.8976027e-05
2.1899015e-05
2.5421506e-05
2.9684363e-05
3.5091534e-05
4.1449844e-05
4.9210886e-05
5.8702739e-05
7.0326902e-05
8.4576797e-05
0.00010205745
0.00012351241
0.00015120408
0.00018378913
0.00022378834
0.00027288956
0.00033316048
0.00041091267
0.00050232094
0.00061443338
0.00075912333
0.00092875047
0.0010116445
0.0010109871
0.001010319
0.0010096349
0.0010089305
0.0010081989
0.0010074302
0.0010066112
0.0010057277
0.0010047898
0.0010039551
0.0010032131
0.0010025103
0.0010018397
0.0010012355
0.0010007434
0.0010003666
0.0010000634
0.00099980413
0.00099991485
0.00099995476
0.00099994061
9.8120381e-08
2.2493276e-06
1.5662509e-06
1.5598228e-06
1.5220151e-06
1.2905186e-06
1.336172e-06
1.2518779e-06
1.2670075e-06
1.2981285e-06
1.3605107e-06
1.4473585e-06
1.5556118e-06
1.6839205e-06
1.8325379e-06
2.0024765e-06
2.1945864e-06
2.4118682e-06
2.6561491e-06
2.9299787e-06
3.2362814e-06
3.5784239e-06
3.9603134e-06
4.3865488e-06
4.8626313e-06
5.3952511e-06
5.992658e-06
6.6651098e-06
7.4168611e-06
8.2774325e-06
9.2612104e-06
1.0393617e-05
1.1706693e-05
1.3240663e-05
1.5045877e-05
1.7255414e-05
1.9828191e-05
2.2916346e-05
2.6642281e-05
3.1156937e-05
3.664616e-05
4.3338415e-05
5.151586e-05
6.1525667e-05
7.3795134e-05
8.8850272e-05
0.00010733695
0.00013118474
0.0001592983
0.00019383784
0.00023627692
0.00028841962
0.00035580924
0.00043503871
0.00053225934
0.00065149541
0.00080517931
0.00098526971
0.0010112763
0.0010106143
0.001009934
0.0010092383
0.0010085228
0.0010077826
0.001007011
0.0010062022
0.0010053555
0.0010044956
0.0010037753
0.0010031128
0.0010024772
0.0010018621
0.0010012961
0.00100081
0.0010004036
0.0010000703
0.00099986582
0.00099986115
0.00099994475
0.00099998567
9.820117e-08
1.706973e-06
1.3336083e-06
1.1851431e-06
1.2472235e-06
1.0389418e-06
1.0652111e-06
1.0448205e-06
1.088568e-06
1.1493817e-06
1.2359769e-06
1.3424951e-06
1.4678422e-06
1.6121522e-06
1.7764816e-06
1.9623319e-06
2.1712267e-06
2.4057484e-06
2.6680691e-06
2.9608472e-06
3.2870897e-06
3.6502387e-06
4.0542833e-06
4.5039202e-06
5.0047745e-06
5.5637001e-06
6.1891798e-06
6.8918273e-06
7.6850103e-06
8.5856419e-06
9.6151103e-06
1.0800516e-05
1.2176023e-05
1.3784608e-05
1.5680095e-05
1.7929654e-05
2.0616904e-05
2.3845918e-05
2.7745533e-05
3.2475307e-05
3.8232416e-05
4.5259571e-05
5.385382e-05
6.4383388e-05
7.7300785e-05
9.393509e-05
0.00011357726
0.00013772052
0.00016740976
0.00020392943
0.00024885374
0.00030696504
0.00037540716
0.00045950008
0.00056275705
0.00069612212
0.00085242424
0.0010115992
0.0010109223
0.0010102528
0.0010095634
0.0010088582
0.0010081352
0.0010073917
0.0010066221
0.001005822
0.0010050059
0.0010042754
0.001003636
0.0010030433
0.0010024711
0.0010019169
0.001001401
0.0010009387
0.0010005189
0.0010001428
0.00099989646
0.0009998851
0.00099998311
0.0010000323
1.0150748e-07
1.2647583e-06
1.141012e-06
9.1144694e-07
1.0869378e-06
8.3162285e-07
8.7917362e-07
9.0426132e-07
9.7096631e-07
1.0550525e-06
1.1591539e-06
1.2807696e-06
1.4202663e-06
1.5786332e-06
1.7573406e-06
1.9581082e-06
2.1828891e-06
2.433712e-06
2.713215e-06
3.0240326e-06
3.3692346e-06
3.7523347e-06
4.1774093e-06
4.6492651e-06
5.173669e-06
5.7576606e-06
6.4099722e-06
7.1416027e-06
7.9664517e-06
8.9021856e-06
9.9711753e-06
1.1201846e-05
1.2630079e-05
1.4301053e-05
1.627139e-05
1.8611817e-05
2.1410341e-05
2.4776187e-05
2.8844606e-05
3.378285e-05
4.0069252e-05
4.7475374e-05
5.6537876e-05
6.764722e-05
8.1284162e-05
9.8041602e-05
0.00011865084
0.00014401338
0.00017523675
0.00021568726
0.00026340717
0.00032216279
0.0003944918
0.00048348378
0.00059866243
0.00073394385
0.00089966896
0.0010112569
0.0010105802
0.001009901
0.0010092052
0.0010084938
0.0010077665
0.0010070236
0.0010062636
0.0010054893
0.0010047377
0.0010041062
0.0010035364
0.0010030067
0.0010024962
0.001002002
0.001001535
0.0010011004
0.0010006867
0.001000299
0.0010000188
0.00099995279
0.00100003
0.0010000643
1.0814493e-07
9.7530046e-07
9.7314394e-07
7.7100085e-07
7.740485e-07
7.0881323e-07
7.5460147e-07
8.1516673e-07
8.9925192e-07
9.995679e-07
1.1168192e-06
1.2508959e-06
1.4028568e-06
1.5740183e-06
1.7659745e-06
1.9805029e-06
2.2195882e-06
2.4854396e-06
2.7805295e-06
3.1076388e-06
3.4699222e-06
3.8709981e-06
4.3150734e-06
4.8071219e-06
5.3531317e-06
5.9583098e-06
6.6347996e-06
7.3926336e-06
8.2536269e-06
9.2246493e-06
1.0334178e-05
1.1612096e-05
1.3096109e-05
1.4833648e-05
1.688414e-05
1.9321751e-05
2.2238757e-05
2.5749674e-05
2.9996336e-05
3.5154209e-05
4.1440208e-05
4.9122387e-05
5.8531756e-05
7.0075272e-05
8.4257432e-05
0.00010170062
0.00012427013
0.00015092777
0.00018377484
0.00022427073
0.00027421384
0.00033581811
0.00041179462
0.00051024975
0.00062640342
0.00076916296
0.00094424271
0.0010109415
0.0010102579
0.0010095681
0.0010088658
0.0010081501
0.0010074202
0.0010066767
0.0010059229
0.0010051768
0.0010045409
0.0010039808
0.0010034766
0.0010030061
0.0010025553
0.0010021196
0.001001701
0.0010012967
0.0010008965
0.0010005107
0.0010002081
0.001000076
0.0010000868
0.0010000907
1.2284243e-07
9.8265783e-07
8.1145008e-07
5.7100804e-07
6.1466199e-07
6.1746465e-07
6.8161532e-07
7.6111694e-07
8.587898e-07
9.7133577e-07
1.0997458e-06
1.2448397e-06
1.4079099e-06
1.5903673e-06
1.7938309e-06
2.0201026e-06
2.2711955e-06
2.5493607e-06
2.8571228e-06
3.1973253e-06
3.5731914e-06
3.9884123e-06
4.4472708e-06
4.9548209e-06
5.5171417e-06
6.1416854e-06
6.8377401e-06
7.6170239e-06
8.494439e-06
9.4889758e-06
1.0624801e-05
1.1932626e-05
1.3451265e-05
1.5229576e-05
1.7328778e-05
1.9825282e-05
2.2814156e-05
2.641337e-05
3.0769027e-05
3.6061861e-05
4.2515397e-05
5.0767011e-05
6.0511893e-05
7.2471345e-05
8.7171682e-05
0.00010526296
0.00012755042
0.00015503178
0.00018894375
0.00023081724
0.00028255116
0.00034968774
0.00042928065
0.00052758042
0.00064887729
0.000798314
0.00098196328
0.0010106815
0.0010099846
0.0010092787
0.0010085648
0.001007841
0.0010071063
0.0010063612
0.0010056197
0.0010049577
0.0010043965
0.0010039036
0.0010034577
0.0010030416
0.0010026436
0.0010022585
0.0010018825
0.0010015085
0.0010011291
0.0010007565
0.0010004437
0.0010002571
0.0010001894
0.0010001279
1.1257412e-07
6.34334e-07
6.4277335e-07
4.7261694e-07
5.1542894e-07
5.6154627e-07
6.4091487e-07
7.3414287e-07
8.4254747e-07
9.6544251e-07
1.1039039e-06
1.2589829e-06
1.4319978e-06
1.6244138e-06
1.8378835e-06
2.0742556e-06
2.3356e-06
2.6241996e-06
2.9426936e-06
3.2939785e-06
3.6813522e-06
4.1085823e-06
4.5800318e-06
5.10084e-06
5.6771807e-06
6.3166176e-06
7.0285768e-06
7.8249599e-06
8.7280249e-06
9.7461e-06
1.0908775e-05
1.2247611e-05
1.3802447e-05
1.562341e-05
1.7773274e-05
2.0330387e-05
2.3392221e-05
2.7079782e-05
3.1543052e-05
3.6967741e-05
4.3583657e-05
5.1675001e-05
6.1593114e-05
7.3774108e-05
8.8757662e-05
0.00010721332
0.00012997233
0.00015945475
0.00019442607
0.00023766156
0.00029116027
0.0003573992
0.00043943873
0.00054103617
0.00066676525
0.00082212998
0.0010112348
0.0010105106
0.0010097993
0.0010090732
0.0010083382
0.001007595
0.0010068475
0.001006103
0.0010053939
0.0010048139
0.0010043136
0.0010038758
0.0010034801
0.0010031106
0.0010027558