/*--------------------------------*- C++ -*----------------------------------*\
  =========                 |
  \\      /  F ield         | OpenFOAM: The Open Source CFD Toolbox
   \\    /   O peration     | Website:  https://openfoam.org
    \\  /    A nd           | Version:  12
     \\/     M anipulation  |
\*---------------------------------------------------------------------------*/
FoamFile
{
    format      ascii;
    class       volScalarField;
    location    "0.047";
    object      p;
}
// * * * * * * * * * * * * * * * * * * * * * * * * * * * * * * * * * * * * * //

dimensions      [1 -1 -2 0 0 0 0];

internalField   nonuniform List<scalar> 
16000
(
90222.748
90347.724
90359.29
90493.131
90518.39
90645.407
90694.791
90811.317
90883.894
90994.642
91085.577
91195.973
91301.123
91415.613
91531.862
91653.579
91779.322
91909.711
92044.621
92184.139
92328.276
92477.038
92630.408
92788.347
92950.788
93117.641
93288.781
93464.058
93643.286
93826.248
94012.691
94202.33
94394.845
94589.883
94787.063
94985.972
95186.173
95387.208
95588.6
95789.861
95990.496
96190.006
96387.902
96583.7
96776.933
96967.156
97153.942
97336.895
97515.645
97689.852
97859.207
98023.424
98182.241
98335.41
98482.691
98623.844
98758.623
98886.769
99008.013
99122.091
99228.753
99327.784
99419.029
99502.397
99577.866
99645.484
99705.351
99757.623
99802.487
99840.164
99870.928
99895.111
99913.114
99925.708
99934.232
99939.328
99939.243
99939.913
99964.774
99889.065
89856.86
89998.699
90007.759
90153.624
90180.577
90318.67
90370.28
90498.171
90574.515
90695.381
90792.676
90911.977
91025.407
91148.701
91274.158
91405.287
91540.851
91681.344
91826.686
91976.933
92132.083
92292.116
92456.988
92626.624
92800.922
92979.747
93162.93
93350.267
93541.52
93736.414
93934.635
94135.835
94339.631
94545.605
94753.311
94962.274
95171.998
95381.969
95591.66
95800.54
96008.077
96213.746
96417.039
96617.464
96814.554
97007.873
97197.017
97381.617
97561.341
97735.897
97905.024
98068.495
98226.109
98377.68
98523.037
98662.006
98794.404
98920.034
99038.682
99150.127
99254.155
99350.571
99439.223
99520.014
99592.907
99657.93
99715.176
99764.805
99807.036
99842.152
99870.501
99892.45
99908.446
99919.41
99926.594
99930.237
99930.232
99934.365
99948.707
99887.463
89522.895
89680.17
89689.039
89848.222
89875.05
90026.86
90080.012
90220.202
90301.269
90432.624
90537.588
90666.408
90789.335
90922.406
91058.228
91199.935
91346.511
91498.322
91655.306
91817.478
91984.806
92157.237
92334.686
92517.035
92704.135
92895.8
93091.806
93291.889
93495.747
93703.037
93913.375
94126.341
94341.478
94558.297
94776.278
94994.881
95213.546
95431.702
95648.775
95864.194
96077.399
96287.85
96495.028
96698.449
96897.662
97092.258
97281.87
97466.176
97644.9
97817.808
97984.704
98145.43
98299.853
98447.862
98589.356
98724.234
98852.385
98973.677
99087.959
99195.069
99294.838
99387.11
99471.753
99548.675
99617.832
99679.234
99732.956
99779.147
99818.034
99849.928
99875.204
99894.235
99907.521
99916.056
99920.921
99922.596
99922.587
99926.877
99935.266
99883.621
89223.534
89391.66
89401.295
89575.845
89602.137
89770.107
89825.397
89979.88
90066.634
90210.008
90324.131
90463.81
90597.858
90742.157
90889.859
91043.618
91202.639
91367.16
91537.123
91712.505
91893.241
92079.241
92270.377
92466.484
92667.357
92872.751
93082.375
93295.892
93512.923
93733.041
93955.781
94180.634
94407.059
94634.482
94862.307
95089.919
95316.694
95542.008
95765.243
95985.8
96203.102
96416.605
96625.805
96830.24
97029.5
97223.225
97411.107
97592.894
97768.382
97937.415
98099.878
98255.692
98404.807
98547.191
98682.821
98811.671
98933.701
99048.849
99157.029
99258.137
99352.06
99438.685
99517.908
99589.652
99653.866
99710.547
99759.745
99801.585
99836.284
99864.156
99885.575
99900.922
99910.777
99916.145
99917.914
99916.866
99915.583
99919.192
99923.547
99878.361
88961.611
89144.578
89151.028
89344.25
89369.549
89555.972
89613.399
89784.085
89877.84
90034.641
90159.719
90311.475
90458.217
90615.045
90775.93
90942.999
91115.674
91294.099
91478.215
91667.968
91863.258
92063.948
92269.858
92480.758
92696.372
92916.374
93140.384
93367.972
93598.659
93831.918
94067.178
94303.831
94541.236
94778.729
95015.626
95251.243
95484.893
95715.908
95943.642
96167.48
96386.851
96601.234
96810.161
97013.225
97210.079
97400.442
97584.093
97760.87
97930.665
98093.417
98249.108
98397.752
98539.388
98674.069
98801.851
98922.783
99036.893
99144.185
99244.633
99338.189
99424.792
99504.374
99576.865
99642.203
99700.343
99751.27
99795.015
99831.676
99861.447
99884.618
99901.53
99912.562
99918.378
99919.941
99917.962
99913.606
99910.556
99912.238
99912.792
99872.681
88742.017
88942.523
88947.03
89161.236
89185.316
89392.297
89451.868
89640.472
89742.492
89913.629
90051.076
90215.553
90376.028
90546.305
90721.38
90902.869
91090.376
91283.964
91483.548
91689.021
91900.223
92116.943
92338.917
92565.824
92797.286
93032.865
93272.068
93514.343
93759.087
94005.651
94253.343
94501.438
94749.189
94995.834
95240.61
95482.765
95721.568
95956.321
96186.374
96411.127
96630.044
96842.658
97048.574
97247.469
97439.099
97623.288
97799.93
97968.979
98130.443
98284.377
98430.87
98570.039
98702.017
98826.945
98944.956
99056.167
99160.672
99258.527
99349.758
99434.365
99512.332
99583.628
99648.212
99706.041
99757.075
99801.291
99838.705
99869.391
99893.519
99911.334
99923.123
99929.269
99930.504
99927.707
99921.431
99913.41
99907.924
99906.886
99903.354
99867.677
88566.361
88787.732
88789.366
89028.178
89051.064
89282.253
89344.933
89553.071
89663.515
89848.413
89999.183
90176.954
90352.45
90537.619
90728.495
90926.177
91130.358
91340.998
91557.944
91781.001
92009.915
92244.371
92483.988
92728.322
92976.86
93229.025
93484.177
93741.621
94000.606
94260.34
94519.998
94778.732
95035.687
95290.011
95540.874
95787.478
96029.072
96264.964
96494.534
96717.236
96932.611
97140.289
97339.987
97531.51
97714.748
97889.665
98056.296
98214.735
98365.126
98507.647
98642.507
98769.928
98890.138
99003.361
99109.802
99209.639
99303.013
99390.028
99470.747
99545.204
99613.414
99675.372
99731.059
99780.442
99823.486
99860.163
99890.472
99914.475
99932.31
99944.176
99950.295
99951.065
99947.237
99939.584
99928.742
99916.857
99908.308
99903.708
99895.894
99864.64
88429.047
88674.922
88672.147
88940.711
88960.371
89218.492
89284.329
89511.742
89633.622
89834.381
90001.942
90195.643
90389.027
90591.889
90801.259
91017.804
91241.251
91471.454
91708.169
91951.092
92199.843
92453.972
92712.95
92976.172
93242.961
93512.568
93784.18
94056.927
94329.897
94602.141
94872.696
95140.595
95404.888
95664.657
95919.031
96167.205
96408.45
96642.129
96867.7
97084.727
97292.88
97491.935
97681.768
97862.353
98033.75
98196.094
98349.585
98494.472
98631.042
98759.607
98880.492
98994.023
99100.515
99200.263
99293.533
99380.548
99461.488
99536.483
99605.62
99668.953
99726.511
99778.302
99824.312
99864.513
99898.865
99927.332
99949.903
99966.623
99977.605
99982.996
99982.974
99977.949
99968.629
99955.694
99940.355
99924.235
99912.267
99903.252
99891.176
99864.681
88327.445
88601.466
88594.245
88900.288
88913.97
89200.922
89271.67
89520.816
89659.222
89878.277
90066.278
90278.816
90493.149
90716.813
90947.687
91186.081
91431.69
91684.239
91943.354
92208.581
92479.378
92755.114
93035.072
93318.448
93604.358
93891.849
94179.903
94467.46
94753.43
95036.71
95316.207
95590.86
95859.653
96121.642
96375.969
96621.878
96858.726
97085.994
97303.29
97510.348
97707.03
97893.31
98069.276
98235.105
98391.06
98537.466
98674.7
98803.173
98923.315
99035.564
99140.352
99238.093
99329.176
99413.951
99492.724
99565.748
99633.222
99695.286
99752.036
99803.528
99849.79
99890.825
99926.611
99957.111
99982.273
100002.05
100016.41
100025.4
100029.08
100027.58
100021.03
100009.88
99994.717
99976.167
99955.776
99935.409
99919.464
99905.924
99889.919
99868.621
88263.967
88570.89
88560.924
88903.161
88916.121
89234.923
89316.91
89591.068
89749.432
89988.886
90201.081
90435.735
90674.336
90922.244
91177.951
91441.456
91712.348
91990.187
92274.417
92564.386
92859.334
93158.401
93460.624
93764.952
94070.254
94375.335
94678.957
94979.856
95276.771
95568.463
95853.746
96131.504
96400.721
96660.493
96910.054
97148.781
97376.201
97591.999
97796.011
97988.215
98168.725
98337.771
98495.682
98642.875
98779.825
98907.055
99025.117
99134.573
99235.982
99329.886
99416.804
99497.217
99571.561
99640.22
99703.519
99761.718
99815.016
99863.547
99907.398
99946.61
99981.197
100011.14
100036.4
100056.9
100072.59
100083.4
100089.27
100090.23
100086.32
100077.62
100064.29
100046.77
100025.53
100001.15
99975.244
99950.967
99930.489
99911.949
99892.757
99877.055
88244.448
88590.554
88576.691
88959.094
88975.619
89330.637
89427.755
89729.092
89913.094
90175.808
90416.443
90677.168
90943.768
91219.731
91503.912
91796.03
92095.498
92401.65
92713.684
93030.678
93351.582
93675.234
94000.368
94325.633
94649.613
94970.853
95287.887
95599.266
95903.589
96199.533
96485.885
96761.563
97025.643
97277.373
97516.185
97741.701
97953.725
98152.242
98337.398
98509.484
98668.916
98816.213
98951.97
99076.842
99191.516
99296.696
99393.085
99481.368
99562.204
99636.211
99703.96
99765.967
99822.69
99874.518
99921.769
99964.691
100003.46
100038.19
100068.94
100095.72
100118.53
100137.3
100151.96
100162.41
100168.56
100170.3
100167.59
100160.4
100148.77
100132.72
100112.48
100088.45
100061
100030.8
99999.971
99971.334
99946.202
99921.772
99900.194
99890.359
88277.978
88670.661
88652.855
89082.961
89104.623
89499.282
89615.74
89945.955
90161.336
90450.546
90723.944
91015.207
91313.977
91622.218
91938.898
92263.423
92594.93
92932.433
93274.782
93620.686
93968.72
94317.345
94664.935
95009.8
95350.227
95684.506
96010.976
96328.057
96634.288
96928.367
97209.174
97475.8
97727.559
97963.995
98184.884
98390.216
98580.186
98755.165
98915.676
99062.367
99195.98
99317.324
99427.25
99526.627
99616.321
99697.18
99770.015
99835.595
99894.632
99947.78
99995.626
100038.69
100077.41
100112.16
100143.23
100170.82
100195.08
100216.08
100233.84
100248.34
100259.52
100267.28
100271.5
100272.06
100268.79
100261.59
100250.36
100235.08
100215.73
100192.35
100165.2
100134.64
100100.88
100064.54
100028.43
99995.976
99965.848
99935.635
99912.556
99908.803
88366.002
88814.115
88792.984
89277.548
89307.506
89745.474
89888.92
90250.508
90504.405
90824.858
91136.106
91463.334
91799.271
92144.675
92498.387
92859.398
93226.432
93598.048
93972.631
94348.417
94723.523
95095.978
95463.761
95824.845
96177.239
96519.042
96848.488
97163.993
97464.196
97747.992
98014.551
98263.332
98494.077
98706.799
98901.759
99079.437
99240.497
99385.754
99516.132
99632.632
99736.303
99828.21
99909.408
99980.931
100043.76
100098.84
100147.03
100189.12
100225.84
100257.83
100285.65
100309.8
100330.66
100348.56
100363.74
100376.35
100386.48
100394.15
100399.34
100401.97
100401.93
100399.07
100393.24
100384.23
100371.87
100356
100336.51
100313.32
100286.41
100255.86
100221.92
100184.91
100144.91
100102.85
100061.94
100025.15
99989.758
99953.531
99929.741
99932.598
88513.376
89027.286
89003.444
89549.851
89594.437
90079.597
90259.349
90655.601
90955.784
91313.78
91668.875
92038.494
92417.473
92805.51
93201.041
93602.478
94007.969
94415.48
94822.819
95227.668
95627.629
96020.274
96403.203
96774.106
97130.827
97471.428
97794.244
98097.926
98381.474
98644.248
98885.963
99106.676
99306.748
99486.811
99647.719
99790.502
99916.318
100026.41
100122.07
100204.6
100275.28
100335.35
100386.01
100428.37
100463.46
100492.24
100515.56
100534.19
100548.81
100560.01
100568.31
100574.11
100577.75
100579.48
100579.47
100577.81
100574.52
100569.56
100562.85
100554.27
100543.64
100530.76
100515.42
100497.37
100476.39
100452.29
100424.91
100394.15
100359.97
100322.51
100282.04
100238.71
100192.55
100144.91
100099.58
100058.63
100017.66
99975.833
99952.13
99961.653
88726.691
89319.266
89294.544
89911.218
89977.721
90514.048
90741.345
91177.359
91532.748
91936.739
92343.084
92762.549
93191.035
93627.194
94068.804
94513.537
94958.818
95401.909
95839.943
96269.988
96689.12
97094.504
97483.481
97853.658
98202.982
98529.804
98832.918
99111.576
99365.485
99594.777
99799.967
99981.9
100141.69
100280.64
100400.23
100502
100587.55
100658.45
100716.27
100762.5
100798.56
100825.76
100845.33
100858.39
100865.92
100868.84
100867.94
100863.91
100857.35
100848.76
100838.56
100827.09
100814.59
100801.22
100787.06
100772.15
100756.42
100739.78
100722.09
100703.15
100682.74
100660.6
100636.46
100610.04
100581.06
100549.28
100514.53
100476.66
100435.63
100391.64
100344.96
100295.6
100243.6
100190.85
100141.46
100096.29
100049.62
100003.02
99980.664
99996.567
89012.319
89698.88
89676.144
90372.562
90472.145
91065.356
91354.805
91839.052
92260.08
92720.338
93186.185
93663.006
94146.91
94635.472
95125.614
95614.096
96097.462
96572.136
97034.51
97481.061
97908.472
98313.752
98694.352
99048.244
99373.975
99670.69
99938.115
100176.52
100386.64
100569.64
100726.97
100860.33
100971.58
101062.66
101135.53
101192.13
101234.34
101263.96
101282.65
101291.97
101293.35
101288.06
101277.28
101262.02
101243.2
101221.6
101197.9
101172.69
101146.45
101119.58
101092.38
101065.09
101037.86
101010.75
100983.76
100956.85
100929.89
100902.71
100875.1
100846.83
100817.6
100787.1
100755.01
100720.99
100684.74
100645.99
100604.5
100560.12
100512.82
100462.83
100410.39
100355.41
100298.15
100241.08
100188.19
100138.82
100086.46
100035.9
100016.77
100039.21
89377.425
90176.295
90160.967
90952.014
91101.698
91761.753
92130.446
92673.778
93170.997
93697.893
94230.897
94771.274
95314.639
95857.302
96395.017
96923.371
97437.847
97933.994
98407.609
98854.911
99272.697
99658.461
100010.46
100327.74
100610.11
100858.05
101072.66
101255.52
101408.57
101534.02
101634.25
101711.69
101768.77
101807.86
101831.23
101841.01
101839.18
101827.54
101807.75
101781.26
101749.41
101713.34
101674.07
101632.48
101589.33
101545.27
101500.82
101456.43
101412.47
101369.19
101326.81
101285.44
101245.12
101205.84
101167.52
101130.02
101093.16
101056.71
101020.4
100983.92
100946.93
100909.07
100869.96
100829.24
100786.57
100741.65
100694.21
100644.09
100591.28
100536.02
100478.46
100418.52
100356.86
100296.55
100240.94
100187.49
100129.8
100076.85
100063.02
100091.84
89841.195
90778.342
90781.866
91687.376
91904.817
92642.056
93107.272
93720.874
94303.731
94906.776
95513.277
96121.088
96724.489
97318.043
97895.956
98452.509
98982.278
99480.408
99942.832
100366.43
100749.14
101089.92
101388.76
101646.51
101864.78
102045.77
102192.1
102306.65
102392.47
102452.62
102490.13
102507.89
102508.61
102494.82
102468.85
102432.78
102388.5
102337.66
102281.75
102222.04
102159.66
102095.56
102030.56
101965.36
101900.53
101836.55
101773.81
101712.59
101653.13
101595.57
101540
101486.43
101434.81
101385.05
101336.97
101290.39
101245.05
101200.66
101156.91
101113.42
101069.81
101025.66
100980.57
100934.13
100885.98
100835.81
100783.33
100728.4
100671.04
100611.45
100549.69
100485.74
100420.88
100358.6
100301.24
100244.19
100182.13
100129.46
100123.09
100157.08
90436.518
91549.61
91582.254
92620.702
92924.433
93746.755
94327.103
95024.417
95702.286
96389.835
97073.298
97747.038
98403.186
99034.292
99633.211
100193.6
100710.24
101179.24
101598.13
101965.91
102282.88
102550.48
102771.1
102947.81
103084.16
103183.95
103251.11
103289.5
103302.86
103294.71
103268.32
103226.66
103172.43
103108.03
103035.57
102956.92
102873.71
102787.34
102699.01
102609.74
102520.41
102431.74
102344.34
102258.68
102175.16
102094.1
102015.71
101940.16
101867.55
101797.9
101731.2
101667.36
101606.25
101547.7
101491.47
101437.31
101384.92
101333.96
101284.05
101234.78
101185.72
101136.41
101086.4
101035.29
100982.7
100928.3
100871.83
100813.16
100752.36
100689.58
100624.77
100558.14
100491.52
100428.64
100370.59
100311.04
100246.37
100197.23
100200.4
100236.98
91192.829
92517.805
92593.741
93784.876
94208.296
95127.417
95844.239
96641.731
97421.941
98196.166
98950.139
99674.705
100360.09
100997.9
101581.32
102105.47
102567.48
102966.49
103303.39
103580.57
103801.56
103970.68
104092.77
104172.87
104216.03
104227.15
104210.85
104171.39
104112.67
104038.17
103951
103853.88
103749.18
103638.94
103524.93
103408.65
103291.37
103174.16
103057.92
102943.38
102831.14
102721.7
102615.43
102512.62
102413.51
102318.23
102226.87
102139.48
102056.02
101976.44
101900.61
101828.38
101759.53
101693.84
101631.01
101570.75
101512.7
101456.49
101401.69
101347.86
101294.51
101241.17
101187.38
101132.69
101076.75
101019.22
100959.87
100898.63
100835.58
100770.82
100704.28
100636.49
100569.77
100507.64
100449.82
100389.3
100324.67
100281.94
100295.9
100330.66
92139.148
93728.859
93884.695
95245.321
95834.104
96865.9
97736.099
98644.219
99521.241
100365.32
101160.68
101896.45
102563.52
103155.72
103669.8
104105.3
104464.13
104750.15
104968.6
105125.63
105227.84
105281.93
105294.42
105271.51
105218.89
105141.71
105044.59
104931.56
104806.17
104671.44
104529.99
104384.04
104235.45
104085.81
103936.41
103788.35
103642.52
103499.64
103360.28
103224.91
103093.89
102967.47
102845.84
102729.12
102617.38
102510.64
102408.85
102311.95
102219.82
102132.31
102049.23
101970.34
101895.39
101824.09
101756.11
101691.12
101628.73
101568.52
101510.04
101452.82
101396.33
101340.09
101283.6
101226.46
101168.27
101108.73
101047.66
100985.01
100920.89
100855.33
100788.36
100720.89
100655.55
100595.26
100538.4
100478.21
100416.69
100382.03
100404.74
100436.21
93358.088
95282.554
95562.839
97113.513
97914.981
99068.23
100087.03
101090.81
102028.23
102890.77
103664.78
104342.66
104920.77
105399.53
105782.58
106076.09
106287.88
106426.7
106501.63
106521.61
106495.08
106429.84
106332.89
106210.42
106067.83
105909.76
105740.17
105562.4
105379.28
105193.15
105005.94
104819.26
104634.42
104452.47
104274.28
104100.5
103931.69
103768.23
103610.43
103458.49
103312.57
103172.72
103038.98
102911.32
102789.67
102673.95
102564.02
102459.73
102360.87
102267.23
102178.56
102094.58
102014.99
101939.47
101867.66
101799.18
101733.64
101670.59
101609.55
101550.01
101491.46
101433.36
101375.25
101316.7
101257.33
101196.86
101135.14
101072.17
101008.02
100942.71
100876.44
100810.43
100747.34
100689.32
100633.83
100575.02
100518.03
100491.66
100519.63
100545.95
94981.402
97319.552
97778.848
99518.055
100567.4
101827.82
102943.52
103977.26
104891.59
105680.33
106339.27
106870.57
107280.77
107579.68
107779.02
107891.39
107929.34
107904.82
107828.78
107711.03
107560.12
107383.42
107187.17
106976.62
106756.13
106529.32
106299.14
106068
105837.85
105610.25
105386.47
105167.48
104954.05
104746.78
104546.11
104352.35
104165.72
103986.37
103814.35
103649.68
103492.32
103342.18
103199.18
103063.15
102933.96
102811.42
102695.32
102585.44
102481.52
102383.3
102290.49
102202.76
102119.79
102041.24
101966.74
101895.88
101828.24
101763.35
101700.74
101639.86
101580.18
101521.19
101462.39
101403.36
101343.74
101283.28
101221.83
101159.4
101096.04
101031.78
100967.01
100903.1
100842.49
100786.48
100732.25
100675.47
100623.39
100602.81
100630.27
100647.55
97199.284
100001.3
100701.79
102581.15
103841.39
105149.01
106245.99
107183.22
107947.75
108545.33
108986.94
109288.28
109467.14
109541.83
109529.88
109447.39
109308.59
109125.73
108909.22
108667.7
108408.3
108136.82
107857.95
107575.46
107292.36
107011.03
106733.34
106460.75
106194.37
105935.06
105683.45
105440.01
105205.03
104978.73
104761.2
104552.49
104352.57
104161.36
103978.74
103804.59
103638.71
103480.93
103331.04
103188.82
103054.04
102926.46
102805.82
102691.85
102584.25
102482.72
102386.94
102296.58
102211.29
102130.71
102054.45
101982.12
101913.26
101847.4
101784.03
101722.62
101662.63
101603.53
101544.83
101486.1
101426.98
101367.22
101306.7
101245.39
101183.31
101120.55
101057.62
100995.9
100937.37
100882.67
100829.31
100774.8
100726.91
100707.72
100727.77
100734.3
100264.42
103442.81
104450.18
106395.55
107697.96
108860.32
109773.05
110460.85
110941.34
111241.05
111387.77
111408.84
111329.2
111170.71
110951.87
110688
110391.54
110072.49
109738.77
109396.62
109050.89
108705.36
108362.93
108025.81
107695.67
107373.75
107060.95
106757.91
106465.06
106182.67
105910.88
105649.73
105399.18
105159.14
104929.46
104709.97
104500.45
104300.68
104110.42
103929.4
103757.37
103594.06
103439.19
103292.49
103153.68
103022.47
102898.57
102781.68
102671.47
102567.63
102469.82
102377.69
102290.89
102209.06
102131.8
102058.7
101989.31
101923.14
101859.68
101798.38
101738.69
101680.09
101622.07
101564.19
101506.08
101447.49
101388.25
101328.31
101267.64
101206.41
101145.18
101085.18
101027.86
100973.48
100920.3
100867.58
100822.41
100800.86
100809.2
100807.83
104436.47
107828.73
109039.18
110724.05
111845.45
112673.34
113206.49
113499.37
113596.39
113540.4
113367.68
113108.3
112786.37
112420.84
112026.36
111614.14
111192.68
110768.36
110345.95
109928.95
109519.94
109120.77
108732.72
108356.7
107993.27
107642.76
107305.31
106980.96
106669.6
106371.08
106085.19
105811.66
105550.2
105300.52
105062.28
104835.17
104618.86
104413
104217.26
104031.32
103854.86
103687.54
103529.05
103379.09
103237.34
103103.5
102977.23
102858.22
102746.15
102640.67
102541.45
102448.14
102360.39
102277.82
102200.06
102126.66
102057.19
101991.15
101928.01
101867.22
101808.23
101750.49
101693.49
101636.75
101579.9
101522.62
101464.71
101406.04
101346.6
101286.55
101226.46
101167.33
101110.14
101055.03
101001.19
100949.17
100904.88
100879.21
100874.84
100864.2
109645.88
113002.39
114117.45
115241.72
115852.45
116137.23
116160.2
115994.42
115693.71
115300.28
114845.48
114352.43
113837.88
113313.9
112789.06
112269.44
111759.25
111261.37
110777.74
110309.58
109857.61
109422.21
109003.47
108601.31
108215.51
107845.77
107491.72
107152.95
106829.02
106519.48
106223.88
105941.77
105672.68
105416.19
105171.86
104939.26
104717.99
104507.64
104307.82
104118.17
103938.32
103767.91
103606.61
103454.09
103310.01
103174.04
103045.87
102925.16
102811.58
102704.78
102604.44
102510.21
102421.74
102338.66
102260.57
102187.06
102117.67
102051.89
101989.2
101929.03
101870.82
101814
101758.05
101702.46
101646.8
101590.7
101533.89
101476.19
101417.53
101358.08
101298.34
101239.05
101180.92
101124.23
101069.1
101016.93
100972.15
100940.78
100922.42
100900
115843.34
118348.93
118958.54
119240.61
119148.99
118824.03
118344.77
117771.48
117144.57
116491.39
115830.13
115172.72
114526.92
113897.62
113287.85
112699.31
112132.85
111588.77
111066.94
110567.02
110088.47
109630.68
109192.97
108774.64
108374.97
107993.25
107628.8
107280.94
106949.02
106632.41
106330.53
106042.79
105768.65
105507.59
105259.1
105022.71
104797.96
104584.42
104381.67
104189.3
104006.93
103834.2
103670.76
103516.25
103370.34
103232.71
103103.01
102980.93
102866.12
102758.25
102656.98
102561.99
102472.93
102389.42
102311.08
102237.5
102168.2
102102.68
102040.41
101980.81
101923.31
101867.33
101812.32
101757.75
101703.12
101648.02
101592.08
101535.07
101476.89
101417.66
101357.72
101297.59
101237.87
101179.3
101122.91
101070.3
101023.46
100983.89
100951.21
100922.29
122447.79
122889.01
122673.98
122129.73
121404.2
120586.9
119733.65
118876.04
118032.5
117213.21
116423.56
115666.06
114941.55
114249.82
113590.08
112961.25
112362.05
111791.15
111247.21
110728.91
110235
109764.28
109315.6
108887.91
108480.2
108091.53
107721.02
107367.85
107031.24
106710.47
106404.86
106113.76
105836.57
105572.73
105321.69
105082.95
104856.02
104640.44
104435.79
104241.64
104057.6
103883.29
103718.36
103562.46
103415.24
103276.38
103145.55
103022.41
102906.64
102797.91
102695.89
102600.26
102510.67
102426.77
102348.19
102274.49
102205.24
102139.92
102078
102018.89
101962.03
101906.81
101852.67
101799.04
101745.4
101691.25
101636.14
101579.76
101521.97
101462.82
101402.52
101341.37
101280.01
101219.68
101162.13
101108.7
101058.99
101011.36
100967.23
100935.28
126306.73
125685.48
124776.26
123731.11
122654.04
121588.83
120558.06
119570.97
118631
117738.37
116891.83
116089.32
115328.51
114606.98
113922.36
113272.38
112654.92
112068.02
111509.86
110978.76
110473.19
109991.74
109533.09
109096.06
108679.55
108282.53
107904.06
107543.27
107199.34
106871.52
106559.1
106261.42
105977.87
105707.86
105450.85
105206.31
104973.76
104752.75
104542.82
104343.57
104154.61
103975.55
103806.03
103645.72
103494.28
103351.38
103216.7
103089.9
102970.67
102858.69
102753.63
102655.18
102563
102476.74
102396.03
102320.46
102249.58
102182.87
102119.79
102059.74
102002.11
101946.3
101891.69
101837.69
101783.74
101729.26
101673.75
101616.8
101558.19
101497.91
101436.1
101373.05
101309.44
101246.85
101187.43
101132.27
101079.54
101026.12
100975
100941.42
104269.93
104244.8
104294.13
104343.62
104379.36
104388.6
104371.01
104341.72
104307.02
104262.82
104204.47
104132.94
104052.62
103968.2
103880.08
103788.31
103693.3
103595.55
103495.5
103393.54
103290.05
103185.37
103079.84
102973.75
102867.37
102760.95
102654.72
102548.91
102443.7
102339.29
102235.85
102133.55
102032.56
101933.02
101835.09
101738.92
101644.65
101552.42
101462.38
101374.66
101289.42
101206.8
101126.93
101049.96
100976.04
100905.3
100837.9
100773.97
100713.64
100657.05
100604.32
100555.56
100510.86
100470.31
100433.96
100401.84
100373.93
100350.19
100330.53
100314.81
100302.85
100294.42
100289.23
100286.96
100287.22
100289.55
100293.41
100298.12
100302.87
100306.63
100308.76
100306.49
100304.25
100287.34
100283.87
100242.68
100243.7
100180.83
100161.22
100136.47
103686.96
103679.73
103689.61
103701.48
103697.09
103686.71
103672.97
103652.98
103621.04
103583.54
103539.62
103490.81
103436.48
103377.61
103314.37
103247.35
103176.78
103102.99
103026.29
102946.98
102865.34
102781.65
102696.18
102609.21
102520.98
102431.77
102341.8
102251.33
102160.59
102069.81
101979.2
101888.98
101799.37
101710.57
101622.78
101536.19
101451
101367.39
101285.55
101205.67
101127.93
101052.49
100979.55
100909.27
100841.81
100777.36
100716.07
100658.1
100603.61
100552.72
100505.59
100462.31
100423
100387.74
100356.56
100329.5
100306.54
100287.6
100272.59
100261.36
100253.69
100249.35
100248.03
100249.39
100253.04
100258.52
100265.29
100272.69
100279.86
100285.86
100289.72
100289.8
100287.99
100274.73
100269.7
100233.95
100231.97
100171.85
100156.19
100127.58
103263.68
103246.62
103215.24
103182.38
103150.75
103121.4
103087.64
103054.71
103018.43
102981.75
102941.38
102899.71
102854.79
102807.83
102758.06
102705.89
102651.18
102594.05
102534.57
102472.82
102408.93
102343.03
102275.24
102205.74
102134.68
102062.24
101988.61
101913.97
101838.52
101762.48
101686.04
101609.41
101532.81
101456.45
101380.55
101305.32
101230.98
101157.74
101085.82
101015.42
100946.76
100880.04
100815.47
100753.24
100693.56
100636.61
100582.59
100531.66
100483.99
100439.76
100399.08
100362.11
100328.93
100299.64
100274.27
100252.86
100235.36
100221.71
100211.78
100205.42
100202.4
100202.45
100205.27
100210.51
100217.77
100226.59
100236.42
100246.63
100256.31
100264.63
100270.42
100272.56
100271.58
100261.45
100255.71
100223.93
100220.04
100162.89
100150.8
100118.6
102643.55
102621.17
102594.06
102563.72
102533.14
102506.1
102474.66
102446.09
102413.43
102382.6
102348.43
102314.81
102278.62
102241.88
102203.16
102163.09
102121.27
102077.8
102032.62
101985.69
101937.02
101886.63
101834.55
101780.85
101725.6
101668.89
101610.83
101551.55
101491.19
101429.9
101367.87
101305.25
101242.25
101179.06
101115.89
101052.95
100990.45
100928.62
100867.67
100807.84
100749.35
100692.43
100637.29
100584.16
100533.25
100484.78
100438.94
100395.94
100355.96
100319.16
100285.71
100255.74
100229.36
100206.65
100187.66
100172.41
100160.86
100152.92
100148.48
100147.34
100149.28
100154.02
100161.24
100170.57
100181.61
100193.92
100206.94
100220.02
100232.29
100242.94
100250.73
100254.81
100254.95
100247.17
100241.71
100212.87
100208.05
100153.88
100144.45
100109.52
101917.41
101902.55
101888.79
101872.27
101853.49
101838.9
101818.39
101802.11
101780.5
101761.91
101739.08
101717.71
101693.39
101669.25
101643.19
101616.18
101587.59
101557.63
101526.18
101493.2
101458.67
101422.59
101384.95
101345.78
101305.12
101263
101219.51
101174.73
101128.74
101081.67
101033.65
100984.81
100935.33
100885.36
100835.1
100784.74
100734.48
100684.53
100635.12
100586.47
100538.81
100492.37
100447.38
100404.08
100362.68
100323.41
100286.5
100252.14
100220.53
100191.85
100166.26
100143.9
100124.88
100109.3
100097.19
100088.57
100083.39
100081.57
100082.96
100087.37
100094.57
100104.25
100116.09
100129.72
100144.72
100160.66
100176.96
100193
100207.89
100220.9
100230.72
100236.71
100238.16
100232.56
100227.62
100201.23
100196.09
100144.61
100137.93
100100.19
101217.08
101211.64
101208.39
101204.38
101196.18
101193.18
101182.89
101178.36
101167.16
101160.25
101148.01
101138.16
101124.74
101111.99
101097.26
101081.9
101065.01
101046.94
101027.54
101006.81
100984.74
100961.29
100936.47
100910.26
100882.69
100853.78
100823.55
100792.06
100759.37
100725.56
100690.74
100655
100618.48
100581.31
100543.67
100505.71
100467.63
100429.62
100391.88
100354.64
100318.11
100282.52
100248.1
100215.08
100183.69
100154.16
100126.7
100101.52
100078.83
100058.8
100041.6
100027.36
100016.2
100008.21
100003.42
100001.83
100003.4
100008.03
100015.58
100025.83
100038.54
100053.4
100070.07
100088.17
100107.29
100126.96
100146.63
100165.68
100183.23
100198.59
100210.45
100218.35
100221.26
100217.44
100212.85
100189.12
100184.25
100134.7
100131.11
100090.59
100586.83
100587.3
100588.78
100592.56
100590.96
100596.09
100592.58
100596.54
100592.48
100594.25
100590.09
100589.83
100585.32
100581.41
100575.36
100569.23
100561.84
100553.62
100544.35
100534.02
100522.59
100510.02
100496.3
100481.4
100465.31
100448.05
100429.61
100410.02
100389.34
100367.6
100344.88
100321.26
100296.84
100271.75
100246.11
100220.06
100193.78
100167.44
100141.22
100115.32
100089.95
100065.31
100041.64
100019.15
99998.063
99978.596
99960.963
99945.367
99932
99921.038
99912.638
99906.937
99904.039
99904.018
99906.909
99912.704
99921.349
99932.738
99946.71
99963.053
99981.5
100001.74
100023.41
100046.14
100069.49
100092.99
100116.1
100138.2
100158.43
100176.13
100190.02
100199.82
100204.18
100202.14
100198.19
100176.72
100172.5
100124.3
100123.9
100080.9
100021.07
100026.22
100030.5
100038.92
100040.46
100050.83
100051.03
100060.6