/*--------------------------------*- C++ -*----------------------------------*\
  =========                 |
  \\      /  F ield         | OpenFOAM: The Open Source CFD Toolbox
   \\    /   O peration     | Website:  https://openfoam.org
    \\  /    A nd           | Version:  12
     \\/     M anipulation  |
\*---------------------------------------------------------------------------*/
FoamFile
{
    format      ascii;
    class       volScalarField;
    location    "0.047";
    object      rho;
}
// * * * * * * * * * * * * * * * * * * * * * * * * * * * * * * * * * * * * * //

dimensions      [1 -3 0 0 0 0 0];

internalField   nonuniform List<scalar> 
16000
(
1.0601374
1.0928962
1.0808346
1.0891068
1.0852545
1.0887205
1.0877293
1.0895736
1.0897064
1.0909249
1.0915699
1.0925868
1.0934614
1.0944575
1.0954514
1.0964977
1.0975759
1.0986939
1.0998499
1.1010448
1.1022784
1.103551
1.1048623
1.1062119
1.1075992
1.1090234
1.1104835
1.1119781
1.1135056
1.1150643
1.116652
1.1182662
1.1199042
1.1215631
1.1232396
1.1249302
1.1266313
1.128339
1.1300491
1.1317577
1.1334604
1.135153
1.1368314
1.1384913
1.1401287
1.1417397
1.1433205
1.1448676
1.1463775
1.1478469
1.149273
1.1506526
1.1519829
1.1532612
1.1544846
1.1556501
1.1567548
1.1577954
1.1587689
1.1596723
1.1605035
1.1612612
1.1619459
1.1625603
1.1631098
1.1636031
1.1640527
1.1644759
1.1648937
1.16533
1.1658077
1.1663423
1.1669282
1.1675213
1.1680331
1.1683568
1.1684104
1.1681385
1.1675309
1.1656551
1.0570152
1.0902773
1.0776563
1.0864374
1.0823696
1.0860974
1.0850117
1.0870243
1.0871544
1.0884737
1.0891724
1.0902646
1.0912143
1.0922851
1.0933604
1.0944881
1.0956521
1.096858
1.0981049
1.0993931
1.1007227
1.1020935
1.1035049
1.1049563
1.1064469
1.1079753
1.1095401
1.1111397
1.1127718
1.1144342
1.1161242
1.1178389
1.1195749
1.1213287
1.1230966
1.1248745
1.1266582
1.1284434
1.1302256
1.1320002
1.1337628
1.1355087
1.1372338
1.1389337
1.1406043
1.1422418
1.1438427
1.1454035
1.1469212
1.1483929
1.149816
1.1511881
1.1525069
1.1537701
1.1549755
1.1561209
1.1572039
1.158222
1.1591728
1.1600541
1.1608641
1.1616021
1.1622691
1.1628679
1.1634042
1.1638864
1.1643269
1.1647426
1.1651542
1.1655831
1.1660501
1.1665673
1.1671261
1.1676798
1.168138
1.1684028
1.1684298
1.1680966
1.1673294
1.1655884
1.0542077
1.0879045
1.0748415
1.0840065
1.0797978
1.0837253
1.0826109
1.0847441
1.0849155
1.0863183
1.0870912
1.0882602
1.089296
1.09045
1.091616
1.0928354
1.0940951
1.0953993
1.0967472
1.0981389
1.0995741
1.1010522
1.1025725
1.1041339
1.1057351
1.1073744
1.10905
1.1107594
1.1125003
1.1142695
1.1160638
1.1178797
1.1197133
1.1215604
1.1234167
1.1252775
1.1271381
1.1289936
1.1308393
1.1326701
1.1344814
1.1362686
1.1380271
1.1397528
1.1414417
1.1430903
1.1446952
1.1462534
1.1477624
1.1492198
1.1506235
1.1519716
1.1532625
1.1544946
1.1556664
1.1567762
1.1578225
1.1588036
1.1597176
1.1605631
1.1613391
1.1620456
1.1626839
1.1632575
1.1637722
1.1642364
1.1646621
1.1650659
1.1654671
1.1658846
1.1663366
1.1668316
1.1673565
1.1678598
1.1682488
1.1684401
1.1684278
1.1680162
1.1671377
1.1655121
1.0517121
1.0857701
1.0723324
1.0818255
1.0774847
1.0816395
1.0805035
1.0827744
1.0829976
1.0844963
1.0853577
1.0866152
1.0877516
1.0890017
1.0902719
1.0915958
1.0929637
1.0943782
1.0958387
1.0973448
1.0988961
1.1004915
1.1021301
1.1038103
1.1055304
1.1072881
1.1090811
1.1109063
1.1127606
1.1146403
1.1165414
1.1184596
1.1203903
1.1223287
1.1242697
1.1262081
1.1281386
1.1300559
1.1319547
1.13383
1.1356769
1.1374907
1.139267
1.1410018
1.1426916
1.1443332
1.1459237
1.1474607
1.1489423
1.1503667
1.1517326
1.1530388
1.1542843
1.1554682
1.1565899
1.1576483
1.1586427
1.159572
1.1604352
1.1612316
1.161961
1.1626239
1.1632223
1.1637601
1.1642432
1.16468
1.1650819
1.1654645
1.1658455
1.1662414
1.166668
1.1671303
1.1676112
1.1680549
1.1683664
1.1684741
1.1684087
1.16792
1.1669637
1.1654301
1.0495642
1.0839915
1.0701692
1.0799578
1.075488
1.0799043
1.0787607
1.0811744
1.0814715
1.0830725
1.0840409
1.0853964
1.0866471
1.0880044
1.0893895
1.0908285
1.0923144
1.093849
1.0954315
1.0970615
1.0987381
1.10046
1.1022256
1.104033
1.1058798
1.107763
1.1096795
1.1116255
1.113597
1.1155894
1.117598
1.1196174
1.1216424
1.1236672
1.1256861
1.1276932
1.1296829
1.1316493
1.1335871
1.1354909
1.137356
1.1391779
1.1409525
1.1426763
1.1443463
1.1459598
1.1475148
1.1490098
1.1504433
1.1518147
1.1531233
1.1543687
1.1555509
1.1566696
1.1577248
1.1587165
1.1596443
1.160508
1.1613073
1.1620423
1.1627132
1.1633215
1.1638696
1.1643616
1.1648038
1.1652045
1.1655745
1.165928
1.1662808
1.1666475
1.1670409
1.1674624
1.1678914
1.1682677
1.1684965
1.1685199
1.168397
1.1678159
1.1668019
1.1653513
1.0478118
1.082592
1.0684294
1.0785195
1.0739884
1.0785928
1.0774418
1.0800141
1.0804061
1.0821128
1.0832015
1.0846596
1.0860322
1.0875038
1.0890114
1.0905742
1.0921876
1.0938524
1.0955677
1.0973327
1.0991458
1.1010052
1.1029086
1.1048532
1.1068358
1.1088524
1.110899
1.1129708
1.1150626
1.1171689
1.1192838
1.1214012
1.1235147
1.1256179
1.1277043
1.1297676
1.1318016
1.1338004
1.1357584
1.1376707
1.1395326
1.1413401
1.1430898
1.1447789
1.1464052
1.147967
1.1494632
1.1508932
1.1522566
1.1535537
1.1547848
1.1559503
1.157051
1.1580876
1.1590606
1.1599707
1.1608182
1.1616035
1.162327
1.1629893
1.1635914
1.164135
1.1646233
1.1650606
1.1654533
1.1658094
1.1661392
1.1664554
1.1667719
1.1671016
1.1674536
1.167826
1.1681954
1.1684982
1.1686409
1.1685903
1.1683967
1.1677151
1.1666592
1.1652848
1.0464632
1.0815918
1.0671256
1.0775371
1.0728951
1.0777374
1.0766333
1.079327
1.0798278
1.0816278
1.082844
1.0844083
1.0859126
1.0875109
1.0891543
1.0908559
1.0926124
1.0944234
1.0962875
1.0982031
1.1001679
1.1021791
1.1042334
1.106327
1.1084554
1.1106137
1.1127965
1.1149977
1.117211
1.1194296
1.1216466
1.1238547
1.1260467
1.1282155
1.130354
1.1324554
1.1345135
1.1365225
1.1384769
1.1403723
1.1422048
1.1439711
1.1456688
1.1472961
1.1488519
1.1503359
1.151748
1.1530888
1.1543591
1.1555603
1.1566935
1.1577602
1.158762
1.1597002
1.1605763
1.1613912
1.1621461
1.1628417
1.163479
1.1640589
1.1645831
1.1650537
1.1654741
1.1658489
1.1661843
1.1664882
1.1667702
1.1670415
1.1673143
1.1675996
1.1679028
1.1682187
1.1685213
1.1687456
1.1687956
1.1686875
1.1684066
1.1676276
1.1665425
1.1652423
1.0454588
1.080934
1.0661888
1.0769687
1.0722497
1.077308
1.0762334
1.0791047
1.0796573
1.0815675
1.0829432
1.0846384
1.0862996
1.0880492
1.0898518
1.0917153
1.0936368
1.0956154
1.0976487
1.0997341
1.1018683
1.1040474
1.1062668
1.1085214
1.1108053
1.1131121
1.1154349
1.1177662
1.1200984
1.1224233
1.1247328
1.1270188
1.1292732
1.1314882
1.1336566
1.1357716
1.137827
1.1398175
1.1417385
1.1435863
1.1453581
1.147052
1.1486668
1.1502022
1.1516585
1.1530369
1.1543386
1.1555655
1.1567197
1.1578036
1.1588194
1.1597696
1.1606563
1.1614816
1.1622475
1.1629555
1.1636071
1.1642035
1.1647459
1.1652357
1.1656747
1.1660656
1.1664116
1.1667175
1.1669893
1.1672344
1.1674618
1.1676814
1.1679039
1.1681378
1.1683853
1.1686378
1.1688668
1.1690085
1.1689724
1.1688029
1.1684218
1.1675643
1.1664587
1.1652347
1.044786
1.0805973
1.0655984
1.0768307
1.071932
1.0771547
1.0761676
1.079151
1.079946
1.0820008
1.0835661
1.0854171
1.0872601
1.0891874
1.0911742
1.0932246
1.0953355
1.0975048
1.0997291
1.1020046
1.1043265
1.1066894
1.1090871
1.1115128
1.113959
1.1164174
1.1188795
1.1213363
1.1237784
1.1261966
1.1285817
1.1309247
1.133217
1.1354507
1.1376187
1.1397145
1.1417327
1.1436691
1.1455203
1.1472842
1.1489594
1.1505457
1.1520438
1.1534552
1.1547817
1.1560261
1.1571913
1.1582804
1.1592967
1.1602437
1.1611245
1.1619422
1.1626999
1.1634
1.1640448
1.1646364
1.1651764
1.1656662
1.1661072
1.1665011
1.1668498
1.1671558
1.1674227
1.167655
1.1678583
1.1680395
1.1682066
1.1683689
1.1685352
1.1687117
1.1688973
1.1690802
1.16923
1.1692877
1.1691724
1.1689423
1.1684372
1.1675346
1.1664136
1.1652705
1.0444785
1.0806177
1.0653959
1.0770296
1.0720093
1.0775983
1.0766615
1.0797809
1.0808009
1.083002
1.0847878
1.0868231
1.0888752
1.0910094
1.0932082
1.0954726
1.0977989
1.1001833
1.1026211
1.1051066
1.1076333
1.1101939
1.1127802
1.1153831
1.1179931
1.1206
1.1231934
1.1257625
1.1282966
1.1307854
1.1332188
1.1355875
1.1378829
1.1400974
1.1422247
1.1442596
1.146198
1.1480375
1.1497766
1.1514151
1.1529541
1.1543953
1.1557416
1.1569962
1.1581631
1.1592464
1.1602506
1.1611801
1.1620393
1.1628325
1.1635635
1.1642362
1.1648538
1.1654193
1.1659352
1.1664036
1.1668262
1.1672045
1.1675401
1.1678345
1.1680896
1.1683079
1.1684928
1.1686484
1.1687798
1.1688934
1.1689963
1.1690968
1.1692021
1.1693159
1.1694346
1.1695432
1.1696096
1.1695834
1.1694028
1.1691012
1.1684746
1.1675429
1.1664133
1.1653568
1.0445942
1.0810575
1.0656174
1.0775033
1.0725658
1.0783051
1.0777019
1.0809916
1.0822776
1.0846536
1.0866942
1.0889482
1.0912402
1.0936129
1.0960539
1.0985613
1.1011301
1.1037544
1.1064276
1.1091416
1.1118876
1.1146557
1.1174351
1.1202143
1.1229813
1.1257238
1.1284295
1.1310861
1.1336817
1.1362054
1.1386468
1.140997
1.1432481
1.145394
1.14743
1.1493528
1.151161
1.1528544
1.1544343
1.1559033
1.1572647
1.158523
1.1596829
1.16075
1.1617299
1.1626282
1.1634506
1.1642027
1.1648895
1.165516
1.1660867
1.1666054
1.1670758
1.1675009
1.1678831
1.1682246
1.168527
1.1687918
1.1690203
1.1692138
1.1693743
1.1695039
1.1696056
1.1696831
1.169741
1.1697847
1.1698209
1.1698564
1.169897
1.1699442
1.1699922
1.1700233
1.1700042
1.1698913
1.1696466
1.1692411
1.1685597
1.1675919
1.166464
1.1654979
1.04522
1.0819976
1.0663694
1.0785337
1.0737801
1.0797863
1.0794118
1.0828757
1.0844765
1.0870544
1.0893835
1.0918941
1.0944598
1.0971061
1.0998224
1.102604
1.1054435
1.1083326
1.1112614
1.114219
1.1171932
1.1201711
1.1231388
1.1260821
1.1289864
1.1318374
1.1346211
1.1373241
1.1399343
1.1424407
1.1448339
1.1471063
1.1492523
1.1512682
1.1531521
1.1549041
1.1565259
1.1580207
1.1593929
1.160648
1.1617922
1.1628324
1.1637754
1.1646286
1.165399
1.1660935
1.1667186
1.1672806
1.167785
1.168237
1.1686413
1.1690018
1.1693219
1.1696046
1.1698522
1.1700665
1.170249
1.1704007
1.1705229
1.1706167
1.1706835
1.1707252
1.1707443
1.1707439
1.170728
1.1707013
1.1706694
1.1706382
1.1706117
1.1705896
1.1705643
1.1705163
1.170411
1.1702088
1.1698833
1.1694014
1.1686884
1.167684
1.1665713
1.1656971
1.0463544
1.0834452
1.0676547
1.0802041
1.0756398
1.0818782
1.0818476
1.0855029
1.0874784
1.0903008
1.0929587
1.0957719
1.0986525
1.1016128
1.1046417
1.1077309
1.1108697
1.1140457
1.1172453
1.1204535
1.1236544
1.1268313
1.1299673
1.1330451
1.1360481
1.1389603
1.1417668
1.1444543
1.1470115
1.1494291
1.1517003
1.1538206
1.1557881
1.1576029
1.1592674
1.1607858
1.1621638
1.1634082
1.1645268
1.1655282
1.166421
1.1672142
1.1679164
1.1685363
1.1690818
1.1695605
1.1699795
1.1703451
1.1706631
1.1709384
1.1711754
1.171378
1.1715492
1.1716916
1.1718071
1.171897
1.1719626
1.1720046
1.1720237
1.1720207
1.1719967
1.1719531
1.1718918
1.1718152
1.1717266
1.1716301
1.1715303
1.1714317
1.1713369
1.1712441
1.1711442
1.1710167
1.1708277
1.1705444
1.1701515
1.1696198
1.1688571
1.1678216
1.1667369
1.1659579
1.0480499
1.0854478
1.0695293
1.0825227
1.0782207
1.0847172
1.0851131
1.0889839
1.0913962
1.0945179
1.0975522
1.1007218
1.1039657
1.107285
1.1106658
1.1140948
1.1175562
1.1210329
1.1245063
1.127957
1.1313646
1.1347088
1.1379694
1.1411269
1.1441633
1.1470623
1.1498099
1.1523949
1.1548091
1.1570472
1.159107
1.1609891
1.1626968
1.1642356
1.1656128
1.1668372
1.1679186
1.1688675
1.1696947
1.1704112
1.1710277
1.1715544
1.1720012
1.1723772
1.1726909
1.17295
1.1731613
1.1733311
1.1734646
1.1735664
1.1736406
1.1736902
1.1737179
1.1737256
1.1737147
1.1736862
1.1736407
1.1735784
1.1734997
1.173405
1.1732948
1.1731699
1.1730316
1.1728819
1.1727231
1.1725585
1.1723918
1.1722263
1.1720631
1.1718994
1.1717254
1.1715194
1.1712494
1.1708916
1.1704407
1.1698643
1.1690639
1.1680109
1.1669669
1.1662813
1.0503655
1.0880657
1.0721001
1.0855762
1.0816375
1.0883944
1.089323
1.093451
1.0963703
1.0998655
1.103336
1.1069245
1.110585
1.1143084
1.1180754
1.1218666
1.1256603
1.1294334
1.1331618
1.1368209
1.1403862
1.1438338
1.1471413
1.1502887
1.1532588
1.1560379
1.158616
1.1609869
1.1631486
1.1651023
1.1668527
1.168407
1.1697748
1.1709674
1.1719971
1.172877
1.1736206
1.1742411
1.1747516
1.1751646
1.1754917
1.175744
1.1759313
1.1760629
1.1761468
1.1761903
1.1761998
1.1761807
1.1761376
1.1760745
1.1759945
1.1759001
1.1757932
1.1756751
1.1755465
1.1754078
1.175259
1.1751
1.1749306
1.1747506
1.1745601
1.1743593
1.1741488
1.17393
1.1737045
1.1734747
1.1732433
1.1730124
1.172782
1.1725487
1.1723021
1.1720204
1.1716751
1.1712517
1.1707529
1.1701413
1.1693117
1.1682575
1.1672719
1.1666759
1.0533595
1.0913342
1.0754946
1.0894468
1.0860025
1.0930466
1.0946394
1.0990987
1.1026073
1.1065651
1.1105386
1.1146077
1.1187323
1.1228935
1.1270653
1.1312205
1.1353303
1.1393646
1.1432931
1.1470862
1.1507161
1.1541576
1.1573895
1.1603948
1.1631615
1.1656828
1.1679567
1.1699857
1.1717764
1.1733389
1.1746856
1.175831
1.1767909
1.1775817
1.1782199
1.1787219
1.1791033
1.179379
1.1795631
1.1796683
1.1797065
1.1796881
1.1796228
1.1795187
1.1793833
1.1792228
1.1790426
1.1788472
1.1786403
1.1784248
1.1782032
1.1779769
1.1777472
1.1775144
1.1772788
1.17704
1.1767976
1.1765509
1.1762991
1.1760415
1.1757777
1.1755073
1.1752304
1.1749475
1.1746597
1.1743686
1.1740758
1.1737823
1.1734874
1.1731874
1.1728719
1.1725198
1.172108
1.1716317
1.1710973
1.1704583
1.169608
1.1685686
1.1676663
1.1671626
1.0570987
1.0952617
1.0798442
1.0942765
1.0915177
1.098914
1.1013205
1.1062059
1.110384
1.1148918
1.1194284
1.1240273
1.1286471
1.133258
1.1378244
1.1423094
1.146675
1.1508838
1.1549006
1.1586936
1.1622359
1.1655067
1.1684918
1.1711834
1.1735805
1.1756875
1.1775141
1.1790739
1.1803837
1.1814623
1.1823297
1.1830065
1.1835132
1.1838697
1.1840948
1.1842065
1.184221
1.1841535
1.1840175
1.1838251
1.1835872
1.1833132
1.1830113
1.1826886
1.1823512
1.1820041
1.1816514
1.1812965
1.1809421
1.1805901
1.1802419
1.1798981
1.179559
1.1792245
1.1788939
1.1785664
1.178241
1.1779164
1.1775915
1.1772649
1.1769357
1.1766029
1.1762659
1.1759249
1.1755801
1.1752325
1.1748828
1.1745312
1.1741766
1.1738154
1.1734372
1.173023
1.1725568
1.1720429
1.1714856
1.1708263
1.1699653
1.1689637
1.1681741
1.1677655
1.0617677
1.0999749
1.085366
1.100391
1.0985137
1.1063261
1.1096886
1.1150955
1.1200108
1.1251469
1.1302958
1.1354546
1.1405725
1.1456045
1.150502
1.1552168
1.1597033
1.1639207
1.167835
1.1714203
1.1746597
1.1775451
1.1800771
1.1822633
1.1841181
1.1856602
1.1869121
1.1878984
1.1886448
1.1891772
1.1895209
1.1897001
1.1897374
1.1896541
1.1894692
1.1892001
1.1888625
1.1884699
1.1880346
1.1875669
1.1870761
1.1865699
1.1860549
1.1855366
1.1850194
1.1845071
1.1840025
1.1835078
1.1830245
1.1825534
1.182095
1.1816492
1.1812154
1.1807928
1.18038
1.1799758
1.1795786
1.1791867
1.1787983
1.1784118
1.1780254
1.1776379
1.1772481
1.1768555
1.1764601
1.1760619
1.1756612
1.1752576
1.1748505
1.1744363
1.1740047
1.1735399
1.1730343
1.1724992
1.1719329
1.1712623
1.1704042
1.1694722
1.168826
1.1685106
1.0676548
1.1060054
1.0924635
1.1081324
1.107338
1.115607
1.1200721
1.1261188
1.1318403
1.1376749
1.1434636
1.1491688
1.1547221
1.1600611
1.1651258
1.1698626
1.1742281
1.1781899
1.1817282
1.1848353
1.1875148
1.1897795
1.1916505
1.1931541
1.1943206
1.1951823
1.1957723
1.1961231
1.1962659
1.1962301
1.196043
1.1957293
1.1953112
1.1948086
1.1942391
1.1936179
1.1929585
1.1922723
1.1915692
1.1908574
1.190144
1.1894347
1.1887345
1.1880469
1.1873751
1.1867212
1.1860868
1.1854729
1.18488
1.1843081
1.1837565
1.1832244
1.1827106
1.1822136
1.1817315
1.1812626
1.1808048
1.1803561
1.1799141
1.1794768
1.1790421
1.178608
1.178173
1.1777362
1.1772971
1.1768555
1.176411
1.1759637
1.1755132
1.1750563
1.1745835
1.1740829
1.1735549
1.1730154
1.1724536
1.1717852
1.1709487
1.1701198
1.1696466
1.1694162
1.0749527
1.1139975
1.1013413
1.1177266
1.1183571
1.1271699
1.1329044
1.1397409
1.1463248
1.1528773
1.1592502
1.1653723
1.1711597
1.1765421
1.1814627
1.1858812
1.1897747
1.1931373
1.1959778
1.1983176
1.2001874
1.2016243
1.2026695
1.2033656
1.2037551
1.2038789
1.2037756
1.2034807
1.2030266
1.202442
1.2017527
1.2009811
1.2001466
1.1992661
1.1983542
1.197423
1.196483
1.1955428
1.1946098
1.1936898
1.1927876
1.1919071
1.1910511
1.1902219
1.1894211
1.1886494
1.1879074
1.1871949
1.1865116
1.1858564
1.185228
1.184625
1.1840454
1.1834872
1.1829482
1.1824262
1.1819188
1.1814235
1.1809377
1.1804588
1.1799844
1.179512
1.1790399
1.1785669
1.178092
1.1776148
1.1771353
1.1766537
1.1761705
1.1756827
1.1751822
1.174662
1.1741294
1.1736009
1.1730556
1.1724058
1.1716163
1.1709171
1.1706369
1.1704711
1.0837822
1.1237442
1.1125931
1.1297088
1.1322065
1.1416988
1.1488259
1.1565525
1.1639469
1.1710727
1.1777791
1.1839782
1.1895935
1.1945745
1.1988959
1.2025558
1.2055724
1.2079798
1.2098234
1.2111558
1.212033
1.2125114
1.2126457
1.2124875
1.212084
1.2114781
1.2107079
1.2098066
1.2088034
1.2077233
1.2065877
1.2054148
1.2042199
1.2030158
1.2018134
1.2006213
1.1994469
1.1982959
1.197173
1.1960819
1.1950251
1.1940049
1.1930224
1.1920783
1.191173
1.1903063
1.1894776
1.1886858
1.1879298
1.1872078
1.186518
1.1858581
1.1852259
1.1846189
1.1840346
1.1834704
1.1829236
1.1823915
1.1818711
1.1813595
1.1808539
1.1803517
1.1798507
1.1793495
1.1788472
1.1783432
1.177838
1.1773324
1.1768273
1.1763203
1.1758055
1.175281
1.1747591
1.1742534
1.1737335
1.1731169
1.1724034
1.171848
1.1717433
1.1716501
1.0948683
1.1361671
1.1271136
1.1450199
1.1498292
1.1600828
1.168534
1.1770299
1.1849181
1.1921749
1.1986775
1.2043657
1.209212
1.213223
1.2164326
1.2188948
1.2206772
1.2218542
1.2225027
1.2226972
1.2225086
1.2220012
1.2212332
1.2202555
1.2191125
1.2178425
1.2164778
1.2150459
1.2135699
1.2120689
1.2105587
1.2090526
1.207561
1.2060927
1.2046546
1.2032522
1.2018896
1.2005701
1.1992961
1.198069
1.19689
1.1957593
1.194677
1.1936426
1.1926553
1.1917141
1.1908174
1.1899637
1.1891509
1.1883769
1.1876392
1.1869352
1.1862622
1.1856175
1.1849984
1.1844018
1.183825
1.183265
1.1827186
1.1821826
1.181654
1.1811299
1.1806081
1.1800869
1.1795654
1.1790435
1.1785218
1.1780019
1.1774848
1.176969
1.1764512
1.1759342
1.1754324
1.1749543
1.1744645
1.1738927
1.1732704
1.1728598
1.1728921
1.1728617
1.1097511
1.1523554
1.1461704
1.164724
1.1721879
1.183091
1.1923892
1.2010916
1.2087549
1.2153576
1.220865
1.2253013
1.2287256
1.2312238
1.2328966
1.2338505
1.2341911
1.234018
1.2334221
1.2324843
1.2312749
1.2298543
1.2282738
1.2265762
1.2247972
1.2229662
1.2211073
1.2192401
1.2173807
1.2155417
1.2137334
1.2119638
1.2102392
1.2085644
1.2069429
1.2053773
1.2038693
1.2024199
1.2010295
1.1996981
1.1984253
1.19721
1.1960514
1.1949479
1.193898
1.1928999
1.1919515
1.1910506
1.1901948
1.1893813
1.1886075
1.1878703
1.1871669
1.1864943
1.1858494
1.1852292
1.1846306
1.1840506
1.1834858
1.1829328
1.1823886
1.18185
1.1813148
1.1807811
1.1802482
1.1797162
1.1791861
1.1786597
1.1781384
1.1776214
1.1771085
1.1766059
1.1761274
1.1756759
1.1752154
1.1746942
1.1741677
1.1738809
1.1739929
1.1739625
1.129952
1.1736049
1.1711912
1.189843
1.1996705
1.2106925
1.2198218
1.227652
1.2340197
1.2389915
1.242663
1.2451712
1.2466679
1.2473073
1.2472362
1.2465878
1.2454792
1.2440113
1.2422689
1.2403226
1.2382302
1.2360391
1.2337873
1.2315055
1.2292182
1.2269446
1.2247001
1.2224964
1.2203429
1.2182464
1.2162121
1.2142438
1.212344
1.2105144
1.2087558
1.2070685
1.205452
1.2039059
1.2024289
1.2010199
1.1996771
1.198399
1.1971835
1.1960286
1.1949322
1.1938919
1.1929052
1.1919695
1.1910819
1.1902395
1.1894393
1.1886781
1.1879529
1.1872604
1.1865975
1.185961
1.1853478
1.1847545
1.1841778
1.1836143
1.1830607
1.182514
1.1819717
1.181432
1.1808942
1.1803583
1.1798258
1.1792983
1.1787772
1.178263
1.1777582
1.1772711
1.1768138
1.1763847
1.1759517
1.175482
1.1750406
1.1748317
1.1749562
1.1749174
1.1580301
1.2007125
1.2032829
1.221273
1.2314793
1.2412989
1.2488647
1.2545721
1.2585488
1.2610322
1.262257
1.2624533
1.261828
1.2605611
1.2588039
1.2566812
1.2542939
1.251723
1.2490324
1.2462726
1.2434829
1.2406938
1.2379288
1.2352059
1.2325387
1.2299373
1.2274091
1.2249594
1.2225918
1.2203086
1.2181109
1.2159992
1.2139732
1.2120322
1.2101749
1.2083999
1.2067054
1.2050895
1.20355
1.2020848
1.2006915
1.1993677
1.198111
1.1969189
1.1957887
1.1947177
1.1937033
1.1927424
1.191832
1.190969
1.1901502
1.1893724
1.1886322
1.1879265
1.1872519
1.1866053
1.1859831
1.1853821
1.1847988
1.1842299
1.183672
1.1831221
1.1825777
1.182037
1.1814989
1.1809636
1.1804321
1.179906
1.1793865
1.1788755
1.1783773
1.1779013
1.1774577
1.1770435
1.1766341
1.1762126
1.1758383
1.1756641
1.1757574
1.1757364
1.1965862
1.2354791
1.2412585
1.2565062
1.265602
1.2724922
1.2768718
1.2792859
1.2800936
1.2796578
1.2782761
1.2761943
1.2736079
1.2706696
1.2674973
1.2641811
1.2607891
1.2573726
1.2539698
1.2506091
1.2473113
1.2440913
1.2409599
1.2379243
1.2349894
1.2321579
1.2294313
1.2268099
1.2242931
1.2218798
1.2195682
1.2173564
1.2152422
1.213223
1.2112962
1.2094593
1.2077093
1.2060437
1.2044594
1.2029537
1.2015238
1.2001668
1.19888
1.1976605
1.1965054
1.1954119
1.194377
1.1933976
1.1924706
1.1915927
1.1907607
1.1899712
1.1892211
1.1885068
1.1878251
1.1871725
1.1865456
1.1859409
1.1853548
1.1847839
1.184225
1.1836751
1.1831317
1.1825926
1.1820567
1.1815238
1.1809943
1.1804695
1.1799508
1.1794408
1.1789451
1.1784726
1.1780314
1.1776202
1.1772253
1.1768426
1.1765185
1.1763543
1.1763877
1.1763684
1.2438213
1.2762842
1.2834447
1.2932222
1.2981287
1.3004841
1.3006768
1.2993525
1.2969423
1.2937894
1.2901448
1.2861931
1.282068
1.2778653
1.2736535
1.2694809
1.2653813
1.261378
1.2574866
1.2537173
1.2500762
1.2465664
1.2431892
1.2399441
1.2368297
1.2338438
1.2309837
1.2282461
1.2256279
1.2231255
1.2207353
1.2184539
1.2162776
1.2142029
1.2122262
1.2103442
1.2085534
1.2068506
1.2052324
1.2036957
1.2022373
1.2008543
1.1995434
1.1983019
1.1971267
1.1960147
1.194963
1.1939683
1.1930276
1.1921375
1.1912948
1.1904962
1.1897383
1.1890177
1.188331
1.1876746
1.1870449
1.1864383
1.1858511
1.1852798
1.1847212
1.1841723
1.1836303
1.1830933
1.1825596
1.1820285
1.1814999
1.1809746
1.1804542
1.1799422
1.1794441
1.1789674
1.1785182
1.1780976
1.1777037
1.1773446
1.1770562
1.1768922
1.17685
1.1767716
1.2975354
1.3182013
1.3227883
1.3251894
1.3244453
1.3218553
1.3180315
1.3134609
1.3084632
1.3032546
1.2979785
1.2927291
1.2875678
1.2825337
1.2776511
1.2729339
1.2683895
1.2640207
1.259827
1.255806
1.2519541
1.2482668
1.2447389
1.2413653
1.2381406
1.2350593
1.2321162
1.2293061
1.226624
1.224065
1.2216245
1.2192978
1.2170807
1.2149689
1.2129585
1.2110456
1.2092263
1.2074972
1.2058546
1.2042952
1.2028158
1.2014131
1.2000839
1.1988254
1.1976343
1.1965077
1.1954425
1.1944356
1.1934838
1.1925839
1.1917326
1.1909267
1.1901629
1.1894376
1.1887474
1.1880886
1.1874575
1.1868503
1.1862631
1.1856924
1.1851348
1.1845872
1.184047
1.183512
1.1829802
1.1824504
1.1819221
1.1813956
1.180873
1.1803576
1.1798544
1.1793694
1.1789082
1.1784764
1.1780816
1.1777358
1.1774545
1.1772489
1.1771149
1.1770225
1.3500793
1.3534922
1.3523625
1.3479805
1.3422351
1.3357456
1.3289762
1.3221676
1.3154657
1.3089495
1.3026619
1.2966231
1.2908402
1.2853125
1.2800344
1.2749981
1.2701941
1.2656126
1.2612435
1.2570769
1.2531034
1.2493137
1.2456994
1.2422521
1.2389642
1.2358286
1.2328383
1.2299869
1.2272686
1.2246775
1.2222082
1.2198559
1.2176155
1.2154826
1.2134528
1.211522
1.2096861
1.2079415
1.2062844
1.2047113
1.2032189
1.2018039
1.2004631
1.1991935
1.197992
1.1968555
1.1957811
1.1947656
1.1938059
1.1928989
1.1920414
1.1912302
1.1904621
1.1897336
1.1890413
1.1883813
1.18775
1.1871434
1.1865576
1.1859888
1.1854335
1.1848887
1.1843516
1.18382
1.1832917
1.182765
1.1822387
1.1817128
1.1811888
1.18067
1.1801604
1.1796646
1.1791893
1.1787458
1.1783494
1.178011
1.1777242
1.1774701
1.1772585
1.1771688
1.3839696
1.3765023
1.3691229
1.3609604
1.352479
1.3440833
1.3359423
1.3281306
1.3206771
1.3135854
1.3068474
1.3004487
1.2943723
1.2886005
1.2831159
1.2779017
1.2729419
1.268222
1.2637282
1.2594478
1.2553694
1.2514821
1.2477761
1.2442422
1.2408721
1.2376577
1.234592
1.2316682
1.2288798
1.2262211
1.2236864
1.2212706
1.2189687
1.2167761
1.2146883
1.2127013
1.2108109
1.2090134
1.2073051
1.2056824
1.2041421
1.2026808
1.2012954
1.1999829
1.1987402
1.1975643
1.1964523
1.1954011
1.1944076
1.1934688
1.1925815
1.1917427
1.1909491
1.1901973
1.1894839
1.1888051
1.188157
1.1875355
1.1869365
1.186356
1.18579
1.1852354
1.1846893
1.184149
1.1836123
1.1830772
1.1825418
1.1820054
1.1814692
1.180936
1.1804094
1.1798942
1.1793979
1.1789351
1.1785259
1.1781793
1.1778763
1.1775836
1.1773239
1.1772363
1.1647494
1.1678623
1.1817365
1.1929605
1.1982083
1.1994294
1.1995012
1.1991843
1.1992164
1.1989407
1.1986751
1.1981292
1.1975519
1.1969119
1.1962341
1.1955176
1.194766
1.193985
1.1931795
1.1923538
1.1915119
1.1906574
1.1897935
1.1889232
1.1880492
1.1871737
1.1862991
1.1854273
1.1845603
1.1836996
1.182847
1.182004
1.181172
1.1803525
1.1795467
1.1787561
1.1779818
1.1772253
1.1764879
1.1757707
1.1750752
1.1744027
1.1737545
1.1731321
1.1725369
1.1719703
1.1714339
1.1709292
1.1704576
1.1700208
1.1696203
1.1692574
1.1689337
1.1686503
1.1684084
1.1682087
1.1680517
1.1679373
1.1678649
1.1678329
1.1678382
1.1678765
1.1679411
1.1680229
1.1681095
1.1681851
1.16823
1.168221
1.1681334
1.1679459
1.1676545
1.1672647
1.1668746
1.1664582
1.1663492
1.1662071
1.1669323
1.167647
1.1683337
1.1684628
1.1601585
1.17026
1.1855835
1.1934547
1.1955801
1.1954611
1.1949172
1.1946531
1.1943176
1.1939928
1.1935881
1.1931801
1.1927266
1.192242
1.1917205
1.1911687
1.1905883
1.189982
1.189352
1.1887005
1.1880297
1.1873418
1.1866391
1.1859237
1.1851977
1.1844633
1.1837225
1.1829775
1.1822302
1.1814826
1.1807366
1.1799941
1.1792569
1.1785268
1.1778056
1.177095
1.1763966
1.1757121
1.1750433
1.1743917
1.173759
1.1731468
1.1725569
1.1719908
1.1714502
1.1709368
1.1704522
1.1699982
1.1695764
1.1691884
1.1688358
1.1685202
1.1682429
1.168005
1.1678077
1.1676516
1.1675369
1.1674632
1.1674297
1.1674342
1.1674732
1.1675418
1.1676329
1.1677369
1.1678411
1.1679298
1.1679835
1.1679801
1.1678966
1.1677157
1.1674352
1.1670743
1.1667136
1.1663493
1.1662942
1.1662347
1.1670403
1.1677632
1.1683708
1.1684142
1.1599745
1.1727713
1.1837972
1.1899273
1.1908122
1.1903233
1.1898254
1.1895546
1.1892563
1.1889671
1.1886329
1.1882942
1.1879251
1.1875423
1.1871344
1.1867077
1.1862597
1.1857917
1.1853041
1.1847975
1.1842731
1.1837318
1.1831748
1.1826034
1.182019
1.1814232
1.1808175
1.1802035
1.1795829
1.1789575
1.178329
1.1776994
1.1770703
1.1764437
1.1758214
1.1752053
1.1745973
1.1739994
1.1734132
1.1728409
1.1722842
1.171745
1.1712253
1.1707269
1.1702517
1.1698015
1.1693783
1.1689839
1.1686201
1.1682886
1.1679912
1.1677293
1.1675044
1.1673176
1.1671699
1.1670618
1.1669933
1.1669638
1.1669721
1.1670157
1.1670907
1.1671915
1.1673108
1.1674385
1.1675619
1.1676652
1.1677295
1.167734
1.1676573
1.1674861
1.1672212
1.1668901
1.1665639
1.1662728
1.1662526
1.1662678
1.1671383
1.1678755
1.1684019
1.1683596
1.1570473
1.170856
1.1812999
1.1857865
1.1856089
1.1852387
1.1848228
1.1846293
1.1843296
1.1840861
1.1837881
1.1835139
1.1832118
1.1829102
1.1825897
1.1822596
1.1819149
1.181557
1.1811852
1.1807991
1.1803988
1.1799844
1.1795561
1.1791145
1.1786602
1.178194
1.1777167
1.1772295
1.1767336
1.1762304
1.1757212
1.1752077
1.1746914
1.1741741
1.1736576
1.1731437
1.1726342
1.1721312
1.1716366
1.1711525
1.1706807
1.1702235
1.1697827
1.1693606
1.168959
1.1685802
1.168226
1.1678986
1.1675997
1.1673313
1.1670951
1.1668927
1.1667255
1.1665947
1.166501
1.1664448
1.1664261
1.166444
1.1664969
1.1665819
1.1666948
1.1668295
1.1669784
1.167131
1.1672746
1.1673935
1.1674696
1.1674831
1.1674149
1.1672556
1.1670095
1.1667101
1.1664226
1.1661949
1.1662211
1.1663127
1.1672346
1.1679803
1.1684289
1.1682992
1.1512687
1.1671669
1.1768455
1.1802418
1.179758
1.1796758
1.1793491
1.1792936
1.179076
1.178951
1.1787484
1.1785842
1.178383
1.1781898
1.1779766
1.1777572
1.1775239
1.1772793
1.1770221
1.1767521
1.1764693
1.1761736
1.1758649
1.1755436
1.17521
1.1748645
1.1745078
1.1741406
1.1737637
1.1733782
1.1729852
1.1725859
1.1721818
1.1717743
1.171365
1.1709557
1.170548
1.170144
1.1697455
1.1693546
1.1689733
1.1686037
1.1682479
1.167908
1.1675863
1.1672848
1.1670057
1.166751
1.1665228
1.166323
1.1661532
1.1660152
1.1659103
1.1658396
1.1658038
1.1658032
1.1658374
1.1659054
1.1660053
1.1661339
1.1662864
1.1664566
1.1666363
1.1668151
1.16698
1.1671158
1.1672049
1.167229
1.1671713
1.1670265
1.1668022
1.1665367
1.166291
1.1661209
1.1661905
1.1663743
1.1673304
1.1680671
1.1684588
1.1682333
1.1453858
1.1637044
1.1720614
1.1748482
1.1742318
1.1743844
1.174106
1.1741805
1.1740292
1.1740112
1.1738897
1.173824
1.1737114
1.1736132
1.1734933
1.1733705
1.1732337
1.1730873
1.1729296
1.1727609
1.172581
1.1723897
1.172187
1.1719729
1.1717477
1.1715114
1.1712646
1.1710075
1.1707408
1.1704653
1.1701817
1.1698911
1.1695946
1.1692934
1.168989
1.1686828
1.1683766
1.1680719
1.1677707
1.1674749
1.1671865
1.1669076
1.1666402
1.1663865
1.1661486
1.1659288
1.1657292
1.1655518
1.1653987
1.1652717
1.1651727
1.1651031
1.1650643
1.1650574
1.1650828
1.1651407
1.1652305
1.1653511
1.1655001
1.165674
1.1658678
1.1660748
1.1662866
1.1664926
1.1666799
1.1668337
1.1669371
1.1669733
1.166928
1.1667998
1.1666001
1.1663708
1.1661682
1.166053
1.1661628
1.1664514
1.167427
1.1681247
1.1684909
1.1681634
1.1402887
1.160476
1.1674021
1.169873
1.1691659
1.1695033
1.1692362
1.1694129
1.1693007
1.1693651
1.1693048
1.1693224
1.1692838
1.169259
1.1692098
1.1691631
1.1691047
1.1690399
1.1689662
1.1688837
1.1687921
1.1686911
1.1685805
1.1684602
1.1683303
1.1681907
1.1680416
1.1678833
1.1677162
1.1675409
1.1673578
1.1671679
1.166972
1.1667711
1.1665665
1.1663595
1.1661515
1.165944
1.1657388
1.1655377
1.1653424
1.1651551
1.1649776
1.164812
1.1646605
1.1645251
1.164408
1.1643111
1.1642363
1.1641856
1.1641606
1.1641627
1.1641933
1.164253
1.1643424
1.1644613
1.164609
1.1647841
1.1649839
1.1652047
1.1654411
1.1656861
1.1659311
1.1661653
1.166376
1.1665488
1.1666676
1.1667174
1.1666866
1.1665774
1.1664046
1.1662136
1.1660557
1.1659941
1.1661599
1.1665403
1.167523
1.1681624
1.1685243
1.1680882
1.1355738
1.1575811
1.1630423
1.1653822