# Residuals       
# Time            	p                 	Ux                	Uz                	k                 	omega             
0                 	N/A               	N/A               	N/A               	N/A               	N/A               
1                 	9.9999999939e-01	9.9999999885e-01	1.0000000000e+00	9.9999999999e-01	1.9331547840e-04
2                 	2.4036598302e-02	2.0334482871e-02	6.0284594612e-01	3.4423469104e-02	2.9134090360e-03
3                 	2.2573630464e-02	9.6562198595e-03	2.1767606320e-01	3.7808053116e-03	7.3090056043e-03
4                 	3.1870643730e-02	3.1780522584e-03	1.3781309673e-01	2.3274630235e-03	1.4559392266e-03
5                 	6.4598497124e-02	3.7726631187e-03	2.6999382446e-01	2.5531899080e-03	3.6175153269e-04
6                 	5.1549520989e-02	2.1602523590e-03	2.0405717366e-01	2.4280279479e-03	3.7329607579e-04
7                 	1.5908076477e-01	1.1945676592e-03	1.9689786305e-01	3.6732417428e-03	3.6055258829e-04
8                 	5.4423790314e-02	1.8398403452e-03	1.6797307067e-01	8.9289254847e-04	5.6011437828e-04
9                 	6.9905593271e-02	1.7257627881e-03	8.9803618842e-02	7.4166500453e-04	3.7472700752e-04
10                	3.5952409847e-01	1.0857682460e-03	9.5732401834e-02	9.6395702527e-04	3.2514777609e-04
11                	3.8564653015e-01	1.1931105579e-03	1.0230765584e-01	9.6790081703e-04	2.3892907405e-04
12                	2.1130675710e-01	8.8251819293e-04	8.8410817277e-02	9.1336435423e-04	2.4739183390e-04
13                	1.2548188301e-01	5.8271399746e-04	7.6799863329e-02	9.5679131521e-04	2.6723469226e-04
14                	1.7504687785e-01	7.4385751966e-04	6.8825191619e-02	1.0189195190e-03	2.1230412086e-04
15                	5.4798357252e-01	6.0683857791e-04	5.9776670900e-02	1.0005575665e-03	2.1843458125e-04
16                	7.4379428839e-01	4.3374404426e-04	5.0286056753e-02	7.4522580256e-04	2.1232299034e-04
17                	2.6062163735e-01	4.7635006767e-04	5.3385373532e-02	4.0996402901e-04	1.7558280179e-04
18                	1.7709705894e-01	4.2968358828e-04	5.4178766894e-02	3.7491890324e-04	1.5661926367e-04
19                	2.0145549247e-01	3.4792050226e-04	4.2892122876e-02	3.5326667364e-04	1.3978928641e-04
20                	3.1288756082e-01	3.3507352944e-04	4.1403685921e-02	2.8633046069e-04	1.4391081966e-04
21                	4.7479898717e-01	3.7087940530e-04	4.4555521006e-02	2.6682621163e-04	1.1156575760e-04
22                	3.3884633556e-01	3.2986749366e-04	3.6798604653e-02	2.6320963593e-04	1.0284089147e-04
23                	2.1883206408e-01	2.8888513852e-04	3.9019450328e-02	2.3905686925e-04	1.0705660068e-04
24                	1.8903234207e-01	3.3923345028e-04	3.9327451435e-02	2.1619346670e-04	8.6036720862e-05
25                	1.9751316140e-01	3.0811636281e-04	3.1428852835e-02	2.1090848529e-04	7.8400534986e-05
26                	2.1987137367e-01	2.3957717406e-04	2.7785132614e-02	2.0101215959e-04	7.7482584323e-05
27                	2.3531019246e-01	3.0485920277e-04	3.2515924154e-02	1.9120433834e-04	6.3725390522e-05
28                	2.2156318423e-01	3.6803898290e-04	3.0687930248e-02	1.8300214967e-04	5.6839930116e-05
29                	1.9412510675e-01	3.0903659203e-04	2.6150951231e-02	1.6414444368e-04	5.3604224012e-05
30                	1.7902410043e-01	2.5418794784e-04	2.7497682823e-02	1.5606630358e-04	4.7856430005e-05
31                	1.7834088061e-01	2.7302831908e-04	2.8656280698e-02	1.4469389114e-04	4.3588597885e-05
32                	1.7382877372e-01	2.8889596059e-04	2.6840738624e-02	1.3638853008e-04	4.0996813723e-05
33                	1.7097146449e-01	2.4114158788e-04	2.2647491449e-02	1.3304658794e-04	3.7950523173e-05
34                	1.7204259624e-01	2.5609493020e-04	2.2808859942e-02	1.2593078870e-04	3.4958961578e-05
35                	1.6900718560e-01	2.7763172617e-04	2.0929517248e-02	1.1523770796e-04	3.2990067564e-05
36                	1.6583298149e-01	2.6646050541e-04	2.0049272596e-02	1.0832831753e-04	3.1629980134e-05
37                	1.6718993771e-01	2.4490130986e-04	2.2665770070e-02	1.0479857652e-04	3.0133959389e-05
38                	1.6645508019e-01	2.2778519745e-04	2.1650218840e-02	1.0405171937e-04	2.8506584050e-05
39                	1.5531932449e-01	2.1663516072e-04	2.0376749181e-02	1.0422317815e-04	2.6963892400e-05
40                	1.4717947308e-01	2.2550369769e-04	1.9359896532e-02	1.0401760727e-04	2.5711645663e-05
41                	1.4514556218e-01	2.1130091761e-04	1.7921683218e-02	1.0309809554e-04	2.4585478612e-05
42                	1.3720384222e-01	1.8101208443e-04	1.5625913125e-02	1.0204999933e-04	2.3543946839e-05
43                	1.2967100845e-01	1.8698041482e-04	1.5803152031e-02	1.0142264384e-04	2.2567480053e-05
44                	1.2855876969e-01	2.0255693952e-04	1.6525742531e-02	1.0101841334e-04	2.1474739470e-05
45                	1.2399104026e-01	1.8850932020e-04	1.5375882538e-02	1.0164824561e-04	2.0378748260e-05
46                	1.1306358332e-01	1.6500164542e-04	1.4831331895e-02	1.0178570568e-04	1.9297636613e-05
47                	1.0175703387e-01	1.6841927500e-04	1.5050700953e-02	1.0117516600e-04	1.8371375156e-05
48                	9.3328313434e-02	1.7675390860e-04	1.3936867102e-02	9.9456413386e-05	1.7316329178e-05
49                	8.5904503238e-02	1.6104230152e-04	1.2345952129e-02	9.7121436465e-05	1.6370149631e-05
50                	7.8591881273e-02	1.4015335420e-04	1.2768250427e-02	9.4488823530e-05	1.5588799420e-05
51                	7.2633039741e-02	1.3355794458e-04	1.2546595396e-02	9.1605827335e-05	1.4862914407e-05
52                	6.7854893557e-02	1.3830601533e-04	1.2545064893e-02	8.8495163089e-05	1.4143817519e-05
53                	6.2242687224e-02	1.3808270387e-04	1.1890725656e-02	8.5259266227e-05	1.3475660637e-05
54                	5.7506106867e-02	1.3072589810e-04	1.0960568414e-02	8.1906368161e-05	1.2868393597e-05
55                	5.4610605100e-02	1.2494552773e-04	1.0120967328e-02	7.8391692551e-05	1.2189023910e-05
56                	5.0258334767e-02	1.1901762065e-04	8.9567887395e-03	7.4754899472e-05	1.1509815114e-05
57                	4.5692318537e-02	1.1076495868e-04	8.1356752917e-03	7.1137547120e-05	1.0845952592e-05
58                	4.4014611256e-02	9.5742380982e-05	8.1392793651e-03	6.7443086264e-05	1.0241650338e-05
59                	4.3634612378e-02	9.2336861951e-05	8.4897351462e-03	6.3553162913e-05	9.6919445874e-06
60                	4.3233026168e-02	9.5824275873e-05	8.1079070888e-03	5.9500458231e-05	9.1967660795e-06
61                	4.2440008582e-02	9.5684806419e-05	7.5303676219e-03	5.5337903031e-05	8.7405183719e-06
62                	4.0980406058e-02	8.7182877314e-05	7.0406887536e-03	5.1336432882e-05	8.3498236904e-06
63                	4.0598754710e-02	7.7469762596e-05	6.3593708853e-03	4.7599190821e-05	8.0146011093e-06
64                	4.1556468069e-02	7.0333102410e-05	5.4096308595e-03	4.4142540137e-05	7.6867128801e-06
65                	4.1728646187e-02	6.8295440167e-05	5.0338569058e-03	4.1074402896e-05	7.3821344285e-06
66                	4.0314523526e-02	6.5526525567e-05	4.9168334620e-03	3.8420441039e-05	7.1009242999e-06
67                	3.9152184589e-02	6.0486898052e-05	5.3112111970e-03	3.6136118232e-05	6.8506955869e-06
68                	4.0088101002e-02	6.0170701211e-05	5.2141593411e-03	3.4149534896e-05	6.6098463807e-06
69                	4.1053130649e-02	6.0235002103e-05	4.7134541454e-03	3.2366848615e-05	6.3683765206e-06
70                	3.9619893051e-02	5.5962847014e-05	4.4698049302e-03	3.0788513112e-05	6.1247066101e-06
71                	3.8890345774e-02	5.3081882965e-05	4.2373924592e-03	2.9414122294e-05	5.8769949932e-06
72                	4.0119004417e-02	5.0572193530e-05	3.9673012307e-03	2.8169105329e-05	5.6300910684e-06
73                	4.1015808218e-02	4.6652525879e-05	3.5627466872e-03	2.7080917191e-05	5.3861952117e-06
74                	3.9824311832e-02	4.5342581391e-05	3.2815364640e-03	2.6040982880e-05	5.1529309515e-06
75                	3.9205937980e-02	4.3784411678e-05	3.1496912481e-03	2.5070560148e-05	4.9271547610e-06
76                	4.0841226734e-02	4.1440323040e-05	3.0176518235e-03	2.4187821882e-05	4.7119017814e-06
77                	4.1856802669e-02	3.9734080534e-05	2.9943457682e-03	2.3384732912e-05	4.5039317646e-06
78                	4.0574405521e-02	3.9341699110e-05	3.1170393542e-03	2.2664276184e-05	4.3063535994e-06
79                	4.0404344478e-02	4.0321062140e-05	3.2264324655e-03	2.2004192149e-05	4.1740552538e-06
80                	4.2111711528e-02	4.0938071113e-05	3.2019485981e-03	2.1466640301e-05	3.9739912207e-06
81                	4.2734484394e-02	4.0286913626e-05	3.0469299199e-03	2.0985845366e-05	3.8456802596e-06
82                	4.1312744785e-02	3.8096357817e-05	2.7589338483e-03	2.0650992328e-05	3.6622286481e-06
83                	4.1044419755e-02	3.5118005264e-05	2.4547009261e-03	2.0340769050e-05	3.5444953557e-06
84                	4.1916620734e-02	3.4102635791e-05	2.3391795683e-03	2.0085361346e-05	3.4124069088e-06
85                	4.1083592905e-02	3.3641165689e-05	2.1345408094e-03	1.9877702323e-05	3.2828242599e-06
86                	3.9120908189e-02	3.3653206939e-05	2.0841271040e-03	1.9691256025e-05	3.1581505078e-06
87                	3.8464569320e-02	3.2861138455e-05	1.9694618018e-03	1.9520278377e-05	3.0403859005e-06
88                	3.8682031779e-02	3.2220124875e-05	1.9249207832e-03	1.9391534382e-05	2.9309086536e-06
89                	3.7570907666e-02	3.2414608286e-05	1.9944074101e-03	1.9295202350e-05	2.8302692566e-06
90                	3.5070397818e-02	3.3343062535e-05	2.0624801166e-03	1.9208956984e-05	2.7367352959e-06
91                	3.3256736917e-02	3.4056825845e-05	2.0931805763e-03	1.9129013463e-05	2.6507245036e-06
92                	3.3116920385e-02	3.4325668947e-05	2.0816274686e-03	1.9031812828e-05	2.5694401252e-06
93                	3.2400751141e-02	3.4371448795e-05	2.0210281336e-03	1.8911875982e-05	2.4912299401e-06
94                	3.0240719656e-02	3.4319640605e-05	1.9163675659e-03	1.8772476448e-05	2.4152936223e-06
95                	2.7748201523e-02	3.4052113877e-05	1.7904714626e-03	1.8630359055e-05	2.3421152038e-06
96                	2.6941039894e-02	3.3228013401e-05	1.6480275793e-03	1.8478101794e-05	2.2718148034e-06
97                	2.6613540343e-02	3.1724390780e-05	1.5176408702e-03	1.8305954469e-05	2.2055021813e-06
98                	2.5130140250e-02	2.9679029698e-05	1.4266810120e-03	1.8144320501e-05	2.1430578833e-06
99                	2.2607571962e-02	2.7597192409e-05	1.4083920178e-03	1.7972575044e-05	2.0892726274e-06
100               	2.0804495108e-02	3.0041703933e-05	1.9448785627e-03	1.7755436693e-05	2.0363300161e-06
101               	2.0307049149e-02	3.1291597347e-05	1.8782968192e-03	1.7513445785e-05	1.9731260128e-06
102               	1.9498912364e-02	2.9826481362e-05	1.5800555759e-03	1.7250345407e-05	1.9119092740e-06
103               	1.7846222520e-02	2.8328067897e-05	1.5271672321e-03	1.6983902875e-05	1.8588545693e-06
104               	1.6115958533e-02	2.9550415403e-05	1.6381188900e-03	1.6726429618e-05	1.8156244955e-06
105               	1.5388421426e-02	3.1527086880e-05	1.5379621233e-03	1.6474836219e-05	1.7744758566e-06
106               	1.5088112752e-02	3.1389116627e-05	1.3918608898e-03	1.6220087966e-05	1.7320979299e-06
107               	1.4372570099e-02	2.8424789872e-05	1.2557680643e-03	1.5948794042e-05	1.6874628712e-06
108               	1.3181696892e-02	2.4900481867e-05	1.2750568192e-03	1.5669506625e-05	1.6402327825e-06
109               	1.2214932671e-02	2.4469182412e-05	1.2720728070e-03	1.5395108405e-05	1.5917529383e-06
110               	1.1733339802e-02	2.4984032468e-05	1.2378699729e-03	1.5136351070e-05	1.5480576963e-06
111               	1.1389242858e-02	2.5004997989e-05	1.1684586439e-03	1.4887262019e-05	1.5107245744e-06
112               	1.0816786102e-02	2.4692680934e-05	1.1005010838e-03	1.4657713804e-05	1.4837353730e-06
113               	1.0077499394e-02	2.5014953916e-05	1.0637438797e-03	1.4401088998e-05	1.4515903384e-06
114               	9.4747202323e-03	2.5627386400e-05	1.0127693895e-03	1.4165911556e-05	1.4095053167e-06
115               	9.1699372743e-03	2.5445843813e-05	9.4911060264e-04	1.3918778924e-05	1.3796061674e-06
116               	8.9374777762e-03	2.4133384097e-05	9.0318408769e-04	1.3698535448e-05	1.3398261690e-06
117               	8.5373020463e-03	2.2647361264e-05	9.0908568672e-04	1.3466240725e-05	1.3135296514e-06
118               	7.9333944556e-03	2.2158031188e-05	9.4204439410e-04	1.3247535170e-05	1.2763540094e-06
119               	7.3914634658e-03	2.2225753696e-05	9.4552659292e-04	1.3013118768e-05	1.2513078152e-06
120               	7.0716359444e-03	2.2115698616e-05	9.0201402116e-04	1.2795463762e-05	1.2181047299e-06
121               	6.8478368771e-03	2.1795313196e-05	8.1918539894e-04	1.2582121259e-05	1.1926601079e-06
122               	6.5480331191e-03	2.1744203905e-05	7.7584291253e-04	1.2366992866e-05	1.1726531151e-06
123               	6.0778143878e-03	2.2197274975e-05	7.7615135565e-04	1.2173209150e-05	1.1433923681e-06
124               	5.5891493665e-03	2.2534507013e-05	7.5567351999e-04	1.1985084860e-05	1.1200237081e-06
125               	5.3192217324e-03	2.2124504580e-05	7.1841615416e-04	1.1803477317e-05	1.0973757192e-06
126               	5.1013159004e-03	2.1164006786e-05	7.0875274543e-04	1.1625862496e-05	1.0756747388e-06
127               	4.8466750212e-03	2.0308945626e-05	7.3345505209e-04	1.1451862088e-05	1.0552565307e-06
128               	4.4646148378e-03	2.0054576891e-05	7.4806022313e-04	1.1287415828e-05	1.0348721050e-06
129               	4.0873993350e-03	2.0014125921e-05	7.2410102044e-04	1.1134751129e-05	1.0149554084e-06
130               	3.8818972081e-03	1.9845248794e-05	6.6931017028e-04	1.0990937415e-05	9.9600919278e-07
131               	3.7187135223e-03	1.9660782090e-05	6.1078679922e-04	1.0851156272e-05	9.7856599096e-07
132               	3.5218946055e-03	1.9857958670e-05	6.1445586007e-04	1.0714337552e-05	9.6239612579e-07
133               	3.2829097518e-03	2.0167171375e-05	6.2310414788e-04	1.0581856606e-05	9.4673886693e-07
134               	3.0435776472e-03	2.0014637144e-05	6.1027676379e-04	1.0452268824e-05	9.3165126568e-07
135               	2.8964937242e-03	1.9432230307e-05	5.9877729713e-04	1.0325665997e-05	9.1710438853e-07
136               	2.7591287292e-03	1.8766413602e-05	6.0210329572e-04	1.0203353160e-05	9.0324326281e-07
137               	2.6383791746e-03	1.8459848405e-05	6.0173574720e-04	1.0086521487e-05	8.8977230283e-07
138               	2.5041183509e-03	1.8401550889e-05	5.8467556391e-04	9.9712741039e-06	8.7659033442e-07
139               	2.3685064801e-03	1.8293384037e-05	5.5320258256e-04	9.8577152186e-06	8.6417451105e-07
140               	2.2641907236e-03	1.8158467332e-05	5.2945370467e-04	9.7485733167e-06	8.5239181994e-07
141               	2.1750399987e-03	1.8189123345e-05	5.3942390446e-04	9.6423100546e-06	8.4119548036e-07
142               	2.1125426963e-03	1.8367947557e-05	5.5147420858e-04	9.5404184760e-06	8.3038189787e-07
143               	2.0514673390e-03	1.8368086754e-05	5.4943830554e-04	9.4439705008e-06	8.1991746582e-07
144               	1.9758127427e-03	1.8090414748e-05	5.3830289821e-04	9.3566609112e-06	8.0999357666e-07
145               	1.8843680016e-03	1.7682863507e-05	5.3144394332e-04	9.2777926447e-06	8.0033353863e-07
146               	1.8079031048e-03	1.7358952470e-05	5.2540773855e-04	9.2022581683e-06	7.9097828636e-07
147               	1.7589207920e-03	1.7260575760e-05	5.1313843565e-04	9.1279710765e-06	7.8199806117e-07
148               	1.7126052994e-03	1.7214895310e-05	4.9607910207e-04	9.0563732027e-06	7.7333292789e-07
149               	1.6502755614e-03	1.7135697109e-05	4.8856194421e-04	8.9863482200e-06	7.6517082141e-07
150               	1.5743958726e-03	1.7086290399e-05	4.9448128410e-04	8.9180031349e-06	7.5741393091e-07
151               	1.5138914994e-03	1.7126500761e-05	5.0762797674e-04	8.8524705110e-06	7.4990098689e-07
152               	1.4723738122e-03	1.7159904520e-05	5.1413391038e-04	8.7870720651e-06	7.4257339365e-07
153               	1.4315638174e-03	1.7044225979e-05	5.1026546614e-04	8.7222504384e-06	7.3535586422e-07
154               	1.3813363162e-03	1.6802875859e-05	5.0072375253e-04	8.6582210595e-06	7.2825797629e-07
155               	1.3095860245e-03	1.6545067965e-05	4.9148184881e-04	8.5952311568e-06	7.2123219058e-07
156               	1.2444789217e-03	1.6397273715e-05	4.8272157923e-04	8.5324107119e-06	7.1431979963e-07
157               	1.2036390481e-03	1.6350077224e-05	4.7399413901e-04	8.4691189018e-06	7.0765384453e-07
158               	1.1638969207e-03	1.6295965824e-05	4.6881214773e-04	8.4065781420e-06	7.0117685390e-07
159               	1.1070913609e-03	1.6231270543e-05	4.7069045737e-04	8.3451187741e-06	6.9488346694e-07
160               	1.0344154978e-03	1.6220885244e-05	4.7769440916e-04	8.2843059456e-06	6.8865931471e-07
161               	9.7499463366e-04	1.6242449202e-05	4.8237120409e-04	8.2274567383e-06	6.8255096437e-07
162               	9.3537338837e-04	1.6200690985e-05	4.8103287614e-04	8.1747710604e-06	6.7660487568e-07
163               	8.9249425304e-04	1.6079998292e-05	4.7433882190e-04	8.1280029686e-06	6.7070770168e-07
164               	8.3498578877e-04	1.5917924076e-05	4.6477027755e-04	8.0816040027e-06	6.6496404730e-07
165               	7.6365287162e-04	1.5784770226e-05	4.5541551822e-04	8.0351006320e-06	6.5934303828e-07
166               	7.1240916116e-04	1.5709892525e-05	4.4827262335e-04	7.9883285589e-06	6.5385044527e-07
167               	6.7413232765e-04	1.5659558293e-05	4.4362437996e-04	7.9411802516e-06	6.4848416087e-07
168               	6.3483047054e-04	1.5613381040e-05	4.4231951185e-04	7.8938983783e-06	6.4323432825e-07
169               	5.8449380695e-04	1.5586628526e-05	4.4453589583e-04	7.8471753056e-06	6.3811607438e-07
170               	5.3042335752e-04	1.5579005925e-05	4.4703876057e-04	7.8024709266e-06	6.3297406123e-07
171               	4.9156847080e-04	1.5481736355e-05	4.5049264175e-04	7.7543129517e-06	6.2835639958e-07
172               	4.6367008248e-04	1.5408439907e-05	4.4475167298e-04	7.7070841011e-06	6.2311202548e-07
173               	4.3649191877e-04	1.5315006620e-05	4.3352501232e-04	7.6623403563e-06	6.1778416528e-07
174               	4.0184017879e-04	1.5229261293e-05	4.2252879711e-04	7.6195940553e-06	6.1278671664e-07
175               	3.6460927931e-04	1.5178475503e-05	4.1663259657e-04	7.5774089174e-06	6.0832384421e-07
176               	3.4162826678e-04	1.5142980241e-05	4.1582666649e-04	7.5352777900e-06	6.0394881231e-07
177               	3.2514808990e-04	1.5093783451e-05	4.1724860531e-04	7.4922765163e-06	5.9944910914e-07
178               	3.0965023046e-04	1.5041469044e-05	4.1828526406e-04	7.4493334873e-06	5.9469080632e-07
179               	2.8980069916e-04	1.4989666472e-05	4.1591931193e-04	7.4074081893e-06	5.8988782495e-07
180               	2.7016527619e-04	1.4924958821e-05	4.0947712422e-04	7.3657531003e-06	5.8524240880e-07
181               	2.5848096283e-04	1.4849329497e-05	4.0209887348e-04	7.3243226113e-06	5.8082595971e-07
182               	2.5279553059e-04	1.4776209879e-05	3.9627424947e-04	7.2842463741e-06	5.7659620084e-07
183               	2.4497716098e-04	1.4704292731e-05	3.9209402352e-04	7.2440742413e-06	5.7239684121e-07
184               	2.3373462296e-04	1.4631748724e-05	3.9070625557e-04	7.2054333531e-06	5.6819011700e-07
185               	2.2227725912e-04	1.4577116455e-05	3.9083516942e-04	7.1680907310e-06	5.6394921623e-07
186               	2.1834072952e-04	1.4543799582e-05	3.8984551598e-04	7.1340060391e-06	5.5972483233e-07
187               	2.1373753463e-04	1.4509625483e-05	3.8687701519e-04	7.1017028012e-06	5.5557457694e-07
188               	2.0899836859e-04	1.4455426404e-05	3.8255991260e-04	7.0695976193e-06	5.5155462489e-07
189               	2.0133272311e-04	1.4382206197e-05	3.7787270579e-04	7.0375283234e-06	5.4760278641e-07
190               	1.9441906437e-04	1.4303821530e-05	3.7381033160e-04	7.0054052960e-06	5.4363988806e-07
191               	1.9027281503e-04	1.4234462408e-05	3.7091799222e-04	6.9735331697e-06	5.3970645961e-07
192               	1.8569711884e-04	1.4180078435e-05	3.6896665509e-04	6.9415392548e-06	5.3579938024e-07
193               	1.8006680745e-04	1.4136737048e-05	3.6710471388e-04	6.9098126583e-06	5.3190663454e-07
194               	1.7315790887e-04	1.4096010829e-05	3.6490289410e-04	6.8784865935e-06	5.2805585673e-07
195               	1.6734520301e-04	1.4049705970e-05	3.6229086209e-04	6.8481592025e-06	5.2432228128e-07
196               	1.6256049957e-04	1.3953762627e-05	3.5922693888e-04	6.8160676536e-06	5.2070375873e-07
197               	1.5825847692e-04	1.3934268289e-05	3.5675836431e-04	6.7856082033e-06	5.1695233708e-07
198               	1.5207850531e-04	1.3846900261e-05	3.5277664133e-04	6.7544492876e-06	5.1340270749e-07
199               	1.4606639465e-04	1.3788359844e-05	3.4999360577e-04	6.7235257889e-06	5.0986573402e-07
200               	1.3964276423e-04	1.3749075358e-05	3.4815657397e-04	6.6927481691e-06	5.0640820882e-07
201               	1.3504714913e-04	1.3711264293e-05	3.4661791111e-04	6.6620220893e-06	5.0298682996e-07
202               	1.3134600980e-04	1.3664463791e-05	3.4430497940e-04	6.6310777066e-06	4.9959444041e-07
203               	1.2614201919e-04	1.3608109462e-05	3.4123349633e-04	6.5999876701e-06	4.9623952132e-07
204               	1.2018376152e-04	1.3547449354e-05	3.3833606691e-04	6.5693938178e-06	4.9290572100e-07
205               	1.1599484171e-04	1.3488323088e-05	3.3586257891e-04	6.5392025013e-06	4.8957197764e-07
206               	1.1234060763e-04	1.3434058624e-05	3.3379049437e-04	6.5090602698e-06	4.8627679376e-07
207               	1.0788239592e-04	1.3384899147e-05	3.3183332128e-04	6.4788315543e-06	4.8301344254e-07
208               	1.0431797063e-04	1.3338997494e-05	3.2988861903e-04	6.4488093253e-06	4.7978283166e-07
209               	1.0026676734e-04	1.3292729401e-05	3.2782450746e-04	6.4195235713e-06	4.7659000359e-07
210               	9.6058323288e-05	1.3243171302e-05	3.2553722119e-04	6.3905305789e-06	4.7346110595e-07
211               	9.3081186587e-05	1.3190428865e-05	3.2309736312e-04	6.3616646543e-06	4.7030431776e-07
212               	9.0524690088e-05	1.3137323204e-05	3.2083111990e-04	6.3338102946e-06	4.6705595370e-07
213               	8.7632073027e-05	1.3086179310e-05	3.1894901188e-04	6.3062585537e-06	4.6388110873e-07
214               	8.4661866664e-05	1.3037617648e-05	3.1730860997e-04	6.2795562981e-06	4.6080463986e-07
215               	8.1530822993e-05	1.2990669847e-05	3.1569113381e-04	6.2541343453e-06	4.5782224252e-07
216               	7.8629787719e-05	1.2943709172e-05	3.1395091359e-04	6.2310989525e-06	4.5489092856e-07
217               	7.6581663166e-05	1.2895491748e-05	3.1210346388e-04	6.2089916171e-06	4.5197324746e-07
218               	7.4567964682e-05	1.2846056309e-05	3.1019772173e-04	6.1867211771e-06	4.4911673137e-07
219               	7.2517333839e-05	1.2796263252e-05	3.0831763370e-04	6.1642613150e-06	4.4628438548e-07
220               	7.0418655235e-05	1.2747146971e-05	3.0652426982e-04	6.1416559045e-06	4.4349135922e-07
221               	6.8122118844e-05	1.2699236931e-05	3.0485700404e-04	6.1190224344e-06	4.4071188479e-07
222               	6.6095870730e-05	1.2652538059e-05	3.0325268359e-04	6.0964108108e-06	4.3795985674e-07
223               	6.4488814776e-05	1.2606415523e-05	3.0166263151e-04	6.0736519463e-06	4.3523534342e-07
224               	6.3015114990e-05	1.2560296517e-05	3.0003891808e-04	6.0507412209e-06	4.3253139123e-07
225               	6.1420414037e-05	1.2514084443e-05	2.9837482982e-04	6.0276755291e-06	4.2982747980e-07
226               	5.9855023399e-05	1.2468053920e-05	2.9674106580e-04	6.0044783239e-06	4.2713340851e-07
227               	5.8529716605e-05	1.2422458389e-05	2.9514376063e-04	5.9812745912e-06	4.2446896639e-07
228               	5.7141989177e-05	1.2377413647e-05	2.9358899825e-04	5.9582012245e-06	4.2186222978e-07
229               	5.5858466999e-05	1.2332912620e-05	2.9203315260e-04	5.9353568937e-06	4.1929805175e-07
230               	5.4675838468e-05	1.2274535477e-05	2.9110148815e-04	5.9120094970e-06	4.1678921494e-07
231               	5.3662549594e-05	1.2247332084e-05	2.8931109014e-04	5.8894321907e-06	4.1423593009e-07
232               	5.2722925002e-05	1.2193308342e-05	2.8769440200e-04	5.8666817865e-06	4.1178919705e-07
233               	5.1802312450e-05	1.2148407920e-05	2.8617550170e-04	5.8439093083e-06	4.0935731046e-07
234               	5.0772444784e-05	1.2109491861e-05	2.8472479794e-04	5.8215069203e-06	4.0695105009e-07
235               	4.9885808049e-05	1.2070140693e-05	2.8324741929e-04	5.7994126477e-06	4.0457168579e-07
236               	4.9195321538e-05	1.2028073797e-05	2.8170730544e-04	5.7775553683e-06	4.0222090151e-07
237               	4.8502583656e-05	1.1984829938e-05	2.8019082538e-04	5.7561974763e-06	3.9989360834e-07
238               	4.7767499817e-05	1.1941977043e-05	2.7874376492e-04	5.7355345609e-06	3.9758178932e-07
239               	4.7131578013e-05	1.1899637624e-05	2.7734591990e-04	5.7154057581e-06	3.9528958265e-07
240               	4.6538050960e-05	1.1857397647e-05	2.7593792822e-04	5.6951673631e-06	3.9301984154e-07
241               	4.5886934694e-05	1.1815175209e-05	2.7450391215e-04	5.6749165116e-06	3.9076702421e-07
242               	4.5322025373e-05	1.1773322040e-05	2.7311070974e-04	5.6546847359e-06	3.8853751480e-07
243               	4.4831149548e-05	1.1731972987e-05	2.7177272484e-04	5.6343053611e-06	3.8643448163e-07
244               	4.4329067957e-05	1.1690858597e-05	2.7046231336e-04	5.6142887675e-06	3.8427036765e-07
245               	4.3900166425e-05	1.1649563797e-05	2.6913175206e-04	5.5943702905e-06	3.8210569013e-07
246               	4.3464820213e-05	1.1608163717e-05	2.6775529558e-04	5.5744923776e-06	3.7998799474e-07
247               	4.3025919428e-05	1.1567055776e-05	2.6637084093e-04	5.5547497865e-06	3.7787871900e-07
248               	4.2667829864e-05	1.1526445163e-05	2.6501532398e-04	5.5351591572e-06	3.7578922050e-07
249               	4.2336191861e-05	1.1486145417e-05	2.6371084042e-04	5.5158034683e-06	3.7371874877e-07
250               	4.2025697623e-05	1.1445899092e-05	2.6243808466e-04	5.4965083633e-06	3.7164849226e-07
251               	4.1744832494e-05	1.1405674213e-05	2.6117995233e-04	5.4772446211e-06	3.6960958638e-07
252               	4.1414475692e-05	1.1365567331e-05	2.5991286409e-04	5.4583698800e-06	3.6760360617e-07
253               	4.1153841466e-05	1.1325760820e-05	2.5864669626e-04	5.4398345731e-06	3.6563086771e-07
254               	4.0889999750e-05	1.1286358836e-05	2.5738825323e-04	5.4213298915e-06	3.6367366454e-07
255               	4.0596884380e-05	1.1247211252e-05	2.5613479897e-04	5.4032488966e-06	3.6173201828e-07
256               	4.0324139241e-05	1.1208339413e-05	2.5488763978e-04	5.3858033482e-06	3.5981619365e-07
257               	4.0092540768e-05	1.1169693342e-05	2.5364796646e-04	5.3691592973e-06	3.5791360192e-07
258               	3.9925785232e-05	1.1131477932e-05	2.5241809339e-04	5.3525572369e-06	3.5603233037e-07
259               	3.9738008820e-05	1.1093494093e-05	2.5119360924e-04	5.3361802571e-06	3.5417825867e-07
260               	3.9503194916e-05	1.1055702118e-05	2.4997908938e-04	5.3199035473e-06	3.5235594647e-07
261               	3.9259151140e-05	1.1018089527e-05	2.4876201336e-04	5.3040129098e-06	3.5055979124e-07
262               	3.9076797499e-05	1.0980625721e-05	2.4754339524e-04	5.2884857854e-06	3.4879882256e-07
263               	3.8872170438e-05	1.0943298870e-05	2.4632767621e-04	5.2735988730e-06	3.4703966402e-07
264               	3.8678859122e-05	1.0906166539e-05	2.4511763513e-04	5.2586135734e-06	3.4528249182e-07
265               	3.8488346629e-05	1.0869201084e-05	2.4391008143e-04	5.2435262696e-06	3.4351595020e-07
266               	3.8259545023e-05	1.0832422168e-05	2.4270207375e-04	5.2284341093e-06	3.4176655655e-07
267               	3.8156306974e-05	1.0795819589e-05	2.4150542680e-04	5.2134118539e-06	3.4002385337e-07
268               	3.8003114450e-05	1.0759464282e-05	2.4030496483e-04	5.1982206289e-06	3.3828513743e-07
269               	3.7817011190e-05	1.0723263673e-05	2.3911874134e-04	5.1829070477e-06	3.3654390336e-07
270               	3.7663009071e-05	1.0687170334e-05	2.3793298439e-04	5.1676471540e-06	3.3479947568e-07
271               	3.7453653118e-05	1.0651188593e-05	2.3675232685e-04	5.1524160016e-06	3.3306153378e-07
272               	3.7282806373e-05	1.0615326865e-05	2.3557808611e-04	5.1370438850e-06	3.3134016170e-07
273               	3.7114139476e-05	1.0579589590e-05	2.3440805981e-04	5.1216732996e-06	3.2963035321e-07
274               	3.6937362372e-05	1.0543964798e-05	2.3324636375e-04	5.1062441211e-06	3.2793528223e-07
275               	3.6774009061e-05	1.0508446986e-05	2.3209453498e-04	5.0907888476e-06	3.2623826824e-07
276               	3.6639441668e-05	1.0473041623e-05	2.3096486394e-04	5.0753612255e-06	3.2456531771e-07
277               	3.6514346098e-05	1.0437768001e-05	2.2983291704e-04	5.0601416573e-06	3.2292519963e-07
278               	3.6407432873e-05	1.0402618683e-05	2.2870054014e-04	5.0449625730e-06	3.2129870200e-07
279               	3.6246195328e-05	1.0367618214e-05	2.2757754454e-04	5.0298469911e-06	3.1971088257e-07
280               	3.6103875359e-05	1.0332775000e-05	2.2646416948e-04	5.0147537543e-06	3.1808013488e-07
281               	3.5940420119e-05	1.0298074734e-05	2.2535576342e-04	4.9999047371e-06	3.1656489022e-07
282               	3.5776300779e-05	1.0263512670e-05	2.2425284262e-04	4.9850622334e-06	3.1509978262e-07
283               	3.5591305111e-05	1.0229102904e-05	2.2314249398e-04	4.9702524526e-06	3.1362088651e-07
284               	3.5409140284e-05	1.0194837215e-05	2.2204998409e-04	4.9557044135e-06	3.1212246899e-07
285               	3.5254641659e-05	1.0160698692e-05	2.2096818921e-04	4.9411504136e-06	3.1060276733e-07
286               	3.5104135875e-05	1.0126694841e-05	2.1989058944e-04	4.9269514631e-06	3.0908731035e-07