/*--------------------------------*- C++ -*----------------------------------*\
  =========                 |
  \\      /  F ield         | OpenFOAM: The Open Source CFD Toolbox
   \\    /   O peration     | Website:  https://openfoam.org
    \\  /    A nd           | Version:  12
     \\/     M anipulation  |
\*---------------------------------------------------------------------------*/
FoamFile
{
    format      ascii;
    class       volScalarField;
    location    "0.041";
    object      alphat;
}
// * * * * * * * * * * * * * * * * * * * * * * * * * * * * * * * * * * * * * //

dimensions      [1 -1 -1 0 0 0 0];

internalField   nonuniform List<scalar> 
16000
(
5.1522857e-07
1.0812848e-05
2.1605996e-05
2.582271e-05
2.0062479e-05
2.7382417e-05
1.9552479e-05
2.6474923e-05
2.0993443e-05
2.8446649e-05
2.4315133e-05
2.8172444e-05
2.5902999e-05
2.6482408e-05
2.5660671e-05
2.5512809e-05
2.5276721e-05
2.522542e-05
2.5263832e-05
2.5410074e-05
2.5657145e-05
2.6004189e-05
2.6448733e-05
2.6991003e-05
2.7633532e-05
2.8383174e-05
2.9248986e-05
3.0245323e-05
3.1389533e-05
3.2700286e-05
3.4198294e-05
3.5911086e-05
3.7874112e-05
4.0131032e-05
4.2735454e-05
4.5751285e-05
4.9254571e-05
5.333605e-05
5.8108008e-05
6.3709147e-05
7.0301868e-05
7.8077646e-05
8.7277407e-05
9.819508e-05
0.00011117938
0.00012664813
0.00014511807
0.00016721768
0.00019371174
0.00022553242
0.00026382093
0.00030997816
0.00036572319
0.00043317787
0.00051496893
0.00061436891
0.00073549216
0.00088358234
0.0010654151
0.0011846106
0.0011850752
0.0011853103
0.0011853216
0.0011851064
0.001184672
0.0011840118
0.0011831664
0.001182307
0.0011817492
0.0011818918
0.0011828724
0.0011850081
0.0011878198
0.001190379
0.001191121
0.0011888103
0.0011818149
0.0011759732
0.0011705385
0.0011681906
4.5641849e-07
1.0241008e-05
2.1486314e-05
2.3436174e-05
1.8086323e-05
2.4569191e-05
1.7337184e-05
2.3229778e-05
1.8491109e-05
2.5144214e-05
2.1952251e-05
2.5394025e-05
2.3644094e-05
2.397681e-05
2.3332915e-05
2.3137296e-05
2.2941448e-05
2.2885559e-05
2.2923849e-05
2.3058447e-05
2.3287207e-05
2.3609075e-05
2.4022233e-05
2.4527075e-05
2.512554e-05
2.5824118e-05
2.6630682e-05
2.7558233e-05
2.862326e-05
2.9844003e-05
3.1239774e-05
3.2835809e-05
3.4665e-05
3.6767896e-05
3.91948e-05
4.2006022e-05
4.5273809e-05
4.9083762e-05
5.354101e-05
5.8777683e-05
6.4950786e-05
7.2241794e-05
8.0879441e-05
9.1146608e-05
0.00010338153
0.00011798578
0.00013545847
0.00015640951
0.00018158403
0.00021189308
0.00024845551
0.00029265219
0.00034618475
0.00041116495
0.00049022202
0.00058665036
0.00070461328
0.00084944634
0.0010280969
0.0011842751
0.0011847795
0.0011850406
0.0011850629
0.0011848463
0.0011843991
0.0011837204
0.0011828586
0.0011819979
0.0011814695
0.00118169
0.0011827241
0.0011849772
0.0011879078
0.001190417
0.001190842
0.0011879048
0.0011808507
0.0011747284
0.0011698438
0.0011683704
4.1339758e-07
9.797613e-06
2.0293469e-05
2.141747e-05
1.617682e-05
2.1640998e-05
1.5415789e-05
2.0193382e-05
1.6601384e-05
2.2067315e-05
1.9987432e-05
2.2612356e-05
2.1393634e-05
2.1467007e-05
2.0973056e-05
2.0759794e-05
2.0597374e-05
2.0547806e-05
2.0589114e-05
2.0717645e-05
2.0932534e-05
2.1233163e-05
2.1618097e-05
2.2088141e-05
2.2644782e-05
2.3294343e-05
2.4043931e-05
2.4905401e-05
2.5894243e-05
2.7028341e-05
2.8326138e-05
2.9811133e-05
3.1514216e-05
3.3473388e-05
3.5736208e-05
3.8359907e-05
4.1413691e-05
4.497956e-05
4.9157079e-05
5.4072292e-05
5.9878663e-05
6.6751041e-05
7.4908854e-05
8.4626019e-05
9.6234678e-05
0.00011012596
0.00012678743
0.00014681768
0.00017095075
0.0002000872
0.00023533522
0.00027806908
0.00032998768
0.00039320851
0.0004703799
0.00056483652
0.00068080903
0.00082373738
0.001000739
0.0011841689
0.0011846772
0.0011849422
0.001184953
0.0011847125
0.0011842301
0.0011835133
0.0011826237
0.0011817644
0.0011813062
0.0011815906
0.0011827217
0.0011851261
0.0011881471
0.0011905333
0.0011907256
0.0011870896
0.0011798318
0.0011736542
0.0011691677
0.001168482
3.6974116e-07
9.4617435e-06
1.9236804e-05
1.9687787e-05
1.4515002e-05
1.9107628e-05
1.3716968e-05
1.7648043e-05
1.4917875e-05
1.9450312e-05
1.8216334e-05
2.0151224e-05
1.9323402e-05
1.9210901e-05
1.8828529e-05
1.8618341e-05
1.8485602e-05
1.8447576e-05
1.8494954e-05
1.8621378e-05
1.8826598e-05
1.9110346e-05
1.9471587e-05
1.9911646e-05
2.0431726e-05
2.1038082e-05
2.1737336e-05
2.2540431e-05
2.3461898e-05
2.4519334e-05
2.5730628e-05
2.7117811e-05
2.8710148e-05
3.0543463e-05
3.2662998e-05
3.5123324e-05
3.7991018e-05
4.1345311e-05
4.5281364e-05
4.9919396e-05
5.5410283e-05
6.1924015e-05
6.9672564e-05
7.892163e-05
8.9999559e-05
0.00010328982
0.00011927121
0.00013853421
0.00016180528
0.0001899792
0.00022415818
0.00026571576
0.00031635455
0.00037820496
0.00045394209
0.00054695066
0.00066154355
0.00080328305
0.00097947395
0.0011843265
0.0011848156
0.0011850656
0.001185047
0.0011847645
0.0011842291
0.0011834594
0.001182532
0.0011816729
0.0011812928
0.0011816247
0.0011828569
0.001185409
0.0011884583
0.0011906397
0.0011906445
0.0011863631
0.0011789802
0.0011728176
0.0011687097
0.0011687818
3.2694739e-07
9.2059784e-06
1.8325672e-05
1.9637707e-05
1.4316412e-05
1.6887161e-05
1.2230189e-05
1.5459862e-05
1.3477282e-05
1.7188507e-05
1.664721e-05
1.7936918e-05
1.7399376e-05
1.7162486e-05
1.686313e-05
1.6670075e-05
1.6562718e-05
1.6537318e-05
1.6590185e-05
1.6714401e-05
1.6910202e-05
1.7177691e-05
1.7516294e-05
1.7927927e-05
1.8413742e-05
1.8979981e-05
1.9632952e-05
2.038289e-05
2.1243374e-05
2.2231675e-05
2.3365359e-05
2.4665257e-05
2.6159323e-05
2.7881533e-05
2.9875175e-05
3.2192545e-05
3.4897915e-05
3.8068386e-05
4.1795988e-05
4.6195389e-05
5.1415502e-05
5.7623117e-05
6.5024821e-05
7.38787e-05
8.451127e-05
9.7301203e-05
0.00011272127
0.00013135703
0.00015393084
0.00018133675
0.00021467601
0.00025532795
0.00030500666
0.00036586454
0.00044061365
0.00053270065
0.00064653815
0.00078783348
0.00096410003
0.0011847196
0.0011851643
0.0011853789
0.0011853126
0.0011849707
0.0011843661
0.0011835302
0.0011825579
0.0011817038
0.0011814231
0.0011817997
0.0011831355
0.0011858325
0.0011888426
0.0011907467
0.0011905297
0.0011856041
0.0011782277
0.0011722116
0.0011684653
0.0011690553
3.0214612e-07
9.0450113e-06
1.7588849e-05
1.9382228e-05
1.4087375e-05
1.4953183e-05
1.1367387e-05
1.3649713e-05
1.2266946e-05
1.5267639e-05
1.5271055e-05
1.5992351e-05
1.5647094e-05
1.534023e-05
1.5094466e-05
1.4920729e-05
1.4830727e-05
1.4813853e-05
1.4868687e-05
1.4988418e-05
1.517378e-05
1.5425119e-05
1.5742222e-05
1.6127336e-05
1.6581872e-05
1.7111931e-05
1.7723595e-05
1.8426556e-05
1.9233459e-05
2.0161214e-05
2.1227249e-05
2.2451443e-05
2.3860736e-05
2.5487583e-05
2.7373702e-05
2.9569531e-05
3.213742e-05
3.5152857e-05
3.8706084e-05
4.2906996e-05
4.7902745e-05
5.3858536e-05
6.0978126e-05
6.9512718e-05
7.9788885e-05
9.2183594e-05
0.00010716651
0.00012532193
0.00014737172
0.00017421489
0.00020695749
0.00024699211
0.00029605335
0.00035632672
0.0004305745
0.00052232008
0.00063609531
0.00077777845
0.00095511211
0.0011784595
0.0011857056
0.001185864
0.001185732
0.0011853146
0.0011846272
0.0011837145
0.001182694
0.0011818537
0.001181678
0.00118207
0.0011835533
0.0011863628
0.0011892656
0.0011908803
0.0011902449
0.001184764
0.0011775993
0.0011718289
0.0011684911
0.0011694825
2.7608654e-07
8.9513135e-06
1.7016213e-05
1.8410907e-05
1.3956416e-05
1.3222534e-05
1.1500896e-05
1.2492537e-05
1.2017573e-05
1.3649257e-05
1.4045185e-05
1.4280161e-05
1.4034505e-05
1.3699562e-05
1.3484286e-05
1.3328759e-05
1.3251327e-05
1.3241013e-05
1.3296955e-05
1.3412618e-05
1.3588914e-05
1.3826367e-05
1.4125102e-05
1.4403149e-05
1.4820467e-05
1.5310279e-05
1.5878031e-05
1.6532658e-05
1.7285653e-05
1.815318e-05
1.915249e-05
2.0302526e-05
2.1629283e-05
2.3163747e-05
2.4946163e-05
2.7025249e-05
2.9461517e-05
3.2328817e-05
3.5716414e-05
4.002892e-05
4.484491e-05
5.0600829e-05
5.750029e-05
6.5788763e-05
7.5793939e-05
8.789426e-05
0.00010255933
0.00012037575
0.00014206836
0.00016854709
0.00020092868
0.00024062689
0.00028940656
0.00034949867
0.00042373123
0.0005157219
0.00063014351
0.00077307538
0.00095251812
0.0011791642
0.0011864132
0.0011864946
0.0011862791
0.0011857714
0.0011849894
0.0011839923
0.0011829236
0.0011821045
0.0011820395
0.0011824107
0.0011840901
0.0011869399
0.0011896468
0.0011910099
0.0011897118
0.0011838789
0.001177126
0.0011717363
0.0011688201
0.0011701167
2.4719901e-07
8.8987426e-06
1.6534477e-05
1.6823956e-05
1.3059647e-05
1.1530435e-05
1.0169435e-05
1.1219749e-05
1.0744791e-05
1.2250474e-05
1.2829322e-05
1.2717653e-05
1.2507102e-05
1.2184346e-05
1.1993308e-05
1.1859415e-05
1.1796402e-05
1.1795077e-05
1.1783954e-05
1.1881328e-05
1.2039318e-05
1.225722e-05
1.2534017e-05
1.2869696e-05
1.3269343e-05
1.3736937e-05
1.4278012e-05
1.4901453e-05
1.561818e-05
1.644395e-05
1.7396299e-05
1.8493703e-05
1.9761756e-05
2.1230552e-05
2.2939538e-05
2.4936422e-05
2.7280719e-05
3.0045415e-05
3.3319799e-05
3.7212954e-05
4.1858311e-05
4.742508e-05
5.4118712e-05
6.2703503e-05
7.2524758e-05
8.4433633e-05
9.8903194e-05
0.00011652595
0.00013803347
0.00016435319
0.00019661916
0.00023627512
0.0002851272
0.00034546599
0.00042020336
0.00051307212
0.00062890942
0.00077402721
0.00095671867
0.0011870536
0.0011872572
0.0011872421
0.0011869261
0.0011863143
0.0011854285
0.0011843418
0.0011832273
0.0011824374
0.0011824685
0.0011828187
0.0011847011
0.0011874927
0.0011899339
0.0011909129
0.0011889738
0.0011830612
0.0011768288
0.0011719164
0.0011693908
0.0011707077
2.2632695e-07
8.8543165e-06
1.6056751e-05
1.476285e-05
1.0762643e-05
1.0242808e-05
8.3521129e-06
9.5587403e-06
9.8084947e-06
1.1046789e-05
1.1598665e-05
1.1266263e-05
1.1069243e-05
1.0782764e-05
1.0616798e-05
1.0434332e-05
1.0360685e-05
1.0353961e-05
1.0407498e-05
1.0517655e-05
1.0680565e-05
1.0898785e-05
1.1170529e-05
1.1496733e-05
1.1882348e-05
1.2332199e-05
1.2851939e-05
1.345051e-05
1.4138449e-05
1.4931076e-05
1.5846322e-05
1.6902444e-05
1.812495e-05
1.9543345e-05
2.1196644e-05
2.3132028e-05
2.5408524e-05
2.8098823e-05
3.1292047e-05
3.5097077e-05
3.9648686e-05
4.5115078e-05
5.1706643e-05
5.9669728e-05
6.9320967e-05
8.1056359e-05
9.6197142e-05
0.00011377412
0.00013527232
0.00016164339
0.00019404626
0.0002339641
0.00028325639
0.00034428866
0.0004200769
0.00051449273
0.0006325622
0.00078085929
0.00096800597
0.0011880907
0.0011882031
0.001188075
0.0011876432
0.0011869153
0.0011859188
0.0011847395
0.0011835821
0.0011828299
0.001182886
0.0011833008
0.0011853167
0.0011879653
0.00119011
0.0011906675
0.0011881416
0.0011824325
0.001176721
0.0011723189
0.0011701779
0.0011713394
2.0840874e-07
8.8090378e-06
1.4810555e-05
1.2874373e-05
8.7087315e-06
9.083546e-06
7.3339329e-06
8.6347032e-06
9.0874574e-06
9.8892998e-06
1.0380977e-05
9.9404056e-06
9.7461707e-06
9.4103782e-06
9.2339199e-06
9.127206e-06
9.0883981e-06
9.1077544e-06
9.178664e-06
9.3013715e-06
9.4706379e-06
9.6886322e-06
9.9570428e-06
1.0276249e-05
1.06515e-05
1.108809e-05
1.1591851e-05
1.2171925e-05
1.2838617e-05
1.3606836e-05
1.4494968e-05
1.5521393e-05
1.671178e-05
1.8095347e-05
1.9711035e-05
2.160594e-05
2.3839084e-05
2.6483448e-05
2.9629018e-05
3.3385828e-05
3.7889673e-05
4.330956e-05
4.9861244e-05
5.7793478e-05
6.7428808e-05
7.9170189e-05
9.3518541e-05
0.00011107079
0.00013380227
0.00016044278
0.00019324584
0.00023374381
0.00028386274
0.00034605946
0.0004234758
0.00052014837
0.00064131802
0.0007938462
0.00098671443
0.0011891991
0.0011892133
0.0011889603
0.0011884002
0.0011875466
0.0011864352
0.0011851622
0.001183959
0.0011832142
0.0011832556
0.0011838813
0.0011858597
0.0011883211
0.0011901661
0.0011902797
0.0011873887
0.0011820414
0.001176804
0.0011728773
0.0011711569
0.0011722251
1.9198939e-07
8.7623769e-06
1.1751769e-05
1.084748e-05
7.1171606e-06
8.0942489e-06
6.6826846e-06
7.7619018e-06
8.5011998e-06
8.8413267e-06
9.1878017e-06
8.6407583e-06
8.3934961e-06
8.1638694e-06
8.0366807e-06
7.9707148e-06
7.9609909e-06
8.0035729e-06
8.0911433e-06
8.2232405e-06
8.3982749e-06
8.6183551e-06
8.8855626e-06
9.2008809e-06
9.5696658e-06
9.997703e-06
1.0491135e-05
1.1059367e-05
1.1712691e-05
1.246568e-05
1.3269762e-05
1.4266943e-05
1.5426315e-05
1.6776768e-05
1.8357142e-05
2.0214463e-05
2.24078e-05
2.5010441e-05
2.8113328e-05
3.1827907e-05
3.6292094e-05
4.2003413e-05
4.8579236e-05
5.6557902e-05
6.6268033e-05
7.8120982e-05
9.2637027e-05
0.00011043462
0.00013230242
0.00015923772
0.00019424833
0.00023565787
0.00028700684
0.0003508601
0.00043050768
0.00053017913
0.00065535737
0.00081321343
0.0010131105
0.0011903463
0.0011902494
0.0011898642
0.0011891674
0.0011881814
0.0011869538
0.0011855884
0.001184326
0.0011835413
0.0011835804
0.0011844825
0.0011862718
0.0011885137
0.0011900486
0.0011897704
0.0011866952
0.0011818424
0.0011770546
0.0011735632
0.0011722621
0.0011732585
1.7767982e-07
8.718446e-06
9.259806e-06
9.0934485e-06
6.194695e-06
7.1770245e-06
6.1390937e-06
7.0015138e-06
7.9089314e-06
7.8631907e-06
7.8974333e-06
7.4361781e-06
7.235269e-06
7.0697955e-06
6.9844403e-06
6.9524526e-06
6.9691599e-06
7.0300358e-06
7.13178e-06
7.2742524e-06
7.4562506e-06
7.6799953e-06
7.9485877e-06
8.2635017e-06
8.6302049e-06
9.0166997e-06
9.4978005e-06
1.0053088e-05
1.0692732e-05
1.1430863e-05
1.2284556e-05
1.3275971e-05
1.4430264e-05
1.577654e-05
1.7354178e-05
1.9210915e-05
2.1406822e-05
2.4016527e-05
2.7133247e-05
3.0871378e-05
3.5372875e-05
4.0815972e-05
4.7420538e-05
5.5452852e-05
6.5249775e-05
7.7904292e-05
9.2719402e-05
0.0001109179
0.00013331399
0.00016095058
0.0001951303
0.00023973712
0.00029273326
0.00035875135
0.00044125111
0.00054468345
0.00067480213
0.00083910853
0.0010473638
0.0011914912
0.0011912744
0.0011907537
0.0011899164
0.0011887945
0.001187451
0.001185996
0.0011846656
0.0011838262
0.0011838479
0.0011848739
0.0011865178
0.001188505
0.0011897205
0.0011891319
0.0011860563
0.0011817257
0.0011773969
0.0011743338
0.0011734686
0.0011744773
1.6496067e-07
8.6698586e-06
7.3461612e-06
7.9921173e-06
5.517632e-06
6.3545814e-06
5.6755567e-06
6.3293848e-06
7.2071516e-06
6.7540428e-06
6.7350136e-06
6.383201e-06
6.2252445e-06
6.1113177e-06
6.061698e-06
6.0587206e-06
6.0979906e-06
6.176993e-06
6.2927785e-06
6.446098e-06
6.6365036e-06
6.8664373e-06
7.109916e-06
7.4216208e-06
7.7847961e-06
8.2045987e-06
8.689474e-06
9.2485436e-06
9.8922583e-06
1.0635034e-05
1.1494184e-05
1.2491724e-05
1.3654339e-05
1.5011682e-05
1.660396e-05
1.8480033e-05
2.0701587e-05
2.3345161e-05
2.6507057e-05
3.030579e-05
3.4887585e-05
4.0435689e-05
4.7182188e-05
5.5401913e-05
6.5444717e-05
7.7750166e-05
9.2870698e-05
0.00011148538
0.00013562825
0.00016419589
0.00019958024
0.00024351428
0.00030104945
0.00036974597
0.00045572063
0.00056367254
0.00069965569
0.00087152189
0.0010894404
0.0011925965
0.0011922535
0.001191598
0.0011906213
0.0011893634
0.0011879046
0.0011863635
0.0011849676
0.0011840729
0.0011840434
0.0011849829
0.001186552
0.0011882537
0.0011891579
0.0011883073
0.0011854088
0.0011815729
0.0011777377
0.0011751317
0.0011746975
0.0011757278
1.5366978e-07
8.6076838e-06
5.8813224e-06
6.9868188e-06
4.9233824e-06
5.6263217e-06
5.2825139e-06
5.6469429e-06
6.3232933e-06
5.7910055e-06
5.715515e-06
5.4617091e-06
5.3445444e-06
5.2735564e-06
5.2556765e-06
5.2789246e-06
5.3394858e-06
5.4359497e-06
5.5662923e-06
5.7107445e-06
5.9049828e-06
6.1386901e-06
6.4147212e-06
6.7367574e-06
7.1099948e-06
7.5400315e-06
8.0352663e-06
8.605565e-06
9.2616714e-06
1.0018245e-05
1.0892813e-05
1.1907743e-05
1.3031819e-05
1.4401001e-05
1.6008487e-05
1.7904204e-05
2.0151654e-05
2.2829308e-05
2.6036556e-05
2.9896567e-05
3.4560933e-05
4.0523569e-05
4.7472495e-05
5.5952987e-05
6.6329186e-05
7.9056767e-05
9.4718543e-05
0.00011402952
0.00013788212
0.0001689424
0.00020580791
0.00025164023
0.00030875705
0.00038377966
0.00047382929
0.00058702029
0.00072973519
0.00091019565
0.001138983
0.0011936292
0.0011931563
0.0011923695
0.0011912588
0.0011898682
0.0011882951
0.0011866714
0.0011852118
0.0011842577
0.0011841305
0.001184907
0.0011863183
0.0011877306
0.0011883474
0.0011873315
0.0011847114
0.0011813169
0.0011780361
0.0011759169
0.0011758616
0.0011768166
1.4368336e-07
8.5084967e-06
4.7633946e-06
6.0947411e-06
4.3926075e-06
4.9782281e-06
4.9416209e-06
4.9041956e-06
5.4311035e-06
4.9313443e-06
4.8318263e-06
4.658423e-06
4.5803855e-06
4.5465576e-06
4.5576761e-06
4.6053397e-06
4.686471e-06
4.7818815e-06
4.9214193e-06
5.0959857e-06
5.3068088e-06
5.5558945e-06
5.8468729e-06
6.1836681e-06
6.5721316e-06
7.0181741e-06
7.5303008e-06
8.0948931e-06
8.7643424e-06
9.5354048e-06
1.0425711e-05
1.1457727e-05
1.2659002e-05
1.4064202e-05
1.5714898e-05
1.7662766e-05
1.9974299e-05
2.2731101e-05
2.603675e-05
3.0020902e-05
3.4842507e-05
4.0702992e-05
4.7848362e-05
5.6584608e-05
6.7292963e-05
8.1123216e-05
9.7449203e-05
0.00011760151
0.00014252315
0.0001734028
0.00021373127
0.000261775
0.00032170794
0.0003966565
0.00049534111
0.00061440159
0.00076458717
0.0009545066
0.0011949504
0.0011945613
0.0011939583
0.0011930462
0.0011918102
0.0011902933
0.0011886056
0.0011869008
0.0011853791
0.0011843516
0.0011841149
0.0011846846
0.0011858155
0.0011869499
0.001187314
0.0011862849
0.0011839423
0.0011809761
0.0011782987
0.0011766505
0.0011768513
0.001177584
1.3490258e-07
8.2214376e-06
3.9745435e-06
5.3028657e-06
3.9221728e-06
4.4052602e-06
4.4012396e-06
4.2332408e-06
4.5703465e-06
4.170414e-06
4.074363e-06
3.9649546e-06
3.9239246e-06
3.9230586e-06
3.9609347e-06
4.0171564e-06
4.1114132e-06
4.239257e-06
4.4000425e-06
4.5943015e-06
4.8239661e-06
5.0916248e-06
5.4013913e-06
5.7575191e-06
6.1525781e-06
6.6156943e-06
7.1456404e-06
7.7523097e-06
8.4481289e-06
9.2479402e-06
1.0169864e-05
1.1237309e-05
1.2478994e-05
1.3930974e-05
1.5637692e-05
1.765282e-05
2.0046486e-05
2.2904255e-05
2.6334168e-05
3.0473724e-05
3.5488607e-05
4.1590785e-05
4.9042539e-05
5.8164481e-05
6.9360231e-05
8.3131771e-05
0.00010099457
0.00012212537
0.00014827491
0.00018070866
0.00022099623
0.00027373329
0.00033680068
0.00041571087
0.00051468777
0.00064522746
0.00080340349
0.0010033464
0.0011958694
0.0011953702
0.0011946423
0.0011936128
0.0011922628
0.0011906303
0.0011888269
0.0011870314
0.0011854407
0.0011843793
0.0011840042
0.0011843471
0.0011851845
0.0011860203
0.0011861855
0.0011851897
0.0011831274
0.0011806577
0.0011785231
0.001177305
0.001177634
0.0011781337
1.273891e-07
7.7896848e-06
3.5009954e-06
4.6024882e-06
3.5047307e-06
3.7355025e-06
3.9244369e-06
3.6184577e-06
3.7910862e-06
3.5086704e-06
3.4333732e-06
3.3745623e-06
3.3674524e-06
3.3962557e-06
3.442034e-06
3.5299595e-06
3.6501573e-06
3.8015286e-06
3.9844328e-06
4.20021e-06
4.4514009e-06
4.7409053e-06
5.0637033e-06
5.440095e-06
5.8694429e-06
6.3586832e-06
6.9161595e-06
7.5521153e-06
8.2792449e-06
9.1133204e-06
1.0073054e-05
1.118287e-05
1.247281e-05
1.3980757e-05
1.5686754e-05
1.7764726e-05
2.0235184e-05
2.3188166e-05
2.6896816e-05
3.121983e-05
3.6462502e-05
4.2847057e-05
5.0653082e-05
6.0218536e-05
7.1967916e-05
8.6433431e-05
0.00010427822
0.00012633065
0.0001550002
0.00018914376
0.00023157297
0.0002844074
0.00035365847
0.00043678163
0.0005410129
0.00067859355
0.00084495991
0.0010550435
0.0011966479
0.0011960401
0.0011951989
0.0011940626
0.001192611
0.0011908788
0.0011889654
0.0011870634
0.0011854483
0.0011843305
0.0011838176
0.0011839327
0.0011844854
0.0011850431
0.0011850429
0.0011841063
0.0011823545
0.0011803648
0.0011787245
0.0011778425
0.0011782028
0.0011784621
1.2145729e-07
6.956897e-06
3.0981467e-06
3.967359e-06
3.1449876e-06
3.117346e-06
3.4490978e-06
3.0612988e-06
3.1219627e-06
2.9431282e-06
2.8968061e-06
2.8791144e-06
2.8944021e-06
2.9423153e-06
3.0262884e-06
3.1419712e-06
3.2874705e-06
3.4628096e-06
3.6691762e-06
3.9083916e-06
4.1774448e-06
4.4893031e-06
4.8443083e-06
5.2474056e-06
5.7044999e-06
6.2227511e-06
6.81087e-06
7.4794896e-06
8.2417023e-06
9.094088e-06
1.0089626e-05
1.1238934e-05
1.2573275e-05
1.4131896e-05
1.5963997e-05
1.8131252e-05
2.0710192e-05
2.3796955e-05
2.7511372e-05
3.2002305e-05
3.7455694e-05
4.441925e-05
5.2619018e-05
6.2676078e-05
7.5035992e-05
9.0259282e-05
0.00010904556
0.00013227054
0.00016250873
0.00019846958
0.00024315639
0.00029878679
0.00037175501
0.00045917758
0.00056870657
0.00070623631
0.00088761655
0.001107406
0.0011972712
0.0011965651
0.0011956262
0.0011943978
0.0011928576
0.0011910421
0.0011890419
0.0011870282
0.0011854049
0.0011842219
0.0011835765
0.001183476
0.0011837642
0.0011840761
0.0011839582
0.0011831235
0.0011816933
0.0011801305
0.0011788682
0.0011782232
0.0011785341
0.00117853
1.1679118e-07
4.8106598e-06
2.7391091e-06
3.377402e-06
2.6901608e-06
2.6000564e-06
2.9477522e-06
2.5649523e-06
2.5652598e-06
2.466825e-06
2.4533006e-06
2.4632401e-06
2.5093708e-06
2.5912286e-06
2.7044848e-06
2.8466933e-06
3.0172871e-06
3.2170288e-06
3.4444777e-06
3.7068236e-06
4.0054041e-06
4.3436993e-06
4.7259304e-06
5.157221e-06
5.6437477e-06
6.1929572e-06
6.8138955e-06
7.5063889e-06
8.3020981e-06
9.2101484e-06
1.0251574e-05
1.1452544e-05
1.2846086e-05
1.4473746e-05
1.6387717e-05
1.8653211e-05
2.135153e-05
2.4584182e-05
2.8477969e-05
3.3190986e-05
3.8920247e-05
4.5910318e-05
5.48706e-05
6.5453314e-05
7.8463478e-05
9.4489701e-05
0.00011426647
0.00013871346
0.00016898418
0.00020837984
0.0002553567
0.00031379391
0.00038662156
0.00048203161
0.00059663063
0.0007402462
0.00092939815
0.0011578346
0.0011977387
0.0011969456
0.0011959281
0.0011946284
0.0011930164
0.0011911276
0.0011890624
0.0011869906
0.0011853376
0.0011840838
0.0011833117
0.0011830159
0.0011830663
0.0011831763
0.0011829921
0.0011822912
0.0011811543
0.0011799149
0.0011789063
0.0011784012
0.001178622
0.00117837
1.1177776e-07
3.9911214e-06
2.3589834e-06
2.8344486e-06
2.3208455e-06
2.1687633e-06
2.42807e-06
2.1289204e-06
2.112726e-06
2.0755442e-06
2.0907232e-06
2.1350925e-06
2.216943e-06
2.3292771e-06
2.4695675e-06
2.6369571e-06
2.8318626e-06
3.0533952e-06
3.3072698e-06
3.5948979e-06
3.9193563e-06
4.2843641e-06
4.6943654e-06
5.1546674e-06
5.6716466e-06
6.2530064e-06
6.9004852e-06
7.6374976e-06
8.4730548e-06
9.4247303e-06
1.051465e-05
1.177047e-05
1.3227016e-05
1.4928132e-05
1.692909e-05
1.9299228e-05
2.2124854e-05
2.5513264e-05
2.9598367e-05
3.4546394e-05
4.0564694e-05
4.8257405e-05
5.7326699e-05
6.8452685e-05
8.2131624e-05
9.8978638e-05
0.00011976048
0.00014543519
0.00017884263
0.00021851047
0.00026771067
0.0003288333
0.00040488458
0.00050435406
0.00062351623
0.00077245938
0.00096816891
0.0011988317
0.0011980568
0.0011971888
0.0011961128
0.0011947669
0.0011931098
0.0011911638
0.001189038
0.0011869636
0.0011852737
0.0011839478
0.001183053
0.0011825808
0.0011824266
0.0011823744
0.0011821526
0.0011815759
0.0011806701
0.0011796507
0.0011787924
0.0011783737
0.0011785123
0.001178018
1.0837884e-07
3.2133583e-06
2.0332679e-06
2.2893715e-06
2.0168903e-06
1.7992982e-06
1.9447069e-06
1.7586254e-06
1.7571253e-06
1.7689033e-06
1.8139678e-06
1.8960284e-06
2.0085347e-06
2.1475719e-06
2.3121948e-06
2.5027454e-06
2.719213e-06
2.9653644e-06
3.2431137e-06
3.5552686e-06
3.9051813e-06
4.296772e-06
4.7346358e-06
5.2242144e-06
5.7720378e-06
6.3816782e-06
7.0692946e-06
7.8439536e-06
8.7202916e-06
9.7166885e-06
1.0856488e-05
1.2168883e-05
1.3690654e-05
1.5468026e-05
1.7559201e-05
2.003747e-05
2.2994612e-05
2.6543585e-05
3.0825816e-05
3.6016025e-05
4.2609813e-05
5.038249e-05
5.989469e-05
7.1563913e-05
8.5905935e-05
0.00010356138
0.00012532572
0.00015219066
0.00018706277
0.0002284524
0.00027971025
0.0003432694
0.00042218082
0.0005251036
0.00064805916
0.0008012454
0.0010018681
0.0011990809
0.0011982384
0.0011973088
0.0011961927
0.0011948256
0.0011931573
0.0011911934
0.0011890339
0.0011869539
0.0011852293
0.0011838315
0.0011828181
0.0011821858
0.0011818553
0.0011816628
0.0011813996
0.0011809067
0.0011801661
0.0011793019
0.0011785268
0.0011781323
0.0011782021
0.0011775467
1.0687583e-07
2.5288258e-06
1.7514155e-06
1.7661278e-06
1.7368576e-06
1.4832451e-06
1.5499143e-06
1.4631494e-06
1.4919534e-06
1.5388199e-06
1.6223156e-06
1.7346644e-06
1.8724566e-06
2.0341792e-06
2.2201824e-06
2.4316956e-06
2.6697409e-06
2.9379157e-06
3.2384123e-06
3.5742909e-06
3.9490653e-06
4.366786e-06
4.8321592e-06
5.350731e-06
5.929143e-06
6.5754788e-06
7.2997143e-06
8.1142602e-06
9.0242596e-06
1.0065463e-05
1.1255293e-05
1.2624548e-05
1.4212056e-05
1.6066588e-05
1.824923e-05
2.0921259e-05
2.4033418e-05
2.7770545e-05
3.2281962e-05
3.7752293e-05
4.4409562e-05
5.2535122e-05
6.2477885e-05
7.4669293e-05
8.9643457e-05
0.00010806249
0.00013074635
0.0001600985
0.00019486247
0.00023778601
0.00029083666
0.00035646423
0.00044186498
0.00054329949
0.00066907356
0.0008251806
0.0010287654
0.0011992047
0.0011983021
0.0011973253
0.0011961855
0.0011948187
0.0011931681
0.0011912221
0.0011890621
0.0011869686
0.0011852081
0.0011837406
0.0011826139
0.0011818323
0.0011813393
0.0011810119
0.0011806883
0.0011802353
0.0011796104
0.0011788724
0.0011781699
0.0011777486
0.0011777096
0.0011770401
1.0833706e-07
1.9442163e-06
1.5164088e-06
1.3653011e-06
1.4507464e-06
1.2181969e-06
1.2607712e-06
1.2462768e-06
1.3075108e-06
1.3886982e-06
1.5005873e-06
1.636283e-06
1.7945355e-06
1.975511e-06
2.1804725e-06
2.4112109e-06
2.6695385e-06
2.9585522e-06
3.2808474e-06
3.6396079e-06
4.038439e-06
4.4814717e-06
4.9734992e-06
5.5201702e-06
6.128257e-06
6.8060169e-06
7.5636758e-06
8.4140315e-06
9.3732034e-06
1.0461582e-05
1.1704946e-05
1.3135942e-05
1.4795707e-05
1.6735959e-05
1.9021438e-05
2.1732909e-05
2.4970882e-05
2.8860449e-05
3.3556491e-05
3.9250889e-05
4.6180899e-05
5.4638802e-05
6.4982696e-05
7.7657123e-05
9.3209472e-05
0.0001132458
0.00013692035
0.00016604853
0.00020191664
0.00024611714
0.00030061859
0.00037130946
0.00045491118
0.00055812436
0.00068562533
0.00085140675
0.0010476956
0.0011992273
0.0011982742
0.001197262
0.0011961118
0.0011947625
0.0011931543
0.0011912593
0.0011891297
0.0011870164
0.0011852156
0.0011836792
0.0011824416
0.0011815145
0.0011808624
0.0011803982
0.0011799992
0.0011795564
0.0011790147
0.0011783856
0.0011777595
0.0011773111
0.0011771069
0.0011764643
1.1392168e-07
1.4643309e-06
1.3253593e-06
1.0726008e-06
1.2945367e-06
9.9842628e-07
1.064322e-06
1.1023204e-06
1.1902887e-06
1.2990057e-06
1.4318131e-06
1.5856624e-06
1.7609804e-06
1.9589316e-06
2.1812636e-06
2.4300229e-06
2.7075369e-06
3.0162176e-06
3.3592222e-06
3.7396924e-06
4.1612965e-06
4.6282361e-06
5.1453904e-06
5.7185178e-06
6.3545328e-06
7.0618807e-06
7.8510421e-06
8.7352192e-06
9.73109e-06
1.0859839e-05
1.2148267e-05
1.3630384e-05
1.5349063e-05
1.7358199e-05
1.9725219e-05
2.2534193e-05
2.5889534e-05
2.9920573e-05
3.4787143e-05
4.0686471e-05
4.8188405e-05
5.7010305e-05
6.7787897e-05
8.0977246e-05
9.7138593e-05
0.00011696157
0.00014129553
0.00017118633
0.00020791769
0.00025544124
0.00031139353
0.00038019546
0.00046481986
0.00056892752
0.00070382539
0.00086262331
0.0010580118
0.0011991793
0.0011981833
0.0011971447
0.0011959936
0.0011946737
0.001193125
0.0011913081
0.0011892422
0.001187112
0.0011852617
0.0011836548
0.0011823065
0.0011812347
0.0011804216
0.0011798141
0.0011793294
0.0011788774
0.0011783942
0.00117786
0.0011773184
0.0011768794
0.0011765828
0.0011760161
1.2425949e-07
1.1480398e-06
1.1608246e-06
9.3182302e-07
9.4491211e-07
8.7236058e-07
9.3511143e-07
1.0151936e-06
1.123868e-06
1.2520899e-06
1.4007424e-06
1.5696291e-06
1.7599974e-06
1.9734014e-06
2.211732e-06
2.4770984e-06
2.7718576e-06
3.0986339e-06
3.4603658e-06
3.8603604e-06
4.3023716e-06
4.7907079e-06
5.330382e-06
5.927325e-06
6.5886822e-06
7.3205798e-06
8.1376556e-06
9.0518265e-06
1.0089384e-05
1.1258062e-05
1.259195e-05
1.4126539e-05
1.5906496e-05
1.7987862e-05
2.0440637e-05
2.3351895e-05
2.6829576e-05
3.1007117e-05
3.6049073e-05
4.2158063e-05
4.9583266e-05
5.8630856e-05
6.967658e-05
8.3179267e-05
9.9704061e-05
0.00011994331
0.0001460345
0.00017667707
0.0002142402
0.00026029778
0.00031677473
0.00038602851
0.00047094168
0.00058050418
0.00070901403
0.00086645315
0.0010593163
0.001199092
0.0011980593
0.0011970005
0.0011958542
0.0011945704
0.0011930901
0.0011913673
0.0011893964
0.001187273
0.0011853606
0.0011836792
0.0011822198
0.0011810045
0.0011800273
0.0011792664
0.0011786811
0.0011782014
0.001177761
0.0011773197
0.0011768903
0.0011765428
0.0011763083
0.0011758673
1.4564451e-07
1.1904307e-06
9.9817097e-07
7.1001686e-07
7.7091469e-07
7.7901989e-07
8.6341077e-07
9.6629091e-07
1.0913565e-06
1.2343686e-06
1.396509e-06
1.5787161e-06
1.7825157e-06
2.0095702e-06
2.2617927e-06
2.5413133e-06
2.8505142e-06
3.1920595e-06
3.5689386e-06
3.9845186e-06
4.442618e-06
4.9476096e-06
5.5045702e-06
6.1194935e-06
6.7995931e-06
7.5537169e-06
8.3928949e-06
9.3310383e-06
1.0385824e-05
1.1579745e-05
1.2941363e-05
1.450688e-05
1.6321898e-05
1.8443609e-05
2.0943371e-05
2.3909832e-05
2.7452709e-05
3.1707356e-05
3.6840318e-05
4.3056115e-05
5.0605643e-05
6.0224894e-05
7.1520911e-05
8.5309972e-05
0.0001021596
0.00012276236
0.00014796525
0.00017880301
0.00021653857
0.00026270961
0.0003191938
0.0003918596
0.00047692087
0.00058083615
0.00070773518
0.00086263777
0.0010516474
0.0011989955
0.0011979318
0.0011968571
0.0011957172
0.0011944711
0.0011930636
0.001191441
0.0011895733
0.0011875105
0.0011855306
0.0011837687
0.0011821958
0.001180836
0.0011797
0.0011787845
0.0011780777
0.0011775505
0.0011771466
0.0011768131
0.0011765383
0.001176354
0.0011762392
0.0011759307
1.3876338e-07
7.8955148e-07
8.1696171e-07
6.0489752e-07
6.6301486e-07
7.2398976e-07
8.2682539e-07
9.4649255e-07
1.0846448e-06
1.2402877e-06
1.4146885e-06
1.6090663e-06
1.8249712e-06
2.064127e-06
2.3284811e-06
2.6202147e-06
2.9417701e-06
3.2958385e-06
3.6855386e-06
4.1142846e-06
4.5859645e-06
5.1050189e-06
5.67659e-06
6.3067363e-06
7.0027396e-06
7.7735249e-06
8.630217e-06
9.5868585e-06
1.0670093e-05
1.1889024e-05
1.3278695e-05
1.4876027e-05
1.6727434e-05
1.8891041e-05
2.143925e-05
2.4461883e-05
2.8069935e-05
3.2400146e-05
3.7620554e-05
4.3937212e-05
5.1602329e-05
6.0924036e-05
7.2278189e-05
8.6124849e-05
0.00010302453
0.00012366111
0.00014886813
0.00018123698
0.00021912257
0.00026536888
0.00032180442
0.00039064239
0.00047456348
0.00057681103
0.00070130659
0.00085279416
0.0010370112
0.0011989136
0.0011978246
0.0011967384
0.0011956047
0.0011943909
0.0011930503
0.0011915314
0.0011897877
0.0011878175
0.0011857853
0.0011839388
0.0011822555
0.001180751
0.0011794547
0.0011783856
0.0011775591
0.0011769766