/*--------------------------------*- C++ -*----------------------------------*\
  =========                 |
  \\      /  F ield         | OpenFOAM: The Open Source CFD Toolbox
   \\    /   O peration     | Website:  https://openfoam.org
    \\  /    A nd           | Version:  12
     \\/     M anipulation  |
\*---------------------------------------------------------------------------*/
FoamFile
{
    format      ascii;
    class       volScalarField;
    location    "0.041";
    object      omega;
}
// * * * * * * * * * * * * * * * * * * * * * * * * * * * * * * * * * * * * * //

dimensions      [0 0 -1 0 0 0 0];

internalField   nonuniform List<scalar> 
16000
(
1090.1542
2181.9034
1062.4527
643.91779
453.38447
315.31137
238.87374
180.45613
145.18221
117.68751
99.902387
85.575953
74.869211
65.967263
58.68686
52.560675
47.388155
42.978118
39.18935
35.910471
33.057369
30.559209
28.357816
26.406764
24.668651
23.114414
21.720012
20.466859
19.339148
18.322456
17.403821
16.573047
15.822003
15.143804
14.532551
13.982761
13.489266
13.047212
12.652551
12.30184
11.991191
11.716573
11.475047
11.263894
11.080023
10.920325
10.782375
10.663874
10.562635
10.476598
10.403902
10.342875
10.291954
10.249769
10.215101
10.186908
10.164363
10.146994
10.134869
10.12839
10.125556
10.121157
10.115376
10.108472
10.100437
10.09127
10.081336
10.071925
10.065363
10.063682
10.06804
10.083359
10.105877
10.128424
10.138408
10.129573
10.087902
10.054056
10.018716
10.005208
1131.9309
2174.3245
1056.7924
644.22438
453.73342
318.39788
240.0478
182.36645
146.0714
118.751
100.47558
86.153509
75.24614
66.289902
58.922535
52.743407
47.522508
43.076125
39.25885
35.957228
33.086408
30.575193
28.364446
26.407025
24.664464
23.10731
21.710812
20.456035
19.327265
18.310301
17.391894
16.561488
15.810805
15.132849
14.521759
13.97212
13.478871
13.037088
12.64254
12.291915
11.981612
11.70737
11.466105
11.255232
11.071827
10.912631
10.775175
10.657172
10.556452
10.470956
10.398798
10.338328
10.28797
10.246356
10.212262
10.184635
10.162603
10.145604
10.133563
10.126811
10.124092
10.119841
10.114142
10.107194
10.099023
10.089658
10.079512
10.070011
10.063755
10.062313
10.067381
10.084104
10.10745
10.12928
10.137096
10.123439
10.081591
10.045094
10.013578
10.004076
1172.1414
2176.3752
1044.8556
640.74082
450.51999
318.73742
239.05672
182.61448
145.68083
118.94015
100.35355
86.180061
75.160236
66.203171
58.801737
52.608729
47.375548
42.922621
39.103046
35.801548
32.932907
30.425967
28.221024
26.270705
24.535734
22.986557
21.597949
20.350697
19.229125
18.219378
17.308124
16.484534
15.740252
15.068192
14.462535
13.917918
13.429416
12.992144
12.601687
12.254722
11.948026
11.677212
11.439018
11.230897
11.050174
10.893479
10.758301
10.642366
10.543535
10.459774
10.389186
10.330156
10.281118
10.240717
10.207743
10.181155
10.160066
10.143848
10.13234
10.125744
10.12312
10.118898
10.113188
10.106101
10.097699
10.088064
10.07769
10.068188
10.062511
10.061446
10.06753
10.085956
10.109845
10.13047
10.136338
10.117738
10.074683
10.037341
10.008768
10.002374
1210.5751
2184.5842
1035.4323
637.40633
446.87861
318.88835
237.75359
182.70648
145.14268
119.02468
100.17713
86.142353
75.030806
66.067558
58.639082
52.434284
47.192297
42.735443
38.916176
35.617246
32.752948
30.252295
28.054971
26.113511
24.387763
22.848115
21.468899
20.230604
19.1175
18.116129
17.213159
16.397467
15.66063
14.995446
14.396142
13.857388
13.374389
12.942358
12.556724
12.214014
11.911453
11.64459
11.409972
11.204989
11.027293
10.873418
10.740794
10.627162
10.530408
10.448544
10.379654
10.32217
10.274536
10.235417
10.203614
10.178109
10.15801
10.142622
10.13168
10.12531
10.122779
10.118542
10.112773
10.105501
10.096823
10.086896
10.076305
10.066842
10.06176
10.06101
10.068406
10.088226
10.112126
10.131035
10.135294
10.112395
10.068546
10.03103
10.005367
10.00168
1247.0675
2202.4181
1027.722
633.62845
442.42998
318.28442
235.75151
182.30453
144.21909
118.82656
99.809379
85.926327
74.760459
65.798745
58.360434
52.15513
46.915439
42.463856
38.653091
35.364016
32.51042
30.021686
27.836937
25.908802
24.196336
22.669939
21.303574
20.077473
18.975756
17.985397
17.093197
16.287735
15.560552
14.904315
14.313306
13.782211
13.306347
12.88108
12.501766
12.164619
11.867345
11.605512
11.375512
11.174532
11.000619
10.850251
10.720789
10.609987
10.515749
10.436166
10.369291
10.313617
10.267609
10.229957
10.199478
10.175173
10.156175
10.141736
10.131466
10.125415
10.12296
10.118646
10.112754
10.105247
10.096253
10.086018
10.075239
10.065863
10.061369
10.060948
10.070153
10.090873
10.114295
10.13108
10.133631
10.106707
10.062746
10.025887
10.002873
10.000889
1281.4646
2227.8159
1023.7751
630.60963
438.3842
317.03975
233.2398
181.48694
143.00768
118.38326
99.294994
85.554338
74.36879
65.413994
57.980375
51.784514
46.556549
42.118181
38.322902
35.04997
32.212548
29.740632
27.572787
25.661776
23.966161
22.456313
21.10587
19.894873
18.80719
17.830227
16.951052
16.157938
15.442424
14.797021
14.216075
13.694282
13.227045
12.809896
12.438258
12.107903
11.816944
11.561073
11.336624
11.140416
10.970936
10.824663
10.698878
10.591353
10.499993
10.423004
10.358401
10.304747
10.260538
10.224495
10.195453
10.17243
10.154599
10.141192
10.131675
10.125985
10.123574
10.119131
10.113054
10.105269
10.095933
10.085394
10.074473
10.065232
10.061278
10.061365
10.072654
10.09358
10.116107
10.130545
10.130772
10.100204
10.057331
10.021753
10.001187
10.000764
1313.7202
2258.5024
1023.9659
627.77172
434.44241
315.14787
230.54163
180.28595
141.57403
117.69653
98.642274
85.025107
73.852039
64.911281
57.49593
51.319718
46.11282
41.695724
37.922793
34.672425
31.856779
29.406729
27.260383
25.369982
23.694966
22.205164
20.873904
19.681118
18.610334
17.649335
16.785619
16.007129
15.305452
14.672909
14.103921
13.593191
13.136186
12.728583
12.366018
12.043916
11.760353
11.511373
11.293426
11.102804
10.938401
10.796799
10.675193
10.571386
10.483247
10.409153
10.347061
10.295622
10.253364
10.219056
10.191553
10.169883
10.153261
10.14094
10.132259
10.126956
10.124522
10.119898
10.113572
10.105466
10.095773
10.084943
10.073941
10.064939
10.061389
10.06237
10.075504
10.096005
10.117237
10.129607
10.126331
10.092899
10.052355
10.018916
10.000373
10.001193
1343.9334
2292.0091
1025.9283
624.67681
430.60108
312.60986
227.94572
178.82782
140.11936
116.79265
97.868608
84.347469
73.212005
64.293218
56.907802
50.760732
45.583639
41.195711
37.451031
34.229545
31.44131
29.01821
26.898277
25.030074
23.379524
21.913479
20.604892
19.433683
18.382943
17.440734
16.595155
15.833794
15.148339
14.530884
13.97593
13.478188
13.033183
12.636688
12.28461
11.972963
11.697923
11.456735
11.246206
11.062095
10.903378
10.766975
10.650023
10.55034
10.465726
10.394786
10.335412
10.286349
10.246166
10.213688
10.187805
10.167541
10.152142
10.140922
10.133144
10.12828
10.125696
10.120845
10.114204
10.105739
10.095679
10.084576
10.073573
10.064972
10.061785
10.063843
10.078114
10.097782
10.117288
10.12749
10.119967
10.085371
10.047893
10.01722
10.000209
10.00018
1372.2079
2326.1693
1025.7156
620.85405
426.05197
309.35929
224.56457
176.99107
138.36195
115.69721
96.971676
83.521897
72.442732
63.555875
56.211618
50.102372
44.963779
40.61344
36.899951
33.713575
30.95871
28.567963
26.480224
24.642999
23.02134
21.583181
20.301022
19.15492
18.127495
17.206948
16.382172
15.640405
14.973509
14.373297
13.834364
13.351429
12.920077
12.536175
12.19569
11.894621
11.629393
11.396975
11.194768
11.018619
10.866186
10.735456
10.623667
10.528479
10.447658
10.380091
10.323603
10.27704
10.239023
10.208437
10.184225
10.165405
10.151227
10.141076
10.134222
10.129881
10.126989
10.121866
10.114851
10.105988
10.095557
10.084203
10.073264
10.065172
10.06252
10.065411
10.079972
10.098635
10.116118
10.123728
10.111894
10.078401
10.044061
10.016429
10.00069
9.9990628
1398.6615
2359.2863
1017.9067
615.96414
419.77862
305.63895
220.28927
174.66605
136.4754
114.4245
95.941494
82.543684
71.536536
62.691539
55.399614
49.332082
44.239676
39.935922
36.268206
33.125546
30.411703
28.059719
26.009799
24.207995
22.619905
21.213889
19.962063
18.844747
17.844091
16.948232
16.14698
15.427372
14.781468
14.200736
13.679875
13.213607
12.797574
12.427739
12.100231
11.811108
11.556717
11.333893
11.140552
10.972251
10.826785
10.702172
10.596384
10.506026
10.429285
10.365258
10.31179
10.267816
10.232019
10.203349
10.180824
10.163466
10.150495
10.141347
10.135362
10.131562
10.128296
10.122855
10.115419
10.106122
10.095317
10.083735
10.072879
10.065302
10.063168
10.066494
10.080815
10.098389
10.113632
10.118505
10.103758
10.072323
10.040846
10.016094
10.002024
9.9987555
1423.4101
2390.3582
1009.5253
610.02261
411.85005
301.49691
215.68048
172.14706
134.50688
112.96763
94.765285
81.4056
70.481817
61.679838
54.449543
48.445197
43.412893
39.167322
35.554099
32.4637
29.798552
27.491993
25.485989
23.725305
22.175699
20.806224
19.588825
18.504145
17.533891
16.665931
15.890695
15.19585
14.573423
14.01444
13.513711
13.065959
12.666888
12.312534
11.999199
11.723034
11.480475
11.268152
11.084361
10.92462
10.786576
10.668224
10.56809
10.4829
10.410797
10.350432
10.300124
10.258793
10.225237
10.198472
10.17761
10.161705
10.149921
10.141696
10.136458
10.133146
10.12951
10.123715
10.115824
10.106063
10.094878
10.083082
10.07228
10.065093
10.063284
10.066881
10.080553
10.096936
10.110022
10.112081
10.095642
10.066901
10.038093
10.01587
10.003912
9.9998516
1446.5683
2420.3661
996.69334
602.68545
402.44226
296.95873
210.90848
169.36571
132.5063
111.33504
93.415986
80.07753
69.241303
60.514644
53.365228
47.438682
42.480012
38.30446
34.756185
31.727307
29.119157
26.86502
24.909161
23.19541
21.689585
20.360857
19.18217
18.134155
17.198093
16.361573
15.61357
14.946111
14.349694
13.814785
13.336287
12.908916
12.528455
12.190987
11.893026
11.630836
11.400981
11.200655
11.026891
10.876104
10.745909
10.634177
10.539907
10.4599
10.392105
10.335515
10.288692
10.250074
10.218757
10.193853
10.17459
10.160093
10.149466
10.142088
10.137456
10.134531
10.130522
10.124354
10.115997
10.105752
10.094172
10.082149
10.071329
10.064299
10.062597
10.066655
10.079108
10.094008
10.104868
10.104538
10.087558
10.061615
10.035505
10.015666
10.005878
10.001716
1468.4376
2449.184
979.91984
594.18798
392.38436
292.00197
206.05867
166.38235
130.45351
109.50428
91.829406
78.543379
67.820561
59.190407
52.140623
46.309137
41.438464
37.345901
33.873601
30.915794
28.373456
26.179355
24.279679
22.619012
21.162831
19.877402
18.741825
17.734681
16.836692
16.035689
15.320614
14.683088
14.115049
13.606368
13.151984
12.746586
12.386088
12.066586
11.784848
11.537339
11.320536
11.131562
10.968316
10.826859
10.704853
10.600438
10.512011
10.437291
10.37401
10.321073
10.27735
10.241693
10.212635
10.189535
10.171769
10.158591
10.149075
10.142481
10.138308
10.135618
10.131242
10.124695
10.115882
10.105148
10.093154
10.080862
10.069917
10.062805
10.06107
10.065469
10.076423
10.08962
10.098229
10.095698
10.07937
10.056055
10.032783
10.015505
10.007882
10.003848
1489.2729
2473.2095
958.94601
585.20006
381.8869
286.67977
201.2234
163.20332
128.27784
107.38218
89.990641
76.793035
66.207484
57.699425
50.770075
45.052175
40.285412
36.289573
32.905473
30.028388
27.561399
25.435866
23.596202
21.994849
20.594978
19.362148
18.274659
17.312915
16.457049
15.694983
15.015478
14.410356
13.872464
13.391858
12.963207
12.581093
12.241662
11.940977
11.676046
11.443683
11.240456
11.063361
10.910668
10.778601
10.664717
10.566988
10.484408
10.414918
10.356524
10.307334
10.266574
10.233469
10.206861
10.185545
10.169155
10.157159
10.148677
10.142824
10.13899
10.136325
10.131597
10.124678
10.115437
10.104229
10.091802
10.079202
10.068047
10.060694
10.058779
10.062925
10.07247
10.08366
10.090089
10.085953
10.07094
10.050094
10.029882
10.015467
10.009668
10.00561
1509.3267
2487.9727
933.77768
575.53905
371.00439
281.03023
196.47803
159.75209
125.8599
104.97678
87.873088
74.80933
64.390176
56.032063
49.246627
43.663045
39.018164
35.133349
31.851246
29.06209
26.680204
24.632979
22.867
21.332546
19.995538
18.820675
17.786328
16.873913
16.063928
15.344146
14.70313
14.132636
13.624909
13.173703
12.772014
12.414127
12.096557
11.815312
11.567543
11.350553
11.161028
10.996682
10.854458
10.73168
10.62601
10.535144
10.458191
10.393543
10.339422
10.294333
10.256526
10.225762
10.201225
10.181847
10.166752
10.155764
10.148192
10.143044
10.139507
10.136606
10.131545
10.124267
10.114641
10.102994
10.090128
10.07721
10.065807
10.058184
10.056025
10.05936
10.067229
10.076234
10.08062
10.07592
10.062283
10.043986
10.027044
10.015557
10.011035
10.006395
1528.8182
2484.6313
904.73026
565.27548
359.78311
275.05554
191.81846
155.9019
123.12303
102.24412
85.447888
72.570219
62.353208
54.177692
47.563252
42.136493
37.634166
33.871481
30.706613
28.025449
25.742
23.783739
22.099799
20.640037
19.372127
18.261237
17.284946
16.423706
15.662609
14.987729
14.387281
13.853614
13.37922
12.957935
12.583795
12.250487
11.955004
11.693374
11.462681
11.260941
11.08457
10.931632
10.799775
10.686061
10.588452
10.504946
10.433542
10.373541
10.323287
10.281767
10.247203
10.21868
10.195964
10.178228
10.164527
10.154389
10.147546
10.143018
10.139834
10.13645
10.131074
10.123461
10.113503
10.101483
10.088192
10.074934
10.063265
10.055613
10.052982
10.055275
10.06133
10.068029
10.070744
10.065895
10.053755
10.038302
10.024616
10.015736
10.012063
10.007064
1547.9239
2442.8025
873.08144
554.42966
348.28485
268.67026
186.938
151.6279
119.95444
99.137317
82.682248
70.051711
60.081282
52.127108
45.713654
40.463314
36.12612
32.515311
29.487408
26.929143
24.757822
22.899724
21.306795
19.929378
18.734055
17.691819
16.778214
15.97394
15.263821
14.635656
14.076998
13.580733
13.139685
12.748177
12.40126
12.092329
11.818639
11.576496
11.362644
11.175811
11.012391
10.870459
10.748418
10.643308
10.553064
10.476038
10.410559
10.355033
10.308363
10.270036
10.238289
10.212208
10.191128
10.174825
10.162298
10.153026
10.146709
10.142615
10.139653
10.135876
10.130205
10.122298
10.112066
10.09977
10.08612
10.072498
10.060898
10.053061
10.049728
10.050782
10.055014
10.059687
10.061038
10.056342
10.046017
10.033494
10.02279
10.015907
10.012783
10.007662
1566.5286
2404.0568
841.13971
542.95837
336.51482
261.33358
181.91127
146.82864
116.24106
95.599232
79.542089
67.230463
57.559605
49.872352
43.685659
38.654802
34.514872
31.079626
28.209561
25.790984
23.744797
21.997766
20.500845
19.212766
18.098112
17.12812
16.27962
15.533732
14.875369
14.294116
13.777419
13.318468
12.910532
12.548029
12.226195
11.940916
11.688225
11.465031
11.268493
11.095912
10.945016
10.813534
10.700628
10.603651
10.520359
10.449224
10.388784
10.337694
10.294739
10.259271
10.230045
10.206074
10.186709
10.171624
10.160145
10.15163
10.145688
10.141865
10.139009
10.134902
10.128992
10.120854
10.110404
10.097925
10.084069
10.070058
10.058703
10.050571
10.046398
10.046108
10.048597
10.051556
10.051985
10.047829
10.039495
10.029685
10.021356
10.015913
10.013088
10.007914
1584.1711
2364.8655
808.3138
530.51988
324.37443
252.81071
176.54539
141.39062
111.87607
91.57018
75.995089
64.086377
54.769942
47.399141
41.503757
36.732491
32.823439
29.58984
26.897433
24.634313
22.721157
21.094999
19.704696
18.510016
17.478236
16.582075
15.799306
15.111988
14.50485
13.968035
13.492272
13.069489
12.693569
12.359468
12.062879
11.799893
11.56699
11.361163
11.179862
11.020814
10.881958
10.761261
10.6568
10.567308
10.490473
10.424826
10.369022
10.321883
10.282357
10.249492
10.22251
10.200444
10.182645
10.168588
10.15798
10.150072
10.144491
10.140791
10.137922
10.133568
10.127499
10.119232
10.108641
10.096009
10.08206
10.067982
10.056688
10.048196
10.043151
10.041538
10.042461
10.044049
10.043968
10.0406
10.034143
10.02651
10.019908
10.015481
10.012943
10.007663
1600.1603
2296.6695
773.83161
516.58959
311.11951
242.95667
170.52724
135.17754
106.7615
86.992799
72.016161
60.600393
51.728863
44.753704
39.202839
34.733661
31.088532
28.079753
25.57789
23.483343
21.716916
20.217257
18.93655
17.837008
16.888232
16.065007
15.346191
14.714229
14.15733
13.664623
13.227705
12.839252
12.493495
12.185804
11.912441
11.670121
11.455654
11.266122
11.099138
10.952468
10.824275
10.712953
10.617107
10.534388
10.463436
10.402798
10.351204
10.307552
10.270899
10.240701
10.215656
10.195208
10.178726
10.165706
10.15582
10.148425
10.143125
10.139467
10.136445
10.131928
10.125788
10.117522
10.106924
10.094195
10.080116
10.066261
10.054916
10.046038
10.040173
10.037349
10.036899
10.037383
10.036993
10.034377
10.029437
10.023388
10.017936
10.014274
10.012146
10.007349
1613.437
2228.4664
736.76859
500.62223
297.06521
231.58434
163.38747
128.02533
100.82217
81.837262
67.59888
56.811667
48.495884
41.992843
36.84049
32.709603
29.355098
26.585464
24.290692
22.371998
20.755718
19.384513
18.213504
17.207602
16.339136
15.585572
14.926482
14.348453
13.838503
13.386683
12.985852
12.629241
12.311522
12.028336
11.77625
11.552558
11.354797
11.180014
11.026123
10.890956
10.772664
10.670293
10.581469
10.504924
10.439232
10.383108
10.335343
10.29492
10.260993
10.232831
10.209514
10.190449
10.175085
10.162939
10.153631
10.146645
10.141578
10.13796
10.134663
10.130052
10.123924
10.115786
10.105362
10.092738
10.078634
10.06492
10.053479
10.04421
10.037586
10.03367
10.031993
10.031488
10.030757
10.028641
10.024809
10.019948
10.015371
10.012303
10.010653
10.006746
1621.2174
2145.381
696.91833
480.91641
281.9834
218.37332
154.65178
119.79725
94.057036
76.148689
62.824084
52.824815
45.164926
39.200691
34.489105
30.720409
27.667903
25.152782
23.068635
21.326838
19.85918
18.613363
17.548412
16.632164
15.839273
15.149651
14.547072
14.017927
13.55119
13.13668
12.768512
12.440699
12.148425
11.887663
11.655059
11.448
11.26511
11.103384
10.961052
10.836283
10.727278
10.632313
10.549966
10.478888
10.41783
10.365668
10.321313
10.283657
10.252234
10.225901
10.204064
10.186152
10.171701
10.16031
10.15144
10.144743
10.139824
10.136182
10.13269
10.12803
10.121986
10.114078
10.103978
10.091652
10.077695
10.064026
10.052445
10.04277
10.035405
10.030461
10.027634
10.026151
10.024942
10.023036
10.019993
10.016128
10.012374
10.009794
10.00851
10.005772
1618.3552
2043.4586
653.76344
455.1586
265.6953
202.98041
144.07754
110.5157
86.613325
70.050923
57.873045
48.784088
41.853191
36.471269
32.225213
28.829611
26.080135
23.818677
21.941216
20.370007
19.043753
17.915867
16.949889
16.117097
15.394729
14.764721
14.21266
13.72674
13.297185
12.916075
12.576867
12.274466
12.004608
11.76379
11.549044
11.357826
11.187953
11.037615
10.905077
10.788792
10.68729
10.599062
10.522436
10.456237
10.399252
10.350462
10.309211
10.274148
10.244575
10.219848
10.199318
10.182387
10.168767
10.157852
10.149313
10.142799
10.13798
10.134268
10.130626
10.125958
10.120052
10.112454
10.102805
10.090959
10.077316
10.06361
10.051828
10.041721
10.033606
10.027647
10.023687
10.021206
10.019408
10.017502
10.015018
10.012006
10.009033
10.006898
10.005802
10.003826
1598.6484
1912.6455
607.52447
422.67515
248.19735
185.20254
131.88053
100.49969
78.834629
63.863609
52.96348
44.853144
38.68323
33.897557
30.120453
27.093568
24.635595
22.615524
20.932212
19.518934
18.322068
17.300968
16.423892
15.665718
15.006309
14.429468
13.922337
13.474992
13.078748
12.72663
12.412618
12.13221
11.88159
11.657637
11.457727
11.279611
11.121312
10.98105
10.857208
10.748293
10.653005
10.570527
10.498852
10.436918
10.383624
10.337967
10.299045
10.266036
10.238082
10.21463
10.195272
10.179251
10.166166
10.155647
10.147352
10.140995
10.136138
10.132336
10.12858
10.123929
10.118193
10.110952
10.10184
10.090622
10.077478
10.063715
10.051642
10.041074
10.032197
10.025217
10.020103
10.016575
10.014099
10.01203
10.009901
10.007591
10.00537
10.003764
10.002989
10.001895
1553.2429
1752.2355
559.36904
384.25166
230.48553
165.32019
118.73801
90.364212
71.172636
57.908163
48.319182
41.19219
35.77233
31.564763
28.236517
25.559525
23.374621
21.568793
20.060022
18.78697
17.703949
16.775953
15.975739
15.281745
14.676597
14.14597
13.677351
13.26276
12.894474
12.567024
12.274398
12.012653
11.778364
11.568733
11.381395
11.21432
11.065724
10.934001
10.817675
10.715374
10.625812
10.547775
10.48009
10.421475
10.370965
10.327601
10.290578
10.259356
10.232875
10.210601
10.191993
10.176597
10.163979
10.153748
10.145678
10.139328
10.134411
10.130491
10.126654
10.122028
10.116475
10.10961
10.101068
10.090567
10.078109
10.064407
10.051941
10.040868
10.031214
10.023211
10.016914
10.012242
10.008955
10.006565
10.004625
10.002911
10.001504
10.000708
10.000706
10.000834
1473.7398
1587.2546
510.25077
344.77214
206.56557
146.04506
105.5871
80.791695
64.082193
52.499203
44.157093
37.957667
33.232141
29.549543
26.62245
24.255327
22.312028
20.695841
19.336874
18.183866
17.19755
16.348033
15.611897
14.970567
14.409079
13.915235
13.478994
13.092038
12.747618
12.440119
12.164887
11.918262
11.697171
11.499079
11.321837
11.163591
11.022699
10.897664
10.787099
10.689694
10.604229
10.529631
10.465204
10.409338
10.361181
10.31983
10.284478
10.254398
10.228929
10.207427
10.18941
10.174445
10.162237
10.152264
10.144244
10.137881
10.132872
10.128826
10.124935
10.120337
10.114958
10.108461
10.100503
10.090741
10.079015
10.065721
10.052803
10.041167
10.030703
10.021654
10.014182
10.008339
10.004078
10.001188
9.999312
9.9981479
9.9976152
9.9977931
9.9986846
9.9998466
1361.7859
1500.4691
464.12309
297.30113
182.77299
127.9359
93.684061
72.306127
57.94004
47.932704
40.697
35.302191
31.167309
27.922954
25.325702
23.210645
21.462955
20.000518
18.762403
17.70621
16.798094
16.012265
15.328363
14.730105
14.204289
13.740123
13.328679
12.96261
12.635956
12.344232
12.082499
11.84756
11.636601
11.447312
11.277731
11.126161
10.991097
10.871169
10.765099
10.671676
10.589734
10.518132
10.45575
10.401665
10.354937
10.314727
10.280272
10.250915
10.226202
10.205288
10.18774
10.173109
10.161012
10.151113
10.143095
10.136672
10.131556
10.127392
10.123484
10.118927
10.113705
10.107532
10.100116
10.091119
10.080257
10.067577
10.054285
10.042045
10.030769
10.020656
10.011989
10.004965
9.9997103
9.9962123
9.9942585
9.9935405
9.9938305
9.9949832
9.9968307
9.9990169
1228.8879
1254.6785
423.94719
254.97921
160.62402
112.82118
83.824175
65.447725
53.081913
44.410856
38.093782
33.340815
29.664166
26.75328
24.403017
22.473793
20.867955
19.515506
18.36515
17.378482
16.526315
15.785931
15.139334
14.571994
14.071974
13.629351
13.236058
12.885325
12.571565
12.29017
12.037361
11.809993
11.605478
11.421649
11.256668
11.108941
10.977049
10.859699
10.755686
10.663884
10.583282
10.513162
10.451962
10.398855
10.352929
10.31337
10.279429
10.250426
10.225755
10.204883
10.187322
10.172647
10.160477
10.150473
10.142329
10.135761
10.130494
10.126206
10.122322
10.11783
10.11277
10.106892
10.099941
10.091595
10.081547
10.069655
10.056314
10.04346
10.031456
10.020366
10.010564
10.002393
9.9961477
9.9919879
9.9898369
9.9894336
9.9904604
9.9925438
9.9953212
9.9984523
1109.1749
1117.7747
391.33463
224.21988
144.04099
101.69393
76.516148
60.449263
49.606971
41.938182
36.294427
32.00721
28.660023
25.987319
23.812452
22.014422
20.507981
19.231634
18.14006
17.199192
16.382922
15.670857
15.046777
14.497652
14.013309
13.583371
13.200556
12.858465
12.551843
12.276323
12.028305
11.80482
11.603416
11.422045
11.25897
11.112688
10.981857
10.865253
10.761728
10.670188
10.589585
10.518913
10.457215
10.403567
10.357105
10.317023
10.282582
10.253107
10.227991
10.20669
10.188723
10.173661
10.161124
10.150772
10.142299
10.135423
10.129879
10.12538
10.121489
10.117105
10.112213
10.1066
10.100039
10.092233
10.082846
10.071602
10.058606
10.045222
10.032596
10.020718
10.009964
10.000807
9.9936947
9.9889533
9.9865828
9.9862776
9.9877414
9.9906142
9.9942114
9.9980706
1054.2171
1075.5232
367.10526
207.124
133.16494
94.134583
71.064256
56.471687
46.642114
39.679713
34.53997
30.617669
27.542194
25.076218
23.06181
21.390401
19.985266
18.790894
17.766281
16.880563
16.110075
15.43632
14.844547
14.322748
13.860982
13.450923
13.085523
12.758846
12.465906
12.202548
11.965326
11.751394
11.558404
11.3844
11.227732
11.086982
10.960893
10.848321
10.748198
10.659509
10.581276
10.512555
10.452441
10.400068
10.354619
10.315331
10.281502
10.252486
10.227704
10.206632
10.188804
10.173808
10.161276
10.150883
10.142334
10.135364
10.129718
10.125126
10.121184
10.116899
10.112127
10.1067
10.100407
10.092978
10.084094
10.073442
10.060898
10.04722
10.034105
10.02166
10.010185
10.000249
9.9924828
9.9874812
9.9854365
9.985002
9.9855773
9.989316
9.9935228
9.9978367
34066.1
79204.413
38956.68
11732.603
1517.6946
609.29037
428.20517
343.90551
283.95792
230.53936
188.32878
156.13642
132.13304
114.01733
100.03815
88.821566
79.441402
71.393943
64.45065
58.45297
53.244771
48.690282
44.682858
41.137584
37.990193
35.177389
32.654852
30.383542
28.332522
26.477302
24.796771
23.272042
21.886769
20.626728
19.480881
18.439785
17.494865
16.638478
15.863623
15.164004
14.534122
13.968382
13.461746
13.009724
12.607878
12.25195
11.938069
11.662229
11.420821
11.210507
11.028042
10.870382
10.734628
10.618306
10.519063
10.436746
10.369925
10.316929
10.276942
10.250009
10.239358
10.235451
10.231181
10.225618
10.218776
10.209849
10.197566
10.180874
10.16089
10.140537
10.106419
10.088289
10.048807
10.061075
10.025333
10.066714
10.026098
10.099369
10.005044
10.047844
19141.612
64250.062
27409.111
5761.3162
976.02167
525.52258
391.63258
315.10403
258.16045
207.66732
171.04471
142.91655
122.24024
106.41213
94.037355
83.921983
75.341083
67.925691
61.516212
55.965103
51.123969
46.872851
43.118996
39.787457
36.817402
34.156883
31.76543
29.60661
27.65318
25.883077
24.276776
22.816788
21.488117
20.277733
19.175788
18.173508
17.262891
16.436826
15.68875
15.012791
14.403799
13.856396
13.365862
12.927954
12.538403
12.193144
11.888481
11.620536
11.385879
11.181302
11.003675
10.850073
10.717715
10.604237
10.507318
10.426355
10.360569
10.308374
10.269025
10.24284
10.232603
10.228907
10.224781
10.219377
10.212596
10.20353
10.191016
10.174436
10.155247
10.136401
10.111896
10.096295
10.057114
10.071822
10.033867
10.073843
10.031619
10.106008
10.007572
10.049836
24993.688
42585.869
16056.228
2913.527
841.64355
495.36094
381.08965
299.97617
245.23341
196.60913
163.70942
136.9197
117.75828
102.71834
90.990028
81.326394
73.096774
65.975425
59.826757
54.497124
49.842048
45.749828
42.132939
38.919716
36.05038
33.478681
31.165424
29.075163
27.182635
25.466638
23.908314
22.49086
21.199991
20.023277
18.951539
17.976278
17.089814
16.285336
15.556517
14.89774
14.304053
13.770188
13.291643
12.864319
12.484049
12.146895
11.84928
11.587409
11.357981
11.157876
10.984048
10.833661
10.704033
10.592899
10.497909
10.41793
10.352888
10.301274
10.262363
10.236924
10.226844
10.223228
10.219225
10.21392
10.207089
10.197801
10.18509
10.168734
10.150507
10.133158
10.115845
10.102657
10.065133
10.08218
10.042172
10.080591
10.039312
10.109924
10.01029
10.051767
33596.852
25878.633
9266.931
1669.5941
750.3803
471.01799
368.50466
284.32888
234.30666
186.26139
156.99986
131.04168
113.53318
99.173599
88.11896
78.877895
70.981082
64.138087
58.235284
53.111916
48.630084
44.685882
41.196395
38.0932
35.319748
32.829288
30.588672
28.562627
26.727398
25.062443
23.549543
22.17252
20.917735
19.773298
18.730649
17.781492
16.918458
16.134997
15.424992
14.78306
14.204425
13.683911
13.21723
12.800409
12.429371
12.100305
11.809746
11.553975
11.32982
11.134242
10.964279
10.817187
10.690433
10.581647
10.488674
10.409968
10.345746
10.294789
10.256383
10.231724
10.221859
10.218287
10.214354
10.209069
10.202083
10.192498
10.179594
10.163551
10.146354
10.13038
10.117497
10.106708
10.072775
10.091479
10.049613
10.087595
10.04782
10.113182
10.013273
10.053853
39211.206
21162.012
6343.31
1227.7898
709.70338
453.74522
358.45452
271.69512
226.41423
178.30506
152.24446
126.40304
110.37245
96.344943
85.842262
76.893094
69.25216
62.625701
56.915669
51.953412
47.608366
43.782262
40.395243
37.38124
34.685672
32.264364
30.082321
28.109975
26.323078
24.701474
23.227428
21.885239
20.661773
19.545553
18.528518
17.602475
16.760317
15.995692
15.302646
14.675984
14.111059
13.602765
13.147002
12.739888
12.377422
12.055903
11.771959
11.521935
11.302777
11.111516
10.945267
10.801373
10.677388
10.570923
10.479941
10.4027
10.33928
10.288985
10.2511
10.227071
10.217496
10.213965
10.210049
10.204697
10.19747
10.187552
10.174502
10.158859
10.142677
10.127955
10.117
10.108386
10.080064
10.097647
10.05579
10.094891
10.055062
10.116795
10.016466
10.055854
42616.805
19406.503
4654.8944
1132.9752
688.20415
434.02673
350.56715
261.65422
220.40899
171.88986
148.51816
122.45581
107.79277
93.903649
83.904329
75.171914
67.748935
61.304985
55.757516
50.931127
46.702502
42.977441
39.678432
36.741355
34.113394
31.751739
29.621504
27.696302
25.951963
24.36876
22.9293
21.618278
20.422981
19.332271
18.338519
17.433568
16.610562
15.863298
15.185955
14.573498
14.021384
13.524556
13.079088
12.681166
12.326853
12.012544
11.734951
11.490474
11.276168
11.089125
10.926541
10.78587
10.66457
10.560429
10.471457
10.395911
10.333318
10.283709
10.246376
10.222848
10.213616
10.210134
10.206176
10.200669
10.193129
10.182871
10.169747
10.154579
10.139361
10.125717
10.115362
10.108207
10.086802
10.101289
10.060844
10.102277
10.061537
10.121928
10.019814
10.057861
45096.686
17533.655
3625.6396
1076.6868
672.55176
420.30816
344.86782
253.64152
215.766
166.7919
145.55641
119.14912
105.68332
91.813669
82.257385
73.679781
66.442286
60.151167
54.739835
50.027677
45.897883
42.259091
39.035609
36.164893
33.595526
31.285954
29.202566
27.317643
25.610667
24.061492
22.652853
21.369746
20.199808
19.132178
18.159599
17.273903
16.468471
15.737208
15.074406
14.475168
13.935025
13.448959
13.013205
12.623991
12.277439
11.970031
11.698546
11.459433
11.249851
11.066956
10.908052
10.770463
10.651857
10.550056
10.463115
10.389368
10.327757
10.278851
10.242094
10.218982
10.210096
10.206664
10.202601
10.196859
10.188958
10.178383
10.165269
10.150633
10.136309
10.123553
10.113629
10.107189
10.092502
10.103953
10.065366
10.108369
10.067724
10.12727
10.023262
10.059787
46892.168
14776.771
2974.4951
1042.9262