/*--------------------------------*- C++ -*----------------------------------*\
  =========                 |
  \\      /  F ield         | OpenFOAM: The Open Source CFD Toolbox
   \\    /   O peration     | Website:  https://openfoam.org
    \\  /    A nd           | Version:  12
     \\/     M anipulation  |
\*---------------------------------------------------------------------------*/
FoamFile
{
    format      ascii;
    class       volScalarField;
    location    "0.041";
    object      p;
}
// * * * * * * * * * * * * * * * * * * * * * * * * * * * * * * * * * * * * * //

dimensions      [1 -1 -2 0 0 0 0];

internalField   nonuniform List<scalar> 
16000
(
89855.976
89978.635
89990.276
90120.946
90147.151
90270.692
90320.37
90433.726
90506.067
90614.02
90703.993
90812.026
90915.564
91027.913
91142.156
91261.701
91385.22
91513.297
91645.813
91782.857
91924.438
92070.564
92221.22
92376.368
92535.947
92699.869
92868.015
93040.239
93216.363
93396.178
93579.443
93765.883
93955.194
94147.04
94341.056
94536.853
94734.015
94932.111
95130.691
95329.297
95527.468
95724.741
95920.661
96114.784
96306.686
96495.964
96682.243
96865.177
97044.454
97219.796
97390.958
97557.724
97719.906
97877.34
98029.879
98177.384
98319.722
98456.753
98588.332
98714.317
98834.551
98948.827
99057.019
99158.923
99254.327
99342.982
99424.584
99498.813
99565.437
99624.415
99675.94
99720.645
99759.018
99791.344
99820.055
99838.692
99874.128
99882.629
99934.22
99922.765
89491.753
89630.744
89640.207
89782.363
89809.883
89943.967
89995.947
90120.108
90196.075
90313.803
90409.862
90526.532
90638.045
90758.93
90882.075
91010.741
91143.771
91281.638
91424.263
91571.703
91723.953
91880.997
92042.792
92209.265
92380.317
92555.818
92735.604
92919.479
93107.213
93298.54
93493.162
93690.742
93890.916
94093.286
94297.426
94502.888
94709.202
94915.884
95122.444
95328.384
95533.213
95736.448
95937.625
96136.299
96332.057
96524.515
96713.33
96898.194
97078.843
97255.053
97426.634
97593.437
97755.336
97912.233
98064.045
98210.699
98352.125
98488.25
98618.991
98744.256
98863.941
98977.913
99086.023
99188.076
99283.819
99372.928
99455.003
99529.633
99596.51
99655.542
99706.963
99751.427
99789.593
99821.849
99848.964
99870.624
99894.115
99912.964
99934.358
99964.043
89156.125
89310.15
89319.368
89474.453
89502.081
89649.448
89703.03
89839.13
89919.787
90047.683
90151.247
90277.177
90397.919
90528.322
90661.53
90800.475
90944.199
91093.054
91246.979
91405.99
91570.056
91739.123
91913.108
92091.9
92275.35
92463.278
92655.468
92851.664
93051.575
93254.869
93461.178
93670.1
93881.196
94093.999
94308.017
94522.737
94737.631
94952.163
95165.8
95378.01
95588.279
95796.113
96001.049
96202.655
96400.543
96594.368
96783.832
96968.686
97148.73
97323.809
97493.813
97658.666
97818.327
97972.777
98122.009
98266.026
98404.832
98538.423
98666.783
98789.878
98907.652
99020.017
99126.835
99227.905
99322.938
99411.547
99493.257
99567.579
99634.131
99692.763
99743.679
99787.47
99824.825
99856.214
99882.24
99904.203
99923.822
99943.253
99945.206
100006.32
88853.406
89017.698
89028.151
89197.94
89225.15
89388.234
89443.95
89593.893
89680.141
89819.689
89932.16
90068.655
90200.181
90341.51
90486.255
90636.916
90792.733
90953.938
91120.471
91292.311
91469.393
91651.627
91838.888
92031.015
92227.809
92429.03
92634.397
92843.583
93056.221
93271.901
93490.173
93710.55
93932.512
94155.512
94378.983
94602.342
94825.003
95046.379
95265.897
95483.001
95697.165
95907.9
96114.758
96317.342
96515.308
96708.369
96896.296
97078.918
97256.119
97427.834
97594.045
97754.774
97910.072
98060.013
98204.682
98344.166
98478.547
98607.892
98732.253
98851.652
98966.077
99075.469
99179.702
99278.57
99371.76
99458.848
99539.322
99612.653
99678.412
99736.393
99786.738
99829.898
99866.343
99896.561
99921.357
99941.753
99959.875
99975.562
99967.359
100050.54
88585.907
88764.572
88772.497
88960.342
88986.467
89167.527
89225.41
89391.008
89484.102
89636.671
89759.794
89908.065
90051.921
90205.466
90363.037
90526.651
90695.75
90870.474
91050.763
91236.562
91427.773
91624.262
91825.85
92032.315
92243.388
92458.75
92678.033
92900.821
93126.649
93355.008
93585.35
93817.088
94049.609
94282.277
94514.444
94745.459
94974.679
95201.475
95425.248
95645.433
95861.513
96073.024
96279.562
96480.787
96676.427
96866.279
97050.206
97228.136
97400.061
97566.023
97726.115
97880.466
98029.235
98172.597
98310.733
98443.819
98572.02
98695.474
98814.294
98928.554
99038.277
99143.425
99243.881
99339.434
99429.762
99514.428
99592.911
99664.672
99729.246
99786.367
99836.094
99878.693
99914.353
99943.456
99966.774
99985.046
100001.51
100012.29
99997.179
100097.41
88359.392
88555.378
88560.584
88769.169
88794.112
88995.038
89055.063
89238.032
89339.261
89505.82
89641.006
89801.731
89958.944
90125.603
90296.979
90474.618
90658.134
90847.589
91042.898
91243.955
91450.603
91662.635
91879.793
92101.764
92328.178
92558.611
92792.582
93029.557
93268.952
93510.138
93752.449
93995.188
94237.638
94479.072
94718.762
94955.998
95190.09
95420.388
95646.289
95867.247
96082.782
96292.488
96496.035
96693.173
96883.733
97067.624
97244.828
97415.398
97579.449
97737.151
97888.718
98034.397
98174.461
98309.188
98438.858
98563.736
98684.062
98800.045
98911.85
99019.594
99123.328
99223.028
99318.586
99409.791
99496.327
99577.772
99653.621
99723.344
99786.453
99842.621
99891.782
99933.975
99969.136
99997.452
100019.3
100035.42
100049.88
100054.54
100034.93
100146.95
88175.106
88391.262
88393.75
88626.17
88650.154
88874.34
88937.656
89139.657
89249.171
89429.13
89577.216
89750.9
89922.669
90103.802
90290.516
90483.876
90683.577
90889.58
91101.733
91319.845
91543.667
91772.888
92007.139
92245.982
92488.921
92735.391
92984.772
93236.387
93489.51
93743.376
93997.188
94250.13
94501.383
94750.133
94995.591
95237.001
95473.658
95704.919
95930.214
96149.053
96361.034
96565.849
96763.283
96953.212
97135.604
97310.51
97478.058
97638.447
97791.932
97938.822
98079.458
98214.21
98343.462
98467.593
98586.974
98701.952
98812.835
98919.891
99023.33
99123.299
99219.871
99313.036
99402.69
99488.64
99570.591
99648.155
99720.864
99788.203
99849.666
99904.863
99953.575
99995.575
100030.57
100058.48
100079.2
100093.64
100105.96
100103.78
100082.24
100205.71
88028.128
88268.053
88266.469
88527.471
88548.725
88799.127
88865.5
89086.051
89206.603
89401.98
89566.286
89755.479
89944.589
90142.908
90347.58
90559.255
90777.66
91002.651
91233.988
91471.371
91714.429
91962.719
92215.724
92472.853
92733.445
92996.772
93262.042
93528.413
93794.998
94060.882
94325.136
94586.83
94845.054
95098.929
95347.632
95590.401
95826.556
96055.508
96276.769
96489.956
96694.797
96891.129
97078.896
97258.142
97429.006
97591.708
97746.546
97893.875
98034.105
98167.68
98295.074
98416.77
98533.253
98644.995
98752.444
98856.012
98956.065
99052.913
99146.798
99237.891
99326.278
99411.961
99494.855
99574.79
99651.51
99724.676
99793.864
99858.578
99918.293
99972.553
100020.97
100063.06
100098.28
100126.25
100146.34
100159.87
100170.4
100161.46
100140.53
100277.41
87916.072
88183.623
88177.66
88473.771
88489.63
88768.115
88839.159
89081
89217.528
89430.818
89614.946
89822.518
90031.978
90250.524
90476.099
90709.006
90948.943
91195.639
91448.726
91707.755
91972.197
92241.433
92514.761
92791.396
93070.477
93351.075
93632.201
93912.828
94191.898
94468.346
94741.121
95009.2
95271.613
95527.46
95775.929
96016.312
96248.012
96470.562
96683.618
96886.968
97080.528
97264.333
97438.532
97603.374
97759.195
97906.408
98045.489
98176.957
98301.37
98419.306
98531.352
98638.093
98740.098
98837.911
98932.037
99022.935
99111.01
99196.595
99279.955
99361.27
99440.64
99518.08
99593.531
99666.86
99737.862
99806.251
99871.645
99933.561
99991.461
100044.83
100093.1
100135.58
100171.49
100200.06
100220.28
100233.69
100242.48
100228.41
100211.38
100358.89
87839.961
88139.691
88130.334
88463.801
88477.704
88787.37
88869.169
89135.493
89291.355
89524.54
89732.107
89961.246
90194.306
90436.446
90686.181
90943.514
91208.034
91479.309
91756.791
92039.841
92327.712
92619.564
92914.455
93211.36
93509.176
93806.743
94102.855
94396.289
94685.824
94970.264
95248.466
95519.362
95781.981
96035.466
96279.096
96512.294
96734.634
96945.848
97145.816
97334.567
97512.263
97679.189
97835.734
97982.379
98119.674
98248.229
98368.692
98481.738
98588.056
98688.337
98783.26
98873.484
98959.639
99042.313
99122.046
99199.322
99274.559
99348.102
99420.218
99491.094
99560.837
99629.482
99697.003
99763.314
99828.263
99891.614
99953.016
100011.99
100068
100120.47
100168.7
100211.82
100248.9
100278.74
100300.07
100314.36
100321.64
100304.17
100294.36
100448.13
87806.336
88144.249
88131.144
88503.755
88521.185
88866.348
88962.909
89255.682
89436.511
89692.543
89927.76
90182.362
90442.707
90712.176
90989.636
91274.813
91567.127
91865.924
92170.417
92479.701
92792.75
93108.426
93425.496
93742.639
94058.479
94371.602
94680.582
94984.018
95280.555
95568.918
95847.942
96116.592
96373.991
96619.431
96852.389
97072.527
97279.69
97473.902
97655.348
97824.363
97981.406
98127.041
98261.92
98386.757
98502.314
98609.377
98708.75
98801.233
98887.617
98968.671
99045.136
99117.714
99187.06
99253.782
99318.426
99381.476
99443.344
99504.368
99564.807
99624.846
99684.599
99744.124
99803.432
99862.485
99921.182
99979.325
100036.58
100092.48
100146.47
100197.94
100246.12
100290.03
100328.65
100360.46
100384.17
100400.81
100407.18
100387.55
100388.77
100543.91
87824.727
88208.124
88190.996
88610.229
88632.727
89016.627
89132.107
89453.235
89664.507
89946.538
90213.613
90498
90789.685
91090.587
91399.686
91716.397
92039.872
92369.143
92703.085
93040.431
93379.788
93719.655
94058.442
94394.507
94726.18
95051.802
95369.762
95678.531
95976.701
96263.019
96536.415
96796.023
97041.201
97271.533
97486.827
97687.108
97872.602
98043.709
98200.984
98345.105
98476.852
98597.074
98706.672
98806.573
98897.714
98981.025
99057.42
99127.785
99192.969
99253.781
99310.982
99365.28
99417.327
99467.718
99516.979
99565.572
99613.885
99662.231
99710.854
99759.93
99809.581
99859.887
99910.894
99962.606
100014.96
100067.79
100120.77
100173.42
100225.19
100275.45
100323.38
100368.07
100408.41
100442.76
100469.96
100490.04
100496.04
100476.46
100492.22
100643.97
87896.936
88334.555
88314.134
88786.769
88817.127
89243.328
89384.923
89736.814
89985.431
90298.062
90601.975
90921.423
91249.325
91586.427
91931.585
92283.807
92641.842
93004.278
93369.531
93735.878
94101.478
94464.407
94822.696
95174.371
95517.499
95850.235
96170.87
96477.876
96769.944
97046.016
97305.306
97547.309
97771.799
97978.816
98168.645
98341.786
98498.92
98640.881
98768.611
98883.138
98985.536
99076.907
99158.354
99230.963
99295.792
99353.86
99406.135
99453.535
99496.921
99537.095
99574.799
99610.713
99645.454
99679.576
99713.565
99747.839
99782.747
99818.569
99855.523
99893.775
99933.449
99974.644
100017.43
100061.86
100107.88
100155.32
100203.88
100253.07
100302.35
100351.05
100398.39
100443.59
100485.6
100522.62
100553.11
100576.94
100583.3
100567.43
100599.69
100742.13
88027.098
88529.104
88505.86
89039.026
89083.615
89556.053
89732.908
90118.886
90412.469
90761.857
91108.51
91469.301
91839.165
92217.815
92603.712
92995.296
93390.751
93788.088
94185.158
94579.698
94969.366
95351.797
95724.654
96085.693
96432.823
96764.167
97078.119
97373.381
97648.999
97904.368
98139.234
98353.673
98548.065
98723.049
98879.486
99018.412
99140.989
99248.468
99342.149
99423.348
99493.374
99553.503
99604.966
99648.934
99686.514
99718.744
99746.588
99770.941
99792.626
99812.398
99830.943
99848.884
99866.774
99885.107
99904.309
99924.742
99946.705
99970.438
99996.128
100023.93
100053.96
100086.33
100121.14
100158.43
100198.17
100240.19
100284.18
100329.68
100376.11
100422.81
100469.07
100514.32
100557.59
100596.73
100629.78
100657.16
100664.71
100655.44
100702.7
100829.93
88222.007
88801.055
88776.718
89378.831
89444.622
89967.318
90190.337
90615.407
90962.697
91357.064
91753.723
92163.151
92581.31
93006.881
93437.684
93871.434
94305.609
94737.53
95164.395
95583.345
95991.53
96386.19
96764.743
97124.869
97464.58
97782.285
98076.826
98347.491
98594.014
98816.544
99015.603
99192.036
99346.949
99481.649
99597.587
99696.303
99779.381
99848.407
99904.94
99950.486
99986.48
100014.28
100035.14
100050.24
100060.65
100067.37
100071.31
100073.27
100074.01
100074.21
100074.45
100075.28
100077.18
100080.57
100085.79
100093.15
100102.89
100115.2
100130.25
100148.16
100169.06
100193.04
100220.2
100250.59
100284.16
100320.75
100360.04
100401.58
100444.8
100489.01
100533.61
100578.23
100622
100662.57
100697.49
100727.72
100737.42
100734.98
100792.17
100899.79
88488.102
89159.219
89136.604
89816.94
89914.71
90493.279
90776.731
91249.176
91660.455
92109.846
92564.621
93030.048
93502.29
93978.972
94457.072
94933.42
95404.637
95867.23
96317.682
96752.56
97168.639
97563.015
97933.213
98277.273
98593.794
98881.958
99141.515
99372.744
99576.389
99753.584
99905.774
100034.64
100142
100229.77
100299.9
100354.3
100394.84
100423.3
100441.36
100450.58
100452.41
100448.16
100439.04
100426.14
100410.44
100392.84
100374.13
100355.01
100336.13
100318.05
100301.27
100286.23
100273.33
100262.88
100255.18
100250.45
100248.89
100250.64
100255.82
100264.56
100276.94
100293.07
100313.01
100336.79
100364.36
100395.52
100429.99
100467.34
100506.99
100548.26
100590.64
100633.83
100677.02
100718.26
100755.01
100786.1
100798.06
100801.32
100862.63
100950.3
88832.433
89613.491
89597.715
90370.833
90517.284
91161.582
91522.324
92052.786
92538.472
93053.026
93573.415
94100.897
94631.159
95160.589
95685.032
96200.178
96701.619
97185.019
97646.284
98081.739
98488.272
98863.453
99205.599
99513.793
99787.858
100028.29
100236.16
100413.04
100560.82
100681.69
100777.96
100852.04
100906.31
100943.1
100964.65
100973.06
100970.3
100958.16
100938.29
100912.17
100881.14
100846.41
100809.03
100769.96
100730.02
100689.98
100650.47
100612.08
100575.33
100540.64
100508.43
100479.02
100452.71
100429.75
100410.35
100394.67
100382.85
100375
100371.21
100371.57
100376.15
100385.02
100398.22
100415.75
100437.52
100463.35
100492.95
100525.93
100561.72
100599.68
100639.37
100680.4
100721.71
100761.54
100798.98
100830.43
100844.61
100851.62
100912.39
100980.57
89273.38
90189.567
90191.988
91077.902
91290.473
92010.634
92465.643
93065.009
93634.353
94223.317
94815.488
95408.783
95997.601
96576.628
97140.209
97682.767
98199.016
98684.231
99134.456
99546.664
99918.846
100250.02
100540.16
100790.14
101001.52
101176.47
101317.54
101427.58
101509.56
101566.48
101601.31
101616.87
101615.84
101600.71
101573.76
101537.06
101492.46
101441.64
101386.07
101327.04
101265.72
101203.09
101140.04
101077.33
101015.62
100955.49
100897.45
100841.93
100789.31
100739.91
100694.03
100651.89
100613.71
100579.65
100549.86
100524.44
100503.48
100487.05
100475.22
100468.04
100465.56
100467.82
100474.81
100486.49
100502.75
100523.41
100548.19
100576.73
100608.5
100642.92
100679.57
100717.88
100756.52
100793.88
100829.4
100860
100875.68
100886.27
100941.19
100988.11
89843.25
90931.874
90963.115
91980.139
92276.835
93080.231
93647.623
94328.95
94991.121
95662.631
96329.953
96987.593
97627.86
98243.487
98827.507
99373.743
99877.104
100333.8
100741.46
101099.1
101407.03
101666.66
101880.34
102051.08
102182.34
102277.86
102341.46
102376.94
102387.94
102377.92
102350.07
102307.32
102252.3
102187.37
102114.63
102035.93
101952.87
101866.86
101779.11
101690.67
101602.45
101515.21
101429.62
101346.24
101265.56
101187.99
101113.87
101043.51
100977.15
100915.01
100857.28
100804.1
100755.61
100711.89
100673.02
100639.07
100610.09
100586.11
100567.16
100553.29
100544.49
100540.77
100542.1
100548.39
100559.51
100575.27
100595.42
100619.6
100647.31
100678.07
100711.4
100746.53
100781.88
100815.91
100848.13
100876.01
100892.46
100905.79
100950.75
100975.4
90572.326
91868.831
91942.787
93107.9
93522.201
94420.531
95121.247
95900.63
96662.855
97419.062
98155.273
98862.559
99531.379
100153.55
100722.43
101233.25
101683.25
102071.57
102399.11
102668.21
102882.32
103045.68
103163
103239.24
103279.32
103288.03
103269.9
103229.08
103169.41
103094.28
103006.73
102909.44
102804.72
102694.61
102580.83
102464.88
102348.02
102231.34
102115.74
102001.99
101890.73
101782.5
101677.74
101576.84
101480.09
101387.75
101300.04
101217.12
101139.13
101066.2
100998.4
100935.82
100878.51
100826.51
100779.84
100738.53
100702.58
100672.02
100646.86
100627.08
100612.67
100603.61
100599.82
100601.2
100607.6
100618.84
100634.65
100654.68
100678.48
100705.56
100735.38
100766.92
100798.48
100828.65
100856.82
100880.85
100896.93
100911.23
100944.32
100947.02
91487.758
93044.001
93195.815
94527.05
95102.982
96111.887
96962.503
97850.121
98707.064
99531.615
100308.36
101026.68
101677.67
102255.34
102756.52
103180.75
103529.93
103807.83
104019.59
104171.21
104269.16
104319.98
104330.07
104305.46
104251.74
104173.93
104076.56
103963.56
103838.41
103704.07
103563.11
103417.69
103269.66
103120.57
102971.72
102824.18
102678.85
102536.47
102397.64
102262.85
102132.51
102006.92
101886.34
101770.97
101660.96
101556.44
101457.49
101364.17
101276.53
101194.61
101118.41
101047.95
100983.22
100924.21
100870.91
100823.31
100781.39
100745.15
100714.56
100689.61
100670.26
100656.44
100648.08
100645.04
100647.17
100654.29
100666.13
100682.32
100702.42
100725.9
100752.07
100779.71
100807.15
100833.16
100857.17
100877.09
100890.39
100903.5
100925.99
100909.59
92670.463
94555.075
94828.279
96346.077
97129.971
98258.079
99254.177
100235.51
101151.73
101994.53
102750.58
103412.45
103976.61
104443.46
104816.59
105102.03
105307.44
105441.38
105512.75
105530.27
105502.22
105436.22
105339.11
105216.95
105075.01
104917.84
104749.31
104572.7
104390.76
104205.78
104019.67
103834
103650.05
103468.88
103291.34
103118.09
102949.69
102786.55
102629
102477.29
102331.6
102192.06
102058.76
101931.75
101811.06
101696.7
101588.64
101486.88
101391.37
101302.07
101218.96
101141.97
101071.07
101006.19
100947.31
100894.38
100847.36
100806.23
100770.95
100741.49
100717.78
100699.75
100687.3
100680.31
100678.62
100682.03
100690.27
100702.94
100719.58
100739.55
100761.97
100785.54
100808.7
100830.49
100850.38
100866.45
100876.7
100886.2
100899.39
100869.75
94249.611
96540.077
96987.927
98691.059
99717.668
100951.17
102042.53
103053.52
103947.46
104718.33
105362.03
105880.67
106280.67
106571.65
106765.09
106873.31
106908.61
106882.68
106806.24
106688.89
106538.99
106363.75
106169.27
105960.7
105742.29
105517.59
105289.47
105060.29
104831.97
104606.04
104383.72
104165.98
103953.59
103747.13
103547.04
103353.66
103167.21
102987.85
102815.69
102650.75
102493.07
102342.6
102199.32
102063.15
101934.02
101811.84
101696.54
101588.01
101486.16
101390.91
101302.16
101219.83
101143.82
101074.07
101010.51
100953.07
100901.72
100856.4
100817.06
100783.66
100756.13
100734.37
100718.31
100707.8
100702.68
100702.75
100707.71
100717.15
100730.5
100747.02
100765.68
100785.12
100804.01
100821.71
100837.76
100850.51
100858.43
100864.49
100868.66
100833.82
96411.885
99158.011
99841.683
101683.15
102916.72
104196.67
105270.27
106187.18
106934.78
107518.75
107949.86
108243.5
108417.11
108488.62
108475.21
108392.64
108254.83
108073.81
107859.72
107621.05
107364.76
107096.52
106820.94
106541.69
106261.71
105983.34
105708.38
105438.28
105174.13
104916.75
104666.77
104424.64
104190.67
103965.06
103747.92
103539.31
103339.22
103147.58
102964.33
102789.35
102622.51
102463.68
102312.72
102169.47
102033.78
101905.51
101784.51
101670.63
101563.74
101463.7
101370.4
101283.7
101203.51
101129.72
101062.25
101001.03
100945.99
100897.07
100854.23
100817.4
100786.51
100761.48
100742.21
100728.57
100720.39
100717.45
100719.41
100725.8
100736.01
100749.15
100764.09
100779.48
100794.39
100808.45
100821.31
100831.57
100838.12
100842.23
100841.95
100810.08
99405.375
102522.13
103508.4
105414.25
106689.82
107828.01
108721.31
109394.11
109863.66
110155.99
110298.34
110317.5
110237.93
110081.03
109864.92
109604.6
109312.28
108997.71
108668.67
108331.25
107990.21
107649.23
107311.15
106978.14
106651.81
106333.38
106023.72
105723.46
105433.02
105152.65
104882.49
104622.58
104372.89
104133.32
103903.76
103684.02
103473.91
103273.25
103081.8
102899.36
102725.69
102560.58
102403.82
102255.18
102114.47
101981.49
101856.04
101737.96
101627.07
101523.21
101426.23
101335.98
101252.35
101175.22
101104.48
101040.06
100981.88
100929.89
100884.02
100844.21
100810.39
100782.48
100760.39
100743.98
100733.08
100727.42
100726.62
100730.16
100737.35
100747.24
100758.56
100770.36
100781.86
100793.02
100803.73
100812.81
100819.61
100825.32
100828.01
100802.63
103488.43
106815.8
108001.63
109652.95
110751.27
111561.89
112083.41
112369.34
112463.2
112407.02
112236.35
111980.68
111663.63
111303.77
110915.44
110509.64
110094.68
109676.81
109260.68
108849.74
108446.49
108052.73
107669.73
107298.35
106939.13
106592.41
106258.31
105936.84
105627.93
105331.4
105047.04
104774.59
104513.78
104264.3
104025.85
103798.12
103580.79
103373.54
103176.09
102988.12
102809.35
102639.5
102478.31
102325.53
102180.91
102044.22
101915.25
101793.79
101679.65
101572.66
101472.64
101379.43
101292.91
101212.93
101139.41
101072.23
101011.34
100956.66
100908.14
100865.71
100829.31
100798.88
100774.32
100755.49
100742.18
100734.11
100730.82
100731.74
100736.11
100742.97
100751.2
100759.89
100768.73
100778.13
100788.1
100798.14
100808.16
100819.51
100828.28
100812.15
108593.33
111885.23
112977.89
114079.95
114677.94
114956.23
114977.68
114814
114517.95
114130.93
113683.69
113198.86
112692.9
112177.59
111661.37
111150.15
110648.06
110157.93
109681.63
109220.35
108774.81
108345.34
107932.04
107534.82
107153.45
106787.62
106436.98
106101.1
105779.56
105471.91
105177.7
104896.47
104627.79
104371.22
104126.34
103892.74
103670.03
103457.83
103255.76
103063.5
102880.71
102707.07
102542.3
102386.1
102238.22
102098.41
101966.42
101842.06
101725.1
101615.35
101512.65
101416.81
101327.7
101245.19
101169.15
101099.5
101036.17
100979.07
100928.17
100883.39
100844.71
100812.04
100785.3
100764.35
100748.96
100738.78
100733.33
100731.95
100733.84
100738.08
100743.72
100750.1
100757.3
100766.09
100777.14
100790.44
100806.31
100825.27
100842.83
100839.97
114668.95
117128.1
117725.03
118001.04
117910.24
117590.53
117119.42
116556.04
115940.02
115298.2
114648.39
114002.3
113367.51
112748.83
112149.19
111570.27
111012.89
110477.32
109963.43
109470.86
108999.1
108547.52
108115.45
107702.19
107307.03
106929.26
106568.2
106223.19
105893.57
105578.73
105278.07
104991.03
104717.07
104455.67
104206.35
103968.63
103742.09
103526.29
103320.84
103125.37
102939.53
102762.97
102595.4
102436.51
102286.03
102143.69
102009.26
101882.51
101763.21
101651.18
101546.23
101448.18
101356.9
101272.23
101194.07
101122.32
101056.91
100997.76
100944.83
100898.07
100857.43
100822.86
100794.28
100771.52
100754.35
100742.4
100735.14
100731.91
100731.88
100734.11
100737.79
100742.52
100748.88
100758.23
100771.73
100789.92
100812.99
100840.59
100868.06
100879.1
121148.7
121581.69
121369.99
120835.2
120122.48
119319.68
118481.59
117639.19
116810.58
116005.7
115229.86
114485.49
113773.4
113093.38
112444.64
111826.1
111236.5
110674.53
110138.85
109628.16
109141.23
108676.86
108233.93
107811.38
107408.22
107023.51
106656.4
106306.05
105971.7
105652.63
105348.17
105057.69
104780.57
104516.28
104264.27
104024.05
103795.15
103577.13
103369.57
103172.08
102984.3
102805.88
102636.49
102475.84
102323.63
102179.61
102043.51
101915.11
101794.19
101680.55
101573.99
101474.34
101381.44
101295.17
101215.39
101142.01
101074.95
101014.15
100959.55
100911.13
100868.85
100832.65
100802.47
100778.14
100759.42
100745.93
100737.15
100732.44
100730.97
100731.79
100734.06
100737.56
100743.39
100753.78
100770.23
100793.25
100822.79
100858.29
100894.92
100917.49
124936.35
124326.25
123433.27
122406.87
121349.12
120303.02
119290.69
118321.22
117397.95
116521.11
115689.42
114900.89
114153.18
113443.92
112770.77
112131.49
111523.98
110946.32
110396.7
109873.47
109375.11
108900.22
108447.52
108015.81
107604.02
107211.12
106836.18
106478.34
106136.78
105810.76
105499.58
105202.58
104919.14
104648.69
104390.7
104144.65
103910.07
103686.5
103473.53
103270.77
103077.83
102894.38
102720.08
102554.64
102397.75
102249.15
102108.6
101975.85
101850.69
101732.92
101622.33
101518.77
101422.06
101332.08
101248.7
101171.83
101101.39
101037.33
100979.61
100928.2
100883.08
100844.23
100811.59
100785.01
100764.25
100748.91
100738.5
100732.36
100729.67
100729.39
100730.66
100733.28
100738.5
100749.49
100769.54
100796.11
100827.93
100870.05
100912.27
100941.81
104001.29
103970.84
104008.71
104048.08
104077.92
104084.03
104063.57
104030.93
103992.2
103944.24
103883.21
103810.16
103728.23
103642.02
103552.66
103460.25
103364.96
103267.21
103167.36
103065.73
102962.63
102858.36
102753.2
102647.4
102541.21
102434.85
102328.56
102222.52
102116.93
102011.97
101907.83
101804.66
101702.63
101601.89
101502.59
101404.86
101308.87
101214.73
101122.58
101032.57
100944.8
100859.41
100776.52
100696.25
100618.7
100543.98
100472.2
100403.45
100337.81
100275.36
100216.15
100160.26
100107.7
100058.51
100012.68
99970.204
99931.049
99895.176
99862.534
99833.069
99806.746
99783.517
99763.439
99746.325
99732.642
99721.197
99714.446
99707.031
99709.09
99702.275
99718.566
99709.794
99746.82
99725.969
99790.672
99744.845
99847.652
99779.74
99895.034
99750.447
103207.57
103201.71
103220.17
103242.36
103244.48
103241.08
103234.72
103222
103198.82
103169.77
103133.56
103092.11
103044.58
102992.21
102934.83
102873.26
102807.61
102738.28
102665.57
102589.78
102511.23
102430.21
102347.02
102261.95
102175.28
102087.28
101998.23
101908.39
101818.01
101727.32
101636.58
101546
101455.81
101366.22
101277.44
101189.67
101103.1
101017.92
100934.3
100852.43
100772.48
100694.6
100618.96
100545.7
100474.95
100406.85
100341.53
100279.09
100219.63
100163.23
100109.98
100059.91
100013.08
99969.505
99929.179
99892.091
99858.211
99827.5
99799.913
99775.401
99753.93
99735.456
99720.01
99707.411
99698.008
99690.728
99687.655
99684.038
99688.946
99685.914
99703.959
99698.17
99735.674
99718.086
99782.4
99738.84
99843.593
99774.408
99893.055
99745.392
102733.12
102723.05
102707.13
102691.17
102674.24
102658.33
102635.58
102612.92
102586.36
102558.7
102526.5
102492.5
102454.33
102413.73
102369.49
102322.45
102272.25
102219.18
102163.27
102104.67
102043.53
101980
101914.24
101846.45
101776.79
101705.48
101632.71
101558.69
101483.63
101407.74
101331.25
101254.37
101177.33
101100.35
101023.64
100947.42
100871.92
100797.33
100723.87
100651.74
100581.14
100512.26
100445.29
100380.39
100317.73
100257.47
100199.74
100144.68
100092.41
100043.01
99996.577
99953.161
99912.807
99875.537
99841.354
99810.245
99782.183
99757.131
99735.053
99715.906
99699.66
99686.269
99675.741
99667.892
99662.975
99660.001
99660.772
99661.005
99668.952
99669.613
99689.638
99686.661
99724.951
99710.38
99774.397
99733.256
99839.055
99769.259
99891.632
99741.194
102229.86
102211.29
102186
102159.08
102132.46
102108.39
102080.37
102054.59
102024.69
101996.47
101964.53
101933.35
101899.03
101864.4
101827.27
101788.95
101748.6
101706.52
101662.56
101616.74
101569.06
101519.54
101468.2
101415.12
101360.35
101304
101246.18
101187.01
101126.63
101065.2
101002.89
100939.87
100876.34
100812.49
100748.53
100684.65
100621.09
100558.04
100495.72
100434.35
100374.14
100315.29
100258
100202.47
100148.87
100097.39
100048.18
100001.38
99957.116
99915.506
99876.632
99840.563
99807.343
99776.999
99749.536
99724.942
99703.195
99684.265
99668.12
99654.728
99644.056
99636.06
99630.718
99627.844
99627.603
99629.079
99633.842
99638.002
99649.149
99653.448
99675.643
99675.457
99714.687
99702.783
99766.709
99728.18
99834.218
99764.127
99890.703
99737.771
101589.34
101572.21
101553.66
101532.65
101510.73
101492.7
101469.47
101450.42
101426.38
101405.75
101380.72
101357.99
101331.85
101306.58
101278.93
101250.95
101221.35
101190.61
101158.4
101124.78
101089.69
101053.09
101014.97
100975.35
100934.25
100891.69
100847.75
100802.48
100755.99
100708.38
100659.77
100610.29
100560.1
100509.36
100458.25
100406.95
100355.65
100304.56
100253.89
100203.85
100154.64
100106.47
100059.56
100014.1
99970.283
99928.291
99888.293
99850.443
99814.875
99781.704
99751.024
99722.906
99697.397
99674.525
99654.298
99636.706
99621.73
99609.346
99599.527
99592.244
99587.466
99585.141
99585.224
99587.52
99592.113
99598.161
99607.024
99615.179
99629.624
99637.527
99662.009
99664.652
99704.902
99695.496
99759.445
99723.618
99829.391
99759.01
99890.024
99735.193
100901.74
100893.32
100885.5
100876.66
100864.77
100857.61
100843.78
100835.58
100820.88
100810.96
100795.38
100783.29
100766.95
100752.32
100734.95
100717.71
100698.88
100679.2
100658.2
100636.02
100612.59
100587.87
100561.87
100534.56
100505.95
100476.05
100444.88
100412.5
100378.95
100344.29
100308.63
100272.05
100234.67
100196.63
100158.08
100119.17
100080.07
100040.98
100002.07
99963.549
99925.619
99888.48
99852.334
99817.379
99783.808
99751.803
99721.533
99693.155
99666.803
99642.595
99620.623
99600.959
99583.649
99568.72
99556.18
99546.021
99538.225
99532.768
99529.628
99528.777
99530.179
99533.773
99539.489
99547.122
99556.685
99567.406
99580.455
99592.66
99610.47
99621.946
99648.806
99654.263
99695.595
99688.894
99752.83
99719.552
99824.486
99754.112
99889.783
99733.461
100253.4
100252.32
100251.31
100251.89
100247.85
100249.97
100243.97
100245.33
100238.67
100238.33
100231.11
100228.63
100220.96
100216.01
100207.87
100200.03
100190.59
100180.65
100169.59
100157.59
100144.57
100130.49
100115.34
100099.1
100081.74
100063.27
100043.69
100023.02
100001.3
99978.568
99954.885
99930.327
99904.987
99878.97
99852.399
99825.41
99798.151
99770.785
99743.48
99716.417
99689.78
99663.756
99638.537
99614.308
99591.252
99569.545
99549.35
99530.813
99514.067
99499.221
99486.363
99475.558
99466.85
99460.261
99455.794
99453.439
99453.177
99454.984
99458.833
99464.695
99472.524
99482.249
99493.773
99506.881
99521.521
99536.994
99554.289
99570.582
99591.78
99606.776
99636.186
99644.485
99686.707
99683.066
99746.829
99716.179
99819.452
99749.811
99890.105
99732.552
99663.394
99667.647
99670.335
99677.298
99678.338
99687.481
99686.905