/*--------------------------------*- C++ -*----------------------------------*\
  =========                 |
  \\      /  F ield         | OpenFOAM: The Open Source CFD Toolbox
   \\    /   O peration     | Website:  https://openfoam.org
    \\  /    A nd           | Version:  12
     \\/     M anipulation  |
\*---------------------------------------------------------------------------*/
FoamFile
{
    format      ascii;
    class       volScalarField;
    location    "0.149";
    object      k;
}
// * * * * * * * * * * * * * * * * * * * * * * * * * * * * * * * * * * * * * //

dimensions      [0 2 -2 0 0 0 0];

internalField   nonuniform List<scalar> 
16000
(
0.049005753
0.021653037
0.022456424
0.016515145
0.014016414
0.012692042
0.01190466
0.011434066
0.011114856
0.01090005
0.010741597
0.010623647
0.010531605
0.010458747
0.010400137
0.010352707
0.010313954
0.010282227
0.010256392
0.010235029
0.010217556
0.010203342
0.010191925
0.010182758
0.010175645
0.010170195
0.010166236
0.010163601
0.010162146
0.010161742
0.010162267
0.010163617
0.010165712
0.010168484
0.010171873
0.010175824
0.010180279
0.01018518
0.010190468
0.010196085
0.010201963
0.010208028
0.010214211
0.010220439
0.010226639
0.010232736
0.010238671
0.010244391
0.01024985
0.010255004
0.010259811
0.010264229
0.010268219
0.010271746
0.01027478
0.010277287
0.010279228
0.010280547
0.010281172
0.010281017
0.010279974
0.010277925
0.010274762
0.010270361
0.010264578
0.010257273
0.010248345
0.010237748
0.010225455
0.010211365
0.010195119
0.010175829
0.010153043
0.010130859
0.010113293
0.010098387
0.010083838
0.010085612
0.010066934
0.010088188
0.045774774
0.020483249
0.021017451
0.015970523
0.013671763
0.012488312
0.011741897
0.011316791
0.011013799
0.010816214
0.010668062
0.010558874
0.010473249
0.010405875
0.010351745
0.010308178
0.010272768
0.010243902
0.01022068
0.010201641
0.010186261
0.010173943
0.010164313
0.010156774
0.010151203
0.010147198
0.010144593
0.010143225
0.01014296
0.010143675
0.010145252
0.010147588
0.010150599
0.010154217
0.010158382
0.010163039
0.010168131
0.0101736
0.01017939
0.010185444
0.010191697
0.010198078
0.010204519
0.010210951
0.010217304
0.010223503
0.010229489
0.010235212
0.010240631
0.010245705
0.010250399
0.010254676
0.010258504
0.010261851
0.010264688
0.010266988
0.010268715
0.010269816
0.010270224
0.010269857
0.010268617
0.010266392
0.01026308
0.010258564
0.010252703
0.010245354
0.01023641
0.010225824
0.010213561
0.010199511
0.01018337
0.010164369
0.010142048
0.010120891
0.010104192
0.010089517
0.010077084
0.010073204
0.010063724
0.010084934
0.041324405
0.019652807
0.019688352
0.015408087
0.013319269
0.012261669
0.011573398
0.011190257
0.010910555
0.010731158
0.010594174
0.010494188
0.010415462
0.010353862
0.010304518
0.010265039
0.010233201
0.01020739
0.010186943
0.010170382
0.01015724
0.010146933
0.010139202
0.01013339
0.010129445
0.010126963
0.010125783
0.01012575
0.010126734
0.010128619
0.01013129
0.010134646
0.010138603
0.010143089
0.010148044
0.010153412
0.010159136
0.010165161
0.010171429
0.010177883
0.010184464
0.010191104
0.010197734
0.01020429
0.010210706
0.010216911
0.010222846
0.010228464
0.010233729
0.010238606
0.010243066
0.01024708
0.01025062
0.01025366
0.010256175
0.010258138
0.010259518
0.010260268
0.010260324
0.010259607
0.01025803
0.01025549
0.010251894
0.010247134
0.010241071
0.01023356
0.010224487
0.0102138
0.010201463
0.010187343
0.010171158
0.010152281
0.010130305
0.010110368
0.010094584
0.010080783
0.010069282
0.010063221
0.010059563
0.010079134
0.038932414
0.019093711
0.018538527
0.014904571
0.013000119
0.012056448
0.011419119
0.011074653
0.010815779
0.010652879
0.010526566
0.010435089
0.010362945
0.010306809
0.010262041
0.010226469
0.010198078
0.010175209
0.010157451
0.010143301
0.010132349
0.010124003
0.010118134
0.010114019
0.010111667
0.010110682
0.010110901
0.010112177
0.010114381
0.010117404
0.010121134
0.01012547
0.010130324
0.010135625
0.010141309
0.010147319
0.0101536
0.010160096
0.010166749
0.010173504
0.010180306
0.01018709
0.010193792
0.01020035
0.010206703
0.010212787
0.010218544
0.010223931
0.010228916
0.010233472
0.010237576
0.010241206
0.010244341
0.01024696
0.010249039
0.010250556
0.010251481
0.010251773
0.010251374
0.01025021
0.010248202
0.01024526
0.010241298
0.010236216
0.010229882
0.010222143
0.010212874
0.010202013
0.010189524
0.010175254
0.01015893
0.010140108
0.010118366
0.010099672
0.010084867
0.010072042
0.01006102
0.010054017
0.010053879
0.010069606
0.036268871
0.01878074
0.017550473
0.014437913
0.012703075
0.011862522
0.011274465
0.010965699
0.010727312
0.010579868
0.010464017
0.010380659
0.010314956
0.010264129
0.010223847
0.010192095
0.010167106
0.010147139
0.010132038
0.010120284
0.010111522
0.010105131
0.010101117
0.010098716
0.010097945
0.010098456
0.010100072
0.010102651
0.010106066
0.010110209
0.010114973
0.010120254
0.010125965
0.010132028
0.01013838
0.010144962
0.010151717
0.010158591
0.010165528
0.010172475
0.010179379
0.010186183
0.010192825
0.010199249
0.010205401
0.010211223
0.010216663
0.01022168
0.010226249
0.010230351
0.010233967
0.010237086
0.010239692
0.010241767
0.010243292
0.010244247
0.010244605
0.010244329
0.010243367
0.010241654
0.010239118
0.01023568
0.010231264
0.010225776
0.010219088
0.010211045
0.010201505
0.010190391
0.010177662
0.010163158
0.010146589
0.010127746
0.010106373
0.010088946
0.010075182
0.010063328
0.0100527
0.010045559
0.010047711
0.010058133
0.032881709
0.018710933
0.016814919
0.014010185
0.012429706
0.011682122
0.011140768
0.01086474
0.010646064
0.010512858
0.010407151
0.010331453
0.01027198
0.010226266
0.010190342
0.0101623
0.010140646
0.010123528
0.010111037
0.010101665
0.010095085
0.010090673
0.010088483
0.010087851
0.010088613
0.010090614
0.010093619
0.010097486
0.010102088
0.010107319
0.010113072
0.010119244
0.010125744
0.010132491
0.010139421
0.010146472
0.010153588
0.010160717
0.010167806
0.010174804
0.010181663
0.010188333
0.010194759
0.010200892
0.010206685
0.010212089
0.010217058
0.010221557
0.010225566
0.010229074
0.01023207
0.010234549
0.010236501
0.010237915
0.010238773
0.010239056
0.010238742
0.010237798
0.010236179
0.010233828
0.010230678
0.010226664
0.010221715
0.010215746
0.010208632
0.010200217
0.01019034
0.010178899
0.01016585
0.010151039
0.010134141
0.010115176
0.010094409
0.010078276
0.010065598
0.010054706
0.01004456
0.010037596
0.010041138
0.010047903
0.030585876
0.018810804
0.016294271
0.01361805
0.012177816
0.011514592
0.011017796
0.010771631
0.010571929
0.010451781
0.010355875
0.010287438
0.010234002
0.01019325
0.010161594
0.01013719
0.010118837
0.010104557
0.010094642
0.010087679
0.010083278
0.010080984
0.010080516
0.010081882
0.01008399
0.010087474
0.010091856
0.010096989
0.010102744
0.010109014
0.010115693
0.010122678
0.010129874
0.010137199
0.010144585
0.010151972
0.010159305
0.010166534
0.010173611
0.010180491
0.010187131
0.010193489
0.010199522
0.010205187
0.010210447
0.010215264
0.010219599
0.010223424
0.010226726
0.010229499
0.010231742
0.010233454
0.010234633
0.010235272
0.010235355
0.010234867
0.010233785
0.010232082
0.010229721
0.01022665
0.010222813
0.010218149
0.010212597
0.010206077
0.01019847
0.010189615
0.01017934
0.010167509
0.010154061
0.010138875
0.010121596
0.010102375
0.01008263
0.010067805
0.010056236
0.010046314
0.010036803
0.010030203
0.010034002
0.010038622
0.028920406
0.018994113
0.015872292
0.013259048
0.011945936
0.011359684
0.01090498
0.010686215
0.010504563
0.010396516
0.010310111
0.010248646
0.01020111
0.01016523
0.010137802
0.010117009
0.01010195
0.010090544
0.010083147
0.010078646
0.010076381
0.010076726
0.010077574
0.010080389
0.01008445
0.010089399
0.010095129
0.010101485
0.010108333
0.010115565
0.010123074
0.010130756
0.010138517
0.010146272
0.010153955
0.010161504
0.010168869
0.010176005
0.010182871
0.01018943
0.010195647
0.010201493
0.010206934
0.010211937
0.010216479
0.01022053
0.010224063
0.010227057
0.010229504
0.010231406
0.010232768
0.010233595
0.010233891
0.010233651
0.010232864
0.010231514
0.010229582
0.010227043
0.010223868
0.01022001
0.01021542
0.010210045
0.01020383
0.010196698
0.010188535
0.010179181
0.010168451
0.010156177
0.010142262
0.010126633
0.01010898
0.010089343
0.010071144
0.010057641
0.010047194
0.010038264
0.010029544
0.010023447
0.010026764
0.010029964
0.026726763
0.019180003
0.015380615
0.012929986
0.011732435
0.011216593
0.010801657
0.010607737
0.010444024
0.010347301
0.010270096
0.010215382
0.01017363
0.010142562
0.010119343
0.010102161
0.010090365
0.010081943
0.010076875
0.010074854
0.010074229
0.010076783
0.01008024
0.010084815
0.010090382
0.010096771
0.010103792
0.010111293
0.010119137
0.010127209
0.010135405
0.010143623
0.010151767
0.010159756
0.010167524
0.010175014
0.010182183
0.010188992
0.010195412
0.010201416
0.010206981
0.01021209
0.010216725
0.010220864
0.010224495
0.010227601
0.010230167
0.010232178
0.010233633
0.010234538
0.010234903
0.01023474
0.010234055
0.010232848
0.010231109
0.010228824
0.010225973
0.010222537
0.010218489
0.010213791
0.010208398
0.010202261
0.010195331
0.010187535
0.010178762
0.010168855
0.010157621
0.01014486
0.010130426
0.010114278
0.010096312
0.010076395
0.010060068
0.010047901
0.010038578
0.010030664
0.01002288
0.010017333
0.010019863
0.010021685
0.025080113
0.019351341
0.01471172
0.012628126
0.011537273
0.011085754
0.010708671
0.010537299
0.010390887
0.010304588
0.010236263
0.010188114
0.010152036
0.010125732
0.010106709
0.010093172
0.010084468
0.010079309
0.010075881
0.01007541
0.010079959
0.010083629
0.010088827
0.010095104
0.010102218
0.010109964
0.010118174
0.01012669
0.010135373
0.010144107
0.010152786
0.010161314
0.0101696
0.010177565
0.010185151
0.01019231
0.010199006
0.010205216
0.010210921
0.01021611
0.010220775
0.010224913
0.01022852
0.010231591
0.010234123
0.010236115
0.01023756
0.010238451
0.01023879
0.010238589
0.010237861
0.01023662
0.010234876
0.010232632
0.01022988
0.010226603
0.010222785
0.010218405
0.010213443
0.010207867
0.010201633
0.010194696
0.01018701
0.010178507
0.010169079
0.010158574
0.010146792
0.010133509
0.01011853
0.010101797
0.010083557
0.010064124
0.010049507
0.010038684
0.010030479
0.010023596
0.010016869
0.0100119
0.010013417
0.010014458
0.02358102
0.019492413
0.014173829
0.012351352
0.011360965
0.010967539
0.010626538
0.010475565
0.010345324
0.010268778
0.010209036
0.010167328
0.010136843
0.010115284
0.010100453
0.010090664
0.010084352
0.010083263
0.010084085
0.01008686
0.010090875
0.010096849
0.010103897
0.010111799
0.010120335
0.010129302
0.010138529
0.010147859
0.010157151
0.010166289
0.010175172
0.01018371
0.010191823
0.010199442
0.01020652
0.010213023
0.010218931
0.010224235
0.010228934
0.010233033
0.010236543
0.010239475
0.010241843
0.010243654
0.010244918
0.010245644
0.010245836
0.010245492
0.010244618
0.010243227
0.010241332
0.010238951
0.010236094
0.010232764
0.010228956
0.010224653
0.010219836
0.010214487
0.010208586
0.010202106
0.010195008
0.010187246
0.010178776
0.010169533
0.010159415
0.010148275
0.010135911
0.010122077
0.010106554
0.010089237
0.0100706
0.010052556
0.010039569
0.010030077
0.010022972
0.010017115
0.010011526
0.010007223
0.010007702
0.010008634
0.022219139
0.019620862
0.013708054
0.012099913
0.011203431
0.01086159
0.010555049
0.010422254
0.010307674
0.010240346
0.010188915
0.010153579
0.010128638
0.010111838
0.010101197
0.010095373
0.010093405
0.010094031
0.010097245
0.010102446
0.010109246
0.010117112
0.010125877
0.010135261
0.010145036
0.010154999
0.010164981
0.010174827
0.010184401
0.010193591
0.010202306
0.010210471
0.010218022
0.010224908
0.010231101
0.010236584
0.010241358
0.010245433
0.010248829
0.010251569
0.010253682
0.010255194
0.010256133
0.010256521
0.010256378
0.010255719
0.010254557
0.010252896
0.010250742
0.010248105
0.010245
0.010241442
0.010237442
0.010233003
0.01022812
0.010222776
0.01021695
0.010210622
0.010203775
0.010196384
0.010188411
0.010179811
0.01017054
0.010160535
0.010149702
0.010137899
0.010124929
0.010110524
0.010094466
0.010076692
0.010057549
0.01004178
0.01003034
0.010022144
0.010016116
0.010011255
0.010006827
0.010003332
0.010003006
0.01000335
0.020994865
0.019706056
0.013279412
0.011873786
0.011064233
0.010767917
0.01049434
0.01037796
0.010278285
0.01021982
0.010176483
0.010147508
0.010128107
0.010116103
0.0101097
0.010107579
0.010108806
0.010112781
0.01011878
0.010126371
0.010135161
0.010144856
0.010155138
0.01016575
0.010176464
0.010187079
0.01019743
0.010207374
0.010216786
0.01022557
0.010233652
0.010240979
0.010247514
0.010253232
0.010258128
0.01026221
0.010265504
0.010268039
0.010269856
0.010270997
0.010271504
0.01027142
0.010270784
0.010269626
0.010267977
0.010265856
0.01026328
0.010260256
0.010256789
0.010252885
0.010248557
0.010243815
0.010238669
0.010233121
0.010227166
0.010220787
0.01021396
0.010206663
0.010198877
0.010190579
0.010181734
0.010172297
0.010162219
0.010151443
0.010139881
0.010127398
0.010113805
0.010098832
0.010082234
0.010064212
0.01004571
0.010031842
0.010021885
0.010014928
0.01000995
0.010006043
0.010002721
0.01000016
0.0099994354
0.0099992505
0.019892323
0.019710581
0.012891053
0.011670939
0.01094261
0.010686559
0.010444527
0.010343021
0.010257633
0.010207856
0.010172477
0.0101499
0.010136072
0.010128919
0.010126804
0.010128515
0.010133157
0.010140042
0.010148638
0.010158481
0.01016918
0.010180398
0.010191854
0.01020329
0.010214488
0.010225257
0.010235447
0.010244933
0.010253619
0.010261435
0.010268337
0.010274304
0.010279332
0.010283431
0.010286623
0.010288945
0.010290443
0.01029117
0.010291182
0.010290536
0.010289287
0.010287487
0.010285183
0.010282413
0.010279208
0.010275593
0.010271585
0.010267192
0.010262416
0.010257258
0.010251723
0.010245818
0.010239549
0.010232916
0.010225912
0.010218522
0.010210719
0.010202477
0.010193774
0.010184588
0.010174886
0.010164622
0.010153745
0.0101422
0.010129906
0.010116734
0.010102508
0.010086994
0.010069922
0.010051575
0.010034965
0.010022828
0.010014246
0.010008455
0.010004501
0.0100015
0.0099991587
0.0099976153
0.0099970719
0.0099963335
0.018898741
0.019484081
0.012540503
0.011490352
0.010838362
0.01061775
0.010405922
0.010318111
0.010246446
0.010205359
0.010177862
0.010161758
0.010153558
0.010151302
0.010153481
0.010158954
0.010166872
0.01017659
0.010187557
0.010199321
0.010211503
0.010223776
0.010235865
0.010247525
0.010258562
0.01026881
0.01027815
0.010286497
0.010293793
0.010300011
0.010305148
0.010309223
0.010312269
0.010314332
0.010315465
0.010315727
0.010315185
0.010313908
0.010311964
0.01030942
0.010306335
0.010302769
0.010298768
0.010294373
0.010289618
0.010284525
0.01027911
0.010273379
0.01026733
0.01026096
0.010254264
0.010247242
0.010239895
0.01023222
0.01022421
0.010215847
0.010207107
0.010197957
0.010188372
0.010178326
0.010167792
0.010156724
0.010145067
0.010132765
0.010119748
0.010105895
0.010091027
0.010074978
0.010057659
0.010039502
0.010025314
0.010014777
0.010007456
0.010002738
0.0099997698
0.0099976355
0.0099961011
0.0099955192
0.0099957444
0.009994744
0.017999404
0.018616891
0.012225223
0.011331315
0.010751749
0.010561906
0.010379082
0.010304201
0.010245799
0.010213512
0.010193878
0.010184311
0.010181757
0.010184373
0.010190752
0.01019982
0.010210756
0.010222924
0.010235797
0.010248927
0.010261947
0.010274546
0.010286478
0.010297537
0.010307568
0.010316461
0.010324146
0.010330591
0.010335797
0.010339788
0.010342606
0.010344313
0.010344979
0.01034468
0.010343494
0.010341499
0.010338774
0.010335395
0.010331437
0.010326966
0.010322045
0.010316729
0.010311066
0.010305093
0.01029884
0.010292328
0.010285568
0.010278563
0.010271307
0.010263791
0.010256001
0.010247929
0.010239568
0.010230911
0.01022195
0.010212667
0.010203038
0.010193028
0.010182604
0.010171738
0.010160404
0.010148562
0.010136157
0.010123123
0.010109398
0.010094882
0.0100794
0.010062809
0.01004536
0.010028971
0.010016723
0.0100077
0.010001528
0.0099977792
0.0099957278
0.0099944178
0.0099935333
0.0099937032
0.0099947743
0.0099942075
0.017186523
0.017259248
0.011947437
0.01119359
0.010681862
0.010519969
0.010365073
0.010302716
0.010257152
0.010233793
0.010221981
0.010218937
0.010221937
0.010229245
0.010239539
0.010251792
0.010265208
0.010279166
0.010293156
0.010306759
0.010319643
0.010331548
0.010342283
0.010351712
0.010359753
0.010366369
0.010371561
0.010375364
0.010377838
0.010379061
0.010379119
0.010378109
0.01037613
0.010373278
0.010369645
0.010365318
0.010360381
0.010354908
0.010348971
0.010342632
0.010335948
0.010328968
0.010321732
0.010314274
0.010306618
0.010298779
0.010290766
0.010282576
0.010274199
0.01026562
0.010256819
0.010247778
0.010238481
0.010228916
0.01021907
0.010208927
0.010198463
0.010187646
0.010176435
0.010164798
0.010152705
0.010140127
0.010127012
0.010113286
0.010098878
0.010083714
0.010067681
0.01005071
0.010033366
0.010019676
0.010009201
0.010001578
0.0099964662
0.0099935785
0.0099923314
0.0099917756
0.0099914511
0.0099922024
0.0099941794
0.009995015
0.016456001
0.016402855
0.011713055
0.011077584
0.01062961
0.010493341
0.010365401
0.010315345
0.010282205
0.010267843
0.010263732
0.01026704
0.010275292
0.010286842
0.010300428
0.010315073
0.010330008
0.010344651
0.010358549
0.01037135
0.010382804
0.010392743
0.010401071
0.010407755
0.010412805
0.01041627
0.010418231
0.010418787
0.010418051
0.010416142
0.010413181
0.010409284
0.010404563
0.010399123
0.010393059
0.010386455
0.010379388
0.010371926
0.01036413
0.010356053
0.010347741
0.010339232
0.010330559
0.010321746
0.010312811
0.010303764
0.010294609
0.010285338
0.010275939
0.010266392
0.01025667
0.010246749
0.010236602
0.01022621
0.010215554
0.010204617
0.010193379
0.010181809
0.010169868
0.010157515
0.010144715
0.010131443
0.010117659
0.010103292
0.010088251
0.010072468
0.010055922
0.010038838
0.010023247
0.010011524
0.010002701
0.0099963667
0.0099922432
0.0099901246
0.0099895439
0.0099896338
0.0099898599
0.0099911412
0.00999393
0.0099966006
0.015799886
0.015403102
0.011513005
0.010983828
0.010595943
0.010483729
0.010381719
0.010344006
0.010322886
0.010317455
0.010320727
0.010329901
0.010342691
0.010357529
0.010373228
0.010388884
0.010403814
0.010417534
0.010429712
0.010440125
0.010448657
0.010455271
0.010459999
0.010462917
0.010464135
0.010463784
0.010462008
0.010458954
0.010454771
0.0104496
0.010443573
0.010436812
0.010429427
0.010421515
0.010413164
0.010404447
0.010395426
0.010386158
0.010376687
0.010367054
0.010357291
0.010347426
0.010337479
0.010327465
0.010317395
0.010307273
0.010297098
0.010286859
0.010276542
0.010266122
0.010255572
0.010244859
0.01023395
0.010222816
0.010211431
0.010199773
0.010187823
0.010175557
0.01016294
0.010149932
0.010136487
0.010122573
0.010108161
0.010093202
0.010077602
0.010061287
0.01004439
0.01002761
0.010014549
0.010004536
0.0099971623
0.0099920001
0.0099887984
0.009987377
0.0099873335
0.0099879342
0.0099887121
0.0099905607
0.0099940252
0.009997557
0.015212593
0.014728393
0.01134978
0.010913036
0.010581907
0.010493351
0.010416233
0.010391073
0.010381442
0.010384483
0.010394299
0.010408183
0.010424036
0.010440415
0.01045628
0.010470894
0.010483752
0.010494555
0.010503161
0.010509531
0.010513714
0.01051582
0.010516001
0.010514433
0.010511304
0.010506798
0.010501095
0.010494365
0.010486765
0.010478435
0.010469502
0.010460073
0.010450245
0.010440098
0.010429703
0.010419115
0.01040838
0.010397537
0.010386615
0.010375639
0.010364628
0.010353595
0.010342551
0.010331501
0.010320448
0.01030939
0.010298321
0.010287228
0.010276095
0.010264897
0.010253605
0.010242183
0.010230595
0.010218801
0.010206769
0.010194469
0.010181877
0.010168973
0.010155735
0.010142128
0.010128105
0.010113617
0.010098628
0.010083116
0.010067035
0.010050308
0.010033251
0.010018429
0.010007148
0.0099986573
0.0099925277
0.0099883986
0.0099860375
0.0099852489
0.0099856388
0.009986609
0.0099878938
0.009990306
0.0099940982
0.0099981053
0.014688542
0.013977982
0.011220029
0.010867868
0.010589317
0.010525576
0.010472016
0.010459278
0.010459973
0.010470078
0.010484546
0.010500886
0.010517279
0.010532543
0.01054592
0.010556958
0.010565433
0.010571293
0.010574625
0.01057558
0.010574363
0.010571203
0.010566339
0.010560004
0.010552421
0.010543793
0.010534301
0.010524109
0.010513356
0.010502165
0.01049064
0.010478865
0.010466914
0.010454845
0.010442706
0.010430532
0.010418354
0.01040619
0.010394055
0.010381959
0.010369906
0.010357899
0.010345936
0.010334016
0.010322132
0.010310276
0.010298437
0.010286602
0.010274753
0.010262864
0.010250908
0.010238851
0.010226654
0.010214275
0.010201673
0.01018881
0.010175655
0.010162185
0.010148381
0.010134223
0.010119679
0.010104697
0.01008921
0.010073187
0.010056676
0.010039866
0.010023373
0.010010764
0.010001023
0.0099938163
0.0099887362
0.0099854834
0.0099838532
0.0099836206
0.0099843696
0.009985599
0.0099872675
0.0099901981
0.0099943023
0.0099984908
0.014227516
0.013399562
0.01112849
0.010853079
0.010622035
0.010584482
0.010552185
0.010550459
0.010558915
0.010573123
0.01058891
0.010604215
0.010617691
0.010628594
0.010636573
0.010641547
0.010643606
0.010642952
0.010639863
0.010634638
0.010627578
0.010618971
0.010609085
0.01059816
0.010586409
0.010574016
0.010561138
0.010547905
0.010534429
0.010520798
0.010507088
0.010493356
0.010479648
0.010465999
0.010452434
0.010438971
0.01042562
0.010412387
0.010399272
0.01038627
0.010373375
0.010360579
0.01034787
0.010335237
0.010322668
0.010310148
0.010297662
0.010285194
0.010272723
0.010260228
0.01024768
0.01023505
0.010222302
0.010209395
0.010196287
0.010182935
0.0101693
0.010155346
0.010141049
0.010126393
0.010111366
0.010095942
0.010080067
0.010063655
0.0100467
0.010029731
0.010015467
0.010004421
0.0099960433
0.0099899195
0.0099857148
0.0099831838
0.0099821517
0.0099823757
0.0099834289
0.0099848888
0.0099868762
0.0099902024
0.0099945909
0.0099988283
0.013835013
0.012939775
0.011077627
0.010873801
0.010705936
0.010673109
0.010657783
0.010663378
0.010675055
0.010688704
0.010701247
0.010711294
0.010718152
0.010721617
0.010721778
0.010718897
0.01071332
0.010705423
0.010695586
0.010684163
0.010671473
0.010657795
0.010643369
0.010628399
0.010613052
0.010597471
0.010581767
0.010566031
0.010550337
0.010534738
0.010519279
0.010503989
0.01048889
0.010473994
0.010459309
0.010444834
0.010430565
0.010416495
0.010402611
0.0103889
0.010375344
0.010361927
0.010348629
0.010335432
0.010322315
0.010309259
0.010296245
0.01028325
0.010270255
0.010257236
0.010244168
0.010231024
0.010217773
0.010204381
0.010190809
0.010177019
0.010162968
0.010148616
0.010133923
0.010118856
0.010103396
0.010087537
0.010071289
0.010054684
0.010037834
0.010021384
0.010008982
0.0099992943
0.0099920487
0.0099868389
0.0099833668
0.0099814272
0.0099808638
0.0099814303
0.0099827234
0.0099844114
0.0099867117
0.009990317
0.0099948437
0.0099989337
0.013520325
0.012570357
0.011071542
0.010929859
0.010809186
0.01079069
0.010785043
0.010791758
0.010800439
0.010807949
0.010812454
0.010813382
0.010810706
0.0108047
0.010795783
0.010784423
0.010771079
0.010756172
0.010740073
0.010723099
0.010705517
0.010687543
0.010669354
0.010651091
0.010632863
0.010614759
0.010596843
0.010579165
0.01056176
0.010544652
0.010527856
0.010511379
0.010495222
0.010479379
0.010463843
0.0104486
0.010433634
0.010418928
0.010404459
0.010390208
0.010376149
0.010362258
0.01034851
0.01033488
0.010321342
0.010307871
0.010294442
0.01028103
0.01026761
0.010254159
0.01024065
0.010227059
0.010213358
0.010199519
0.010185513
0.010171308
0.010156871
0.010142167
0.010127155
0.010111792
0.010096029
0.010079824
0.010063161
0.010046136
0.010029282
0.010014918
0.010003768
0.0099952261
0.0099888977
0.0099844367
0.0099815714
0.00998012
0.0099799262
0.0099807416
0.0099822118
0.0099840995
0.0099866833
0.0099905109
0.0099951264
0.0099990935
0.013300488
0.012302907
0.011113067
0.011027899
0.010942904
0.010928596
0.010923736
0.010924184
0.010923491
0.010919902
0.010912776
0.010902251
0.010888764
0.010872844
0.010855021
0.010835777
0.010815524
0.010794608
0.010773308
0.010751843
0.010730388
0.010709074
0.010688004
0.010667249
0.010646864
0.010626884
0.010607334
0.010588226
0.010569567
0.010551354
0.010533579
0.010516232
0.010499298
0.01048276
0.010466596
0.010450785
0.010435302
0.010420123
0.01040522
0.010390567
0.010376133
0.010361891
0.01034781
0.01033386
0.010320012
0.010306235
0.0102925
0.010278778
0.01026504
0.010251259
0.010237406
0.010223454
0.010209379
0.010195153
0.010180753
0.010166156
0.010151338
0.010136276
0.010120946
0.010105316
0.010089348
0.010073003
0.010056265
0.010039251
0.010022671
0.010009841
0.0099997454
0.0099921016
0.0099864964
0.0099826176
0.0099802244
0.0099791546
0.0099792502
0.0099802498
0.0099818558
0.0099839134
0.009986716
0.0099906892
0.0099953591
0.009999186
0.013173894
0.012136262
0.011208793
0.011156686
0.01109156
0.01107328
0.011059414
0.0110469
0.011032158
0.011014706
0.010994685
0.010972571
0.0109489
0.010924171
0.010898804
0.01087314
0.010847444
0.010821919
0.010796714
0.010771938
0.010747668
0.010723955
0.010700832
0.010678314
0.010656408
0.010635111
0.010614415
0.010594305
0.010574763
0.01055577
0.010537302
0.010519336
0.010501845
0.010484804
0.010468184
0.010451958
0.010436095
0.010420566
0.01040534
0.010390387
0.010375675
0.010361172
0.010346846
0.010332664
0.010318593
0.010304601
0.010290655
0.010276722
0.010262769
0.010248764
0.010234676
0.010220476
0.010206133
0.010191621
0.010176915
0.010161993
0.010146835
0.010131424
0.010115746
0.010099784
0.01008352
0.01006694
0.010050082
0.010033237
0.010017816
0.010006015
0.0099967811
0.0099898344
0.0099847892
0.0099813512
0.0099792985
0.0099784777
0.009978744
0.0099798883
0.0099815812
0.0099837782
0.0099866906
0.0099905845
0.0099950702
0.0099989015
0.013109859
0.012065381
0.011368374
0.011299682
0.011238592
0.01120591
0.011176163
0.01114716
0.01111721
0.011086335
0.011054807
0.011022998
0.010991238
0.010959794
0.010928866
0.010898595
0.010869075
0.010840367
0.010812503
0.010785496
0.010759343
0.010734034
0.010709547
0.01068586
0.010662945
0.01064077
0.010619305
0.010598518
0.010578376
0.010558847
0.010539897
0.010521494
0.010503606
0.0104862
0.010469245
0.010452708
0.010436558
0.010420761
0.010405286
0.010390099
0.010375169
0.010360462
0.010345946
0.010331586
0.010317349
0.010303202
0.010289109
0.010275036
0.010260949
0.010246814
0.010232595
0.010218261
0.010203777
0.010189113
0.010174239
0.01015913
0.01014376
0.010128111
0.010112166
0.010095916
0.010079354
0.010062497
0.010045454
0.010028721
0.010014435
0.010003345
0.0099947524
0.0099883205
0.0099836967
0.0099806008
0.0099788208
0.0099782008
0.0099783607
0.0099797082
0.0099814208
0.0099837195
0.0099866945
0.0099904844
0.0099947635
0.0099986015
0.013120415
0.012025463
0.01152346
0.011432973
0.011360143
0.011308874
0.011261899
0.011217764
0.011175175
0.011133951
0.011094042
0.011055474
0.011018265
0.01098242
0.010947922
0.010914742
0.010882839
0.010852167
0.010822672
0.010794302
0.010767004
0.010740722
0.010715406
0.010691003
0.010667465
0.010644745
0.010622798
0.01060158
0.010581049
0.010561166
0.010541892
0.01052319
0.010505023
0.010487357
0.010470156
0.010453387
0.010437016
0.010421009
0.010405334
0.010389959
0.010374849
0.010359973
0.010345297
0.010330789
0.010316414
0.010302139
0.010287931
0.010273756
0.010259578
0.010245364
0.010231081
0.010216693
0.010202167
0.010187471
0.010172572
0.010157441
0.010142047
0.010126364
0.010110368
0.010094038
0.010077362
0.010060353
0.010043146
0.010026362
0.010012645
0.010001936
0.0099936804
0.0099875254
0.0099831339
0.0099802394
0.0099786461
0.0099781475
0.0099781646
0.0099797461
0.0099814774
0.0099838687
0.0099868621
0.0099905029
0.0099945387
0.0099983654
0.013214052
0.012051491
0.01164006
0.011529784
0.011441436
0.011374146
0.011314199
0.011259691
0.011208983
0.011161421
0.011116561
0.011074108
0.011033832
0.010995548
0.010959096
0.010924338
0.01089115
0.010859422
0.010829053
0.010799954
0.010772039
0.010745234
0.010719466
0.010694672
0.01067079
0.010647764
0.010625541
0.010604072
0.010583311
0.010563213
0.010543737
0.010524843
0.010506492
0.010488649
0.010471276
0.01045434
0.010437805
0.010421639
0.010405808
0.010390279
0.010375019
0.010359997
0.01034518
0.010330535
0.010316029
0.010301631
0.010287306
0.010273023
0.010258747
0.010244447
0.010230091
0.010215646
0.010201082
0.010186368
0.010171476
0.010156377
0.010141046
0.010125459
0.010109597
0.010093441
0.010076983
0.010060234
0.010043311
0.010026744
0.010012816
0.010002043
0.0099937349
0.0099875517
0.0099831463
0.0099802481
0.0099786529
0.0099781524
0.0099781516
0.0099797986
0.0099815633
0.0099840211
0.0099870202
0.0099905355
0.009994377
0.0099982057
0.013339611
0.012108078
0.011701315
0.011578605
0.011480024
0.011404361
0.011338299
0.01127927
0.011225216
0.011175149
0.011128391
0.011084483
0.011043078
0.011003907
0.010966749
0.010931419
0.010897763
0.010865644
0.010834943
0.010805556
0.010777389
0.010750356
0.010724382
0.010699396
0.010675334
0.010652136
0.010629747
0.010608117
0.010587197
0.010566941
0.010547309
0.010528258
0.010509751
0.01049175
0.010474218
0.010457122
0.010440427
0.010424098
0.010408104
0.010392411
0.010376986
0.010361799
0.010346815
0.010332004
0.010317332
0.010302766
0.010288275
0.010273826
0.010259384
0.010244919
0.010230397
0.010215788
0.01020106
0.010186185
0.010171133
0.010155877
0.010140392
0.010124655
0.010108645
0.010092348
0.010075755
0.010058889
0.010041889
0.010025384
0.010012049
0.010001576
0.0099935008
0.0099874616
0.0099831423
0.0099802854
0.0099786892
0.0099781736
0.0099783389
0.0099797785
0.0099816064
0.0099840737
0.0099870654
0.0099905095
0.0099942583
0.0099981137
67.043492
364.63373
122.79427
14.83209
0.4099649
0.021536289
0.020184642
0.019871547
0.019598465
0.018535848
0.017191304
0.016002243
0.015099737
0.014525136
0.014117522
0.013730833
0.013353443
0.013019266
0.012739531
0.012505879
0.01230731
0.012136017
0.011986833
0.011855991
0.011740477
0.011637803
0.011545962
0.011463352
0.011388722
0.011321082
0.011259613
0.011203601
0.011152422
0.011105553
0.011062579
0.011023166
0.010987029
0.010953915
0.01092359
0.010895846
0.010870496
0.01084736
0.010826256
0.010807014
0.01078947
0.010773462
0.010758828
0.010745416
0.010733094
0.010721745
0.010711255