/*--------------------------------*- C++ -*----------------------------------*\
  =========                 |
  \\      /  F ield         | OpenFOAM: The Open Source CFD Toolbox
   \\    /   O peration     | Website:  https://openfoam.org
    \\  /    A nd           | Version:  12
     \\/     M anipulation  |
\*---------------------------------------------------------------------------*/
FoamFile
{
    format      ascii;
    class       volScalarField;
    location    "0.149";
    object      nut;
}
// * * * * * * * * * * * * * * * * * * * * * * * * * * * * * * * * * * * * * //

dimensions      [0 2 -1 0 0 0 0];

internalField   nonuniform List<scalar> 
16000
(
4.6348605e-07
9.8833937e-06
1.983994e-05
2.3498784e-05
1.8241595e-05
2.5012499e-05
1.7696709e-05
2.420271e-05
1.8907189e-05
2.6000977e-05
2.1916362e-05
2.5709058e-05
2.3455451e-05
2.4067787e-05
2.3257416e-05
2.3121782e-05
2.2878932e-05
2.281119e-05
2.2820773e-05
2.2927278e-05
2.3123581e-05
2.3408821e-05
2.3780516e-05
2.4238657e-05
2.4785359e-05
2.5426372e-05
2.6169515e-05
2.7027304e-05
2.8014974e-05
2.9148901e-05
3.0447034e-05
3.1933262e-05
3.3638444e-05
3.5600617e-05
3.7866579e-05
4.0492145e-05
4.354378e-05
4.7100725e-05
5.1261077e-05
5.6146379e-05
6.1899166e-05
6.8687234e-05
7.6722165e-05
8.6263045e-05
9.7618012e-05
0.00011115646
0.00012733633
0.00014671538
0.00016997244
0.00019793436
0.00023161277
0.00027224798
0.00032135557
0.00038079189
0.00045283165
0.00054027369
0.00064657184
0.00077600656
0.00093392051
0.0010202728
0.0010201129
0.001019895
0.0010196293
0.0010192769
0.0010188365
0.0010182997
0.0010176628
0.0010169267
0.001016096
0.0010151725
0.001014141
0.0010129535
0.0010115989
0.0010103363
0.0010093122
0.0010083466
0.0010071957
0.0010067302
0.0010055495
0.0010062405
4.2115149e-07
9.3863562e-06
1.9785248e-05
2.1382509e-05
1.6492752e-05
2.2456763e-05
1.5740273e-05
2.1232205e-05
1.6739826e-05
2.3013595e-05
1.9880962e-05
2.3221259e-05
2.148448e-05
2.1842623e-05
2.1207652e-05
2.102108e-05
2.0817608e-05
2.0744891e-05
2.075522e-05
2.0851855e-05
2.1032605e-05
2.1296282e-05
2.1640987e-05
2.2066759e-05
2.2575248e-05
2.3171826e-05
2.3863252e-05
2.4660799e-05
2.5578884e-05
2.6633477e-05
2.7841276e-05
2.9224096e-05
3.0810488e-05
3.2635666e-05
3.4743415e-05
3.7186217e-05
4.0026988e-05
4.3340178e-05
4.7217145e-05
5.1772952e-05
5.7144587e-05
6.3489989e-05
7.1008375e-05
7.9946771e-05
9.0601145e-05
0.00010332257
0.00011854782
0.00013681077
0.00015876262
0.00018519718
0.00021708601
0.00025562378
0.00030227247
0.00035882633
0.0004274862
0.00051096303
0.00061260673
0.00073656466
0.00088799681
0.0010195699
0.0010194398
0.0010192084
0.0010189377
0.0010185828
0.0010181419
0.0010176065
0.0010169728
0.0010162421
0.0010154183
0.0010145021
0.001013481
0.0010123138
0.0010109833
0.0010097625
0.0010087752
0.0010078134
0.0010067715
0.0010060185
0.0010051713
0.0010058381
3.7015919e-07
8.9991662e-06
1.8745606e-05
1.9578345e-05
1.4791195e-05
1.9810912e-05
1.4035985e-05
1.8490223e-05
1.5072532e-05
2.0229626e-05
1.815077e-05
2.0709579e-05
1.9486236e-05
1.9587586e-05
1.9097464e-05
1.8889929e-05
1.8718048e-05
1.865058e-05
1.8663956e-05
1.875533e-05
1.8923826e-05
1.9168623e-05
1.9488131e-05
1.9882618e-05
2.0353374e-05
2.0905577e-05
2.1545255e-05
2.2282615e-05
2.3131091e-05
2.4106254e-05
2.5223959e-05
2.6504383e-05
2.7974165e-05
2.9666081e-05
3.1621233e-05
3.3889031e-05
3.6529237e-05
3.9612542e-05
4.3224625e-05
4.7474061e-05
5.2493275e-05
5.8432618e-05
6.5480682e-05
7.3873194e-05
8.38964e-05
9.588649e-05
0.00011026241
0.00012753793
0.00014834122
0.00017343919
0.00020377023
0.00024049119
0.00028501949
0.00033909808
0.00040486681
0.00048496352
0.00058265156
0.0007019751
0.00084795702
0.0010189002
0.0010187988
0.0010185483
0.0010182642
0.0010178993
0.001017451
0.0010169107
0.0010162742
0.0010155427
0.0010147199
0.0010138046
0.0010127849
0.0010116279
0.0010103176
0.0010091509
0.0010082014
0.0010072749
0.0010062777
0.0010054059
0.0010047222
0.0010052314
3.4045081e-07
8.7098535e-06
1.7815797e-05
1.8207873e-05
1.3314581e-05
1.7517083e-05
1.2523686e-05
1.6181504e-05
1.3582427e-05
1.7854367e-05
1.6585247e-05
1.8475319e-05
1.7634317e-05
1.7548563e-05
1.7167164e-05
1.6959187e-05
1.6815422e-05
1.6758374e-05
1.6777624e-05
1.6867304e-05
1.7027107e-05
1.7256655e-05
1.75547e-05
1.7921872e-05
1.835923e-05
1.8871905e-05
1.9465446e-05
2.0149219e-05
2.0935734e-05
2.1840238e-05
2.287804e-05
2.4067924e-05
2.5434984e-05
2.7009898e-05
2.8831501e-05
3.0946554e-05
3.3412092e-05
3.6295864e-05
3.9679037e-05
4.3664137e-05
4.8380092e-05
5.3971503e-05
6.0618431e-05
6.8546557e-05
7.8035108e-05
8.9408816e-05
0.00010307252
0.00011952438
0.00013937483
0.00016337111
0.00019242643
0.00022767005
0.00027048683
0.00032258337
0.00038605706
0.0004634952
0.00055810148
0.00067385162
0.00081568423
0.00098973617
0.0010181949
0.0010179222
0.0010176197
0.0010172405
0.0010167813
0.0010162328
0.0010155899
0.0010148532
0.0010140263
0.0010131064
0.0010120814
0.0010109289
0.0010096312
0.0010085207
0.0010076118
0.0010067273
0.0010057527
0.0010048283
0.0010042752
0.0010045296
3.1006321e-07
8.4959544e-06
1.7001794e-05
1.8218134e-05
1.3303725e-05
1.550954e-05
1.1192669e-05
1.4194811e-05
1.229841e-05
1.5800121e-05
1.5189198e-05
1.6457381e-05
1.5902147e-05
1.5689948e-05
1.5389134e-05
1.519451e-05
1.5074071e-05
1.5028038e-05
1.5051987e-05
1.513938e-05
1.5290114e-05
1.5504418e-05
1.5781435e-05
1.6122272e-05
1.6527884e-05
1.7003435e-05
1.7554136e-05
1.8188691e-05
1.8918688e-05
1.9759009e-05
2.0724606e-05
2.1833109e-05
2.3108326e-05
2.4579127e-05
2.6282396e-05
2.8262582e-05
3.0574286e-05
3.3282871e-05
3.6466125e-05
4.0220815e-05
4.4672923e-05
4.9962757e-05
5.626372e-05
6.379206e-05
7.2821703e-05
8.3668483e-05
9.6725621e-05
0.00011247854
0.00013152304
0.00015459116
0.00018257557
0.00021658367
0.00025797409
0.00030842463
0.00036999947
0.00044524618
0.0005373216
0.0006501478
0.000788599
0.00095872485
0.0010176257
0.0010173277
0.0010170015
0.0010166033
0.0010161287
0.001015568
0.0010149147
0.001014168
0.0010133312
0.0010124007
0.0010113631
0.0010102095
0.0010089311
0.0010078792
0.0010070134
0.0010061713
0.0010052174
0.0010042774
0.0010037917
0.0010038242
2.7514745e-07
8.3663756e-06
1.6351686e-05
1.7988467e-05
1.3086731e-05
1.3750277e-05
1.059726e-05
1.2550404e-05
1.142773e-05
1.4066784e-05
1.3963871e-05
1.4682018e-05
1.4317393e-05
1.4030854e-05
1.3781018e-05
1.3601794e-05
1.3496491e-05
1.3457365e-05
1.3482425e-05
1.3565371e-05
1.3706041e-05
1.3905188e-05
1.4162182e-05
1.4478521e-05
1.4855144e-05
1.5297214e-05
1.5809665e-05
1.6400682e-05
1.708096e-05
1.7864981e-05
1.8767508e-05
1.9805239e-05
2.1000969e-05
2.2382061e-05
2.3983801e-05
2.5848725e-05
2.8029372e-05
3.0589212e-05
3.3603876e-05
3.7165166e-05
4.1396372e-05
4.6435013e-05
5.2450221e-05
5.9649704e-05
6.8303948e-05
7.8722883e-05
9.1291087e-05
0.00010648487
0.00012488912
0.0001472263
0.0001743744
0.00020742633
0.00024772302
0.00029692354
0.00035707157
0.00043068999
0.00052090647
0.0006316104
0.00076764008
0.00093499738
0.0010170868
0.0010167606
0.001016406
0.0010159845
0.0010154904
0.0010149137
0.0010142462
0.0010134851
0.0010126329
0.0010116862
0.0010106301
0.0010094686
0.001008221
0.0010072299
0.0010064096
0.0010056102
0.0010046852
0.0010037527
0.0010033124
0.0010031497
2.5071804e-07
8.2959269e-06
1.5843367e-05
1.702206e-05
1.2984252e-05
1.215621e-05
1.0643638e-05
1.1570906e-05
1.0994437e-05
1.2560863e-05
1.2860711e-05
1.3110541e-05
1.2844987e-05
1.2526099e-05
1.230514e-05
1.2141396e-05
1.2047307e-05
1.2013936e-05
1.2039788e-05
1.2119147e-05
1.2251456e-05
1.2437929e-05
1.2677906e-05
1.2897016e-05
1.3239599e-05
1.3644962e-05
1.41173e-05
1.4664087e-05
1.5294939e-05
1.6023604e-05
1.6864622e-05
1.7833783e-05
1.8952947e-05
2.0248039e-05
2.1752856e-05
2.3508181e-05
2.5564613e-05
2.7983757e-05
3.0839841e-05
3.4478757e-05
3.8530251e-05
4.3365742e-05
4.9152515e-05
5.6090944e-05
6.4449125e-05
7.4534013e-05
8.6724423e-05
0.0001014909
0.00011941053
0.00014120144
0.00016773218
0.00020008782
0.00023959924
0.00028791563
0.00034707127
0.00041957771
0.00050854895
0.00061785954
0.00075233483
0.00091796162
0.0010165748
0.0010162175
0.0010158303
0.0010153812
0.0010148637
0.0010142672
0.0010135819
0.0010128024
0.0010119294
0.0010109611
0.0010098822
0.001008705
0.001007509
0.0010065805
0.0010058072
0.0010050522
0.0010041693
0.0010032618
0.0010028236
0.0010025959
2.3238134e-07
8.254358e-06
1.5408289e-05
1.5487821e-05
1.1884211e-05
1.0597752e-05
9.1920283e-06
1.0327669e-05
9.6519787e-06
1.1294009e-05
1.1746197e-05
1.1663434e-05
1.1436731e-05
1.1126151e-05
1.0929045e-05
1.0785327e-05
1.0704951e-05
1.0680286e-05
1.0644911e-05
1.0707994e-05
1.0824003e-05
1.0993252e-05
1.1213464e-05
1.1484859e-05
1.1811558e-05
1.2196559e-05
1.2644352e-05
1.3162345e-05
1.3759615e-05
1.4449482e-05
1.524668e-05
1.6166516e-05
1.7230397e-05
1.8463333e-05
1.9898241e-05
2.1574784e-05
2.3542377e-05
2.5861462e-05
2.8605747e-05
3.1864943e-05
3.574837e-05
4.0394441e-05
4.5970419e-05
5.3114797e-05
6.1257213e-05
7.1103023e-05
8.3028512e-05
9.7501678e-05
0.00011509512
0.00013652816
0.00016266539
0.00019459111
0.00023363444
0.00028144417
0.00034005698
0.00041198759
0.0005003532
0.00060903319
0.00074286356
0.0009078495
0.001016085
0.0010156937
0.0010152701
0.0010147897
0.0010142449
0.0010136248
0.0010129182
0.0010121169
0.0010112184
0.0010102232
0.0010091202
0.0010079176
0.001006801
0.001005937
0.0010052125
0.0010045044
0.0010036768
0.0010028175
0.0010023633
0.0010020285
2.1065156e-07
8.2136941e-06
1.4953477e-05
1.3560827e-05
9.7709258e-06
9.4217423e-06
7.5785636e-06
8.8096052e-06
8.9898397e-06
1.0156798e-05
1.0612712e-05
1.0314753e-05
1.0106557e-05
9.8278746e-06
9.6551469e-06
9.467122e-06
9.3775464e-06
9.348523e-06
9.3730184e-06
9.448019e-06
9.5692817e-06
9.738494e-06
9.9545489e-06
1.0217441e-05
1.05313e-05
1.0900026e-05
1.1328156e-05
1.1823132e-05
1.2393662e-05
1.305262e-05
1.3815027e-05
1.469593e-05
1.5716568e-05
1.6901309e-05
1.8282522e-05
1.9899186e-05
2.1799995e-05
2.4044738e-05
2.6706465e-05
2.9874032e-05
3.3657024e-05
3.8191746e-05
4.3648097e-05
5.0222958e-05
5.8168773e-05
6.7799531e-05
8.01942e-05
9.450732e-05
0.00011193235
0.00013319512
0.00015916215
0.00019092406
0.00022981667
0.00027749813
0.00033601953
0.00040791369
0.00049631867
0.0006051389
0.00073924435
0.00090469063
0.0010156122
0.0010151841
0.001014721
0.0010142055
0.0010136299
0.0010129827
0.0010122516
0.0010114254
0.0010104977
0.0010094701
0.0010083446
0.0010071217
0.0010061038
0.0010053064
0.0010046329
0.0010039746
0.0010032109
0.001002406
0.001001922
0.0010014757
1.9399914e-07
8.1722976e-06
1.3441166e-05
1.1813392e-05
7.9011734e-06
8.3741675e-06
6.7418675e-06
7.9473465e-06
8.3201973e-06
9.0814778e-06
9.4890796e-06
9.0832932e-06
8.8815511e-06
8.5563666e-06
8.3747227e-06
8.2567194e-06
8.1996189e-06
8.1947436e-06
8.2357734e-06
8.321102e-06
8.4492037e-06
8.6187617e-06
8.8318221e-06
9.0883742e-06
9.3927611e-06
9.7492726e-06
1.0162601e-05
1.0640344e-05
1.1190978e-05
1.1826957e-05
1.2563642e-05
1.3416122e-05
1.4405684e-05
1.5556325e-05
1.6900176e-05
1.8475927e-05
2.0331976e-05
2.2527974e-05
2.5137215e-05
2.8248892e-05
3.1972591e-05
3.6444123e-05
4.1836402e-05
4.8346288e-05
5.6228366e-05
6.5798519e-05
7.7446123e-05
9.1628055e-05
0.0001099197
0.00013120163
0.00015722481
0.0001890932
0.00022815846
0.00027609837
0.00033499116
0.00040740361
0.00049651362
0.0006062729
0.00074161003
0.00090866218
0.0010151508
0.0010146832
0.0010141778
0.0010136243
0.0010130145
0.001012337
0.0010115783
0.0010107246
0.0010097655
0.0010087011
0.0010075541
0.0010063519
0.001005424
0.001004695
0.0010040747
0.0010034691
0.0010027768
0.0010020317
0.0010015154
0.0010010027
1.7909615e-07
8.1259533e-06
1.0677e-05
9.7992965e-06
6.4902564e-06
7.4542623e-06
6.1430873e-06
7.1374375e-06
7.7783808e-06
8.1039524e-06
8.385621e-06
7.8760948e-06
7.6281473e-06
7.4001933e-06
7.2643539e-06
7.1840506e-06
7.1544308e-06
7.1706145e-06
7.2269392e-06
7.3224562e-06
7.4549813e-06
7.6265449e-06
7.8385993e-06
8.091615e-06
8.3900268e-06
8.7385576e-06
9.1421647e-06
9.6086548e-06
1.0146466e-05
1.0767707e-05
1.1429214e-05
1.2254209e-05
1.3214298e-05
1.4333082e-05
1.5642448e-05
1.7180821e-05
1.8996374e-05
2.1148669e-05
2.3711359e-05
2.6774246e-05
3.0447922e-05
3.5142794e-05
4.0527149e-05
4.7039675e-05
5.4937228e-05
6.4538789e-05
7.6244592e-05
9.0522094e-05
0.00010796096
0.0001292964
0.00015685148
0.0001891011
0.00022866863
0.00027726233
0.00033700103
0.00041050251
0.00050100484
0.00061253142
0.00075009632
0.00091994863
0.0010146951
0.0010141852
0.0010136356
0.0010130413
0.0010123943
0.0010116836
0.0010108947
0.0010100112
0.0010090203
0.001007919
0.0010067437
0.0010056117
0.0010047689
0.0010041088
0.0010035436
0.0010029925
0.0010023774
0.0010017006
0.0010011564
0.001000665
1.6578524e-07
8.0786108e-06
8.4229941e-06
8.3368279e-06
5.7080174e-06
6.5989967e-06
5.6369487e-06
6.4289365e-06
7.2249981e-06
7.1900232e-06
7.1892433e-06
6.7557374e-06
6.5524167e-06
6.3834773e-06
6.2866054e-06
6.2377872e-06
6.2323452e-06
6.2661473e-06
6.3357303e-06
6.4408071e-06
6.580011e-06
6.7550299e-06
6.9683576e-06
7.2209282e-06
7.517261e-06
7.8286241e-06
8.2209202e-06
8.6754196e-06
9.2004259e-06
9.8076129e-06
1.0511039e-05
1.1329007e-05
1.2282139e-05
1.3394106e-05
1.4697091e-05
1.6229921e-05
1.8041354e-05
2.0191734e-05
2.2756185e-05
2.5826403e-05
2.9515593e-05
3.3965225e-05
3.9348627e-05
4.5873597e-05
5.3801219e-05
6.4007558e-05
7.5883824e-05
9.0389155e-05
0.00010812357
0.00012984488
0.00015647901
0.00019094919
0.00023135636
0.00028100967
0.00034208271
0.00041726275
0.00050987006
0.00062402672
0.00076486302
0.00093876951
0.0010142393
0.0010136847
0.0010130893
0.0010124519
0.0010117654
0.001011019
0.0010101976
0.0010092827
0.00100826
0.0010071295
0.00100592
0.0010049076
0.0010041449
0.0010035528
0.0010030444
0.0010025481
0.0010020117
0.0010014156
0.0010008612
0.0010003633
1.5391556e-07
8.0206418e-06
6.6973475e-06
7.3127288e-06
5.0830109e-06
5.8347441e-06
5.2009542e-06
5.7995613e-06
6.5664945e-06
6.1532457e-06
6.1091078e-06
5.7747785e-06
5.612569e-06
5.4913553e-06
5.4278636e-06
5.4061133e-06
5.4217967e-06
5.4724319e-06
5.555107e-06
5.6702615e-06
5.8172071e-06
5.9978566e-06
6.1888063e-06
6.4384933e-06
6.7315618e-06
7.0721416e-06
7.4672287e-06
7.9243063e-06
8.4518948e-06
9.0618672e-06
9.7684296e-06
1.0589661e-05
1.1547415e-05
1.266572e-05
1.3977306e-05
1.5521756e-05
1.7348939e-05
1.9520479e-05
2.2113661e-05
2.5223077e-05
2.8964738e-05
3.3483237e-05
3.8960752e-05
4.5610254e-05
5.3700916e-05
6.3567642e-05
7.5626604e-05
9.0380949e-05
0.0001094054
0.00013170473
0.00015906793
0.00019267724
0.00023622322
0.00028735258
0.00035026219
0.00042772895
0.00052317943
0.00064086338
0.00078606397
0.00096534473
0.0010137778
0.0010131763
0.0010125343
0.0010118524
0.0010111244
0.00101034
0.0010094844
0.0010085376
0.0010074831
0.0010063357
0.0010051564
0.0010042444
0.0010035577
0.001003031
0.0010025808
0.0010021393
0.0010016778
0.001001173
0.0010006351
0.0010001113
1.4331317e-07
7.9491556e-06
5.3682532e-06
6.3834114e-06
4.5259515e-06
5.1539007e-06
4.8277891e-06
5.1578196e-06
5.7405254e-06
5.2520395e-06
5.160826e-06
4.9158006e-06
4.792271e-06
4.7109136e-06
4.6770282e-06
4.6796802e-06
4.7151438e-06
4.7819536e-06
4.8780358e-06
4.9854958e-06
5.1360571e-06
5.3201743e-06
5.5400879e-06
5.7987315e-06
6.100342e-06
6.4494337e-06
6.8529282e-06
7.3189356e-06
7.8562013e-06
8.4767588e-06
9.1949362e-06
1.0029037e-05
1.0951642e-05
1.2077192e-05
1.3398206e-05
1.4954998e-05
1.6798751e-05
1.8992428e-05
2.1615521e-05
2.4766027e-05
2.856377e-05
3.3409231e-05
3.9032718e-05
4.5869605e-05
5.4198263e-05
6.4363132e-05
7.6800268e-05
9.2035061e-05
0.00011071114
0.00013485396
0.00016318075
0.00019799364
0.00024080155
0.00029628728
0.00036154803
0.00044192583
0.0005409809
0.0006631207
0.00081382406
0.00099986813
0.0010133055
0.0010126555
0.0010119669
0.0010112396
0.0010104688
0.0010096448
0.0010087531
0.0010077755
0.0010066932
0.0010055251
0.0010044491
0.0010036288
0.0010030124
0.0010025471
0.0010021559
0.0010017694
0.0010013734
0.0010009631
0.0010004964
0.00099994421
1.3385344e-07
7.8184487e-06
4.3538356e-06
5.5558684e-06
4.0275941e-06
4.5471917e-06
4.4996452e-06
4.4605046e-06
4.9080743e-06
4.4478559e-06
4.3384223e-06
4.1669157e-06
4.0801684e-06
4.0332717e-06
4.0262967e-06
4.0515141e-06
4.1059097e-06
4.1721333e-06
4.2767166e-06
4.4112574e-06
4.5765999e-06
4.7742518e-06
5.007143e-06
5.2784149e-06
5.5928713e-06
5.9552927e-06
6.372668e-06
6.832918e-06
7.3806265e-06
8.0123521e-06
8.7424672e-06
9.5892933e-06
1.0575232e-05
1.1728439e-05
1.3082506e-05
1.4679056e-05
1.6571578e-05
1.8825383e-05
2.15231e-05
2.4767669e-05
2.8684393e-05
3.3431226e-05
3.9199261e-05
4.6223988e-05
5.4795682e-05
6.5819481e-05
7.8742397e-05
9.4585127e-05
0.00011402303
0.00013788947
0.00016878233
0.00020508133
0.00024973798
0.00030469361
0.00037591543
0.00045983928
0.0005632768
0.00069082444
0.00084820168
0.0010134968
0.0010128177
0.0010121191
0.0010113844
0.0010106117
0.0010097973
0.0010089326
0.0010080032
0.0010069945
0.0010058976
0.001004738
0.0010037989
0.0010030648
0.0010025132
0.001002104
0.0010017711
0.001001441
0.0010010996
0.0010007692
0.0010004001
0.0009998453
1.254575e-07
7.4947666e-06
3.6531165e-06
4.8210751e-06
3.5832807e-06
4.008951e-06
3.987158e-06
3.829098e-06
4.1070159e-06
3.7367744e-06
3.6333488e-06
3.5204458e-06
3.4681633e-06
3.4516764e-06
3.4693207e-06
3.5026826e-06
3.5691841e-06
3.664625e-06
3.788209e-06
3.9401776e-06
4.1220045e-06
4.3357197e-06
4.5846746e-06
4.8722993e-06
5.1919473e-06
5.5684612e-06
6.0003931e-06
6.495827e-06
7.0649279e-06
7.7198031e-06
8.4752001e-06
9.3501845e-06
1.0368079e-05
1.1558111e-05
1.2956196e-05
1.4605494e-05
1.6562362e-05
1.8895202e-05
2.1690053e-05
2.5056004e-05
2.9123406e-05
3.4058213e-05
4.0064028e-05
4.7386978e-05
5.6333835e-05
6.728117e-05
8.1409024e-05
9.798707e-05
0.00011833716
0.00014334397
0.00017407358
0.00021387732
0.00026072022
0.00031838983
0.00038940105
0.00048139035
0.00058999241
0.00072390994
0.00088914181
0.0010130275
0.0010123105
0.0010115651
0.0010107855
0.0010099683
0.00100911
0.0010082042
0.0010072374
0.0010061961
0.0010050919
0.0010040332
0.0010032041
0.0010025545
0.0010020636
0.0010017047
0.0010014258
0.001001152
0.0010008579
0.0010005849
0.0010003006
0.00099980189
1.1820409e-07
7.0875038e-06
3.2080606e-06
4.1689359e-06
3.1874139e-06
3.3823671e-06
3.5330473e-06
3.2505811e-06
3.3833438e-06
3.1191268e-06
3.0365149e-06
2.9699024e-06
2.9489128e-06
2.959586e-06
2.9848085e-06
3.0468015e-06
3.1365509e-06
3.2528729e-06
3.3958787e-06
3.5665396e-06
3.7668732e-06
3.9991913e-06
4.2589924e-06
4.5635611e-06
4.9120791e-06
5.3102198e-06
5.7648029e-06
6.2842007e-06
6.8787827e-06
7.5614231e-06
8.3473386e-06
9.256405e-06
1.0313005e-05
1.1547833e-05
1.2943312e-05
1.4642452e-05
1.6660261e-05
1.9068747e-05
2.2089804e-05
2.5602391e-05
2.9851763e-05
3.5011862e-05
4.1299962e-05
4.897556e-05
5.8361261e-05
6.9856641e-05
8.3952149e-05
0.00010124998
0.00012358445
0.0001499062
0.00018226795
0.00022207549
0.00027363013
0.00033441337
0.00040927671
0.00050640417
0.00062093635
0.00076217554
0.00093643219
0.0010125402
0.001011783
0.0010109931
0.0010101706
0.0010093107
0.0010084094
0.001007462
0.0010064602
0.0010053949
0.0010042955
0.0010033941
0.0010026668
0.0010020971
0.0010016654
0.0010013517
0.0010011191
0.0010008973
0.001000648
0.0010004191
0.0010002094
0.00099985282
1.1235269e-07
6.12239e-06
2.8274403e-06
3.5766016e-06
2.843895e-06
2.8044156e-06
3.0813905e-06
2.7270608e-06
2.7624587e-06
2.5916239e-06
2.536566e-06
2.5074765e-06
2.507201e-06
2.5354131e-06
2.5948812e-06
2.6815591e-06
2.7935738e-06
2.93076e-06
3.0939799e-06
3.2846459e-06
3.500032e-06
3.7511328e-06
4.0380574e-06
4.3648533e-06
4.7363555e-06
5.1584282e-06
5.6382018e-06
6.1843712e-06
6.8076292e-06
7.5048538e-06
8.3198404e-06
9.2609182e-06
1.035347e-05
1.1629303e-05
1.3128202e-05
1.4899921e-05
1.700599e-05
1.9523457e-05
2.2547956e-05
2.6197683e-05
3.0619454e-05
3.6253243e-05
4.286337e-05
5.094109e-05
6.0826008e-05
7.2940501e-05
8.7804338e-05
0.0001060577
0.00012966719
0.00015746379
0.00019165444
0.00023372379
0.00028828159
0.00035254684
0.00043172402
0.00052930557
0.00065575767
0.0008052257
0.00098963334
0.0010120355
0.001011237
0.0010104052
0.0010095419
0.0010086422
0.0010077006
0.0010067125
0.0010056762
0.0010046029
0.001003604
0.0010028174
0.0010021862
0.0010016911
0.0010013177
0.0010010466
0.0010008515
0.0010006731
0.001000469
0.0010002844
0.0010001396
0.00099995943
1.074716e-07
4.2750985e-06
2.4820731e-06
3.0276564e-06
2.413143e-06
2.3198443e-06
2.6089649e-06
2.26155e-06
2.2460239e-06
2.1475701e-06
2.1229336e-06
2.1191053e-06
2.1467022e-06
2.2051578e-06
2.2904422e-06
2.4002389e-06
2.5338898e-06
2.6919114e-06
2.8729565e-06
3.0830715e-06
3.3232757e-06
3.5964163e-06
3.9059558e-06
4.2561025e-06
4.6519283e-06
5.0995428e-06
5.606359e-06
6.1721059e-06
6.8229088e-06
7.5661025e-06
8.4188386e-06
9.4024223e-06
1.0543708e-05
1.1876426e-05
1.3442873e-05
1.5295778e-05
1.7500704e-05
2.0139257e-05
2.3313001e-05
2.7148014e-05
3.1800591e-05
3.7463522e-05
4.4705271e-05
5.3226604e-05
6.3661999e-05
7.6458491e-05
9.2166723e-05
0.00011146622
0.00013519529
0.00016586225
0.00020205016
0.00024659173
0.00030144048
0.00037247055
0.0004563579
0.00055977008
0.0006939032
0.00085241088
0.0010123427
0.0010115161
0.0010106767
0.001009806
0.0010089039
0.0010079673
0.0010069903
0.0010059672
0.0010049048
0.0010038449
0.0010029929
0.001002307
0.001001762
0.0010013344
0.0010010158
0.0010007879
0.0010006241
0.0010004794
0.001000319
0.0010001853
0.0010001078
0.0010000122
1.022797e-07
3.5264085e-06
2.1228348e-06
2.5230462e-06
2.0602474e-06
1.9148342e-06
2.125006e-06
1.8538667e-06
1.8263056e-06
1.7827689e-06
1.7843924e-06
1.8113735e-06
1.8705162e-06
1.9555723e-06
2.0641785e-06
2.1954659e-06
2.3496814e-06
2.5259923e-06
2.7291762e-06
2.9603537e-06
3.2220548e-06
3.5173441e-06
3.8498844e-06
4.2240468e-06
4.6450775e-06
5.1193064e-06
5.6481298e-06
6.2508052e-06
6.934673e-06
7.7141019e-06
8.6071657e-06
9.6364306e-06
1.0830284e-05
1.2224423e-05
1.3863791e-05
1.5804677e-05
1.8116995e-05
2.0887432e-05
2.4223846e-05
2.8259612e-05
3.3160364e-05
3.9413988e-05
4.6767829e-05
5.5764391e-05
6.6789195e-05
8.031528e-05
9.6925748e-05
0.00011734008
0.00014376561
0.00017489946
0.00021321023
0.00026037972
0.00031848124
0.00039374429
0.00048265156
0.00059228701
0.00073457614
0.00090276673
0.0010118385
0.0010109851
0.0010101082
0.0010092022
0.0010082644
0.0010072933
0.0010062856
0.0010052363
0.0010041623
0.0010032096
0.001002458
0.0010018619
0.0010013937
0.0010010286
0.0010007568
0.0010005697
0.0010004336
0.0010003152
0.0010001946
0.0010001103
0.0010000725
0.0010000297
9.8467775e-08
2.8158943e-06
1.8118642e-06
2.0172604e-06
1.7684026e-06
1.5683935e-06
1.6789476e-06
1.5087833e-06
1.4960779e-06
1.496e-06
1.5243138e-06
1.5842332e-06
1.6698561e-06
1.7777081e-06
1.9068779e-06
2.057585e-06
2.2297769e-06
2.4265812e-06
2.6495719e-06
2.9010721e-06
3.1838577e-06
3.5011729e-06
3.8568165e-06
4.2552808e-06
4.7019487e-06
5.1997813e-06
5.7620416e-06
6.3961797e-06
7.1142016e-06
7.9311712e-06
8.8662092e-06
9.9432121e-06
1.1192269e-05
1.2651171e-05
1.4367463e-05
1.6400954e-05
1.8826444e-05
2.1735812e-05
2.5243838e-05
2.9491898e-05
3.4883109e-05
4.1229107e-05
4.8982252e-05
5.8474136e-05
7.0111531e-05
8.4395774e-05
0.00010194388
0.00012351764
0.00015140874
0.00018431593
0.00022482287
0.00027471025
0.00033617994
0.0004157801
0.00050989288
0.00062599394
0.00077670639
0.00095498646
0.0010113312
0.0010104496
0.0010095396
0.0010086025
0.0010076337
0.0010066311
0.0010055964
0.0010045397
0.0010034969
0.0010026701
0.0010020034
0.0010014798
0.0010010762
0.0010007698
0.0010005354
0.0010003844
0.0010002735
0.0010001763
0.0010000876
0.0010000491
0.0010000511
0.0010000409
9.6238124e-08
2.1961976e-06
1.5414769e-06
1.5364301e-06
1.4993387e-06
1.2723526e-06
1.3162229e-06
1.2335198e-06
1.2483604e-06
1.2790692e-06
1.3406579e-06
1.4264634e-06
1.5334581e-06
1.6603116e-06
1.8072787e-06
1.9753696e-06
2.1654371e-06
2.3804656e-06
2.6222817e-06
2.893431e-06
3.1968336e-06
3.535852e-06
3.9143878e-06
4.3370319e-06
4.8092731e-06
5.3377821e-06
5.9307803e-06
6.5984847e-06
7.3452274e-06
8.2002435e-06
9.1779226e-06
1.0303578e-05
1.1609124e-05
1.3134638e-05
1.4930318e-05
1.712835e-05
1.9688805e-05
2.27631e-05
2.6473564e-05
3.0971183e-05
3.6442006e-05
4.3114951e-05
5.1272964e-05
6.1264526e-05
7.3519094e-05
8.8566299e-05
0.00010705823
0.0001309326
0.00015911803
0.00019380222
0.00023650793
0.00028911741
0.00035731002
0.00043785164
0.00053719306
0.00065980669
0.00081894039
0.0010074166
0.0010108311
0.0010099212
0.0010089815
0.0010080167
0.0010070229
0.0010059959
0.0010049349
0.001003869
0.0010029523
0.0010022161
0.0010016268
0.0010011615
0.0010008048
0.0010005563
0.0010003503
0.0010002273
0.0010001386
0.0010000615
0.0010000014
0.00099999998
0.0010000372
0.0010000502
9.6377138e-08
1.6679741e-06
1.3133123e-06
1.1684577e-06
1.2289942e-06
1.0246578e-06
1.0500619e-06
1.0301277e-06
1.0733534e-06
1.1334729e-06
1.2191015e-06
1.3244618e-06
1.4484698e-06
1.5912647e-06
1.7539002e-06
1.937874e-06
2.1447097e-06
2.3769808e-06
2.6368592e-06
2.927002e-06
3.250415e-06
3.6105391e-06
4.0113614e-06
4.4575733e-06
4.9547905e-06
5.5098496e-06
6.1312061e-06
6.8294317e-06
7.6178352e-06
8.5132492e-06
9.5369569e-06
1.0715924e-05
1.2084146e-05
1.3684391e-05
1.5570227e-05
1.7808516e-05
2.0482498e-05
2.3695782e-05
2.7576644e-05
3.228394e-05
3.8013961e-05
4.5008283e-05
5.3562496e-05
6.4042946e-05
7.6899882e-05
9.3455695e-05
0.00011300731
0.00013704406
0.0001666147
0.00020301535
0.00024784644
0.0003059321
0.0003745335
0.00045913133
0.00056353029
0.00069918574
0.0008596809
0.0010112763
0.0010103494
0.0010094131
0.0010084481
0.0010074572
0.0010064403
0.0010053994
0.0010043418
0.001003305
0.0010024952
0.0010018381
0.0010013174
0.0010009079
0.0010005948
0.0010003569
0.0010002012
0.0010000966
0.0010000257
0.00099996723
0.00099993404
0.00099996228
0.0010000259
0.0010000482
9.9686796e-08
1.2369037e-06
1.1243782e-06
8.9938365e-07
1.0714858e-06
8.2039419e-07
8.6736895e-07
8.9224428e-07
9.5823723e-07
1.0414464e-06
1.1444723e-06
1.2648501e-06
1.4029466e-06
1.5597499e-06
1.7367267e-06
1.9355934e-06
2.1583005e-06
2.4068766e-06
2.683956e-06
2.9921743e-06
3.3346016e-06
3.7147514e-06
4.1366986e-06
4.6052447e-06
5.1261465e-06
5.7064241e-06
6.3547784e-06
7.0821591e-06
7.9023948e-06
8.8330531e-06
9.8963716e-06
1.1120598e-05
1.254138e-05
1.4203591e-05
1.6163452e-05
1.849116e-05
2.1274023e-05
2.4620329e-05
2.8664072e-05
3.3570786e-05
3.9814465e-05
4.7166964e-05
5.6158798e-05
6.7174316e-05
8.0686176e-05
9.7276906e-05
0.00011766505
0.00014273725
0.00017358502
0.00021353975
0.00026067141
0.00031873956
0.00039032951
0.00047865209
0.00059343297
0.00072916895
0.00089698167
0.0010108338
0.0010098924
0.0010089369
0.001007954
0.0010069432
0.0010059028
0.0010048379
0.0010037788
0.001002858
0.0010021184
0.0010015252
0.0010010566
0.0010006918
0.0010004273
0.0010002107
0.0010000789
0.00099999255
0.00099993618
0.00099989437
0.00099988352
0.00099993348
0.001000016
0.0010000484
1.0627477e-07
9.5695678e-07
9.596237e-07
7.6054048e-07
7.6382653e-07
6.9977982e-07
7.4505271e-07
8.0504171e-07
8.8828076e-07
9.8760571e-07
1.1037077e-06
1.2364875e-06
1.3870008e-06
1.5565614e-06
1.74676e-06
1.9593714e-06
2.1963781e-06
2.4599878e-06
2.7526718e-06
3.0772102e-06
3.436757e-06
3.8349288e-06
4.2759282e-06
4.7647204e-06
5.3072774e-06
5.9088092e-06
6.5813727e-06
7.3349573e-06
8.1911986e-06
9.1569856e-06
1.0260558e-05
1.1531561e-05
1.300738e-05
1.4735012e-05
1.6773293e-05
1.9195583e-05
2.2093049e-05
2.5578679e-05
2.9792179e-05
3.4906045e-05
4.1133023e-05
4.8735335e-05
5.8035881e-05
6.94305e-05
8.3408683e-05
0.00010057295
0.00012274919
0.00014888959
0.00018104398
0.00022062293
0.00026937114
0.00032945273
0.00040355282
0.00049971426
0.00061350303
0.00075414682
0.0009281643
0.0010104306
0.0010094735
0.0010085009
0.0010075054
0.0010064857
0.0010054407
0.0010043769
0.0010033349
0.0010025018
0.0010018222
0.0010012801
0.0010008522
0.0010005195
0.0010002901
0.0010000918
0.00099998004
0.00099990937
0.00099986719
0.00099984255
0.00099985186
0.00099991864
0.0010000146
0.0010000491
1.2082974e-07
9.6078804e-07
8.0069049e-07
5.6389134e-07
6.0703674e-07
6.1001938e-07
6.7353718e-07
7.5228888e-07
8.4902748e-07
9.6050771e-07
1.0877146e-06
1.2314686e-06
1.3930588e-06
1.5738931e-06
1.7755871e-06
1.9999398e-06
2.2489617e-06
2.5249011e-06
2.8302802e-06
3.1679396e-06
3.5410989e-06
3.9534435e-06
4.4092474e-06
4.9135498e-06
5.4724061e-06
6.0932318e-06
6.7852598e-06
7.5601272e-06
8.432622e-06
9.421574e-06
1.0550929e-05
1.1851095e-05
1.3360469e-05
1.5127334e-05
1.7212117e-05
1.9690128e-05
2.2654904e-05
2.6222264e-05
3.0535289e-05
3.5770445e-05
4.2145222e-05
5.028494e-05
5.987899e-05
7.1629512e-05
8.6040498e-05
0.00010373204
0.00012546955
0.00015219832
0.00018508685
0.00022557919
0.00027546809
0.00034008714
0.00041652297
0.00051087614
0.00062746201
0.00077167508
0.00095026107
0.0010100946
0.0010091191
0.0010081265
0.0010071138
0.0010060805
0.0010050286
0.0010039748
0.0010029991
0.0010022261
0.0010015969
0.0010010961
0.0010007008
0.0010003924
0.0010001646
0.0010000021
0.00099989745
0.0009998409
0.00099980874
0.00099979976
0.0009998237
0.00099989366
0.0009999858
0.0010000284
1.1078551e-07
6.1996175e-07
6.3486017e-07
4.6698938e-07
5.0939901e-07
5.551657e-07
6.337961e-07
7.2616463e-07
8.3357113e-07
9.5534797e-07
1.0925673e-06
1.2462787e-06
1.417797e-06
1.6085841e-06
1.8202886e-06
2.0547553e-06
2.3140498e-06
2.600451e-06
2.9165924e-06
3.2653645e-06
3.6500571e-06
4.0744269e-06
4.5428208e-06
5.0603545e-06
5.6331675e-06
6.2687732e-06
6.9765254e-06
7.7682235e-06
8.6659112e-06
9.6778338e-06
1.0833256e-05
1.2163359e-05
1.370746e-05
1.5514958e-05
1.7647617e-05
2.018237e-05
2.3214705e-05
2.6862824e-05
3.1272738e-05
3.6624522e-05
4.3139987e-05
5.1092049e-05
6.0816266e-05
7.2726897e-05
8.733371e-05
0.00010526565
0.00012729918
0.00015574839
0.00018933459
0.0002306787
0.00028161308
0.00034441058
0.00042189936
0.00051760536
0.00063593474
0.00078240692
0.0009639358
0.0010098559
0.0010088654
0.0010078552
0.0010068249
0.0010057758
0.001004714
0.0010036677
0.0010027575
0.001002026
0.0010014347
0.0010009644
0.0010005941