/*--------------------------------*- C++ -*----------------------------------*\
  =========                 |
  \\      /  F ield         | OpenFOAM: The Open Source CFD Toolbox
   \\    /   O peration     | Website:  https://openfoam.org
    \\  /    A nd           | Version:  12
     \\/     M anipulation  |
\*---------------------------------------------------------------------------*/
FoamFile
{
    format      ascii;
    class       volScalarField;
    location    "0.149";
    object      rho;
}
// * * * * * * * * * * * * * * * * * * * * * * * * * * * * * * * * * * * * * //

dimensions      [1 -3 0 0 0 0 0];

internalField   nonuniform List<scalar> 
16000
(
1.0573626
1.090096
1.0779119
1.086222
1.0823809
1.0858188
1.0848425
1.0866631
1.0868132
1.088022
1.088675
1.0896905
1.0905699
1.0915683
1.0925662
1.0936162
1.0946986
1.0958211
1.0969818
1.0981816
1.0994205
1.1006985
1.1020154
1.1033707
1.1047639
1.106194
1.10766
1.1091604
1.1106935
1.1122574
1.1138499
1.1154684
1.11711
1.1187718
1.1204503
1.1221419
1.1238428
1.125549
1.1272564
1.1289606
1.1306575
1.1323425
1.1340115
1.1356602
1.1372844
1.1388803
1.1404442
1.1419725
1.1434621
1.1449102
1.1463141
1.1476716
1.1489809
1.1502402
1.1514485
1.1526046
1.153708
1.1547583
1.1557553
1.156699
1.1575898
1.158428
1.1592141
1.1599486
1.1606322
1.1612652
1.1618484
1.162382
1.1628665
1.163302
1.1636885
1.1640266
1.1643177
1.164563
1.1647618
1.1649213
1.1650789
1.1648869
1.1655798
1.1642682
1.0540794
1.0873322
1.0745674
1.0833968
1.079327
1.0830337
1.0819549
1.083947
1.0840898
1.0854007
1.0861054
1.087196
1.0881495
1.0892224
1.090301
1.0914323
1.0926001
1.0938103
1.0950617
1.0963547
1.0976894
1.0990654
1.1004823
1.1019393
1.1034355
1.1049696
1.1065401
1.1081451
1.1097825
1.1114499
1.1131444
1.114863
1.1166024
1.1183589
1.1201285
1.1219072
1.1236906
1.1254743
1.1272537
1.1290241
1.130781
1.1325197
1.1342359
1.1359253
1.1375838
1.1392076
1.1407932
1.1423374
1.1438375
1.145291
1.1466957
1.1480499
1.1493523
1.1506018
1.1517977
1.1529394
1.1540269
1.1550603
1.1560397
1.1569656
1.1578387
1.1586595
1.1594288
1.1601474
1.1608159
1.1614351
1.1620053
1.1625272
1.1630011
1.1634269
1.1638048
1.1641351
1.1644186
1.1646559
1.1648491
1.1650115
1.1651045
1.1650914
1.1655053
1.1643954
1.0510937
1.0848013
1.0716853
1.0807926
1.0765816
1.080491
1.0793838
1.0814965
1.0816815
1.0830763
1.0838554
1.0850233
1.0860631
1.0872194
1.0883891
1.0896122
1.0908761
1.0921847
1.0935373
1.0949339
1.0963742
1.0978576
1.0993833
1.1009501
1.1025568
1.1042016
1.1058825
1.1075972
1.109343
1.1111168
1.1129154
1.114735
1.1165716
1.118421
1.1202787
1.12214
1.124
1.1258538
1.1276964
1.1295228
1.1313283
1.1331081
1.1348578
1.1365732
1.1382503
1.1398858
1.1414765
1.1430196
1.1445128
1.1459543
1.1473425
1.1486764
1.1499551
1.1511783
1.1523459
1.1534579
1.1545148
1.1555172
1.1564656
1.157361
1.1582043
1.1589965
1.1597384
1.160431
1.1610752
1.1616716
1.1622209
1.1627236
1.16318
1.16359
1.1639536
1.164271
1.1645425
1.1647686
1.1649543
1.1651035
1.1651756
1.1652277
1.1654549
1.164546
1.048434
1.0825143
1.0689729
1.0784524
1.0741064
1.0782489
1.0771186
1.0793697
1.079606
1.0810975
1.081965
1.083222
1.0843626
1.0856155
1.0868896
1.0882177
1.0895899
1.091009
1.0924742
1.0939852
1.0955415
1.0971421
1.0987859
1.1004714
1.1021967
1.1039597
1.1057578
1.1075881
1.1094472
1.1113313
1.1132365
1.1151582
1.1170918
1.1190323
1.1209746
1.1229132
1.1248428
1.1267581
1.1286536
1.1305242
1.1323649
1.134171
1.1359382
1.1376626
1.1393406
1.1409693
1.1425459
1.1440685
1.1455354
1.1469455
1.1482979
1.1495925
1.150829
1.152008
1.1531298
1.1541954
1.1552056
1.1561616
1.1570644
1.1579155
1.1587159
1.159467
1.1601699
1.1608257
1.1614354
1.1619996
1.1625192
1.1629945
1.1634257
1.163813
1.164156
1.1644545
1.1647085
1.164919
1.1650908
1.165221
1.165284
1.1653518
1.1654615
1.1647014
1.0461403
1.0806063
1.0666718
1.0764432
1.0719558
1.0763719
1.0752316
1.0776268
1.0779352
1.079531
1.0805058
1.0818614
1.0831161
1.0844765
1.0858653
1.0873081
1.0887982
1.090337
1.091924
1.0935586
1.0952399
1.0969667
1.0987374
1.10055
1.1024019
1.1042903
1.1062119
1.1081629
1.1101392
1.112136
1.1141486
1.1161715
1.1181992
1.120226
1.122246
1.1242531
1.1262416
1.1282056
1.1301396
1.1320382
1.1338966
1.1357102
1.1374752
1.1391879
1.1408456
1.1424459
1.1439869
1.1454674
1.1468867
1.1482445
1.149541
1.1507766
1.1519521
1.1530688
1.1541278
1.1551307
1.1560789
1.156974
1.1578177
1.1586116
1.1593573
1.1600562
1.1607097
1.1613189
1.161885
1.1624087
1.1628906
1.1633312
1.1637307
1.1640889
1.1644055
1.16468
1.1649119
1.1651026
1.1652553
1.1653643
1.1654179
1.1654801
1.1655046
1.164867
1.0442564
1.0790923
1.064812
1.074889
1.070306
1.0749339
1.0737821
1.0763421
1.0767387
1.0784442
1.0795381
1.0809956
1.0823711
1.0838451
1.0853557
1.0869219
1.0885389
1.0902077
1.0919273
1.0936968
1.0955146
1.097379
1.0992876
1.1012375
1.1032254
1.1052475
1.1072994
1.1093763
1.111473
1.1135839
1.1157029
1.1178238
1.1199401
1.1220451
1.1241324
1.1261954
1.1282278
1.1302236
1.1321772
1.1340835
1.1359378
1.1377362
1.1394753
1.1411524
1.1427655
1.1443132
1.1457947
1.1472097
1.1485587
1.1498423
1.1510618
1.1522185
1.1533141
1.1543507
1.1553302
1.1562546
1.1571261
1.1579467
1.1587186
1.1594435
1.1601234
1.1607599
1.1613543
1.1619082
1.1624224
1.1628978
1.163335
1.1637343
1.1640958
1.1644194
1.1647043
1.1649499
1.1651554
1.1653221
1.1654512
1.165537
1.1655778
1.1656209
1.1655812
1.1650466
1.04278
1.0779805
1.0633854
1.0738024
1.069129
1.0739607
1.0728544
1.075545
1.0760458
1.0778373
1.0790571
1.0806206
1.0821272
1.0837278
1.0853742
1.0870794
1.0888399
1.0906553
1.0925242
1.0944448
1.0964149
1.0984316
1.1004917
1.1025911
1.1047254
1.1068896
1.1090781
1.1112849
1.1135034
1.1157269
1.1179481
1.1201597
1.1223545
1.1245249
1.1266639
1.1287645
1.1308204
1.1328255
1.1347746
1.1366629
1.1384865
1.1402424
1.1419281
1.143542
1.1450832
1.1465517
1.1479478
1.1492727
1.1505278
1.1517149
1.1528364
1.1538946
1.1548921
1.1558317
1.1567159
1.1575475
1.1583291
1.159063
1.1597517
1.1603973
1.1610018
1.161567
1.1620943
1.1625851
1.1630404
1.163461
1.1638474
1.1641997
1.1645181
1.1648021
1.1650508
1.1652633
1.1654388
1.1655777
1.1656795
1.1657406
1.1657656
1.1657794
1.1656881
1.1652508
1.0416493
1.0772123
1.0623285
1.0731297
1.0683575
1.0734152
1.0723384
1.0752239
1.0757496
1.0776567
1.0790367
1.0807328
1.0823972
1.0841505
1.0859572
1.0878253
1.089752
1.0917359
1.0937749
1.0958663
1.0980067
1.1001922
1.1024182
1.1046793
1.1069699
1.1092832
1.1116123
1.1139497
1.1162875
1.1186175
1.1209314
1.1232209
1.1254777
1.127694
1.1298623
1.1319756
1.1340277
1.1360132
1.1379273
1.1397664
1.1415277
1.1432092
1.1448101
1.1463301
1.1477699
1.1491309
1.1504149
1.1516243
1.1527619
1.1538309
1.1548343
1.1557756
1.1566582
1.1574855
1.1582607
1.1589868
1.159667
1.1603039
1.1609
1.1614577
1.1619789
1.1624656
1.1629191
1.1633408
1.1637316
1.1640921
1.1644227
1.1647236
1.1649944
1.1652348
1.1654437
1.1656197
1.1657621
1.1658699
1.1659415
1.1659769
1.1659833
1.1659606
1.1658267
1.1654838
1.0408595
1.0767744
1.0616247
1.0728908
1.0679329
1.073157
1.0721701
1.0750943
1.0759324
1.0779831
1.0795538
1.0814076
1.0832551
1.0851873
1.0871794
1.0892355
1.0913527
1.0935285
1.0957596
1.0980421
1.1003713
1.1027416
1.1051469
1.1075802
1.1100338
1.1124996
1.1149687
1.117432
1.1198801
1.1223035
1.1246929
1.127039
1.1293332
1.1315673
1.133734
1.1358267
1.1378401
1.1397696
1.1416119
1.1433647
1.145027
1.1465985
1.1480801
1.1494735
1.150781
1.1520056
1.1531508
1.1542204
1.1552183
1.1561488
1.1570161
1.1578244
1.1585776
1.1592797
1.1599343
1.1605449
1.1611146
1.1616463
1.1621426
1.1626059
1.1630381
1.163441
1.1638159
1.164164
1.1644862
1.1647828
1.1650541
1.1653
1.1655203
1.1657141
1.1658802
1.1660173
1.1661242
1.1661986
1.166238
1.1662473
1.1662316
1.1661663
1.1660007
1.1657515
1.0404452
1.0767025
1.0613134
1.0730058
1.0679084
1.0733915
1.0725517
1.0756761
1.076696
1.0788957
1.0806868
1.0827261
1.0847835
1.0869235
1.0891288
1.0914001
1.0937338
1.096126
1.0985719
1.1010657
1.103601
1.1061702
1.1087652
1.1113767
1.1139951
1.1166101
1.1192111
1.121787
1.1243273
1.1268211
1.1292583
1.1316293
1.1339254
1.1361389
1.1382632
1.1402929
1.142224
1.1440539
1.1457811
1.1474056
1.1489284
1.1503516
1.1516781
1.1529116
1.1540563
1.1551169
1.1560985
1.157006
1.1578447
1.1586196
1.1593357
1.1599977
1.1606102
1.1611773
1.161703
1.1621907
1.1626437
1.1630649
1.1634568
1.1638215
1.1641611
1.1644769
1.1647703
1.1650422
1.1652932
1.1655237
1.1657335
1.1659225
1.1660902
1.1662355
1.1663572
1.1664539
1.1665238
1.1665629
1.1665696
1.1665529
1.1665116
1.1663996
1.1662127
1.1660561
1.0404744
1.0770676
1.0614479
1.0733314
1.0683799
1.0741519
1.0735204
1.0768031
1.0780974
1.0804732
1.0825194
1.0847787
1.087077
1.089457
1.0919058
1.0944216
1.0969993
1.0996329
1.1023157
1.1050396
1.1077957
1.1105738
1.1133632
1.1161521
1.1189284
1.1216797
1.1243933
1.1270568
1.1296582
1.1321862
1.1346303
1.1369812
1.1392312
1.1413736
1.1434038
1.1453184
1.1471158
1.148796
1.1503604
1.1518113
1.1531526
1.1543888
1.1555251
1.1565673
1.1575213
1.1583935
1.1591902
1.1599174
1.1605813
1.1611875
1.1617414
1.1622482
1.1627125
1.1631386
1.1635303
1.1638912
1.1642244
1.1645325
1.1648178
1.1650824
1.1653279
1.1655557
1.1657666
1.1659615
1.1661407
1.1663042
1.1664519
1.1665833
1.1666977
1.1667938
1.1668704
1.1669261
1.1669583
1.1669616
1.1669362
1.1668943
1.1668241
1.1666642
1.1664667
1.166399
1.0410281
1.077942
1.0621277
1.0743124
1.0695255
1.0755383
1.075165
1.0786263
1.0802338
1.0828141
1.0851497
1.0876674
1.0902412
1.0928964
1.0956224
1.0984142
1.1012646
1.1041649
1.1071052
1.1100745
1.1130605
1.11605
1.1190289
1.1219829
1.1248973
1.1277573
1.1305488
1.1332583
1.1358731
1.1383822
1.140776
1.1430467
1.1451884
1.1471973
1.1490715
1.1508111
1.1524177
1.1538946
1.1552464
1.1564788
1.1575981
1.1586116
1.1595264
1.1603504
1.1610909
1.1617556
1.1623515
1.1628856
1.1633644
1.1637938
1.1641795
1.1645264
1.1648393
1.1651223
1.1653789
1.1656124
1.1658257
1.1660211
1.1662006
1.1663659
1.1665184
1.166659
1.1667885
1.1669073
1.1670155
1.167113
1.1671993
1.1672738
1.1673354
1.1673828
1.1674148
1.16743
1.1674246
1.1673927
1.1673371
1.1672711
1.1671691
1.1669633
1.1667673
1.1667833
1.042101
1.0793313
1.0633491
1.0759555
1.0713292
1.0775851
1.0775505
1.0812053
1.0831886
1.086016
1.0886821
1.0915044
1.0943954
1.0973668
1.1004078
1.1035098
1.1066617
1.1098513
1.1130646
1.1162865
1.1195009
1.1226909
1.1258392
1.1289284
1.1319416
1.1348625
1.1376758
1.1403681
1.1429278
1.1453453
1.1476137
1.1497283
1.1516871
1.1534901
1.1551398
1.1566404
1.1579976
1.1592185
1.1603112
1.1612843
1.1621469
1.1629082
1.1635773
1.1641633
1.1646747
1.1651197
1.1655059
1.1658405
1.1661299
1.1663802
1.1665966
1.1667841
1.1669468
1.1670885
1.1672124
1.1673213
1.1674177
1.1675036
1.1675804
1.1676496
1.1677121
1.1677686
1.1678195
1.1678649
1.1679046
1.1679383
1.1679653
1.1679847
1.1679953
1.1679957
1.1679847
1.1679607
1.1679187
1.1678534
1.1677708
1.1676819
1.1675456
1.1672973
1.1671156
1.1672131
1.0437472
1.0812876
1.0651743
1.0782276
1.0738769
1.0803858
1.0807805
1.0846541
1.0870751
1.0902052
1.09325
1.0964317
1.0996888
1.1030223
1.1064182
1.1098627
1.1133401
1.1168328
1.1203223
1.1237885
1.1272112
1.1305695
1.133843
1.1370118
1.1400575
1.1429636
1.1457157
1.1483025
1.1507154
1.152949
1.1550009
1.1568718
1.158565
1.1600858
1.1614419
1.1626421
1.1636963
1.1646154
1.1654105
1.1660927
1.1666732
1.1671626
1.1675712
1.1679085
1.1681837
1.168405
1.1685799
1.1687154
1.1688176
1.168892
1.1689435
1.1689763
1.1689941
1.1690001
1.1689971
1.1689873
1.1689726
1.1689545
1.1689341
1.1689124
1.1688899
1.1688669
1.1688436
1.1688197
1.1687947
1.1687682
1.1687393
1.1687067
1.1686691
1.1686252
1.1685738
1.1685126
1.1684361
1.1683405
1.168235
1.1681245
1.1679527
1.1676697
1.1675144
1.1676835
1.0460268
1.0838698
1.0677137
1.0812568
1.077268
1.0840416
1.0849709
1.0891058
1.0920361
1.0955436
1.0990281
1.1026322
1.1063094
1.1100504
1.1138357
1.1176456
1.121458
1.1252497
1.1289962
1.1326725
1.1362537
1.1397155
1.1430352
1.1461923
1.1491693
1.1519521
1.1545305
1.1568983
1.159053
1.160996
1.1627319
1.1642681
1.1656141
1.1667815
1.1677829
1.1686314
1.1693409
1.1699249
1.1703968
1.1707694
1.1710547
1.1712641
1.1714081
1.1714963
1.1715373
1.1715391
1.1715086
1.171452
1.1713749
1.1712818
1.1711771
1.1710641
1.170946
1.1708252
1.1707039
1.1705836
1.1704658
1.1703513
1.170241
1.1701352
1.1700342
1.1699378
1.1698459
1.169758
1.1696734
1.1695914
1.1695107
1.1694302
1.1693483
1.1692637
1.1691752
1.1690798
1.1689716
1.1688499
1.1687259
1.168595
1.1683886
1.1680836
1.1679662
1.1681854
1.0489976
1.0871098
1.0710941
1.0851149
1.0816251
1.0886896
1.0902867
1.0947579
1.0982809
1.1022553
1.1062469
1.1103355
1.1144806
1.1186631
1.1228567
1.1270337
1.1311649
1.1352198
1.1391677
1.1429784
1.1466237
1.1500778
1.1533192
1.1563305
1.1590994
1.1616188
1.1638866
1.1659054
1.1676817
1.1692257
1.1705499
1.1716691
1.1725992
1.173357
1.1739591
1.1744223
1.1747624
1.1749949
1.1751339
1.1751927
1.1751833
1.1751169
1.1750033
1.1748513
1.1746688
1.1744628
1.1742391
1.1740032
1.1737594
1.1735116
1.1732631
1.1730165
1.1727741
1.1725378
1.1723088
1.1720882
1.1718769
1.1716752
1.1714835
1.1713017
1.1711297
1.1709671
1.1708133
1.1706676
1.1705291
1.170397
1.1702698
1.1701461
1.1700244
1.1699035
1.169782
1.1696558
1.1695197
1.1693768
1.1692388
1.1690881
1.1688499
1.1685387
1.1684695
1.1687112
1.0527301
1.0910163
1.0754421
1.0899526
1.0871532
1.0945746
1.0969895
1.1018917
1.1060883
1.1106171
1.1151762
1.1197989
1.1244433
1.1290793
1.1336708
1.1381802
1.1425691
1.1467994
1.1508351
1.154644
1.1581988
1.1614781
1.1644673
1.1671585
1.1695504
1.1716476
1.1734598
1.1750006
1.1762871
1.1773382
1.1781743
1.1788163
1.1792848
1.1796002
1.1797816
1.1798472
1.1798136
1.1796963
1.1795091
1.1792646
1.1789739
1.1786468
1.178292
1.1779172
1.1775288
1.1771324
1.176733
1.1763346
1.1759406
1.1755539
1.1751766
1.1748108
1.1744577
1.1741185
1.173794
1.1734845
1.1731903
1.1729115
1.1726477
1.1723988
1.172164
1.1719428
1.1717344
1.1715377
1.1713518
1.1711755
1.1710074
1.1708458
1.1706895
1.1705372
1.170387
1.1702341
1.1700747
1.1699158
1.1697673
1.1695979
1.1693321
1.1690297
1.1690173
1.1692522
1.0574141
1.0957376
1.0809909
1.0960974
1.0941849
1.1020258
1.1054015
1.1108304
1.1157691
1.1209312
1.1261076
1.1312949
1.1364417
1.1415023
1.1464273
1.1511677
1.1556772
1.1599143
1.1638442
1.1674407
1.1706863
1.1735728
1.1761006
1.1782774
1.1801175
1.18164
1.1828676
1.1838251
1.1845386
1.1850342
1.1853376
1.1854733
1.1854644
1.1853323
1.1850965
1.1847746
1.1843825
1.1839342
1.1834421
1.1829171
1.1823686
1.1818048
1.1812327
1.1806582
1.1800865
1.1795216
1.1789671
1.1784259
1.1779003
1.1773921
1.1769026
1.1764329
1.1759836
1.1755552
1.1751478
1.1747613
1.1743954
1.1740497
1.1737237
1.1734166
1.1731277
1.1728559
1.1726002
1.1723596
1.1721328
1.1719186
1.1717153
1.1715216
1.171336
1.1711574
1.1709831
1.170808
1.1706307
1.1704611
1.1703047
1.170118
1.169832
1.1695495
1.1695949
1.1698126
1.0633308
1.1018515
1.0881363
1.1038866
1.1030654
1.1113667
1.1158517
1.1219266
1.1276778
1.1335444
1.1393661
1.1451042
1.1506897
1.156059
1.161151
1.1659115
1.1702961
1.1742719
1.1778186
1.1809283
1.1836044
1.18586
1.187716
1.1891992
1.1903402
1.1911715
1.1917268
1.1920387
1.1921391
1.1920576
1.1918217
1.1914567
1.1909849
1.1904267
1.1897997
1.1891197
1.1884002
1.187653
1.1868882
1.1861144
1.185339
1.1845681
1.1838069
1.1830596
1.1823297
1.18162
1.1809327
1.1802695
1.1796316
1.17902
1.1784351
1.1778772
1.1773464
1.1768423
1.1763646
1.1759128
1.1754862
1.175084
1.1747052
1.174349
1.1740142
1.1736997
1.1734042
1.1731266
1.1728655
1.1726195
1.1723871
1.1721667
1.1719573
1.1717574
1.1715636
1.1713713
1.1711818
1.1710061
1.1708434
1.170642
1.1703462
1.1700929
1.1701919
1.1703886
1.070668
1.1098871
1.0970796
1.1135472
1.1141639
1.123015
1.128778
1.1356502
1.1422708
1.1488609
1.155271
1.1614282
1.1672477
1.172658
1.1776013
1.1820367
1.1859407
1.1893072
1.1921451
1.1944757
1.19633
1.1977455
1.1987638
1.1994278
1.1997805
1.1998634
1.1997154
1.1993725
1.1988672
1.1982289
1.1974834
1.1966535
1.195759
1.1948169
1.193842
1.1928468
1.1918418
1.1908361
1.1898372
1.1888511
1.1878831
1.1869373
1.1860169
1.1851247
1.1842625
1.1834319
1.182634
1.1818693
1.1811382
1.1804407
1.1797767
1.1791457
1.1785471
1.1779803
1.1774444
1.1769385
1.1764616
1.1760124
1.1755901
1.1751931
1.1748204
1.1744707
1.1741424
1.1738344
1.1735453
1.1732735
1.1730174
1.1727759
1.1725478
1.1723313
1.1721226
1.1719181
1.1717219
1.1715442
1.1713765
1.1711634
1.1708695
1.1706541
1.1707995
1.1709719
1.0795578
1.1197147
1.1084241
1.1256261
1.1281237
1.1376612
1.1448261
1.1525954
1.1600317
1.1671979
1.1739414
1.1801728
1.1858144
1.1908152
1.1951491
1.1988141
1.2018283
1.2042261
1.2060533
1.2073629
1.2082114
1.2086557
1.2087512
1.2085497
1.2080992
1.2074429
1.2066192
1.2056618
1.2046001
1.2034595
1.2022615
1.2010246
1.1997644
1.1984938
1.1972239
1.1959635
1.1947201
1.1934997
1.1923072
1.1911465
1.1900206
1.1889317
1.1878816
1.1868713
1.1859017
1.184973
1.1840853
1.1832383
1.1824317
1.1816646
1.1809364
1.180246
1.1795926
1.1789749
1.1783918
1.1778419
1.1773241
1.1768369
1.1763791
1.1759492
1.1755459
1.1751676
1.1748131
1.1744808
1.1741693
1.1738771
1.1736027
1.1733451
1.173103
1.1728741
1.1726547
1.1724431
1.172245
1.1720685
1.1718971
1.1716772
1.1713965
1.1712271
1.1714041
1.1715408
1.0907436
1.1322448
1.1230724
1.1410683
1.1458933
1.1561978
1.164694
1.1732361
1.1811663
1.18846
1.1949926
1.2007033
1.2055638
1.2095806
1.2127877
1.2152394
1.2170039
1.2181562
1.2187737
1.2189318
1.2187018
1.2181488
1.2173312
1.2163007
1.215102
1.2137736
1.2123483
1.2108539
1.2093135
1.2077466
1.2061692
1.2045946
1.2030335
1.2014948
1.1999855
1.1985112
1.1970763
1.1956842
1.1943374
1.1930378
1.1917865
1.1905843
1.1894314
1.1883278
1.1872732
1.1862669
1.1853081
1.184396
1.1835294
1.1827072
1.181928
1.1811906
1.1804935
1.1798353
1.1792145
1.1786297
1.1780793
1.1775618
1.1770758
1.1766198
1.1761922
1.1757915
1.1754162
1.175065
1.1747362
1.1744284
1.1741403
1.1738709
1.1736188
1.1733814
1.1731554
1.1729409
1.1727447
1.1725712
1.1723981
1.1721777
1.1719199
1.1717973
1.1719862
1.1720774
1.1057895
1.1485747
1.1422977
1.1609408
1.1684364
1.1793917
1.1887353
1.1974794
1.2051765
1.2118042
1.2173272
1.2217694
1.2251905
1.2276766
1.2293293
1.2302559
1.2305628
1.2303503
1.2297101
1.2287238
1.2274622
1.2259863
1.2243477
1.2225897
1.2207481
1.2188527
1.2169278
1.2149932
1.213065
1.2111561
1.2092768
1.2074354
1.205638
1.2038897
1.2021941
1.2005539
1.1989709
1.1974462
1.1959804
1.1945738
1.193226
1.1919365
1.1907044
1.1895289
1.1884086
1.1873423
1.1863286
1.185366
1.1844529
1.1835877
1.1827689
1.1819946
1.1812634
1.1805735
1.1799232
1.1793109
1.1787349
1.1781938
1.1776857
1.1772092
1.1767627
1.1763446
1.1759535
1.1755878
1.175246
1.1749268
1.1746289
1.1743513
1.1740925
1.1738497
1.1736204
1.1734065
1.1732146
1.1730446
1.1728715
1.1726573
1.1724298
1.1723477
1.1725297
1.1725795
1.1261709
1.1700001
1.1675269
1.1862599
1.1961298
1.2071984
1.2163633
1.2242206
1.2306046
1.2355821
1.2392488
1.2417426
1.2432161
1.2438249
1.2437164
1.243025
1.2418687
1.240349
1.2385514
1.2365469
1.234394
1.2321403
1.2298241
1.2274763
1.2251215
1.2227792
1.2204648
1.2181903
1.2159649
1.2137956
1.2116878
1.2096451
1.2076702
1.2057649
1.2039299
1.2021657
1.2004721
1.1988484
1.1972939
1.1958073
1.1943872
1.1930323
1.1917408
1.1905111
1.1893413
1.1882296
1.1871742
1.1861732
1.1852246
1.1843265
1.1834772
1.1826747
1.1819171
1.1812026
1.1805295
1.1798959
1.1793002
1.1787406
1.1782155
1.1777232
1.1772621
1.1768308
1.1764276
1.1760511
1.1756998
1.1753724
1.1750679
1.174785
1.174522
1.1742764
1.1740467
1.1738359
1.1736491
1.1734824
1.1733103
1.1731062
1.1729108
1.1728644
1.1730343
1.1730445
1.1544964
1.1973151
1.199855
1.2179164
1.2281531
1.2380035
1.2455866
1.2512989
1.2552685
1.2577341
1.2589316
1.2590926
1.2584254
1.257111
1.2553018
1.2531234
1.2506774
1.2480453
1.2452915
1.2424667
1.2396106
1.2367539
1.2339201
1.2311274
1.2283895
1.2257165
1.2231159
1.2205931
1.2181515
1.2157937
1.2135206
1.2113329
1.2092302
1.2072118
1.2052766
1.2034231
1.2016497
1.1999546
1.1983357
1.196791
1.1953184
1.1939156
1.1925806
1.1913109
1.1901045
1.1889591
1.1878726
1.1868427
1.1858673
1.1849444
1.1840719
1.1832477
1.18247
1.1817366
1.1810459
1.1803958
1.1797848
1.1792109
1.1786726
1.1781682
1.177696
1.1772545
1.1768422
1.1764577
1.1760995
1.1757664
1.1754574
1.1751713
1.174906
1.1746596
1.1744316
1.1742252
1.1740436
1.17388
1.1737112
1.173522
1.1733589
1.1733377
1.1734863
1.1734764
1.1933334
1.232323
1.2380766
1.2533686
1.2624807
1.2693742
1.273743
1.2761343
1.2769088
1.2764316
1.2750018
1.2728669
1.2702232
1.2672244
1.2639893
1.2606083
1.2571499
1.2536658
1.2501945
1.2467644
1.2433963
1.2401055
1.2369026
1.2337949
1.2307872
1.2278824
1.2250819
1.222386
1.219794
1.2173048
1.2149168
1.2126279
1.2104359
1.2083383
1.2063325
1.204416
1.2025861
1.2008399
1.1991749
1.1975883
1.1960774
1.1946396
1.1932723
1.191973
1.1907391
1.1895682
1.1884579
1.1874059
1.1864098
1.1854675
1.1845768
1.1837355
1.1829417
1.1821933
1.1814884
1.1808251
1.1802017
1.1796163
1.1790673
1.1785529
1.1780717
1.1776221
1.1772026
1.1768117
1.1764481
1.1761108
1.1757985
1.17551
1.1752436
1.1749975
1.1747721
1.1745701
1.1743927
1.1742319
1.1740695
1.1738998
1.1737666
1.1737556
1.1738681
1.1738413
1.240869
1.2733681
1.2805075
1.290287
1.2951752
1.2975004
1.2976516
1.2962776
1.2938115
1.290598
1.2868896
1.2828718
1.2786788
1.2744071
1.2701253
1.2658821
1.2617114
1.2576367
1.2536735
1.2498321
1.2461185
1.242536
1.2390857
1.2357671
1.2325789
1.2295186
1.2265837
1.2237708
1.2210767
1.2184978
1.2160306
1.2136714
1.2114167
1.209263
1.2072067
1.2052444
1.2033729
1.2015887
1.1998888
1.19827
1.1967294
1.195264
1.193871
1.1925476
1.1912912
1.1900991
1.1889688
1.1878979
1.1868841
1.1859249
1.1850182
1.1841619
1.1833538
1.1825919
1.1818742
1.1811989
1.1805642
1.1799683
1.1794094
1.1788861
1.1783966
1.1779394
1.1775132
1.1771164
1.176748
1.1764066
1.1760912
1.1758006
1.175533
1.1752875
1.1750646
1.1748658
1.174691
1.1745327
1.174379
1.1742303
1.1741212
1.1741059
1.1741719
1.1741422
1.2948811
1.3155087
1.3200475
1.3224052
1.3216053
1.3189533
1.3150625
1.3104218
1.3053519
1.3000701
1.2947201
1.2893966
1.2841611
1.2790529
1.2740963
1.2693053
1.2646872
1.2602447
1.2559774
1.2518829
1.2479573
1.2441962
1.2405944
1.2371466
1.2338473
1.2306911
1.2276727
1.2247869
1.2220285
1.2193927
1.2168747
1.21447
1.2121742
1.2099831
1.2078927
1.2058992
1.2039987
1.2021878
1.2004629
1.1988208
1.1972583
1.1957723
1.1943598
1.193018
1.1917441
1.1905353
1.1893892
1.1883033
1.187275
1.1863022
1.1853824
1.1845136
1.1836937
1.1829205
1.1821922
1.1815068
1.1808625
1.1802577
1.1796906
1.1791595
1.1786629
1.1781994
1.1777674
1.1773656
1.1769929
1.176648
1.1763299
1.1760372
1.1757687
1.1755238
1.1753026
1.1751058
1.1749322
1.1747766
1.1746326
1.1745028
1.1744093
1.1743815
1.1744076
1.1743829
1.3476899
1.3509799
1.3497516
1.3452891
1.3394581
1.3328843
1.326031
1.3191395
1.3123557
1.3057589
1.2993917
1.2932743
1.2874137
1.281809
1.2764547
1.2713427
1.2664634
1.261807
1.2573632
1.2531221
1.2490741
1.24521
1.241521
1.237999
1.2346361
1.2314251
1.2283592
1.2254318
1.2226368
1.2199687
1.2174219
1.2149914
1.2126723
1.21046
1.2083503
1.2063389
1.204422
1.2025957
1.2008565
1.199201
1.1976257
1.1961277
1.1947037
1.1933509
1.1920665
1.1908478
1.1896921
1.1885969
1.1875597
1.1865783
1.1856503
1.1847736
1.183946
1.1831656
1.1824302
1.1817381
1.1810875
1.1804766
1.1799038
1.1793673
1.1788658
1.1783976
1.1779613
1.1775558
1.1771796
1.1768318
1.1765111
1.1762165
1.1759468
1.1757016
1.1754808
1.1752842
1.1751105
1.1749565
1.1748197
1.174703
1.1746177
1.1745765
1.1745713
1.1745546
1.3816926
1.3741195
1.366581
1.3583214
1.3497395
1.34125
1.3330184
1.3251191
1.3175804
1.3104056
1.3035861
1.2971074
1.2909522
1.2851028
1.2795413
1.2742508
1.2692153
1.2644201
1.2598512
1.255496
1.2513428
1.2473808
1.2435999
1.239991
1.2365455
1.2332556
1.230114
1.2271137
1.2242485
1.2215124
1.2188998
1.2164055
1.2140245
1.2117522
1.2095841
1.2075161
1.2055442
1.2036646
1.2018736
1.2001678
1.1985439
1.1969987
1.1955292
1.1941324
1.1928054
1.1915456
1.1903503
1.189217
1.1881432
1.1871266
1.1861649
1.1852559
1.1843974
1.1835875
1.1828241
1.1821053
1.1814293
1.1807945
1.180199
1.1796413
1.1791198
1.1786329
1.1781793
1.1777577
1.1773668
1.1770054
1.1766725
1.1763668
1.1760876
1.1758342
1.1756064
1.1754036
1.1752245
1.175067
1.1749304
1.1748172
1.1747334
1.174684
1.1746593
1.1746502
1.163751
1.1683903
1.1830124
1.1949493
1.200475
1.2017456
1.201816
1.201485
1.2015192
1.2012268
1.200965
1.2004164
1.1998232
1.1991794
1.1984907
1.1977616
1.1969965
1.1962012
1.1953805
1.1945386
1.1936795
1.1928065
1.191923
1.1910318
1.1901356
1.1892367
1.1883374
1.1874396
1.1865451
1.1856557
1.1847729
1.1838983
1.1830333
1.1821792
1.1813374
1.180509
1.1796954
1.1788977
1.178117
1.1773546
1.1766115
1.1758888
1.1751877
1.1745092
1.1738545
1.1732244
1.17262
1.1720423
1.1714921
1.1709703
1.1704776
1.1700145
1.1695818
1.1691797
1.1688084
1.168468
1.1681583
1.167879
1.1676294
1.1674086
1.1672153
1.1670481
1.1669053
1.1667849
1.166685
1.166602
1.1665353
1.1664764
1.1664347
1.1663783
1.1663632
1.1662646
1.1663069
1.1660817
1.1662778
1.1657557
1.1662463
1.1652631
1.1661501
1.1645461
1.1594898
1.1704329
1.1868197
1.1952014
1.1974805
1.1973919
1.1968616
1.1966127
1.1962958
1.1959941
1.1956022
1.1952059
1.1947625
1.1942829
1.1937639
1.1932131
1.1926311
1.1920209
1.1913848
1.190725
1.1900441
1.1893441
1.1886275
1.1878964
1.1871531
1.1863997
1.1856383
1.184871
1.1840999
1.1833269
1.1825538
1.1817826
1.1810151
1.180253
1.1794979
1.1787516
1.1780157
1.1772917
1.1765812
1.1758855
1.1752063
1.1745449
1.1739027
1.1732809
1.172681
1.1721041
1.1715514
1.1710241
1.170523
1.1700492
1.1696035
1.1691865
1.1687989
1.1684411
1.1681132
1.1678152
1.167547
1.1673081
1.1670979
1.1669154
1.1667591
1.1666276
1.1665191
1.1664315
1.1663629
1.1663098
1.1662711
1.1662392
1.1662216
1.1661901
1.1661934
1.1661203
1.1661727
1.1659752
1.1661707
1.1656849
1.1661725
1.1652035
1.1661306
1.1644683
1.1600366
1.1735188
1.1853236
1.1917318
1.1927132
1.1922351
1.1917277
1.1914679
1.1911751
1.190893
1.1905607
1.1902254
1.1898547
1.1894711
1.1890603
1.1886295
1.1881756
1.1877005
1.1872045
1.1866884
1.186153
1.1855996
1.1850292
1.1844432
1.1838429
1.1832298
1.1826053
1.1819712
1.181329
1.1806805
1.1800274
1.1793714
1.1787143
1.178058
1.1774041
1.1767546
1.1761111
1.1754754
1.1748494
1.1742346
1.1736327
1.1730455
1.1724745
1.1719214
1.1713875
1.1708743
1.1703833
1.1699156
1.1694724
1.1690548
1.1686637
1.1682999
1.167964
1.1676565
1.1673776
1.1671272
1.1669052
1.1667111
1.1665441
1.1664033
1.1662872
1.1661942
1.1661225
1.1660701
1.1660346
1.166013
1.1660039
1.166
1.1660077
1.1660015
1.1660248
1.1659763
1.1660412
1.1658686
1.1660674
1.1656128
1.1661002
1.1651447
1.1661059
1.1643975
1.1578193
1.1722522
1.1829875
1.1877291
1.1875671
1.1871783
1.1867338
1.1865343
1.186217
1.1859651
1.1856521
1.1853683
1.1850527
1.1847407
1.184408
1.1840667
1.1837101
1.1833405
1.1829565
1.1825579
1.1821446
1.1817167
1.1812744
1.180818
1.180348
1.1798651
1.1793702
1.1788642
1.1783483
1.1778237
1.1772918
1.1767539
1.1762118
1.1756668
1.1751209
1.1745755
1.1740326
1.1734939
1.1729611
1.1724362
1.1719209
1.171417
1.1709263
1.1704504
1.1699911
1.1695499
1.1691284
1.168728
1.1683499
1.1679953
1.1676653
1.1673607
1.1670823
1.1668304
1.1666053
1.1664071
1.1662355
1.16609
1.1659698
1.1658739
1.1658008
1.1657488
1.1657161
1.1657007
1.1657002
1.1657116
1.1657331
1.1657583
1.1657922
1.1658117
1.1658561
1.1658318
1.1659108
1.1657613
1.1659665
1.1655393
1.1660298
1.1650874
1.1660783
1.1643323
1.1522194
1.1686716
1.1785845
1.1821429
1.1815955
1.1815081
1.181146
1.1810848
1.1808414
1.1807067
1.1804838
1.1803082
1.1800896
1.179884
1.1796561
1.1794235
1.1791764
1.1789187
1.1786484
1.1783653
1.1780692
1.1777598
1.1774373
1.1771017
1.1767532
1.1763921
1.176019
1.1756344
1.1752391
1.1748339
1.17442
1.1739984
1.1735704
1.1731374
1.1727007
1.172262
1.1718229
1.1713851
1.1709504
1.1705204
1.1700972
1.1696825
1.169278
1.1688857
1.1685073
1.1681444
1.1677986
1.1674715
1.1671645
1.1668787
1.1666153
1.1663753
1.1661592
1.1659677
1.165801
1.1656591
1.1655416
1.1654482
1.165378
1.1653299
1.1653024
1.1652937
1.1653021
1.1653255
1.1653615
1.1654071
1.1654604
1.1655155
1.1655765
1.165622
1.1656882
1.1656878
1.165782
1.1656549
1.1658677
1.1654655
1.165961
1.1650318
1.1660486
1.1642728
1.1462
1.1651094
1.1736439
1.1765608
1.1758593
1.1760305
1.1757129
1.1757903
1.1756118
1.1755895
1.175448
1.1753744
1.1752454
1.1751381
1.1750053
1.1748711
1.1747219
1.1745638
1.1743944
1.1742138
1.1740219
1.1738184
1.1736032
1.1733763
1.1731376
1.1728874
1.1726257
1.172353
1.1720698
1.1717766
1.1714741
1.1711632
1.1708448
1.1705202
1.1701904
1.1698569
1.1695211
1.1691846
1.168849
1.168516
1.1681874
1.1678649
1.1675503
1.1672455
1.1669521
1.1666718
1.1664064
1.1661573
1.1659259
1.1657136
1.1655214
1.1653503
1.1652009
1.1650738
1.1649692
1.1648871
1.1648273
1.1647891
1.1647717
1.1647739
1.1647943
1.164831
1.1648823
1.164946
1.1650198
1.1651008
1.1651868
1.1652725
1.1653611
1.1654332
1.1655215
1.1655446
1.1656548
1.1655502
1.1657711
1.165392
1.1658936
1.1649781
1.1660171
1.1642185
1.1409655
1.1617241
1.1687533
1.171369
1.170566
1.1709407
1.1706311
1.1708195
1.1706804
1.1707469
1.1706681
1.1706819
1.1706278
1.1705986
1.1705395
1.1704847
1.1704163
1.1703422
1.1702588
1.1701666
1.1700651
1.1699539
1.1698329
1.1697017
1.1695604
1.1694088
1.169247
1.1690751
1.1688935
1.1687025
1.1685025
1.1682943
1.1680786
1.1678562
1.1676283
1.1673959
1.1671602
1.1669228
1.166685
1.1664484
1.1662145
1.1659852
1.165762
1.1655466
1.1653407
1.165146
1.1649641
1.1647963
1.1646441
1.1645088
1.1643913
1.1642927
1.1642135
1.1641542
1.1641151
1.164096
1.1640966
1.1641162
1.1641541
1.1642089
1.1642792
1.1643631
1.1644588
1.1645642
1.1646769
1.1647941
1.1649137
1.1650306
1.1651472
1.1652461
1.1653566
1.1654032
1.1655299
1.1654478
1.1656766
1.1653198
1.1658277
1.1649266
1.1659846
1.1641687
1.1360953
1.1586738
1.1641675
1.1666647
1.1657546