/*--------------------------------*- C++ -*----------------------------------*\
  =========                 |
  \\      /  F ield         | OpenFOAM: The Open Source CFD Toolbox
   \\    /   O peration     | Website:  https://openfoam.org
    \\  /    A nd           | Version:  12
     \\/     M anipulation  |
\*---------------------------------------------------------------------------*/
FoamFile
{
    format      ascii;
    class       volVectorField;
    location    "0.149";
    object      U;
}
// * * * * * * * * * * * * * * * * * * * * * * * * * * * * * * * * * * * * * //

dimensions      [0 1 -1 0 0 0 0];

internalField   nonuniform List<vector> 
16000
(
(215.68484 -3.1373938e-17 -8.3836818)
(252.60639 0 5.3840303)
(238.65212 0 -7.5699215)
(246.37655 4.9648039e-17 3.7907621)
(241.69083 -4.9006179e-17 -5.9489338)
(243.8942 0 1.756871)
(242.10193 0 -4.3185842)
(242.6058 8.3882373e-17 -0.024501268)
(241.76706 -7.9694414e-17 -3.1503603)
(241.64434 0 -1.2613323)
(241.13074 7.2009788e-17 -2.5553991)
(240.78303 -2.0515554e-16 -1.975205)
(240.33937 1.2985031e-16 -2.4119324)
(239.91052 -1.2351765e-16 -2.3480347)
(239.45366 1.1719365e-16 -2.5075399)
(238.98293 -3.4763838e-18 -2.5779375)
(238.4936 -3.3024204e-18 -2.6797176)
(237.98656 -9.7449818e-17 -2.7707026)
(237.46127 1.909248e-16 -2.8633683)
(236.91759 -9.0586374e-17 -2.9537482)
(236.35536 1.7230789e-16 -3.0422274)
(235.77451 -1.6333332e-16 -3.1281086)
(235.17503 0 -3.2108943)
(234.55703 1.5203791e-16 -3.2900033)
(233.92068 -4.1146242e-18 -3.364846)
(233.26628 -2.6535425e-16 -3.4348007)
(232.59424 1.2576881e-16 -3.4992387)
(231.90508 0 -3.5575179)
(231.19947 0 -3.6089996)
(230.47819 2.1842059e-16 -3.6530532)
(229.74216 -2.0350998e-16 -3.6890699)
(228.99245 0 -3.7164711)
(228.23025 0 -3.73472)
(227.4569 0 -3.7433354)
(226.67384 5.1343684e-18 -3.7419017)
(225.88266 1.5581878e-16 -3.7300809)
(225.08504 -1.4263946e-16 -3.7076236)
(224.28275 -1.3970527e-16 -3.674377)
(223.47766 1.2370095e-16 -3.6302941)
(222.67167 0 -3.5754409)
(221.86673 -1.1839404e-16 -3.5099976)
(221.06482 1.1175129e-16 -3.4342629)
(220.26788 -2.1179103e-16 -3.3486513)
(219.47784 1.9982057e-16 -3.2536896)
(218.69658 -1.951558e-16 -3.1500106)
(217.92588 3.5730195e-16 -3.0383417)
(217.16744 5.5981885e-18 -2.9194946)
(216.42282 2.9721897e-19 -2.7943499)
(215.69348 -1.5039653e-16 -2.6638408)
(214.98069 1.4224334e-16 -2.5289367)
(214.28561 -1.2564582e-16 -2.3906257)
(213.60918 0 -2.2498965)
(212.95221 7.4677619e-18 -2.1077229)
(212.31531 0 -1.9650465)
(211.69891 6.6455398e-18 -1.8227627)
(211.10327 2.0693347e-16 -1.6817084)
(210.52845 -3.7822839e-16 -1.5426511)
(209.97434 1.0920886e-17 -1.4062787)
(209.44067 1.6807707e-16 -1.27319)
(208.92696 -1.4877527e-16 -1.1439019)
(208.43254 1.4013893e-16 -1.0188245)
(207.95665 -8.8183532e-18 -0.89830536)
(207.49842 0 -0.78259476)
(207.0567 0 -0.67184559)
(206.6301 -1.111351e-16 -0.56614048)
(206.21693 1.1181511e-16 -0.46549494)
(205.81522 -9.9081884e-17 -0.36987923)
(205.42285 1.9340643e-16 -0.27923666)
(205.03766 -1.8875308e-16 -0.1934977)
(204.65744 8.3679164e-17 -0.11257863)
(204.27976 5.2842805e-18 -0.036383536)
(203.90191 0 0.035119697)
(203.52121 4.7512354e-18 0.10195456)
(203.13611 -4.5132177e-18 0.16456194)
(202.74659 0 0.22341397)
(202.35451 -3.3753626e-17 0.27413773)
(201.92286 6.2472487e-17 0.31658691)
(201.63143 -3.1748156e-17 0.4291763)
(200.90499 0 0.20873052)
(200.98778 0 0.92986216)
(216.99667 0 -11.207205)
(254.24316 -3.7229117e-18 3.3394604)
(239.65241 -1.1965827e-16 -10.499844)
(247.83546 1.1031732e-16 1.7002401)
(242.79392 0 -8.8174547)
(245.23011 1.014976e-16 -0.4042758)
(243.23267 -1.8742691e-16 -7.0693716)
(243.82595 -1.0228411e-19 -2.3082795)
(242.8956 8.446525e-17 -5.7449447)
(242.77393 0 -3.6626441)
(242.2195 -1.525734e-16 -5.0345531)
(241.84296 1.492446e-16 -4.4214668)
(241.36733 1.4194611e-16 -4.8445315)
(240.90417 -2.6130239e-16 -4.7811959)
(240.41285 1.201219e-16 -4.9205349)
(239.9058 1.1043326e-17 -4.9834985)
(239.37916 1.154794e-16 -5.0696458)
(238.83352 -1.0284739e-16 -5.1468449)
(238.26849 0 -5.2234159)
(237.68395 0 -5.2966624)
(237.07983 5.6751926e-18 -5.3664665)
(236.45614 -1.7803792e-16 -5.4321204)
(235.81301 3.3759375e-16 -5.4929919)
(235.15064 -3.1545726e-16 -5.5483992)
(234.46937 1.4258424e-16 -5.5976464)
(233.76966 0 -5.6400233)
(233.05209 1.2436015e-16 -5.6748111)
(232.3174 -1.3335151e-16 -5.7012977)
(231.56643 0 -5.7187849)
(230.80021 3.5240121e-18 -5.7266001)
(230.01988 -1.3366957e-17 -5.7241075)
(229.22676 0 -5.7107238)
(228.42228 0 -5.685926)
(227.60801 -1.7057065e-16 -5.6492711)
(226.78567 3.3869665e-16 -5.6004047)
(225.95705 -1.6264014e-16 -5.539074)
(225.12408 -1.5904673e-16 -5.4651414)
(224.28873 1.4556966e-16 -5.3785898)
(223.45305 -1.1212235e-16 -5.2795328)
(222.61911 -2.8593348e-19 -5.1682191)
(221.78897 -2.6748368e-19 -5.0450335)
(220.96471 2.3272871e-16 -4.9104965)
(220.14833 -1.0980524e-16 -4.765259)
(219.34177 0 -4.6100948)
(218.54687 2.0232751e-16 -4.4458898)
(217.76537 1.1934581e-17 -4.2736281)
(216.99885 -5.1163897e-18 -4.0943743)
(216.24875 -1.6450282e-16 -3.9092564)
(215.51634 0 -3.7194455)
(214.80273 -1.4652824e-16 -3.5261353)
(214.10883 -8.8577945e-18 -3.3305227)
(213.4354 2.6006899e-16 -3.1337871)
(212.78297 -1.3006768e-16 -2.9370725)
(212.15194 0 -2.7414703)
(211.54251 -2.037994e-17 -2.5480039)
(210.95469 -2.1118181e-16 -2.3576176)
(210.38835 3.6123129e-16 -2.1711648)
(209.84317 -2.1525051e-16 -1.9894002)
(209.31869 0 -1.8129715)
(208.81427 -1.7078242e-16 -1.6424262)
(208.32911 1.7946719e-16 -1.4781889)
(207.8623 2.6683857e-17 -1.3205968)
(207.41286 0 -1.1698922)
(206.9796 -1.4188107e-16 -1.0261997)
(206.5611 7.3196702e-18 -0.88956509)
(206.15563 1.1170242e-16 -0.75995949)
(205.76121 -1.9735804e-17 -0.63730039)
(205.3757 9.2997589e-17 -0.5214729)
(204.9969 -1.0511973e-16 -0.41234408)
(204.62258 5.5084634e-18 -0.30976566)
(204.2503 -5.1976494e-18 -0.21359458)
(203.87727 0 -0.12377223)
(203.50073 -4.637765e-18 -0.040165494)
(203.11913 4.3867068e-18 0.037898259)
(202.73178 8.3082509e-18 0.1099014)
(202.33501 9.844742e-19 0.17142354)
(201.93455 0 0.2390006)
(201.56013 3.0230325e-17 0.31942267)
(200.9859 -5.7570407e-17 0.17771075)
(200.89326 2.5861263e-17 0.8130175)
(218.17155 0 -14.103171)
(255.72591 -1.2245424e-16 1.0929165)
(240.61299 2.4971874e-16 -13.512577)
(249.0923 -2.2301707e-16 -0.55302064)
(243.78976 1.1014343e-16 -11.756434)
(246.36257 -3.2614595e-18 -2.7540256)
(244.23762 9.9268288e-17 -9.8643132)
(244.85669 -9.4015387e-17 -4.7872007)
(243.86958 -5.5809754e-18 -8.4016624)
(243.72462 -5.2991102e-18 -6.2282817)
(243.13489 -1.0066397e-17 -7.6111222)
(242.72237 1.3888385e-16 -7.0036269)
(242.21129 -1.4077818e-16 -7.3954629)
(241.70965 1.3816558e-16 -7.3390532)
(241.17924 -1.1869171e-16 -7.4570281)
(240.63144 -1.5556251e-17 -7.5118843)
(240.06278 0 -7.5823813)
(239.47385 -1.2417229e-20 -7.6446763)
(238.86433 -2.2626149e-16 -7.7041109)
(238.23422 -3.6711121e-19 -7.7586577)
(237.58356 1.7342372e-16 -7.807884)
(236.91249 1.7035019e-17 -7.8509968)
(236.22128 -2.1547099e-17 -7.8872432)
(235.51031 0 -7.9158365)
(234.7801 7.3776245e-21 -7.9359844)
(234.0313 -1.6540795e-16 -7.9468907)
(233.26473 1.4777383e-16 -7.9477679)
(232.48134 8.2477036e-18 -7.9378446)
(231.68225 0 -7.9163842)
(230.86873 -7.3993409e-18 -7.8826923)
(230.04223 -1.1603266e-21 -7.8361359)
(229.20432 -1.9917934e-16 -7.7761565)
(228.35675 2.005989e-16 -7.7022847)
(227.50138 1.1886569e-17 -7.6141594)
(226.64018 -1.7994974e-16 -7.5115361)
(225.77525 1.4851358e-16 -7.3943042)
(224.90873 -1.8096424e-16 -7.2624957)
(224.04284 1.5168087e-16 -7.1162944)
(223.1798 -1.4361941e-16 -6.9560383)
(222.32184 1.3535479e-16 -6.7822249)
(221.47114 1.6004322e-17 -6.5955077)
(220.62981 0 -6.3966883)
(219.7999 1.9964451e-16 -6.1867096)
(218.98329 -2.4164964e-16 -5.9666403)
(218.18175 0 -5.7376593)
(217.39689 1.7935333e-16 -5.5010368)
(216.63013 -1.5738769e-16 -5.2581112)
(215.88268 1.6981512e-16 -5.0102675)
(215.15561 -1.7961895e-16 -4.7589134)
(214.44973 0 -4.5054565)
(213.76569 1.7712097e-16 -4.2512828)
(213.10394 -1.3311336e-16 -3.9977335)
(212.46475 0 -3.7460883)
(211.84819 0 -3.4975483)
(211.25419 1.2472597e-16 -3.2532206)
(210.6825 -2.0830044e-16 -3.0141099)
(210.13271 1.2227734e-16 -2.7811085)
(209.6043 1.8402549e-16 -2.5549909)
(209.09657 1.9970991e-19 -2.3364071)
(208.60871 1.777989e-19 -2.1258902)
(208.13975 -3.2392034e-16 -1.9238442)
(207.68866 8.939506e-17 -1.7305599)
(207.25432 0 -1.5462394)
(206.83547 1.4208431e-16 -1.3709555)
(206.43064 -1.6298423e-16 -1.2046937)
(206.0381 1.1140156e-16 -1.0473623)
(205.65586 1.3149953e-17 -0.89881164)
(205.28178 -8.5961245e-17 -0.75885881)
(204.91366 1.1543807e-17 -0.62730209)
(204.54925 2.1709265e-17 -0.50393039)
(204.18615 -1.0209258e-16 -0.38855535)
(203.82159 9.601747e-17 -0.2810571)
(203.45282 -7.2346716e-17 -0.18117223)
(203.07804 1.3627824e-16 -0.088367983)
(202.69578 -5.6195979e-17 -0.0038359131)
(202.30457 -6.0633322e-17 0.071183841)
(201.91447 5.0096361e-17 0.1525476)
(201.5112 0 0.21620391)
(201.01937 3.2060872e-18 0.14780737)
(200.81918 -1.216018e-17 0.69058341)
(219.18831 0 -17.068632)
(257.05928 0 -1.2886722)
(241.36396 0 -16.660202)
(250.17164 1.0657694e-16 -2.9134679)
(244.6018 -1.2375072e-16 -14.825232)
(247.33024 -2.2040144e-16 -5.2221185)
(245.06289 2.0962005e-16 -12.777571)
(245.7104 -1.2415423e-17 -7.3936664)
(244.6589 5.9120224e-18 -11.169036)
(244.48654 -1.7385042e-16 -8.9255625)
(243.8568 1.7019746e-16 -10.299204)
(243.40272 1.0114954e-17 -9.7112914)
(242.85124 -1.5359513e-16 -10.06388)
(242.30574 1.364417e-16 -10.015941)
(241.73108 -1.3855744e-20 -10.111243)
(241.13735 -8.182636e-18 -10.155993)
(240.52166 0 -10.209201)
(239.88453 -7.3869171e-18 -10.254112)
(239.2258 -2.1027161e-16 -10.293735)
(238.54558 2.1231666e-16 -10.326489)
(237.84404 1.2602999e-17 -10.351715)
(237.12147 -1.1948771e-17 -10.368532)
(236.37832 2.1531734e-16 -10.376086)
(235.61517 -1.7151144e-16 -10.373501)
(234.83275 1.0171229e-17 -10.359892)
(234.03196 1.928621e-16 -10.334391)
(233.21388 -1.2757865e-16 -10.296148)
(232.37974 0 -10.244349)
(231.53099 1.4741743e-16 -10.178234)
(230.66921 -1.2373941e-16 -10.097114)
(229.79618 2.4938354e-16 -10.000388)
(228.91383 -1.3320038e-17 -9.8875619)
(228.02421 -2.094783e-16 -9.7582659)
(227.12953 1.7374631e-16 -9.6122718)
(226.23207 -1.8716928e-16 -9.4495047)
(225.3342 -2.9611397e-20 -9.2700583)
(224.43831 2.0924204e-16 -9.0742013)
(223.54684 -3.1578174e-16 -8.8623819)
(222.66216 9.2940481e-17 -8.6352304)
(221.78661 3.5187654e-17 -8.3935537)
(220.92242 -4.975705e-17 -8.1383299)
(220.07173 0 -7.8706925)
(219.23648 -8.8537628e-17 -7.5919168)
(218.41846 1.3866713e-16 -7.3033971)
(217.61928 -2.0937708e-16 -7.0066256)
(216.84031 1.9673037e-16 -6.703168)
(216.08272 -2.0866537e-16 -6.3946345)
(215.34744 3.9236137e-16 -6.0826549)
(214.6352 -3.0748549e-16 -5.7688525)
(213.94648 3.0834097e-16 -5.4548188)
(213.2816 -1.4472568e-16 -5.1420906)
(212.64064 1.3623407e-16 -4.8321298)
(212.02352 -9.5769949e-17 -4.5263043)
(211.42999 3.0030868e-17 -4.225876)
(210.85967 0 -3.9319862)
(210.31199 0 -3.6456507)
(209.78631 0 -3.3677529)
(209.28182 2.3247115e-17 -3.0990411)
(208.79764 0 -2.840126)
(208.33277 -1.6362139e-16 -2.5914884)
(207.88608 1.9154389e-16 -2.3534762)
(207.4564 -1.0781394e-16 -2.1263093)
(207.04251 -1.1827633e-19 -1.9101197)
(206.6431 2.5224185e-16 -1.7049109)
(206.25664 2.9627312e-17 -1.5105928)
(205.88142 -1.3834976e-16 -1.3269991)
(205.51546 5.1884378e-17 -1.1539052)
(205.15663 -1.457587e-16 -0.99105346)
(204.80273 -4.5545523e-17 -0.83817096)
(204.45157 -6.4024669e-17 -0.69498584)
(204.10076 -6.0040504e-17 -0.5612575)
(203.7476 5.626491e-17 -0.43678712)
(203.38933 0 -0.32125108)
(203.02377 0 -0.21437776)
(202.64932 -1.550955e-17 -0.11728125)
(202.26703 0 -0.028676857)
(201.88239 6.8513949e-18 0.06143857)
(201.47211 5.1596103e-17 0.12093649)
(201.02819 -7.2874293e-17 0.11237622)
(200.76215 -1.5120167e-20 0.56519791)
(220.02734 0 -20.232228)
(258.22053 -8.8102637e-18 -3.747003)
(241.98819 2.6648832e-16 -19.944229)
(251.03052 -2.4890884e-16 -5.4000149)
(245.17722 2.5399555e-16 -18.009604)
(248.09469 -2.3237905e-16 -7.8436304)
(245.68765 -2.2151931e-16 -15.797053)
(246.35264 2.0969469e-16 -10.158608)
(245.23913 0 -14.039878)
(245.02902 0 -11.773151)
(244.35706 1.7971268e-16 -13.101898)
(243.85469 -1.7025183e-16 -12.552001)
(243.2581 -1.0114287e-17 -12.855565)
(242.66357 2.8767973e-17 -12.815318)
(242.03976 -9.1040604e-18 -12.885855)
(241.3953 3.4529202e-17 -12.916733)
(240.72785 0 -12.949687)
(240.03789 0 -12.973451)
(239.32538 -2.3581359e-16 -12.989426)
(238.59056 2.0913314e-16 -12.996259)
(237.83375 0 -12.993102)
(237.05544 0 -12.978971)
(236.2563 -1.9028781e-16 -12.952881)
(235.43715 3.601152e-16 -12.913847)
(234.59902 -1.7032274e-16 -12.860888)
(233.74314 -2.0178472e-17 -12.79305)
(232.87092 -3.8217811e-17 -12.709427)
(231.98398 -1.4481391e-16 -12.609177)
(231.08413 1.1956583e-16 -12.491547)
(230.17338 0 -12.355888)
(229.2539 -3.0623396e-17 -12.201682)
(228.32801 0 -12.028562)
(227.39816 0 -11.836324)
(226.4669 2.06736e-16 -11.624952)
(225.53684 -2.1912408e-16 -11.394622)
(224.61063 2.2986591e-17 -11.145716)
(223.69091 -2.1689334e-17 -10.878825)
(222.78025 -4.1004466e-17 -10.594746)
(221.88116 -8.4942911e-20 -10.294479)
(220.99601 8.0692051e-20 -9.9792107)
(220.127 -7.6154066e-20 -9.6503064)
(219.27616 0 -9.3092794)
(218.44528 -1.2172912e-16 -8.957775)
(217.63594 1.1430934e-16 -8.5975364)
(216.84944 0 -8.2303775)
(216.08685 -5.0665671e-17 -7.8581558)
(215.34896 1.9043025e-16 -7.4827353)
(214.63634 -2.232391e-16 -7.1059627)
(213.9493 -2.1002819e-16 -6.7296375)
(213.28791 1.5746698e-16 -6.3554877)
(212.65208 1.1106068e-16 -5.985148)
(212.04148 -1.3863017e-16 -5.6201424)
(211.45565 -3.2502491e-17 -5.2618672)
(210.89399 -2.1352371e-16 -4.9115839)
(210.35575 1.1420082e-16 -4.5704076)
(209.8401 -1.0711104e-16 -4.2393071)
(209.34609 1.0018613e-16 -3.919102)
(208.8727 2.3474349e-16 -3.6104631)
(208.41882 -1.7556852e-16 -3.3139155)
(207.98329 0 -3.0298476)
(207.56484 -3.842166e-17 -2.7585123)
(207.16218 -7.1921814e-17 -2.5000323)
(206.77401 1.3438817e-16 -2.2544413)
(206.39894 1.2573691e-16 -2.0216543)
(206.03546 -2.3497392e-16 -1.8014897)
(205.68186 8.2295528e-17 -1.5936956)
(205.33621 5.1301825e-17 -1.397963)
(204.99639 9.5910978e-17 -1.2139545)
(204.66026 1.3446301e-16 -1.0413246)
(204.32565 2.4968302e-20 -0.8797396)
(203.99027 0 -0.72889489)
(203.65152 0 -0.58851586)
(203.3066 -3.4222386e-17 -0.45829587)
(202.95299 9.602114e-17 -0.33815125)
(202.5895 -8.9806994e-17 -0.22870073)
(202.21829 -8.4070382e-17 -0.12763078)
(201.84012 5.2461803e-17 -0.030447696)
(201.43464 0 0.032056622)
(201.02178 4.6077021e-17 0.069521347)
(200.71415 2.7059616e-20 0.44114031)
(220.66731 0 -23.568183)
(259.18276 1.9095225e-20 -6.2817921)
(242.4167 9.0682549e-18 -23.324022)
(251.72191 2.8828903e-16 -8.0248787)
(245.59699 3.3378286e-19 -21.297249)
(248.62757 -5.0566304e-16 -10.615761)
(246.06672 -3.2403107e-19 -18.911434)
(246.75431 4.5607135e-16 -13.085991)
(245.5786 -2.0983762e-16 -17.01155)
(245.32493 -1.2446906e-17 -14.770162)
(244.60933 1.1821819e-17 -16.017806)
(244.05362 -1.7950757e-16 -15.518624)
(243.40823 1.9124292e-16 -15.765186)
(242.76048 -1.8171384e-16 -15.728587)
(242.08316 3.0610061e-16 -15.772067)
(241.38342 -3.0840792e-16 -15.784595)
(240.65944 1.3745418e-16 -15.793886)
(239.91172 0 -15.792495)
(239.1404 0 -15.780691)
(238.3459 1.4642057e-17 -15.757129)
(237.52881 -2.7762939e-17 -15.720744)
(236.6899 0 -15.67039)
(235.83016 1.9936833e-16 -15.604929)
(234.95079 4.7283506e-19 -15.52325)
(234.05321 -3.5680835e-16 -15.424272)
(233.13909 1.685941e-16 -15.306978)
(232.21028 1.9948258e-17 -15.17044)
(231.26889 0 -15.013834)
(230.3172 -1.7870148e-16 -14.836471)
(229.3577 1.3475179e-16 -14.637822)
(228.39302 -2.2345901e-16 -14.417533)
(227.42593 2.1033021e-16 -14.175457)
(226.4593 -2.2763794e-16 -13.911658)
(225.49603 2.1427103e-16 -13.626436)
(224.53906 7.595874e-17 -13.320326)
(223.59127 0 -12.994101)
(222.65547 0 -12.648777)
(221.73432 4.2336465e-17 -12.285592)
(220.83034 3.9875775e-17 -11.905995)
(219.94582 -3.7542572e-17 -11.511625)
(219.08281 3.5331054e-17 -11.104283)
(218.24312 6.6657765e-17 -10.685899)
(217.42823 -6.2608856e-17 -10.258506)
(216.63935 3.5299538e-16 -9.8241982)
(215.87741 -2.7612594e-16 -9.3850965)
(215.143 5.1827322e-17 -8.9433187)
(214.43647 -4.8766745e-17 -8.5009415)
(213.75789 0 -8.0599739)
(213.10708 2.1434749e-16 -7.6223289)
(212.48366 -1.6054988e-16 -7.1898035)
(211.88704 0 -6.7640575)
(211.31648 0 -6.3466038)
(210.77111 1.3211133e-16 -5.9387947)
(210.24995 -6.1748146e-17 -5.5418201)
(209.75193 0 -5.1567033)
(209.2759 -1.6224771e-16 -4.7843033)
(208.82068 1.00996e-16 -4.4253194)
(208.38502 1.4176467e-16 -4.0802949)
(207.96764 -1.7634334e-16 -3.7496239)
(207.56722 1.6483339e-16 -3.4335647)
(207.18239 -1.5375457e-16 -3.1322422)
(206.81177 6.5675039e-20 -2.8456552)
(206.45399 0 -2.5737182)
(206.10765 6.250061e-17 -2.3162401)
(205.77124 -2.9140261e-16 -2.0729371)
(205.44308 1.6297604e-16 -1.8434623)
(205.12131 0 -1.6274182)
(204.80387 -1.4170803e-16 -1.4243848)
(204.48867 8.8026982e-17 -1.2339447)
(204.1736 1.2315016e-16 -1.055698)
(203.8565 3.5434901e-20 -0.88926776)
(203.53489 -7.1277954e-17 -0.73432616)
(203.20591 9.9688509e-17 -0.59062623)
(202.86689 -1.5486358e-16 -0.45811756)
(202.51707 8.6616816e-17 -0.33683565)
(202.15876 2.6908398e-17 -0.224653)
(201.78966 5.022694e-17 -0.12104414)
(201.3948 0 -0.050568774)
(201.00537 -4.3746052e-17 0.018051666)
(200.66776 2.0381266e-17 0.32065729)
(221.09256 0 -27.072922)
(259.93869 9.8035777e-18 -8.9223767)
(242.6451 -3.0572335e-16 -26.828514)
(252.22843 2.4962258e-16 -10.791808)
(245.82011 2.5641132e-16 -24.684097)
(248.91855 -5.0009908e-16 -13.542767)
(246.24598 2.3003375e-16 -22.108582)
(246.8998 2.3289215e-16 -16.175669)
(245.68127 -2.2071442e-16 -20.068769)
(245.36358 3.9286934e-17 -17.903262)
(244.60354 0 -19.034739)
(243.98904 0 -18.595472)
(243.28989 -2.2344532e-17 -18.781452)
(242.58307 -1.6964308e-16 -18.744331)
(241.8459 1.4039223e-16 -18.760093)
(241.0842 1.9044868e-17 -18.750789)
(240.29679 -3.6101592e-17 -18.733466)
(239.48431 3.0801907e-16 -18.703056)
(238.64722 -2.2635101e-16 -18.659026)
(237.78628 2.4568366e-16 -18.599918)
(236.90244 -2.0302419e-16 -18.52446)
(235.9969 2.7526861e-17 -18.431349)
(235.07109 1.563903e-16 -18.319315)
(234.12672 -1.9669886e-16 -18.187157)
(233.16573 0 -18.033744)
(232.19033 0 -17.858059)
(231.20294 0 -17.659223)
(230.20623 -1.9701299e-16 -17.436521)
(229.20306 1.855876e-16 -17.189433)
(228.19644 -3.5165982e-17 -16.917654)
(227.18955 0 -16.621123)
(226.18559 -2.8190935e-16 -16.300038)
(225.18785 2.3561696e-16 -15.954865)
(224.19956 -5.5730074e-17 -15.586348)
(223.22389 1.5760769e-16 -15.195514)
(222.2639 -4.8974568e-17 -14.783647)
(221.32243 -1.85775e-16 -14.352292)
(220.40211 2.1915991e-16 -13.903221)
(219.50532 -1.6453227e-16 -13.438407)
(218.63412 7.761062e-17 -12.959989)
(217.79024 -7.282689e-17 -12.470239)
(216.97506 1.368986e-16 -11.971513)
(216.18964 -6.4148829e-17 -11.466221)
(215.43466 -2.4143926e-16 -10.956776)
(214.7105 5.0910996e-16 -10.44556)
(214.0172 -2.1203907e-16 -9.9348885)
(213.35451 -1.4942557e-16 -9.4269773)
(212.72195 9.2902601e-17 -8.9239148)
(212.11879 8.7392205e-17 -8.4276412)
(211.54411 -1.6349051e-16 -7.9399312)
(210.99686 1.5275316e-16 -7.4623824)
(210.47583 0 -6.9964087)
(209.97976 1.3370637e-16 -6.5432372)
(209.50732 -1.8727994e-16 -6.1039105)
(209.05711 5.8363182e-17 -5.6792903)
(208.62774 5.4393155e-17 -5.2700649)
(208.21779 0 -4.876759)
(207.82585 0 -4.4997414)
(207.45049 0 -4.1392358)
(207.09029 0 -3.7953372)
(206.74381 0 -3.4680151)
(206.40961 -7.1469419e-17 -3.1571247)
(206.08631 0 -2.862445)
(205.7725 -5.3625462e-20 -2.5836668)
(205.46671 2.307909e-16 -2.3203969)
(205.16733 -2.146986e-16 -2.0721889)
(204.87257 -9.9946282e-17 -1.8385549)
(204.58047 -1.8583755e-16 -1.618994)
(204.289 2.5904288e-16 -1.4130176)
(203.99616 4.2639584e-20 -1.2201551)
(203.6999 7.4611631e-17 -1.0399572)
(203.39789 0 -0.87207269)
(203.08727 0 -0.71631233)
(202.76536 0 -0.57249763)
(202.43171 -1.1137259e-16 -0.44021449)
(202.08803 0 -0.31834163)
(201.73064 -9.6227918e-17 -0.20838516)
(201.35111 1.3415354e-16 -0.12552521)
(200.98145 8.315782e-17 -0.037398073)
(200.62075 -1.9283395e-17 0.20515345)
(221.30756 0 -30.754853)
(260.49497 0 -11.671639)
(242.67986 3.2165215e-16 -30.464923)
(252.55396 1.9299132e-17 -13.717197)
(245.85784 -2.6915986e-16 -28.180907)
(249.0299 0 -16.647348)
(246.22375 1.6127181e-17 -25.384091)
(246.91909 -3.0569757e-17 -19.419101)
(245.53514 0 -23.190933)
(245.14774 1.9270164e-16 -21.155732)
(244.33617 -4.1719654e-16 -22.148906)
(243.65231 1.9754934e-16 -21.777323)
(242.88957 2.3447691e-17 -21.904796)
(242.11375 0 -21.862657)
(241.30679 2.1040017e-17 -21.849857)
(240.47338 -3.3939298e-16 -21.814375)
(239.61303 7.4819248e-17 -21.765906)
(238.72664 2.5011945e-16 -21.700788)
(237.81508 2.3753894e-16 -21.617991)
(236.87955 -2.5621717e-16 -21.515943)
(235.92151 0 -21.393202)
(234.94269 -2.8749495e-16 -21.248357)
(233.94513 2.4410147e-16 -21.080059)
(232.93115 -2.0575106e-16 -20.887081)
(231.90333 1.9392411e-16 -20.668327)
(230.86456 -1.837845e-16 -20.42287)
(229.81794 3.4670314e-16 -20.15)
(228.76678 -1.6361004e-16 -19.849234)
(227.71458 1.5473812e-16 -19.520363)
(226.66494 -2.9173061e-16 -19.163462)
(225.62152 1.3730689e-16 -18.778919)
(224.588 1.2967817e-16 -18.367444)
(223.56797 -2.4467328e-16 -17.930062)
(222.56492 5.6802243e-17 -17.468119)
(221.58213 -5.7553422e-19 -16.983265)
(220.62265 2.5455875e-16 -16.477419)
(219.6892 0 -15.952755)
(218.78419 1.9339204e-19 -15.411653)
(217.90962 0 -14.856656)
(217.06712 -7.9462004e-17 -14.290425)
(216.25788 -1.4933715e-16 -13.715696)
(215.48271 7.0115326e-17 -13.135222)
(214.742 0 -12.551733)
(214.03578 -6.1788032e-17 -11.967889)
(213.36372 2.8920473e-16 -11.386243)
(212.7252 -3.2468675e-16 -10.809208)
(212.11931 -3.0423207e-16 -10.239028)
(211.54493 2.8405908e-16 -9.677763)
(211.00075 -1.7727362e-16 -9.1272664)
(210.48534 0 -8.5891847)
(209.99713 0 -8.0649507)
(209.53453 7.2353453e-17 -7.5557863)
(209.0959 6.7523669e-17 -7.0627087)
(208.67957 1.2584272e-16 -6.5865383)
(208.28391 -5.8681799e-17 -6.12791)
(207.90733 -1.0931294e-16 -5.6872862)
(207.54823 -2.0385246e-16 -5.2649701)
(207.20508 -9.5104412e-17 -4.861118)
(206.87637 1.765668e-16 -4.4757527)
(206.56063 0 -4.1087817)
(206.25638 -7.6480222e-17 -3.760001)
(205.96219 -1.4216496e-16 -3.4291089)
(205.67669 1.3208444e-16 -3.1157417)
(205.3985 6.1265308e-17 -2.8194653)
(205.12622 5.6982634e-17 -2.539776)
(204.85834 0 -2.2761283)
(204.59316 1.9645899e-16 -2.0279462)
(204.32885 1.8230087e-16 -1.7946527)
(204.06346 -2.5368383e-16 -1.5756896)
(203.79509 7.8455818e-17 -1.3705129)
(203.52187 -7.2728574e-17 -1.1786111)
(203.2416 -4.7116262e-20 -0.9996374)
(202.95148 2.4997474e-16 -0.83341424)
(202.64897 -2.3167971e-16 -0.67950999)
(202.33367 5.3636397e-17 -0.53734874)
(202.00621 1.4920323e-16 -0.4072715)
(201.66282 -4.6090674e-17 -0.29083174)
(201.30235 -4.2695691e-17 -0.19227687)
(200.95091 0 -0.089889933)
(200.57152 3.6586677e-17 0.095422633)
(221.32284 3.9120758e-16 -34.623774)
(260.85652 5.4326462e-19 -14.536892)
(242.49893 -3.5851478e-16 -34.249024)
(252.69208 0 -16.806395)
(245.63346 0 -31.753376)
(248.79921 -2.6747907e-16 -19.924972)
(245.89681 2.705906e-16 -28.714399)
(246.42144 6.4177756e-17 -22.823516)
(245.11965 -2.4359195e-16 -26.413856)
(244.65253 2.304044e-16 -24.554242)
(243.77888 -2.4625353e-16 -25.387807)
(243.0128 2.0697709e-16 -25.079493)
(242.17435 -4.9102852e-17 -25.147951)
(241.31782 -4.6563696e-17 -25.091195)
(240.42954 -1.7644923e-16 -25.044789)
(239.51334 1.6665981e-16 -24.975368)
(238.56941 -3.5591545e-16 -24.887783)
(237.59906 5.982749e-16 -24.779071)
(236.6037 -2.8267834e-16 -24.647809)
(235.58512 -2.6822089e-16 -24.492285)
(234.54544 2.5293531e-16 -24.310924)
(233.4871 -3.0122061e-17 -24.102244)
(232.41287 -2.2674636e-16 -23.864893)
(231.32586 2.1359695e-16 -23.597713)
(230.22946 2.5303516e-16 -23.299757)
(229.12732 -1.4267831e-16 -22.970337)
(228.02333 0 -22.609068)
(226.92152 2.5517268e-16 -22.215881)
(225.82604 -3.2050725e-16 -21.79107)
(224.74105 1.127734e-16 -21.335291)
(223.67069 -2.8513109e-16 -20.849582)
(222.61894 2.0088753e-16 -20.335351)
(221.58962 -6.330043e-17 -19.79437)
(220.58624 2.3788314e-16 -19.228736)
(219.61201 -2.2313903e-16 -18.640861)
(218.66971 -2.103095e-16 -18.0334)
(217.7617 1.9711783e-16 -17.409224)
(216.88987 -4.6233067e-17 -16.771356)
(216.05562 0 -16.122912)
(215.25988 8.1816187e-17 -15.467043)
(214.50307 -7.6363645e-17 -14.806886)
(213.78518 0 -14.1455)
(213.1058 1.3446896e-16 -13.485827)
(212.46412 -6.2902431e-17 -12.830647)
(211.85903 -1.7637852e-16 -12.182547)
(211.28914 5.5017131e-16 -11.543896)
(210.75286 -2.0599239e-16 -10.91683)
(210.24842 9.6078925e-17 -10.303238)
(209.77394 -2.6940493e-16 -9.7047647)
(209.32748 -1.8510959e-19 -9.1228086)
(208.90707 1.5620703e-16 -8.558534)
(208.51073 -1.4572577e-16 -8.0128791)
(208.13652 -6.7818631e-17 -7.4865721)
(207.78257 -6.3173126e-17 -6.9801457)
(207.44704 -1.1795982e-16 -6.4939542)
(207.1282 2.190615e-16 -6.0281907)
(206.82438 0 -5.5829032)
(206.53398 9.4669868e-17 -5.1580103)
(206.25548 -3.5227645e-16 -4.7533151)
(205.9874 2.4517524e-16 -4.3685259)
(205.7283 7.5878095e-17 -4.0032565)
(205.4768 1.4096388e-16 -3.6570453)
(205.23156 1.3097814e-16 -3.3293866)
(204.9913 -1.2118648e-16 -3.0197223)
(204.75469 -1.1230527e-16 -2.7274421)
(204.52034 -3.1242266e-16 -2.4519066)
(204.28671 -4.2382509e-20 -2.1924595)
(204.05206 -8.9289321e-17 -1.9484541)
(203.81459 0 -1.7192653)
(203.57252 -2.2954926e-16 -1.504278)
(203.32411 7.0782669e-17 -1.3029381)
(203.06732 0 -1.1149182)
(202.79951 1.2110747e-16 -0.93997011)
(202.51842 0 -0.77735014)
(202.22336 1.0346899e-16 -0.62670689)
(201.91348 -1.4338715e-16 -0.48994313)
(201.58636 1.3250641e-16 -0.36681494)
(201.24801 -8.1607927e-17 -0.25224713)
(200.91376 7.5370275e-17 -0.14265012)
(200.51959 0 -0.0078490729)
(221.12576 -4.1097711e-16 -38.686347)
(261.01054 3.6301616e-16 -17.535893)
(242.06697 -3.3260605e-16 -38.210391)
(252.5744 3.3072832e-16 -20.071881)
(245.1244 3.1671972e-16 -35.384632)
(248.34146 -1.8001228e-17 -23.388411)
(245.3275 -2.8358646e-16 -32.127975)
(245.79627 -2.6920719e-16 -26.420394)
(244.40765 2.8653659e-16 -29.756663)
(243.83295 0 -28.099971)
(242.88677 2.8591303e-17 -28.758501)
(242.02592 0 -28.501277)
(241.09908 -1.2859897e-16 -28.510203)
(240.14957 2.4281176e-16 -28.427196)
(239.16779 0 -28.339373)
(238.15711 0 -28.225728)
(237.11853 0 -28.088072)
(236.05396 3.9107097e-17 -27.923717)
(234.96558 0 -27.730948)
(233.85597 -2.4459503e-16 -27.507955)
(232.72811 3.295534e-16 -27.253098)
(231.58536 1.2470012e-16 -26.964934)
(230.43144 1.7682242e-16 -26.642233)
(229.27041 -2.777409e-16 -26.284066)
(228.10661 -5.2339499e-17 -25.889826)
(226.94458 -2.4770134e-16 -25.459278)
(225.78904 1.8642772e-16 -24.99259)
(224.64476 -2.2019694e-16 -24.490366)
(223.51649 8.2384559e-17 -23.953645)
(222.40885 7.7892608e-17 -23.383913)
(221.32628 0 -22.783087)
(220.27289 2.7711829e-16 -22.153485)
(219.25242 -2.6027302e-16 -21.497793)
(218.26817 0 -20.819011)
(217.3229 -2.3010351e-16 -20.120404)
(216.41883 2.1552661e-16 -19.405425)
(215.5576 -1.0157184e-16 -18.67765)
(214.74026 1.9016711e-16 -17.940713)
(213.96729 -2.6720317e-16 -17.198229)
(213.23863 1.2827942e-19 -16.453732)
(212.55372 -1.5612399e-16 -15.710618)
(211.91154 -7.3067487e-17 -14.972094)
(211.31071 -1.3714077e-16 -14.241138)
(210.74951 2.5565469e-16 -13.520469)
(210.22599 -1.193041e-16 -12.812528)
(209.73798 0 -12.119469)
(209.28321 -3.8108879e-19 -11.443152)
(208.85934 9.7059537e-17 -10.785154)
(208.46397 0 -10.146775)
(208.09476 8.4425332e-17 -9.5290572)
(207.74939 7.8941839e-17 -8.9327987)
(207.42564 -7.3295481e-17 -8.3585772)
(207.12135 2.7289369e-16 -7.8067691)
(206.83452 -2.5369386e-16 -7.2775714)
(206.56322 -1.1799103e-16 -6.7710215)
(206.30568 -1.0961441e-16 -6.2870176)
(206.06021 1.0178276e-16 -5.8253361)
(205.82524 1.8881048e-16 -5.3856477)
(205.59929 -3.5023836e-16 -4.9675327)
(205.38095 4.0590906e-16 -4.5705004)
(205.16886 -1.504051e-16 -4.1939855)
(204.96171 1.3941466e-16 -3.8373736)
(204.75829 -1.2905902e-16 -3.500026)
(204.5574 2.3902432e-16 -3.1812679)
(204.35784 -3.31818e-16 -2.8803927)
(204.15835 2.0455048e-16 -2.596677)
(203.95753 -7.9139709e-20 -2.3293955)
(203.75383 8.7436296e-17 -2.0778406)
(203.54556 0 -1.8413232)
(203.33108 0 -1.6191659)
(203.10879 0 -1.4108007)
(202.87679 -1.2708036e-16 -1.2159111)
(202.63276 1.2771082e-20 -1.0340769)
(202.37476 0 -0.8642738)
(202.10141 0 -0.70676987)
(201.81035 9.1914151e-17 -0.56474555)
(201.50171 -1.6937754e-16 -0.43456256)
(201.18784 0 -0.3041052)
(200.86985 0 -0.19266033)
(200.46504 -1.3196079e-16 -0.10407372)
(220.68246 2.7742436e-17 -42.95191)
(260.91968 -7.8597023e-16 -20.690603)
(241.35602 3.4797067e-16 -42.312441)
(251.92922 -2.1739695e-17 -23.519543)
(244.30031 3.7331046e-16 -39.137439)
(247.54824 -3.520398e-16 -27.075965)
(244.447 0 -35.65825)
(244.78392 -3.1711626e-16 -30.209581)
(243.34381 2.3312429e-16 -33.214447)
(242.64485 2.2142507e-16 -31.785029)
(241.61263 -2.3901036e-16 -32.263297)
(240.64288 0 -32.038295)
(239.61322 1.9069926e-19 -31.98553)
(238.55711 0 -31.862421)
(237.46859 3.8500988e-16 -31.721768)
(236.35104 -7.2732104e-16 -31.55021)
(235.20644 3.433739e-16 -31.34773)
(234.03757 -4.0562528e-17 -31.11174)
(232.84764 -3.8544695e-17 -30.840348)
(231.64028 3.6634884e-17 -30.531732)
(230.41963 -6.8411008e-17 -30.184344)
(229.1902 -3.2408565e-16 -29.79694)
(227.95687 3.050219e-16 -29.368646)
(226.72482 5.7501413e-17 -28.899019)
(225.49945 -2.7251112e-16 -28.388073)
(224.28625 -6.9953052e-19 -27.836341)
(223.09072 2.8943764e-16 -27.244869)
(221.91828 -1.8166539e-16 -26.615237)
(220.7741 -6.13901e-19 -25.949541)
(219.66304 0 -25.250366)
(218.58952 0 -24.520744)
(217.55741 -7.1490082e-17 -23.764095)
(216.56999 1.3383961e-16 -22.984167)
(215.62989 0 -22.184942)
(214.73901 -1.1829955e-16 -21.370565)
(213.89856 2.2135687e-16 -20.545253)
(213.10906 -1.0370483e-16 -19.713202)