/*--------------------------------*- C++ -*----------------------------------*\
  =========                 |
  \\      /  F ield         | OpenFOAM: The Open Source CFD Toolbox
   \\    /   O peration     | Website:  https://openfoam.org
    \\  /    A nd           | Version:  12
     \\/     M anipulation  |
\*---------------------------------------------------------------------------*/
FoamFile
{
    format      ascii;
    class       volScalarField;
    location    "0.09";
    object      alphat;
}
// * * * * * * * * * * * * * * * * * * * * * * * * * * * * * * * * * * * * * //

dimensions      [1 -1 -1 0 0 0 0];

internalField   nonuniform List<scalar> 
16000
(
5.0000028e-07
1.0860657e-05
1.9666949e-05
2.6198428e-05
1.9958503e-05
2.7558616e-05
1.9352534e-05
2.6635428e-05
2.0635026e-05
2.8616851e-05
2.3950221e-05
2.8312337e-05
2.5749483e-05
2.6509923e-05
2.5611401e-05
2.549628e-05
2.5247977e-05
2.519941e-05
2.523561e-05
2.5381188e-05
2.5627552e-05
2.5974538e-05
2.6419733e-05
2.6963594e-05
2.7608796e-05
2.8362396e-05
2.9233597e-05
3.0236999e-05
3.1390426e-05
3.2713181e-05
3.4226457e-05
3.5958272e-05
3.7944742e-05
4.0230398e-05
4.2870102e-05
4.5929437e-05
4.9486708e-05
5.3635442e-05
5.8491474e-05
6.4198593e-05
7.0926157e-05
7.8874109e-05
8.8294843e-05
9.9498538e-05
0.00011285577
0.00012881209
0.0001479209
0.00017085837
0.00019845033
0.00023170668
0.00027186889
0.00032046839
0.00037938967
0.00045095706
0.00053803722
0.00064418114
0.00077381047
0.00093246722
0.0011271216
0.0011835179
0.0011841895
0.0011848015
0.0011852774
0.0011856069
0.0011857772
0.0011857692
0.001185561
0.0011851324
0.0011844657
0.0011835214
0.0011821963
0.0011804485
0.001179015
0.0011780312
0.0011772997
0.0011766058
0.0011757115
0.00117418
0.0011728718
0.0011731745
4.4377006e-07
1.0287999e-05
2.1421517e-05
2.3417862e-05
1.7963958e-05
2.4683094e-05
1.7160723e-05
2.3302395e-05
1.8229024e-05
2.5248981e-05
2.1676476e-05
2.5501163e-05
2.3537234e-05
2.4004103e-05
2.331101e-05
2.3137518e-05
2.2936169e-05
2.2882714e-05
2.2920665e-05
2.3055698e-05
2.3284971e-05
2.3607893e-05
2.4022745e-05
2.4530105e-05
2.5132103e-05
2.5835401e-05
2.6648057e-05
2.7583282e-05
2.865796e-05
2.9890926e-05
3.1301968e-05
3.2916759e-05
3.4768792e-05
3.6899378e-05
3.935993e-05
4.2212208e-05
4.5530439e-05
4.9402685e-05
5.3937082e-05
5.9269959e-05
6.5564312e-05
7.3008851e-05
8.1841761e-05
9.2359204e-05
0.00010491765
0.00011994146
0.00013795943
0.00015961998
0.00018571691
0.00021722173
0.00025532886
0.00030151497
0.00035759869
0.00042582624
0.00050896888
0.00061045872
0.00073456514
0.00088662086
0.0010733135
0.0011830129
0.0011836734
0.0011842544
0.001184708
0.0011850181
0.0011851728
0.0011851529
0.0011849353
0.0011844981
0.0011838261
0.0011828956
0.0011816258
0.0011799636
0.0011785848
0.0011776284
0.0011769051
0.0011762038
0.0011752625
0.0011737722
0.0011723515
0.0011721108
3.9768984e-07
9.8421232e-06
2.0225914e-05
2.1402093e-05
1.6070864e-05
2.1705304e-05
1.5267806e-05
2.0229532e-05
1.6377744e-05
2.2130021e-05
1.9754016e-05
2.2691073e-05
2.131617e-05
2.1487199e-05
2.0960733e-05
2.0761575e-05
2.0595978e-05
2.0547825e-05
2.0588707e-05
2.0717249e-05
2.0932143e-05
2.123317e-05
2.1618929e-05
2.2090306e-05
2.2648989e-05
2.3301411e-05
2.4054816e-05
2.4921198e-05
2.5916293e-05
2.7058428e-05
2.8366405e-05
2.9864008e-05
3.1582522e-05
3.356044e-05
3.5846059e-05
3.8497554e-05
4.1585449e-05
4.5193407e-05
4.9422972e-05
5.4402864e-05
6.0290602e-05
6.726594e-05
7.5554496e-05
8.5438829e-05
9.7263466e-05
0.00011143476
0.00012845988
0.00014896268
0.00017370864
0.00020363601
0.00023989767
0.00028392173
0.00033746811
0.00040271346
0.00048234415
0.00057968616
0.00069887373
0.00084506272
0.0010246957
0.0011826823
0.0011833218
0.0011838519
0.001184262
0.001184532
0.0011846508
0.0011845997
0.0011843556
0.0011838954
0.0011832046
0.0011822698
0.0011810318
0.0011794518
0.0011781427
0.0011772225
0.0011765094
0.0011757959
0.0011748134
0.0011733299
0.0011718264
0.0011713538
3.5570446e-07
9.5056808e-06
1.9172949e-05
1.9854157e-05
1.443225e-05
1.9146598e-05
1.359653e-05
1.7663278e-05
1.4733298e-05
1.949082e-05
1.8029121e-05
2.0209429e-05
1.9271447e-05
1.9225085e-05
1.8822348e-05
1.8620182e-05
1.8485486e-05
1.8448011e-05
1.8494667e-05
1.8620569e-05
1.8825066e-05
1.9108384e-05
1.9469451e-05
1.9909582e-05
2.0430165e-05
2.1037542e-05
2.1738414e-05
2.254381e-05
2.3468385e-05
2.4530052e-05
2.5746962e-05
2.7141302e-05
2.8742574e-05
3.0586853e-05
3.2719814e-05
3.5196554e-05
3.8084407e-05
4.1463594e-05
4.5430424e-05
5.0106556e-05
5.5645272e-05
6.2219484e-05
7.004469e-05
7.9391352e-05
9.059522e-05
0.00010404866
0.0001202416
0.00013977854
0.00016340277
0.00019202746
0.00022677303
0.00026903074
0.00032051564
0.00038335221
0.00046016382
0.00055419812
0.00066948979
0.00081106921
0.00098521658
0.0011825611
0.0011831694
0.0011836309
0.0011839793
0.0011841917
0.0011842576
0.0011841594
0.0011838746
0.00118338
0.0011826609
0.0011817124
0.0011804947
0.0011789725
0.0011777288
0.0011768402
0.001176133
0.0011754051
0.0011743907
0.0011728897
0.0011713385
0.0011706817
3.2257814e-07
9.2532777e-06
1.8256133e-05
1.983819e-05
1.4352354e-05
1.692053e-05
1.2129702e-05
1.5464608e-05
1.3320464e-05
1.7216007e-05
1.6497116e-05
1.7976472e-05
1.7364812e-05
1.7170628e-05
1.6859153e-05
1.6670121e-05
1.6560954e-05
1.6535124e-05
1.6586476e-05
1.6709319e-05
1.6903231e-05
1.7169072e-05
1.7506146e-05
1.7916303e-05
1.8400814e-05
1.8965994e-05
1.9618167e-05
2.0367602e-05
2.1227899e-05
2.2216515e-05
2.3351169e-05
2.4652721e-05
2.6149198e-05
2.787459e-05
2.9872317e-05
3.2194802e-05
3.4906535e-05
3.8084931e-05
4.1822355e-05
4.6233757e-05
5.1468821e-05
5.7695268e-05
6.5120635e-05
7.4004035e-05
8.467442e-05
9.7513103e-05
0.00011299559
0.00013171026
0.00015438156
0.00018190249
0.00021536598
0.00025613262
0.00030587942
0.00036668672
0.00044112469
0.00053237457
0.00064438715
0.00078208751
0.00095162513
0.0011606437
0.0011831961
0.0011835729
0.0011838422
0.0011839802
0.0011839768
0.0011838159
0.0011834764
0.0011829355
0.001182178
0.0011812049
0.0011799962
0.0011785223
0.0011773433
0.0011764851
0.0011757807
0.0011750371
0.0011740005
0.0011724887
0.0011708915
0.0011700996
2.9745068e-07
9.097909e-06
1.7527862e-05
1.9597384e-05
1.4108703e-05
1.4974989e-05
1.1425973e-05
1.36507e-05
1.2281152e-05
1.5298541e-05
1.5158744e-05
1.6019968e-05
1.5626356e-05
1.5344389e-05
1.5090711e-05
1.4917798e-05
1.4825175e-05
1.480665e-05
1.4858854e-05
1.4976326e-05
1.5158609e-05
1.5407115e-05
1.572137e-05
1.6103612e-05
1.6555207e-05
1.7082332e-05
1.7691027e-05
1.8390974e-05
1.9194753e-05
2.0119344e-05
2.1182222e-05
2.2403181e-05
2.380908e-05
2.5432187e-05
2.7314078e-05
2.9504966e-05
3.2066946e-05
3.5075203e-05
3.8619563e-05
4.2809206e-05
4.7790554e-05
5.3727887e-05
6.0823575e-05
6.9326489e-05
7.9561002e-05
9.1900876e-05
0.00010681067
0.0001248669
0.00014677945
0.0001734276
0.00020588354
0.00024548568
0.00029388283
0.00035312249
0.00042573599
0.00051485547
0.00062436933
0.00075912395
0.00092517396
0.001130048
0.0011833901
0.0011836682
0.0011838431
0.0011838918
0.0011838048
0.0011835674
0.0011831604
0.0011825626
0.0011817576
0.0011807497
0.001179539
0.0011781031
0.0011769865
0.0011761574
0.0011754537
0.001174696
0.0011736477
0.001172127
0.0011705019
0.001169558
2.6393204e-07
9.0106281e-06
1.6958223e-05
1.8547273e-05
1.3983487e-05
1.3221742e-05
1.148163e-05
1.2555207e-05
1.1900739e-05
1.3656023e-05
1.3961858e-05
1.4297108e-05
1.4018885e-05
1.3697144e-05
1.3476088e-05
1.3319485e-05
1.3238769e-05
1.3226048e-05
1.3278552e-05
1.3391402e-05
1.356379e-05
1.3797584e-05
1.4092328e-05
1.4365541e-05
1.4778531e-05
1.5263838e-05
1.5826812e-05
1.6476335e-05
1.7223769e-05
1.8085244e-05
1.9077959e-05
2.0220664e-05
2.1539147e-05
2.3064026e-05
2.4835166e-05
2.6900757e-05
2.9320644e-05
3.2167822e-05
3.5530438e-05
3.9810965e-05
4.4586681e-05
5.029109e-05
5.7124226e-05
6.5326197e-05
7.5218104e-05
8.7169587e-05
0.00010163768
0.00011919096
0.00014052846
0.0001665219
0.00019822887
0.00023697344
0.00028438508
0.00034248882
0.00041378982
0.00050138658
0.00060912375
0.00074179113
0.00090537482
0.0011073257
0.0011837337
0.0011839009
0.0011839681
0.0011839152
0.0011837324
0.0011834067
0.0011829213
0.001182257
0.0011813971
0.0011803448
0.0011791211
0.0011777203
0.0011766622
0.0011758602
0.0011751556
0.0011743861
0.0011733384
0.0011718157
0.0011701725
0.0011692665
2.4080495e-07
8.9612155e-06
1.6476202e-05
1.6866884e-05
1.2850269e-05
1.1519046e-05
9.9579758e-06
1.121381e-05
1.0473203e-05
1.2270083e-05
1.2763123e-05
1.2720761e-05
1.2489218e-05
1.2173068e-05
1.1977905e-05
1.1842244e-05
1.1775732e-05
1.1771747e-05
1.1755929e-05
1.1849834e-05
1.2003283e-05
1.2217009e-05
1.2489068e-05
1.2819753e-05
1.3214167e-05
1.3676123e-05
1.4211058e-05
1.4827775e-05
1.5537018e-05
1.6354425e-05
1.7297395e-05
1.8384123e-05
1.9639883e-05
2.1094252e-05
2.2786095e-05
2.4762323e-05
2.7081427e-05
2.9815055e-05
3.3050727e-05
3.689513e-05
4.1478468e-05
4.6965683e-05
5.3556591e-05
6.2002555e-05
7.1646601e-05
8.3321912e-05
9.7481826e-05
0.00011469083
0.00013564108
0.00016120331
0.00019242711
0.00023063069
0.00027743366
0.00033485031
0.00040537343
0.00049208499
0.00059880633
0.00073029495
0.00089249678
0.0010928225
0.0011842061
0.0011842521
0.0011842012
0.0011840366
0.0011837486
0.0011833254
0.0011827527
0.0011820144
0.0011810938
0.0011799894
0.0011787405
0.0011773775
0.0011763722
0.001175595
0.0011748892
0.0011741111
0.0011730744
0.0011715656
0.0011699337
0.0011691524
2.2246494e-07
8.9133616e-06
1.5983424e-05
1.4749031e-05
1.0566069e-05
1.0240615e-05
8.2103075e-06
9.5553161e-06
9.7248433e-06
1.1044361e-05
1.1547409e-05
1.1258346e-05
1.1048365e-05
1.076454e-05
1.0595296e-05
1.0409865e-05
1.0332181e-05
1.0322273e-05
1.037176e-05
1.0477971e-05
1.0636716e-05
1.0849488e-05
1.1116217e-05
1.143694e-05
1.1816602e-05
1.2259951e-05
1.277251e-05
1.3363111e-05
1.4042082e-05
1.4824556e-05
1.5728251e-05
1.6771066e-05
1.7978096e-05
1.93782e-05
2.1009636e-05
2.2918553e-05
2.5162637e-05
2.7812805e-05
3.0955831e-05
3.4697417e-05
3.9168056e-05
4.453021e-05
5.0986628e-05
5.8772948e-05
6.8191409e-05
7.9618575e-05
9.433368e-05
0.00011135652
0.0001321069
0.00015746091
0.00018846717
0.00022644639
0.00027301922
0.0003302002
0.00040048461
0.00048695594
0.00059343371
0.00072466852
0.0008865947
0.0010866181
0.0011847833
0.0011847
0.001184523
0.0011842397
0.0011838399
0.0011833127
0.0011826463
0.0011818279
0.0011808429
0.0011796824
0.001178395
0.0011770788
0.0011761197
0.0011753647
0.0011746599
0.0011738776
0.0011728596
0.0011713856
0.0011697904
0.001169082
2.0348239e-07
8.868213e-06
1.444762e-05
1.2835478e-05
8.553622e-06
9.0908776e-06
7.2882955e-06
8.6273395e-06
9.0108444e-06
9.8837997e-06
1.0340878e-05
9.925917e-06
9.72342e-06
9.3870302e-06
9.2070724e-06
9.097498e-06
9.0547953e-06
9.0703689e-06
9.1381179e-06
9.2544771e-06
9.4200408e-06
9.6330938e-06
9.8960837e-06
1.0209376e-05
1.0578168e-05
1.100764e-05
1.1503471e-05
1.2074671e-05
1.2731308e-05
1.3488053e-05
1.4363016e-05
1.5374149e-05
1.6546628e-05
1.7908914e-05
1.949903e-05
2.136283e-05
2.3557704e-05
2.6154454e-05
2.9240177e-05
3.2920995e-05
3.7327426e-05
4.2621353e-05
4.9008966e-05
5.6725734e-05
6.6076138e-05
7.7438498e-05
9.1279994e-05
0.00010815018
0.00012992346
0.0001552942
0.00018635185
0.00022442816
0.00027115552
0.00032856161
0.00039915962
0.00048605394
0.00059308566
0.00072502664
0.00088783087
0.0010889346
0.0011854387
0.0011852202
0.0011849122
0.0011845057
0.0011839902
0.0011833556
0.0011825918
0.0011816889
0.0011806365
0.0011794207
0.0011780819
0.0011768273
0.0011759072
0.0011751723
0.0011744741
0.0011736943
0.0011726975
0.0011712796
0.0011697767
0.0011691971
1.879224e-07
8.8212739e-06
1.148142e-05
1.0671811e-05
7.019973e-06
8.0915682e-06
6.6448201e-06
7.7548932e-06
8.436663e-06
8.8319543e-06
9.1563216e-06
8.6221359e-06
8.3687199e-06
8.1374358e-06
8.0068269e-06
7.9376804e-06
7.9249835e-06
7.9618383e-06
8.0460426e-06
8.1739562e-06
8.3439965e-06
8.5588456e-06
8.8204452e-06
9.1296036e-06
9.4916168e-06
9.912144e-06
1.039716e-05
1.0955917e-05
1.1598449e-05
1.2339057e-05
1.3128658e-05
1.4109204e-05
1.5248994e-05
1.6576061e-05
1.812819e-05
1.9950976e-05
2.2101597e-05
2.4650803e-05
2.7686152e-05
3.1314506e-05
3.5667573e-05
4.1229477e-05
4.7614671e-05
5.5341844e-05
6.4717919e-05
7.6124431e-05
9.0040605e-05
0.00010702744
0.00012779266
0.00015321912
0.00018607677
0.00022457549
0.00027184793
0.00032994803
0.00040142334
0.00048942005
0.00059782591
0.00073146496
0.00089634557
0.0010999702
0.0011861442
0.0011857872
0.001185346
0.0011848146
0.0011841822
0.0011834392
0.0011825769
0.0011815871
0.0011804639
0.0011791977
0.0011778074
0.001176625
0.0011757374
0.0011750212
0.0011743387
0.0011735699
0.0011725903
0.0011712498
0.0011699017
0.0011694267
1.7407034e-07
8.7773108e-06
9.0609757e-06
9.0543214e-06
6.1628932e-06
7.1750384e-06
6.1051995e-06
6.9927547e-06
7.8571067e-06
7.852959e-06
7.8706717e-06
7.4151405e-06
7.20958e-06
7.0417082e-06
6.9529643e-06
6.9171041e-06
6.9304352e-06
6.98768e-06
7.0850097e-06
7.2229577e-06
7.4001274e-06
7.6186314e-06
7.8815463e-06
8.1902019e-06
8.5499918e-06
8.9284278e-06
9.4008405e-06
9.9463258e-06
1.0574778e-05
1.1300023e-05
1.213872e-05
1.311254e-05
1.424597e-05
1.5567166e-05
1.7114314e-05
1.8933529e-05
2.1082737e-05
2.3633665e-05
2.6675652e-05
3.031783e-05
3.4694989e-05
3.9975639e-05
4.6366393e-05
5.4115199e-05
6.3533683e-05
7.5661572e-05
8.9784923e-05
0.00010704444
0.00012815862
0.00015403474
0.00018578169
0.00022688378
0.00027509828
0.00033437021
0.0004072986
0.00049709392
0.00060771752
0.00074407924
0.00091228145
0.0011199287
0.0011868715
0.001186375
0.0011858011
0.0011851454
0.0011843972
0.0011835473
0.001182588
0.0011815116
0.0011803139
0.0011790018
0.0011775953
0.0011764727
0.0011756122
0.0011749141
0.0011742583
0.0011735118
0.0011725394
0.0011712879
0.001170166
0.0011697723
1.6176495e-07
8.7262147e-06
7.2084843e-06
7.9534435e-06
5.4949962e-06
6.3514305e-06
5.6450482e-06
6.3224088e-06
7.1655232e-06
6.7410209e-06
6.7106466e-06
6.3608049e-06
6.1991383e-06
6.082512e-06
6.0296724e-06
6.0233741e-06
6.0589013e-06
6.1339938e-06
6.2456919e-06
6.3946137e-06
6.5802545e-06
6.8050097e-06
7.0424772e-06
7.3479008e-06
7.7041415e-06
8.1161843e-06
8.5923294e-06
9.1414898e-06
9.7738204e-06
1.0503402e-05
1.1347096e-05
1.2326351e-05
1.3467119e-05
1.479801e-05
1.6357905e-05
1.819386e-05
2.0365166e-05
2.2945111e-05
2.6025628e-05
2.9719293e-05
3.416422e-05
3.9532586e-05
4.6041323e-05
5.3944307e-05
6.3562395e-05
7.5294911e-05
8.9638353e-05
0.00010719347
0.00012983396
0.00015638462
0.00018897454
0.000229014
0.00028089593
0.00034182547
0.00041679304
0.00050909753
0.00062280285
0.00076293963
0.00093575012
0.0011489805
0.0011875931
0.0011869586
0.001186255
0.001185478
0.0011846172
0.0011836635
0.0011826101
0.0011814506
0.0011801781
0.0011788156
0.001177441
0.001176371
0.0011755336
0.0011748528
0.0011742334
0.0011735239
0.0011725506
0.0011713796
0.0011705371
0.0011701494
1.5085708e-07
8.6644701e-06
5.7843749e-06
6.9546205e-06
4.903466e-06
5.6223033e-06
5.2552837e-06
5.6401275e-06
6.2905989e-06
5.7762169e-06
5.6929665e-06
5.4391028e-06
5.3187843e-06
5.2450206e-06
5.2240221e-06
5.2439777e-06
5.30105e-06
5.3938131e-06
5.5201727e-06
5.6600547e-06
5.8495896e-06
6.0782091e-06
6.348692e-06
6.6646143e-06
7.0310633e-06
7.4534628e-06
7.9400397e-06
8.5004401e-06
9.145091e-06
9.8882869e-06
1.074706e-05
1.1743157e-05
1.2844712e-05
1.4186407e-05
1.5760039e-05
1.7613571e-05
1.980789e-05
2.2417903e-05
2.5538181e-05
2.928533e-05
3.3801942e-05
3.9563335e-05
4.6251037e-05
5.4382005e-05
6.4287598e-05
7.6377809e-05
9.117166e-05
0.00010929479
0.00013151367
0.00016023703
0.00019394161
0.00023536271
0.00028629114
0.00035228792
0.00042988801
0.00052542159
0.00064308717
0.00078807103
0.00096680609
0.0011872311
0.0011882836
0.001187515
0.0011866871
0.0011857935
0.001184825
0.0011837722
0.0011826283
0.0011813904
0.0011800512
0.0011786278
0.0011773399
0.0011763189
0.001175503
0.0011748391
0.0011742607
0.0011736032
0.0011726371
0.0011715171
0.0011709879
0.0011707023
1.4120152e-07
8.5452178e-06
4.6984901e-06
6.0676829e-06
4.3761526e-06
4.974799e-06
4.9172923e-06
4.8975556e-06
5.4053842e-06
4.9158951e-06
4.811062e-06
4.6365312e-06
4.5556814e-06
4.5191165e-06
4.527272e-06
4.5718134e-06
4.6496091e-06
4.7411965e-06
4.8768557e-06
5.0472925e-06
5.2536798e-06
5.4979375e-06
5.7836198e-06
6.1145305e-06
6.4964084e-06
6.9349823e-06
7.4385691e-06
7.9931672e-06
8.6511413e-06
9.4087169e-06
1.0283e-05
1.1295791e-05
1.2473751e-05
1.3850389e-05
1.5465696e-05
1.7369219e-05
1.9624604e-05
2.230957e-05
2.552241e-05
2.9385571e-05
3.404807e-05
3.9697715e-05
4.6561685e-05
5.4919853e-05
6.5117145e-05
7.822942e-05
9.3598537e-05
0.00011243718
0.00013554705
0.00016391686
0.00020063139
0.00024375714
0.00029679175
0.00036202514
0.00044652047
0.00054600411
0.00066851219
0.00081942133
0.0010054048
0.0011897878
0.00118892
0.0011880242
0.001187079
0.0011860756
0.0011850052
0.0011838591
0.0011826295
0.0011813154
0.001179926
0.0011784809
0.0011772857
0.0011763143
0.0011755218
0.0011748758
0.0011743352
0.0011737354
0.001172812
0.0011717536
0.0011714573
0.0011712538
1.3271356e-07
8.220139e-06
3.9455848e-06
5.2817218e-06
3.9083147e-06
4.40282e-06
4.3794006e-06
4.2263212e-06
4.5500337e-06
4.1552748e-06
4.0554972e-06
3.9444179e-06
3.900791e-06
3.8972779e-06
3.9323511e-06
3.9854029e-06
4.0764194e-06
4.2008857e-06
4.358111e-06
4.5485607e-06
4.7740995e-06
5.0372249e-06
5.3419671e-06
5.692453e-06
6.0809759e-06
6.5367672e-06
7.0582734e-06
7.6551263e-06
8.3394316e-06
9.1256123e-06
1.0031234e-05
1.1079001e-05
1.2296691e-05
1.3719112e-05
1.5389033e-05
1.735784e-05
1.9692602e-05
2.2474704e-05
2.5806471e-05
2.9817594e-05
3.466297e-05
4.053971e-05
4.7689543e-05
5.64045e-05
6.7048383e-05
8.0067539e-05
9.6863888e-05
0.00011656413
0.00014073666
0.00017042719
0.0002068943
0.00025410743
0.00030962767
0.00037792704
0.00046195112
0.00057070097
0.00069892053
0.00085682016
0.0010513518
0.0011904664
0.0011894834
0.0011884702
0.0011874159
0.0011863105
0.0011851448
0.0011839116
0.0011826034
0.0011812158
0.0011797775
0.0011783894
0.0011772741
0.001176354
0.00117559
0.0011749663
0.0011744565
0.0011739024
0.0011730504
0.0011720955
0.0011718316
0.0011718153
1.2547362e-07
7.8004702e-06
3.4781819e-06
4.586003e-06
3.4935497e-06
3.7335236e-06
3.9054616e-06
3.6113439e-06
3.7750252e-06
3.4945862e-06
3.4164292e-06
3.3556823e-06
3.3461427e-06
3.3724534e-06
3.4153655e-06
3.5004933e-06
3.6178125e-06
3.7661717e-06
3.9458701e-06
4.1581742e-06
4.4055525e-06
4.6908077e-06
5.0086912e-06
5.3796267e-06
5.8027337e-06
6.2847774e-06
6.8338865e-06
7.4600372e-06
8.1755861e-06
8.995877e-06
9.9390443e-06
1.1028776e-05
1.2294127e-05
1.377167e-05
1.5440201e-05
1.74705e-05
1.9880173e-05
2.2754863e-05
2.635918e-05
3.0547585e-05
3.561211e-05
4.1759088e-05
4.9246086e-05
5.8380422e-05
6.9543836e-05
8.3208744e-05
9.9954455e-05
0.00012049154
0.00014699407
0.00017820127
0.00021653993
0.00026365984
0.00032463763
0.00039644268
0.00048477599
0.00059925176
0.00073401226
0.00089992788
0.0011042616
0.0011910518
0.0011899613
0.0011888411
0.0011876867
0.0011864877
0.0011852344
0.0011839193
0.0011825402
0.001181094
0.0011796027
0.0011783435
0.0011773015
0.0011764338
0.001175705
0.0011751112
0.0011746283
0.0011740978
0.0011732952
0.001172463
0.0011723532
0.0011723441
1.1977859e-07
6.798766e-06
3.0806956e-06
3.9553353e-06
3.1364193e-06
3.1157289e-06
3.4332457e-06
3.0543043e-06
3.1089693e-06
2.9303058e-06
2.881617e-06
2.8619596e-06
2.8749154e-06
2.920437e-06
3.0020345e-06
3.1153226e-06
3.2583355e-06
3.4310313e-06
3.6345324e-06
3.8705814e-06
4.1359879e-06
4.443806e-06
4.7942052e-06
5.1920126e-06
5.6429899e-06
6.1541236e-06
6.7339106e-06
7.392714e-06
8.1432815e-06
8.9817293e-06
9.96055e-06
1.108956e-05
1.2399021e-05
1.3926836e-05
1.5720398e-05
1.7838936e-05
2.0355639e-05
2.3362092e-05
2.6971875e-05
3.1325242e-05
3.6596255e-05
4.3308989e-05
5.1178463e-05
6.0788454e-05
7.253984e-05
8.6930633e-05
0.00010457287
0.00012621933
0.00015419712
0.00018709761
0.00022752376
0.00027720959
0.00034158136
0.00041728733
0.00051042265
0.00062502011
0.00077330056
0.00094817643
0.0011634733
0.0011915373
0.0011903463
0.0011891298
0.0011878846
0.0011866006
0.0011852683
0.0011838782
0.0011824304
0.0011809508
0.0011795016
0.0011783349
0.0011773651
0.00117655
0.0011758627
0.0011753055
0.001174848
0.0011743297
0.001173569
0.0011728584
0.001172871
0.0011729606
1.1522195e-07
4.7617033e-06
2.7225261e-06
3.370921e-06
2.68248e-06
2.5984777e-06
2.9350864e-06
2.5581952e-06
2.5544237e-06
2.4552779e-06
2.4397824e-06
2.4478044e-06
2.4919007e-06
2.5717966e-06
2.683102e-06
2.8233085e-06
2.9917745e-06
3.1891923e-06
3.413991e-06
3.673389e-06
3.9686118e-06
4.3030504e-06
4.6808237e-06
5.1069385e-06
5.5874321e-06
6.1295814e-06
6.7422212e-06
7.4248581e-06
8.208926e-06
9.1030641e-06
1.0127737e-05
1.1308359e-05
1.267695e-05
1.4273711e-05
1.6149015e-05
1.836561e-05
2.1001439e-05
2.4153417e-05
2.7942044e-05
3.2516733e-05
3.8062503e-05
4.4807297e-05
5.3427456e-05
6.3559556e-05
7.5956099e-05
9.114263e-05
0.00010976541
0.00013262056
0.00016068841
0.00019692649
0.0002396206
0.00029209595
0.0003566167
0.00044006068
0.00053840418
0.00065940245
0.0008160704
0.0010007142
0.0011932146
0.0011919205
0.0011906371
0.001189335
0.0011880081
0.0011866471
0.0011852441
0.0011837916
0.0011822837
0.0011807553
0.0011794515
0.0011783656
0.0011774622
0.0011766991
0.0011760579
0.0011755424
0.0011751087
0.0011745958
0.0011738793
0.0011733083
0.0011734319
0.001173573
1.1039958e-07
3.9552462e-06
2.3471815e-06
2.8326352e-06
2.3130023e-06
2.1669198e-06
2.4185704e-06
2.1226002e-06
2.103633e-06
2.0654102e-06
2.0789065e-06
2.1216226e-06
2.2018828e-06
2.3126691e-06
2.4513799e-06
2.617091e-06
2.8101487e-06
3.0295497e-06
3.2810243e-06
3.5658894e-06
3.8871446e-06
4.2484243e-06
4.6540756e-06
5.1092935e-06
5.6203206e-06
6.1946973e-06
6.8339139e-06
7.5612184e-06
8.3852574e-06
9.3231828e-06
1.0396568e-05
1.1632338e-05
1.306434e-05
1.4735111e-05
1.6698157e-05
1.9020423e-05
2.178496e-05
2.5094609e-05
2.9077173e-05
3.3890468e-05
3.9730228e-05
4.7177377e-05
5.5923525e-05
6.6612246e-05
7.9696244e-05
9.5729909e-05
0.00011539526
0.00013953201
0.00017074148
0.0002074446
0.00025253582
0.00030795848
0.00037610122
0.00046423045
0.00056807967
0.00069585102
0.00086134145
0.0010563503
0.0011935682
0.0011922032
0.0011908381
0.0011894601
0.0011880616
0.0011866326
0.0011851647
0.0011836587
0.0011821315
0.0011806475
0.0011794421
0.0011784344
0.0011775907
0.0011768773
0.0011762839
0.0011758116
0.0011754014
0.0011748968
0.0011742326
0.0011737988
0.0011740176
0.0011741563
1.0715516e-07
3.1862824e-06
2.0236955e-06
2.2884144e-06
2.0102922e-06
1.7978873e-06
1.9378635e-06
1.7530609e-06
1.7496648e-06
1.7603845e-06
1.8040302e-06
1.8848424e-06
1.9961462e-06
2.1339678e-06
2.2972896e-06
2.4863922e-06
2.7011773e-06
2.9453961e-06
3.2208933e-06
3.5304115e-06
3.8772328e-06
4.2651985e-06
4.6988136e-06
5.183414e-06
5.7254042e-06
6.328176e-06
7.0077533e-06
7.7729437e-06
8.6380805e-06
9.6211508e-06
1.0744985e-05
1.2038094e-05
1.3536353e-05
1.528477e-05
1.7339912e-05
1.9772858e-05
2.2672386e-05
2.6147352e-05
3.0333573e-05
3.5398056e-05
4.1821104e-05
4.9371038e-05
5.8584552e-05
6.9850697e-05
8.3645731e-05
0.00010055536
0.00012129874
0.00014676156
0.00017963782
0.00021834473
0.00026590112
0.00032435236
0.00039621888
0.0004891064
0.00059861245
0.00073334957
0.00090784891
0.0011135365
0.0011938205
0.0011923933
0.001190959
0.0011895146
0.0011880534
0.0011865679
0.0011850484
0.0011834917
0.0011819365
0.0011806003
0.0011794762
0.0011785376
0.0011777471
0.0011770799
0.0011765329
0.0011761009
0.001175712
0.0011752234
0.0011746257
0.0011743157
0.001174604
0.001174731
1.0579682e-07
2.5122667e-06
1.7441082e-06
1.7662339e-06
1.731378e-06
1.4821598e-06
1.5451783e-06
1.4585599e-06
1.4860764e-06
1.5319562e-06
1.614452e-06
1.7258948e-06
1.8627718e-06
2.0235074e-06
2.2083915e-06
2.4186032e-06
2.6550985e-06
2.9214548e-06
3.2198015e-06
3.5531417e-06
3.9249257e-06
4.3391323e-06
4.8003856e-06
5.314136e-06
5.8869116e-06
6.5266595e-06
7.2431874e-06
8.0486944e-06
8.9480554e-06
9.9766879e-06
1.1151552e-05
1.2502849e-05
1.4068612e-05
1.5896553e-05
1.8046341e-05
2.0676611e-05
2.3736687e-05
2.7407383e-05
3.1833222e-05
3.7192258e-05
4.3703491e-05
5.1635852e-05
6.1321108e-05
7.3167005e-05
8.7674896e-05
0.00010546159
0.00012728449
0.00015542089
0.00018856337
0.00022926618
0.0002792749
0.00034073866
0.00042024646
0.00051385734
0.00062899035
0.00077066636
0.00095405421
0.0011703908
0.0011939835
0.0011925031
0.001191013
0.0011895135
0.0011879977
0.0011864621
0.0011849065
0.001183342
0.0011818328
0.0011805956
0.0011795484
0.0011786685
0.0011779253
0.0011773009
0.0011767961
0.0011763995
0.0011760295
0.0011755655
0.0011750469
0.0011748525
0.0011751933
0.0011753112
1.0738819e-07
1.9350943e-06
1.5110921e-06
1.3661818e-06
1.4469939e-06
1.2173969e-06
1.2577097e-06
1.2427947e-06
1.30317e-06
1.3836083e-06
1.4948103e-06
1.6298352e-06
1.787351e-06
1.9674741e-06
2.171423e-06
2.4009492e-06
2.6578178e-06
2.9450966e-06
3.2653305e-06
3.6216533e-06
4.0176141e-06
4.4572814e-06
4.9453766e-06
5.4874663e-06
6.0902263e-06
6.7617989e-06
7.5122695e-06
8.3542609e-06
9.3036706e-06
1.0380603e-05
1.1610465e-05
1.3025418e-05
1.4665958e-05
1.6582964e-05
1.884006e-05
2.1516529e-05
2.4710902e-05
2.8545612e-05
3.317195e-05
3.8776923e-05
4.559115e-05
5.389784e-05
6.4042693e-05
7.6453234e-05
9.1653551e-05
0.00011120149
0.00013423554
0.00016249897
0.00019719761
0.00023981606
0.00029217946
0.00035988146
0.00043957635
0.00053755792
0.00065808211
0.00081424561
0.00099821186
0.001195633
0.0011940757
0.001192547
0.0011910127
0.001189472
0.0011879164
0.0011863396
0.001184743
0.0011831651
0.0011817924
0.00118063
0.0011796485
0.0011788178
0.0011781164
0.0011775337
0.0011770643
0.0011766978
0.0011763462
0.0011759169
0.0011754872
0.0011753962
0.0011757643
0.0011758628
1.1309656e-07
1.461395e-06
1.3219901e-06
1.0741831e-06
1.2912357e-06
9.9754222e-07
1.0625619e-06
1.0999882e-06
1.1873938e-06
1.2956112e-06
1.427928e-06
1.581237e-06
1.7559121e-06
1.9530834e-06
2.1744658e-06
2.422075e-06
2.6982053e-06
3.005231e-06
3.3462746e-06
3.7244339e-06
4.1433301e-06
4.6071132e-06
5.1206047e-06
5.6894978e-06
6.3206321e-06
7.0223656e-06
7.8050737e-06
8.6818297e-06
9.6691503e-06
1.0788016e-05
1.2064963e-05
1.3533671e-05
1.5236578e-05
1.7227027e-05
1.9571735e-05
2.235385e-05
2.5676591e-05
2.966773e-05
3.4485045e-05
4.0323048e-05
4.7745211e-05
5.6468867e-05
6.7121089e-05
8.0149265e-05
9.6102049e-05
0.00011565366
0.00013963312
0.00016905985
0.00020518382
0.00025188209
0.00030679663
0.00037426152
0.00045718022
0.00055913843
0.00069124723
0.00084676784
0.001038249
0.0011957141
0.0011941194
0.0011925467
0.0011909729
0.0011893975
0.0011878153
0.0011862234
0.0011846261
0.0011830682
0.0011817893
0.0011806952
0.001179768
0.0011789786
0.0011783116
0.0011777706
0.0011773315
0.0011769887
0.0011766582
0.0011762768
0.0011759424
0.001175936
0.0011763062
0.0011763831
1.2356959e-07
1.1555499e-06
1.1592445e-06
9.3269761e-07
9.4464426e-07
8.7221151e-07
9.3422322e-07
1.0139534e-06
1.1222631e-06
1.2501396e-06
1.3983967e-06
1.5668043e-06
1.7565773e-06
1.9692453e-06
2.2066743e-06
2.4709485e-06
2.7643976e-06
3.089617e-06
3.4495143e-06
3.8473627e-06
4.2868806e-06
4.7723377e-06
5.3087054e-06
5.9018696e-06
6.558926e-06
7.285947e-06
8.0975051e-06
9.0054411e-06
1.0035924e-05
1.1196617e-05
1.2521458e-05
1.4045771e-05
1.5814033e-05
1.7882063e-05
2.0319609e-05
2.3213468e-05
2.6671282e-05
3.0826178e-05
3.5842404e-05
4.1922305e-05
4.9314859e-05
5.8326199e-05
6.9332316e-05
8.2792801e-05
9.9274405e-05
0.00011947255
0.00014552619
0.00017615271
0.0002137344
0.00025987365
0.00031654214
0.00038617215
0.00047176352
0.00058250668
0.00071295145
0.00087349965
0.0010712403
0.00119577
0.0011941427
0.0011925336
0.0011909251
0.0011893151
0.0011876997
0.001186081
0.0011844843
0.001183035
0.0011818187
0.0011807825
0.0011799024
0.0011791539
0.0011785227
0.0011780062
0.0011776007
0.0011772752
0.0011769679
0.0011766419
0.0011764004
0.0011764597
0.0011768113
0.0011768523
1.4516021e-07
1.196188e-06
9.9786215e-07
7.1140298e-07
7.7138381e-07
7.7926643e-07
8.6325923e-07
9.6593002e-07
1.0907644e-06
1.2335065e-06
1.3952976e-06
1.5770582e-06
1.780294e-06
2.0066493e-06
2.2580179e-06
2.5365101e-06
2.8444867e-06
3.18459e-06
3.5597864e-06
3.9734198e-06
4.4292844e-06
4.9317294e-06
5.4858074e-06
6.0974885e-06
6.7739629e-06
7.524055e-06
8.3587713e-06
9.2919996e-06
1.0341395e-05
1.152943e-05
1.2884658e-05
1.4443296e-05
1.6250992e-05
1.8365054e-05
2.085705e-05
2.3815994e-05
2.7352201e-05
3.1601954e-05
3.6733228e-05
4.2952691e-05
5.0514424e-05
6.015874e-05
7.150062e-05
8.5365866e-05
0.00010233665
0.00012312686
0.00014861457
0.00017987994
0.00021825236
0.00026536664
0.0003232417
0.00039800715
0.00048608137
0.00059438652
0.00072765584
0.00089175931
0.0010939778
0.0011958324
0.0011941776
0.0011925399
0.0011909058
0.0011892731
0.0011876381
0.0011860055
0.0011844137
0.0011830448
0.00118188
0.001180889
0.0011800459
0.0011793296
0.0011787353
0.0011782512
0.0011778712
0.0011775621
0.0011772789
0.0011770077
0.0011768407
0.0011769291
0.0011772323
0.0011772692
1.3837545e-07
7.9777988e-07
8.1802375e-07
6.0636328e-07
6.6380787e-07
7.2461913e-07
8.2727779e-07
9.4681313e-07
1.0847851e-06
1.2401837e-06
1.4142555e-06
1.6082065e-06
1.8235724e-06
2.0620631e-06
2.3256119e-06
2.6163852e-06
2.9368109e-06
3.2895659e-06
3.6777553e-06
4.1047811e-06
4.5745207e-06
5.0914067e-06
5.6605769e-06
6.2880898e-06
6.9812324e-06
7.7489421e-06
8.6023654e-06
9.5555788e-06
1.0635237e-05
1.1850591e-05
1.3236785e-05
1.4830936e-05
1.6679761e-05
1.884185e-05
2.13903e-05
2.441596e-05
2.8031341e-05
3.2375383e-05
3.7619304e-05
4.3973735e-05
5.1697447e-05
6.1107951e-05
7.2594495e-05
8.663622e-05
0.00010382082
0.00012487093
0.00015067539
0.0001839283
0.00022305971
0.00027109203
0.00033008345
0.0004025717
0.00049169429
0.00060133488
0.00073630784
0.0009025913
0.0011076054
0.0011959368
0.0011942579
0.0011925947
0.0011909369
0.001189283
0.0011876321
0.0011859921
0.0011844095
0.0011830976
0.0011819723
0.0011810169
0.0011802037
0.0011795115
0.0011789488
0.0011784812
0.0011781213
0.0011778354
0.0011775753
0.0011773534