/*--------------------------------*- C++ -*----------------------------------*\
  =========                 |
  \\      /  F ield         | OpenFOAM: The Open Source CFD Toolbox
   \\    /   O peration     | Website:  https://openfoam.org
    \\  /    A nd           | Version:  12
     \\/     M anipulation  |
\*---------------------------------------------------------------------------*/
FoamFile
{
    format      ascii;
    class       volScalarField;
    location    "0.09";
    object      k;
}
// * * * * * * * * * * * * * * * * * * * * * * * * * * * * * * * * * * * * * //

dimensions      [0 2 -2 0 0 0 0];

internalField   nonuniform List<scalar> 
16000
(
0.049910942
0.021769234
0.022688831
0.016656934
0.014124244
0.01277948
0.011982805
0.011504712
0.011181529
0.010963343
0.010802717
0.010682963
0.010589573
0.010515634
0.010456151
0.010407841
0.010368381
0.010336084
0.010309492
0.010287771
0.010269768
0.010255112
0.010243288
0.010233777
0.01022625
0.010220447
0.010216148
0.010213184
0.010211412
0.010210698
0.010210918
0.010211965
0.010213753
0.010216208
0.010219263
0.010222855
0.010226917
0.010231382
0.010236186
0.010241264
0.01024655
0.010251975
0.010257481
0.010263013
0.010268516
0.010273931
0.010279205
0.010284282
0.010289101
0.0102936
0.010297722
0.010301423
0.010304672
0.010307441
0.010309698
0.010311395
0.010312469
0.010312839
0.010312412
0.01031108
0.010308725
0.010305239
0.010300534
0.010294478
0.010286865
0.010277409
0.010265767
0.010251622
0.01023472
0.010214512
0.010189526
0.010159316
0.010135386
0.010119906
0.010109755
0.010101688
0.010091825
0.010072896
0.010066416
0.010078353
0.045664782
0.020586588
0.02121487
0.016103471
0.013772006
0.012572997
0.011816155
0.011385154
0.011077871
0.010877346
0.010727138
0.010616312
0.01052942
0.010461033
0.010406118
0.010361724
0.010325607
0.010296273
0.010272238
0.010252884
0.010236991
0.010224236
0.010214184
0.010206324
0.010200334
0.01019597
0.010193018
0.010191314
0.010190722
0.010191118
0.010192379
0.0101944
0.010197094
0.010200385
0.010204207
0.010208497
0.01021319
0.010218221
0.010223525
0.010229038
0.010234698
0.010240436
0.010246195
0.010251924
0.01025757
0.010263078
0.010268399
0.010273482
0.010278274
0.010282715
0.010286752
0.010290344
0.01029346
0.010296079
0.010298171
0.010299696
0.010300594
0.010300792
0.010300202
0.010298723
0.010296245
0.01029266
0.010287882
0.010281787
0.010274179
0.010264769
0.010253204
0.010239148
0.010222391
0.010202626
0.010178729
0.010150074
0.010127198
0.010112324
0.010102528
0.010094667
0.01008417
0.010066566
0.010058395
0.010060697
0.042132849
0.019749213
0.019862992
0.015530049
0.013412489
0.012341168
0.011643951
0.011255561
0.010972095
0.010790092
0.010651234
0.010549772
0.010469865
0.010407313
0.01035726
0.010317022
0.010284461
0.01025829
0.010236978
0.010220134
0.010206495
0.010195766
0.010187592
0.010181478
0.01017711
0.010174263
0.01017273
0.010172353
0.010173
0.010174554
0.010176898
0.010179928
0.010183554
0.0101877
0.010192301
0.010197291
0.010202608
0.010208186
0.01021396
0.01021987
0.010225852
0.010231844
0.010237786
0.01024363
0.010249331
0.010254836
0.0102601
0.010265079
0.010269724
0.010273985
0.010277811
0.010281164
0.010284019
0.010286356
0.010288152
0.010289371
0.010289961
0.010289852
0.010288961
0.010287197
0.010284454
0.010280628
0.010275631
0.010269346
0.010261584
0.01025207
0.01024045
0.010226381
0.010209666
0.010190165
0.010167084
0.010140013
0.010118495
0.010104432
0.010095087
0.010087365
0.01007646
0.010059614
0.010050207
0.010049723
0.038717174
0.019183829
0.018692024
0.015016934
0.013087157
0.012131865
0.011486313
0.011137316
0.010874984
0.010709785
0.010581751
0.010488939
0.010415694
0.010358653
0.010313238
0.010276985
0.010247829
0.010224725
0.010206043
0.010191637
0.010180199
0.01017145
0.010165111
0.010160709
0.010157934
0.010156575
0.010156434
0.010157356
0.010159213
0.010161893
0.010165284
0.010169279
0.01017379
0.010178739
0.010184056
0.010189678
0.010195542
0.010201583
0.010207737
0.010213943
0.010220143
0.010226275
0.010232284
0.010238124
0.010243754
0.01024913
0.010254209
0.010258955
0.010263326
0.010267279
0.010270768
0.010273761
0.010276234
0.010278172
0.010279559
0.010280362
0.010280536
0.010280017
0.010278728
0.010276584
0.010273485
0.010269327
0.010264022
0.010257454
0.010249448
0.010239742
0.010227996
0.010213866
0.010197163
0.010177883
0.010155529
0.010129738
0.010109576
0.010096325
0.010087434
0.010079861
0.010068796
0.010052393
0.01004229
0.010037563
0.036099953
0.018861116
0.017686252
0.014541693
0.012784492
0.011933982
0.011338546
0.011025836
0.010784326
0.010634847
0.010517422
0.010432852
0.01036613
0.010314437
0.010273554
0.010241217
0.010215398
0.010195333
0.010179247
0.010167257
0.010158013
0.010151246
0.010146735
0.010144044
0.01014286
0.010142988
0.010144235
0.01014645
0.010149506
0.010153294
0.010157704
0.010162631
0.010167984
0.010173682
0.010179654
0.010185835
0.010192163
0.010198574
0.010205006
0.010211399
0.010217698
0.010223847
0.010229793
0.010235494
0.010240916
0.010246022
0.010250777
0.01025515
0.010259108
0.010262615
0.010265632
0.010268131
0.010270096
0.010271512
0.010272369
0.010272641
0.010272286
0.010271248
0.010269456
0.010266829
0.010263274
0.010258689
0.01025298
0.010246033
0.010237684
0.01022769
0.010215734
0.010201482
0.010184743
0.010165608
0.010143885
0.010119295
0.010100533
0.010088137
0.010079716
0.010072303
0.010061294
0.010045541
0.010034747
0.010027681
0.033917464
0.018784518
0.016941788
0.014106337
0.012506135
0.011750002
0.011202003
0.010922528
0.010701033
0.010566021
0.010458877
0.010382076
0.010321663
0.01027512
0.010238622
0.010210106
0.010187533
0.010170465
0.010156938
0.010147335
0.010140272
0.010135504
0.010132803
0.010131823
0.010132223
0.01013383
0.010136456
0.010139948
0.010144178
0.01014904
0.010154425
0.010160228
0.010166355
0.010172723
0.01017926
0.010185898
0.010192577
0.010199234
0.010205812
0.010212251
0.010218503
0.010224515
0.010230244
0.01023565
0.010240708
0.010245389
0.010249666
0.010253516
0.010256914
0.010259834
0.010262243
0.010264114
0.010265451
0.010266225
0.010266437
0.010266067
0.01026508
0.010263423
0.010261033
0.010257834
0.010253736
0.010248639
0.010242446
0.01023504
0.010226266
0.010215902
0.010203663
0.010189237
0.010172424
0.010153367
0.010132184
0.010108694
0.010091352
0.010079849
0.010071919
0.010064711
0.010053979
0.010039025
0.010027708
0.010017843
0.030712107
0.018878981
0.016409978
0.013707358
0.012249693
0.011579172
0.011076432
0.010827223
0.010624999
0.010503247
0.010406029
0.010336583
0.010282281
0.010240735
0.010208507
0.010183757
0.010164375
0.010150291
0.010139319
0.010132102
0.010127216
0.010124555
0.010123616
0.01012436
0.010126329
0.010129413
0.010133403
0.010138148
0.010143518
0.010149404
0.010155701
0.010162301
0.010169109
0.010176039
0.010183019
0.010189982
0.010196867
0.010203616
0.010210175
0.010216493
0.010222523
0.010228224
0.010233558
0.010238495
0.010243016
0.010247104
0.010250741
0.010253911
0.0102566
0.01025879
0.010260458
0.010261573
0.010262159
0.010262177
0.010261637
0.010260524
0.010258807
0.01025644
0.010253366
0.010249512
0.010244792
0.010239109
0.010232361
0.010224428
0.01021516
0.010204357
0.010191769
0.010177122
0.010160209
0.010141163
0.010120424
0.01009805
0.010082118
0.010071534
0.010064116
0.01005716
0.010046927
0.010032958
0.010021313
0.010010252
0.028741956
0.019064251
0.015981529
0.013342257
0.012013748
0.011421266
0.010961218
0.010739785
0.010555895
0.010446402
0.010358798
0.0102964
0.010248061
0.010211424
0.010183397
0.010162399
0.010146195
0.01013509
0.010126716
0.010121897
0.010119154
0.010118991
0.010119593
0.010121946
0.010125544
0.010130089
0.010135416
0.01014137
0.010147819
0.010154651
0.010161762
0.010169044
0.010176402
0.010183748
0.01019101
0.010198123
0.01020503
0.010211679
0.010218021
0.010224015
0.010229621
0.010234809
0.010239552
0.010243827
0.010247628
0.010250946
0.010253775
0.010256108
0.010257941
0.010259263
0.010260062
0.010260342
0.010260025
0.010259185
0.010257795
0.010255847
0.010253316
0.010250161
0.010246327
0.010241747
0.010236341
0.010230009
0.010222648
0.010214134
0.010204319
0.010193023
0.010180033
0.010165126
0.010148101
0.010129021
0.010108606
0.010087438
0.010072882
0.010063231
0.010056354
0.010049704
0.010040155
0.010027392
0.010015874
0.010004414
0.027039479
0.019248469
0.015490506
0.01300777
0.01179664
0.011275499
0.010855703
0.010659518
0.010493726
0.010395694
0.010317389
0.010261804
0.010219306
0.010187524
0.010163655
0.010146406
0.010133402
0.010125214
0.010119568
0.010117115
0.010116384
0.010117929
0.010120942
0.010125108
0.010130267
0.010136237
0.010142841
0.010149926
0.010157355
0.010165013
0.010172795
0.010180597
0.010188323
0.010195888
0.010203222
0.010210264
0.010216965
0.010223279
0.010229171
0.010234606
0.010239561
0.010244015
0.010247953
0.010251366
0.010254255
0.010256626
0.010258483
0.010259828
0.010260665
0.010260992
0.010260802
0.010260082
0.01025883
0.010257042
0.010254721
0.010251863
0.010248447
0.010244437
0.010239783
0.010234422
0.010228274
0.010221243
0.010213225
0.01020409
0.01019369
0.010181863
0.010168432
0.01015323
0.010136092
0.010116975
0.010096737
0.01007696
0.010063722
0.010055006
0.010048712
0.010042436
0.010033717
0.010022356
0.010011311
0.0099995214
0.025197485
0.01941933
0.014808787
0.012701039
0.011598171
0.011142479
0.010760708
0.010587282
0.010439028
0.010351549
0.010282215
0.010233252
0.010196476
0.01016951
0.010149775
0.010136237
0.010126535
0.010120908
0.010118446
0.010116175
0.010120257
0.010123618
0.010128384
0.010134225
0.010140906
0.010148221
0.010156
0.010164086
0.010172339
0.010180643
0.010188893
0.01019699
0.010204843
0.01021237
0.010219509
0.010226209
0.010232428
0.010238136
0.010243309
0.010247928
0.010251984
0.010255469
0.010258384
0.010260732
0.010262525
0.01026378
0.010264512
0.010264731
0.010264449
0.010263672
0.010262397
0.010260617
0.010258324
0.010255519
0.010252204
0.010248377
0.010244023
0.010239109
0.01023359
0.010227405
0.010220477
0.010212711
0.010204002
0.010194217
0.01018321
0.010170831
0.010156936
0.010141407
0.010124149
0.010105044
0.010084826
0.010066703
0.010054715
0.010046924
0.010041275
0.010035467
0.010027664
0.010017859
0.010007761
0.0099962524
0.023701837
0.01956008
0.014262803
0.012419938
0.011418818
0.011021624
0.010676658
0.010523855
0.010391998
0.010314371
0.010253701
0.010211229
0.010180084
0.010157918
0.010142332
0.010132296
0.010126246
0.010121654
0.010124015
0.010126632
0.010130178
0.010135681
0.010142287
0.010149747
0.010157839
0.010166362
0.010175144
0.010184029
0.010192876
0.010201569
0.010210007
0.0102181
0.010225766
0.010232934
0.010239555
0.010245588
0.01025101
0.010255807
0.01025997
0.0102635
0.010266402
0.010268687
0.010270368
0.010271461
0.010271989
0.010271979
0.010271454
0.010270435
0.010268936
0.01026697
0.010264536
0.010261631
0.010258245
0.010254376
0.010250025
0.010245191
0.010239863
0.010234014
0.010227601
0.010220565
0.010212833
0.010204309
0.010194887
0.010184437
0.010172813
0.010159878
0.010145516
0.010129637
0.010112221
0.01009322
0.010073025
0.010056754
0.010045942
0.010039052
0.010034127
0.010028904
0.010022033
0.010013898
0.010005252
0.00999415
0.022331342
0.019687994
0.01378842
0.012164491
0.011258515
0.01091322
0.010603415
0.010469026
0.01035296
0.010284636
0.010232346
0.010196289
0.010170716
0.010153351
0.010142011
0.010134581
0.010133283
0.010134041
0.010136345
0.010141032
0.010147389
0.010154806
0.010163117
0.010172044
0.010181362
0.010190868
0.010200391
0.010209777
0.010218892
0.010227624
0.01023588
0.010243587
0.010250679
0.010257103
0.010262827
0.010267832
0.010272114
0.010275678
0.010278536
0.010280708
0.010282216
0.010283086
0.010283345
0.010283021
0.010282146
0.010280754
0.010278875
0.010276535
0.010273752
0.010270539
0.010266903
0.010262836
0.010258328
0.010253372
0.010247966
0.010242108
0.010235791
0.010228992
0.010221672
0.010213775
0.010205227
0.010195935
0.010185793
0.010174673
0.010162436
0.010148954
0.010134136
0.010117907
0.010100277
0.010081446
0.010061807
0.010047197
0.010037487
0.010031458
0.010027335
0.010022841
0.010016851
0.010010372
0.010003701
0.009993306
0.021097272
0.019774026
0.013354567
0.011934656
0.011116831
0.010817671
0.010541075
0.010423247
0.010322253
0.010262861
0.010218723
0.010189064
0.010169051
0.010156488
0.010149628
0.010147223
0.010147701
0.010151088
0.010156722
0.01016386
0.010172183
0.010181412
0.010191229
0.010201372
0.010211617
0.010221761
0.010231641
0.010241113
0.010250054
0.010258367
0.010265979
0.010272837
0.010278903
0.010284149
0.010288568
0.010292165
0.010294961
0.010296981
0.010298259
0.010298833
0.010298739
0.010298019
0.010296711
0.01029485
0.010292476
0.010289626
0.010286333
0.010282627
0.010278527
0.010274046
0.01026919
0.010263953
0.01025832
0.010252279
0.010245821
0.010238944
0.010231642
0.010223897
0.010215673
0.010206918
0.010197558
0.010187502
0.010176644
0.010164861
0.010152024
0.010138013
0.010122756
0.010106208
0.010088337
0.010069582
0.010051205
0.010038125
0.010029442
0.010024217
0.010020944
0.010017343
0.010012184
0.010007145
0.01000285
0.0099931452
0.019987008
0.01977932
0.012961034
0.011728547
0.010992917
0.010734383
0.010489733
0.010386916
0.010300335
0.01024969
0.010213559
0.010190328
0.010175911
0.010168211
0.01016556
0.010166734
0.010170954
0.010177383
0.010185483
0.01019485
0.010205077
0.01021582
0.010226799
0.010237755
0.010248473
0.01025876
0.010268467
0.010277472
0.010285677
0.010293013
0.010299436
0.010304926
0.010309476
0.010313095
0.010315804
0.010317634
0.01031863
0.010318838
0.010318311
0.010317099
0.010315255
0.010312826
0.010309859
0.010306395
0.010302475
0.010298137
0.010293415
0.010288337
0.010282923
0.010277184
0.010271124
0.010264733
0.010257997
0.010250894
0.01024341
0.010235539
0.010227274
0.010218602
0.010209492
0.010199895
0.01018974
0.010178937
0.01016738
0.010154951
0.010141534
0.010127018
0.010111337
0.010094499
0.01007647
0.010057594
0.010041266
0.01002962
0.010021905
0.010017422
0.010014983
0.010012412
0.010008148
0.010004158
0.010002598
0.0099947513
0.018986512
0.019559513
0.012605889
0.011544998
0.010886584
0.010663832
0.010449687
0.010360673
0.010287927
0.010246022
0.010217812
0.010201078
0.010192303
0.010189509
0.01019118
0.010196161
0.010203577
0.010212807
0.010223297
0.010234579
0.010246278
0.010258066
0.010269667
0.01028084
0.010291387
0.010301145
0.010309996
0.010317853
0.010324662
0.010330395
0.010335046
0.010338637
0.010341199
0.010342777
0.01034342
0.010343185
0.010342137
0.010340339
0.010337855
0.010334747
0.010331071
0.010326883
0.010322229
0.010317153
0.010311693
0.010305886
0.010299761
0.010293345
0.010286654
0.010279697
0.010272472
0.010264971
0.010257172
0.010249051
0.010240586
0.010231762
0.010222574
0.010213009
0.010203046
0.010192636
0.010181713
0.010170189
0.01015796
0.010144912
0.010130938
0.010115942
0.010099851
0.010082706
0.010064713
0.01004624
0.010032005
0.010021747
0.010014968
0.01001118
0.010009485
0.010007949
0.010004838
0.010001923
0.010002249
0.0099959473
0.018081162
0.018701439
0.012286383
0.011383265
0.010798067
0.010606332
0.010421477
0.010345482
0.010286094
0.01025303
0.010232715
0.010222538
0.01021942
0.010221501
0.010227365
0.01023593
0.010246375
0.010258053
0.010270435
0.010283075
0.010295604
0.010307711
0.01031915
0.010329715
0.010339252
0.010347651
0.010354843
0.010360796
0.010365512
0.010369012
0.010371341
0.01037256
0.010372737
0.010371947
0.010370266
0.010367769
0.010364533
0.01036063
0.01035613
0.010351098
0.01034559
0.010339661
0.010333355
0.010326713
0.010319769
0.010312554
0.010305092
0.010297403
0.010289501
0.010281389
0.010273064
0.010264512
0.01025571
0.01024663
0.010237242
0.010227525
0.010217466
0.010207058
0.010196281
0.010185097
0.010173441
0.010161231
0.010148364
0.010134728
0.010120217
0.010104761
0.010088298
0.010070817
0.010052818
0.010035877
0.010023465
0.010014548
0.010008698
0.010005589
0.010004519
0.010003834
0.010001962
0.010000301
0.010000894
0.0099970728
0.017262862
0.017339994
0.012004695
0.011243069
0.01072641
0.010562835
0.010406156
0.010342759
0.010296286
0.010272188
0.010259721
0.01025608
0.010258523
0.0102653
0.010275078
0.010286826
0.010299741
0.010313203
0.010326698
0.010339806
0.010352196
0.010363606
0.010373846
0.010382781
0.010390328
0.01039645
0.010401149
0.010404459
0.010406442
0.010407173
0.01040674
0.010405238
0.010402765
0.010399416
0.010395283
0.010390449
0.010384995
0.010378994
0.010372514
0.010365614
0.010358348
0.010350762
0.010342895
0.010334782
0.01032645
0.010317923
0.010309218
0.010300349
0.010291323
0.010282141
0.010272793
0.010263265
0.010253531
0.010243561
0.010233319
0.010222778
0.010211916
0.010200722
0.010189184
0.010177271
0.010164923
0.010152063
0.010138592
0.010124401
0.010109378
0.010093458
0.010076658
0.010058988
0.010040835
0.010026447
0.010015682
0.010008044
0.010003123
0.01000069
0.010000153
0.010000061
0.0099990862
0.0099986191
0.010000253
0.0099980185
0.016527425
0.016473916
0.011766902
0.01112479
0.010672517
0.010534727
0.010405222
0.010354189
0.010320204
0.010305133
0.010300387
0.01030311
0.01031081
0.010321828
0.010334898
0.010349034
0.010363467
0.010377611
0.010391013
0.01040332
0.010414281
0.010423727
0.010431564
0.010437757
0.010442317
0.010445292
0.010446762
0.010446827
0.0104456
0.0104432
0.010439745
0.010435352
0.010430133
0.01042419
0.010417618
0.010410499
0.01040291
0.010394915
0.010386573
0.010377935
0.010369044
0.010359937
0.010350644
0.010341191
0.010331598
0.01032188
0.010312048
0.010302108
0.010292061
0.010281903
0.010271623
0.010261201
0.010250614
0.010239828
0.010228807
0.010217515
0.010205925
0.010194016
0.010181776
0.010169182
0.010156188
0.010142716
0.010128671
0.010113952
0.010098453
0.01008208
0.01006489
0.010047328
0.010030377
0.0100179
0.010008685
0.010002244
0.0099982324
0.0099964634
0.0099963783
0.0099967151
0.0099964632
0.0099970313
0.0099992664
0.0099988491
0.015866919
0.015470259
0.011563851
0.011028941
0.010637341
0.010523712
0.010420323
0.010381688
0.010359772
0.010353657
0.01035631
0.010364907
0.010377148
0.010391456
0.01040664
0.010421789
0.01043622
0.010449445
0.010461132
0.010471057
0.010479103
0.010485233
0.010489477
0.010491911
0.010492645
0.01049181
0.010489547
0.010486005
0.010481331
0.010475667
0.010469144
0.010461882
0.010453993
0.010445572
0.010436705
0.010427465
0.010417915
0.010408106
0.010398086
0.01038789
0.010377551
0.010367093
0.010356537
0.010345899
0.010335189
0.010324416
0.010313583
0.01030269
0.010291733
0.010280701
0.010269582
0.010258354
0.010246993
0.010235468
0.010223741
0.010211775
0.010199532
0.010186985
0.010174111
0.010160893
0.010147296
0.010133254
0.010118667
0.010103437
0.010087489
0.010070759
0.010053215
0.010035432
0.010021156
0.010010324
0.010002489
0.0099971415
0.009993997
0.009992868
0.0099931715
0.0099937931
0.0099941048
0.0099956536
0.0099983936
0.0099994813
0.015275702
0.014788791
0.011397962
0.010956205
0.010621948
0.010531998
0.010453656
0.010427621
0.010417234
0.010419612
0.010428822
0.010442138
0.010457449
0.010473305
0.010488662
0.010502777
0.010515145
0.010525464
0.01053359
0.010539483
0.010543192
0.010544824
0.010544532
0.010542489
0.010538883
0.010533898
0.010527713
0.010520498
0.010512407
0.010503582
0.010494148
0.010484214
0.010473874
0.01046321
0.010452289
0.01044117
0.010429897
0.010418506
0.010407028
0.010395486
0.010383899
0.010372279
0.010360635
0.010348975
0.010337301
0.010325614
0.01031391
0.010302183
0.010290426
0.010278624
0.010266761
0.010254815
0.010242761
0.01023057
0.010218207
0.010205635
0.010192813
0.010179704
0.010166274
0.010152496
0.010138344
0.010123769
0.010108688
0.010092985
0.010076581
0.010059536
0.010042156
0.010025469
0.010013058
0.010003741
0.0099971007
0.0099927173
0.0099903587
0.009989817
0.0099904696
0.0099913217
0.0099920863
0.0099944388
0.0099977352
0.009999779
0.014748103
0.014034991
0.011265844
0.010909195
0.010628221
0.010562945
0.010508285
0.010494715
0.010494689
0.010504155
0.010518033
0.010533819
0.010549683
0.010564438
0.01057732
0.010587875
0.010595875
0.010601267
0.010604134
0.010604627
0.01060295
0.010599329
0.010594002
0.010587201
0.010579149
0.010570046
0.010560075
0.010549398
0.010538154
0.010526465
0.010514434
0.010502147
0.010489676
0.01047708
0.010464406
0.010451692
0.010438964
0.010426244
0.010413546
0.010400879
0.010388248
0.010375656
0.010363102
0.010350583
0.010338095
0.010325631
0.010313183
0.010300741
0.010288291
0.010275819
0.010263304
0.010250725
0.010238057
0.010225271
0.010212336
0.010199218
0.010185878
0.010172276
0.010158367
0.01014411
0.010129468
0.010114403
0.010098865
0.010082773
0.010066025
0.010048618
0.010031184
0.010017056
0.010006154
0.0099981259
0.0099924957
0.0099889313
0.0099872455
0.0099871944
0.0099881333
0.0099892065
0.0099904135
0.0099933727
0.0099971544
0.009999818
0.014283818
0.013452028
0.011172218
0.010892626
0.010660119
0.010620632
0.010587332
0.010584817
0.010592589
0.010606183
0.010621403
0.010636176
0.010649144
0.010659558
0.010667064
0.010671574
0.010673177
0.010672073
0.010668537
0.010662865
0.010655358
0.010646301
0.010635962
0.01062458
0.010612365
0.010599502
0.010586146
0.010572428
0.010558458
0.010544325
0.010530104
0.010515853
0.010501617
0.010487431
0.010473321
0.010459306
0.010445396
0.010431597
0.010417909
0.01040433
0.010390853
0.010377471
0.010364175
0.010350952
0.010337793
0.010324685
0.010311615
0.010298567
0.010285528
0.010272479
0.010259401
0.010246271
0.010233065
0.010219754
0.01020631
0.010192699
0.01017889
0.010164843
0.010150517
0.010135861
0.010120824
0.010105349
0.010089389
0.010072923
0.010055984
0.010038781
0.010022331
0.010009936
0.010000395
0.0099934151
0.0099886088
0.0099857155
0.0099845774
0.0099849075
0.0099860627
0.0099873514
0.009989014
0.0099924724
0.009996656
0.0099998678
0.013888285
0.012988735
0.011119563
0.01091162
0.010741873
0.010708105
0.010691854
0.010696711
0.010707742
0.010720811
0.010732817
0.010742359
0.010748736
0.010751736
0.010751446
0.010748124
0.010742111
0.010733782
0.010723514
0.010711659
0.010698533
0.010684416
0.010669545
0.010654123
0.010638318
0.010622268
0.010606087
0.010589866
0.010573675
0.01055757
0.010541594
0.010525778
0.010510142
0.010494701
0.010479461
0.010464423
0.010449584
0.010434937
0.010420472
0.010406174
0.010392031
0.010378025
0.010364138
0.010350355
0.010336658
0.010323028
0.010309449
0.010295903
0.010282372
0.010268838
0.01025528
0.010241677
0.010228005
0.010214237
0.010200346
0.010186299
0.010172065
0.01015761
0.010142898
0.010127889
0.010112537
0.010096779
0.010080541
0.010063759
0.010046486
0.010029333
0.010015159
0.010004064
0.0099956504
0.0099895135
0.0099853568
0.0099829887
0.0099822697
0.009982879
0.0099842001
0.0099857028
0.0099877845
0.009991599
0.009996105
0.0099998271
0.013570819
0.012616019
0.011112001
0.010966293
0.01084415
0.010824589
0.010818115
0.010824145
0.010832225
0.010839192
0.010843194
0.010843647
0.010840517
0.010834073
0.010824728
0.010812947
0.010799185
0.010783862
0.010767345
0.010749951
0.010731943
0.010713538
0.010694911
0.010676201
0.010657518
0.010638947
0.010620555
0.010602389
0.010584486
0.010566868
0.010549551
0.010532541
0.01051584
0.010499444
0.010483344
0.010467528
0.010451982
0.010436688
0.010421628
0.010406781
0.010392126
0.010377639
0.010363299
0.010349082
0.010334965
0.010320928
0.010306948
0.010293005
0.010279078
0.010265147
0.010251192
0.010237192
0.010223126
0.010208967
0.010194691
0.010180267
0.010165662
0.010150843
0.010135775
0.010120422
0.010104753
0.010088736
0.010072344
0.010055565
0.010038496
0.010021841
0.01000924
0.0099992926
0.0099917844
0.0099863338
0.0099826958
0.0099807279
0.0099802988
0.0099810878
0.009982552
0.0099843176
0.0099868282
0.0099909171
0.0099956663
0.009999604
0.013348313
0.012345609
0.011152392
0.011063038
0.010976759
0.010961521
0.010955911
0.010955731
0.010954482
0.010950388
0.010942792
0.010931822
0.010917907
0.010901571
0.010883341
0.010863692
0.010843037
0.010821718
0.010800011
0.010778136
0.010756263
0.010734525
0.010713021
0.010691823
0.010670985
0.010650541
0.010630515
0.01061092
0.01059176
0.010573034
0.010554735
0.010536851
0.010519369
0.01050227
0.010485535
0.010469144
0.010453073
0.010437298
0.010421794
0.010406535
0.010391495
0.010376648
0.010361966
0.010347424
0.010332994
0.010318651
0.01030437
0.010290127
0.010275899
0.010261663
0.010247398
0.010233083
0.010218696
0.010204216
0.010189617
0.010174875
0.010159959
0.010144837
0.010129471
0.010113821
0.010097848
0.010081516
0.010064807
0.01004779
0.01003088
0.010016004
0.010004458
0.0099954619
0.0099886925
0.0099838244
0.0099806395
0.0099790068
0.009978781
0.0099796621
0.0099812277
0.0099832507
0.0099861482
0.0099904436
0.0099953754
0.0099994949
0.013220456
0.012176313
0.011245561
0.011190742
0.011124488
0.011105359
0.011090817
0.011077727
0.011062471
0.01104455
0.011024089
0.011001555
0.010977478
0.010952351
0.010926593
0.010900539
0.010874453
0.010848534
0.010822932
0.010797752
0.010773072
0.01074894
0.010725387
0.01070243
0.010680074
0.010658316
0.010637145
0.010616548
0.010596507
0.010577001
0.010558007
0.010539502
0.01052146
0.010503856
0.010486661
0.010469849
0.010453391
0.01043726
0.010421425
0.010405858
0.010390531
0.010375414
0.010360478
0.010345695
0.010331035
0.01031647
0.010301974
0.010287519
0.01027308
0.010258632
0.010244149
0.010229611
0.010214992
0.010200271
0.010185424
0.010170427
0.010155256
0.010139883
0.010124276
0.010108405
0.010092233
0.010075726
0.010058871
0.01004177
0.010025039
0.010011459
0.010000759
0.0099925024
0.0099863261
0.0099819475
0.0099791659
0.0099778413
0.0099777986
0.0099787319
0.0099803368
0.0099825154
0.0099856153
0.0099899387
0.0099948496
0.009999034
0.013154648
0.012104045
0.011402908
0.011332791
0.011270739
0.011237289
0.011206931
0.011177397
0.01114697
0.011115654
0.01108371
0.011051501
0.011019351
0.010987524
0.010956216
0.010925565
0.010895664
0.010866571
0.010838316
0.010810911
0.010784353
0.010758629
0.010733719
0.010709597
0.010686235
0.010663602
0.010641666
0.010620395
0.010599756
0.010579716
0.010560241
0.010541301
0.010522862
0.010504893
0.010487363
0.010470239
0.010453492
0.010437089
0.010421001
0.010405196
0.010389644
0.010374316
0.010359182
0.010344211
0.010329376
0.010314647
0.010299996
0.010285395
0.010270816
0.010256234
0.010241622
0.010226953
0.010212203
0.010197345
0.010182353
0.0101672
0.01015186
0.010136303
0.010120502
0.010104431
0.010088068
0.010071398
0.010054442
0.010037351
0.010020852
0.010008196
0.0099981286
0.0099904204
0.0099846901
0.0099806794
0.0099781902
0.0099770686
0.0099771435
0.0099781892
0.0099798039
0.0099820669
0.0099851979
0.0099893884
0.0099941798
0.0099985301
0.013163571
0.012062877
0.011557855
0.011465284
0.011391687
0.011339714
0.011292177
0.011247547
0.011204508
0.011162865
0.011122556
0.011083601
0.011046015
0.011009796
0.010974926
0.010941373
0.010909096
0.010878043
0.010848163
0.010819401
0.010791702
0.010765011
0.010739275
0.010714442
0.010690462
0.010667288
0.010644874
0.010623176
0.010602152
0.010581763
0.010561969
0.010542734
0.01052402
0.010505794
0.01048802
0.010470667
0.0104537
0.010437089
0.010420801
0.010404806
0.010389073
0.010373572
0.010358273
0.010343148
0.010328168
0.010313304
0.010298529
0.010283816
0.010269139
0.010254471
0.010239786
0.010225057
0.01021026
0.010195366
0.010180348
0.010165174
0.010149814
0.010134233
0.010118395
0.010102262
0.010085798
0.010068978
0.010051835
0.01003464
0.010018632
0.010006378
0.0099966576
0.0099892529
0.0099837908
0.0099800188
0.0099777319
0.0099767621
0.0099765677
0.0099778944
0.0099795602
0.0099819719
0.0099851566
0.0099891917
0.0099937588
0.0099981588
0.013256176
0.012086709
0.011673778
0.01156164
0.011472552
0.01140462
0.011344141
0.011289161
0.01123802
0.011190052
0.011144803
0.011101971
0.011061324
0.011022672
0.010985853
0.010950727
0.010917168
0.010885064
0.010854314
0.010824826
0.010796514
0.010769302
0.010743119
0.010717898
0.010693579
0.010670103
0.010647418
0.010625474
0.010604225
0.010583625
0.010563635
0.010544212
0.010525321
0.010506923
0.010488983
0.010471467
0.010454342
0.010437575
0.010421134
0.010404988
0.010389107
0.010373461
0.01035802
0.010342757
0.010327643
0.010312651
0.010297755
0.010282928
0.010268146
0.010253384
0.010238618
0.010223825
0.01020898
0.01019406
0.010179039
0.01016389
0.010148588
0.010133105
0.010117411
0.010101478
0.010085273
0.010068768
0.010051965
0.010035017
0.010018723
0.010006344
0.0099965182
0.0099890496
0.0099835596
0.0099797911
0.0099775353
0.0099766564
0.0099766369
0.0099777024
0.0099794721
0.0099819693
0.0099851934
0.0099891148
0.0099935012
0.0099979342
0.013382162
0.012143563
0.011733979
0.011610338
0.011510908
0.011434653
0.011368067
0.011308579
0.0112541
0.011203631
0.011156489
0.011112206
0.011070433
0.011030896
0.010993372
0.010957676
0.01092365
0.010891156
0.010860075
0.0108303
0.010801737
0.0107743
0.010747911
0.0107225
0.010698002
0.010674356
0.010651508
0.010629405
0.010608
0.010587247
0.010567104
0.010547529
0.010528485
0.010509933
0.01049184
0.010474169
0.010456888
0.010439964
0.010423364
0.010407059
0.010391017
0.010375209
0.010359606
0.010344178
0.010328899
0.010313741
0.010298678
0.010283683
0.010268732
0.0102538
0.010238864
0.010223899
0.010208882
0.010193787
0.010178588
0.010163258
0.010147771
0.0101321
0.010116217
0.010100099
0.01008372
0.010067066
0.010050173
0.010033313
0.010017761
0.010005751
0.009996203
0.0099889044
0.0099835201
0.0099798084
0.0099775537
0.0099765698
0.0099763593
0.0099776996
0.0099794068
0.0099819597
0.0099851942
0.0099890539
0.0099933438
0.0099978121
65.187189
356.85403
119.44711
14.309678
0.39525375
0.021566897
0.020317129
0.020013849
0.019757867
0.018698641
0.017339876
0.016133606
0.015219499
0.014639438
0.014228089
0.013836577
0.01345372
0.013114579
0.012830765
0.012593804
0.01239251
0.012218928
0.012067794
0.011935277
0.011818322
0.0117144
0.011621473
0.011537911
0.011462439
0.011394051
0.011331915
0.011275305
0.011223591
0.011176237
0.011132824
0.011093013
0.011056513
0.01102307
0.010992446
0.010964426
0.01093882
0.010915439
0.010894095
0.010874607
0.010856803
0.010840516
0.010825578
0.010811832
0.01079914
0.010787378
0.01077642
0.010766135