/*--------------------------------*- C++ -*----------------------------------*\
  =========                 |
  \\      /  F ield         | OpenFOAM: The Open Source CFD Toolbox
   \\    /   O peration     | Website:  https://openfoam.org
    \\  /    A nd           | Version:  12
     \\/     M anipulation  |
\*---------------------------------------------------------------------------*/
FoamFile
{
    format      ascii;
    class       volScalarField;
    location    "0.09";
    object      p;
}
// * * * * * * * * * * * * * * * * * * * * * * * * * * * * * * * * * * * * * //

dimensions      [1 -1 -2 0 0 0 0];

internalField   nonuniform List<scalar> 
16000
(
89973.294
90099.084
90110.818
90245.223
90271.066
90398.458
90448.559
90565.321
90638.732
90749.752
90841.461
90952.269
91058.086
91173.108
91289.963
91412.262
91538.599
91669.58
91805.081
91945.188
92089.907
92239.244
92393.177
92551.663
92714.632
92881.988
93053.604
93229.321
93408.949
93592.264
93779.007
93968.884
94161.568
94356.698
94553.881
94752.695
94952.693
95153.405
95354.342
95555.004
95754.882
95953.465
96150.247
96344.732
96536.436
96724.899
96909.685
97090.389
97266.64
97438.108
97604.5
97765.565
97921.093
98070.912
98214.888
98352.922
98484.948
98610.922
98730.826
98844.658
98952.431
99054.169
99149.911
99239.713
99323.658
99401.858
99474.458
99541.63
99603.56
99660.429
99712.405
99759.6
99802.049
99840.031
99873.993
99902.584
99927.159
99958.713
99950.154
100004.18
89605.977
89748.675
89757.881
89904.367
89931.866
90070.262
90122.687
90250.787
90327.998
90449.151
90547.237
90666.977
90781.092
90904.951
91031.041
91162.79
91298.986
91440.115
91586.096
91736.983
91892.77
92053.435
92218.928
92389.174
92564.062
92743.455
92927.178
93115.023
93306.744
93502.06
93700.65
93902.159
94106.195
94312.333
94520.117
94729.063
94938.664
95148.396
95357.722
95566.099
95772.983
95977.84
96180.145
96379.396
96575.113
96766.85
96954.194
97136.772
97314.255
97486.357
97652.839
97813.505
97968.202
98116.82
98259.286
98395.564
98525.647
98649.554
98767.321
98879.003
98984.662
99084.363
99178.175
99266.177
99348.454
99425.112
99496.276
99562.095
99622.73
99678.353
99729.133
99775.174
99816.554
99853.645
99886.509
99913.729
99939.123
99966.215
99957.896
100014.94
89270.139
89428.302
89437.397
89597.162
89624.598
89776.746
89830.749
89971.162
90053.162
90184.809
90290.617
90419.91
90543.566
90677.256
90813.761
90956.148
91103.418
91255.931
91413.62
91576.501
91744.536
91917.669
92095.812
92278.843
92466.608
92658.916
92855.539
93056.207
93260.613
93468.405
93679.195
93892.554
94108.017
94325.085
94543.232
94761.906
94980.538
95198.547
95415.349
95630.363
95843.017
96052.759
96259.063
96461.432
96659.407
96852.573
97040.559
97223.043
97399.755
97570.472
97735.023
97893.283
98045.171
98190.648
98329.713
98462.397
98588.759
98708.879
98822.855
98930.796
99032.816
99129.023
99219.525
99304.425
99383.825
99457.829
99526.548
99590.104
99648.627
99702.264
99751.162
99795.41
99835.134
99870.731
99901.933
99927.64
99952.76
99976.142
99966.882
100028.17
88968.736
89137.731
89147.809
89322.961
89349.837
89518.209
89574.402
89729.126
89816.891
89960.588
90075.621
90215.837
90350.671
90495.667
90644.118
90798.629
90958.412
91123.704
91294.442
91470.6
91652.114
91838.888
92030.791
92227.656
92429.274
92635.394
92845.721
93059.914
93277.585
93498.303
93721.593
93946.94
94173.793
94401.571
94629.665
94857.453
95084.3
95309.571
95532.638
95752.891
95969.743
96182.64
96391.07
96594.564
96792.705
96985.131
97171.535
97351.669
97525.34
97692.411
97852.795
98006.452
98153.388
98293.646
98427.302
98554.461
98675.251
98789.816
98898.311
99000.899
99097.742
99188.994
99274.797
99355.287
99430.582
99500.794
99566.025
99626.374
99681.939
99732.834
99779.163
99820.988
99858.48
99891.999
99921
99944.889
99969.098
99988.577
99977.745
100043.95
88705.284
88889.233
88895.903
89089.856
89115.699
89302.536
89360.912
89531.838
89626.683
89783.865
89909.934
90062.299
90209.874
90367.46
90529.14
90697.009
90870.494
91049.739
91234.684
91425.271
91621.402
91822.936
92029.688
92241.428
92457.875
92678.696
92903.509
93131.876
93363.312
93597.282
93833.208
94070.472
94308.424
94546.388
94783.673
95019.581
95253.417
95484.499
95712.17
95935.807
96154.828
96368.703
96576.956
96779.177
96975.016
97164.192
97346.49
97521.757
97689.901
97850.889
98004.735
98151.5
98291.285
98424.223
98550.473
98670.215
98783.644
98890.966
98992.387
99088.119
99178.366
99263.318
99343.152
99418.026
99488.081
99553.437
99614.195
99670.437
99722.234
99769.664
99812.778
99851.609
99886.356
99917.28
99943.61
99965.413
99988.223
100003.26
99991.001
100062.48
88484.493
88686.02
88690.726
88905.691
88930.417
89137.766
89198.395
89387.228
89490.393
89661.896
89800.331
89965.426
90126.723
90297.775
90473.66
90655.978
90844.334
91038.791
91239.262
91445.638
91657.756
91875.405
92098.315
92326.163
92558.564
92795.077
93035.2
93278.378
93523.998
93771.402
94019.89
94268.727
94517.154
94764.399
95009.688
95252.255
95491.358
95726.289
95956.383
96181.033
96399.692
96611.886
96817.213
97015.35
97206.05
97389.145
97564.535
97732.192
97892.146
98044.482
98189.333
98326.869
98457.292
98580.828
98697.719
98808.219
98912.585
99011.077
99103.947
99191.444
99273.803
99351.244
99423.965
99492.143
99555.935
99615.469
99670.845
99722.136
99769.395
99812.664
99851.944
99887.244
99918.773
99946.627
99969.885
99989.399
100010.31
100020.35
100007.12
100083.92
88307.481
88529.905
88531.801
88771.429
88795.054
89026.639
89090.451
89298.808
89410.383
89595.589
89747.325
89925.747
90102.076
90288.07
90479.809
90678.386
90883.493
91095.086
91313.011
91537.072
91767.011
92002.51
92243.184
92488.584
92738.192
92991.426
93247.639
93506.126
93766.128
94026.846
94287.441
94547.055
94804.821
95059.875
95311.374
95558.506
95800.509
96036.678
96266.38
96489.061
96704.254
96911.58
97110.755
97301.582
97483.955
97657.846
97823.304
97980.444
98129.436
98270.5
98403.891
98529.894
98648.813
98760.963
98866.664
98966.235
99059.988
99148.224
99231.233
99309.288
99382.645
99451.536
99516.172
99576.739
99633.398
99686.281
99735.487
99781.084
99823.112
99861.582
99896.453
99927.728
99955.601
99979.947
99999.816
100016.9
100035.38
100039.99
100026.5
100108.3
88168.577
88415.536
88413.079
88682.435
88702.854
88961.293
89028.279
89255.863
89378.99
89580.171
89748.772
89943.249
90137.556
90341.353
90551.696
90769.25
90993.74
91225.019
91462.841
91706.899
91956.812
92212.125
92472.304
92736.742
93004.753
93275.582
93548.408
93822.353
94096.492
94369.867
94641.503
94910.42
95175.654
95436.272
95691.392
95940.193
96181.935
96415.966
96641.735
96858.796
97066.812
97265.554
97454.898
97634.82
97805.386
97966.744
98119.112
98262.763
98398.021
98525.242
98644.804
98757.102
98862.533
98961.493
99054.367
99141.527
99223.325
99300.093
99372.142
99439.756
99503.198
99562.703
99618.477
99670.703
99719.539
99765.111
99807.512
99846.803
99883.015
99916.131
99946.086
99972.896
99996.707
100017.15
100033.4
100047.95
100063.43
100062.31
100049.46
100135.56
88065.364
88340.639
88333.774
88640.231
88654.824
88942.152
89014.144
89263.516
89403.31
89622.931
89812.056
90025.519
90240.888
90465.616
90697.593
90937.132
91183.922
91437.691
91698.062
91964.577
92236.693
92513.775
92795.099
93079.855
93367.154
93656.032
93945.463
94234.376
94521.668
94806.224
95086.937
95362.73
95632.574
95895.509
96150.663
96397.266
96634.661
96862.319
97079.836
97286.94
97483.487
97669.452
97844.92
98010.079
98165.199
98310.623
98446.75
98574.022
98692.908
98803.896
98907.478
99004.143
99094.364
99178.601
99257.286
99330.825
99399.596
99463.945
99524.186
99580.604
99633.453
99682.955
99729.305
99772.668
99813.187
99850.973
99886.107
99918.642
99948.592
99975.918
100000.55
100022.53
100041.92
100058.1
100070.59
100082.52
100094.39
100087.49
100076.24
100165.63
88000.099
88308.447
88298.586
88641.848
88655.598
88974.99
89058.353
89332.921
89492.722
89732.902
89946.299
90182.029
90421.789
90670.9
90927.854
91192.651
91464.881
91744.1
92029.752
92321.181
92617.623
92918.212
93221.98
93527.868
93834.734
94141.374
94446.536
94748.945
95047.324
95340.421
95627.03
95906.023
96176.366
96437.14
96687.563
96926.999
97154.964
97371.132
97575.331
97767.537
97947.859
98116.53
98273.887
98420.352
98556.419
98682.63
98799.564
98907.818
99007.995
99100.692
99186.491
99265.951
99339.601
99407.936
99471.415
99530.459
99585.449
99636.727
99684.598
99729.331
99771.159
99810.281
99846.866
99881.055
99912.965
99942.685
99970.276
99995.775
100019.18
100040.42
100059.45
100076.34
100090.99
100102.65
100111.36
100120.57
100128.19
100115.63
100107.08
100198.7
87979.462
88327.147
88313.331
88696.983
88714.419
89070.144
89168.754
89470.642
89656.166
89919.778
90161.7
90423.656
90691.555
90968.872
91254.459
91548.037
91849.017
92156.732
92470.376
92789.022
93111.615
93436.984
93763.856
94090.866
94416.589
94739.555
95058.283
95371.308
95677.211
95974.654
96262.404
96539.362
96804.587
97057.312
97296.956
97523.128
97735.624
97934.42
98119.66
98291.634
98450.761
98597.564
98732.65
98856.686
98970.38
99074.46
99169.659
99256.704
99336.298
99409.116
99475.799
99536.943
99593.101
99644.78
99692.438
99736.488
99777.294
99815.179
99850.421
99883.26
99913.898
99942.502
99969.207
99994.121
100017.33
100038.89
100058.85
100077.2
100093.93
100108.96
100122.27
100133.9
100143.62
100150.61
100155.6
100161.94
100164.67
100146.89
100142.37
100234.89
88012.554
88407.035
88389.288
88820.903
88843.421
89238.929
89356.926
89687.83
89904.796
90195.105
90469.894
90762.558
91062.794
91372.567
91690.843
92017.025
92350.251
92689.528
93033.704
93381.476
93731.413
94081.964
94431.489
94778.287
95120.627
95456.782
95785.072
96103.897
96411.778
96707.393
96989.603
97257.481
97510.326
97747.669
97969.274
98175.124
98365.408
98540.495
98700.91
98847.304
98980.425
99101.094
99210.176
99308.557
99397.127
99476.76
99548.303
99612.567
99670.313
99722.255
99769.05
99811.298
99849.544
99884.276
99915.926
99944.878
99971.463
99995.965
100018.62
100039.64
100059.18
100077.36
100094.28
100110.02
100124.63
100138.12
100150.5
100161.78
100171.87
100180.71
100188.3
100194.66
100199.34
100201.66
100203.13
100206.4
100203.63
100181.48
100182.38
100273.98
88100.483
88550.631
88529.549
89015.857
89046.738
89485.724
89630.821
89993.314
90248.884
90570.676
90883.474
91212.306
91549.921
91897.08
92252.62
92615.527
92984.524
93358.16
93734.811
94112.702
94489.937
94864.53
95234.443
95597.628
95952.076
96295.863
96627.2
96944.482
97246.327
97531.61
97799.484
98049.392
98281.064
98494.504
98689.968
98867.932
99029.063
99174.175
99304.2
99420.148
99523.079
99614.071
99694.201
99764.518
99826.038
99879.722
99926.475
99967.136
100002.48
100033.2
100059.95
100083.28
100103.7
100121.67
100137.55
100151.69
100164.37
100175.82
100186.24
100195.77
100204.53
100212.61
100220.05
100226.9
100233.15
100238.82
100243.86
100248.25
100251.88
100254.69
100256.72
100257.88
100257.56
100255.41
100253.62
100253.57
100244.84
100219.5
100226.94
100315.33
88248.256
88764.487
88740.686
89289.1
89334.716
89821.119
90002.636
90400.068
90702.045
91061.66
91418.528
91790.006
92170.928
92560.992
92958.63
93362.245
93769.975
94179.778
94589.445
94996.643
95398.956
95793.934
96179.153
96552.28
96911.133
97253.747
97578.435
97883.824
98168.896
98432.993
98675.819
98897.417
99098.146
99278.635
99439.736
99582.484
99708.042
99817.664
99912.649
99994.312
100063.95
100122.83
100172.15
100213.05
100246.6
100273.78
100295.48
100312.52
100325.63
100335.47
100342.6
100347.54
100350.73
100352.54
100353.3
100353.27
100352.68
100351.7
100350.46
100349.08
100347.61
100346.08
100344.53
100342.92
100341.24
100339.46
100337.52
100335.34
100332.81
100329.88
100326.59
100322.75
100317.61
100311.31
100306.54
100302.99
100288.09
100260.62
100275.24
100359.15
88462.523
89057.779
89033.125
89652.109
89719.726
90257.583
90486.801
90924.349
91281.728
91687.668
92096.084
92517.721
92948.468
93386.974
93831.008
94278.229
94726.051
95171.715
95612.337
96044.958
96466.63
96874.486
97265.841
97638.271
97989.696
98318.44
98623.274
98903.434
99158.611
99388.929
99594.896
99777.357
99937.422
100076.41
100195.8
100297.14
100382.03
100452.09
100508.86
100553.87
100588.55
100614.23
100632.16
100643.48
100649.21
100650.3
100647.56
100641.74
100633.49
100623.38
100611.89
100599.44
100586.4
100573.05
100559.65
100546.39
100533.43
100520.87
100508.81
100497.27
100486.28
100475.83
100465.88
100456.41
100447.33
100438.6
100430.12
100421.8
100413.5
100405.23
100396.97
100388.38
100378.74
100368.73
100361.25
100354.09
100333.32
100304.35
100326.42
100406.15
88749.657
89439.33
89416.694
90115.81
90216.708
90811.845
91103.448
91589.655
92012.958
92475.538
92943.811
93423.163
93909.688
94400.953
94893.863
95385.162
95871.371
96348.885
96814.067
97263.359
97693.409
98101.192
98484.125
98840.152
99167.794
99466.176
99735.01
99974.554
100185.55
100369.14
100526.8
100660.23
100771.29
100861.94
100934.15
100989.87
101031.01
101059.35
101076.6
101084.33
101083.96
101076.81
101064.06
101046.76
101025.85
101002.14
100976.35
100949.11
100920.96
100892.34
100863.65
100835.21
100807.27
100780.06
100753.73
100728.41
100704.17
100681.08
100659.14
100638.36
100618.7
100600.11
100582.52
100565.85
100550.01
100534.91
100520.45
100506.48
100492.92
100479.75
100466.93
100453.95
100440.24
100427.05
100417.12
100406.33
100380.55
100350.66
100379.74
100455.72
89117.052
89919.534
89904.436
90698.721
90849.966
91512.418
91883.556
92429.3
92929.146
93458.77
93994.603
94537.915
95084.3
95630.049
96170.89
96702.378
97219.957
97719.139
98195.677
98645.748
99066.113
99454.229
99808.328
100127.43
100411.33
100660.51
100876.05
101059.55
101212.94
101338.46
101438.48
101515.46
101571.83
101609.99
101632.22
101640.65
101637.3
101623.96
101602.31
101573.84
101539.87
101501.58
101460
101416.05
101370.49
101324.01
101277.17
101230.47
101184.3
101139.01
101094.87
101052.09
101010.84
100971.23
100933.37
100897.29
100863.01
100830.53
100799.8
100770.77
100743.37
100717.5
100693.07
100669.96
100648.06
100627.26
100607.4
100588.37
100570.09
100552.56
100535.63
100518.69
100501.46
100485.71
100473.63
100459.27
100429.33
100399.82
100435.05
100506.82
89584.261
90525.716
90529.591
91438.859
91658.121
92398.215
92866.239
93482.738
94068.657
94674.896
95284.696
95895.897
96502.744
97099.764
97681.117
98241.034
98774.042
99275.233
99740.497
100166.68
100551.67
100894.43
101194.91
101453.97
101673.21
101854.85
102001.5
102116.08
102201.63
102261.26
102297.98
102314.72
102314.2
102298.98
102271.37
102233.5
102187.25
102134.29
102076.13
102014.04
101949.17
101882.48
101814.83
101746.91
101679.33
101612.6
101547.12
101483.25
101421.25
101361.33
101303.65
101248.34
101195.46
101145.05
101097.13
101051.67
101008.63
100967.95
100929.54
100893.31
100859.14
100826.9
100796.47
100767.71
100740.49
100714.66
100690.08
100666.61
100644.22
100622.89
100602.33
100581.93
100561.83
100544.17
100530.18
100512.32
100479.33
100452.32
100492.81
100558.68
90184.007
91302.162
91335.313
92378.13
92684.106
93509.794
94093.449
94794.243
95475.726
96167.019
96854.299
97531.889
98191.864
98826.711
99429.224
99993.005
100512.77
100984.58
101405.96
101775.85
102094.56
102363.52
102585.13
102762.47
102899.09
102998.84
103065.65
103103.41
103115.87
103106.59
103078.84
103035.62
102979.63
102913.3
102838.75
102757.86
102672.26
102583.37
102492.39
102400.37
102308.18
102216.56
102126.12
102037.38
101950.75
101866.55
101785.05
101706.45
101630.88
101558.46
101489.23
101423.22
101360.42
101300.8
101244.29
101190.82
101140.3
101092.61
101047.63
101005.22
100965.24
100927.54
100891.96
100858.35
100826.55
100796.4
100767.76
100740.52
100714.64
100690.06
100666.4
100643.14
100620.88
100601.89
100586.13
100564.94
100530.29
100507.99
100552.96
100610.42
90945.644
92276.638
92353.497
93549.552
93975.913
94899.077
95619.864
96421.519
97205.974
97984.501
98742.751
99471.496
100160.88
100802.45
101389.32
101916.54
102381.23
102782.5
103121.22
103399.79
103621.75
103791.45
103913.74
103993.69
104036.38
104046.73
104029.38
103988.65
103928.42
103852.23
103763.17
103663.98
103557.05
103444.44
103327.91
103208.98
103088.92
102968.82
102849.56
102731.89
102616.42
102503.65
102393.98
102287.7
102185.07
102086.24
101991.34
101900.43
101813.55
101730.7
101651.83
101576.9
101505.82
101438.5
101374.82
101314.65
101257.86
101204.29
101153.79
101106.19
101061.33
101019.02
100979.1
100941.4
100905.75
100871.98
100839.95
100809.58
100780.83
100753.58
100727.37
100701.9
100678.2
100658.38
100640.98
100617
100582.2
100565.73
100613.55
100661.11
91898.712
93495.651
93652.894
95019.283
95611.802
96648.428
97523.352
98436.317
99318.137
100166.9
100966.75
101706.69
102377.56
102973.13
103490.1
103927.99
104288.71
104576.13
104795.52
104953.04
105055.32
105109.12
105120.99
105097.14
105043.31
104964.69
104865.89
104751
104623.56
104486.62
104342.81
104194.35
104043.13
103890.72
103738.43
103587.35
103438.38
103292.24
103149.51
103010.65
102876.03
102745.91
102620.48
102499.88
102384.19
102273.43
102167.61
102066.68
101970.58
101879.22
101792.49
101710.27
101632.43
101558.8
101489.24
101423.57
101361.61
101303.2
101248.15
101196.26
101147.36
101101.25
101057.74
101016.67
100977.85
100941.12
100906.34
100873.47
100842.44
100813.05
100784.86
100757.85
100733.39
100713.07
100694.24
100668.3
100634.86
100624.15
100672.63
100711.48
93126.369
95059.465
95341.886
96899.245
97705.409
98864.237
99888.445
100897.54
101840
102707.21
103485.44
104167
104748.23
105229.51
105614.51
105909.41
106122.05
106261.24
106336.1
106355.61
106328.26
106261.89
106163.53
106039.42
105894.97
105734.85
105563.04
105382.91
105197.29
105008.52
104818.55
104628.99
104441.16
104256.1
104074.67
103897.55
103725.26
103558.21
103396.7
103240.92
103091.03
102947.09
102809.14
102677.16
102551.09
102430.85
102316.35
102207.44
102103.99
102005.84
101912.83
101824.77
101741.49
101662.8
101588.49
101518.37
101452.24
101389.91
101331.16
101275.79
101223.6
101174.4
101127.99
101084.19
101042.82
101003.72
100966.79
100931.98
100899.21
100868.19
100838.6
100810.72
100786.05
100765.49
100745.46
100718.49
100687.64
100682.59
100730.63
100761.82
94760.717
97109.165
97571.658
99318.365
100373.4
101639.92
102761.29
103800.33
104719.36
105512.16
106174.48
106708.45
107120.65
107420.9
107620.99
107733.57
107771.25
107746.04
107668.96
107549.84
107397.29
107218.72
107020.41
106807.62
106584.74
106355.4
106122.57
105888.66
105655.63
105425.05
105198.18
104975.99
104759.27
104548.59
104344.39
104146.98
103956.58
103773.32
103597.25
103428.39
103266.68
103112.07
102964.42
102823.62
102689.5
102561.9
102440.63
102325.5
102216.3
102112.83
102014.87
101922.22
101834.64
101751.92
101673.85
101600.18
101530.72
101465.24
101403.53
101345.36
101290.54
101238.86
101190.13
101144.16
101100.78
101059.85
101021.29
100985.04
100950.98
100918.82
100888.39
100860.25
100835.79
100815.17
100794.32
100767.45
100740.49
100740.91
100786.58
100809.19
96992.513
99806.439
100511.39
102398.68
103665.21
104979.07
106081.32
107023.06
107791.27
108391.7
108835.35
109137.97
109317.44
109392.13
109379.68
109296.24
109156.11
108971.63
108753.23
108509.6
108247.9
107973.96
107692.51
107407.32
107121.42
106837.19
106556.51
106280.83
106011.28
105748.72
105493.76
105246.86
105008.32
104778.35
104557.04
104344.41
104140.42
103945
103758.02
103579.33
103408.75
103246.08
103091.12
102943.64
102803.41
102670.19
102543.75
102423.84
102310.22
102202.63
102100.84
102004.6
101913.67
101827.79
101746.74
101670.28
101598.18
101530.21
101466.14
101405.76
101348.84
101295.2
101244.63
101196.97
101152.03
101109.71
101069.94
101032.66
100997.7
100964.83
100934.05
100906.1
100882.11
100861.54
100840.37
100814.82
100792.59
100797.26
100838.56
100854.52
100075.18
103266.38
104278.89
106232.61
107540.96
108708.55
109625.43
110316.33
110798.92
111099.84
111246.97
111267.79
111187.35
111027.6
110807.12
110541.31
110242.67
109921.24
109584.97
109240.14
108891.63
108543.22
108197.82
107857.67
107524.42
107199.33
106883.28
106576.93
106280.69
105994.82
105719.46
105454.65
105200.33
104956.4
104722.7
104499.04
104285.2
104080.95
103886.01
103700.13
103523.04
103354.44
103194.07
103041.63
102896.83
102759.41
102629.07
102505.53
102388.53
102277.79
102173.04
102074.02
101980.47
101892.13
101808.74
101730.08
101655.89
101585.94
101520
101457.86
101399.29
101344.09
101292.08
101243.09
101196.96
101153.6
101112.95
101074.93
101039.38
101006.15
100975.4
100947.91
100924.44
100904
100883.1
100859.82
100842.55
100850.2
100885.71
100894.41
104267.66
107673.33
108889.3
110581.01
111707.29
112538.69
113074.05
113368.04
113465.23
113408.67
113234.77
112973.74
112649.8
112281.97
111884.96
111470.06
111045.78
110618.54
110193.12
109773.06
109360.93
108958.58
108567.32
108188.03
107821.28
107467.4
107126.53
106798.69
106483.77
106181.62
105891.99
105614.62
105349.22
105095.45
104853
104621.51
104400.64
104190.04
103989.36
103798.26
103616.39
103443.42
103279.01
103122.85
102974.6
102833.96
102700.62
102574.28
102454.64
102341.41
102234.31
102133.07
102037.42
101947.08
101861.81
101781.34
101705.45
101633.88
101566.41
101502.81
101442.88
101386.41
101333.21
101283.14
101236.06
101191.88
101150.55
101111.99
101076.06
101042.71
101012.22
100985.26
100962.25
100942.07
100922.08
100901.85
100889.02
100897.24
100925.51
100931.27
109499.9
112869.11
113989.12
115117.77
115730.95
116016.75
116039.59
115872.83
115570.48
115174.93
114717.66
114221.89
113704.44
113177.43
112649.48
112126.67
111613.24
111112.1
110625.18
110153.7
109698.41
109259.65
108837.52
108431.95
108042.7
107669.46
107311.87
106969.48
106641.87
106328.57
106029.11
105743.03
105469.85
105209.13
104960.4
104723.24
104497.21
104281.9
104076.89
103881.8
103696.24
103519.83
103352.22
103193.06
103041.99
102898.7
102762.85
102634.13
102512.23
102396.87
102287.73
102184.55
102087.04
101994.94
101907.98
101825.91
101748.49
101675.47
101606.62
101541.72
101480.56
101422.94
101368.68
101317.65
101269.72
101224.81
101182.87
101143.83
101107.61
101074.25
101044.06
101017.55
100994.89
100975.1
100956.46
100939.42
100930.06
100937.46
100958.96
100963.67
115722.49
118236.85
118849.13
119132.17
119040.02
118713.53
118232.02
117656.02
117026.08
116369.69
115705.08
115044.26
114395
113762.23
113148.98
112556.96
111987.04
111439.49
110914.21
110410.83
109928.83
109467.58
109026.39
108604.55
108201.35
107816.06
107447.98
107096.43
106760.75
106440.29
106134.45
105842.65
105564.3
105298.88
105045.87
104804.77
104575.1
104356.41
104148.26
103950.22
103761.89
103582.88
103412.8
103251.29
103097.99
102952.57
102814.69
102684.03
102560.27
102443.12
102332.28
102227.47
102128.39
102034.79
101946.39
101862.95
101784.22
101709.96
101639.93
101573.91
101511.7
101453.1
101397.94
101346.08
101297.42
101251.89
101209.42
101169.98
101133.53
101100.19
101070.23
101044.02
101021.57
101002.24
100985.14
100971.05
100964.11
100969.48
100984.38
100989.31
122351.6
122794.21
122578.27
122031.74
121303.15
120482.34
119625.34
118763.87
117916.44
117093.26
116299.75
115538.44
114810.15
114114.69
113451.28
112818.81
112216.01
111641.54
111094.04
110572.21
110074.78
109600.52
109148.31
108717.07
108305.77
107913.48
107539.3
107182.39
106841.97
106517.3
106207.68
105912.45
105631
105362.74
105107.11
104863.58
104631.64
104410.83
104200.68
104000.75
103810.62
103629.89
103458.17
103295.08
103140.28
102993.4
102854.11
102722.1
102597.03
102478.62
102366.56
102260.57
102160.36
102065.66
101976.22
101891.78
101812.08
101736.9
101665.99
101599.14
101536.14
101476.79
101420.93
101368.43
101319.18
101273.12
101230.18
101190.35
101153.65
101120.21
101090.26
101064.05
101041.58
101022.53
101006.65
100994.7
100989.11
100992.31
101002.13
101007.85
126224.53
125600.91
124688.11
123638.8
122557.35
121487.71
120452.55
119461.14
118516.93
117620.18
116769.59
115963.13
115198.45
114473.13
113784.77
113131.11
112510.03
111919.54
111357.82
110823.18
110314.09
109829.11
109366.94
108926.36
108506.28
108105.65
107723.53
107359.02
107011.29
106679.59
106363.19
106061.4
105773.6
105499.19
105237.59
104988.28
104750.73
104524.47
104309.04
104103.99
103908.89
103723.36
103546.98
103379.4
103220.24
103069.16
102925.82
102789.9
102661.07
102539.04
102423.51
102314.19
102210.79
102113.04
102020.68
101933.45
101851.1
101773.4
101700.09
101630.96
101565.79
101504.39
101446.59
101392.26
101341.29
101293.6
101249.15
101207.93
101170
101135.5
101104.64
101077.58
101054.38
101034.93
101019.3
101008.14
101002.84
101004.44
101011.41
101017.94
104146.45
104119.93
104168.4
104216.92
104252.5
104261.98
104244.38
104214.81
104179.41
104134.69
104076.23
104004.64
103923.87
103838.74
103749.93
103657.52
103561.83
103463.37
103362.55
103259.76
103155.36
103049.71
102943.13
102835.9
102728.3
102620.59
102512.99
102405.73
102299.01
102193.01
102087.91
101983.9
101881.12
101779.73
101679.89
101581.73
101485.42
101391.07
101298.84
101208.86
101121.26
101036.18
100953.76
100874.11
100797.37
100723.65
100653.08
100585.76
100521.8
100461.29
100404.31
100350.92
100301.17
100255.1
100212.71
100174
100138.94
100107.49
100079.59
100055.17
100034.15
100016.41
100001.84
99990.285
99981.591
99975.508
99971.879
99970.197
99970.602
99971.808
99975.278
99977.334
99983.598
99983.501
99993.79
99986.823
100004.01
99985.262
100009.11
99982.046
103514.61
103508.31
103521.62
103537.17
103535.46
103527.63
103516.25
103498.23
103468.48
103433.04
103390.78
103343.43
103290.28
103232.42
103169.92
103103.45
103033.23
102959.6
102882.89
102803.4
102721.42
102637.25
102551.17
102463.46
102374.37
102284.19
102193.15
102101.5
102009.49
101917.35
101825.3
101733.56
101642.34
101551.85
101462.3
101373.87
101286.75
101201.14
101117.22
101035.16
100955.14
100877.32
100801.87
100728.96
100658.72
100591.32
100526.89
100465.55
100407.43
100352.63
100301.24
100253.33
100208.96
100168.16
100130.94
100097.3
100067.2
100040.58
100017.39
99997.537
99980.923
99967.431
99956.931
99949.267
99944.269
99941.695
99941.366
99942.825
99946.109
99950.131
99955.99
99960.659
99968.645
99971.294
99982.418
99978.419
99995.501
99980.087
100003.89
99977.751
103097.22
103081.33
103052.24
103021.72
102991.99
102964.26
102931.97
102900.39
102865.21
102829.53
102789.94
102748.98
102704.53
102657.98
102608.43
102556.38
102501.65
102444.41
102384.7
102322.62
102258.29
102191.85
102123.44
102053.22
101981.35
101908.02
101833.4
101757.7
101681.11
101603.84
101526.09
101448.08
101370.01
101292.11
101214.58
101137.64
101061.5
100986.38
100912.48
100840
100769.16
100700.14
100633.14
100568.35
100505.95
100446.1
100388.97
100334.71
100283.45
100235.31
100190.41
100148.81
100110.59
100075.77
100044.38
100016.41
99991.809
99970.534
99952.506
99937.632
99925.802
99916.89
99910.757
99907.239
99906.162
99907.289
99910.427
99915.156
99921.447
99928.353
99936.713
99943.984
99953.837
99959.09
99971.23
99970.036
99987.064
99974.872
99998.701
99973.667
102499.13
102476.47
102448.12
102416.8
102385.63
102357.97
102325.93
102296.8
102263.54
102232.23
102197.47
102163.41
102126.63
102089.42
102050.14
102009.54
101967.15
101923.12
101877.32
101829.75
101780.41
101729.31
101676.48
101621.98
101565.88
101508.27
101449.25
101388.95
101327.52
101265.09
101201.85
101137.95
101073.6
101008.99
100944.31
100879.77
100815.6
100752
100689.19
100627.39
100566.82
100507.69
100450.21
100394.59
100341.03
100289.72
100240.83
100194.55
100151.01
100110.35
100072.7
100038.13
100006.73
99978.525
99953.546
99931.779
99913.187
99897.708
99885.26
99875.743
99869.038
99865.01
99863.512
99864.376
99867.423
99872.421
99879.171
99887.284
99896.683
99906.534
99917.48
99927.347
99939.169
99946.892
99960.206
99961.723
99979.04
99969.667
99993.69
99969.83
101773.55
101757.85
101742.69
101724.7
101704.7
101688.96
101667.33
101650.04
101627.36
101607.91
101584.05
101561.92
101536.64
101511.77
101484.85
101457.07
101427.69
101396.98
101364.77
101331.03
101295.74
101258.88
101220.44
101180.46
101138.95
101095.95
101051.55
101005.8
100958.81
100910.68
100861.54
100811.53
100760.8
100709.53
100657.87
100606.04
100554.22
100502.62
100451.46
100400.95
100351.31
100302.76
100255.53
100209.82
100165.84
100123.81
100083.9
100046.31
100011.19
99978.694
99948.938
99922.023
99898.027
99876.996
99858.951
99843.879
99831.743
99822.475
99815.987
99812.172
99810.902
99812.035
99815.417
99820.875
99828.229
99837.253
99847.743
99859.34
99871.934
99884.784
99898.379
99910.848
99924.704
99934.799
99949.347
99953.556
99971.32
99964.525
99989.132
99966.26
101062.09
101056.12
101052.07
101047.14
101038.13
101034.33
101023.2
101017.93
101005.85
100998.27
100985.11
100974.64
100960.36
100947.08
100931.59
100915.57
100897.96
100879.21
100859.12
100837.7
100814.92
100790.76
100765.21
100738.26
100709.91
100680.2
100649.14
100616.78
100583.18
100548.42
100512.59
100475.78
100438.13
100399.77
100360.85
100321.54
100282.01
100242.46
100203.08
100164.09
100125.68
100088.08
100051.5
100016.16
99982.274
99950.039
99919.655
99891.306
99865.158
99841.359
99820.036
99801.293
99785.206
99771.824
99761.164
99753.213
99747.929
99745.24
99745.05
99747.243
99751.685
99758.225
99766.703
99776.945
99788.766
99801.948
99816.286
99831.45
99847.306
99863.199
99879.488
99894.564
99910.496
99922.935
99938.792
99945.548
99963.681
99959.429
99984.928
99962.971
100419.2
100419.44
100420.56
100423.86
100421.83
100426.54
100422.52
100426.11
100421.46
100422.89
100418.07
100417.43
100412.22
100408.11
100401.54
100394.98
100387.06
100378.32
100368.51
100357.63
100345.64
100332.49
100318.16
100302.64
100285.9
100267.95
100248.8
100228.47
100206.99
100184.41
100160.8
100136.23
100110.81
100084.63
100057.83
100030.54
100002.93
99975.155
99947.398
99919.847
99892.696
99866.147
99840.404
99815.672
99792.157
99770.055
99749.559
99730.845
99714.077
99699.398
99686.932
99676.78
99669.015
99663.681
99660.79
99660.324
99662.233
99666.439
99672.838
99681.306
99691.699
99703.859
99717.621
99732.807
99749.23
99766.681
99784.955
99803.75
99822.917
99841.88
99860.891
99878.574
99896.607
99911.353
99928.567
99937.777
99956.408
99954.538
99980.713
99959.961
99841.794
99846.932
99851.016
99859.305
99860.778
99871.05
99871.051