/*--------------------------------*- C++ -*----------------------------------*\
  =========                 |
  \\      /  F ield         | OpenFOAM: The Open Source CFD Toolbox
   \\    /   O peration     | Website:  https://openfoam.org
    \\  /    A nd           | Version:  12
     \\/     M anipulation  |
\*---------------------------------------------------------------------------*/
FoamFile
{
    format      ascii;
    class       volVectorField;
    location    "0.09";
    object      U;
}
// * * * * * * * * * * * * * * * * * * * * * * * * * * * * * * * * * * * * * //

dimensions      [0 1 -1 0 0 0 0];

internalField   nonuniform List<vector> 
16000
(
(215.16891 -3.146119e-17 -8.3766977)
(252.1183 0 5.3789852)
(238.21081 0 -7.5794549)
(245.87488 4.9788779e-17 3.7868225)
(241.17173 -4.9146339e-17 -5.9788826)
(243.38991 0 1.7550638)
(241.58599 0 -4.3601696)
(242.09842 8.4123056e-17 -0.0343117)
(241.25419 -7.9924994e-17 -3.1958827)
(241.13521 0 -1.2865265)
(240.62033 7.2218614e-17 -2.6025449)
(240.27387 -2.0575219e-16 -2.0165188)
(239.83046 1.3022956e-16 -2.4640601)
(239.40236 -1.2387801e-16 -2.4027621)
(238.94619 1.1753713e-16 -2.5688249)
(238.47628 -3.4866686e-18 -2.6445856)
(237.98784 -3.3121991e-18 -2.7524005)
(237.48179 -9.773524e-17 -2.8495357)
(236.95758 1.9148534e-16 -2.9486056)
(236.41509 -9.0852814e-17 -3.0456259)
(235.85417 1.7281265e-16 -3.1409888)
(235.27474 -1.6381335e-16 -3.2340042)
(234.67683 0 -3.3241817)
(234.06053 1.5248204e-16 -3.4109481)
(233.42605 -4.1285839e-18 -3.4937229)
(232.77369 -2.66128e-16 -3.5718943)
(232.10387 1.2613557e-16 -3.6448446)
(231.41715 0 -3.7119441)
(230.71419 0 -3.7725675)
(229.9958 2.1904857e-16 -3.8260987)
(229.26293 -2.04096e-16 -3.8719439)
(228.51665 0 -3.9095402)
(227.75818 0 -3.9383665)
(226.98889 0 -3.9579574)
(226.21024 5.1489364e-18 -3.9679141)
(225.42383 1.562534e-16 -3.9679151)
(224.63139 -1.4303743e-16 -3.9577286)
(223.83471 -1.4008959e-16 -3.9372194)
(223.03566 1.240411e-16 -3.9063588)
(222.23621 0 -3.8652311)
(221.43831 -1.1871166e-16 -3.814035)
(220.64397 1.1205073e-16 -3.7530874)
(219.85516 -2.1234799e-16 -3.6828188)
(219.07385 2.0034499e-16 -3.603769)
(218.30194 -1.9565759e-16 -3.5165784)
(217.54124 3.5821311e-16 -3.4219761)
(216.79348 5.6081314e-18 -3.3207686)
(216.06026 2.9386629e-19 -3.2138249)
(215.34306 -1.5076574e-16 -3.1020602)
(214.6432 1.4258306e-16 -2.9864193)
(213.96185 -1.2594387e-16 -2.8678588)
(213.30001 0 -2.7473268)
(212.65851 7.4848316e-18 -2.6257466)
(212.03803 0 -2.5039992)
(211.43907 6.6600419e-18 -2.3829091)
(210.86193 2.0736683e-16 -2.2632331)
(210.30677 -3.7900316e-16 -2.1456476)
(209.77352 1.0948145e-17 -2.0307363)
(209.26192 1.6840246e-16 -1.9189805)
(208.77145 -1.4904816e-16 -1.8107702)
(208.30132 1.4039098e-16 -1.7063812)
(207.8506 -8.8335445e-18 -1.6060271)
(207.41814 0 -1.5098163)
(207.00254 0 -1.4177834)
(206.60216 -1.1129301e-16 -1.3299187)
(206.21507 1.1196963e-16 -1.2461871)
(205.83911 -9.920212e-17 -1.1665568)
(205.472 1.9362612e-16 -1.0909898)
(205.11161 -1.8894523e-16 -1.0193874)
(204.75622 8.3757647e-17 -0.95151071)
(204.40429 5.288475e-18 -0.88686781)
(204.05361 0 -0.82446674)
(203.70015 4.7538693e-18 -0.76294071)
(203.33686 -4.5152243e-18 -0.70177866)
(202.95548 0 -0.63949945)
(202.55607 -3.3758452e-17 -0.56892709)
(202.14014 6.2487802e-17 -0.50443834)
(201.66494 -3.1753039e-17 -0.47148789)
(201.28141 0 -0.2558156)
(200.78358 0 -0.5796777)
(216.48971 0 -11.192667)
(253.75516 -3.7334506e-18 3.3338587)
(239.1301 -1.1998332e-16 -10.500197)
(247.34148 1.1062406e-16 1.7070188)
(242.28519 0 -8.8354908)
(244.73143 1.0178278e-16 -0.39855886)
(242.7253 -1.879578e-16 -7.1003842)
(243.32418 -1.0199949e-19 -2.3115597)
(242.3895 8.4706757e-17 -5.7815489)
(242.2704 0 -3.6813543)
(241.7148 -1.5301133e-16 -5.0739688)
(241.33912 1.4967526e-16 -4.456338)
(240.86364 1.423556e-16 -4.8895246)
(240.40104 -2.6205842e-16 -4.8293957)
(239.91033 1.2047044e-16 -4.9749826)
(239.40402 1.1075456e-17 -5.0434224)
(238.87823 1.1581396e-16 -5.1354718)
(238.33356 -1.0314632e-16 -5.2187293)
(237.76962 0 -5.3015626)
(237.18629 0 -5.3812882)
(236.58351 5.6917897e-18 -5.4577936)
(235.96131 -1.7855275e-16 -5.5303822)
(235.31979 3.3857055e-16 -5.5984314)
(234.6592 -3.1636803e-16 -5.66127)
(233.97986 1.4299577e-16 -5.7182128)
(233.28227 0 -5.7685608)
(232.567 1.2471537e-16 -5.8116076)
(231.83481 -1.3373356e-16 -5.8466536)
(231.08657 0 -5.873014)
(230.32331 3.5342266e-18 -5.8900303)
(229.54621 -1.3404952e-17 -5.8970813)
(228.75659 0 -5.8935987)
(227.95591 0 -5.8790751)
(227.14578 -1.7104257e-16 -5.853084)
(226.3279 3.3963181e-16 -5.8152882)
(225.50413 -1.6308775e-16 -5.765453)
(224.67639 -1.5947811e-16 -5.7034592)
(223.8467 1.4596445e-16 -5.6293089)
(223.0171 -1.1242117e-16 -5.5431354)
(222.1897 -2.8386287e-19 -5.4452072)
(221.36661 -2.6545049e-19 -5.3359287)
(220.54989 2.3333473e-16 -5.2158386)
(219.74159 -1.1008936e-16 -5.0856042)
(218.94367 0 -4.9460111)
(218.15801 2.0283385e-16 -4.7979532)
(217.38636 1.1959841e-17 -4.6424164)
(216.63035 -5.1331947e-18 -4.4804622)
(215.89143 -1.6490142e-16 -4.3132094)
(215.17092 0 -4.1418141)
(214.46996 -1.4686781e-16 -3.967448)
(213.78948 -8.8741595e-18 -3.7912779)
(213.13028 2.6065217e-16 -3.6144427)
(212.49296 -1.303547e-16 -3.4380353)
(211.87795 0 -3.2630835)
(211.28551 -2.0422685e-17 -3.0905347)
(210.71572 -2.1160857e-16 -2.9212433)
(210.16848 3.6194489e-16 -2.7559575)
(209.64354 -2.156656e-16 -2.595309)
(209.14044 0 -2.4398085)
(208.65849 -1.7108407e-16 -2.2898592)
(208.19676 1.7977721e-16 -2.1457339)
(207.75419 2.672769e-17 -2.007634)
(207.32955 0 -1.875666)
(206.92141 -1.4208771e-16 -1.749854)
(206.52815 7.3362209e-18 -1.6301812)
(206.14792 1.118497e-16 -1.516602)
(205.77862 -1.9759384e-17 -1.4090651)
(205.41795 9.3093969e-17 -1.3074948)
(205.06368 -1.0522453e-16 -1.2117308)
(204.71382 5.5129837e-18 -1.1214488)
(204.3666 -5.2012958e-18 -1.0360155)
(204.01982 0 -0.95422431)
(203.66942 -4.6399615e-18 -0.8747028)
(203.30802 4.3883249e-18 -0.79717679)
(202.92823 8.3108547e-18 -0.71911609)
(202.53042 9.8467425e-19 -0.63385196)
(202.1076 0 -0.56368787)
(201.64531 3.0223709e-17 -0.50929934)
(201.25526 -5.7595681e-17 -0.28735192)
(200.74201 2.5853526e-17 -0.62914107)
(217.67468 0 -14.082537)
(255.24194 -1.2279601e-16 1.0933346)
(240.09943 2.5042019e-16 -13.507943)
(248.60399 -2.2363747e-16 -0.54608634)
(243.28675 1.1045223e-16 -11.771693)
(245.86929 -3.2705208e-18 -2.7455075)
(243.73529 9.9548274e-17 -9.8919075)
(244.36001 -9.42815e-17 -4.7862409)
(243.36829 -5.5969732e-18 -8.4340185)
(243.22585 -5.3143345e-18 -6.2421653)
(242.63488 -1.0095387e-17 -7.6452239)
(242.22316 1.3928033e-16 -7.0333141)
(241.71222 -1.411819e-16 -7.4345216)
(241.21113 1.3856134e-16 -7.381431)
(240.68134 -1.1903314e-16 -7.5052317)
(240.13431 -1.5600933e-17 -7.5654173)
(239.56655 0 -7.6415853)
(238.97865 -1.2125547e-20 -7.7097355)
(238.37029 -2.2691026e-16 -7.7752309)
(237.74147 -3.6570093e-19 -7.8360562)
(237.09223 1.7392172e-16 -7.8917838)
(236.42272 1.7083855e-17 -7.9416295)
(235.73321 -2.1608591e-17 -7.9848486)
(235.02411 0 -8.0206634)
(234.29592 6.9992057e-21 -8.0482912)
(233.54934 -1.6587558e-16 -8.066946)
(232.78516 1.4819174e-16 -8.0758516)
(232.00438 8.2707186e-18 -8.0742484)
(231.20812 0 -8.061413)
(230.39769 -7.4198097e-18 -8.0366643)
(229.57452 -1.6761697e-21 -7.9993846)
(228.74024 -1.9972631e-16 -7.9490308)
(227.89659 2.0115053e-16 -7.8851501)
(227.04547 1.1919533e-17 -7.807399)
(226.18887 -1.8043462e-16 -7.7155515)
(225.32889 1.4891364e-16 -7.6095164)
(224.46772 -1.8144483e-16 -7.4893453)
(223.60757 1.5208302e-16 -7.3552424)
(222.7507 -1.4399315e-16 -7.207566)
(221.89934 1.3570711e-16 -7.0468341)
(221.05571 1.604561e-17 -6.8737193)
(220.22195 0 -6.6890407)
(219.4001 2.0014226e-16 -6.4937556)
(218.59209 -2.422513e-16 -6.2889441)
(217.79971 0 -6.0757912)
(217.02459 1.7978369e-16 -5.8555697)
(216.26817 -1.5776349e-16 -5.6296148)
(215.53172 1.7021003e-16 -5.3993037)
(214.81631 -1.8003423e-16 -5.1660298)
(214.1228 0 -4.9311799)
(213.45187 1.7751179e-16 -4.6961099)
(212.80402 -1.334038e-16 -4.4621214)
(212.17956 0 -4.2304428)
(211.57862 0 -4.0022114)
(211.00117 1.2497565e-16 -3.7784553)
(210.44702 -2.0870888e-16 -3.5600838)
(209.91582 1.2251095e-16 -3.3478741)
(209.40705 1.8436046e-16 -3.142465)
(208.92004 1.9449793e-19 -2.9443548)
(208.4539 1.7265455e-19 -2.7539178)
(208.00756 -3.2445089e-16 -2.5713868)
(207.57979 8.9537345e-17 -2.3969092)
(207.16927 0 -2.23055)
(206.77452 1.4228083e-16 -2.0722848)
(206.39389 -1.632021e-16 -1.9220529)
(206.0256 1.1153479e-16 -1.7797671)
(205.66762 1.315811e-17 -1.64533)
(205.31771 -8.6051922e-17 -1.5186134)
(204.97355 1.1553957e-17 -1.3993995)
(204.633 2.1726743e-17 -1.287298)
(204.29409 -1.021575e-16 -1.1815471)
(203.95458 9.607518e-17 -1.0807813)
(203.61034 -7.2375268e-17 -0.98371693)
(203.25402 1.3632579e-16 -0.89001337)
(202.87911 -5.6214662e-17 -0.79599643)
(202.48523 -6.0641405e-17 -0.69723551)
(202.06203 5.0106814e-17 -0.61990573)
(201.61073 0 -0.54280835)
(201.2249 3.2057221e-18 -0.31961342)
(200.69538 -1.2151076e-17 -0.67780388)
(218.69836 0 -17.042003)
(256.57698 0 -1.2838716)
(240.86445 0 -16.64883)
(249.68655 1.0687181e-16 -2.9024341)
(244.10273 -1.2409593e-16 -14.833489)
(246.84009 -2.2101634e-16 -5.2086614)
(244.56454 2.1020918e-16 -12.798745)
(245.21751 -1.245059e-17 -7.3869982)
(244.16187 5.9285511e-18 -11.195)
(243.99195 -1.7434114e-16 -8.9336325)
(243.36122 1.7067992e-16 -10.326546)
(242.90801 1.0143414e-17 -9.7349321)
(242.35682 -1.5403022e-16 -10.09605)
(241.81197 1.3683014e-16 -10.051708)
(241.23803 -1.3529814e-20 -10.152492)
(240.64517 -8.2064101e-18 -10.202486)
(240.03046 0 -10.261197)
(239.39444 -7.4077488e-18 -10.311811)
(238.73695 -2.1086733e-16 -10.357336)
(238.05808 2.1291981e-16 -10.396205)
(237.35804 1.2638402e-17 -10.427759)
(236.63711 -1.1982267e-17 -10.451127)
(235.89575 2.1592253e-16 -10.465461)
(235.13455 -1.7199428e-16 -10.469891)
(234.35425 1.0199502e-17 -10.463544)
(233.55577 1.9339856e-16 -10.445563)
(232.7402 -1.2793384e-16 -10.415105)
(231.9088 0 -10.371374)
(231.06301 1.4782205e-16 -10.313621)
(230.20445 -1.240791e-16 -10.241173)
(229.33491 2.500596e-16 -10.153444)
(228.45632 -1.3360027e-17 -10.049958)
(227.57078 -2.1004293e-16 -9.9303634)
(226.6805 1.7420802e-16 -9.7944506)
(225.78777 -1.8766648e-16 -9.6421645)
(224.89499 -3.0272292e-20 -9.4736193)
(224.00457 2.0978466e-16 -9.2891042)
(223.11894 -3.1659586e-16 -9.0890884)
(222.24052 9.317924e-17 -8.8742224)
(221.37164 3.527694e-17 -8.6453327)
(220.51456 -4.9881514e-17 -8.4034153)
(219.67142 0 -8.1496194)
(218.84421 -8.875267e-17 -7.885233)
(218.03472 1.390019e-16 -7.6116597)
(217.24458 -2.0987174e-16 -7.3303969)
(216.4752 1.9719298e-16 -7.0430117)
(215.72776 -2.0914334e-16 -6.751111)
(215.00323 3.9325059e-16 -6.4563161)
(214.30236 -3.0816996e-16 -6.1602363)
(213.62568 3.0901412e-16 -5.8644417)
(212.97354 -1.4503609e-16 -5.5704396)
(212.34606 1.3651744e-16 -5.279653)
(211.74323 -9.5967081e-17 -4.9933995)
(211.16484 3.0091232e-17 -4.712878)
(210.61054 0 -4.43915)
(210.07985 0 -4.1731326)
(209.57213 0 -3.9155885)
(209.08663 2.328776e-17 -3.6671233)
(208.62245 0 -3.4281866)
(208.17854 -1.6388608e-16 -3.1990898)
(207.75364 1.9184713e-16 -2.9799983)
(207.34643 -1.0797272e-16 -2.7709749)
(206.95547 -1.1299854e-19 -2.572012)
(206.57922 2.5257839e-16 -2.3830089)
(206.21604 2.9658102e-17 -2.20383)
(205.86416 -1.3851297e-16 -2.0343175)
(205.52164 5.1935117e-17 -1.8743033)
(205.18628 -1.4590112e-16 -1.7235889)
(204.85573 -4.5584591e-17 -1.581897)
(204.52769 -6.4071589e-17 -1.4487766)
(204.20005 -6.0074171e-17 -1.3233549)
(203.87052 5.6297693e-17 -1.2041835)
(203.53498 0 -1.0901067)
(203.18632 0 -0.98048603)
(202.81878 -1.5512865e-17 -0.87075102)
(202.43052 0 -0.75945395)
(202.00986 6.8521698e-18 -0.67331418)
(201.5703 5.1587709e-17 -0.57215685)
(201.19093 -7.2899925e-17 -0.35007635)
(200.64595 -3.1380279e-21 -0.72516673)
(219.54546 0 -20.199741)
(257.74029 -8.8348827e-18 -3.7380415)
(241.49199 2.6721917e-16 -19.924942)
(250.5488 -2.4959471e-16 -5.384505)
(244.68486 2.5469554e-16 -18.00958)
(247.6095 -2.3302477e-16 -7.8247944)
(245.19503 -2.221352e-16 -15.811063)
(245.86489 2.1027986e-16 -10.145907)
(244.74794 0 -14.058815)
(244.53981 0 -11.775085)
(243.86702 1.8021599e-16 -13.121943)
(243.36548 -1.707313e-16 -12.569258)
(242.76925 -1.0142546e-17 -12.880511)
(242.17539 2.8849089e-17 -12.844155)
(241.55232 -9.1295146e-18 -12.919925)
(240.90874 3.4626327e-17 -12.955983)
(240.24229 0 -12.994319)
(239.55346 0 -13.023655)
(238.84223 -2.3647334e-16 -13.045388)
(238.10881 2.0971979e-16 -13.05817)
(237.35356 0 -13.061161)
(236.57696 0 -13.053381)
(235.7797 -1.9081391e-16 -13.033855)
(234.96261 3.6111137e-16 -13.001609)
(234.12673 -1.7079343e-16 -12.95567)
(233.2733 -2.0233523e-17 -12.895097)
(232.40374 -3.8322094e-17 -12.818999)
(231.5197 -1.4520596e-16 -12.726547)
(230.62299 1.1989025e-16 -12.617003)
(229.71565 0 -12.489737)
(228.79984 -3.0705356e-17 -12.344246)
(227.87791 0 -12.180184)
(226.95232 0 -11.997365)
(226.02564 2.0727302e-16 -11.795793)
(225.1005 -2.1969295e-16 -11.575666)
(224.17954 2.304524e-17 -11.337386)
(223.26542 -2.1744153e-17 -11.081564)
(222.36073 -4.1107818e-17 -10.809018)
(221.46799 -8.5853586e-20 -10.520767)
(220.58958 8.1549056e-20 -10.218017)
(219.72771 -7.6963664e-20 -9.902147)
(218.88442 0 -9.5746846)
(218.06153 -1.2201605e-16 -9.2372851)
(217.26063 1.1457764e-16 -8.8916986)
(216.48304 0 -8.5397423)
(215.72985 -5.0780924e-17 -8.183273)
(215.00189 1.9085243e-16 -7.8241498)
(214.29973 -2.2372956e-16 -7.4642092)
(213.62373 -2.1047808e-16 -7.1052351)
(212.97401 1.5780076e-16 -6.7489335)
(212.35048 1.112885e-16 -6.3969093)
(211.75291 -1.3891159e-16 -6.0506482)
(211.18086 -3.2565992e-17 -5.7114975)
(210.63378 -2.1393202e-16 -5.3806563)
(210.11099 1.1441543e-16 -5.0591602)
(209.61169 -1.0730332e-16 -4.7478781)
(209.13498 1.0036308e-16 -4.4475074)
(208.67985 2.3513803e-16 -4.1585739)
(208.2452 -1.7585686e-16 -3.8814377)
(207.82982 0 -3.6163117)
(207.43232 -3.8478334e-17 -3.3632632)
(207.05128 -7.2019993e-17 -3.1222467)
(206.68516 1.3457134e-16 -2.8931515)
(206.3324 1.2589287e-16 -2.6757776)
(205.99134 -2.3525038e-16 -2.4698886)
(205.66024 8.2386323e-17 -2.2752297)
(205.33722 5.1351587e-17 -2.0915355)
(205.02016 9.5995658e-17 -1.9185172)
(204.7067 1.345632e-16 -1.7558259)
(204.39441 2.1626589e-20 -1.6029419)
(204.08105 0 -1.4588959)
(203.76426 0 -1.3222363)
(203.43999 -3.4235564e-17 -1.1919424)
(203.10161 9.6044179e-17 -1.0668798)
(202.74403 -8.982988e-17 -0.94195588)
(202.36347 -8.4080292e-17 -0.81922999)
(201.94813 5.2471162e-17 -0.7236403)
(201.52288 0 -0.59867431)
(201.1515 4.6098958e-17 -0.38062167)
(200.59347 3.7556578e-21 -0.77059417)
(220.19525 0 -23.529924)
(258.70644 1.8820029e-20 -6.2671526)
(241.92847 9.0929472e-18 -23.295924)
(251.24432 2.8908021e-16 -8.0065684)
(245.1102 3.3292256e-19 -21.290352)
(248.14823 -5.0705809e-16 -10.592127)
(245.58145 -3.2295219e-19 -18.918792)
(246.27234 4.5733446e-16 -13.067684)
(245.0954 -2.1042045e-16 -17.023413)
(244.84188 -1.2481705e-17 -14.766134)
(244.1255 1.1854516e-17 -16.030469)
(243.57049 -1.8000664e-16 -15.529661)
(242.92543 1.9177715e-16 -15.783111)
(242.27828 -1.8221906e-16 -15.750669)
(241.60168 3.0695347e-16 -15.799168)
(240.9028 -3.0926623e-16 -15.816765)
(240.17984 1.3783726e-16 -15.831275)
(239.43328 0 -15.83527)
(238.66329 0 -15.829017)
(237.87029 1.46823e-17 -15.811179)
(237.05486 -2.7839728e-17 -15.780703)
(236.2178 0 -15.73645)
(235.36009 1.9991253e-16 -15.677294)
(234.48295 4.7096765e-19 -15.602136)
(233.58781 -3.5777546e-16 -15.509908)
(232.67634 1.6905023e-16 -15.399605)
(231.75041 2.0001529e-17 -15.270316)
(230.81214 0 -15.12123)
(229.86382 -1.7917359e-16 -14.951678)
(228.90796 1.3510754e-16 -14.761146)
(227.94718 -2.2404016e-16 -14.549301)
(226.98429 2.1087742e-16 -14.316015)
(226.02215 -2.2822038e-16 -14.061371)
(225.06367 2.1481897e-16 -13.785692)
(224.11181 7.6150365e-17 -13.489533)
(223.16944 0 -13.173687)
(222.23939 0 -12.83919)
(221.32433 4.2439705e-17 -12.487299)
(220.42678 3.9971905e-17 -12.119481)
(219.54905 -3.7631989e-17 -11.737388)
(218.6932 3.5414137e-17 -11.342837)
(217.86102 6.68132e-17 -10.937766)
(217.05405 -6.2750913e-17 -10.524216)
(216.27349 3.5379248e-16 -10.104284)
(215.52027 -2.7674359e-16 -9.6800923)
(214.79504 5.194038e-17 -9.2537547)
(214.09815 -4.8872058e-17 -8.8273398)
(213.4297 0 -8.4028443)
(212.78955 2.1478937e-16 -7.9821634)
(212.17735 -1.6087772e-16 -7.5670707)
(211.59257 0 -7.1591959)
(211.03451 0 -6.7600136)
(210.50235 1.3235956e-16 -6.3708278)
(209.99516 -6.1864281e-17 -5.9927666)
(209.51192 0 -5.6267743)
(209.05154 -1.6252806e-16 -5.2736109)
(208.61286 1.0116662e-16 -4.9338543)
(208.19466 1.4199133e-16 -4.6079039)
(207.79567 -1.7661959e-16 -4.2959903)
(207.41453 1.6507527e-16 -3.9981962)
(207.04978 -1.5397519e-16 -3.7144622)
(206.6999 6.8036108e-20 -3.4446164)
(206.36334 0 -3.1884237)
(206.03849 6.2571241e-17 -2.9455682)
(205.7237 -2.9172541e-16 -2.7156961)
(205.41728 1.6314326e-16 -2.4984363)
(205.11742 0 -2.2934075)
(204.82207 -1.4181991e-16 -2.1002131)
(204.52888 8.8092741e-17 -1.9184158)
(204.23533 1.2322391e-16 -1.7474065)
(203.93905 2.8624431e-20 -1.5861339)
(203.63758 -7.1310871e-17 -1.4332178)
(203.32697 9.971631e-17 -1.2877332)
(203.00133 -1.5489987e-16 -1.1479045)
(202.65609 8.6640445e-17 -1.0086422)
(202.28513 2.6917982e-17 -0.87566775)
(201.87781 5.0235379e-17 -0.76965929)
(201.46954 0 -0.62135433)
(201.10578 -4.3766365e-17 -0.41071102)
(200.53843 2.0367021e-17 -0.81328325)
(220.63085 0 -27.027732)
(259.4662 9.83051e-18 -8.9040116)
(242.16461 -3.0655539e-16 -26.79297)
(251.75471 2.503085e-16 -10.769564)
(245.33964 2.5711102e-16 -24.670291)
(248.44488 -5.0147209e-16 -13.514639)
(245.76515 2.3066487e-16 -22.108986)
(246.42244 2.3353289e-16 -16.152071)
(245.20225 -2.2132332e-16 -20.073864)
(244.88645 3.9395577e-17 -17.89421)
(244.12566 0 -19.040609)
(243.51173 0 -18.600864)
(242.81293 -2.2405944e-17 -18.792857)
(242.10674 -1.7011056e-16 -18.759942)
(241.37037 1.4078035e-16 -18.780413)
(240.60963 1.9097534e-17 -18.775928)
(239.82337 -3.6201202e-17 -18.763559)
(239.01221 3.0886218e-16 -18.738262)
(238.17662 -2.2697172e-16 -18.69951)
(237.31737 2.4635138e-16 -18.645853)
(236.43541 -2.0357768e-16 -18.57603)
(235.53194 2.7601456e-17 -18.488747)
(234.6084 1.568095e-16 -18.382746)
(233.66651 -1.9722733e-16 -18.256837)
(232.70822 0 -18.109902)
(231.73574 0 -17.940939)
(230.7515 0 -17.749084)
(229.75819 -1.9752609e-16 -17.53364)
(228.75867 1.8607012e-16 -17.294104)
(227.75598 -3.5256481e-17 -17.030189)
(226.75326 0 -16.741856)
(225.75375 -2.8261993e-16 -16.429324)
(224.76074 2.3621007e-16 -16.093077)
(223.77747 -5.5868369e-17 -15.733883)
(222.80711 1.5799287e-16 -15.352786)
(221.85271 -4.9097908e-17 -14.95109)
(220.91714 -1.8622365e-16 -14.530361)
(220.00302 2.1967868e-16 -14.092384)
(219.11272 -1.6492021e-16 -13.639147)
(218.24832 7.779041e-17 -13.172802)
(217.41156 -7.2991783e-17 -12.695631)
(216.60383 1.3720892e-16 -12.209994)
(215.82619 -6.4290957e-17 -11.718306)
(215.07934 -2.419645e-16 -11.222979)
(214.36368 5.1020445e-16 -10.726392)
(213.67926 -2.1248947e-16 -10.230852)
(213.02587 -1.4973395e-16 -9.7385655)
(212.40305 9.3093247e-17 -9.2516039)
(211.81011 8.7567047e-17 -8.771888)
(211.24617 -1.6380787e-16 -8.3011675)
(210.71022 1.5304625e-16 -7.841009)
(210.20111 0 -7.3927882)
(209.71763 1.3394722e-16 -6.9576839)
(209.25848 -1.8761225e-16 -6.5366771)
(208.82233 5.8463653e-17 -6.1305514)
(208.40784 5.4482439e-17 -5.7398976)
(208.01361 0 -5.3651214)
(207.63827 0 -5.0064515)
(207.28039 0 -4.6639532)
(206.93854 0 -4.3375518)
(206.61121 0 -4.0270381)
(206.29686 -7.1559121e-17 -3.7320997)
(205.99392 0 -3.4523651)
(205.7008 -5.5591575e-20 -3.1873929)
(205.41588 2.3102636e-16 -2.936704)
(205.13753 -2.1490097e-16 -2.6998019)
(204.86403 -1.0002686e-16 -2.4761792)
(204.5934 -1.8596937e-16 -2.2653221)
(204.32334 2.592181e-16 -2.0666858)
(204.05125 4.9641597e-20 -1.8795492)
(203.77465 7.4648731e-17 -1.7027987)
(203.49091 0 -1.5351809)
(203.19622 0 -1.3757737)
(202.88571 0 -1.2220913)
(202.55504 -1.1138858e-16 -1.0696816)
(202.19551 0 -0.92768754)
(201.79904 -9.6225728e-17 -0.8103024)
(201.41009 1.3417661e-16 -0.63984389)
(201.0531 8.3195677e-17 -0.43882352)
(200.48211 -1.9253175e-17 -0.85220764)
(220.85475 0 -30.70256)
(260.02514 0 -11.648651)
(242.20671 3.2252214e-16 -30.421121)
(252.08327 1.9348368e-17 -13.690177)
(245.3841 -2.6989233e-16 -28.158728)
(248.55824 0 -16.614698)
(245.75052 1.617099e-17 -25.377932)
(246.44562 -3.0654295e-17 -19.391251)
(245.06279 0 -23.189767)
(244.67574 1.9322969e-16 -21.142316)
(243.86376 -4.1834115e-16 -22.148049)
(243.18063 1.9809227e-16 -21.776858)
(242.4185 2.3512113e-17 -21.909412)
(241.64355 0 -21.871343)
(240.83764 2.1097225e-17 -21.86292)
(240.00545 -3.4031467e-16 -21.831978)
(239.14651 7.5026929e-17 -21.788199)
(238.2617 2.5079904e-16 -21.727938)
(237.35192 2.381775e-16 -21.650168)
(236.41835 -2.5690739e-16 -21.553321)
(235.46247 0 -21.435968)
(234.48602 -2.8825723e-16 -21.296702)
(233.49103 2.4474894e-16 -21.134188)
(232.47984 -2.0628995e-16 -20.947209)
(231.45504 1.9443256e-16 -20.734686)
(230.41951 -1.8425937e-16 -20.495707)
(229.37637 3.475959e-16 -20.229579)
(228.32894 -1.6402973e-16 -19.935837)
(227.28071 1.5512857e-16 -19.614293)
(226.23529 -2.9246332e-16 -19.265042)
(225.19634 1.3765017e-16 -18.888493)
(224.16755 1.2999751e-16 -18.485376)
(223.1525 -2.452677e-16 -18.056738)
(222.15469 5.6944516e-17 -17.603943)
(221.1774 -5.7213195e-19 -17.128661)
(220.22366 2.5516197e-16 -16.632828)
(219.29621 0 -16.118633)
(218.39745 1.9360892e-19 -15.588469)
(217.52938 0 -15.044889)
(216.69364 -7.9640151e-17 -14.490563)
(215.89144 -1.4966588e-16 -13.928231)
(215.12356 7.0269507e-17 -13.360647)
(214.39043 0 -12.790541)
(213.69209 -6.1918262e-17 -12.220567)
(213.02822 2.8980183e-16 -11.653272)
(212.39822 -3.2534978e-16 -11.091056)
(211.80123 -3.0483777e-16 -10.53615)
(211.23614 2.8461629e-16 -9.9905944)
(210.70168 -1.77613e-16 -9.4562217)
(210.19646 0 -8.9346516)
(209.71898 0 -8.4272852)
(209.26767 7.2482901e-17 -7.9353056)
(208.84094 6.7641293e-17 -7.4596814)
(208.4372 1.2605452e-16 -7.0011717)
(208.05484 -5.8779433e-17 -6.5603341)
(207.69231 -1.0948669e-16 -6.1375352)
(207.34806 -2.0415956e-16 -5.7329629)
(207.02059 -9.5239077e-17 -5.3466389)
(206.7084 1.7681632e-16 -4.9784348)
(206.41002 0 -4.6280979)
(206.12395 -7.65782e-17 -4.2952549)
(205.84866 -1.4233232e-16 -3.9794444)
(205.58263 1.3223993e-16 -3.6801551)
(205.32433 6.1333685e-17 -3.3968177)
(205.07219 5.7040883e-17 -3.1288283)
(204.82467 0 -2.8755654)
(204.58013 1.9661188e-16 -2.6363969)
(204.33671 1.8242518e-16 -2.4106896)
(204.09217 -2.5382503e-16 -2.1977765)
(203.84391 7.8503696e-17 -1.9968075)
(203.58929 -7.2750234e-17 -1.8066368)
(203.32544 -3.4208206e-20 -1.6261628)
(203.04881 2.5003415e-16 -1.4543256)
(202.75564 -2.3171861e-16 -1.2879756)
(202.44152 5.3655761e-17 -1.1239654)
(202.09524 1.4922468e-16 -0.97415233)
(201.71264 -4.6095972e-17 -0.84443857)
(201.345 -4.2698053e-17 -0.65386954)
(200.9936 0 -0.46701006)
(200.42467 3.6523709e-17 -0.88603899)
(220.87784 3.9224519e-16 -34.56421)
(260.38933 5.413298e-19 -14.508611)
(242.03366 -3.5948242e-16 -34.197556)
(252.22403 0 -16.774815)
(245.16718 0 -31.72288)
(248.33405 -2.6820536e-16 -19.888208)
(245.4297 2.7132971e-16 -28.702195)
(245.95606 6.4351802e-17 -22.79135)
(244.65157 -2.4425371e-16 -26.404474)
(244.18653 2.3103314e-16 -24.534927)
(243.31297 -2.4692152e-16 -25.378905)
(242.5479 2.0754043e-16 -25.071907)
(241.71039 -4.9235773e-17 -25.144825)
(240.85502 -4.6689667e-17 -25.092088)
(239.96808 -1.7692354e-16 -25.049887)
(239.05338 1.6710906e-16 -24.984836)
(238.11114 -3.5686559e-16 -24.901764)
(237.14266 5.9987029e-16 -24.797718)
(236.14937 -2.8343127e-16 -24.671283)
(235.13307 -2.6892676e-16 -24.520751)
(234.09587 2.5360209e-16 -24.344559)
(233.04023 -3.0200452e-17 -24.141237)
(231.96892 -2.2733221e-16 -23.909445)
(230.88505 2.141494e-16 -23.648042)
(229.79202 2.5367964e-16 -23.356098)
(228.6935 -1.4304272e-16 -23.032944)
(227.59335 0 -22.678214)
(226.49562 2.5580692e-16 -22.29186)
(225.40445 -3.2129924e-16 -21.874197)
(224.324 1.1305198e-16 -21.425904)
(223.25841 -2.8581865e-16 -20.948037)
(222.21166 2.0137182e-16 -20.442027)
(221.18755 -6.3449867e-17 -19.909662)
(220.1896 2.3843808e-16 -19.353061)
(219.221 -2.2365828e-16 -18.774648)
(218.28454 -2.1078832e-16 -18.177095)
(217.38257 1.9756505e-16 -17.563281)
(216.51697 -4.6336262e-17 -16.936239)
(215.68916 0 -16.299089)
(214.90005 8.1992789e-17 -15.654987)
(214.15009 -7.6526708e-17 -15.007068)
(213.43927 0 -14.358387)
(212.76718 1.3474541e-16 -13.711882)
(212.13304 -6.3031231e-17 -13.070323)
(211.53575 -1.7672821e-16 -12.436285)
(210.97396 5.5124718e-16 -11.812123)
(210.4461 -2.0638936e-16 -11.199955)
(209.95043 9.625747e-17 -10.601651)
(209.48513 -2.6989987e-16 -10.018829)
(209.04828 -1.824266e-19 -9.4528636)
(208.63796 1.5648159e-16 -8.9048847)
(208.25225 -1.4597373e-16 -8.3757918)
(207.88925 -6.7930281e-17 -7.866264)
(207.54713 -6.3273918e-17 -7.376773)
(207.2241 -1.1814153e-16 -6.9075964)
(206.91847 2.1939229e-16 -6.458834)
(206.62861 0 -6.0304225)
(206.35293 9.4799615e-17 -5.6221516)
(206.08996 -3.5273679e-16 -5.2336826)
(205.83823 2.4548762e-16 -4.8645741)
(205.59629 7.5967436e-17 -4.5142829)
(205.3627 1.4111935e-16 -4.1821977)
(205.13603 1.3111116e-16 -3.8676716)
(204.91482 -1.213164e-16 -3.5700116)
(204.69762 -1.1241301e-16 -3.2884966)
(204.48296 -3.1266994e-16 -3.0223887)
(204.26934 -3.6887902e-20 -2.7709418)
(204.05503 -8.9343067e-17 -2.533409)
(203.83789 0 -2.3089922)
(203.61535 -2.2964134e-16 -2.0967127)
(203.3846 7.0814203e-17 -1.8954328)
(203.14253 0 -1.7041844)
(202.88589 1.2113319e-16 -1.521609)
(202.61209 0 -1.3440861)
(202.31623 1.0347244e-16 -1.1703678)
(201.98507 -1.4340286e-16 -1.0138215)
(201.61958 1.3251836e-16 -0.87095831)
(201.27475 -8.1604038e-17 -0.6633762)
(200.92769 7.5384213e-17 -0.49292135)
(200.3658 0 -0.91331794)
(220.68955 -4.1206209e-16 -38.618986)
(260.5472 3.6401687e-16 -17.502338)
(241.61016 -3.3349541e-16 -38.154397)
(252.11264 3.3163009e-16 -20.03953)
(244.6668 3.1757103e-16 -35.348405)
(247.88222 -1.8052201e-17 -23.346393)
(244.86601 -2.8435159e-16 -32.10532)
(245.33797 -2.6993364e-16 -26.381568)
(243.94821 2.8730972e-16 -29.737755)
(243.37518 0 -28.073817)
(242.4294 2.8667998e-17 -28.741009)
(241.56967 0 -28.486052)
(240.644 -1.2894151e-16 -28.499088)
(239.69586 2.4346096e-16 -28.420061)
(238.71564 0 -28.336317)
(237.70672 0 -28.226885)
(236.6701 0 -28.093567)
(235.60772 3.9209402e-17 -27.933687)
(234.52173 0 -27.745542)
(233.41474 -2.4522663e-16 -27.527332)
(232.28973 3.3040442e-16 -27.277433)
(231.15006 1.2501869e-16 -26.994417)
(229.99945 1.7726941e-16 -26.677072)
(228.84196 -2.7844225e-16 -26.324487)
(227.68193 -5.2470554e-17 -25.936076)
(226.52391 -2.4831258e-16 -25.511624)
(225.3726 1.8688708e-16 -25.051322)
(224.23276 -2.2073002e-16 -24.555795)
(223.10914 8.2585762e-17 -24.026103)
(222.00636 7.8078565e-17 -23.463754)
(220.92882 0 -22.870686)
(219.88065 2.7775959e-16 -22.249232)
(218.86558 -2.6087246e-16 -21.602096)
(217.88687 0 -20.932293)
(216.9473 -2.3061673e-16 -20.243098)
(216.04907 2.1600549e-16 -19.537971)
(215.19382 -1.0179216e-16 -18.820496)
(214.3826 1.9057424e-16 -18.094309)
(213.61589 -2.6777017e-16 -17.363024)
(212.89363 1.2731502e-19 -16.630173)
(212.21527 -1.5644605e-16 -15.899146)
(211.57982 -7.3214382e-17 -15.173141)
(210.9859 -1.374097e-16 -14.455127)
(210.43182 2.5615529e-16 -13.74781)
(209.91563 -1.1953256e-16 -13.053616)
(209.43523 0 -12.374681)
(208.98835 -3.8172279e-19 -11.712847)
(208.57269 9.7233788e-17 -11.069669)
(208.18591 0 -10.446423)
(207.82569 8.4568395e-17 -9.8441207)
(207.48976 7.9071221e-17 -9.2635301)
(207.17595 -7.3416046e-17 -8.7051884)
(206.88215 2.7332289e-16 -8.169423)
(206.60639 -2.5408272e-16 -7.6563698)
(206.3468 -1.1816572e-16 -7.1659911)
(206.10162 -1.0977091e-16 -6.6980939)
(205.8692 1.0192247e-16 -6.2523472)
(205.64801 1.8905454e-16 -5.8283001)
(205.43658 -3.5067423e-16 -5.4253996)
(205.23356 4.0638754e-16 -5.0430166)
(205.0376 -1.5057115e-16 -4.680442)
(204.84737 1.3956314e-16 -4.3369223)
(204.66158 -1.2918294e-16 -4.0116856)
(204.4789 2.392344e-16 -3.7039251)
(204.29798 -3.3208593e-16 -3.412815)
(204.1175 2.0470522e-16 -3.1375159)
(203.93607 -8.1701376e-20 -2.8771853)
(203.75212 8.7485593e-17 -2.6309727)
(203.56365 0 -2.3979502)
(203.36819 0 -2.1770318)
(203.16275 0 -1.9671325)
(202.94398 -1.2710264e-16 -1.767351)
(202.70906 2.036424e-20 -1.5758923)
(202.45633 0 -1.3890196)
(202.18008 0 -1.2077856)
(201.86597 9.1914298e-17 -1.0454153)
(201.52099 -1.6939383e-16 -0.8887497)
(201.19978 0 -0.6678797)
(200.85541 0 -0.51638811)
(200.30585 -1.3186287e-16 -0.93236904)
(220.25706 2.7810945e-17 -42.876518)
(260.46234 -7.8812741e-16 -20.653313)
(240.90957 3.488987e-16 -42.25023)
(251.48305 -2.1797788e-17 -23.483133)
(243.85312 3.7430432e-16 -39.093365)
(247.09903 -3.5298976e-16 -27.027882)
(243.99618 0 -35.626641)
(244.33541 -3.1795998e-16 -30.164724)
(242.8942 2.3374713e-16 -33.187227)
(242.19683 2.2201238e-16 -31.752816)
(241.16525 -2.3964674e-16 -32.237954)
(240.19674 0 -32.015749)
(239.16846 1.9071605e-19 -31.966729)
(238.11396 0 -31.847409)
(237.02728 3.8601387e-16 -31.710627)
(235.91181 -7.2921526e-16 -31.543064)
(234.76952 3.4426682e-16 -31.344704)
(233.6032 -4.0667213e-17 -31.112973)
(232.41605 -3.864276e-17 -30.845991)
(231.21173 3.6726569e-17 -30.541951)
(229.99435 -6.8584047e-17 -30.199325)
(228.76843 -3.2489355e-16 -29.816884)
(227.53886 3.0578153e-16 -29.393777)
(226.3108 5.7643314e-17 -28.929582)
(225.08963 -2.7317057e-16 -28.424335)
(223.88084 -6.962719e-19 -27.878592)
(222.68992 2.9012967e-16 -27.29342)
(221.52228 -1.8209608e-16 -26.670421)
(220.38306 -6.1245643e-19 -26.011711)
(219.27711 0 -25.319894)
(218.20883 0 -24.59802)
(217.18208 -7.1649599e-17 -23.849521)
(216.20014 1.3413665e-16 -23.078155)
(215.26559 0 -22.287916)
(214.38035 -1.185535e-16 -21.48295)
(213.54562 2.2182699e-16 -20.667479)
(212.76191 -1.0392367e-16 -19.845696)
(212.02907 -1.9475137e-16 -19.021705)
(211.34636 9.0503945e-17 -18.199435)