/*--------------------------------*- C++ -*----------------------------------*\
  =========                 |
  \\      /  F ield         | OpenFOAM: The Open Source CFD Toolbox
   \\    /   O peration     | Website:  https://openfoam.org
    \\  /    A nd           | Version:  12
     \\/     M anipulation  |
\*---------------------------------------------------------------------------*/
FoamFile
{
    format      ascii;
    class       volScalarField;
    location    "0.064";
    object      alphat;
}
// * * * * * * * * * * * * * * * * * * * * * * * * * * * * * * * * * * * * * //

dimensions      [1 -1 -1 0 0 0 0];

internalField   nonuniform List<scalar> 
16000
(
4.8167379e-07
1.0717029e-05
1.9420141e-05
2.544613e-05
1.9485397e-05
2.6682076e-05
1.8968535e-05
2.5910008e-05
2.0364742e-05
2.7952101e-05
2.36586e-05
2.7678751e-05
2.5317286e-05
2.5964163e-05
2.5122884e-05
2.4991694e-05
2.4753032e-05
2.4701874e-05
2.4736125e-05
2.4876362e-05
2.5115634e-05
2.5452974e-05
2.5886008e-05
2.641522e-05
2.7043038e-05
2.7776234e-05
2.8623728e-05
2.9599691e-05
3.072135e-05
3.2007255e-05
3.3477806e-05
3.5160096e-05
3.7089086e-05
3.9307879e-05
4.1869526e-05
4.4837356e-05
4.828687e-05
5.2308195e-05
5.7012994e-05
6.253972e-05
6.9051072e-05
7.673904e-05
8.5845951e-05
9.6669007e-05
0.00010956244
0.00012495179
0.00014336535
0.00016544797
0.00019198667
0.00022394341
0.00026249959
0.00030910981
0.00036555976
0.00043404589
0.0005172673
0.00061854561
0.00074196815
0.00089257041
0.0010765832
0.0011777725
0.0011786573
0.0011794117
0.0011800912
0.0011806634
0.0011811575
0.0011815915
0.0011819838
0.0011823461
0.0011826795
0.0011829712
0.0011831924
0.0011832872
0.0011831484
0.0011825932
0.00118138
0.0011792945
0.0011763498
0.0011739433
0.0011726478
0.0011724775
4.2861008e-07
1.0140706e-05
2.1103138e-05
2.2741142e-05
1.7550536e-05
2.3910326e-05
1.682e-05
2.2688375e-05
1.7968818e-05
2.4687347e-05
2.1395995e-05
2.4945562e-05
2.3131541e-05
2.3515593e-05
2.2861233e-05
2.2678929e-05
2.24828e-05
2.2426967e-05
2.2461865e-05
2.2590942e-05
2.281256e-05
2.3125492e-05
2.3527941e-05
2.4020548e-05
2.460521e-05
2.5288288e-05
2.6077544e-05
2.6985771e-05
2.8029291e-05
2.9226205e-05
3.0595507e-05
3.2161968e-05
3.3957952e-05
3.6023375e-05
3.8407881e-05
4.1171033e-05
4.4384315e-05
4.8132455e-05
5.2519541e-05
5.7676775e-05
6.3760661e-05
7.0952177e-05
7.9479811e-05
8.9627251e-05
0.00010173503
0.00011620803
0.00013355067
0.00015438096
0.00017945504
0.00020969794
0.00024624611
0.00029050214
0.00034418934
0.00040943032
0.00048883454
0.00058561518
0.00070372848
0.00084803955
0.0010245429
0.0011771297
0.0011780275
0.0011787424
0.0011793935
0.0011799411
0.0011804126
0.0011808246
0.0011811933
0.0011815292
0.0011818339
0.0011820968
0.0011822908
0.001182361
0.0011821982
0.0011816143
0.0011803589
0.0011782337
0.0011753293
0.0011731159
0.0011723865
0.0011725246
3.8944243e-07
9.6920766e-06
1.9930688e-05
2.081237e-05
1.5703596e-05
2.1041159e-05
1.4966539e-05
1.9713857e-05
1.6147575e-05
2.1661668e-05
1.9498254e-05
2.2212773e-05
2.0942895e-05
2.1056799e-05
2.0555521e-05
2.0351625e-05
2.0188626e-05
2.0137882e-05
2.0175205e-05
2.0297573e-05
2.050477e-05
2.0796022e-05
2.1169776e-05
2.1626979e-05
2.2169107e-05
2.280229e-05
2.3533479e-05
2.4374278e-05
2.5339907e-05
2.6448017e-05
2.7716649e-05
2.9168728e-05
3.0834468e-05
3.2751046e-05
3.496509e-05
3.7532715e-05
4.052187e-05
4.4013075e-05
4.8104072e-05
5.2918819e-05
5.8608756e-05
6.5346374e-05
7.3348243e-05
8.288535e-05
9.4287283e-05
0.00010794213
0.00012433424
0.00014405908
0.00016784693
0.00019659256
0.0002313947
0.0002736123
0.00032491579
0.00038736495
0.00046349213
0.00055641511
0.00066997306
0.00080888603
0.00097895223
0.0011766874
0.0011775849
0.0011782446
0.0011788486
0.0011793543
0.0011797872
0.001180163
0.0011804961
0.0011807954
0.0011810622
0.0011812867
0.0011814428
0.0011814745
0.0011812701
0.0011806367
0.0011793146
0.0011771154
0.0011742818
0.0011722104
0.0011718732
0.0011717475
3.4612115e-07
9.35453e-06
1.8900561e-05
1.9174922e-05
1.4097071e-05
1.8573873e-05
1.3328318e-05
1.722898e-05
1.4524373e-05
1.9096225e-05
1.7787563e-05
1.9794823e-05
1.8925869e-05
1.8844144e-05
1.8456866e-05
1.8252677e-05
1.8118904e-05
1.8078613e-05
1.8121388e-05
1.824096e-05
1.8437715e-05
1.8711407e-05
1.906075e-05
1.9487116e-05
1.9991709e-05
2.0580576e-05
2.1260135e-05
2.2041043e-05
2.2937484e-05
2.3966737e-05
2.5146219e-05
2.6497294e-05
2.8048435e-05
2.9834467e-05
3.1899479e-05
3.4296615e-05
3.7090776e-05
4.0359188e-05
4.4194542e-05
4.8714017e-05
5.4065125e-05
6.0413862e-05
6.7967127e-05
7.6984479e-05
8.7787475e-05
0.00010075111
0.00011634365
0.00013514264
0.00015785791
0.00018536117
0.0002187212
0.0002592631
0.00030861578
0.00036879016
0.00044225871
0.00053206491
0.00064195657
0.00077654298
0.00094148077
0.0011436941
0.0011773545
0.0011779437
0.0011784836
0.0011789307
0.0011793084
0.0011796319
0.0011799147
0.0011801645
0.0011803824
0.0011805588
0.001180667
0.0011806485
0.0011803889
0.0011796924
0.0011782919
0.0011760041
0.0011733127
0.0011714532
0.0011714044
0.0011711541
3.0866158e-07
9.1022671e-06
1.7997054e-05
1.9155811e-05
1.3905822e-05
1.6421323e-05
1.1890327e-05
1.5097248e-05
1.3130587e-05
1.687821e-05
1.6267093e-05
1.7616484e-05
1.7047201e-05
1.683382e-05
1.6531364e-05
1.634157e-05
1.6232261e-05
1.6203259e-05
1.6250453e-05
1.6366805e-05
1.6552903e-05
1.6809221e-05
1.7134814e-05
1.7531564e-05
1.80006e-05
1.854795e-05
1.9179661e-05
1.9905647e-05
2.0739067e-05
2.1696783e-05
2.2795811e-05
2.405622e-05
2.5505048e-05
2.7175098e-05
2.9108282e-05
3.1355165e-05
3.3977929e-05
3.7051142e-05
4.0663709e-05
4.4926343e-05
4.9983224e-05
5.5995462e-05
6.3162367e-05
7.173274e-05
8.2022029e-05
9.4395009e-05
0.00010930657
0.00012731947
0.00014912625
0.00017558015
0.00020772459
0.00024685642
0.00029456912
0.0003528318
0.00042406551
0.00051124913
0.00061805036
0.00074898028
0.00090957041
0.0011065763
0.0011773167
0.0011778214
0.0011782807
0.0011786538
0.0011789612
0.0011792179
0.0011794369
0.0011796261
0.0011797859
0.0011799061
0.0011799578
0.0011798783
0.0011795494
0.0011787737
0.0011772889
0.0011749353
0.0011724384
0.001170789
0.0011708765
0.0011705798
2.870961e-07
8.947751e-06
1.7256654e-05
1.893238e-05
1.373681e-05
1.4544102e-05
1.1128019e-05
1.3335975e-05
1.1972306e-05
1.499567e-05
1.4937103e-05
1.5706136e-05
1.5336491e-05
1.5046228e-05
1.4797533e-05
1.4624138e-05
1.4530593e-05
1.4508454e-05
1.4556211e-05
1.4667029e-05
1.4841419e-05
1.5080483e-05
1.5383523e-05
1.5752693e-05
1.6189314e-05
1.6699256e-05
1.7288292e-05
1.7965759e-05
1.8743819e-05
1.9638893e-05
2.0667784e-05
2.1849518e-05
2.3210011e-05
2.4780391e-05
2.6600792e-05
2.8719658e-05
3.119688e-05
3.4104921e-05
3.7530276e-05
4.1578078e-05
4.6389464e-05
5.2122359e-05
5.8971188e-05
6.717502e-05
7.7045329e-05
8.8940067e-05
0.00010330409
0.00012068936
0.00014177516
0.00016740235
0.00019859518
0.00023663007
0.00028307408
0.00033986515
0.00040938642
0.00049456807
0.00059901629
0.00072716601
0.00088445415
0.0010775095
0.001177457
0.0011778636
0.0011782276
0.0011785126
0.0011787362
0.001178913
0.0011790562
0.0011791741
0.0011792672
0.0011793241
0.0011793121
0.0011791629
0.0011787527
0.0011778827
0.0011763124
0.0011739728
0.0011716848
0.0011702291
0.0011703618
0.0011700711
2.5960125e-07
8.8605105e-06
1.6686169e-05
1.7936926e-05
1.3607504e-05
1.2853307e-05
1.1239525e-05
1.2258576e-05
1.1721568e-05
1.3407379e-05
1.3747434e-05
1.4021957e-05
1.3756257e-05
1.343243e-05
1.3213893e-05
1.3056528e-05
1.2974313e-05
1.2957594e-05
1.300544e-05
1.3111588e-05
1.3276092e-05
1.3500552e-05
1.3784499e-05
1.404615e-05
1.4444885e-05
1.4913842e-05
1.5458134e-05
1.6086313e-05
1.6809347e-05
1.7642848e-05
1.8603372e-05
1.9708939e-05
2.098443e-05
2.2459376e-05
2.4172271e-05
2.6169612e-05
2.8509142e-05
3.1261254e-05
3.4510883e-05
3.8648426e-05
4.3261342e-05
4.8769775e-05
5.5366053e-05
6.3280915e-05
7.2823107e-05
8.4347102e-05
9.8290983e-05
0.00011519968
0.00013574267
0.00016075426
0.00019124525
0.00022847898
0.0002740046
0.00032973888
0.00039803964
0.00048180342
0.0005845922
0.00071078491
0.0008657499
0.0010560263
0.0011777552
0.0011780513
0.0011783068
0.0011784913
0.0011786198
0.0011787057
0.0011787629
0.0011788004
0.0011788191
0.0011788062
0.0011787246
0.0011784991
0.0011779995
0.0011770252
0.0011753613
0.0011731411
0.0011710705
0.001169781
0.001169883
0.0011696378
2.3369073e-07
8.8101576e-06
1.6203293e-05
1.6334756e-05
1.2532328e-05
1.1204942e-05
9.761725e-06
1.0971503e-05
1.0319762e-05
1.2049578e-05
1.2555504e-05
1.2478164e-05
1.2252404e-05
1.1937163e-05
1.1743155e-05
1.1606363e-05
1.1538001e-05
1.1529808e-05
1.151009e-05
1.1597633e-05
1.1743424e-05
1.1947955e-05
1.2209702e-05
1.2528384e-05
1.2908974e-05
1.3355166e-05
1.3872136e-05
1.4468367e-05
1.5154224e-05
1.594485e-05
1.6857031e-05
1.7908252e-05
1.9122911e-05
2.052954e-05
2.2165679e-05
2.4076612e-05
2.63188e-05
2.896137e-05
3.208872e-05
3.5803679e-05
4.0231695e-05
4.5531702e-05
5.1896046e-05
6.0051186e-05
6.9357901e-05
8.0620795e-05
9.4274871e-05
0.00011086168
0.00013104465
0.00015565783
0.00018570479
0.00022244384
0.00026741582
0.00032252755
0.0003901255
0.00047308968
0.00057495787
0.00070007673
0.00085377564
0.0010425452
0.0011781877
0.0011783623
0.0011784981
0.0011785722
0.0011785963
0.0011785829
0.0011785461
0.0011784959
0.0011784336
0.001178345
0.0011781891
0.0011778831
0.0011772899
0.001176213
0.0011744694
0.0011724508
0.0011706062
0.0011694527
0.0011694631
0.001169256
2.1509318e-07
8.7609629e-06
1.5714518e-05
1.4304025e-05
1.0295561e-05
9.9630943e-06
8.0394411e-06
9.3632313e-06
9.5838184e-06
1.0846206e-05
1.1347264e-05
1.1043401e-05
1.0836148e-05
1.0554341e-05
1.0385568e-05
1.0199567e-05
1.0120036e-05
1.0106022e-05
1.01505e-05
1.0250419e-05
1.0400919e-05
1.0605506e-05
1.0861902e-05
1.1170865e-05
1.1537153e-05
1.1965293e-05
1.246056e-05
1.3031477e-05
1.3688e-05
1.4444791e-05
1.5318978e-05
1.6327774e-05
1.7495421e-05
1.8849767e-05
2.0427788e-05
2.2274053e-05
2.4444275e-05
2.7006917e-05
3.0045708e-05
3.3662592e-05
3.7983403e-05
4.3164795e-05
4.9402217e-05
5.6922537e-05
6.6016814e-05
7.7047401e-05
9.1249002e-05
0.00010766855
0.00012767452
0.00015210681
0.00018196864
0.00021852157
0.00026330816
0.00031823711
0.00038565818
0.0004684531
0.0005701572
0.00069511078
0.00084863577
0.0010372171
0.0011787284
0.0011787724
0.0011787799
0.0011787357
0.0011786487
0.0011785301
0.0011783937
0.0011782505
0.001178102
0.0011779331
0.0011776992
0.0011773111
0.0011766236
0.0011754559
0.0011737288
0.0011719108
0.001170292
0.0011692467
0.0011691159
0.0011688398
1.9786726e-07
8.7160574e-06
1.4039887e-05
1.2457704e-05
8.3216811e-06
8.8612646e-06
7.1493064e-06
8.4563978e-06
8.8772749e-06
9.7068758e-06
1.0153828e-05
9.7363622e-06
9.5353985e-06
9.2019619e-06
9.022235e-06
8.9108926e-06
8.8654769e-06
8.8769954e-06
8.9383733e-06
9.050322e-06
9.2072619e-06
9.4114145e-06
9.6643804e-06
9.9662607e-06
1.0322108e-05
1.0736905e-05
1.1216083e-05
1.176835e-05
1.2403415e-05
1.3135497e-05
1.3982133e-05
1.4960612e-05
1.6095279e-05
1.7413607e-05
1.8952371e-05
2.075588e-05
2.2879595e-05
2.5391918e-05
2.8376959e-05
3.1937163e-05
3.6198499e-05
4.1317204e-05
4.7492327e-05
5.4950826e-05
6.3986302e-05
7.4963295e-05
8.8331444e-05
0.00010461872
0.00012563329
0.00015010519
0.00018004545
0.00021672724
0.00026170584
0.00031690434
0.00038469159
0.00046797089
0.00057029936
0.00069604038
0.00085054331
0.0010403328
0.0011793496
0.0011792562
0.0011791293
0.0011789615
0.0011787593
0.0011785321
0.0011782929
0.0011780532
0.001177815
0.0011775623
0.0011772482
0.0011767792
0.0011760039
0.0011747539
0.00117315
0.0011715241
0.001170119
0.001169158
0.0011688539
0.0011685189
1.8257266e-07
8.6690497e-06
1.1145143e-05
1.0350303e-05
6.8359305e-06
7.8986465e-06
6.5222533e-06
7.6058154e-06
8.3088978e-06
8.6746536e-06
8.9864596e-06
8.4570949e-06
8.2052009e-06
7.9751461e-06
7.843787e-06
7.7722952e-06
7.7553234e-06
7.7895978e-06
7.867447e-06
7.9884622e-06
8.1511932e-06
8.3574542e-06
8.6092716e-06
8.9073617e-06
9.2568609e-06
9.6632313e-06
1.0132207e-05
1.0672745e-05
1.1294532e-05
1.2011429e-05
1.2775165e-05
1.3724637e-05
1.4828414e-05
1.6113575e-05
1.7616683e-05
1.9381833e-05
2.1464318e-05
2.393255e-05
2.6871173e-05
3.0383465e-05
3.4596698e-05
3.9980049e-05
4.6158318e-05
5.3633804e-05
6.2702832e-05
7.373354e-05
8.7187932e-05
0.00010360576
0.00012366758
0.00014822139
0.00017993704
0.00021706894
0.00026262565
0.00031855795
0.00038727069
0.00047171058
0.00057548326
0.0007030082
0.00085970113
0.0010521737
0.0011800233
0.0011797881
0.0011795236
0.0011792294
0.0011789102
0.0011785734
0.0011782303
0.0011778924
0.0011775625
0.0011772239
0.0011768286
0.0011762816
0.0011754348
0.0011741628
0.0011727239
0.0011712888
0.0011700741
0.0011691862
0.0011687104
0.0011683092
1.6917579e-07
8.6251151e-06
8.7929701e-06
8.8144407e-06
6.0250679e-06
7.0052819e-06
5.9963074e-06
6.8660414e-06
7.7316324e-06
7.7125011e-06
7.7214563e-06
7.2718812e-06
7.0669785e-06
6.8992211e-06
6.8089755e-06
6.7708462e-06
6.7801101e-06
6.8323027e-06
6.9242476e-06
7.0557958e-06
7.2255155e-06
7.4356181e-06
7.6890406e-06
7.9869838e-06
8.3346877e-06
8.7000393e-06
9.1571743e-06
9.6853171e-06
1.0294025e-05
1.0996704e-05
1.1809496e-05
1.2753415e-05
1.3852158e-05
1.5132933e-05
1.6632727e-05
1.8396176e-05
2.0479355e-05
2.2951697e-05
2.5899677e-05
2.9428908e-05
3.366983e-05
3.8785535e-05
4.4975933e-05
5.2480791e-05
6.1601422e-05
7.3344726e-05
8.7016305e-05
0.00010371901
0.00012414473
0.00014916639
0.00017984901
0.00021955159
0.0002660824
0.00032322624
0.00039344189
0.00047974354
0.00058581508
0.00071616898
0.00087633133
0.0010730501
0.0011807218
0.0011803433
0.0011799408
0.0011795197
0.0011790838
0.0011786384
0.0011781924
0.0011777564
0.0011773335
0.0011769077
0.0011764315
0.0011758105
0.0011749086
0.0011737271
0.0011724461
0.0011711994
0.0011701442
0.0011693212
0.0011687539
0.0011683334
1.5725748e-07
8.5741081e-06
6.99827e-06
7.7466543e-06
5.3764033e-06
6.2099288e-06
5.546838e-06
6.211312e-06
7.0441786e-06
6.6183899e-06
6.581529e-06
6.2364095e-06
6.0747557e-06
5.9573938e-06
5.9024523e-06
5.8930188e-06
5.9246833e-06
5.9950888e-06
6.1011848e-06
6.243721e-06
6.4221352e-06
6.6387212e-06
6.8673328e-06
7.1625165e-06
7.5072218e-06
7.9062527e-06
8.3676821e-06
8.9001448e-06
9.5134616e-06
1.02213e-05
1.1040009e-05
1.1990398e-05
1.3097628e-05
1.4389375e-05
1.5903336e-05
1.7685109e-05
1.9792166e-05
2.229554e-05
2.5284352e-05
2.8867716e-05
3.3179485e-05
3.838654e-05
4.4699182e-05
5.2363292e-05
6.1689637e-05
7.3064831e-05
8.6969169e-05
0.00010398299
0.00012591986
0.00015163398
0.00018318214
0.00022191888
0.00027208047
0.00033092701
0.00040324081
0.00049213009
0.00060138985
0.000735666
0.00090064598
0.0011032661
0.0011814186
0.001180898
0.00118036
0.0011798138
0.0011792632
0.0011787117
0.0011781656
0.0011776333
0.0011771172
0.0011766029
0.0011760457
0.0011753606
0.0011744509
0.0011734189
0.0011723075
0.0011712455
0.0011703198
0.0011695495
0.0011690348
0.0011686174
1.4670062e-07
8.5142721e-06
5.6204066e-06
6.7797935e-06
4.8006519e-06
5.503288e-06
5.1660948e-06
5.5433676e-06
6.1777577e-06
5.6693611e-06
5.5821918e-06
5.3312667e-06
5.2104076e-06
5.1352762e-06
5.1118345e-06
5.1285234e-06
5.1815244e-06
5.2694954e-06
5.3903584e-06
5.5241733e-06
5.7067286e-06
5.9274979e-06
6.1891647e-06
6.4951858e-06
6.8504986e-06
7.2603436e-06
7.7327224e-06
8.2770036e-06
8.9032819e-06
9.6254424e-06
1.0460014e-05
1.1428115e-05
1.2498419e-05
1.380239e-05
1.5331692e-05
1.7132866e-05
1.9265016e-05
2.1800856e-05
2.483221e-05
2.8472293e-05
3.2859538e-05
3.8455915e-05
4.4951287e-05
5.2847933e-05
6.2467384e-05
7.420735e-05
8.8571126e-05
0.00010616459
0.00012772911
0.00015559898
0.00018828728
0.00022843897
0.00027777431
0.00034165869
0.00041668255
0.00050890771
0.00062227759
0.00076161456
0.00093282651
0.0011430983
0.0011820889
0.0011814303
0.0011807619
0.0011800942
0.0011794319
0.0011787777
0.0011781357
0.0011775107
0.0011769026
0.0011762987
0.0011756615
0.0011749288
0.001174124
0.0011732296
0.0011722946
0.0011714095
0.0011705896
0.0011698756
0.001169569
0.0011691675
1.3736248e-07
8.387224e-06
4.572345e-06
5.9208757e-06
4.287568e-06
4.8753624e-06
4.8347568e-06
4.8141117e-06
5.3042082e-06
4.8234397e-06
4.7165092e-06
4.5433617e-06
4.4614956e-06
4.4230908e-06
4.4285154e-06
4.469605e-06
4.5432816e-06
4.6302351e-06
4.7605205e-06
4.9248931e-06
5.1244762e-06
5.3611126e-06
5.638257e-06
5.9595876e-06
6.3306902e-06
6.7571086e-06
7.2469349e-06
7.7862996e-06
8.4265738e-06
9.1638677e-06
1.0014799e-05
1.100056e-05
1.2147061e-05
1.3486875e-05
1.5058862e-05
1.6911168e-05
1.9105686e-05
2.1717977e-05
2.4843646e-05
2.8601796e-05
3.3137372e-05
3.8633081e-05
4.5309893e-05
5.3440039e-05
6.3358962e-05
7.6113205e-05
9.1061737e-05
0.00010938346
0.00013185618
0.00015943801
0.0001951233
0.00023702198
0.00028852074
0.00035182112
0.00043374494
0.00053007186
0.00064850024
0.00079407497
0.00097299003
0.0011835112
0.0011827092
0.0011819198
0.0011811284
0.0011803446
0.0011795743
0.0011788209
0.0011780869
0.0011773736
0.0011766771
0.0011759862
0.0011752829
0.0011745942
0.0011739057
0.0011731564
0.001172395
0.0011716716
0.0011709425
0.0011702925
0.0011701986
0.0011697888
1.291604e-07
8.0524812e-06
3.8580607e-06
5.1597664e-06
3.8317758e-06
4.3198218e-06
4.3048554e-06
4.1538805e-06
4.4630668e-06
4.0761403e-06
3.9751997e-06
3.8642888e-06
3.8191881e-06
3.8134492e-06
3.8455694e-06
3.8951423e-06
3.9820524e-06
4.1018281e-06
4.2537697e-06
4.4383008e-06
4.6572221e-06
4.9129455e-06
5.2093947e-06
5.5505667e-06
5.9287775e-06
6.3728016e-06
6.8809788e-06
7.462678e-06
8.1296828e-06
8.8960251e-06
9.7787936e-06
1.0800094e-05
1.1986965e-05
1.3373298e-05
1.500073e-05
1.6919278e-05
1.9194278e-05
2.1904996e-05
2.5151132e-05
2.9059087e-05
3.3779804e-05
3.9505439e-05
4.6471649e-05
5.4963135e-05
6.5334606e-05
7.8021189e-05
9.4389174e-05
0.00011358744
0.00013714371
0.0001660753
0.00020160501
0.00024759462
0.0003016571
0.00036813214
0.00044985874
0.00055554952
0.0006800016
0.00083301944
0.0010211485
0.0011841711
0.0011832574
0.0011823477
0.0011814426
0.0011805497
0.001179676
0.0011788263
0.0011780026
0.0011772043
0.0011764259
0.0011756626
0.0011749573
0.0011743751
0.0011737965
0.0011731913
0.0011725923
0.0011720073
0.0011713573
0.0011707749
0.00117086
0.0011706123
1.2218532e-07
7.6467577e-06
3.4033075e-06
4.4848216e-06
3.4277497e-06
3.6664944e-06
3.8375968e-06
3.5488284e-06
3.7026824e-06
3.4275475e-06
3.3484366e-06
3.2869459e-06
3.2755301e-06
3.2993318e-06
3.3392353e-06
3.420774e-06
3.5339959e-06
3.6777423e-06
3.8522764e-06
4.0588069e-06
4.2997278e-06
4.5777489e-06
4.8876073e-06
5.2494578e-06
5.6623268e-06
6.1328026e-06
6.668802e-06
7.280045e-06
7.9785749e-06
8.7793501e-06
9.700039e-06
1.0763741e-05
1.1998788e-05
1.3440846e-05
1.5069083e-05
1.7050364e-05
1.9401748e-05
2.2206809e-05
2.5723887e-05
2.9810862e-05
3.4752922e-05
4.0751651e-05
4.8058754e-05
5.6974583e-05
6.7872348e-05
8.1213996e-05
9.7566032e-05
0.00011762329
0.0001435096
0.0001739952
0.00021144958
0.00025748263
0.00031704904
0.00038718189
0.00047343429
0.00058516717
0.00071660936
0.00087829237
0.0010771711
0.0011847353
0.0011837144
0.0011826968
0.0011816884
0.001180695
0.0011797235
0.0011787801
0.001177868
0.0011769865
0.0011761377
0.001175343
0.0011747498
0.0011742519
0.0011737833
0.0011733138
0.0011728541
0.0011723761
0.0011718041
0.0011713162
0.0011713955
0.0011714165
1.1671911e-07
6.5516319e-06
3.0167163e-06
3.8722395e-06
3.0800549e-06
3.0622789e-06
3.3721138e-06
3.0010102e-06
3.0496852e-06
2.8737975e-06
2.8240086e-06
2.8029968e-06
2.8138476e-06
2.8567353e-06
2.9351986e-06
3.0449069e-06
3.183885e-06
3.3520566e-06
3.550491e-06
3.7808636e-06
4.039945e-06
4.3406421e-06
4.6830403e-06
5.0718445e-06
5.5126725e-06
6.0123398e-06
6.5791383e-06
7.2231824e-06
7.9569157e-06
8.7764493e-06
9.733218e-06
1.0836728e-05
1.2116534e-05
1.3609664e-05
1.5362421e-05
1.743269e-05
1.9892012e-05
2.282994e-05
2.6357566e-05
3.0612114e-05
3.5763951e-05
4.2325696e-05
5.0019438e-05
5.9416627e-05
7.0910328e-05
8.4989106e-05
0.00010225367
0.0001234432
0.00015083793
0.0001830651
0.00022267683
0.00027137676
0.00033448542
0.00040872991
0.00050008741
0.00061251541
0.0007579918
0.00092956034
0.0011407499
0.0011851883
0.0011840673
0.0011829528
0.0011818517
0.0011807673
0.001179705
0.0011786718
0.0011776738
0.001176715
0.0011758212
0.0011751384
0.0011746215
0.0011742095
0.0011738435
0.0011734961
0.0011731532
0.0011727587
0.001172256
0.0011718876
0.0011720659
0.0011721735
1.1230037e-07
4.6233397e-06
2.6659659e-06
3.304715e-06
2.635578e-06
2.5556955e-06
2.8815825e-06
2.5131448e-06
2.5059546e-06
2.4077352e-06
2.3909202e-06
2.3972644e-06
2.4390798e-06
2.5162491e-06
2.6244183e-06
2.7610803e-06
2.9255585e-06
3.1184957e-06
3.3382725e-06
3.5920268e-06
3.8809105e-06
4.208227e-06
4.5779947e-06
4.9951037e-06
5.4654535e-06
5.9961568e-06
6.5958502e-06
7.2639857e-06
8.031415e-06
8.9065357e-06
9.9093634e-06
1.1064755e-05
1.2404037e-05
1.3966548e-05
1.580159e-05
1.7970594e-05
2.054989e-05
2.3634422e-05
2.7342291e-05
3.1820005e-05
3.724907e-05
4.3853228e-05
5.229545e-05
6.2221477e-05
7.4369882e-05
8.9258066e-05
0.00010752289
0.00012994971
0.00015750665
0.00019310359
0.00023507388
0.00028669619
0.0003502161
0.00043242144
0.00052940272
0.00064883702
0.00080360895
0.00098624323
0.0011867724
0.0011855247
0.0011843094
0.001183107
0.0011819221
0.0011807564
0.0011796124
0.0011784953
0.0011774182
0.00117641
0.001175596
0.0011749988
0.0011745604
0.0011742267
0.0011739545
0.0011737175
0.0011734809
0.0011731665
0.0011727346
0.0011724757
0.0011727621
0.0011729596
1.0767418e-07
3.8437892e-06
2.300518e-06
2.7813112e-06
2.2728875e-06
2.1321207e-06
2.3741717e-06
2.0849284e-06
2.0639858e-06
2.0255211e-06
2.0375076e-06
2.0782989e-06
2.1561662e-06
2.2641902e-06
2.3997613e-06
2.561927e-06
2.7509861e-06
2.9658846e-06
3.212291e-06
3.491456e-06
3.806305e-06
4.1603886e-06
4.5579589e-06
5.0040996e-06
5.5049219e-06
6.0678085e-06
6.6941778e-06
7.4068667e-06
8.2143114e-06
9.1333096e-06
1.0184994e-05
1.1395739e-05
1.2798715e-05
1.4435611e-05
1.6358886e-05
1.8634197e-05
2.1343026e-05
2.4586316e-05
2.8489581e-05
3.32079e-05
3.8933741e-05
4.6237406e-05
5.481816e-05
6.5308803e-05
7.8156121e-05
9.3907992e-05
0.00011323947
0.00013698319
0.00016770592
0.00020387482
0.00024835712
0.00030309714
0.00037049145
0.00045776549
0.00056080566
0.00068782598
0.00085265121
0.0010474239
0.0011870659
0.0011857447
0.0011844428
0.0011831593
0.0011818968
0.0011806576
0.0011794427
0.0011782548
0.0011771153
0.001176148
0.001175438
0.0011749199
0.0011745506
0.0011742872
0.0011740989
0.0011739617
0.0011738236
0.001173588
0.0011732317
0.0011730734
0.001173432
0.0011736797
1.0458485e-07
3.0976124e-06
1.9847514e-06
2.2495718e-06
1.9757357e-06
1.7695866e-06
1.9028363e-06
1.7220162e-06
1.7172077e-06
1.7269691e-06
1.7688992e-06
1.8476118e-06
1.9564524e-06
2.0914669e-06
2.2516044e-06
2.4371035e-06
2.6478156e-06
2.8874401e-06
3.1577628e-06
3.4614624e-06
3.8017503e-06
4.1823887e-06
4.6077918e-06
5.0831902e-06
5.6148633e-06
6.2061159e-06
6.8726976e-06
7.6232295e-06
8.4717676e-06
9.4359531e-06
1.0538182e-05
1.1806427e-05
1.3275894e-05
1.4990769e-05
1.70066e-05
1.939322e-05
2.2237888e-05
2.5647659e-05
2.9756185e-05
3.4727934e-05
4.1035064e-05
4.8451725e-05
5.7506469e-05
6.8584013e-05
8.2156049e-05
9.8803755e-05
0.00011924232
0.00014435486
0.00017681027
0.00021507796
0.00026216695
0.00032014696
0.00039158096
0.00048409882
0.00059350303
0.00072853779
0.00090397099
0.0011117418
0.0011872451
0.0011858556
0.0011844786
0.0011831209
0.0011817851
0.0011804759
0.0011791984
0.001177964
0.0011768166
0.0011759731
0.001175343
0.001174894
0.0011745844
0.0011743812
0.001174265
0.0011742131
0.0011741609
0.0011740015
0.0011737281
0.0011736621
0.0011740655
0.0011743099
1.0335222e-07
2.4455127e-06
1.7119402e-06
1.7383437e-06
1.7016738e-06
1.4592748e-06
1.518225e-06
1.4331892e-06
1.4593557e-06
1.5038423e-06
1.5844333e-06
1.6936668e-06
1.8280067e-06
1.9858565e-06
2.1674631e-06
2.3739601e-06
2.6062542e-06
2.8678731e-06
3.1608893e-06
3.4882453e-06
3.8533242e-06
4.2600296e-06
4.7128995e-06
5.217284e-06
5.7795922e-06
6.4076267e-06
7.1110172e-06
7.9017423e-06
8.7845816e-06
9.7943338e-06
1.0947653e-05
1.227421e-05
1.3811388e-05
1.5606093e-05
1.7717016e-05
2.030005e-05
2.3305767e-05
2.6912072e-05
3.1261474e-05
3.652969e-05
4.2933066e-05
5.0737581e-05
6.0271804e-05
7.1940225e-05
8.6241201e-05
0.00010378937
0.0001253417
0.00015315872
0.00018597818
0.00022635404
0.00027606291
0.00033730631
0.00041672522
0.00051058161
0.00062646822
0.00076972234
0.0009560115
0.0011773063
0.0011873236
0.0011858726
0.0011844331
0.0011830118
0.00118161
0.0011802339
0.0011788947
0.0011776287
0.0011766289
0.0011758661
0.001175309
0.0011749183
0.0011746587
0.0011745058
0.0011744477
0.001174462
0.0011744776
0.0011743892
0.0011742066
0.0011742275
0.0011746562
0.0011748884
1.0502345e-07
1.8863651e-06
1.4846073e-06
1.3462473e-06
1.4228775e-06
1.1990192e-06
1.2368945e-06
1.2219652e-06
1.2808739e-06
1.3596456e-06
1.4688285e-06
1.6015467e-06
1.7564249e-06
1.9335439e-06
2.1340785e-06
2.3597364e-06
2.6122359e-06
2.8945965e-06
3.2093092e-06
3.5594498e-06
3.9485036e-06
4.3804668e-06
4.8599792e-06
5.3925116e-06
5.9846258e-06
6.6443258e-06
7.3815262e-06
8.2086363e-06
9.1412859e-06
1.0199245e-05
1.14075e-05
1.2797692e-05
1.4409677e-05
1.629355e-05
1.8511985e-05
2.1143132e-05
2.4284175e-05
2.805597e-05
3.2607982e-05
3.8125149e-05
4.4835793e-05
5.3020693e-05
6.3023179e-05
7.5268694e-05
9.0280112e-05
0.00010960263
0.00013240289
0.00016042147
0.00019488146
0.00023729809
0.00028954814
0.00035728498
0.00043734766
0.00053621153
0.00065845008
0.00081767589
0.0010067603
0.0011888739
0.0011873248
0.0011858155
0.001184324
0.0011828522
0.0011813986
0.0011799691
0.0011785963
0.0011774151
0.0011765089
0.0011758243
0.0011753285
0.0011749873
0.0011747707
0.0011746605
0.0011746479
0.001174708
0.0011747699
0.001174743
0.0011746558
0.0011747645
0.0011752059
0.0011754042
1.1074733e-07
1.4272521e-06
1.3003655e-06
1.059915e-06
1.2703148e-06
9.8259426e-07
1.0460797e-06
1.0825856e-06
1.1683963e-06
1.2747939e-06
1.4049906e-06
1.5558765e-06
1.7277806e-06
1.9217959e-06
2.1395966e-06
2.3831565e-06
2.6547258e-06
2.9566314e-06
3.2919444e-06
3.6637065e-06
4.0754771e-06
4.5313368e-06
5.0360284e-06
5.595153e-06
6.2154408e-06
6.9051164e-06
7.6743902e-06
8.536128e-06
9.5065862e-06
1.0606417e-05
1.1861751e-05
1.3305759e-05
1.4980259e-05
1.6937841e-05
1.9244317e-05
2.1981764e-05
2.5252152e-05
2.9181811e-05
3.3926896e-05
3.9680131e-05
4.6997967e-05
5.5605198e-05
6.6123065e-05
7.8998121e-05
9.4779666e-05
0.00011414519
0.0001379314
0.00016717266
0.00020314545
0.00024975171
0.0003047469
0.00037256223
0.00045628381
0.00055977987
0.00069462779
0.00085472497
0.0010536363
0.0011888734
0.0011872768
0.0011857135
0.0011841725
0.0011826572
0.0011811685
0.0011797141
0.0011783392
0.0011772778
0.0011764493
0.001175831
0.0011753883
0.0011750906
0.0011749128
0.0011748406
0.0011748644
0.001174955
0.0011750458
0.0011750691
0.0011750712
0.0011752599
0.0011757043
0.0011758729
1.2118158e-07
1.1364411e-06
1.1418722e-06
9.1919501e-07
9.3120484e-07
8.6000108e-07
9.2061881e-07
9.9904083e-07
1.1056477e-06
1.2315867e-06
1.3776051e-06
1.5434508e-06
1.7302993e-06
1.9396447e-06
2.1733149e-06
2.433354e-06
2.7220487e-06
3.041948e-06
3.3959088e-06
3.7871495e-06
4.2193276e-06
4.6966446e-06
5.2239946e-06
5.807173e-06
6.4531678e-06
7.1679617e-06
7.9659063e-06
8.8586655e-06
9.8719984e-06
1.101349e-05
1.2316571e-05
1.3816073e-05
1.5555869e-05
1.7591053e-05
1.9990515e-05
2.2840046e-05
2.624614e-05
3.0340624e-05
3.5286325e-05
4.1284089e-05
4.8581423e-05
5.7483216e-05
6.836479e-05
8.1686252e-05
9.8016914e-05
0.00011805828
0.00014394718
0.00017444908
0.00021196921
0.00025816837
0.00031511188
0.00038537952
0.00047220088
0.00058514648
0.0007192945
0.00088589427
0.0010933196
0.0011888535
0.0011872174
0.0011856074
0.0011840183
0.001182454
0.0011809223
0.0011794539
0.0011781808
0.0011771934
0.0011764324
0.0011758688
0.0011754716
0.0011752126
0.0011750708
0.0011750336
0.001175088
0.0011752006
0.0011753109
0.0011753747
0.0011754523
0.0011757038
0.0011761401
0.001176298
1.4265162e-07
1.1713657e-06
9.8410492e-07
7.0269659e-07
7.6126052e-07
7.6895805e-07
8.5154489e-07
9.5272957e-07
1.0757694e-06
1.2164542e-06
1.3758766e-06
1.554932e-06
1.7550926e-06
1.9779688e-06
2.225418e-06
2.4995112e-06
2.8025668e-06
3.1371812e-06
3.5062708e-06
3.9131248e-06
4.3614777e-06
4.8556117e-06
5.4005041e-06
6.0020373e-06
6.6672976e-06
7.4049825e-06
8.2259412e-06
9.1438643e-06
1.0176158e-05
1.1344986e-05
1.2678517e-05
1.4212492e-05
1.599199e-05
1.8073636e-05
2.0528205e-05
2.3443797e-05
2.69297e-05
3.1121082e-05
3.6184748e-05
4.2326227e-05
4.9798643e-05
5.9335873e-05
7.0564231e-05
8.4306443e-05
0.00010114938
0.00012181604
0.00014720065
0.00017841055
0.00021681955
0.00026413358
0.00032248368
0.00039817604
0.00048791125
0.00059902586
0.00073690295
0.00090841268
0.0011223692
0.0011888402
0.0011871741
0.0011855311
0.001183909
0.0011823108
0.001180748
0.0011792697
0.0011780858
0.0011771543
0.0011764448
0.0011759242
0.0011755639
0.0011753382
0.0011752287
0.0011752226
0.0011753033
0.0011754353
0.001175566
0.0011756699
0.001175814
0.001176123
0.0011765646
0.0011767272
1.3611359e-07
7.8279562e-07
8.0807851e-07
5.9945035e-07
6.5566733e-07
7.1560031e-07
8.1681192e-07
9.3472034e-07
1.0707859e-06
1.2239981e-06
1.3955698e-06
1.5866802e-06
1.7988339e-06
2.0337075e-06
2.293198e-06
2.5794325e-06
2.8947961e-06
3.2419192e-06
3.6238565e-06
4.0439548e-06
4.5060312e-06
5.0144515e-06
5.5742782e-06
6.1914824e-06
6.8732485e-06
7.6283886e-06
8.4678946e-06
9.4056497e-06
1.0467917e-05
1.1663875e-05
1.302819e-05
1.4597516e-05
1.6418015e-05
1.8547624e-05
2.1058681e-05
2.4041183e-05
2.7606696e-05
3.1893164e-05
3.7070807e-05
4.3349367e-05
5.0987025e-05
6.0301325e-05
7.168269e-05
8.5613357e-05
0.00010268729
0.00012363845
0.00014937487
0.0001826107
0.00022185058
0.00027018561
0.00032979932
0.00040342381
0.00049449681
0.00060736586
0.00074756291
0.00092217606
0.0011403371
0.0011888586
0.0011871643
0.0011854929
0.0011838447
0.0011822233
0.0011806448
0.0011791768
0.0011780481
0.0011771559
0.0011764817
0.0011759916
0.0011756584
0.0011754592
0.001175376
0.001175396
0.0011754994
0.0011756534