/*--------------------------------*- C++ -*----------------------------------*\
  =========                 |
  \\      /  F ield         | OpenFOAM: The Open Source CFD Toolbox
   \\    /   O peration     | Website:  https://openfoam.org
    \\  /    A nd           | Version:  12
     \\/     M anipulation  |
\*---------------------------------------------------------------------------*/
FoamFile
{
    format      ascii;
    class       volScalarField;
    location    "0.064";
    object      nut;
}
// * * * * * * * * * * * * * * * * * * * * * * * * * * * * * * * * * * * * * //

dimensions      [0 2 -1 0 0 0 0];

internalField   nonuniform List<scalar> 
16000
(
4.5556445e-07
9.8446875e-06
1.8235244e-05
2.3444625e-05
1.8027546e-05
2.4611636e-05
1.7509661e-05
2.3880042e-05
1.8763215e-05
2.572796e-05
2.1760456e-05
2.5435914e-05
2.3246025e-05
2.3818416e-05
2.3025198e-05
2.2882765e-05
2.2641515e-05
2.2571265e-05
2.2578307e-05
2.2681145e-05
2.287312e-05
2.3153028e-05
2.3518376e-05
2.3969263e-05
2.4507537e-05
2.5138954e-05
2.5871173e-05
2.6716542e-05
2.7690084e-05
2.880792e-05
3.0087732e-05
3.1553095e-05
3.3234498e-05
3.5169533e-05
3.7404456e-05
3.9994423e-05
4.300511e-05
4.6514825e-05
5.0620553e-05
5.5442491e-05
6.1121639e-05
6.7824136e-05
7.5759697e-05
8.518536e-05
9.6407134e-05
0.00010979232
0.00012579678
0.0001449766
0.00016801003
0.00019572555
0.00022914017
0.00026950552
0.00031835751
0.00037758465
0.00044950667
0.00053697738
0.00064350725
0.00077342004
0.00093206531
0.0010186156
0.0010185947
0.001018512
0.001018415
0.0010182764
0.0010181212
0.0010179651
0.0010178237
0.001017707
0.0010176161
0.0010175409
0.0010174576
0.001017319
0.0010170312
0.0010164292
0.0010152864
0.001013387
0.0010106989
0.0010085109
0.0010067468
0.0010074842
4.0798281e-07
9.3403158e-06
1.9671326e-05
2.1017686e-05
1.6287065e-05
2.2112065e-05
1.5570517e-05
2.0963551e-05
1.6600474e-05
2.2779349e-05
1.9729186e-05
2.2979178e-05
2.1289101e-05
2.1621148e-05
2.0998392e-05
2.0809099e-05
2.0606786e-05
2.0532557e-05
2.0540674e-05
2.0633994e-05
2.0810707e-05
2.1069374e-05
2.1408026e-05
2.182691e-05
2.2327398e-05
2.2914891e-05
2.3596016e-05
2.43819e-05
2.5286778e-05
2.6326399e-05
2.7517213e-05
2.8880754e-05
3.0445231e-05
3.2245443e-05
3.4324669e-05
3.673478e-05
3.9537955e-05
4.2807793e-05
4.6634657e-05
5.1132439e-05
5.64368e-05
6.2704307e-05
7.0132661e-05
7.8967233e-05
8.9502254e-05
0.00010208715
0.00011715715
0.0001352452
0.00015700289
0.00018322692
0.00021489561
0.00025321594
0.00029967022
0.00035608351
0.00042469861
0.00050827613
0.00061021397
0.00073468944
0.00088684878
0.0010178788
0.0010178853
0.001017784
0.0010176773
0.0010175309
0.0010173683
0.0010172038
0.0010170513
0.0010169196
0.0010168104
0.0010167154
0.0010166126
0.001016455
0.0010161469
0.0010155168
0.0010143304
0.0010123892
0.0010097481
0.0010076208
0.0010065619
0.0010073629
3.7119583e-07
8.9487534e-06
1.8631319e-05
1.9292712e-05
1.4612226e-05
1.9506744e-05
1.3889472e-05
1.8258838e-05
1.4952965e-05
2.0033305e-05
1.8018935e-05
2.0505576e-05
1.9314265e-05
1.939847e-05
1.891594e-05
1.8706969e-05
1.8535299e-05
1.8466212e-05
1.8477197e-05
1.8565186e-05
1.8729676e-05
1.8969647e-05
1.9283359e-05
1.9671343e-05
2.0134601e-05
2.0678339e-05
2.1308465e-05
2.2035053e-05
2.2871374e-05
2.3832801e-05
2.493496e-05
2.619776e-05
2.7647525e-05
2.9316642e-05
3.1245748e-05
3.3483691e-05
3.6089568e-05
3.9133299e-05
4.269969e-05
4.6896301e-05
5.1854418e-05
5.7723233e-05
6.4690071e-05
7.2989278e-05
8.2905635e-05
9.477401e-05
0.00010901225
0.00012613374
0.00014676776
0.00017168491
0.00020183098
0.00023837535
0.00028275482
0.00033674038
0.00040250847
0.00048273764
0.00058072513
0.00070052349
0.00084711009
0.0010171904
0.0010172231
0.0010170997
0.0010169765
0.0010168163
0.001016641
0.0010164638
0.0010162971
0.0010161484
0.0010160192
0.0010159022
0.0010157757
0.001015592
0.001015252
0.0010145788
0.0010133303
0.0010113214
0.0010087345
0.0010067007
0.0010061274
0.0010064922
3.2975832e-07
8.6560098e-06
1.7714749e-05
1.7810541e-05
1.3148548e-05
1.7257216e-05
1.2396301e-05
1.5990621e-05
1.3476912e-05
1.7694766e-05
1.6468244e-05
1.8305517e-05
1.7483069e-05
1.7387283e-05
1.7009637e-05
1.680062e-05
1.6656153e-05
1.6597157e-05
1.6613762e-05
1.6699923e-05
1.6855695e-05
1.708055e-05
1.7373e-05
1.7733971e-05
1.8164229e-05
1.8668919e-05
1.9253481e-05
1.9927152e-05
2.070229e-05
2.1593955e-05
2.2617237e-05
2.3790666e-05
2.5139029e-05
2.6692641e-05
2.8489897e-05
3.0577032e-05
3.3010462e-05
3.5857221e-05
3.9197674e-05
4.3133425e-05
4.7792348e-05
5.3317966e-05
5.9889149e-05
6.7730259e-05
7.71191e-05
8.8379137e-05
0.00010191418
0.00011822208
0.00013791434
0.00016174157
0.00019062367
0.00022570072
0.00026837365
0.00032037125
0.00038381826
0.00046132912
0.00055612227
0.0006721548
0.00081428215
0.00098844736
0.0010166043
0.001016456
0.0010163113
0.0010161322
0.0010159383
0.0010157424
0.0010155559
0.0010153858
0.0010152333
0.0010150911
0.0010149373
0.0010147215
0.0010143416
0.0010136176
0.0010123028
0.001010217
0.0010077464
0.0010059016
0.0010056642
0.0010057764
2.9651064e-07
8.4382585e-06
1.6906232e-05
1.782821e-05
1.2996158e-05
1.5285092e-05
1.1079239e-05
1.4035856e-05
1.2203547e-05
1.5663383e-05
1.5082156e-05
1.6312823e-05
1.5766993e-05
1.5549868e-05
1.5250622e-05
1.5055214e-05
1.4933716e-05
1.4885659e-05
1.490697e-05
1.49909e-05
1.5137702e-05
1.5347514e-05
1.561917e-05
1.5954073e-05
1.6352931e-05
1.6820884e-05
1.7363051e-05
1.7988012e-05
1.870721e-05
1.9535353e-05
2.048718e-05
2.1580077e-05
2.2837561e-05
2.428815e-05
2.5968311e-05
2.7921996e-05
3.0203215e-05
3.2876656e-05
3.6019344e-05
3.9727173e-05
4.4125088e-05
4.9352327e-05
5.5581085e-05
6.302627e-05
7.1960321e-05
8.2697741e-05
9.5630641e-05
0.00011124392
0.000130134
0.00015303544
0.00018084602
0.00021468131
0.00025591142
0.00030622888
0.00036771382
0.0004429247
0.00053501057
0.00064784365
0.0007861714
0.00095579143
0.0010160266
0.0010158509
0.0010156793
0.001015476
0.0010152581
0.001015038
0.0010148269
0.0010146316
0.0010144533
0.0010142839
0.0010140996
0.0010138461
0.0010134171
0.0010126312
0.0010112493
0.0010091117
0.0010068035
0.0010051623
0.0010051065
0.0010050578
2.7625998e-07
8.3072566e-06
1.6240229e-05
1.764751e-05
1.2860072e-05
1.3556857e-05
1.0382774e-05
1.2414092e-05
1.1138308e-05
1.3931133e-05
1.3862408e-05
1.4556418e-05
1.4195406e-05
1.3907534e-05
1.3658306e-05
1.3478499e-05
1.3372065e-05
1.3330922e-05
1.3353397e-05
1.3432933e-05
1.3569723e-05
1.3764488e-05
1.4016299e-05
1.4326818e-05
1.4696937e-05
1.5131661e-05
1.5635873e-05
1.6217638e-05
1.6887513e-05
1.7659811e-05
1.8549091e-05
1.9571811e-05
2.0750485e-05
2.2112137e-05
2.3691646e-05
2.5531069e-05
2.7682373e-05
3.0208369e-05
3.3183934e-05
3.6700009e-05
4.087882e-05
4.5856769e-05
5.1801714e-05
5.891995e-05
6.7480348e-05
7.7791364e-05
9.0236238e-05
0.00010529035
0.00012353845
0.00014570416
0.00017266848
0.00020552901
0.00024563274
0.00029464491
0.0003546125
0.00042805146
0.00051805729
0.0006284361
0.00076385331
0.00092999676
0.0010154827
0.0010152765
0.0010150734
0.0010148411
0.0010145944
0.001014345
0.0010141046
0.0010138803
0.0010136733
0.0010134747
0.0010132573
0.0010129616
0.0010124757
0.0010116178
0.0010101707
0.0010080538
0.0010059255
0.0010044847
0.00100452
0.0010043662
2.4887625e-07
8.2352803e-06
1.5725312e-05
1.6737923e-05
1.2753465e-05
1.1992398e-05
1.0497035e-05
1.1419916e-05
1.0914638e-05
1.2463417e-05
1.2764655e-05
1.3000611e-05
1.2736184e-05
1.2417728e-05
1.2196865e-05
1.2032401e-05
1.1936987e-05
1.1901435e-05
1.1924609e-05
1.2000486e-05
1.2128849e-05
1.2310882e-05
1.2545875e-05
1.2759255e-05
1.3095665e-05
1.3493919e-05
1.39583e-05
1.4496169e-05
1.5117006e-05
1.5834395e-05
1.6662679e-05
1.7617413e-05
1.8720183e-05
1.9996582e-05
2.1480013e-05
2.3210788e-05
2.5238947e-05
2.7625437e-05
3.0443723e-05
3.4035917e-05
3.8036115e-05
4.2811964e-05
4.8529383e-05
5.538725e-05
6.365189e-05
7.3628576e-05
8.569447e-05
0.00010031861
0.00011807701
0.00013968733
0.00016601857
0.00019815665
0.00023743262
0.00028549291
0.00034436201
0.00041652619
0.00050504211
0.0006136669
0.00074700606
0.00091066908
0.0010149668
0.0010147268
0.0010144875
0.001014222
0.0010139422
0.0010136595
0.0010133857
0.0010131288
0.0010128904
0.0010126603
0.0010124075
0.0010120661
0.0010115183
0.0010105825
0.0010090651
0.0010070613
0.0010051268
0.0010038714
0.0010039225
0.0010037011
2.2484479e-07
8.1946346e-06
1.528619e-05
1.5253268e-05
1.1756007e-05
1.0460187e-05
9.122425e-06
1.0224612e-05
9.6129041e-06
1.1203368e-05
1.1658605e-05
1.1568426e-05
1.1341358e-05
1.1031405e-05
1.0833763e-05
1.0688871e-05
1.0606812e-05
1.0579694e-05
1.0541577e-05
1.0601134e-05
1.0713113e-05
1.087767e-05
1.1093129e-05
1.1358954e-05
1.1679367e-05
1.2057402e-05
1.2497414e-05
1.3006703e-05
1.3594207e-05
1.4273089e-05
1.5057889e-05
1.5963681e-05
1.7011603e-05
1.8226335e-05
1.9640407e-05
2.1293014e-05
2.3233013e-05
2.5520178e-05
2.8227427e-05
3.1443538e-05
3.5276744e-05
3.9864163e-05
4.5371592e-05
5.2430571e-05
6.0478922e-05
7.021525e-05
8.2013794e-05
9.6340376e-05
0.00011376542
0.00013500599
0.0001609244
0.00019260169
0.00023136113
0.00027883987
0.00033705183
0.00040846818
0.00049612383
0.0006037471
0.00073590878
0.00089817517
0.0010144716
0.0010141944
0.0010139148
0.0010136122
0.0010132959
0.0010129766
0.0010126662
0.0010123738
0.001012101
0.0010118368
0.0010115464
0.0010111572
0.0010105453
0.0010095357
0.0010079641
0.0010061419
0.0010044147
0.0010033257
0.0010033292
0.0010030371
2.0730593e-07
8.1524348e-06
1.4835505e-05
1.3360273e-05
9.6619321e-06
9.3033068e-06
7.5142352e-06
8.727094e-06
8.9254246e-06
1.0081755e-05
1.0531858e-05
1.0232036e-05
1.0022593e-05
9.7442717e-06
9.570583e-06
9.3811317e-06
9.2896147e-06
9.2579724e-06
9.2794528e-06
9.3509747e-06
9.4678291e-06
9.6329354e-06
9.8439565e-06
1.0101314e-05
1.0409045e-05
1.0770946e-05
1.1191468e-05
1.1677943e-05
1.2238942e-05
1.2887184e-05
1.3637498e-05
1.4504703e-05
1.5509771e-05
1.6676746e-05
1.8037609e-05
1.9630872e-05
2.1504662e-05
2.3718085e-05
2.6343377e-05
2.9468425e-05
3.3201668e-05
3.7678059e-05
4.306592e-05
4.9560403e-05
5.7411933e-05
6.6932201e-05
7.9189171e-05
9.3350502e-05
0.0001105987
0.00013165542
0.00015738213
0.00018886203
0.00022741918
0.00027469147
0.00033269479
0.00040390078
0.00049134114
0.00059873746
0.00073065267
0.00089264649
0.0010139901
0.0010136722
0.0010133487
0.0010130057
0.0010126504
0.0010122922
0.0010119429
0.0010116123
0.0010113027
0.0010110017
0.0010106718
0.0010102341
0.0010095586
0.0010084865
0.0010069454
0.0010053026
0.0010037881
0.0010028453
0.0010027476
0.0010023018
1.9064309e-07
8.1113605e-06
1.3259569e-05
1.1634537e-05
7.8098897e-06
8.2727688e-06
6.6797109e-06
7.8776047e-06
8.2616414e-06
9.0151183e-06
9.4143187e-06
9.009998e-06
8.8070005e-06
8.4820125e-06
8.2992142e-06
8.1794365e-06
8.1200784e-06
8.1125676e-06
8.1501485e-06
8.2331928e-06
8.3563682e-06
8.5214478e-06
8.7296299e-06
8.980758e-06
9.2791366e-06
9.6289801e-06
1.0034881e-05
1.0504331e-05
1.1045672e-05
1.1671205e-05
1.2396103e-05
1.3235231e-05
1.4209609e-05
1.5342913e-05
1.6666885e-05
1.8219739e-05
2.0049298e-05
2.2214512e-05
2.4787831e-05
2.7857442e-05
3.153174e-05
3.5945129e-05
4.1268836e-05
4.7697873e-05
5.5484591e-05
6.494225e-05
7.645713e-05
9.0482535e-05
0.00010857739
0.00012963858
0.00015539859
0.00018694991
0.00022562672
0.00027307837
0.00033133616
0.00040288916
0.00049078652
0.0005987682
0.00073141901
0.00089433074
0.0010135157
0.0010131538
0.0010127834
0.0010123975
0.0010120012
0.0010116025
0.0010112127
0.001010842
0.0010104931
0.001010153
0.0010097818
0.0010092968
0.0010085639
0.0010074373
0.0010060169
0.0010045468
0.0010032399
0.0010024224
0.0010021838
0.0010015858
1.7592508e-07
8.0649149e-06
1.0524482e-05
9.6639763e-06
6.4125947e-06
7.3688305e-06
6.08829e-06
7.0778306e-06
7.72254e-06
8.0445649e-06
8.3176985e-06
7.8111551e-06
7.5621947e-06
7.3338281e-06
7.196567e-06
7.1142874e-06
7.0817721e-06
7.0957204e-06
7.1488709e-06
7.2406068e-06
7.3693765e-06
7.5365925e-06
7.7438513e-06
7.9915672e-06
8.2841199e-06
8.6261534e-06
9.0225287e-06
9.48095e-06
1.0009723e-05
1.0620808e-05
1.1271281e-05
1.2083416e-05
1.3028873e-05
1.413093e-05
1.5421082e-05
1.6937276e-05
1.8727098e-05
2.0849394e-05
2.3376955e-05
2.6398545e-05
3.0023523e-05
3.4657371e-05
3.9972966e-05
4.6404019e-05
5.4204931e-05
6.3691717e-05
7.5260933e-05
8.9375634e-05
0.00010661968
0.0001277205
0.00015497375
0.00018687045
0.00022599611
0.00027402292
0.00033301194
0.00040548832
0.00049454145
0.00060395776
0.0007383771
0.00090346381
0.0010130428
0.0010126338
0.0010122142
0.0010117832
0.0010113445
0.0010109046
0.0010104733
0.0010100609
0.0010096706
0.0010092892
0.0010088752
0.0010083446
0.0010075687
0.0010064415
0.0010051733
0.0010038751
0.001002761
0.0010020537
0.001001657
0.0010009209
1.6292719e-07
8.0174457e-06
8.2978566e-06
8.2219221e-06
5.6456207e-06
6.5268334e-06
5.5886315e-06
6.3784025e-06
7.1715782e-06
7.1365631e-06
7.1292057e-06
6.6983016e-06
6.493918e-06
6.3240837e-06
6.2255498e-06
6.1746635e-06
6.1668111e-06
6.1976542e-06
6.2640607e-06
6.3656658e-06
6.5009587e-06
6.6717219e-06
6.880379e-06
7.1277932e-06
7.4184322e-06
7.7235788e-06
8.1089181e-06
8.5556685e-06
9.0720048e-06
9.6694539e-06
1.0361891e-05
1.1167399e-05
1.2106331e-05
1.320203e-05
1.4486284e-05
1.5997428e-05
1.7783625e-05
1.9904487e-05
2.2434249e-05
2.546354e-05
2.9104278e-05
3.3496379e-05
3.8811319e-05
4.5254702e-05
5.3084919e-05
6.3167757e-05
7.4903061e-05
8.9238686e-05
0.00010676768
0.00012823829
0.0001545632
0.00018862531
0.00022853723
0.00027754618
0.00033775832
0.00041175531
0.00050269208
0.00061443297
0.00075171029
0.00092030274
0.0010125664
0.0010121079
0.0010116376
0.0010111599
0.0010106779
0.0010101962
0.0010097229
0.0010092675
0.0010088335
0.0010084082
0.0010079502
0.0010073766
0.001006571
0.0010055382
0.0010044142
0.0010032865
0.0010023441
0.0010017303
0.0010012293
0.0010004098
1.5128936e-07
7.9595691e-06
6.5963948e-06
7.2146549e-06
5.0291294e-06
5.7745652e-06
5.1580405e-06
5.7561246e-06
6.5157589e-06
6.1057325e-06
6.056596e-06
5.7238961e-06
5.5605302e-06
5.4380649e-06
5.3727467e-06
5.3487979e-06
5.3619314e-06
5.4097575e-06
5.4892926e-06
5.6010018e-06
5.7441803e-06
5.9206916e-06
6.107102e-06
6.3518198e-06
6.6394191e-06
6.9739499e-06
7.362329e-06
7.8119357e-06
8.331161e-06
8.9317312e-06
9.6276679e-06
1.0436827e-05
1.138079e-05
1.2483252e-05
1.377654e-05
1.5299738e-05
1.7102107e-05
1.9244524e-05
2.180336e-05
2.4872103e-05
2.8565422e-05
3.3026282e-05
3.8434852e-05
4.5001731e-05
5.2993121e-05
6.274019e-05
7.4654344e-05
8.9232631e-05
0.00010802991
0.00013006156
0.00015709065
0.00019027702
0.00023325058
0.00028365976
0.00034560163
0.00042173692
0.00051531403
0.00063030957
0.00077159165
0.0009450975
0.0010120827
0.0010115728
0.0010110511
0.0010105255
0.0010099991
0.0010094754
0.0010089602
0.001008461
0.001007981
0.0010075085
0.0010070044
0.001006395
0.0010056003
0.0010047094
0.0010037371
0.0010027775
0.0010019846
0.0010014469
0.0010009482
0.00100008
1.409052e-07
7.8893908e-06
5.2883124e-06
6.3005606e-06
4.4796575e-06
5.1038883e-06
4.7893077e-06
5.1204325e-06
5.6934734e-06
5.2096797e-06
5.1150339e-06
4.8706717e-06
4.7458928e-06
4.6630578e-06
4.627255e-06
4.6276777e-06
4.6606164e-06
4.72463e-06
4.8176441e-06
4.921707e-06
5.0686012e-06
5.2487243e-06
5.4642763e-06
5.7181388e-06
6.014491e-06
6.3577675e-06
6.7548071e-06
7.2136177e-06
7.7428132e-06
8.3542793e-06
9.0621583e-06
9.8845287e-06
1.0794132e-05
1.1904335e-05
1.3207572e-05
1.4743653e-05
1.6563145e-05
1.8728248e-05
2.1317516e-05
2.4427802e-05
2.8177525e-05
3.2962384e-05
3.8516096e-05
4.5268874e-05
5.3495833e-05
6.3537288e-05
7.5823915e-05
9.0874173e-05
0.00010932246
0.00013316642
0.00016113328
0.0001954865
0.00023769798
0.00029235868
0.00035655057
0.00043546025
0.00053246129
0.00065167907
0.00079816759
0.00097807344
0.0010115879
0.0010110258
0.0010104531
0.0010098787
0.0010093068
0.0010087404
0.0010081834
0.0010076404
0.0010071124
0.0010065889
0.001006037
0.0010054043
0.0010047161
0.0010039546
0.0010031378
0.0010023415
0.0010016777
0.0010012108
0.0010008322
0.00099994554
1.3164079e-07
7.7527299e-06
4.2916395e-06
5.4865547e-06
3.9879786e-06
4.5059165e-06
4.4644273e-06
4.4282206e-06
4.8657015e-06
4.410261e-06
4.2985653e-06
4.1269734e-06
4.0388857e-06
3.9903668e-06
3.9814213e-06
4.0043976e-06
4.0562954e-06
4.1197204e-06
4.2213014e-06
4.3525919e-06
4.5144131e-06
4.7082334e-06
4.9369431e-06
5.2036265e-06
5.5130299e-06
5.8698528e-06
6.2809996e-06
6.7343639e-06
7.2742965e-06
7.8972479e-06
8.6174061e-06
9.452869e-06
1.0425761e-05
1.1563899e-05
1.2900455e-05
1.447654e-05
1.6345006e-05
1.857038e-05
2.1234314e-05
2.4438543e-05
2.8306886e-05
3.2995444e-05
3.8693035e-05
4.5632316e-05
5.4099998e-05
6.499008e-05
7.7755748e-05
9.3404312e-05
0.00011260079
0.0001361644
0.0001666537
0.00020245595
0.00024646529
0.00030056409
0.00037058249
0.00045291708
0.0005541474
0.00067858667
0.0008315304
0.0010116952
0.0010110781
0.0010104645
0.0010098418
0.0010092183
0.0010085995
0.0010079889
0.0010073891
0.0010068022
0.0010062257
0.0010056503
0.00100506
0.0010044811
0.0010039067
0.0010032784
0.0010026138
0.0010019688
0.0010014181
0.0010010242
0.0010007585
0.00099985338
1.2342049e-07
7.4206244e-06
3.6094046e-06
4.7638472e-06
3.5493226e-06
3.9750091e-06
3.9552808e-06
3.8007231e-06
4.0702862e-06
3.703762e-06
3.5987668e-06
3.4852334e-06
3.431501e-06
3.4132868e-06
3.4289308e-06
3.4600062e-06
3.5240304e-06
3.6168006e-06
3.7375108e-06
3.8863756e-06
4.0648376e-06
4.274884e-06
4.5198233e-06
4.8030264e-06
5.1177836e-06
5.4888844e-06
5.914783e-06
6.4034601e-06
6.9649582e-06
7.6112345e-06
8.3568516e-06
9.2206496e-06
1.0225671e-05
1.1400795e-05
1.2781507e-05
1.4410437e-05
1.6343279e-05
1.8647616e-05
2.1408466e-05
2.4733635e-05
2.87519e-05
3.3627227e-05
3.9560745e-05
4.6795508e-05
5.5634382e-05
6.6448962e-05
8.0404328e-05
9.6777193e-05
0.00011687082
0.00014155433
0.00017187255
0.00021112102
0.00025726809
0.00031401795
0.00038379642
0.0004740419
0.00058032063
0.00071100413
0.00087168488
0.0010112024
0.0010105485
0.0010098859
0.0010092151
0.0010085429
0.0010078757
0.0010072183
0.0010065731
0.0010059406
0.001005317
0.0010046987
0.001004122
0.0010036483
0.0010031796
0.0010026804
0.0010021557
0.0010016419
0.0010011927
0.0010008715
0.0010006859
0.00099991537
1.1633022e-07
7.0208839e-06
3.1707469e-06
4.1218424e-06
3.1585304e-06
3.3552454e-06
3.5039178e-06
3.2255992e-06
3.3524393e-06
3.0904409e-06
3.0065366e-06
2.9389097e-06
2.9163733e-06
2.9252687e-06
2.9484206e-06
3.0082105e-06
3.0955985e-06
3.2093871e-06
3.349663e-06
3.5173635e-06
3.7144707e-06
3.9432497e-06
4.1991256e-06
4.4993873e-06
4.8431295e-06
5.235954e-06
5.6845954e-06
6.1973243e-06
6.7843878e-06
7.4585112e-06
8.2347239e-06
9.1326733e-06
1.0176455e-05
1.1396405e-05
1.277499e-05
1.4453845e-05
1.6447644e-05
1.8827536e-05
2.1812956e-05
2.5283918e-05
2.9482899e-05
3.4581707e-05
4.0794923e-05
4.8378707e-05
5.7651422e-05
6.90072e-05
8.2929484e-05
0.00010001133
0.00012206178
0.00014803863
0.00017996116
0.00021920396
0.00026999088
0.00032980181
0.00040337207
0.00049868541
0.00061083253
0.00074879704
0.0009185176
0.0010106885
0.0010099942
0.0010092862
0.0010085699
0.0010078502
0.0010071338
0.0010064265
0.0010057321
0.001005051
0.0010043858
0.0010037553
0.0010032871
0.0010028968
0.0010025307
0.0010021493
0.0010017434
0.0010013367
0.0010009841
0.0010007364
0.0010004874
0.00099995576
1.1062011e-07
5.988955e-06
2.7957575e-06
3.5383866e-06
2.8194615e-06
2.7829223e-06
3.0549446e-06
2.7052287e-06
2.7367161e-06
2.5667816e-06
2.510499e-06
2.4801759e-06
2.478283e-06
2.5046831e-06
2.5622024e-06
2.6468049e-06
2.7565953e-06
2.8913808e-06
3.0519917e-06
3.2398018e-06
3.4520123e-06
3.6996388e-06
3.9827187e-06
4.3052477e-06
4.6720011e-06
5.0887732e-06
5.5626119e-06
6.102112e-06
6.7178436e-06
7.4066054e-06
8.2119079e-06
9.1418859e-06
1.0221629e-05
1.1482574e-05
1.2964042e-05
1.4715199e-05
1.6796843e-05
1.9285095e-05
2.2274431e-05
2.5881597e-05
3.0251589e-05
3.5819309e-05
4.2351129e-05
5.0332406e-05
6.0098154e-05
7.2064868e-05
8.6744762e-05
0.00010476823
0.00012807494
0.00015550437
0.00018922874
0.00023070172
0.0002844541
0.00034771123
0.00042556489
0.00052139231
0.00064540151
0.00079168276
0.00097176818
0.0010101494
0.0010094133
0.0010086623
0.0010079027
0.0010071376
0.0010063721
0.0010056131
0.0010048668
0.0010041376
0.0010034482
0.001002924
0.0010025305
0.0010022219
0.001001948
0.0010016694
0.0010013641
0.0010010483
0.0010007772
0.0010006041
0.0010003897
0.00099996546
1.0582455e-07
4.2020832e-06
2.454071e-06
2.9979835e-06
2.3927209e-06
2.3025852e-06
2.5855639e-06
2.2425484e-06
2.224519e-06
2.1260624e-06
2.1002235e-06
2.0950423e-06
2.1210394e-06
2.1777851e-06
2.2612478e-06
2.3690927e-06
2.5006286e-06
2.6563375e-06
2.8348097e-06
3.0421012e-06
3.2791783e-06
3.5488468e-06
3.854524e-06
4.2003683e-06
4.5913946e-06
5.0336446e-06
5.5344501e-06
6.0934514e-06
6.7366481e-06
7.4712225e-06
8.3141351e-06
9.2864486e-06
1.041471e-05
1.1732259e-05
1.3280898e-05
1.5112729e-05
1.7292527e-05
1.9900901e-05
2.3038166e-05
2.6828827e-05
3.1427201e-05
3.7023605e-05
4.417982e-05
5.2599013e-05
6.2907809e-05
7.5546945e-05
9.1059057e-05
0.00011011344
0.00013353531
0.00016379802
0.00019949513
0.00024341526
0.00029747343
0.00036744614
0.00045002355
0.00055174135
0.00068357131
0.00083917155
0.0010103706
0.0010095867
0.0010088063
0.0010080131
0.0010072114
0.0010064032
0.001005591
0.0010047803
0.0010039832
0.0010032253
0.0010026137
0.0010021707
0.0010018506
0.0010016135
0.0010014201
0.0010012319
0.0010010207
0.0010007944
0.0010005968
0.0010004768
0.001000309
0.0010000199
1.0075308e-07
3.4676848e-06
2.1000058e-06
2.5007642e-06
2.0424391e-06
1.9005957e-06
2.1053596e-06
1.8374768e-06
1.8082839e-06
1.7642163e-06
1.7646255e-06
1.790231e-06
1.8478694e-06
1.9313241e-06
2.0382071e-06
2.1676188e-06
2.3197699e-06
2.4937672e-06
2.6943966e-06
2.9227301e-06
3.18126e-06
3.4730113e-06
3.8016036e-06
4.1713595e-06
4.5874691e-06
5.0561956e-06
5.5788479e-06
6.1746043e-06
6.8506713e-06
7.6212603e-06
8.5042456e-06
9.5219381e-06
1.07024e-05
1.2080911e-05
1.3701885e-05
1.5620935e-05
1.7907123e-05
2.0646056e-05
2.3944236e-05
2.7933334e-05
3.277684e-05
3.8957002e-05
4.6222969e-05
5.5110652e-05
6.6000242e-05
7.9358118e-05
9.575907e-05
0.00011591222
0.00014199613
0.00017272055
0.00021052098
0.00025705442
0.00031436347
0.0003885921
0.00047626303
0.00058436382
0.00072465832
0.00089048905
0.0010098181
0.0010090037
0.0010081787
0.0010073426
0.0010064982
0.001005648
0.0010047936
0.0010039377
0.0010030999
0.0010023859
0.0010018702
0.0010014995
0.0010012422
0.0010010665
0.0010009415
0.0010008332
0.0010007112
0.0010005716
0.001000441
0.0010003621
0.0010002296
0.0010000554
9.7037353e-08
2.7694315e-06
1.7927971e-06
2.0004761e-06
1.7529774e-06
1.5566916e-06
1.6632462e-06
1.4948672e-06
1.480965e-06
1.4800735e-06
1.5071419e-06
1.5657428e-06
1.6499461e-06
1.7562657e-06
1.8837554e-06
2.0326011e-06
2.2026992e-06
2.3971703e-06
2.6175493e-06
2.8661248e-06
3.1456368e-06
3.4592907e-06
3.8108427e-06
4.2047365e-06
4.646299e-06
5.1384123e-06
5.6942825e-06
6.3212475e-06
7.0311847e-06
7.8389941e-06
8.763586e-06
9.8285858e-06
1.1063734e-05
1.2506376e-05
1.4203484e-05
1.6214138e-05
1.8612213e-05
2.1488416e-05
2.4956053e-05
2.915465e-05
3.4482702e-05
4.0752927e-05
4.8412226e-05
5.7787626e-05
6.9280265e-05
8.3384551e-05
0.00010070908
0.00012200553
0.00014953722
0.00018201844
0.00022200318
0.00027125439
0.00033195539
0.00041058953
0.00050361387
0.00061846222
0.0007676931
0.00094448509
0.0010092541
0.0010084071
0.0010075411
0.0010066624
0.0010057738
0.0010048798
0.0010039857
0.0010031015
0.0010022654
0.0010016637
0.0010012204
0.0010009115
0.0010007067
0.0010005811
0.0010005117
0.0010004706
0.0010004278
0.0010003681
0.0010002998
0.0010002566
0.0010001615
0.0010000647
9.4887157e-08
2.1616921e-06
1.5257637e-06
1.5244947e-06
1.4859256e-06
1.2627182e-06
1.3039789e-06
1.2218264e-06
1.2356364e-06
1.2653532e-06
1.3257489e-06
1.4102909e-06
1.5159099e-06
1.6412459e-06
1.7865182e-06
1.9527056e-06
2.1406173e-06
2.3532284e-06
2.5923264e-06
2.8604235e-06
3.1604044e-06
3.4955926e-06
3.869846e-06
4.2877062e-06
4.7546041e-06
5.2771418e-06
5.8634556e-06
6.5236562e-06
7.2619473e-06
8.1073928e-06
9.0741558e-06
1.0187261e-05
1.1478247e-05
1.2986712e-05
1.4762237e-05
1.6935688e-05
1.9467006e-05
2.2505954e-05
2.6173254e-05
3.0617871e-05
3.6023326e-05
4.2615378e-05
5.067305e-05
6.0539991e-05
7.2639769e-05
8.7494959e-05
0.00010574937
0.0001293176
0.00015714246
0.00019138934
0.00023357058
0.00028556055
0.00035299669
0.00043272992
0.00053120954
0.00065298082
0.0008113602
0.00099956099
0.0010086878
0.0010078082
0.0010069069
0.0010059899
0.0010050589
0.0010041199
0.001003183
0.0010022801
0.0010015758
0.0010010467
0.001000668
0.0010004099
0.0010002478
0.0010001618
0.0010001349
0.0010001453
0.0010001662
0.0010001748
0.0010001652
0.001000157
0.0010001029
0.0010000655
9.5079665e-08
1.6432437e-06
1.3004307e-06
1.1600239e-06
1.2180491e-06
1.0167323e-06
1.0404711e-06
1.0202844e-06
1.0625287e-06
1.121603e-06
1.2060835e-06
1.3102013e-06
1.4328269e-06
1.5740675e-06
1.7349458e-06
1.9169311e-06
2.121512e-06
2.3512437e-06
2.6082627e-06
2.8951926e-06
3.2150026e-06
3.5710932e-06
3.9674062e-06
4.4085816e-06
4.9001752e-06
5.4489519e-06
6.063279e-06
6.7536173e-06
7.533133e-06
8.4184741e-06
9.4306831e-06
1.0596413e-05
1.1949255e-05
1.3531455e-05
1.5395912e-05
1.7608634e-05
2.0251777e-05
2.3427582e-05
2.7262591e-05
3.1913485e-05
3.757383e-05
4.4481811e-05
5.2928853e-05
6.3276223e-05
7.5968112e-05
9.2310838e-05
0.00011160954
0.00013533766
0.00016453549
0.00020049211
0.00024480451
0.00030226726
0.00037022304
0.00045416748
0.00055799377
0.00069326286
0.00085395892
0.0010090486
0.0010081346
0.0010072207
0.0010062886
0.0010053407
0.0010043761
0.0010034006
0.0010024424
0.0010016168
0.0010009961
0.0010005358
0.0010002102
0.00099999457
0.00099986748
0.00099981281
0.00099981684
0.0009998624
0.00099992721
0.00099998775
0.0010000309
0.0010000607
0.0010000479
0.0010000637
9.8410483e-08
1.220109e-06
1.1139761e-06
8.9345677e-07
1.0618351e-06
8.1369262e-07
8.5963955e-07
8.8384295e-07
9.4887657e-07
1.0310499e-06
1.132939e-06
1.2520505e-06
1.3887128e-06
1.5438865e-06
1.7190113e-06
1.9157773e-06
2.1361074e-06
2.3819975e-06
2.6560553e-06
2.9608791e-06
3.2995006e-06
3.6753907e-06
4.0925763e-06
4.5558048e-06
5.0707696e-06
5.6444156e-06
6.2853511e-06
7.0044091e-06
7.815268e-06
8.7352995e-06
9.7864854e-06
1.099674e-05
1.2401276e-05
1.404441e-05
1.5981643e-05
1.8282257e-05
2.1032397e-05
2.4338879e-05
2.8333842e-05
3.3180491e-05
3.9347115e-05
4.6606818e-05
5.5483497e-05
6.6356182e-05
7.969132e-05
9.6064425e-05
0.00011618652
0.00014093683
0.00017140072
0.00021088253
0.000257501
0.0003150122
0.00038604196
0.0004738818
0.00058835708
0.00072432643
0.00089330767
0.0010085547
0.0010076132
0.0010066648
0.0010057009
0.0010047249
0.0010037382
0.0010027479
0.0010017931
0.0010010735
0.0010005213
0.0010001185
0.0009998382
0.00099965858
0.0009995612
0.00099953208
0.00099955878
0.00099962635
0.00099971666
0.00099980996
0.00099989317
0.00099996042
0.00099999214
0.0010000426
1.0499136e-07
9.4896223e-07
9.5141885e-07
7.543776e-07
7.5777237e-07
6.9418399e-07
7.3852558e-07
7.9772577e-07
8.8001898e-07
9.7830888e-07
1.093243e-06
1.224697e-06
1.3736972e-06
1.5415332e-06
1.7297709e-06
1.9401592e-06
2.1746528e-06
2.4354286e-06
2.7249244e-06
3.0458832e-06
3.4014181e-06
3.7951e-06
4.2310805e-06
4.7142669e-06
5.2505638e-06
5.8450897e-06
6.5098251e-06
7.2546261e-06
8.100968e-06
9.0555188e-06
1.014625e-05
1.140245e-05
1.2861035e-05
1.4568405e-05
1.6582625e-05
1.8976076e-05
2.1838681e-05
2.5281858e-05
2.9443334e-05
3.4493125e-05
4.0640888e-05
4.8145046e-05
5.7323898e-05
6.8567856e-05
8.2360184e-05
9.9296599e-05
0.00012118263
0.00014698855
0.00017874927
0.00021787681
0.00026612745
0.0003256953
0.00039932748
0.00049514065
0.00060899636
0.00075044088
0.00092659781
0.0010081141
0.0010071489
0.0010061697
0.0010051729
0.0010041622
0.001003145
0.0010021479
0.0010012836
0.0010006296
0.0010001364
0.00099978047
0.00099953816
0.00099938923
0.00099931738
0.00099930965
0.00099935358
0.00099943453
0.00099953661
0.00099964531
0.00099975228
0.00099984793
0.00099991904
0.0010000078
1.1950838e-07
9.4992755e-07
7.9429091e-07
5.6015637e-07
6.0240208e-07
6.0514603e-07
6.6781052e-07
7.457447e-07
8.4153652e-07
9.5195071e-07
1.0779335e-06
1.2202877e-06
1.3802793e-06
1.5592937e-06
1.7589225e-06
1.9809382e-06
2.2273223e-06
2.500291e-06
2.8023311e-06
3.1362435e-06
3.5052045e-06
3.9128506e-06
4.3634017e-06
4.8618356e-06
5.4141365e-06
6.0276357e-06
6.711463e-06
7.4771256e-06
8.3392436e-06
9.3164284e-06
1.0432339e-05
1.1717011e-05
1.3208353e-05
1.4954025e-05
1.7013652e-05
1.9461526e-05
2.2389894e-05
2.5912949e-05
3.0171732e-05
3.5340162e-05
4.1632586e-05
4.966649e-05
5.9133708e-05
7.0727854e-05
8.4946938e-05
0.00010240476
0.00012386074
0.00015025562
0.00018275683
0.00022281441
0.0002722401
0.00033637599
0.00041245599
0.00050670025
0.00062368718
0.00076926003
0.00095091548
0.0010077395
0.0010067571
0.0010057574
0.0010047394
0.001003706
0.0010026677
0.0010016666
0.0010008817
0.0010002777
0.00099982939
0.0009995101
0.00099929789
0.00099917377
0.0009991228
0.00099913244
0.00099918953
0.00099927911
0.00099938658
0.00099950275
0.00099962715
0.00099975417
0.00099986931
0.00099998618
1.0960416e-07
6.1408925e-07
6.3032818e-07
4.6400784e-07
5.0558366e-07
5.5079722e-07
6.2862597e-07
7.2014217e-07
8.2656544e-07
9.4721769e-07
1.0831467e-06
1.2353835e-06
1.4052223e-06
1.5941028e-06
1.8036489e-06
2.0356781e-06
2.2922255e-06
2.5755354e-06
2.8882047e-06
3.2330816e-06
3.6134092e-06
4.0328921e-06
4.4958195e-06
5.0072415e-06
5.5732218e-06
6.2011845e-06
6.9003746e-06
7.6824547e-06
8.5692927e-06
9.5688889e-06
1.0710214e-05
1.2024053e-05
1.3549212e-05
1.5334432e-05
1.7440635e-05
1.9943685e-05
2.293772e-05
2.6539241e-05
3.0892133e-05
3.6173825e-05
4.2602878e-05
5.0448282e-05
6.0040953e-05
7.1789822e-05
8.619881e-05
0.00010389085
0.00012563695
0.00015373043
0.00018692465
0.00022783475
0.00027831674
0.00034069337
0.00041788766
0.00051359653
0.00063252428
0.00078069867
0.00096588552
0.0010074441
0.001006446
0.0010054297
0.0010043962
0.0010033492
0.0010023031
0.0010013156
0.0010005812
0.001000013
0.00099959615