/*--------------------------------*- C++ -*----------------------------------*\
  =========                 |
  \\      /  F ield         | OpenFOAM: The Open Source CFD Toolbox
   \\    /   O peration     | Website:  https://openfoam.org
    \\  /    A nd           | Version:  12
     \\/     M anipulation  |
\*---------------------------------------------------------------------------*/
FoamFile
{
    format      ascii;
    class       volScalarField;
    location    "0.064";
    object      rho;
}
// * * * * * * * * * * * * * * * * * * * * * * * * * * * * * * * * * * * * * //

dimensions      [1 -3 0 0 0 0 0];

internalField   nonuniform List<scalar> 
16000
(
1.0554826
1.0886586
1.076384
1.0847045
1.0808101
1.0842934
1.0833043
1.0851469
1.0853008
1.0865255
1.0871892
1.088218
1.0891102
1.0901222
1.0911341
1.0921986
1.093296
1.094434
1.0956108
1.0968272
1.0980834
1.0993793
1.1007148
1.1020895
1.1035028
1.1049538
1.1064415
1.1079643
1.1095207
1.1111087
1.112726
1.11437
1.116038
1.1177267
1.1194327
1.1211524
1.1228818
1.1246169
1.1263534
1.1280869
1.1298132
1.1315276
1.1332258
1.1349034
1.1365563
1.1381803
1.1397715
1.1413265
1.1428418
1.1443144
1.1457417
1.1471213
1.1484511
1.1497293
1.1509546
1.1521257
1.1532418
1.1543023
1.1553067
1.1562548
1.1571464
1.1579813
1.1587593
1.1594803
1.160144
1.1607501
1.1612985
1.1617887
1.1622203
1.1625926
1.1629043
1.163154
1.1633426
1.1634784
1.1635825
1.1636938
1.1638674
1.1640281
1.1647914
1.1637696
1.0520548
1.0857553
1.0728259
1.0817468
1.0776185
1.0813763
1.0802842
1.0823021
1.0824482
1.0837773
1.0844934
1.0855988
1.0865663
1.087654
1.0887478
1.0898948
1.0910789
1.0923059
1.0935748
1.0948859
1.0962393
1.0976349
1.099072
1.1005501
1.1020681
1.1036249
1.105219
1.1068484
1.1085111
1.1102046
1.111926
1.1136723
1.1154401
1.1172256
1.1190249
1.1208337
1.1226477
1.1244623
1.1262728
1.1280745
1.1298626
1.1316325
1.1333796
1.1350995
1.136788
1.1384411
1.1400552
1.141627
1.1431536
1.1446323
1.146061
1.1474377
1.1487609
1.1500294
1.1512423
1.152399
1.1534991
1.1545424
1.1555292
1.1564594
1.1573333
1.1581511
1.158913
1.1596191
1.1602693
1.1608637
1.1614019
1.1618836
1.1623084
1.1626752
1.1629828
1.1632299
1.1634184
1.1635577
1.16367
1.1637905
1.163955
1.1642375
1.1647469
1.1639626
1.0489511
1.0831137
1.0697615
1.0790343
1.0747585
1.0787213
1.0775994
1.0797389
1.0799266
1.0813402
1.0821315
1.0833149
1.0843695
1.0855418
1.0867277
1.0879679
1.0892493
1.0905762
1.0919478
1.0933642
1.094825
1.0963297
1.0978775
1.0994674
1.101098
1.1027676
1.1044742
1.1062155
1.1079887
1.1097909
1.1116186
1.1134682
1.1153354
1.1172162
1.1191057
1.1209993
1.1228919
1.1247786
1.1266543
1.1285138
1.1303523
1.1321649
1.133947
1.1356942
1.1374025
1.1390683
1.1406883
1.1422597
1.1437799
1.1452471
1.1466597
1.1480162
1.1493159
1.1505582
1.1517427
1.1528695
1.1539388
1.1549511
1.1559067
1.1568064
1.1576506
1.15844
1.159175
1.159856
1.1604833
1.1610567
1.1615764
1.1620419
1.1624526
1.1628073
1.1631048
1.1633441
1.1635277
1.1636672
1.1637845
1.1639092
1.1640879
1.1644025
1.1647425
1.1641962
1.0461783
1.0807241
1.0669799
1.0765922
1.0721751
1.0763739
1.0752283
1.0775082
1.0777479
1.0792594
1.0801405
1.0814143
1.0825712
1.0838416
1.0851336
1.0864804
1.087872
1.0893113
1.0907974
1.0923302
1.0939091
1.0955332
1.0972014
1.0989122
1.1006637
1.1024539
1.1042801
1.1061394
1.1080283
1.1099433
1.11188
1.1138341
1.1158008
1.1177749
1.1197513
1.1217244
1.1236888
1.125639
1.1275694
1.1294748
1.1313501
1.1331903
1.1349911
1.1367483
1.1384582
1.1401178
1.1417242
1.1432753
1.1447695
1.1462053
1.147582
1.148899
1.1501563
1.151354
1.1524925
1.1535726
1.1545949
1.1555606
1.1564706
1.157326
1.1581277
1.1588766
1.1595735
1.160219
1.1608135
1.1613572
1.16185
1.1622917
1.1626815
1.1630181
1.1633001
1.1635265
1.163701
1.1638363
1.1639521
1.1640774
1.1642693
1.1645748
1.1648142
1.1644351
1.0437823
1.0787214
1.0645682
1.0744801
1.0699287
1.0744031
1.0732484
1.0756746
1.0759889
1.0776051
1.0785949
1.079969
1.0812418
1.0826215
1.0840302
1.0854939
1.0870055
1.0885667
1.0901769
1.0918356
1.0935419
1.0952947
1.0970922
1.0989326
1.1008133
1.1027315
1.1046838
1.1066665
1.1086753
1.1107056
1.1127524
1.1148102
1.1168735
1.1189363
1.1209927
1.1230366
1.1250619
1.1270626
1.1290332
1.1309681
1.1328622
1.134711
1.1365102
1.1382563
1.1399462
1.1415774
1.1431482
1.144657
1.1461032
1.1474864
1.1488065
1.1500641
1.1512597
1.1523945
1.1534696
1.1544864
1.1554464
1.156351
1.1572019
1.1580004
1.1587478
1.1594454
1.1600941
1.1606947
1.1612478
1.1617536
1.1622122
1.1626233
1.1629859
1.1632988
1.1635604
1.16377
1.163932
1.1640594
1.1641696
1.1642934
1.1644934
1.164771
1.1649343
1.1646968
1.0418117
1.0771277
1.062622
1.0728443
1.0681871
1.0728865
1.0717214
1.0743125
1.0747214
1.0764452
1.0775565
1.0790347
1.0804306
1.0819263
1.0834591
1.0850483
1.0866893
1.0883829
1.0901282
1.0919243
1.0937698
1.0956628
1.097601
1.0995816
1.1016011
1.1036559
1.1057415
1.107853
1.1099852
1.1121324
1.1142884
1.116447
1.1186013
1.1207449
1.1228709
1.1249726
1.1270437
1.1290779
1.1310694
1.133013
1.1349039
1.1367378
1.1385114
1.1402218
1.1418668
1.143445
1.1449555
1.1463981
1.147773
1.149081
1.1503231
1.1515006
1.1526153
1.153669
1.1546637
1.1556014
1.1564842
1.1573141
1.1580931
1.158823
1.1595054
1.1601417
1.160733
1.1612803
1.1617842
1.162245
1.1626629
1.1630373
1.1633674
1.1636519
1.1638889
1.1640782
1.1642251
1.1643416
1.1644424
1.1645626
1.1647632
1.1650008
1.1651026
1.1649937
1.0402667
1.0759546
1.0611291
1.0716953
1.0669508
1.0718517
1.0707246
1.0734549
1.0739671
1.0757843
1.0770235
1.0786097
1.0801389
1.0817632
1.0834342
1.0851649
1.0869518
1.0887947
1.0906921
1.0926422
1.0946429
1.0966914
1.0987842
1.1009175
1.1030867
1.1052869
1.1075124
1.109757
1.1120142
1.1142771
1.1165383
1.1187904
1.1210258
1.1232371
1.1254169
1.1275581
1.1296541
1.1316988
1.1336866
1.1356127
1.137473
1.1392642
1.1409838
1.1426302
1.1442024
1.1457002
1.1471241
1.148475
1.1497545
1.1509643
1.1521068
1.1531843
1.1541994
1.1551547
1.156053
1.156897
1.1576892
1.1584321
1.159128
1.1597791
1.1603871
1.1609535
1.1614797
1.1619666
1.1624149
1.1628248
1.1631965
1.1635294
1.1638227
1.1640748
1.1642841
1.1644506
1.1645802
1.1646831
1.1647723
1.164887
1.1650806
1.1652679
1.1653203
1.1653357
1.039083
1.075141
1.0600218
1.0709782
1.0661333
1.0712607
1.0701756
1.0730974
1.0736347
1.0755666
1.076968
1.0786888
1.0803781
1.0821576
1.0839916
1.0858881
1.0878442
1.0898588
1.0919296
1.094054
1.0962286
1.0984494
1.1007118
1.1030106
1.1053398
1.1076928
1.1100625
1.1124413
1.1148211
1.1171937
1.1195506
1.1218832
1.1241831
1.1264424
1.1286532
1.1308084
1.1329016
1.1349271
1.1368801
1.1387567
1.140554
1.1422699
1.1439034
1.1454543
1.1469233
1.1483116
1.1496212
1.1508545
1.1520143
1.1531037
1.154126
1.1550845
1.1559828
1.1568241
1.157612
1.1583494
1.1590395
1.1596851
1.1602886
1.1608523
1.1613783
1.161868
1.1623229
1.1627438
1.1631313
1.1634858
1.1638071
1.1640948
1.164348
1.164565
1.1647442
1.1648863
1.1649971
1.1650845
1.1651604
1.1652682
1.1654472
1.1655759
1.165592
1.1657281
1.0382518
1.0746696
1.0592807
1.0707108
1.0656787
1.07098
1.0699778
1.0729317
1.0737911
1.0758704
1.0774655
1.0793469
1.0812224
1.0831841
1.085207
1.0872951
1.0894455
1.0916558
1.0939228
1.0962423
1.0986098
1.1010197
1.1034656
1.1059407
1.1084371
1.1109466
1.1134601
1.1159684
1.118462
1.1209312
1.1233663
1.125758
1.1280973
1.1303759
1.1325862
1.1347215
1.1367761
1.1387452
1.1406256
1.1424146
1.1441112
1.1457151
1.1472271
1.1486489
1.1499829
1.1512321
1.1524
1.1534906
1.1545079
1.1554561
1.1563396
1.1571625
1.1579292
1.1586435
1.1593092
1.1599299
1.1605088
1.1610489
1.1615529
1.1620231
1.1624614
1.1628695
1.1632486
1.1635995
1.1639228
1.1642187
1.164487
1.1647271
1.164938
1.1651181
1.165266
1.165383
1.1654741
1.1655444
1.1656067
1.1657069
1.1658638
1.1659292
1.1659224
1.1661765
1.0378084
1.0745765
1.0589443
1.0708102
1.0656314
1.0711894
1.0703403
1.0735168
1.0745466
1.0767776
1.0785969
1.0806674
1.0827568
1.0849304
1.0871705
1.0894782
1.0918495
1.0942808
1.0967671
1.0993027
1.101881
1.1044945
1.1071348
1.1097927
1.1124583
1.1151212
1.1177706
1.1203952
1.1229842
1.1255265
1.1280118
1.1304302
1.1327728
1.1350314
1.1371994
1.1392712
1.1412425
1.1431105
1.1448738
1.1465321
1.1480864
1.1495389
1.1508925
1.1521509
1.1533186
1.1544002
1.1554009
1.1563259
1.1571805
1.1579699
1.1586992
1.1593733
1.1599968
1.1605742
1.1611093
1.161606
1.1620675
1.1624969
1.1628968
1.1632695
1.1636169
1.1639405
1.1642413
1.1645201
1.1647774
1.1650131
1.1652269
1.1654183
1.1655862
1.1657288
1.1658452
1.165937
1.1660079
1.1660604
1.1661097
1.166202
1.1663303
1.1663323
1.166317
1.1666832
1.0378241
1.0749357
1.0590673
1.0711164
1.066096
1.0719507
1.0713138
1.0746395
1.0759588
1.0783696
1.0804484
1.0827432
1.0850781
1.0874963
1.0899848
1.092542
1.0951624
1.0978403
1.1005688
1.1033398
1.1061442
1.1089718
1.1118115
1.1146516
1.1174797
1.1202831
1.1230488
1.1257643
1.1284171
1.1309958
1.1334894
1.1358886
1.138185
1.140372
1.1424447
1.1443994
1.1462346
1.14795
1.149547
1.151028
1.1523969
1.1536582
1.1548173
1.15588
1.1568527
1.1577417
1.1585534
1.1592941
1.1599701
1.1605873
1.1611513
1.1616673
1.1621402
1.1625745
1.1629742
1.163343
1.1636841
1.1640005
1.1642945
1.1645684
1.1648239
1.1650621
1.1652842
1.1654907
1.1656817
1.1658571
1.1660166
1.1661596
1.1662847
1.1663904
1.1664761
1.1665433
1.1665939
1.1666287
1.1666669
1.1667507
1.1668439
1.1667886
1.1667836
1.1672485
1.0383815
1.0758198
1.0597531
1.0721145
1.0672563
1.0733553
1.0729814
1.0764918
1.078127
1.0807465
1.0831198
1.0856779
1.0882935
1.0909924
1.0937637
1.0966027
1.0995017
1.1024523
1.1054443
1.1084665
1.1115066
1.114551
1.1175856
1.1205956
1.123566
1.1264819
1.1293287
1.1320925
1.1347605
1.1373211
1.1397645
1.1420826
1.1442693
1.1463205
1.1482342
1.1500103
1.1516505
1.1531581
1.1545378
1.1557952
1.156937
1.1579703
1.1589029
1.1597424
1.1604966
1.1611733
1.1617798
1.1623232
1.1628102
1.1632471
1.1636396
1.1639931
1.1643124
1.1646017
1.1648649
1.1651055
1.1653264
1.1655304
1.1657195
1.1658958
1.1660606
1.166215
1.1663598
1.1664953
1.1666216
1.1667383
1.166845
1.166941
1.1670248
1.1670951
1.1671515
1.1671954
1.1672261
1.1672444
1.1672742
1.1673485
1.1674001
1.1672988
1.167322
1.1678652
1.0394749
1.0772345
1.0609968
1.0737879
1.0690933
1.0754397
1.0754105
1.0791175
1.0811353
1.0840069
1.0867165
1.0895853
1.0925243
1.0955459
1.0986389
1.1017946
1.105002
1.1082485
1.11152
1.1148011
1.1180755
1.121326
1.1245349
1.1276845
1.1307574
1.1337369
1.1366074
1.1393551
1.1419678
1.1444359
1.1467519
1.148911
1.1509111
1.1527521
1.1544363
1.155968
1.1573531
1.1585988
1.1597132
1.1607053
1.1615842
1.1623595
1.1630405
1.1636365
1.1641564
1.1646084
1.1650006
1.1653402
1.1656342
1.1658885
1.1661089
1.1663004
1.1664674
1.1666139
1.1667434
1.1668589
1.166963
1.167058
1.1671459
1.167228
1.1673057
1.1673796
1.1674504
1.1675181
1.1675826
1.1676434
1.1677001
1.1677518
1.1677968
1.1678341
1.1678636
1.1678856
1.1678973
1.1679012
1.1679255
1.1679889
1.1679948
1.1678557
1.1679289
1.1685292
1.0411584
1.0792325
1.0628624
1.0761081
1.0716959
1.0782981
1.0787055
1.0826359
1.0850986
1.0882791
1.0913746
1.0946098
1.0979224
1.1013137
1.1047691
1.1082749
1.1118151
1.1153719
1.1189264
1.1224582
1.1259467
1.1293705
1.1327087
1.1359411
1.1390487
1.1420144
1.1448236
1.1474643
1.1499278
1.1522083
1.1543034
1.1562136
1.1579421
1.1594944
1.1608782
1.1621024
1.1631774
1.164114
1.1649237
1.165618
1.1662082
1.1667052
1.1671196
1.1674614
1.1677398
1.1679632
1.1681397
1.1682763
1.1683795
1.1684549
1.1685077
1.1685424
1.1685629
1.1685726
1.1685745
1.1685711
1.1685646
1.1685568
1.1685491
1.1685428
1.1685386
1.1685372
1.1685387
1.1685432
1.1685502
1.1685594
1.1685699
1.1685808
1.1685906
1.168598
1.1686034
1.1686053
1.1685995
1.1685916
1.1686119
1.1686621
1.1686222
1.1684559
1.1685969
1.1692308
1.0434927
1.0818723
1.0654624
1.0792049
1.0751613
1.0820329
1.0829841
1.0871817
1.0901624
1.093728
1.0972718
1.1009378
1.1046791
1.1084863
1.1123396
1.116219
1.120102
1.123965
1.1277832
1.1315309
1.1351826
1.1387136
1.1421005
1.1453221
1.1483605
1.1512012
1.1538334
1.1562507
1.1584506
1.1604341
1.162206
1.1637736
1.1651469
1.1663374
1.167358
1.1682223
1.1689443
1.169538
1.1700169
1.1703942
1.1706824
1.1708931
1.1710371
1.1711242
1.1711634
1.1711629
1.1711299
1.1710709
1.1709916
1.1708971
1.1707916
1.1706789
1.1705623
1.1704445
1.1703279
1.1702144
1.1701056
1.1700029
1.1699074
1.1698198
1.1697407
1.1696703
1.1696087
1.1695556
1.1695106
1.1694731
1.1694424
1.169417
1.1693955
1.1693771
1.1693614
1.1693455
1.1693244
1.1693074
1.1693244
1.1693589
1.1692774
1.169091
1.169311
1.1699582
1.0465353
1.0851846
1.0689257
1.0831505
1.0796165
1.0867846
1.0884153
1.0929565
1.0965402
1.1005818
1.1046423
1.1088024
1.1130211
1.1172791
1.1215495
1.1258044
1.1300139
1.1341469
1.138172
1.1420584
1.1457768
1.1493012
1.1526089
1.1556823
1.1585085
1.1610803
1.1633951
1.1654556
1.1672684
1.1688436
1.1701942
1.1713351
1.1722827
1.1730539
1.173666
1.1741358
1.1744799
1.1747138
1.1748523
1.1749087
1.1748957
1.1748245
1.1747053
1.1745473
1.1743586
1.1741463
1.1739167
1.1736754
1.173427
1.1731757
1.1729249
1.1726775
1.172436
1.1722025
1.1719785
1.1717655
1.1715646
1.1713766
1.1712022
1.1710417
1.1708956
1.1707637
1.1706459
1.1705418
1.1704509
1.1703726
1.1703058
1.1702492
1.1702013
1.1701613
1.1701282
1.170097
1.1700636
1.1700409
1.1700565
1.1700749
1.1699539
1.1697516
1.1700548
1.1707079
1.05036
1.0891794
1.0733786
1.0881021
1.0852715
1.0928029
1.0952646
1.1002453
1.1045141
1.1091205
1.1137592
1.118464
1.1231923
1.1279136
1.132591
1.1371862
1.1416599
1.1459732
1.1500891
1.1539745
1.1576012
1.1609473
1.1639977
1.1667441
1.1691851
1.171325
1.1731738
1.1747454
1.1760569
1.177128
1.1779792
1.1786318
1.1791072
1.1794259
1.1796076
1.1796708
1.1796328
1.1795092
1.1793143
1.1790609
1.1787605
1.1784233
1.1780582
1.177673
1.1772746
1.1768688
1.1764608
1.1760547
1.1756543
1.1752626
1.1748821
1.1745149
1.1741626
1.1738265
1.1735078
1.1732071
1.1729252
1.1726622
1.1724186
1.1721945
1.1719898
1.1718043
1.1716378
1.1714898
1.1713596
1.1712465
1.1711495
1.1710669
1.1709976
1.1709407
1.1708937
1.1708505
1.1708082
1.1707837
1.1707991
1.1707987
1.1706431
1.1704492
1.1708203
1.1714653
1.0551629
1.0940179
1.0790653
1.0943901
1.0924613
1.1004191
1.1038567
1.1093742
1.1143981
1.1196499
1.1249181
1.1301992
1.1354406
1.140596
1.1456146
1.1504465
1.1550441
1.1593648
1.163373
1.1670415
1.1703525
1.1732972
1.1758758
1.1780962
1.1799729
1.1815251
1.1827761
1.1837512
1.1844768
1.1849798
1.1852864
1.1854215
1.1854088
1.1852701
1.1850255
1.1846929
1.1842886
1.183827
1.1833209
1.1827814
1.1822182
1.1816397
1.1810533
1.180465
1.1798803
1.1793035
1.1787383
1.1781879
1.1776547
1.1771407
1.1766475
1.1761765
1.1757283
1.1753039
1.1749035
1.1745274
1.1741758
1.1738486
1.1735459
1.1732673
1.1730128
1.1727819
1.1725743
1.1723894
1.1722265
1.1720849
1.1719633
1.1718602
1.1717746
1.1717051
1.171648
1.1715963
1.1715495
1.1715269
1.171541
1.1715179
1.1713367
1.1711754
1.1716056
1.1722108
1.0612233
1.1002956
1.0863773
1.1023499
1.101532
1.1099596
1.1145249
1.1207013
1.1265527
1.1325229
1.1384494
1.1442927
1.149982
1.1554527
1.160642
1.1654944
1.1699643
1.1740179
1.1776344
1.1808053
1.1835341
1.1858338
1.1877259
1.1892374
1.1903995
1.1912455
1.1918094
1.1921248
1.1922241
1.1921375
1.1918932
1.1915169
1.1910315
1.1904578
1.1898139
1.1891159
1.1883776
1.1876113
1.1868271
1.1860342
1.1852399
1.1844508
1.1836722
1.1829085
1.1821635
1.1814401
1.1807408
1.1800674
1.1794213
1.1788037
1.1782152
1.1776564
1.1771275
1.1766286
1.1761595
1.1757201
1.1753102
1.1749292
1.1745771
1.1742532
1.1739574
1.173689
1.1734476
1.1732327
1.1730436
1.1728793
1.1727385
1.17262
1.1725227
1.1724448
1.1723811
1.1723246
1.172278
1.1722604
1.1722708
1.1722232
1.1720267
1.1719121
1.1723961
1.1729333
1.0687231
1.108504
1.095514
1.1122206
1.1128629
1.1218513
1.127716
1.1347051
1.1414419
1.1481496
1.1546756
1.1609458
1.1668733
1.1723851
1.1774217
1.1819413
1.1859199
1.1893507
1.1922428
1.1946178
1.196507
1.1979487
1.1989852
1.1996601
1.2000174
1.2000992
1.1999453
1.1995922
1.1990734
1.1984186
1.1976544
1.1968038
1.1958873
1.1949222
1.1939236
1.1929043
1.1918753
1.1908458
1.1898234
1.1888145
1.1878246
1.1868579
1.1859179
1.1850075
1.1841288
1.1832835
1.1824728
1.1816974
1.180958
1.1802548
1.1795877
1.1789566
1.1783612
1.177801
1.1772756
1.1767843
1.1763265
1.1759017
1.1755093
1.1751487
1.1748194
1.1745208
1.1742525
1.174014
1.1738044
1.1736227
1.1734677
1.1733383
1.1732334
1.1731503
1.1730829
1.1730253
1.1729831
1.1729723
1.1729772
1.1729066
1.1727065
1.1726437
1.1731587
1.1736122
1.0778088
1.1185459
1.1071013
1.1245527
1.1271072
1.1367952
1.1440852
1.1519875
1.159554
1.1668471
1.1737113
1.1800553
1.1857995
1.1908918
1.1953053
1.1990377
1.2021075
1.2045493
1.2064097
1.2077427
1.2086056
1.2090564
1.2091514
1.2089436
1.2084817
1.2078096
1.2069667
1.2059872
1.2049012
1.2037345
1.2025091
1.201244
1.199955
1.1986554
1.1973565
1.1960675
1.1947959
1.1935482
1.1923292
1.1911432
1.1899931
1.1888816
1.1878105
1.1867809
1.185794
1.18485
1.1839493
1.1830917
1.182277
1.1815047
1.1807742
1.180085
1.1794361
1.1788268
1.1782561
1.1777232
1.1772272
1.1767673
1.1763428
1.1759531
1.1755974
1.1752753
1.1749862
1.1747295
1.1745044
1.1743099
1.1741449
1.1740084
1.1738991
1.1738132
1.1737442
1.1736886
1.1736539
1.1736502
1.1736484
1.1735601
1.1733687
1.1733556
1.173872
1.1742322
1.0892414
1.1313397
1.122053
1.1403087
1.1452275
1.1556952
1.1643362
1.1730229
1.1810889
1.1885085
1.1951546
1.2009651
1.2059108
1.2099984
1.2132619
1.2157568
1.2175519
1.2187238
1.219351
1.2195103
1.219274
1.2187085
1.2178733
1.2168208
1.2155966
1.2142401
1.2127845
1.2112583
1.2096849
1.2080844
1.206473
1.2048642
1.2032693
1.2016971
1.200155
1.1986487
1.1971828
1.1957609
1.1943856
1.1930589
1.1917821
1.1905562
1.1893815
1.1882581
1.1871857
1.1861641
1.1851924
1.18427
1.183396
1.1825694
1.1817891
1.181054
1.180363
1.1797149
1.1791087
1.1785431
1.1780171
1.1775299
1.1770805
1.1766681
1.1762922
1.1759521
1.1756472
1.175377
1.1751405
1.1749369
1.1747652
1.1746246
1.174513
1.1744259
1.1743573
1.174306
1.1742801
1.1742827
1.1742742
1.1741762
1.1740059
1.1740379
1.174532
1.17481
1.1046133
1.147996
1.1416582
1.1605667
1.1681946
1.1793202
1.1888163
1.1977033
1.2055271
1.2122645
1.2178793
1.2223958
1.225874
1.2284017
1.2300817
1.231023
1.2313338
1.2311159
1.2304626
1.2294567
1.2281704
1.2266656
1.2249948
1.223202
1.2213239
1.2193905
1.2174268
1.215453
1.2134854
1.2115373
1.2096192
1.2077395
1.2059047
1.2041199
1.2023889
1.2007144
1.1990985
1.1975425
1.196047
1.1946123
1.1932382
1.1919245
1.1906703
1.1894747
1.1883368
1.1872554
1.1862292
1.1852568
1.184337
1.1834684
1.1826495
1.181879
1.1811554
1.1804775
1.1798437
1.1792529
1.1787038
1.1781955
1.177727
1.1772975
1.1769062
1.1765525
1.1762359
1.1759558
1.1757112
1.1755013
1.1753254
1.1751825
1.1750701
1.1749832
1.1749167
1.1748716
1.1748553
1.1748628
1.1748492
1.1747516
1.1746138
1.1746884
1.1751465
1.1753282
1.1253909
1.1698185
1.1673498
1.18634
1.1963721
1.2076071
1.2169133
1.2248925
1.2313765
1.2364323
1.2401569
1.24269
1.2441864
1.2448038
1.2446921
1.2439875
1.24281
1.2412627
1.2394323
1.2373912
1.2351987
1.2329031
1.2305436
1.2281514
1.2257518
1.2233645
1.2210053
1.2186864
1.2164172
1.2142049
1.212055
1.2099713
1.2079567
1.2060129
1.2041409
1.2023412
1.2006136
1.1989578
1.1973728
1.1958577
1.1944112
1.1930319
1.1917183
1.1904688
1.1892816
1.1881552
1.1870878
1.1860778
1.1851233
1.1842228
1.1833745
1.182577
1.1818285
1.1811277
1.1804728
1.1798627
1.1792961
1.1787717
1.1782887
1.1778461
1.1774432
1.1770794
1.1767541
1.1764666
1.1762162
1.1760021
1.1758237
1.1756799
1.1755676
1.175482
1.1754197
1.1753828
1.1753764
1.1753887
1.1753743
1.1752881
1.1751922
1.1753021
1.1757106
1.1758216
1.1542356
1.1976035
1.2002094
1.2185163
1.228904
1.2388977
1.2465932
1.2523901
1.2564188
1.2589208
1.2601354
1.2602975
1.2596182
1.2582813
1.2564414
1.254226
1.2517382
1.2490608
1.2462591
1.2433849
1.2404782
1.2375704
1.2346854
1.2318418
1.2290534
1.2263307
1.2236813
1.2211107
1.2186226
1.2162194
1.2139023
1.211672
1.2095283
1.2074704
1.2054973
1.2036077
1.2018
1.2000724
1.198423
1.1968498
1.1953508
1.1939239
1.192567
1.1912779
1.1900546
1.188895
1.1877971
1.1867589
1.1857785
1.184854
1.1839836
1.1831656
1.1823982
1.1816799
1.1810089
1.180384
1.1798038
1.1792671
1.1787728
1.1783201
1.1779083
1.1775366
1.1772046
1.1769115
1.1766567
1.1764396
1.1762598
1.1761157
1.1760044
1.1759217
1.1758655
1.1758385
1.1758424
1.1758609
1.175852
1.1757883
1.1757401
1.1758792
1.1762327
1.1762878
1.1936845
1.2331617
1.2390047
1.2544979
1.2637398
1.2707283
1.2751581
1.2775822
1.2783663
1.2778804
1.2764276
1.2742588
1.271573
1.2685263
1.265239
1.2618029
1.2582877
1.2547457
1.251216
1.2477276
1.2443017
1.2409537
1.2376945
1.2345316
1.23147
1.2285125
1.2256608
1.2229151
1.2202749
1.2177391
1.2153061
1.2129738
1.2107402
1.2086027
1.2065588
1.2046061
1.2027418
1.2009633
1.1992679
1.1976531
1.1961162
1.1946546
1.1932659
1.1919477
1.1906974
1.1895128
1.1883918
1.1873321
1.1863317
1.1853885
1.1845008
1.1836665
1.182884
1.1821515
1.1814675
1.1808305
1.180239
1.179692
1.1791883
1.1787271
1.1783075
1.1779291
1.1775911
1.1772931
1.1770345
1.176815
1.1766341
1.1764901
1.1763805
1.1763019
1.1762534
1.1762371
1.1762516
1.1762791
1.1762842
1.1762521
1.1762504
1.1764102
1.1767167
1.1767428
1.241898
1.2747825
1.2820284
1.2919296
1.2968825
1.2992369
1.2993882
1.297993
1.2954901
1.2922288
1.2884649
1.2843863
1.2801293
1.2757916
1.2714429
1.2671326
1.2628951
1.2587543
1.2547261
1.2508209
1.2470449
1.2434015
1.2398918
1.2365156
1.2332713
1.2301567
1.2271692
1.2243055
1.2215623
1.2189361
1.2164234
1.2140206
1.211724
1.2095303
1.2074359
1.2054375
1.2035317
1.2017155
1.1999855
1.1983389
1.1967726
1.1952838
1.1938697
1.1925278
1.1912554
1.1900501
1.1889095
1.1878313
1.1868135
1.185854
1.1849507
1.1841018
1.1833055
1.18256
1.1818637
1.1812151
1.1806129
1.1800559
1.179543
1.1790732
1.178646
1.1782606
1.1779165
1.1776134
1.1773509
1.1771288
1.1769465
1.1768026
1.176695
1.1766214
1.1765816
1.1765764
1.1766022
1.1766422
1.1766698
1.1766785
1.1767216
1.1768892
1.1771535
1.1771885
1.2966158
1.3174787
1.3220801
1.3244635
1.3236508
1.3209612
1.3170159
1.3123101
1.3071684
1.3018108
1.2963832
1.2909815
1.285668
1.2804828
1.2754503
1.270585
1.2658943
1.2613811
1.2570449
1.2528834
1.2488929
1.2450688
1.2414059
1.237899
1.2345426
1.2313313
1.2282596
1.2253224
1.2225146
1.2198312
1.2172675
1.2148191
1.2124814
1.2102505
1.2081221
1.2060926
1.2041583
1.2023155
1.200561
1.1988914
1.1973036
1.1957947
1.1943616
1.1930017
1.1917122
1.1904907
1.1893348
1.188242
1.1872102
1.1862374
1.1853214
1.1844604
1.1836526
1.1828961
1.1821894
1.181531
1.1809195
1.1803538
1.1798328
1.1793556
1.1789214
1.1785298
1.1781802
1.1778723
1.1776061
1.1773813
1.1771975
1.1770535
1.1769479
1.1768794
1.176848
1.176853
1.17689
1.1769445
1.1769978
1.177047
1.1771283
1.1772954
1.1775168
1.1775638
1.3500856
1.3533988
1.3521496
1.3476272
1.3417186
1.335057
1.3281114
1.3211258
1.3142483
1.3075589
1.301101
1.2948953
1.2889488
1.2832607
1.2778255
1.2726351
1.2676801
1.2629503
1.2584355
1.2541258
1.2500115
1.2460833
1.2423324
1.2387506
1.2353301
1.2320635
1.228944
1.2259651
1.2231206
1.2204049
1.2178126
1.2153385
1.2129778
1.2107259
1.2085786
1.2065317
1.2045814
1.2027239
1.2009556
1.1992732
1.1976735
1.1961532
1.1947095
1.1933395
1.1920405
1.1908099
1.1896452
1.1885441
1.1875044
1.1865238
1.1856005
1.1847324
1.1839176
1.1831544
1.1824413
1.1817766
1.181159
1.1805873
1.1800606
1.1795778
1.1791382
1.1787413
1.1783867
1.1780742
1.1778037
1.1775752
1.1773884
1.1772428
1.1771374
1.1770714
1.1770445
1.1770562
1.177101
1.1771675
1.1772421
1.1773227
1.1774311
1.1775972
1.1777907
1.1778492
1.384488
1.3768187
1.3691795
1.3608144
1.3521216
1.3435213
1.3351808
1.3271754
1.319534
1.3122599
1.3053446
1.2987733
1.2925289
1.2865933
1.2809486
1.2755778
1.2704648
1.2655946
1.2609533
1.2565282
1.2523074
1.24828
1.244436
1.2407662
1.2372619
1.2339153
1.2307189
1.227666
1.2247501
1.2219653
1.2193059
1.2167668
1.214343
1.2120299
1.209823
1.2077182
1.2057116
1.2037994
1.201978
1.2002441
1.1985943
1.1970256
1.1955348
1.1941193
1.1927762
1.191503
1.1902972
1.1891564
1.1880784
1.187061
1.1861021
1.1851998
1.1843523
1.1835577
1.1828144
1.1821209
1.1814758
1.1808779
1.1803262
1.1798199
1.1793581
1.1789404
1.1785665
1.1782362
1.1779494
1.1777061
1.1775065
1.1773511
1.1772402
1.1771743
1.17714
1.1771541
1.1772025
1.1772765
1.177365
1.1774657
1.1775929
1.1777628
1.1779426
1.1780052
1.1648663
1.1700169
1.1850865
1.1973452
1.2030071
1.2043018
1.2043749
1.2040392
1.2040799
1.2037749
1.2034838
1.2029693
1.2023787
1.2017296
1.2010349
1.2002996
1.1995275
1.1987244
1.1978953
1.1970445
1.1961758
1.1952928
1.1943987
1.1934965
1.1925887
1.1916779
1.1907662
1.1898555
1.1889477
1.1880445
1.1871475
1.1862582
1.1853779
1.1845081
1.1836499
1.1828046
1.1819734
1.1811575
1.1803579
1.1795759
1.1788124
1.1780686
1.1773455
1.1766441
1.1759655
1.1753107
1.1746806
1.174076
1.1734979
1.1729471
1.1724242
1.1719299
1.1714646
1.1710289
1.1706228
1.1702468
1.1699007
1.1695846
1.1692984
1.1690419
1.1688147
1.1686164
1.1684465
1.1683043
1.1681882
1.1680955
1.1680225
1.1679606
1.1679058
1.1678351
1.1677663
1.1676239
1.1675413
1.167228
1.1671931
1.1664298
1.1666018
1.1650949
1.1659177
1.1636721
1.1606752
1.1720904
1.1889807
1.1976058
1.1999377
1.1998451
1.1993048
1.199059
1.1987458
1.1984506
1.1980666
1.1976646
1.1972166
1.1967344
1.1962121
1.1956571
1.1950699
1.1944537
1.1938109
1.1931438
1.1924549
1.1917464
1.1910207
1.19028
1.1895265
1.1887624
1.1879899
1.187211
1.1864277
1.1856419
1.1848556
1.1840707
1.1832888
1.1825117
1.1817411
1.1809787
1.1802259
1.1794843
1.1787555
1.1780409
1.177342
1.17666
1.1759964
1.1753524
1.1747293
1.1741283
1.1735506
1.1729971
1.1724689
1.1719669
1.1714919
1.1710447
1.1706256
1.1702353
1.169874
1.1695418
1.1692388
1.168965
1.1687201
1.168504
1.1683162
1.1681559
1.1680226
1.1679151
1.1678318
1.1677693
1.1677236
1.167686
1.1676518
1.1676
1.1675449
1.1674194
1.1673418
1.167045
1.1670023
1.166264
1.1664326
1.1649522
1.165849
1.1635819
1.1614981
1.1753881
1.1875525
1.1940921
1.1950927
1.1946214
1.1941086
1.1938498
1.1935554
1.1932723
1.1929351
1.192598
1.1922238
1.1918364
1.1914205
1.1909845
1.1905246
1.1900432
1.1895404
1.189017
1.188474
1.1879125
1.1873337
1.1867387
1.1861291
1.1855061
1.1848715
1.1842267
1.1835733
1.1829131
1.1822478
1.181579
1.1809086
1.1802383
1.1795699
1.1789051
1.1782457
1.1775935
1.17695
1.1763172
1.1756965
1.1750896
1.1744981
1.1739236
1.1733674
1.172831
1.1723158
1.1718229
1.1713536
1.1709089
1.1704896
1.1700966
1.1697306
1.1693919
1.1690809
1.1687979
1.1685428
1.1683156
1.168116
1.1679438
1.1677982
1.1676787
1.1675842
1.1675134
1.1674643
1.1674333
1.167416
1.1674038
1.1673913
1.1673591
1.1673191
1.167211
1.1671404
1.1668587
1.1668122
1.1660969
1.1662659
1.1648141
1.1657777
1.1635009
1.1594082
1.1742599
1.185207
1.1900542
1.189883
1.1894876
1.1890341
1.1888351
1.1885121
1.188258
1.1879394
1.1876514
1.1873295
1.1870122
1.1866733
1.186326
1.1859628
1.1855865
1.1851954
1.1847895
1.1843688
1.1839331
1.1834827
1.1830179
1.1825393
1.1820474
1.1815432
1.1810274
1.1805013
1.1799661
1.179423
1.1788735
1.1783191
1.1777613
1.1772018
1.1766424
1.1760846
1.1755304
1.1749814
1.1744394
1.1739063
1.1733838
1.1728736
1.1723775
1.1718969
1.1714336
1.170989
1.1705645
1.1701615
1.169781
1.1694241
1.1690916
1.1687843
1.1685027
1.1682472
1.168018
1.167815
1.1676383
1.1674876
1.1673624
1.167262
1.1671856
1.167132
1.1670997
1.1670863
1.1670881
1.1671003
1.1671143
1.1671245
1.1671127
1.167089
1.1669985
1.1669364
1.1666689
1.1666218
1.1659281
1.1661013
1.1646791
1.1657051
1.1634254
1.1538011
1.1706649
1.1807294
1.1843663
1.1837942
1.1837107
1.183338
1.1832788
1.1830281
1.1828917
1.182662
1.1824829
1.182258
1.1820474
1.1818131
1.1815747
1.1813213
1.1810573
1.1807804
1.1804906
1.1801876
1.1798712
1.1795415
1.1791983
1.1788421
1.178473
1.1780915
1.1776982
1.1772938
1.1768791
1.1764552
1.1760231
1.175584
1.1751393
1.1746903
1.1742387
1.173786
1.1733339
1.1728841
1.1724384
1.1719986
1.1715664
1.1711438
1.1707323
1.1703339
1.16995
1.1695825
1.1692326
1.1689019
1.1685916
1.1683027
1.1680362
1.1677928
1.1675732
1.1673777
1.1672064
1.1670596
1.1669369
1.1668381
1.1667629
1.1667102
1.1666791
1.1666683
1.1666761
1.1666997
1.1667354
1.1667779
1.1668191
1.1668528
1.1668622
1.1668557
1.1667831
1.1667308
1.1664775
1.1664318
1.1657597
1.1659393
1.1645483
1.1656315
1.1633556
1.1476705
1.1670323
1.1756669
1.1786557
1.1779236
1.1781065
1.1777762
1.1778584
1.177672
1.17765
1.177502
1.1774265
1.1772917
1.1771809
1.1770426
1.1769036
1.1767492
1.176586
1.176411
1.1762248
1.1760271
1.1758176
1.1755962
1.1753629
1.1751176
1.1748604
1.1745915
1.1743113
1.1740201
1.1737185
1.1734072
1.173087
1.1727588
1.1724237
1.1720829
1.1717377
1.1713896
1.1710401
1.1706908
1.1703433
1.1699994
1.1696608
1.1693293
1.1690066
1.1686946
1.1683948
1.1681089
1.1678385
1.167585
1.1673495
1.1671333
1.1669373
1.1667622
1.1666087
1.1664771
1.1663676
1.1662802
1.1662147
1.1661708
1.166148
1.1661453
1.1661614
1.1661951
1.1662442
1.1663061
1.1663765
1.1664502
1.1665192
1.1665772
1.1666084
1.16662
1.1665654
1.1665243
1.1662858
1.1662421
1.1655926
1.1657802
1.1644222
1.1655584
1.1632909
1.1423336
1.1635504
1.1706523
1.1733339
1.1724889
1.1728828
1.172558
1.1727547
1.172607
1.1726763
1.1725913
1.1726044
1.1725446
1.1725143
1.172452
1.1723937
1.1723211
1.1722428
1.172155
1.1720582
1.171952
1.1718359
1.1717097
1.1715732
1.1714263
1.1712689
1.171101
1.1709227
1.1707343
1.1705361
1.1703285
1.1701122
1.1698878
1.1696563
1.1694186
1.1691758
1.1689292
1.1686801
1.1684299
1.1681801
1.1679324
1.1676883
1.1674496
1.1672178
1.1669948
1.166782
1.1665811
1.1663936
1.1662208
1.1660639
1.1659241
1.1658022
1.1656991
1.1656152
1.1655508
1.1655062
1.1654812
1.1654756
1.1654891
1.165521
1.16557
1.1656351
1.1657146
1.1658063
1.1659072
1.1660131
1.1661186
1.166216
1.1662988
1.1663524
1.1663827
1.1663464
1.1663175
1.1660949
1.1660537
1.1654279
1.1656245
1.1643017
1.1654869
1.163231
1.1373449
1.160404
1.1659405
1.1684968
1.1675354
1.1681009
1.1677502