/*--------------------------------*- C++ -*----------------------------------*\
  =========                 |
  \\      /  F ield         | OpenFOAM: The Open Source CFD Toolbox
   \\    /   O peration     | Website:  https://openfoam.org
    \\  /    A nd           | Version:  12
     \\/     M anipulation  |
\*---------------------------------------------------------------------------*/
FoamFile
{
    format      ascii;
    class       volScalarField;
    location    "0.064";
    object      T;
}
// * * * * * * * * * * * * * * * * * * * * * * * * * * * * * * * * * * * * * //

dimensions      [0 0 0 1 0 0 0];

internalField   nonuniform List<scalar> 
16000
(
293.9844
285.43311
288.72631
286.94818
288.06769
287.55577
287.9826
287.87203
288.07098
288.1058
288.22827
288.31452
288.42145
288.52581
288.63621
288.74999
288.86797
288.98999
289.11614
289.24642
289.38083
289.51937
289.66198
289.80863
289.95922
290.11366
290.27181
290.43352
290.59861
290.76684
290.93799
291.11176
291.28787
291.46597
291.6457
291.82668
292.0085
292.19073
292.37294
292.55468
292.73549
292.91493
293.09255
293.26792
293.44061
293.61024
293.77642
293.93884
294.09717
294.25117
294.40061
294.54532
294.68516
294.82004
294.94993
295.07482
295.1948
295.30997
295.42053
295.52674
295.62897
295.72764
295.82331
295.91663
296.00839
296.09951
296.19104
296.28417
296.38026
296.48097
296.58824
296.70413
296.8301
296.96592
297.1081
297.24894
297.3803
297.48193
297.63559
297.65894
293.675
285.02307
288.48831
286.58624
287.77486
287.22493
287.68773
287.56733
287.78125
287.82151
287.95114
288.04641
288.16065
288.27398
288.39295
288.51588
288.6432
288.77488
288.91094
289.0514
289.19622
289.34538
289.49881
289.65643
289.8181
289.98371
290.15306
290.32595
290.50215
290.68138
290.86335
291.04772
291.23414
291.4222
291.61149
291.80158
291.99201
292.1823
292.37198
292.56057
292.74759
292.93257
293.11505
293.29461
293.47083
293.64333
293.81178
293.97586
294.13533
294.28996
294.43959
294.58409
294.72338
294.85743
294.98626
295.10993
295.22855
295.34231
295.45142
295.55618
295.657
295.75433
295.84873
295.94086
296.03153
296.12162
296.21216
296.30434
296.3995
296.49927
296.60555
296.72026
296.8447
296.97844
297.11786
297.25521
297.3803
297.49024
297.61196
297.68821
293.38033
284.64165
288.2243
286.26885
287.49842
286.93816
287.4149
287.30229
287.52132
287.57354
287.7088
287.81479
287.93729
288.06054
288.18927
288.32243
288.46025
288.60274
288.74989
288.90168
289.05806
289.21897
289.3843
289.55392
289.72767
289.90536
290.08676
290.27161
290.45961
290.65042
290.84369
291.03901
291.23595
291.43405
291.63284
291.83181
292.03046
292.22827
292.42471
292.61929
292.81149
293.00084
293.18689
293.36921
293.54741
293.72115
293.89014
294.05411
294.21288
294.36628
294.51422
294.65663
294.79351
294.92488
295.05084
295.17152
295.28708
295.39776
295.50383
295.60563
295.7036
295.79823
295.8901
295.97988
296.06835
296.15642
296.24509
296.33549
296.42898
296.52712
296.63175
296.74462
296.86678
296.99753
297.13297
297.26517
297.38542
297.49474
297.60131
297.71073
293.10991
284.29166
287.98705
285.98863
287.25613
286.68543
287.17659
287.07333
287.29802
287.36375
287.50571
287.62365
287.75577
287.89016
288.02995
288.17459
288.32416
288.47866
288.63807
288.80231
288.97133
289.14499
289.32317
289.50569
289.69232
289.88282
290.0769
290.27422
290.47441
290.67707
290.88175
291.08797
291.29524
291.50301
291.71073
291.91786
292.12382
292.32805
292.53001
292.72915
292.92498
293.11701
293.30482
293.488
293.66622
293.83918
294.00666
294.16846
294.32447
294.47462
294.61886
294.75724
294.88981
295.01669
295.13804
295.25405
295.36497
295.47106
295.57267
295.67017
295.76403
295.85476
295.94297
296.02933
296.11464
296.19975
296.28566
296.37348
296.46451
296.56029
296.66255
296.77286
296.89204
297.01908
297.14983
297.27659
297.39249
297.49794
297.59551
297.73149
292.86402
283.97921
287.77702
285.75778
287.05947
286.47537
286.97713
286.88805
287.11668
287.19882
287.34826
287.47953
287.62265
287.76936
287.92148
288.07878
288.24128
288.40895
288.58173
288.75953
288.94225
289.12972
289.32174
289.51808
289.71844
289.92251
290.12991
290.34022
290.55297
290.76767
290.98379
291.20074
291.41795
291.6348
291.85066
292.06493
292.27698
292.48623
292.69209
292.89404
293.09157
293.28425
293.47167
293.6535
293.82946
293.99935
294.16302
294.32037
294.47137
294.61604
294.75446
294.88673
295.01302
295.13351
295.24845
295.3581
295.46275
295.56276
295.65848
295.75035
295.83885
295.92452
296.00798
296.08992
296.17111
296.25239
296.33473
296.4192
296.50706
296.5998
296.69901
296.8061
296.92162
297.04427
297.16966
297.2907
297.40207
297.50272
297.59521
297.74943
292.64663
283.71088
287.59926
285.56438
286.89192
286.31472
286.82731
286.75298
286.98415
287.0847
287.24253
287.38794
287.54325
287.70322
287.86877
288.03985
288.21644
288.39846
288.58584
288.77843
288.97606
289.17849
289.38547
289.59665
289.81165
290.03006
290.25138
290.4751
290.70063
290.92736
291.15466
291.38186
291.60826
291.83318
292.05594
292.27585
292.49228
292.70462
292.91228
293.11477
293.31162
293.50245
293.68693
293.86482
294.03594
294.20017
294.35749
294.5079
294.6515
294.78841
294.91879
295.04288
295.16091
295.27316
295.37995
295.48161
295.5785
295.67101
295.75955
295.84457
295.92658
296.00615
296.0839
296.16051
296.23673
296.31341
296.39144
296.47187
296.55592
296.64497
296.74052
296.84377
296.95503
297.07271
297.1923
297.30754
297.4142
297.50979
297.5994
297.76561
292.46109
283.48894
287.45592
285.40891
286.75738
286.20551
286.71901
286.67143
286.90285
287.02339
287.19063
287.35097
287.51989
287.69443
287.87493
288.06138
288.25368
288.45173
288.65536
288.86435
289.07843
289.29729
289.52052
289.7477
289.97831
290.21181
290.44757
290.68494
290.92321
291.16166
291.39951
291.63601
291.87037
292.10184
292.32967
292.55317
292.77168
292.9846
293.19141
293.39165
293.58493
293.77098
293.94957
294.12058
294.28396
294.43973
294.58798
294.72887
294.86259
294.98939
295.10955
295.2234
295.33127
295.43352
295.53054
295.62271
295.71046
295.7942
295.87437
295.95147
296.02601
296.09856
296.16974
296.24023
296.31077
296.38215
296.45525
296.53105
296.61071
296.69553
296.78687
296.88573
296.9922
297.10445
297.21798
297.32748
297.42926
297.51954
297.60757
297.78143
292.30538
283.31135
287.34419
285.28988
286.65555
286.13143
286.64434
286.60817
286.87105
287.0134
287.19263
287.36978
287.5548
287.74622
287.94402
288.14814
288.35843
288.57469
288.79665
289.024
289.25633
289.4932
289.73409
289.97839
290.22546
290.47459
290.72501
290.9759
291.22643
291.47572
291.7229
291.96711
292.2075
292.44326
292.67363
292.89792
293.1155
293.32584
293.5285
293.72311
293.90944
294.08733
294.25671
294.41762
294.57015
294.71449
294.85088
294.9796
295.101
295.21543
295.32329
295.42499
295.52095
295.61161
295.69742
295.7788
295.85621
295.9301
296.00094
296.06921
296.13545
296.20023
296.26415
296.32788
296.39213
296.45765
296.52529
296.59597
296.67077
296.7509
296.83756
296.93158
297.03286
297.13933
297.24671
297.35061
297.44739
297.53209
297.6191
297.79816
292.17425
283.17586
287.26709
285.20727
286.60376
286.12738
286.63572
286.66296
286.89483
287.05866
287.25352
287.45014
287.65432
287.86543
288.08331
288.30779
288.53864
288.77553
289.01808
289.26583
289.51822
289.77464
290.0344
290.29671
290.56073
290.82559
291.09032
291.35397
291.61553
291.87402
292.12846
292.37791
292.6215
292.8584
293.08788
293.30932
293.52217
293.72603
293.92059
294.10566
294.28117
294.44716
294.60374
294.75113
294.88961
295.01954
295.14131
295.25535
295.36212
295.4621
295.55578
295.64366
295.72622
295.80396
295.87736
295.94689
296.01301
296.07621
296.13695
296.19571
296.25303
296.30947
296.36561
296.42208
296.47958
296.53882
296.60059
296.66577
296.73535
296.81044
296.89206
296.98091
297.07668
297.17714
297.27841
297.37693
297.4686
297.54756
297.6339
297.81598
292.06679
283.08474
287.23058
285.17609
286.60907
286.16988
286.67502
286.72576
286.97771
287.16831
287.38246
287.60123
287.82768
288.06146
288.30234
288.55
288.80408
289.06408
289.32946
289.59956
289.87364
290.15085
290.43028
290.71094
290.99178
291.2717
291.54956
291.82423
292.09459
292.35954
292.61804
292.86915
293.11199
293.34581
293.56998
293.78399
293.98749
294.18026
294.3622
294.53334
294.69385
294.84397
294.98406
295.11452
295.23583
295.34852
295.45312
295.5502
295.64034
295.72411
295.80207
295.87478
295.94278
296.00658
296.0667
296.12362
296.17781
296.22973
296.27986
296.32867
296.37667
296.42439
296.4724
296.5213
296.57174
296.62441
296.68004
296.73945
296.80356
296.87334
296.94969
297.03316
297.12321
297.21757
297.31284
297.40618
297.4927
297.56605
297.65198
297.83499
291.98685
283.04637
287.24105
285.27108
286.6748
286.27607
286.77378
286.87362
287.13218
287.35123
287.58878
287.83289
288.08502
288.34478
288.61182
288.88565
289.1657
289.45127
289.74159
290.03573
290.33269
290.63137
290.93059
291.22909
291.52559
291.81877
292.10733
292.38998
292.66552
292.93281
293.19081
293.43863
293.67551
293.90085
294.11423
294.31537
294.50416
294.68066
294.84504
294.99763
295.13884
295.26918
295.38921
295.49956
295.60088
295.69385
295.77914
295.85743
295.92936
295.99558
296.05671
296.11333
296.16599
296.21523
296.26155
296.30543
296.34734
296.38771
296.42699
296.46565
296.50414
296.54299
296.58272
296.6239
296.66713
296.71307
296.76241
296.8159
296.87438
296.93871
297.00967
297.08763
297.17187
297.26014
297.34963
297.43794
297.51928
297.5877
297.67366
297.85497
291.94114
283.07448
287.30689
285.41224
286.78821
286.45424
286.94548
287.09071
287.36726
287.61748
287.88293
288.15613
288.4377
288.72707
289.02368
289.32679
289.63556
289.949
290.266
290.58533
290.90564
291.22551
291.54347
291.85797
292.1675
292.47055
292.76568
293.05154
293.32691
293.5907
293.84201
294.08011
294.3045
294.51486
294.71106
294.89316
295.06142
295.2162
295.35804
295.48753
295.60538
295.71234
295.8092
295.89675
295.9758
296.04715
296.11155
296.16976
296.22246
296.27034
296.31402
296.35409
296.39109
296.42554
296.45793
296.4887
296.51829
296.54712
296.57559
296.60414
296.63319
296.6632
296.69468
296.72816
296.7642
296.8034
296.84641
296.89394
296.94674
297.00558
297.07111
297.14354
297.22199
297.30429
297.38828
297.47165
297.54779
297.61231
297.69866
297.87544
291.93456
283.17499
287.43865
285.60994
286.96885
286.71105
287.19856
287.39391
287.69349
287.97831
288.2766
288.58333
288.89865
289.22163
289.55143
289.88694
290.22694
290.57004
290.91471
291.25931
291.60212
291.94135
292.27522
292.60193
292.91978
293.22714
293.52254
293.80468
294.07247
294.32506
294.56182
294.78238
294.98661
295.17462
295.34671
295.50337
295.64524
295.77307
295.88772
295.99009
296.08115
296.16184
296.23313
296.29595
296.3512
296.39974
296.44238
296.47989
296.51297
296.54228
296.56843
296.59198
296.61344
296.6333
296.65198
296.66991
296.68747
296.70504
296.72299
296.7417
296.76156
296.78299
296.80643
296.83238
296.86136
296.89394
296.93072
296.97235
297.01951
297.07288
297.13303
297.20001
297.27277
297.34937
297.42819
297.50672
297.57771
297.63923
297.72646
297.89587
291.96934
283.35565
287.64112
285.89587
287.22633
287.05467
287.54375
287.79239
288.12302
288.44716
288.78399
289.12946
289.48331
289.84416
290.21068
290.58128
290.95422
291.3276
291.69939
292.0675
292.4298
292.78416
293.12852
293.46093
293.77961
294.08299
294.36974
294.63884
294.88955
295.12146
295.33444
295.52864
295.70447
295.86256
296.00371
296.12887
296.23909
296.33548
296.4192
296.49138
296.55319
296.60572
296.65002
296.6871
296.7179
296.74328
296.76406
296.78095
296.79464
296.80573
296.8148
296.82233
296.82879
296.8346
296.84015
296.8458
296.85189
296.85874
296.86668
296.87604
296.88715
296.90039
296.91616
296.9349
296.95711
296.98329
297.01402
297.0499
297.09153
297.13956
297.19445
297.25611
297.3234
297.39468
297.46869
297.54249
297.6085
297.66792
297.75633
297.91522
292.05029
283.62994
287.91746
286.27164
287.57379
287.49691
287.99513
288.30145
288.67188
289.0415
289.42324
289.81318
290.21043
290.613
291.01893
291.42597
291.83177
292.23382
292.62958
293.01649
293.39204
293.75387
294.09979
294.4279
294.73659
295.02463
295.29116
295.53571
295.75817
295.9588
296.13816
296.29705
296.43652
296.55775
296.66205
296.75077
296.82532
296.8871
296.93745
296.97768
297.00904
297.03268
297.04968
297.06104
297.06766
297.07036
297.06988
297.06691
297.06203
297.05578
297.04865
297.04107
297.03343
297.02608
297.01936
297.01355
297.00895
297.00582
297.00444
297.00507
297.00803
297.01362
297.0222
297.03417
297.04997
297.0701
297.09506
297.12541
297.16172
297.20458
297.25438
297.31091
297.37305
297.43946
297.50907
297.57829
297.63958
297.69741
297.78729
297.93279
292.18178
284.0167
288.26343
286.75179
288.02475
288.05338
288.57131
288.9413
289.36142
289.78381
290.21707
290.65686
291.10146
291.54811
291.99405
292.43627
292.8717
293.29722
293.70976
294.1064
294.48447
294.8416
295.17586
295.48576
295.77028
296.02894
296.26168
296.46891
296.6514
296.81023
296.94674
297.06243
297.15895
297.23796
297.30119
297.3503
297.38691
297.41257
297.42872
297.4367
297.43776
297.43302
297.42349
297.4101
297.39366
297.3749
297.35447
297.33293
297.3108
297.28851
297.26645
297.24499
297.22442
297.20504
297.1871
297.17084
297.15649
297.14426
297.13437
297.12705
297.12254
297.12111
297.12307
297.12878
297.13865
297.15312
297.17266
297.1978
297.22906
297.26698
297.31191
297.36353
297.42085
297.48288
297.54852
297.61341
297.67035
297.72687
297.81783
297.94884
292.36861
284.54646
288.68827
287.35466
288.60104
288.74779
289.29854
289.73939
290.21904
290.70135
291.19169
291.68508
292.17867
292.66876
293.15159
293.62332
294.08013
294.51838
294.93473
295.32624
295.69054
296.02582
296.33095
296.60539
296.84924
297.06311
297.2481
297.40567
297.53755
297.64569
297.73213
297.79896
297.84827
297.88207
297.90229
297.91075
297.90914
297.899
297.88174
297.85863
297.8308
297.79928
297.76495
297.7286
297.69092
297.65252
297.61391
297.57555
297.53783
297.50109
297.46564
297.43173
297.3996
297.36947
297.34151
297.31592
297.29286
297.27249
297.25499
297.24053
297.2293
297.22154
297.21751
297.21754
297.22197
297.23124
297.24578
297.26607
297.29261
297.32591
297.36619
297.41313
297.46596
297.52405
297.5861
297.64691
297.70001
297.75591
297.84736
297.96338
292.62291
285.2656
289.23453
288.11184
289.33384
289.61166
290.20964
290.72832
291.27604
291.82401
292.37473
292.92225
293.46227
293.98986
294.50024
294.98876
295.45119
295.88385
296.28379
296.64884
296.9777
297.26988
297.52569
297.7461
297.93266
298.08735
298.21247
298.3105
298.38404
298.43568
298.46797
298.48336
298.48412
298.4724
298.45014
298.41911
298.38091
298.33696
298.28851
298.23667
298.18241
298.12657
298.06988
298.01296
297.95636
297.90052
297.84585
297.79267
297.74126
297.69185
297.64466
297.59987
297.55763
297.51808
297.48137
297.4476
297.41691
297.3894
297.3652
297.34444
297.32727
297.31388
297.30451
297.29943
297.29897
297.30353
297.31351
297.32935
297.35155
297.38053
297.41643
297.45891
297.50752
297.562
297.62071
297.67768
297.72754
297.7835
297.87521
297.97722
292.97201
286.15241
289.92931
289.06058
290.26111
290.68003
291.34119
291.94448
292.56679
293.1833
293.79319
294.38915
294.96518
295.51525
296.03389
296.51643
296.95915
297.35946
297.71591
298.02815
298.29683
298.52347
298.71028
298.85996
298.97555
299.06029
299.11746
299.1503
299.16192
299.15525
299.13301
299.09769
299.05154
298.99656
298.93454
298.86705
298.79547
298.721
298.64465
298.56732
298.48977
298.41264
298.33648
298.26173
298.18877
298.11793
298.04945
297.98356
297.92042
297.86017
297.80294
297.74883
297.69793
297.65032
297.60609
297.5653
297.52802
297.49434
297.46433
297.43808
297.41572
297.39739
297.3833
297.37369
297.36888
297.36921
297.37508
297.3869
297.40513
297.43011
297.46186
297.50011
297.54475
297.5958
297.65121
297.70462
297.7522
297.80907
297.90031
297.98967
293.45643
287.1592
290.81579
290.23718
291.42746
291.99538
292.73669
293.43035
294.12883
294.80928
295.46711
296.09368
296.68196
297.22585
297.72067
298.16331
298.5522
298.88728
299.16981
299.4021
299.58732
299.72919
299.83176
299.89925
299.93582
299.94551
299.93211
299.89916
299.84985
299.78708
299.7134
299.63107
299.54209
299.44816
299.35077
299.25118
299.15047
299.04958
298.94925
298.85015
298.7528
298.65765
298.56506
298.47531
298.38864
298.30522
298.2252
298.14866
298.07571
298.00639
297.94075
297.87882
297.82065
297.76626
297.71568
297.66893
297.62606
297.58711
297.55211
297.52114
297.49427
297.47165
297.45343
297.43984
297.43117
297.42775
297.42992
297.43811
297.45272
297.47397
297.50182
297.5361
297.57703
297.62474
297.67679
297.72696
297.77323
297.83151
297.92117
297.99976
294.13244
288.45401
291.94234
291.69446
292.89458
293.61668
294.44929
295.23078
295.99365
296.71682
297.39295
298.01363
298.57297
299.06721
299.49479
299.8562
300.15363
300.39063
300.57176
300.70216
300.78727
300.83256
300.84336
300.82468
300.78116
300.71701
300.63598
300.54139
300.43614
300.32275
300.20338
300.07988
299.95381
299.8265
299.69907
299.57243
299.44735
299.32446
299.20428
299.08721
298.97359
298.86366
298.75763
298.65562
298.55774
298.46405
298.37459
298.28937
298.20838
298.13162
298.05907
297.99071
297.92653
297.8665
297.81062
297.7589
297.71131
297.66789
297.62865
297.59362
297.56288
297.53653
297.51471
297.49764
297.48558
297.47881
297.47769
297.4826
297.49387
297.51165
297.53587
297.56651
297.60401
297.64843
297.69702
297.7442
297.7899
297.84978
297.93704
298.00561
295.05641
290.10006
293.39597
293.51263
294.74198
295.61166
296.5265
297.37091
298.16104
298.87977
299.52074
300.07916
300.55377
300.94599
301.25955
301.49988
301.67355
301.7877
301.84966
301.8666
301.8453
301.792
301.71234
301.61129
301.49323
301.36194
301.22066
301.07213
300.91869
300.76227
300.60451
300.44675
300.29011
300.13548
299.98361
299.83509
299.69038
299.54985
299.41378
299.28237
299.15578
299.03408
298.91735
298.80558
298.69877
298.59689
298.49989
298.4077
298.32027
298.23752
298.15938
298.08579
298.01669
297.95204
297.8918
297.83592
297.78439
297.7372
297.69435
297.65585
297.62177
297.59219
297.56724
297.54712
297.53206
297.52233
297.51827
297.52021
297.52842
297.54299
297.56388
297.59125
297.62562
297.66679
297.71182
297.75616
297.80175
297.86323
297.94785
298.0081
296.20716
292.22233
295.28281
295.7757
297.0358
298.02349
298.97418
299.82004
300.56755
301.20794
301.74126
302.17046
302.50179
302.74352
302.9052
302.99685
303.02841
303.00928
302.94813
302.85268
302.72976
302.58523
302.42411
302.25066
302.06842
301.88034
301.68887
301.49601
301.30339
301.11235
300.92395
300.73904
300.5583
300.38225
300.21129
300.04573
299.88577
299.73155
299.58317
299.44065
299.304
299.17319
299.04814
298.92878
298.81501
298.70673
298.60381
298.50614
298.41361
298.32609
298.24349
298.16569
298.09263
298.0242
297.96035
297.90103
297.84619
297.79581
297.74988
297.70841
297.67144
297.63906
297.61138
297.58859
297.57089
297.55854
297.55186
297.55113
297.55657
297.56821
297.58611
297.61057
297.64209
297.68007
297.72152
297.76317
297.80875
297.87168
297.95405
298.00842
297.7702
294.9336
297.69769
298.53584
299.76908
300.81877
301.71431
302.46233
303.07198
303.54727
303.89888
304.13945
304.28308
304.34397
304.33569
304.27069
304.16003
304.01331
303.83868
303.643
303.43196
303.21024
302.98163
302.74922
302.51551
302.28248
302.05172
301.82446
301.60169
301.38416
301.17245
300.96696
300.76802
300.57583
300.39051
300.21213
300.0407
299.8762
299.71855
299.56765
299.42341
299.28568
299.15431
299.02916
298.91006
298.79684
298.68934
298.58741
298.49088
298.39961
298.31345
298.23229
298.15601
298.0845
298.01768
297.95549
297.89787
297.84478
297.79621
297.75217
297.71269
297.67786
297.6478
297.62265
297.60263
297.58798
297.57897
297.57587
297.57881
297.58785
297.6031
297.625
297.65389
297.68886
297.72705
297.7664
297.81166
297.87444
297.95344
298.00551
299.78027
298.30314
300.6333
301.76535
302.96784
303.84636
304.56442
305.10038
305.47704
305.7132
305.83043
305.84921
305.78845
305.66475
305.49231
305.28295
305.0464
304.79052
304.52161
304.24469
303.96371
303.68178
303.40131
303.12417
302.85181
302.58532
302.3255
302.07296
301.82812
301.59126
301.36257
301.14214
300.92997
300.72605
300.53029
300.34258
300.16278
299.99073
299.82627
299.66919
299.51931
299.37642
299.24032
299.11079
298.98763
298.87064
298.75961
298.65436
298.5547
298.46046
298.37147
298.2876
298.20869
298.13465
298.06536
298.00075
297.94076
297.88534
297.83448
297.7882
297.74653
297.70955
297.67737
297.65014
297.62806
297.61137
297.60031
297.59509
297.59582
297.60258
297.61556
297.6352
297.66169
297.69398
297.72958
297.7674
297.81241
297.87395
297.94863
297.99924
302.26892
302.31
304.34343
305.3321
306.23955
306.86052
307.27413
307.50213
307.58144
307.54216
307.41149
307.21187
306.96161
306.67525
306.36418
306.03722
305.70113
305.36109
305.02098
304.68375
304.35158
304.02609
303.70845
303.3995
303.09981
302.80976
302.52955
302.2593
301.99902
301.74864
301.50806
301.27712
301.05565
300.84343
300.64025
300.44587
300.26005
300.08254
299.9131
299.75147
299.5974
299.45064
299.31095
299.17807
299.05178
298.93183
298.81802
298.71012
298.60794
298.51128
298.41997
298.33384
298.25274
298.17655
298.10514
298.03844
297.97638
297.91892
297.86603
297.81775
297.77411
297.73519
297.70111
297.672
297.64807
297.62954
297.61662
297.6095
297.60829
297.6131
297.62419
297.64192
297.66635
297.69642
297.73021
297.76741
297.81248
297.87217
297.94186
297.99081
305.37874
306.79633
308.14076
308.85328
309.33878
309.55286
309.57875
309.45882
309.23423
308.93572
308.58699
308.20571
307.80489
307.39406
306.98012
306.56805
306.16137
305.76259
305.37344
304.99509
304.62831
304.27353
303.93101
303.60081
303.28289
302.9771
302.68327
302.40115
302.13047
301.87093
301.62225
301.3841
301.15616
300.93813
300.72969
300.53052
300.34033
300.15879
299.98563
299.82054
299.66324
299.51345
299.3709
299.23532
299.10645
298.98406
298.8679
298.75776
298.65341
298.55465
298.4613
298.37317
298.29012
298.212
298.1387
298.07011
298.00618
297.94685
297.89212
297.842
297.79654
297.75584
297.71999
297.68916
297.66351
297.64328
297.62866
297.61984
297.61694
297.62013
297.62967
297.64584
297.66853
297.6968
297.7293
297.76623
297.81122
297.86868
297.93393
297.98424
309.38387
311.19066
311.73953
311.93044
311.87724
311.64235
311.28879
310.85943
310.38477
309.88575
309.37657
308.86682
308.36286
307.86889
307.3876
306.92066
306.46903
306.03321
305.61334
305.20937
304.82107
304.44814
304.09018
303.74677
303.41748
303.10185
302.79943
302.50976
302.23241
301.96693
301.71292
301.46996
301.23766
301.01563
300.80351
300.60093
300.40755
300.22303
300.04705
299.87929
299.71945
299.56724
299.42236
299.28454
299.15351
299.02903
298.91084
298.79872
298.69245
298.59182
298.49664
298.40672
298.3219
298.24204
298.16702
298.09672
298.03109
297.97007
297.91366
297.86186
297.81475
297.77239
297.73492
297.70248
297.67525
297.65345
297.63728
297.62694
297.62259
297.6244
297.63259
297.64738
297.66857
297.69545
297.7272
297.76424
297.80924
297.86487
297.92708
297.97952
314.39536
314.77411
314.50366
314.13272
313.6058
313.00732
312.37327
311.72953
311.09043
310.46469
309.85715
309.27044
308.70576
308.16346
307.64338
307.14506
306.66784
306.21099
305.7737
305.35519
304.95467
304.57138
304.20457
303.85355
303.51765
303.19624
302.88871
302.5945
302.31307
302.04391
301.78652
301.54046
301.30528
301.08056
300.86591
300.66093
300.46526
300.27855
300.10046
299.93067
299.76885
299.6147
299.46793
299.32827
299.19543
299.06917
298.94924
298.8354
298.72744
298.62514
298.52831
298.43676
298.35033
298.26888
298.19226
298.12039
298.05318
297.99059
297.9326
297.87923
297.83053
297.78659
297.74753
297.71352
297.68474
297.66141
297.64373
297.6319
297.62609
297.62655
297.63356
297.64714
297.66722
297.69331
297.72494
297.76244
297.80752
297.86161
297.9214
297.97567
316.41455
316.58494
316.00731
315.23835
314.45195
313.66413
312.89551
312.15378
311.44246
310.76258
310.11385
309.49533
308.90576
308.34372
307.8078
307.2966
306.80877
306.34308
305.89833
305.47343
305.06737
304.67921
304.30808
303.95316
303.6137
303.289
302.97841
302.68131
302.39714
302.12535
301.86544
301.61692
301.37935
301.1523
300.93535
300.72811
300.53022
300.34132
300.16106
299.98912
299.82517
299.66891
299.52006
299.37831
299.24342
299.11511
298.99315
298.8773
298.76733
298.66304
298.56423
298.47072
298.38233
298.29893
298.22037
298.14656
298.07742
298.01289
297.95297
297.89766
297.84702
297.80115
297.76016
297.72424
297.69362
297.66856
297.64927
297.63581
297.62822
297.62601
297.63304
297.64549
297.66489
297.69056
297.72216
297.76001
297.80531
297.85886
297.91776
297.97339
310.3184
308.87058
305.08608
302.10389
300.78734
300.49396
300.42619
300.4247
300.31094
300.25642
300.15918
300.07971
299.99142
299.90419
299.8174
299.73011
299.64216
299.55351
299.46415
299.37413
299.28354
299.19249
299.1011
299.00951
298.91785
298.82627
298.73492
298.64393
298.55346
298.46364
298.37461
298.28651
298.19948
298.11366
298.02917
297.94614
297.86472
297.78504
297.70723
297.63141
297.55774
297.48633
297.41734
297.35088
297.28709
297.2261
297.16804
297.11303
297.0612
297.01264
296.96745
296.92573
296.88753
296.85291
296.82187
296.7944
296.77044
296.74986
296.73249
296.71808
296.70635
296.69696
296.68949
296.68349
296.67866
296.67488
296.67253
296.67233
296.67624
296.68536
296.70468
296.73148
296.78176
296.83651
296.95024
297.04444
297.27692
297.39371
297.71924
297.71148
309.45056
306.41837
302.10962
299.98435
299.39845
299.40048
299.50478
299.51628
299.51089
299.48401
299.45862
299.42252
299.38042
299.33281
299.2811
299.22556
299.16666
299.10465
299.03983
298.97253
298.90303
298.8316
298.75851
298.68399
298.6083
298.53165
298.45427
298.37638
298.29819
298.21989
298.14168
298.06376
297.98631
297.90952
297.83357
297.75863
297.68487
297.61248
297.54162
297.47245
297.40514
297.33986
297.27677
297.21601
297.15775
297.10213
297.04929
296.99937
296.9525
296.9088
296.86837
296.8313
296.79765
296.76746
296.74076
296.71752
296.69766
296.68105
296.6675
296.65677
296.64858
296.64259
296.63839
296.6356
296.63397
296.63349
296.63461
296.63817
296.6461
296.65964
296.68337
296.71518
296.76967
296.82994
296.94719
297.04728
297.28098
297.39678
297.72184
297.70265
307.95222
304.26723
301.06743
299.3315
298.99768
299.03835
299.07328
299.04657
299.01802
298.98518
298.95385
298.91858
298.88176
298.84212
298.80034
298.75612
298.70972
298.66107
298.61026
298.55738
298.50256
298.44589
298.38752
298.32758
298.26623
298.20362
298.13991
298.07528
298.00992
297.94399
297.87769
297.81119
297.74471
297.67841
297.6125
297.54718
297.48262
297.41903
297.35659
297.29549
297.23593
297.17809
297.12214
297.06827
297.01665
296.96745
296.92082
296.87692
296.83588
296.79784
296.76291
296.73117
296.70271
296.67756
296.65574
296.63722
296.62192
296.6097
296.60037
296.59368
296.58936
296.58708
296.58647
296.58718
296.58904
296.59211
296.59694
296.60446
296.61659
296.63463
296.66284
296.69958
296.75834
296.82377
296.94478
297.0501
297.285
297.39946
297.72357
297.69423
306.70834
302.7612
299.87893
298.5636
298.51349
298.52979
298.54791
298.51072
298.49225
298.4625
298.4383
298.40893
298.37956
298.34813
298.31557
298.2814
298.24578
298.20854
298.16968
298.1292
298.08712
298.04346
297.99826
297.95159
297.90351
297.85413
297.80354
297.75186
297.69922
297.64577
297.59166
297.53704
297.48209
297.42698
297.3719
297.31704
297.26258
297.20873
297.15568
297.10364
297.0528
297.00336
296.95551
296.90945
296.86537
296.82344
296.78385
296.74675
296.71229
296.68062
296.65185
296.62608
296.60339
296.58382
296.56738
296.55405
296.54373
296.5363
296.53154
296.52923
296.52908
296.5308
296.53404
296.53851
296.54409
296.55096
296.55972
296.57138
296.58784
296.61046
296.64322
296.68483
296.7479
296.81829
296.94312
297.0532
297.28912
297.40197
297.7244
297.68606
305.97183
301.51505
298.89704
297.92284
298.00503
297.97701
298.00426
297.96571
297.95914
297.93385
297.91845
297.89616
297.87549
297.85292
297.82977
297.80542
297.78002
297.75338
297.72549
297.69629
297.66577
297.6339
297.60069
297.56615
297.53031
297.49321
297.45491
297.4155
297.37505
297.33367
297.29148
297.2486
297.20518
297.16137
297.11733
297.07324
297.02927
296.98563
296.94249
296.90006
296.85853
296.81812
296.77901
296.74142
296.70553
296.67153
296.63961
296.60994
296.58268
296.55796
296.53592
296.51665
296.50024
296.48672
296.47611
296.46838
296.46344
296.46114
296.46129
296.46365
296.46796
296.47394
296.48128
296.48974
296.49929
296.51015
296.52303
296.53899
296.55991
296.58716
296.62452
296.67093
296.73832
296.81349
296.94208
297.05655
297.29324
297.40425
297.72447
297.67811
305.38515
300.29892
298.07941
297.30659
297.46252
297.40299
297.45111
297.41282
297.42162
297.40289
297.39871
297.38511
297.37434
297.36133
297.34797
297.33352
297.31813
297.30165
297.28407
297.26535
297.24547
297.2244
297.20213
297.17867
297.15402
297.12821
297.10127
297.07324
297.04418
297.01418
296.98331
296.95168
296.91941
296.88661
296.85344
296.82004
296.78657
296.75322
296.72016
296.68759
296.65568
296.62464
296.59467
296.56597
296.53872
296.51312
296.48936
296.4676
296.44801
296.43073
296.41588
296.40357
296.39386
296.38681
296.38243
296.38066
296.38144
296.3846
296.38994
296.39725
296.40628
296.41676
296.42843
296.4411
296.45481
296.46987
296.48703
296.50742
296.53289
296.56482
296.60677
296.65792
296.72962
296.80946
296.94164
297.06022
297.29735
297.40635
297.72389
297.67036
304.78482
299.22689
297.4138
296.74251
296.94902
296.86203
296.93071
296.89047
296.91222
296.89796
296.90307
296.8966
296.89394
296.88877
296.8835
296.87733
296.87038
296.86256
296.85384
296.84418
296.83355
296.82193
296.80929
296.79563
296.78093
296.76521
296.74848
296.73076
296.7121
296.69255
296.67217
296.65104
296.62926
296.60692
296.58415
296.56108
296.53786
296.51463
296.49156
296.46882
296.44659
296.42505
296.4044
296.38482
296.36649
296.3496
296.33433
296.32085
296.3093
296.29982
296.29254
296.28754
296.28491
296.28468
296.28685
296.29137
296.29815
296.30705
296.31786
296.33036
296.34433
296.35953
296.37573
296.39281
296.41085
296.43026
296.45184
296.47677
296.50685
296.54348
296.59001
296.6458
296.72179
296.80624
296.9418
297.06421
297.30143
297.40831
297.72276
297.6628
304.28773
298.25608
296.85131
296.22607