/*--------------------------------*- C++ -*----------------------------------*\
  =========                 |
  \\      /  F ield         | OpenFOAM: The Open Source CFD Toolbox
   \\    /   O peration     | Website:  https://openfoam.org
    \\  /    A nd           | Version:  12
     \\/     M anipulation  |
\*---------------------------------------------------------------------------*/
FoamFile
{
    format      ascii;
    class       volScalarField;
    location    "0.109";
    object      p;
}
// * * * * * * * * * * * * * * * * * * * * * * * * * * * * * * * * * * * * * //

dimensions      [1 -1 -2 0 0 0 0];

internalField   nonuniform List<scalar> 
16000
(
89507.589
89633.882
89645.771
89780.486
89806.65
89934.311
89984.803
90101.735
90175.668
90286.899
90379.127
90490.264
90596.571
90712.028
90829.381
90952.187
91079.062
91210.608
91346.704
91487.437
91632.817
91782.85
91937.518
92096.778
92260.565
92428.784
92601.309
92777.984
92958.621
93142.997
93330.854
93521.9
93715.811
93912.226
94110.756
94310.98
94512.454
94714.708
94917.257
95119.6
95321.229
95521.635
95720.309
95916.753
96110.485
96301.041
96487.986
96670.912
96849.447
97023.256
97192.042
97355.549
97513.561
97665.905
97812.449
97953.097
98087.795
98216.521
98339.288
98456.14
98567.153
98672.421
98772.068
98866.238
98955.094
99038.818
99117.606
99191.668
99261.224
99326.508
99387.767
99445.288
99499.424
99550.47
99598.429
99643.991
99695.594
99698.822
99840.059
99699.853
89133.986
89277.211
89286.593
89433.401
89461.14
89599.744
89652.629
89780.875
89858.622
89979.992
90078.601
90198.679
90313.29
90437.597
90564.195
90696.467
90833.218
90974.934
91121.534
91273.074
91429.551
91590.945
91757.207
91928.264
92104.008
92284.302
92468.974
92657.817
92850.588
93047.005
93246.752
93449.474
93654.781
93862.25
94071.426
94281.828
94492.949
94704.267
94915.245
95125.34
95334.008
95540.713
95744.932
95946.16
96143.917
96337.758
96527.268
96712.076
96891.851
97066.304
97235.195
97398.324
97555.537
97706.723
97851.81
97990.763
98123.584
98250.305
98370.987
98485.719
98594.611
98697.793
98795.412
98887.633
98974.634
99056.606
99133.752
99206.285
99274.429
99338.415
99398.489
99454.941
99508.083
99558.082
99605.312
99651.984
99693.962
99723.135
99822.653
99719.543
88791.636
88950.383
88959.515
89119.73
89147.54
89299.91
89354.478
89495.054
89577.67
89709.549
89815.932
89945.592
90069.778
90203.954
90340.999
90483.946
90631.808
90784.946
90943.294
91106.867
91275.634
91449.536
91628.489
91812.372
92001.035
92194.287
92391.902
92593.614
92799.115
93008.057
93220.054
93434.676
93651.462
93869.914
94089.505
94309.685
94529.885
94749.524
94968.017
95184.782
95399.246
95610.856
95819.084
96023.433
96223.445
96418.704
96608.84
96793.532
96972.509
97145.55
97312.483
97473.184
97627.572
97775.612
97917.301
98052.676
98181.802
98304.769
98421.692
98532.706
98637.961
98737.622
98831.86
98920.86
99004.816
99083.927
99158.4
99228.451
99294.301
99356.181
99414.335
99469.042
99520.557
99569.057
99615.299
99660.394
99699.236
99738.528
99813.19
99735.469
88484.679
88654.215
88664.409
88839.96
88867.227
89035.83
89092.607
89247.485
89335.906
89479.836
89595.479
89736.088
89871.482
90017.001
90166.026
90321.135
90481.546
90647.498
90818.93
90995.818
91178.099
91365.679
91558.432
91756.191
91958.75
92165.861
92377.231
92592.519
92811.341
93033.267
93257.824
93484.497
93712.735
93941.957
94171.556
94400.907
94629.374
94856.322
95081.119
95303.154
95521.838
95736.616
95946.973
96152.44
96352.6
96547.091
96735.608
96917.903
97093.786
97263.121
97425.825
97581.863
97731.242
97874.011
98010.252
98140.074
98263.611
98381.019
98492.465
98598.132
98698.211
98792.898
98882.39
98966.89
99046.602
99121.734
99192.494
99259.095
99321.756
99380.699
99436.164
99488.406
99537.641
99584.12
99628.643
99671.304
99708.742
99750.961
99809.523
99749.727
88216.235
88400.713
88407.657
88601.978
88628.179
88815.255
88874.245
89045.312
89140.864
89298.295
89425.02
89577.81
89725.966
89884.104
90046.377
90214.865
90388.999
90568.926
90754.59
90945.936
91142.866
91345.245
91552.889
91765.571
91983.011
92204.881
92430.797
92660.326
92892.982
93128.231
93365.495
93604.157
93843.565
94083.043
94321.898
94559.428
94794.937
95027.74
95257.177
95482.621
95703.487
95919.243
96129.413
96333.582
96531.403
96722.595
96906.942
97084.295
97254.567
97417.727
97573.795
97722.841
97864.97
98000.324
98129.069
98251.395
98367.507
98477.62
98581.957
98680.742
98774.205
98862.569
98946.054
99024.875
99099.246
99169.376
99235.472
99297.742
99356.395
99411.644
99463.716
99512.835
99559.2
99603.121
99645.244
99685.121
99721.181
99763.349
99810
99764.007
87991.322
88193.462
88198.263
88413.682
88438.779
88646.331
88707.636
88896.598
89000.519
89172.25
89311.337
89476.856
89638.717
89810.322
89986.8
90169.746
90358.768
90553.933
90755.156
90962.332
91175.299
91393.847
91617.711
91846.566
92080.033
92317.67
92558.977
92803.398
93050.322
93299.09
93549.001
93799.318
94049.281
94298.115
94545.04
94789.289
95030.115
95266.805
95498.691
95725.161
95945.664
96159.724
96366.936
96566.976
96759.597
96944.63
97121.981
97291.621
97453.587
97607.972
97754.914
97894.594
98027.223
98153.038
98272.292
98385.252
98492.188
98593.373
98689.076
98779.561
98865.085
98945.896
99022.226
99094.301
99162.337
99226.541
99287.115
99344.254
99398.156
99449.021
99497.05
99542.44
99585.385
99626.208
99665.325
99702.106
99736.377
99776.952
99813.955
99778.922
87810.587
88033.636
88035.648
88275.747
88299.846
88531.623
88596.154
88804.581
88916.892
89102.262
89254.621
89433.471
89610.365
89796.939
89989.306
90188.557
90394.384
90606.746
90825.491
91050.424
91281.289
91517.77
91759.484
92005.983
92256.75
92511.204
92768.699
93028.528
93289.934
93552.112
93814.224
94075.409
94334.793
94591.509
94844.709
95093.577
95337.342
95575.295
95806.799
96031.294
96248.308
96457.461
96658.463
96851.12
97035.322
97211.047
97378.344
97537.334
97688.195
97831.152
97966.473
98094.452
98215.405
98329.661
98437.555
98539.421
98635.589
98726.377
98812.092
98893.027
98969.459
99041.648
99109.834
99174.246
99235.094
99292.579
99346.892
99398.213
99446.725
99492.605
99536.026
99577.16
99616.199
99653.425
99689.026
99722.422
99754.412
99792.051
99821.112
99795.657
87668.069
87915.678
87913.387
88183.215
88204.184
88462.778
88530.464
88757.994
88881.941
89083.36
89252.648
89447.654
89642.606
89847.074
90058.135
90276.453
90501.755
90733.895
90972.632
91217.659
91468.599
91724.997
91986.324
92251.97
92521.252
92793.415
93067.637
93343.037
93618.688
93893.63
94166.882
94437.459
94704.391
94966.739
95223.614
95474.188
95717.713
95953.532
96181.087
96399.928
96609.712
96810.207
97001.289
97182.932
97355.205
97518.258
97672.313
97817.652
97954.604
98083.536
98204.839
98318.917
98426.184
98527.051
98621.919
98711.179
98795.204
98874.347
98948.937
99019.284
99085.674
99148.37
99207.61
99263.615
99316.587
99366.712
99414.165
99459.11
99501.707
99542.108
99580.453
99616.893
99651.613
99684.805
99716.474
99746.29
99775.601
99809.031
99831.385
99815.196
87561.67
87837.696
87831.003
88137.656
88152.75
88440.091
88513.093
88762.575
88903.353
89123.364
89313.277
89527.393
89743.499
89968.996
90201.786
90442.183
90689.884
90944.616
91206.007
91473.603
91746.861
92025.149
92307.743
92593.835
92882.533
93172.873
93463.826
93754.316
94043.236
94329.465
94611.89
94889.426
95161.036
95425.752
95682.693
95931.081
96170.251
96399.666
96618.918
96827.729
97025.95
97213.557
97390.633
97557.368
97714.035
97860.981
97998.614
98127.381
98247.763
98360.258
98465.37
98563.6
98655.441
98741.367
98821.829
98897.255
98968.044
99034.565
99097.158
99156.132
99211.771
99264.328
99314.032
99361.086
99405.678
99447.974
99488.127
99526.281
99562.572
99597.118
99630.03
99661.442
99691.512
99720.308
99747.739
99773.871
99800.155
99828.415
99845.072
99837.951
87493.932
87803.152
87793.296
88137.087
88151.351
88470.976
88555.397
88830.199
88990.993
89231.628
89445.837
89682.296
89922.856
90172.816
90430.668
90696.422
90969.667
91249.964
91536.758
91829.396
92127.115
92429.05
92734.231
93041.597
93350.005
93658.246
93965.063
94269.174
94569.295
94864.164
95152.568
95433.368
95705.52
95968.095
96220.302
96461.494
96691.182
96909.031
97114.867
97308.659
97490.517
97660.673
97819.467
97967.324
98104.743
98232.274
98350.504
98460.039
98561.493
98655.475
98742.58
98823.382
98898.426
98968.226
99033.259
99093.969
99150.76
99203.999
99254.019
99301.116
99345.558
99387.58
99427.387
99465.163
99501.069
99535.249
99567.832
99598.938
99628.671
99657.118
99684.361
99710.522
99735.703
99759.832
99782.838
99805.229
99828.031
99850.425
99862.642
99864.386
87471.758
87820.421
87806.581
88190.965
88209.133
88565.235
88664.781
88966.87
89153.406
89417.553
89660.32
89923.096
90191.883
90470.151
90756.751
91051.407
91353.535
91662.468
91977.403
92297.412
92621.441
92948.316
93276.761
93605.409
93932.826
94257.536
94578.051
94892.894
95200.637
95499.93
95789.527
96068.32
96335.355
96589.854
96831.226
97059.071
97273.182
97473.528
97660.25
97833.639
97994.114
98142.202
98278.514
98403.724
98518.546
98623.719
98719.984
98808.079
98888.72
98962.595
99030.357
99092.618
99149.947
99202.87
99251.865
99297.365
99339.761
99379.401
99416.591
99451.605
99484.681
99516.025
99545.814
99574.203
99601.324
99627.292
99652.21
99676.17
99699.244
99721.484
99742.954
99763.757
99783.907
99803.208
99821.737
99840.374
99859.207
99875.293
99884.377
99894.673
87503.954
87899.547
87881.799
88314.297
88337.426
88733.273
88852.377
89183.585
89401.629
89692.628
89968.347
90261.96
90563.213
90874.074
91193.51
91520.928
91855.467
92196.135
92541.778
92891.094
93242.648
93594.884
93946.156
94294.755
94638.94
94976.974
95307.165
95627.899
95937.684
96235.183
96519.243
96788.927
97043.519
97282.543
97505.754
97713.13
97904.856
98081.301
98242.99
98390.576
98524.814
98646.529
98756.594
98855.904
98945.358
99025.842
99098.213
99163.292
99221.854
99274.626
99322.279
99365.427
99404.633
99440.401
99473.187
99503.392
99531.374
99557.443
99581.87
99604.89
99626.704
99647.482
99667.366
99686.476
99704.912
99722.76
99740.092
99756.969
99773.43
99789.498
99805.225
99820.68
99835.761
99850.204
99864.346
99879.25
99893.674
99903.311
99910.467
99928.808
87591.478
88042.876
88021.787
88509.09
88540.692
88980.124
89126.428
89489.384
89746.095
90068.757
90382.603
90712.539
91051.334
91399.754
91756.638
92120.973
92491.481
92866.709
93245.032
93624.668
94003.716
94380.18
94752.012
95117.152
95473.577
95819.348
96152.659
96471.889
96775.64
97062.772
97332.425
97584.03
97817.309
98032.259
98229.133
98408.405
98570.742
98716.964
98848.005
98964.883
99068.665
99160.439
99241.29
99312.279
99374.432
99428.722
99476.064
99517.311
99553.246
99584.587
99611.983
99636.018
99657.213
99676.029
99692.872
99708.096
99722.007
99734.867
99746.9
99758.294
99769.208
99779.768
99790.078
99800.22
99810.262
99820.255
99830.243
99840.254
99850.292
99860.36
99870.502
99880.73
99890.819
99900.521
99910.504
99921.736
99931.435
99934.87
99941.157
99966.745
87739.54
88257.186
88233.397
88782.96
88829.382
89316.362
89499.169
89897.26
90200.46
90561.152
90919.234
91292.011
91674.318
92065.857
92465.06
92870.327
93279.794
93691.414
94102.972
94512.125
94916.444
95313.468
95700.756
96075.956
96436.867
96781.507
97108.167
97415.461
97702.352
97968.17
98212.608
98435.706
98637.815
98819.564
98981.808
99125.584
99252.062
99362.502
99458.212
99540.517
99610.725
99670.108
99719.885
99761.206
99795.144
99822.692
99844.76
99862.174
99875.677
99885.935
99893.539
99899.01
99902.803
99905.314
99906.883
99907.801
99908.313
99908.624
99908.902
99909.285
99909.884
99910.781
99912.04
99913.705
99915.807
99918.369
99921.402
99924.899
99928.836
99933.207
99938.04
99943.264
99948.551
99953.785
99959.957
99967.6
99972.408
99970.339
99976.906
100008.57
87954.745
88551.623
88527.042
89147.325
89215.824
89754.433
89985.049
90423.519
90782.259
91189.52
91599.373
92022.543
92454.917
92895.143
93340.989
93790.11
94239.91
94687.625
95130.354
95565.127
95988.972
96399.006
96792.519
97167.064
97520.539
97851.25
98157.949
98439.858
98696.657
98928.462
99135.779
99319.451
99480.593
99620.53
99740.738
99842.783
99928.278
99998.835
100056.03
100101.39
100136.36
100162.28
100180.41
100191.9
100197.8
100199.04
100196.47
100190.84
100182.8
100172.95
100161.78
100149.72
100137.15
100124.39
100111.69
100099.28
100087.34
100076
100065.38
100055.57
100046.62
100038.58
100031.47
100025.29
100020.05
100015.73
100012.32
100009.77
100008.05
100007.13
100007.03
100007.56
100008.36
100009.54
100012.33
100016.46
100016.36
100009.78
100017.86
100054.28
88243.38
88934.916
88912.41
89613.05
89715.019
90311.187
90604.346
91091.795
91516.654
91980.822
92450.786
92931.93
93420.346
93913.598
94408.585
94902.04
95390.471
95870.254
96337.731
96789.319
97221.638
97631.638
98016.709
98374.772
98704.329
99004.489
99274.951
99515.968
99728.278
99913.028
100071.69
100205.97
100317.75
100408.99
100481.67
100537.77
100579.18
100607.72
100625.09
100632.89
100632.55
100625.39
100612.61
100595.28
100574.32
100550.58
100524.79
100497.58
100469.5
100441.02
100412.53
100384.37
100356.82
100330.11
100304.41
100279.88
100256.63
100234.73
100214.23
100195.19
100177.6
100161.47
100146.78
100133.5
100121.61
100111.06
100101.81
100093.78
100086.92
100081.21
100076.62
100072.86
100069.58
100067.23
100067.09
100067.8
100063.03
100053.35
100064.03
100103.01
88613.031
89417.657
89402.858
90199.029
90351.525
91015.332
91388.189
91935.486
92437.108
92968.592
93506.394
94051.783
94600.348
95148.37
95691.559
96225.45
96745.461
97247.072
97726.005
98178.406
98601.004
98991.231
99347.296
99668.205
99953.734
100204.36
100421.18
100605.76
100760.08
100886.35
100986.98
101064.42
101121.13
101159.52
101181.87
101190.35
101186.96
101173.53
101151.74
101123.09
101088.92
101050.41
101008.61
100964.44
100918.68
100872.02
100825.05
100778.25
100732.05
100686.8
100642.77
100600.21
100559.28
100520.14
100482.88
100447.58
100414.29
100383.02
100353.77
100326.54
100301.3
100278
100256.6
100237.04
100219.25
100203.19
100188.75
100175.86
100164.47
100154.53
100145.95
100138.35
100131.51
100126.22
100123.54
100120.9
100111.91
100100.88
100115.03
100153.72
89083.621
90027.68
90031.959
90943.341
91163.974
91905.695
92375.623
92993.99
93581.96
94190.371
94802.462
95416.063
96025.401
96624.974
97208.913
97771.41
98306.953
98810.598
99278.198
99706.567
100093.57
100438.16
100740.26
101000.74
101221.2
101403.85
101551.32
101666.55
101752.59
101812.54
101849.47
101866.28
101865.73
101850.39
101822.6
101784.47
101737.92
101684.62
101626.09
101563.61
101498.35
101431.27
101363.24
101294.96
101227.06
101160.04
101094.33
101030.28
100968.17
100908.23
100850.62
100795.49
100742.92
100692.97
100645.66
100601.01
100559
100519.6
100482.77
100448.44
100416.56
100387.05
100359.83
100334.82
100311.94
100291.09
100272.17
100255.08
100239.77
100226.19
100214.14
100203.22
100193.42
100185.78
100180.9
100174.98
100162.35
100151.53
100169.82
100205.44
89687.542
90808.66
90842.261
91887.476
92195.086
93022.727
93608.572
94311.624
94995.523
95689.363
96379.293
97059.608
97722.341
98359.936
98965.14
99531.509
100053.72
100527.8
100951.24
101322.97
101643.29
101913.62
102136.37
102314.63
102451.97
102552.24
102619.39
102657.33
102669.84
102660.49
102632.55
102589.06
102532.73
102465.98
102390.97
102309.58
102223.46
102134.02
102042.49
101949.92
101857.19
101765.05
101674.12
101584.92
101497.87
101413.31
101331.51
101252.68
101176.97
101104.5
101035.33
100969.5
100907.02
100847.88
100792.05
100739.45
100690.05
100643.74
100600.47
100560.12
100522.61
100487.82
100455.67
100426.04
100398.84
100373.94
100351.23
100330.61
100312.02
100295.37
100280.39
100266.71
100254.57
100245.14
100238.32
100229.39
100213.9
100204.32
100226.71
100258.41
90453.795
91788.225
91865.859
93064.599
93493.012
94418.583
95141.956
95946.316
96733.598
97515.042
98276.244
99007.923
99700.17
100344.47
100933.89
101463.46
101930.26
102333.37
102673.67
102953.55
103176.56
103347.07
103469.94
103550.27
103593.15
103603.53
103586.08
103545.1
103484.54
103407.91
103318.34
103218.59
103111.05
102997.79
102880.59
102760.97
102640.21
102519.41
102399.46
102281.12
102165.01
102051.63
101941.38
101834.58
101731.48
101632.24
101537.01
101445.85
101358.82
101275.92
101197.13
101122.41
101051.71
100984.93
100921.99
100862.8
100807.24
100755.2
100706.57
100661.21
100619.02
100579.86
100543.61
100510.15
100479.37
100451.12
100425.28
100401.76
100380.5
100361.34
100343.96
100328.1
100314.25
100303.48
100294.92
100283.44
100266.32
100258.69
100284.33
100312.38
91412.501
93013.479
93171.815
94541.358
95136.369
96175.902
97053.861
97969.95
98854.927
99706.831
100509.71
101252.55
101926.09
102524.07
103043.18
103482.9
103845.15
104133.81
104354.14
104512.34
104615.07
104669.08
104680.98
104657
104602.89
104523.86
104424.56
104309.08
104180.97
104043.32
103898.75
103749.5
103597.46
103444.22
103291.1
103139.2
102989.41
102842.46
102698.95
102559.35
102424.01
102293.22
102167.17
102046.01
101929.82
101818.64
101712.48
101611.31
101515.07
101423.7
101337.09
101255.14
101177.73
101104.74
101036.03
100971.46
100910.89
100854.17
100801.17
100751.73
100705.72
100662.99
100623.42
100586.85
100553.16
100522.21
100493.86
100468.04
100444.65
100423.49
100404.22
100386.75
100371.75
100360
100349.88
100336.4
100319.03
100314.08
100341.75
100365.61
92647.143
94584.909
94868.885
96429.868
97239.013
98401.167
99428.758
100441.22
101386.91
102257.16
103038.18
103722.22
104305.61
104788.7
105175.17
105471.19
105684.66
105824.38
105899.52
105919.08
105891.59
105824.91
105726.1
105601.41
105456.29
105295.42
105122.8
104941.81
104755.28
104565.58
104374.67
104184.16
103995.36
103809.36
103626.99
103448.95
103275.76
103107.84
102945.49
102788.92
102638.27
102493.64
102355.05
102222.49
102095.92
101975.27
101860.44
101751.32
101647.77
101549.65
101456.82
101369.11
101286.36
101208.41
101135.08
101066.2
101001.62
100941.15
100884.65
100831.95
100782.89
100737.32
100695.08
100656.05
100620.05
100586.97
100556.66
100529.05
100504.01
100481.31
100460.63
100442.07
100426.36
100413.88
100402.44
100387.62
100370.96
100369.1
100397.21
100415.85
94289.832
96643.655
97108.36
98859.024
99917.49
101187.53
102312.3
103354.55
104276.49
105071.84
105736.33
106272.08
106685.66
106986.93
107187.7
107300.65
107338.44
107313.1
107235.69
107116.08
106962.9
106783.59
106584.44
106370.74
106146.9
105916.56
105682.69
105447.72
105213.63
104981.98
104754.04
104530.8
104313.03
104101.32
103896.11
103697.73
103506.38
103322.21
103145.28
102975.59
102813.13
102657.8
102509.52
102368.15
102233.55
102105.56
101984
101868.69
101759.45
101656.07
101558.37
101466.15
101379.21
101297.35
101220.38
101148.11
101080.36
101016.94
100957.67
100902.39
100850.92
100803.11
100758.79
100717.82
100680.04
100645.3
100613.5
100584.54
100558.25
100534.38
100512.72
100493.49
100477.36
100464.29
100451.78
100436.36
100421.18
100421.68
100448.03
100461.25
96531.405
99351.182
100059.02
101950.29
103220.36
104537.74
105642.95
106587.3
107357.69
107959.86
108404.81
108708.32
108888.31
108963.2
108950.66
108866.91
108726.26
108541.1
108321.89
108077.35
107814.66
107539.67
107257.12
106970.8
106683.73
106398.33
106116.47
105839.62
105568.91
105305.18
105049.08
104801.06
104561.42
104330.38
104108.02
103894.39
103689.44
103493.09
103305.24
103125.72
102954.38
102791.02
102635.43
102487.41
102346.72
102213.15
102086.47
101966.44
101852.83
101745.41
101643.95
101548.24
101458.04
101373.15
101293.34
101218.42
101148.19
101082.45
101021.03
100963.72
100910.37
100860.81
100814.87
100772.4
100733.24
100697.25
100664.33
100634.35
100607.13
100582.43
100560.11
100540.49
100524.09
100510.46
100497.11
100481.62
100468.19
100470.31
100493.67
100502.38
99625.38
102822.31
103837.57
105795.54
107106.95
108277.28
109196.41
109889.03
110372.84
110674.52
110822.02
110842.85
110762.13
110601.86
110380.68
110114
109814.38
109491.88
109154.48
108808.45
108458.71
108109.04
107762.38
107420.95
107086.43
106760.06
106442.76
106135.16
105837.69
105550.62
105274.09
105008.12
104752.68
104507.66
104272.9
104048.23
103833.42
103628.24
103432.44
103245.75
103067.91
102898.64
102737.66
102584.71
102439.5
102301.76
102171.22
102047.62
101930.69
101820.19
101715.85
101617.45
101524.74
101437.49
101355.47
101278.48
101206.31
101138.76
101075.63
101016.74
100961.91
100910.98
100863.77
100820.14
100779.91
100742.97
100709.2
100678.45
100650.54
100625.23
100602.5
100582.66
100566.01
100551.83
100537.83
100522.65
100510.96
100514.06
100533.95
100537.72
103829.14
107240.6
108459.22
110154.1
111282.79
112115.94
112652.46
112947.09
113044.47
112987.73
112813.35
112551.61
112226.77
111857.89
111459.74
111043.61
110618.05
110189.49
109762.73
109341.3
108927.8
108524.08
108131.46
107750.82
107382.73
107027.53
106685.37
106356.25
106040.08
105736.7
105445.87
105167.34
104900.81
104645.95
104402.45
104169.95
103948.11
103736.6
103535.07
103343.17
103160.58
102986.95
102821.98
102665.33
102516.7
102375.79
102242.29
102115.93
101996.42
101883.5
101776.89
101676.35
101581.62
101492.47
101408.66
101329.99
101256.23
101187.18
101122.65
101062.46
101006.41
100954.35
100906.1
100861.51
100820.42
100782.7
100748.23
100716.85
100688.38
100662.63
100639.62
100619.6
100602.65
100587.9
100573.57
100559.21
100549.2
100551.54
100565.71
100567.15
109072.3
112446.7
113568.99
114699.53
115313.87
115600.2
115623.06
115455.92
115152.89
114756.42
114298.07
113801.08
113282.33
112753.95
112224.59
111700.34
111185.47
110682.87
110194.49
109721.56
109264.83
108824.64
108401.11
107994.15
107603.54
107228.97
106870.05
106526.38
106197.51
105882.98
105582.32
105295.07
105020.77
104758.96
104509.18
104271.02
104044.04
103827.82
103621.97
103426.1
103239.83
103062.79
102894.63
102735.01
102583.59
102440.05
102304.09
102175.39
102053.67
101938.65
101830.06
101727.63
101631.12
101540.27
101454.86
101374.66
101299.46
101229.06
101163.26
101101.87
101044.71
100991.61
100942.4
100896.93
100855.04
100816.6
100781.48
100749.52
100720.55
100694.41
100671.14
100650.88
100633.5
100618.23
100603.83
100590.4
100581.4
100581.99
100590.63
100590.14
115305.61
117823.05
118436.55
118720.03
118627.74
118300.67
117818.26
117241.14
116609.93
115952.16
115286.1
114623.79
113973.01
113338.71
112723.91
112130.36
111558.91
111009.85
110483.06
109978.2
109494.73
109032.04
108589.43
108166.2
107761.63
107374.99
107005.6
106652.76
106315.82
105994.14
105687.11
105394.14
105114.67
104848.17
104594.12
104352.03
104121.42
103901.84
103692.85
103494.05
103305.03
103125.39
102954.78
102792.83
102639.21
102493.57
102355.6
102224.99
102101.45
101984.68
101874.42
101770.4
101672.36
101580.06
101493.27
101411.75
101335.3
101263.72
101196.8
101134.36
101076.21
101022.19
100972.14
100925.88
100883.28
100844.19
100808.49
100776
100746.58
100720.1
100696.56
100675.96
100658.11
100642.39
100628.11
100615.54
100606.89
100605
100608.56
100607.52
121943.64
122386.71
122170.49
121623.14
120893.41
120071.25
119212.78
118349.76
117500.74
116675.93
115880.79
115117.85
114387.94
113690.87
113025.87
112391.82
111787.46
111211.44
110662.43
110139.11
109640.21
109164.51
108710.89
108278.25
107865.59
107471.97
107096.48
106738.29
106396.63
106070.74
105759.94
105463.57
105181.02
104911.69
104655.03
104410.53
104177.67
103955.99
103745.03
103544.35
103353.55
103172.23
103000
102836.5
102681.39
102534.32
102394.97
102263.03
102138.21
102020.2
101908.75
101803.57
101704.42
101611.04
101523.2
101440.69
101363.28
101290.77
101222.97
101159.69
101100.74
101045.97
100995.2
100948.27
100905.05
100865.39
100829.15
100796.16
100766.29
100739.44
100715.54
100694.52
100676.15
100660.03
100645.78
100633.68
100624.93
100620.77
100620.42
100619.41
125821.2
125196.78
124282.72
123231.93
122148.88
121077.58
120040.73
119047.62
118101.71
117203.27
116351
115542.88
114776.56
114049.6
113359.64
112704.4
112081.75
111489.72
110926.48
110390.35
109879.78
109393.36
108929.77
108487.8
108066.35
107664.38
107280.94
106915.14
106566.16
106233.23
105915.63
105612.69
105323.76
105048.26
104785.61
104535.3
104296.8
104069.64
103853.36
103647.53
103451.72
103265.55
103088.62
102920.57
102761.06
102609.73
102466.28
102330.37
102201.72
102080.04
101965.04
101856.46
101754.05
101657.54
101566.72
101481.35
101401.21
101326.12
101255.86
101190.25
101129.11
101072.27
101019.57
100970.84
100925.95
100884.74
100847.06
100812.76
100781.7
100753.77
100728.9
100706.97
100687.75
100670.93
100656.29
100644.07
100634.86
100629.12
100626.54
100625.81
103861.11
103834.2
103882.86
103931.5
103967.56
103977.58
103960.25
103930.73
103895.17
103850.29
103791.72
103719.98
103638.87
103553.26
103463.93
103370.98
103274.72
103175.63
103074.14
102970.63
102865.49
102759.05
102651.64
102543.54
102435.05
102326.4
102217.85
102109.6
102001.86
101894.83
101788.68
101683.58
101579.71
101477.22
101376.26
101276.98
101179.53
101084.05
100990.67
100899.55
100810.81
100724.6
100641.04
100560.28
100482.44
100407.66
100336.06
100267.76
100202.89
100141.55
100083.84
100029.85
99979.656
99933.328
99890.909
99852.427
99817.89
99787.286
99760.583
99737.723
99718.626
99703.188
99691.287
99682.764
99677.491
99675.185
99675.918
99678.818
99685.239
99691.501
99704.767
99710.024
99735.067
99729.135
99779.752
99741.519
99838.568
99748.081
99906.791
99749.001
103217.54
103211.3
103225.32
103241.65
103240.37
103232.9
103221.87
103204.13
103174.7
103139.51
103097.38
103050.1
102996.93
102939
102876.34
102809.65
102739.14
102665.17
102588.05
102508.09
102425.59
102340.86
102254.16
102165.78
102075.99
101985.06
101893.23
101800.77
101707.91
101614.89
101521.93
101429.27
101337.1
101245.64
101155.1
101065.66
100977.54
100890.91
100805.95
100722.86
100641.79
100562.94
100486.46
100412.52
100341.28
100272.9
100207.51
100145.27
100086.31
100030.75
99978.69
99930.239
99885.475
99844.466
99807.257
99773.874
99744.322
99718.582
99696.614
99678.353
99663.71
99652.57
99644.803
99640.243
99638.745
99640.04
99644.146
99650.3
99659.625
99668.903
99684.441
99692.722
99718.939
99716.47
99766.982
99732.955
99829.828
99740.663
99904.403
99740.099
102797.67
102781.96
102753.13
102722.84
102693.29
102665.7
102633.48
102601.98
102566.8
102531.12
102491.44
102450.41
102405.78
102359.06
102309.26
102256.94
102201.91
102144.31
102084.21
102021.7
101956.91
101889.97
101821.03
101750.24
101677.78
101603.81
101528.54
101452.15
101374.84
101296.82
101218.3
101139.5
101060.62
100981.88
100903.49
100825.69
100748.67
100672.65
100597.84
100524.45
100452.69
100382.75
100314.83
100249.12
100185.81
100125.08
100067.1
100012.03
99960.015
99911.196
99865.696
99823.622
99785.064
99750.092
99718.757
99691.083
99667.073
99646.706
99629.935
99616.69
99606.874
99600.367
99597.03
99596.692
99599.197
99604.285
99611.937
99621.471
99633.841
99646.167
99664.145
99675.348
99703.092
99703.692
99754.626
99724.22
99821.316
99733.408
99901.545
99731.808
102199.35
102176.56
102147.79
102116.06
102084.58
102056.62
102024.23
101994.8
101961.19
101929.58
101894.44
101860.07
101822.9
101785.37
101745.7
101704.73
101661.95
101617.52
101571.31
101523.31
101473.52
101421.96
101368.65
101313.65
101257.03
101198.87
101139.29
101078.41
101016.37
100953.32
100889.42
100824.86
100759.83
100694.51
100629.11
100563.84
100498.92
100434.56
100370.97
100308.39
100247.02
100187.09
100128.81
100072.4
100018.05
99965.966
99916.337
99869.34
99825.14
99783.889
99745.721
99710.754
99679.085
99650.789
99625.918
99604.501
99586.537
99572.002
99560.847
99552.997
99548.349
99546.777
99548.137
99552.254
99558.965
99568.018
99579.366
99592.392
99607.918
99623.341
99643.856
99657.922
99687.468
99690.895
99742.598
99715.333
99813.017
99726.327
99898.335
99724.088
101468.81
101452.78
101437.17
101418.68
101398.24
101382.1
101360.04
101342.38
101319.27
101299.48
101275.19
101252.74
101227.05
101201.85
101174.53
101146.39
101116.64
101085.56
101052.97
101018.84
100983.16
100945.89
100907.04
100866.63
100824.68
100781.24
100736.36
100690.14
100642.65
100594
100544.34
100493.78
100442.5
100390.65
100338.41
100285.97
100233.54
100181.31
100129.5
100078.34
100028.04
99978.816
99930.905
99884.522
99839.883
99797.196
99756.661
99718.468
99682.792
99649.794
99619.618
99592.387
99568.203
99547.146
99529.268
99514.598
99503.135
99494.852
99489.694
99487.584
99488.413
99492.053
99498.352
99507.136
99518.234
99531.407
99546.581
99563.202
99581.976
99600.546
99623.659
99640.57
99672.085
99678.237
99730.857
99706.405
99804.895
99719.443
99894.878
99716.888
100749.29
100743.09
100738.79
100733.55
100724.25
100720.18
100708.74
100703.23
100690.8
100683
100669.49
100658.82
100644.19
100630.71
100614.92
100598.62
100580.71
100561.67
100541.28
100519.56
100496.47
100471.99
100446.11
100418.82
100390.13
100360.06
100328.64
100295.9
100261.92
100226.76
100190.51
100153.28
100115.2
100076.39
100037.01
99997.229
99957.218
99917.167
99877.277
99837.754
99798.813
99760.671
99723.548
99687.664
99653.234
99620.469
99589.571
99560.734
99534.136
99509.941
99488.297
99469.327
99453.136
99439.8
99429.373
99421.881
99417.32
99415.658
99416.838
99420.774
99427.357
99436.451
99447.904
99461.54
99477.185
99494.607
99513.719
99534.021
99556.116
99577.88
99603.637
99623.402
99656.944
99665.771
99719.385
99697.579
99796.945
99712.784
99891.264
99710.164
100098.07
100098.19
100099.2
100102.35
100100.21
100104.79
100100.6
100104.09
100099.22
100100.57
100095.49
100094.74
100089.24
100085.08
100078.32
100071.61
100063.48
100054.55
100044.54
100033.45
100021.24
100007.88
99993.322
99977.562
99960.582
99942.382
99922.97
99902.368
99880.609
99857.744
99833.834
99808.96
99783.215
99756.71
99729.569
99701.933
99673.956
99645.805
99617.659
99589.708
99562.149
99535.186
99509.026
99483.877
99459.947
99437.439
99416.548
99397.462
99380.356
99365.389
99352.704
99342.422
99334.639
99329.431
99326.843
99326.896
99329.582
99334.861
99342.671
99352.919
99365.493
99380.253
99397.043
99415.688
99436.011
99457.793
99480.931
99504.98
99530.451
99555.444
99583.883
99606.524
99642.08
99653.551
99708.193
99688.975
99789.175
99706.385
99887.56
99703.885
99513.041
99518.162
99522.21
99530.428
99531.886
99542.124
99542.047