/*--------------------------------*- C++ -*----------------------------------*\
  =========                 |
  \\      /  F ield         | OpenFOAM: The Open Source CFD Toolbox
   \\    /   O peration     | Website:  https://openfoam.org
    \\  /    A nd           | Version:  12
     \\/     M anipulation  |
\*---------------------------------------------------------------------------*/
FoamFile
{
    format      ascii;
    class       surfaceScalarField;
    location    "0.109";
    object      phi;
}
// * * * * * * * * * * * * * * * * * * * * * * * * * * * * * * * * * * * * * //

dimensions      [1 0 -1 0 0 0 0];

internalField   nonuniform List<scalar> 
31760
(
-0.00064175423
-0.050931471
0.051572795
-0.001608797
-0.064379392
0.065346067
-0.0025915867
-0.0630166
0.063998883
-0.0036161607
-0.06868975
0.069714096
-0.0046949417
-0.07036725
0.071445828
-0.0058019224
-0.074635772
0.075742526
-0.0069793702
-0.077568592
0.07874589
-0.0081954051
-0.081579101
0.082794996
-0.0094720984
-0.085207136
0.086483708
-0.010807476
-0.089329607
0.090664876
-0.012198606
-0.093469151
0.094860185
-0.013657162
-0.097886307
0.099344774
-0.015177839
-0.10246809
0.10398869
-0.016768901
-0.10727659
0.10886757
-0.018429949
-0.11230058
0.11396157
-0.020165748
-0.11755675
0.11929249
-0.021978973
-0.12305316
0.12486634
-0.023872841
-0.12880126
0.13069508
-0.025850598
-0.13481206
0.13678979
-0.027915653
-0.14109686
0.1431619
-0.030071445
-0.14766807
0.14982386
-0.032321742
-0.15453766
0.15678799
-0.03467014
-0.16171927
0.16406771
-0.037120551
-0.16922659
0.17167708
-0.039675947
-0.17707418
0.17962968
-0.042340913
-0.18527617
0.18794128
-0.045119344
-0.19384882
0.19662743
-0.048014664
-0.20280876
0.20570429
-0.051030371
-0.21217292
0.21518888
-0.054170508
-0.22195939
0.22509984
-0.057438384
-0.23218713
0.23545537
-0.060837327
-0.24287599
0.24627536
-0.06437015
-0.25404746
0.25758078
-0.068039897
-0.2657227
0.26939301
-0.071848554
-0.27792581
0.28173512
-0.075797779
-0.2906811
0.29463108
-0.079888894
-0.30401433
0.3081063
-0.084122364
-0.31795322
0.32218767
-0.088497992
-0.33252581
0.33690256
-0.093014447
-0.34776358
0.35228131
-0.097669713
-0.36369833
0.36835506
-0.10246035
-0.38036388
0.38515618
-0.10738172
-0.39779632
0.40271958
-0.11242802
-0.41603355
0.42108198
-0.11759148
-0.43511595
0.44028184
-0.12286297
-0.4550852
0.46035943
-0.1282309
-0.47598621
0.48135725
-0.13368237
-0.49786534
0.50332032
-0.13920187
-0.52077264
0.5262961
-0.14477112
-0.54475978
0.55033351
-0.15036911
-0.56988104
0.57548409
-0.15597239
-0.59619422
0.60180321
-0.16155364
-0.62375932
0.62934701
-0.16708197
-0.65263947
0.65817506
-0.17252297
-0.68290058
0.68834978
-0.17783681
-0.71461247
0.71993555
-0.1829795
-0.74784725
0.75300037
-0.18790175
-0.78268048
0.78761447
-0.19254727
-0.81919148
0.82385022
-0.19685402
-0.85746257
0.86178416
-0.20075202
-0.89757953
0.90149413
-0.20416353
-0.93963156
0.94306154
-0.20700126
-0.98371225
0.98657043
-0.20916793
-1.0299192
1.0321083
-0.21055484
-1.078353
1.0797642
-0.21104115
-1.1291195
1.1296319
-0.21049069
-1.1823281
1.1818051
-0.20875783
-1.238091
1.2363867
-0.20567512
-1.2965303
1.2934764
-0.20105436
-1.3577693
1.3531772
-0.19469168
-1.4219344
1.4155992
-0.18636596
-1.4891539
1.4808537
-0.17582418
-1.5595684
1.5490492
-0.16279912
-1.6333255
1.6203199
-0.14696188
-1.7106075
1.6947878
-0.12815123
-1.7915324
1.7727404
-0.10536193
-1.8762161
1.8534486
-0.079799601
-1.9653932
1.939872
-0.048279141
-2.0565382
2.0250321
-2.155931
2.1212167
-0.00063657267
-0.050294958
-0.0015080134
-0.063507911
-0.0024046969
-0.062121907
-0.0033673473
-0.067726958
-0.0043411133
-0.06939343
-0.0053922866
-0.073584559
-0.0064588852
-0.076501956
-0.0076056329
-0.080432318
-0.0087784766
-0.084034277
-0.010025868
-0.088082207
-0.011316499
-0.092178521
-0.012674782
-0.096528029
-0.014090772
-0.10105211
-0.015573541
-0.10579383
-0.017123292
-0.11075084
-0.018744189
-0.11593586
-0.020438429
-0.12135892
-0.0222098
-0.12702987
-0.02406153
-0.1329603
-0.025997215
-0.13916113
-0.028020525
-0.14564469
-0.03013473
-0.15242338
-0.032343946
-0.15950994
-0.034651877
-0.16691852
-0.037063334
-0.17466256
-0.039581144
-0.18275816
-0.042210017
-0.19121971
-0.044953706
-0.20006478
-0.047816509
-0.20930977
-0.050802019
-0.21897349
-0.053914333
-0.22907436
-0.057156806
-0.23963299
-0.060532763
-0.25067091
-0.064045215
-0.26220956
-0.067696609
-0.27427364
-0.071489296
-0.28688753
-0.075424469
-0.30007814
-0.079503661
-0.31387288
-0.083726246
-0.32830192
-0.088091847
-0.3433965
-0.092598895
-0.35918961
-0.09724432
-0.37571656
-0.10202379
-0.39301471
-0.10693227
-0.41112266
-0.11196272
-0.4300828
-0.1171066
-0.44993827
-0.12235374
-0.47073565
-0.12769153
-0.4925237
-0.13310573
-0.51535409
-0.13857984
-0.5392808
-0.14409453
-0.56436087
-0.14962782
-0.59065478
-0.15515456
-0.61822568
-0.16064651
-0.64713977
-0.16607165
-0.67746673
-0.17139379
-0.70928056
-0.17657252
-0.74265755
-0.1815624
-0.7776783
-0.1863122
-0.8144279
-0.19076518
-0.85299418
-0.19485742
-0.89347011
-0.19851764
-0.93595227
-0.20166581
-0.98054305
-0.20421381
-1.0273482
-0.20606204
-1.0764798
-0.20710113
-1.1280537
-0.20720538
-1.1821957
-0.20623926
-1.239028
-0.2040514
-1.2986885
-0.20047193
-1.3613193
-0.19531509
-1.4270627
-0.18837288
-1.4960693
-0.17941858
-1.5684982
-0.16819788
-1.6445243
-0.15444954
-1.7243355
-0.13787228
-1.808089
-0.11800648
-1.8960549
-0.094991932
-1.9883678
-0.067226425
-2.0842831
-2.187029
-0.00057479687
-0.049720339
-0.0013877393
-0.062694966
-0.0022011933
-0.061307649
-0.0031068303
-0.06682138
-0.0040018893
-0.068498461
-0.0049834554
-0.072603088
-0.0059667271
-0.07551875
-0.0070336183
-0.07936548
-0.008119924
-0.082948023
-0.0092791899
-0.086922985
-0.010478478
-0.090979268
-0.011741878
-0.095264659
-0.013060403
-0.099733603
-0.01444233
-0.10441191
-0.015888334
-0.10930483
-0.017402017
-0.11442216
-0.018986727
-0.11977418
-0.020645425
-0.12537113
-0.022382384
-0.13122328
-0.024200438
-0.13734299
-0.026104079
-0.14374095
-0.02809684
-0.15043049
-0.030182607
-0.15742401
-0.032366177
-0.16473476
-0.034650826
-0.17237768
-0.03704178
-0.18036694
-0.039542496
-0.18871868
-0.042158057
-0.19744885
-0.04489203
-0.20657538
-0.04774958
-0.21611546
-0.050733828
-0.22608957
-0.053849121
-0.23651707
-0.05709928
-0.24742003
-0.06048701
-0.25882102
-0.064015922
-0.27074381
-0.067688203
-0.28321421
-0.071506117
-0.29625905
-0.075470205
-0.30990747
-0.079581513
-0.32418911
-0.083839558
-0.33913677
-0.088242591
-0.35478468
-0.092788536
-0.37116849
-0.097474063
-0.3883268
-0.10229376
-0.40630029
-0.1072417
-0.42513186
-0.11230996
-0.44486664
-0.1174894
-0.46555244
-0.12276818
-0.48724069
-0.12813387
-0.50998367
-0.13357092
-0.53383845
-0.13906128
-0.55886458
-0.1445857
-0.58512373
-0.15012101
-0.61268294
-0.15564147
-0.64161101
-0.16111805
-0.67198086
-0.16651801
-0.70387022
-0.17180494
-0.73735902
-0.17693684
-0.77253345
-0.1818684
-0.8094819
-0.18654731
-0.84829919
-0.19091625
-0.88908332
-0.19491032
-0.93193848
-0.19845797
-0.97697371
-0.20147837
-1.0243042
-0.20388156
-1.0740511
-0.20556634
-1.1263416
-0.20642436
-1.1813088
-0.20632926
-1.2390931
-0.20514087
-1.2998464
-0.20271001
-1.3637198
-0.19886193
-1.4308811
-0.19341347
-1.5014895
-0.18615247
-1.5757327
-0.17685419
-1.6537979
-0.16527303
-1.735893
-0.15111506
-1.8222225
-0.13408719
-1.9130513
-0.11397011
-2.0084432
-0.089894533
-2.1083298
-2.2143882
-0.00051880167
-0.049201726
-0.0012711387
-0.061942699
-0.0020086443
-0.060570284
-0.0028620236
-0.065968061
-0.0036913075
-0.067669241
-0.0046064026
-0.071688078
-0.0055129822
-0.074612216
-0.0065065926
-0.078371904
-0.007512847
-0.081941796
-0.0085913111
-0.085844542
-0.009706633
-0.089863956
-0.010883139
-0.094088156
-0.01211285
-0.098503882
-0.013403062
-0.10312168
-0.014755455
-0.10795241
-0.016173817
-0.11300375
-0.017661452
-0.11828648
-0.019221757
-0.12381074
-0.020858214
-0.12958672
-0.022575189
-0.1356259
-0.024375862
-0.14194012
-0.026265317
-0.14854085
-0.028247473
-0.15544164
-0.030326338
-0.16265565
-0.032507084
-0.17019664
-0.034793683
-0.17808001
-0.037191191
-0.18632079
-0.039703969
-0.19493564
-0.042337492
-0.20394136
-0.045095134
-0.21335725
-0.047982048
-0.22320201
-0.051002616
-0.23349577
-0.054160551
-0.24426127
-0.057459754
-0.25552089
-0.060903652
-0.26729886
-0.06449472
-0.27962195
-0.068235192
-0.29251725
-0.072127007
-0.30601415
-0.076170539
-0.3201439
-0.080365861
-0.33493956
-0.084712405
-0.35043603
-0.089207536
-0.366671
-0.093848496
-0.38368319
-0.098630976
-0.40151485
-0.10354911
-0.42021042
-0.10859649
-0.43981558
-0.1137635
-0.46038131
-0.11904133
-0.48195826
-0.12441729
-0.50460258
-0.12987788
-0.52837213
-0.13540761
-0.55332847
-0.140988
-0.57953622
-0.14659897
-0.60706404
-0.15221783
-0.6359833
-0.15781767
-0.66637116
-0.16337029
-0.69830662
-0.16884238
-0.7318747
-0.17419724
-0.76716499
-0.17939383
-0.8042702
-0.18438584
-0.84329042
-0.18912171
-0.88432892
-0.19354364
-0.92749613
-0.19758748
-0.9729075
-0.20118091
-1.0206864
-0.20424342
-1.0709623
-0.20668699
-1.1238699
-0.20840608
-1.1795601
-0.20929444
-1.238174
-0.20922308
-1.2998863
-0.20805866
-1.3648527
-0.20564686
-1.4332619
-0.20181028
-1.5052961
-0.19637088
-1.5811435
-0.1891172
-1.661024
-0.17982928
-1.7451535
-0.16824712
-1.8337754
-0.15411378
-1.9271477
-0.13713781
-2.0253739
-0.11676846
-2.1286633
-2.2378584
-0.00046336301
-0.048738511
-0.00116821
-0.061237885
-0.0018283084
-0.059910313
-0.0026253473
-0.065171049
-0.0033805305
-0.066914085
-0.0042375547
-0.070831108
-0.0050771241
-0.073772666
-0.0060049908
-0.077444046
-0.0069397136
-0.081007076
-0.0079449175
-0.084839334
-0.0089857577
-0.088823102
-0.010085275
-0.092988617
-0.01123763
-0.097351493
-0.012449024
-0.10191024
-0.013721849
-0.10667952
-0.015059225
-0.1116663
-0.016464917
-0.11688069
-0.01794272
-0.12233283
-0.019496336
-0.12803296
-0.021129816
-0.13399225
-0.022847886
-0.14022185
-0.024653914
-0.1467346
-0.026553431
-0.15354186
-0.028551047
-0.16065773
-0.030651303
-0.16809604
-0.032859504
-0.17587141
-0.035180884
-0.18399895
-0.037620412
-0.1924956
-0.040183046
-0.20137814
-0.042874026
-0.21066561
-0.045698265
-0.22037703
-0.048660278
-0.23053292
-0.051764466
-0.24115614
-0.055015235
-0.25226906
-0.058415793
-0.26389711
-0.061969279
-0.27606713
-0.065678254
-0.28880677
-0.069544679
-0.30214605
-0.073569367
-0.31611734
-0.077752773
-0.33075406
-0.082093915
-0.34609255
-0.086591688
-0.36217062
-0.091242872
-0.3790291
-0.096043858
-0.39671063
-0.10099026
-0.41526042
-0.10607516
-0.43472666
-0.11129143
-0.45516057
-0.11663003
-0.47661469
-0.12208033
-0.49914674
-0.12763087
-0.52281542
-0.13326727
-0.54768521
-0.1389742
-0.57382167
-0.1447337
-0.60129606
-0.15052555
-0.63018204
-0.15632748
-0.66055877
-0.16211379
-0.6925087
-0.16785532
-0.72612028
-0.17352078
-0.76148524
-0.17907354
-0.79870161
-0.18447364
-0.83787283
-0.1896753
-0.87910798
-0.19462801
-0.92252226
-0.19927477
-0.96823761
-0.20355233
-1.0163837
-0.20738967
-1.0670978
-0.21070603
-1.1205246
-0.21341587
-1.1768197
-0.21541302
-1.236145
-0.2165963
-1.2986704
-0.21683152
-1.3645846
-0.21598948
-1.4340713
-0.21391522
-1.5073384
-0.21044106
-1.5845865
-0.20538402
-1.6660502
-0.19854098
-1.7519651
-0.18968283
-1.8425989
-0.17858366
-1.9382031
-0.16495105
-2.0389553
-0.148387
-2.1451826
-2.2572543
-0.00041341474
-0.048325231
-0.0010770444
-0.060574281
-0.0016744983
-0.059312894
-0.0024131762
-0.06443239
-0.0030921771
-0.066235104
-0.0038974939
-0.070025836
-0.0046700976
-0.073000068
-0.0055381685
-0.076575973
-0.0064093212
-0.080135911
-0.0073525033
-0.083896133
-0.0083327325
-0.087842841
-0.0093696034
-0.091951704
-0.010459529
-0.096261507
-0.011607192
-0.10076251
-0.01281542
-0.1054712
-0.014088086
-0.11039353
-0.015428694
-0.11553995
-0.016841131
-0.12092024
-0.018329901
-0.12654401
-0.019899007
-0.13242294
-0.021553554
-0.13856707
-0.023298369
-0.14498951
-0.025138605
-0.15170131
-0.027079383
-0.15871659
-0.029126333
-0.16604868
-0.031285284
-0.173712
-0.03356099
-0.18172272
-0.035959779
-0.19009622
-0.03848697
-0.19885028
-0.04114797
-0.20800386
-0.043948393
-0.21757576
-0.046892846
-0.22758752
-0.049986757
-0.23806117
-0.053233458
-0.24902117
-0.056637497
-0.26049174
-0.060202255
-0.27250088
-0.063929981
-0.28507738
-0.067822721
-0.29825145
-0.071882088
-0.3120559
-0.076108219
-0.32652562
-0.080501088
-0.34169711
-0.085058779
-0.35761007
-0.089779654
-0.37430505
-0.094660565
-0.39182619
-0.099696547
-0.41022051
-0.10488263
-0.42953622
-0.11021317
-0.44982519
-0.11567943
-0.47114306
-0.12127359
-0.49354662
-0.12698438
-0.51709802
-0.13280131
-0.54186095
-0.13871051
-0.56790433
-0.1446971
-0.59530045
-0.15074411
-0.62412502
-0.15683233
-0.65445947
-0.16294011
-0.68638865
-0.16904384
-0.72000297
-0.17511553
-0.75539854
-0.18112476
-0.79267579
-0.18703656
-0.83194277
-0.19281275
-0.87331172
-0.19840939
-0.91690365
-0.2037777
-0.96284535
-0.20886259
-1.0112728
-0.21360233
-1.0623301
-0.2179275
-1.1161696
-0.22176046
-1.1729551
-0.22501657
-1.2328559
-0.22759315
-1.2960599
-0.22938841
-1.3627548
-0.23027685
-1.4331483
-0.23012597
-1.507455
-0.22878774
-1.5858906
-0.22609779
-1.6687056
-0.22187631
-1.7561504
-0.2159253
-1.8485091
-0.20803132
-1.946046
-0.19794699
-2.0489824
-0.18534848
-2.1577266
-2.2723593
-0.00037084626
-0.047954498
-0.0010034551
-0.059941685
-0.0015458195
-0.058770569
-0.0022368769
-0.06374134
-0.002856213
-0.065615771
-0.0036134587
-0.069268618
-0.0043299204
-0.072283585
-0.0051363987
-0.075769476
-0.0059655669
-0.079306709
-0.0068622651
-0.08299939
-0.0077961237
-0.08690892
-0.0087830574
-0.090964698
-0.0098226953
-0.095221778
-0.01091909
-0.099666006
-0.012076296
-0.10431387
-0.013297808
-0.10917187
-0.014588489
-0.1142491
-0.015952445
-0.11955609
-0.017394481
-0.12510176
-0.018920009
-0.13089716
-0.020533639
-0.13695315
-0.022241597
-0.14328123
-0.024049107
-0.14989344
-0.025961882
-0.15680341
-0.027986295
-0.1640238
-0.030128008
-0.17156976
-0.032393933
-0.1794562
-0.034789655
-0.18769983
-0.037320934
-0.19631825
-0.039994411
-0.20532954
-0.042815127
-0.2147541
-0.045788708
-0.22461288
-0.048919875
-0.23492881
-0.052213793
-0.24572593
-0.055673566
-0.25703049
-0.059302919
-0.26886988
-0.063105021
-0.28127345
-0.067081617
-0.29427282
-0.07123389
-0.30790136
-0.075562554
-0.32219444
-0.080067631
-0.33718923
-0.084747938
-0.35292666
-0.089601988
-0.36944755
-0.094626699
-0.38679765
-0.099819232
-0.40502374
-0.10517513
-0.42417562
-0.11068901
-0.44430609
-0.11635549
-0.46547081
-0.12216667
-0.48772904
-0.12811525
-0.51114237
-0.1341913
-0.53577706
-0.14038458
-0.56170238
-0.14668352
-0.58899192
-0.15307409
-0.61772384
-0.15954128
-0.64798056
-0.16606734
-0.67984962
-0.17263309
-0.71342292
-0.17921613
-0.74879971
-0.18579117
-0.78608336
-0.19233021
-0.82538463
-0.19880057
-0.86682041
-0.20516641
-0.91051493
-0.21138649
-0.95660039
-0.21741488
-1.0052175
-0.22319967
-1.0565163
-0.22868164
-1.1106566
-0.23379486
-1.1678091
-0.23846604
-1.2281504
-0.24260908
-1.2918812
-0.24613078
-1.3591967
-0.24893069
-1.4303115
-0.25088928
-1.5054592
-0.25187569
-1.5848665
-0.25175365
-1.6687887
-0.25035996
-1.7575028
-0.24752066
-1.8513009
-0.24305168
-1.9504561
-0.23673084
-2.0552395
-0.22830154
-2.1660908
-2.2829124
-0.0003276332
-0.047626945
-0.00093453572
-0.059334767
-0.0014274468
-0.058277665
-0.0020723245
-0.063096442
-0.0026471547
-0.065040919
-0.0033761249
-0.068539661
-0.0040592457
-0.071600426
-0.0048502694
-0.0749784
-0.0056395518
-0.078517358
-0.0064898572
-0.082149006
-0.0073811431
-0.086017542
-0.0083248528
-0.090020885
-0.009323496
-0.094223015
-0.010380515
-0.098608854
-0.011500351
-0.10319388
-0.012687592
-0.10798446
-0.013946201
-0.11299029
-0.015282169
-0.1182199
-0.016700331
-0.12368334
-0.018206376
-0.12939083
-0.019806153
-0.13535305
-0.021505681
-0.14158133
-0.023311282
-0.14808742
-0.025230218
-0.154884
-0.027267977
-0.16198551
-0.029432069
-0.16940507
-0.031728655
-0.17715895
-0.034164595
-0.18526314
-0.036746423
-0.19373558
-0.039480228
-0.20259479
-0.042371772
-0.2118615
-0.045426828
-0.22155665
-0.048650556
-0.23170377
-0.052047046
-0.24232797
-0.055620574
-0.25345533
-0.059374686
-0.26511396
-0.06331161
-0.27733451
-0.067433658
-0.29014853
-0.071742228
-0.30359031
-0.076237958
-0.31769595
-0.080920766
-0.33250338
-0.085790727
-0.34805332
-0.09084585
-0.36438869
-0.096084666
-0.3815547
-0.10150479
-0.39959904
-0.10710299
-0.41857236
-0.1128758
-0.43852769
-0.118819
-0.45952142
-0.12492754
-0.48161368
-0.1311957
-0.50486665
-0.13761724
-0.52934717
-0.14418414
-0.55512625
-0.15088812
-0.58227776
-0.15771917
-0.61088155
-0.16466629
-0.64102103
-0.17171677
-0.67278545
-0.17885544
-0.70626917
-0.18606562
-0.74157292
-0.19332816
-0.77880259
-0.20062089
-0.81807189
-0.20791864
-0.85950076
-0.21519273
-0.90321696
-0.22241023
-0.94935694
-0.22953439
-0.99806525
-0.23652243
-1.049498
-0.24332704
-1.1038197
-0.24989336
-1.1612085
-0.25615849
-1.2218492
-0.2620544
-1.2859478
-0.26750594
-1.3537065
-0.27241632
-1.4253615
-0.27669559
-1.5011394
-0.28022762
-1.5812927
-0.28289492
-1.6660777
-0.28456289
-1.7557876
-0.28508395
-1.8507249
-0.28429171
-1.9511812
-0.2819892
-2.0574712
-0.27798691
-2.1700165
-2.2886303
-0.00028552012
-0.047341488
-0.00087309601
-0.05874717
-0.0013249566
-0.057825794
-0.0019463446
-0.062475019
-0.0024983711
-0.06448884
-0.0032050582
-0.067832945
-0.0038602567
-0.070945159
-0.0046269542
-0.074211612
-0.0053858642
-0.077758363
-0.0062035562
-0.081331222
-0.0070675433
-0.085153449
-0.0079845427
-0.08910377
-0.0089594232
-0.093248
-0.0099956139
-0.097572514
-0.011098187
-0.10209113
-0.01227198
-0.10681047
-0.013522661
-0.11173939
-0.014855652
-0.11688665
-0.016276968
-0.12226173
-0.017793395
-0.12787407
-0.01941098
-0.13373509
-0.021137268
-0.13985463
-0.022978642
-0.14624557
-0.024942512
-0.1529196
-0.027036473
-0.15989095
-0.029267328
-0.16717355
-0.031642625
-0.1747829
-0.034169248
-0.18273568
-0.036853653
-0.19105024
-0.039702662
-0.19974473
-0.042722356
-0.20884064
-0.045917806
-0.2183599
-0.049293913
-0.22832622
-0.052855503
-0.23876477
-0.05660628
-0.24970276
-0.060549037
-0.26116922
-0.064686706
-0.27319464
-0.069021208
-0.28581159
-0.073553648
-0.29905517
-0.078285177
-0.31296144
-0.083215874
-0.32756938
-0.0883455
-0.34292004
-0.093673869
-0.35905629
-0.099200421
-0.37602369
-0.10492357
-0.39387097
-0.110842
-0.4126485
-0.11695374
-0.43240996
-0.12325671
-0.45321183
-0.12974853
-0.47511457
-0.13642578
-0.49818134
-0.14328529
-0.52247879
-0.15032289
-0.54807886
-0.15753347
-0.57505639
-0.16491162
-0.6034915
-0.17245025
-0.63346927
-0.18014151
-0.66507975
-0.1879753
-0.69841948
-0.19594119
-0.73358956
-0.20402548
-0.77069911
-0.21221266
-0.80986371
-0.22048506
-0.85120542
-0.22882167
-0.89485534
-0.23719837
-0.94095309
-0.24558666
-0.98964757
-0.25395529
-1.0410978
-0.26226673
-1.0954744
-0.27047961
-1.1529595
-0.27854294
-1.2137478
-0.28640343
-1.2780475
-0.29399449
-1.3460741
-0.30124913
-1.4180641
-0.30808555
-1.4942587
-0.31441425
-1.5749177
-0.32013182
-1.660311
-0.32512996
-1.7507358
-0.32928785
-1.8465042
-0.33246319
-1.94793
-0.3344954
-2.0553599
-0.33521437
-2.1692089
-2.2892063
-0.00024711732
-0.047094434
-0.00082342004
-0.058170855
-0.0012452281
-0.057403986
-0.0018915955
-0.061828626
-0.0024285458
-0.063951845
-0.0031105003
-0.067150346
-0.0037426937
-0.070312892
-0.0044672296
-0.073487018
-0.0052125607
-0.077012954
-0.0060144309
-0.080529262
-0.0068683548
-0.084299416
-0.0077771625
-0.088194838
-0.0087479808
-0.092277034
-0.0097847493
-0.096535578
-0.010893224
-0.10098246
-0.012079174
-0.1056243
-0.013348842
-0.11046947
-0.014708926
-0.11552629
-0.016166221
-0.12080411
-0.017727455
-0.12631247
-0.019401259
-0.13206087
-0.021194098
-0.13806132
-0.02311485
-0.14432429
-0.025170807
-0.15086305
-0.027369807
-0.15769129
-0.029719953
-0.16482266
-0.032228649
-0.17227337
-0.034902871
-0.18006053
-0.037750018
-0.18820205
-0.040776069
-0.19671753
-0.043986613
-0.20562881
-0.047387302
-0.21495778
-0.050982567
-0.22472936
-0.054776609
-0.23496896
-0.05877272
-0.2457047
-0.062973728
-0.25696604
-0.067381886
-0.26878408
-0.07199892
-0.28119191
-0.076826603
-0.29422456
-0.081865643
-0.30791917
-0.087116982
-0.32231447
-0.09258142
-0.33745167
-0.098259457
-0.35337392
-0.10415113
-0.37012724
-0.1102573
-0.38775953
-0.11657851
-0.40632149
-0.12311475
-0.42586733
-0.1298665
-0.44645304
-0.136834
-0.4681393
-0.14401752
-0.49098927
-0.15141639
-0.5150705
-0.1590309
-0.54045397
-0.16685967
-0.56721618
-0.17490131
-0.59543726
-0.18315391
-0.62520282
-0.19161428
-0.65660413
-0.20027864
-0.68973835
-0.20914141
-0.72470839
-0.21819609
-0.76162426
-0.22743426
-0.80060346
-0.23684484
-0.84177072
-0.24641546
-0.88525846
-0.25613055
-0.93120947
-0.26597202
-0.97977523
-0.27591775
-1.0311188
-0.28594216
-1.0854143
-0.29601481
-1.1428488
-0.30610141
-1.2036209
-0.31615897
-1.2679475
-0.32614137
-1.3360473
-0.33599714
-1.408162
-0.34565744
-1.4845499
-0.35505702
-1.5654668
-0.36411608
-1.6511969
-0.37275005
-1.7420412
-0.38085691
-1.8383262
-0.38832983
-1.9403728
-0.39503297
-2.0485693
-0.40083931
-2.1633014
-2.2842821
-0.00021310847
-0.046881382
-0.00078997783
-0.057593966
-0.0011888073
-0.057005151
-0.001851733
-0.061165659
-0.0023662591
-0.06343729
-0.0030400069
-0.066476679
-0.0036655105
-0.069687333
-0.0043848785
-0.072767577
-0.0051326415
-0.0762651
-0.0059346493
-0.07972715
-0.0067960962
-0.083437842
-0.007717119
-0.087273672
-0.0087061875
-0.091287795
-0.0097681275
-0.095473447
-0.010909607
-0.09984076
-0.012137352
-0.1043963
-0.01345854
-0.10914799
-0.014880517
-0.11410399
-0.016411718
-0.11927255
-0.018060078
-0.1246637
-0.019833871
-0.13028661
-0.021742022
-0.13615265
-0.023792677
-0.14227305
-0.025994556
-0.14866052
-0.028356378
-0.15532873
-0.030885553
-0.16229266
-0.033589922
-0.16956808
-0.036476785
-0.17717263
-0.039552902
-0.18512479
-0.042823514
-0.19344564
-0.046295056
-0.20215585
-0.049971387
-0.21127988
-0.053857287
-0.22084172
-0.057955534
-0.23086879
-0.062268947
-0.24138915
-0.06680046
-0.25243218
-0.071551993
-0.26402995
-0.076525077
-0.27621596
-0.081721448
-0.28902503
-0.087142913
-0.30249423
-0.092790985
-0.31666257
-0.098667461
-0.33157098
-0.10477401
-0.34726273
-0.11111323
-0.36378291
-0.11768748
-0.38117966
-0.12449914
-0.39950364
-0.13155187
-0.41880779
-0.13884819
-0.43914923
-0.14639211
-0.46058713
-0.15418701
-0.4831853
-0.16223677
-0.50701076
-0.17054432
-0.53213542
-0.17911356
-0.55863485
-0.18794787
-0.58658965
-0.19704983
-0.61608622
-0.20642191
-0.64721596
-0.21606621
-0.68007638
-0.2259834
-0.7147718
-0.23617345
-0.75141295
-0.24663484
-0.79011881
-0.25736566
-0.83101451
-0.26836074
-0.87423571
-0.27961401
-0.91992614
-0.29111704
-0.96823963
-0.30285875
-1.0193419
-0.31482526
-1.0734099
-0.32699947
-1.1306342
-0.33935814
-1.1912193
-0.35187815
-1.2553821
-0.36452707
-1.3233506
-0.37726424
-1.3953744
-0.39005507
-1.4717057
-0.40284206
-1.5526228
-0.41556913
-1.6384083
-0.42817264
-1.7293695
-0.44059004
-1.8258291
-0.45272852
-1.9281413
-0.46449355
-2.036708
-0.47578642
-2.151895
-2.2734434
-0.00019180564
-0.046689617
-0.00078806469
-0.056997677
-0.0011831275
-0.056610066
-0.0018379626
-0.060510777
-0.0023453662
-0.06292983
-0.0030238075
-0.065798142
-0.0036641532
-0.069046902
-0.004390117
-0.072041518
-0.0051593705
-0.075495732
-0.0059825321
-0.078903861
-0.0068732339
-0.082546989
-0.0078307011
-0.086316037
-0.0088644943
-0.090253805
-0.0099806905
-0.094357032
-0.011187006
-0.098634191
-0.012491342
-0.10309168
-0.013902144
-0.10773686
-0.015428259
-0.11257751
-0.017078324
-0.11762207
-0.018862298
-0.12287927
-0.02078899
-0.1283594
-0.022868077
-0.13407298
-0.025108382
-0.14003209
-0.027519009
-0.14624916
-0.030108473
-0.15273844
-0.032884836
-0.15951538
-0.035855098
-0.1665968
-0.039026386
-0.17400021
-0.042404141
-0.18174578
-0.045994345
-0.18985404
-0.049800786
-0.19834786
-0.05382759
-0.20725136
-0.058078048
-0.21658937
-0.062554717
-0.22639003
-0.067260044
-0.23668152
-0.072196241
-0.24749344
-0.077364975
-0.25885842
-0.082768686
-0.27080917
-0.088409294
-0.28338103
-0.094289509
-0.29661028
-0.10041221
-0.31053577
-0.10678077
-0.32519792
-0.11339933
-0.34063921
-0.12027215
-0.35690464
-0.1274041
-0.37404173
-0.13480113
-0.39210004
-0.14246907
-0.41113262
-0.1504146
-0.43119576
-0.15864446
-0.45234853
-0.1671662
-0.47465395
-0.17598739
-0.49817901
-0.18511653
-0.52299467
-0.19456138
-0.54917722
-0.20433035
-0.57680664
-0.21443122
-0.6059699
-0.22487285
-0.63675735
-0.23566243
-0.66926815
-0.24680764
-0.70360613
-0.25831557
-0.73988259
-0.27019275
-0.7782171
-0.28244429
-0.81873617
-0.29507482
-0.86157597
-0.30808747
-0.90688171
-0.32148395
-0.95480867
-0.33526463
-1.0055239
-0.34942758
-1.0592068
-0.36396831
-1.1160503
-0.37887924
-1.1762623
-0.39415319
-1.2400592
-0.40976984
-1.3076821
-0.42571597
-1.3793734
-0.44196287
-1.4554002
-0.45848461
-1.5360381
-0.47524888
-1.6215756
-0.49221239
-1.7123296
-0.50933276
-1.8086197
-0.52655475
-1.9108172
-0.54382436
-2.0193322
-0.56105757
-2.1345351
-2.2562279
-0.00017307748
-0.046516567
-0.00079789047
-0.056372826
-0.001199338
-0.056208584
-0.0018654177
-0.059844639
-0.0023854275
-0.062409752
-0.003078412
-0.065105081
-0.0037489523
-0.068376265
-0.0044982284
-0.071292132
-0.0053072924
-0.074686536
-0.0061740879
-0.07803692
-0.0071182126
-0.081602692
-0.0081396326
-0.085294426
-0.0092486644
-0.089144551
-0.010453037
-0.09315241
-0.011761804
-0.097325138
-0.013184312
-0.10166886
-0.014730323
-0.10619049
-0.016409967
-0.11089745
-0.018233536
-0.11579804
-0.020210987
-0.1209013
-0.022352756
-0.12621705
-0.024668469
-0.13175661
-0.027167345
-0.13753248
-0.029858593
-0.1435571
-0.032750009
-0.14984612
-0.035848898
-0.15641548
-0.039162473
-0.1632821
-0.0426956
-0.17046584
-0.046453499
-0.1779865
-0.050440083
-0.18586593
-0.054658755
-0.1941275
-0.059112542
-0.20279571
-0.063802792
-0.21189707
-0.068732731
-0.22145783
-0.073903788
-0.23150798
-0.079317912
-0.24207658
-0.084978004
-0.25319532
-0.090886356
-0.26489751
-0.097047176
-0.27721658
-0.10346427
-0.2901892
-0.11014232
-0.30385335
-0.11708692
-0.31824853
-0.12430482
-0.33341605
-0.13180298
-0.3494007
-0.13958953
-0.36624884
-0.14767347
-0.38400913
-0.15606422
-0.40273423
-0.16477199
-0.42247959
-0.17380804
-0.44330325
-0.18318365
-0.4652682
-0.19291128
-0.48844023
-0.20300288
-0.51289081
-0.21347243
-0.53869418
-0.22433286
-0.56593139
-0.23559856
-0.5946879
-0.24728303
-0.62505498
-0.25940116
-0.65713034
-0.27196705
-0.69101865
-0.28499493
-0.72683104
-0.29849976
-0.76468636
-0.31249484
-0.80471276
-0.32699407
-0.84704584
-0.34201074
-0.89183137
-0.35755731
-0.9392255
-0.37364514
-0.98939641
-0.39028535
-1.0425237
-0.40748776
-1.0988018
-0.42526118
-1.1584395
-0.44360858
-1.2216591
-0.46253467
-1.2886999
-0.48203884
-1.3598094
-0.50211962
-1.4352552
-0.52276866
-1.5153196
-0.54397053
-1.6002978
-0.56571837
-1.6904966
-0.58798734
-1.7862522
-0.61076652
-1.8879264
-0.63402952
-1.9959517
-0.65771609
-2.1107064
-2.2321142
-0.00015894836
-0.046357632
-0.00082574572
-0.055705979
-0.0012406538
-0.055793629
-0.0019365816
-0.059148642
-0.002486661
-0.061859591
-0.0032081259
-0.064383519
-0.0039293357
-0.067654941
-0.0047231302
-0.07049821
-0.0055949673
-0.073814548
-0.0065325367
-0.077099183
-0.0075593952
-0.080575637
-0.0086776999
-0.084175904
-0.0098988466
-0.087923151
-0.011232646
-0.09181833
-0.012689693
-0.095867768
-0.014281096
-0.10007709
-0.016018015
-0.10445316
-0.01791172
-0.10900329
-0.019973359
-0.11373588
-0.022213768
-0.11866031
-0.024643079
-0.12378709
-0.027271248
-0.12912772
-0.030107477
-0.13469545
-0.033159308
-0.14050437
-0.036434271
-0.14657016
-0.039938337
-0.15291031
-0.04367637
-0.15954284
-0.047652704
-0.16648815
-0.051870469
-0.17376723
-0.056332012
-0.18140273
-0.061039092
-0.18941859
-0.065993804
-0.19783899
-0.071197606
-0.20669105
-0.076652269
-0.21600074
-0.08236029
-0.22579729
-0.088324363
-0.23610958
-0.094547976
-0.2469685
-0.10103625
-0.25840572
-0.10779361
-0.27045537
-0.11482715
-0.28315143
-0.12214383
-0.29653203
-0.12975304
-0.31063424
-0.13766326
-0.32550026
-0.1458854
-0.34117246
-0.1544315
-0.35769605
-0.1633133
-0.37511998
-0.17254456
-0.39349489
-0.18213984
-0.41287545
-0.19211393
-0.43331943
-0.20248329
-0.45488815
-0.21326428
-0.47764749
-0.22447532
-0.50166686
-0.23613396
-0.52702134
-0.24825946
-0.55379027
-0.26087202
-0.58205815
-0.27399189
-0.61191622
-0.28763987
-0.64346161
-0.30183836
-0.67679737
-0.31660933
-0.71203508
-0.33197497
-0.74929333
-0.34795859
-0.78869917
-0.3645838
-0.83038789
-0.38187399
-0.87450546
-0.39985237
-0.92120822
-0.41854382
-0.97066269
-0.43797203
-1.0230497
-0.4581608
-1.0785636
-0.47913375
-1.1374134
-0.50091238
-1.1998235
-0.52352092
-1.2660305
-0.54697766
-1.3362874
-0.57129901
-1.4108637
-0.59650159
-1.4900408
-0.62260128
-1.5741144
-0.64960395
-1.6633996
-0.67752071
-1.7582271
-0.70636627
-1.8589597
-0.73617266
-1.9660166
-0.76688451
-2.0798364
-2.200507
-0.00015086967
-0.046206765
-0.00087862112
-0.054978171
-0.001312132
-0.055360061
-0.0020518151
-0.058408879
-0.0026526952
-0.061258617
-0.0034206497
-0.063615455
-0.0042155092
-0.066859952
-0.0050786
-0.069634975
-0.0060388564
-0.072854121
-0.0070785358
-0.076059315
-0.0082233052
-0.079430647
-0.0094788913
-0.082920072
-0.010858201
-0.086543558
-0.012373096
-0.09030312
-0.01403598
-0.094204523
-0.015859239
-0.09825343
-0.017855218
-0.10245672
-0.020035843
-0.10682216
-0.022412659
-0.11135849
-0.024996448
-0.11607588
-0.027797279
-0.12098554
-0.030823853
-0.12610035
-0.034083799
-0.13143461
-0.037583925
-0.13700325
-0.041328937
-0.14282405
-0.045323187
-0.14891485
-0.049568876
-0.15529581
-0.054068174
-0.16198738
-0.058822499
-0.16901128
-0.063832563
-0.17639088
-0.069099625
-0.18414957
-0.074624541
-0.19231191
-0.08040947
-0.20090376
-0.086456611
-0.209951
-0.092769818
-0.21948124
-0.099353037
-0.22952325
-0.10621251
-0.24010561
-0.11335446
-0.25126004
-0.1207879
-0.26301785
-0.12852133
-0.27541353
-0.13656649
-0.28848199
-0.14493402
-0.30226135
-0.1536377
-0.31679071
-0.16269201
-0.33211172
-0.17211182
-0.34826918
-0.18191378
-0.36531029
-0.19211553
-0.38328466
-0.20273565
-0.40224601