/*--------------------------------*- C++ -*----------------------------------*\
  =========                 |
  \\      /  F ield         | OpenFOAM: The Open Source CFD Toolbox
   \\    /   O peration     | Website:  https://openfoam.org
    \\  /    A nd           | Version:  12
     \\/     M anipulation  |
\*---------------------------------------------------------------------------*/
FoamFile
{
    format      ascii;
    class       volScalarField;
    location    "0.08";
    object      nut;
}
// * * * * * * * * * * * * * * * * * * * * * * * * * * * * * * * * * * * * * //

dimensions      [0 2 -1 0 0 0 0];

internalField   nonuniform List<scalar> 
16000
(
4.7228638e-07
9.8871524e-06
2.0089295e-05
2.3708506e-05
1.8366173e-05
2.5180072e-05
1.7807838e-05
2.4344928e-05
1.901829e-05
2.6115421e-05
2.2035218e-05
2.5821673e-05
2.3572251e-05
2.4182214e-05
2.3374951e-05
2.3240715e-05
2.300113e-05
2.293715e-05
2.2951103e-05
2.3062548e-05
2.3264373e-05
2.3555628e-05
2.3933907e-05
2.4399231e-05
2.4953731e-05
2.5603269e-05
2.6355773e-05
2.7223909e-05
2.8223068e-05
2.9369782e-05
3.0682207e-05
3.2184504e-05
3.3907859e-05
3.589069e-05
3.818023e-05
4.0832784e-05
4.3915371e-05
4.7507867e-05
5.1709116e-05
5.6641458e-05
6.2448216e-05
6.9298005e-05
7.740323e-05
8.7023558e-05
9.8467275e-05
0.0001121035
0.00012838917
0.00014787982
0.0001712501
0.00019931995
0.0002330899
0.00027378297
0.00032288859
0.0003822253
0.00045401491
0.00054098299
0.00064648131
0.00077464944
0.00093064413
0.0010197596
0.0010196473
0.001019472
0.0010192674
0.0010189798
0.001018598
0.0010180913
0.0010174199
0.0010165341
0.0010153702
0.0010138353
0.0010118158
0.0010093079
0.001006879
0.0010051903
0.0010041997
0.0010040038
0.0010037778
0.0010047511
0.0010019632
0.0010026384
4.3232765e-07
9.397928e-06
1.982592e-05
2.1531829e-05
1.6606787e-05
2.2617883e-05
1.5838778e-05
2.1361608e-05
1.68349e-05
2.3114029e-05
1.9983519e-05
2.3319597e-05
2.1587193e-05
2.194341e-05
2.131136e-05
2.112615e-05
2.0925578e-05
2.0856296e-05
2.0870575e-05
2.0971674e-05
2.1157434e-05
2.1426559e-05
2.1777228e-05
2.2209519e-05
2.2725074e-05
2.3329357e-05
2.4029217e-05
2.4836057e-05
2.5764435e-05
2.6830461e-05
2.8051006e-05
2.9448117e-05
3.1050632e-05
3.2894098e-05
3.502268e-05
3.7489295e-05
4.0357334e-05
4.3701776e-05
4.7614585e-05
5.2211486e-05
5.7630062e-05
6.402882e-05
7.160752e-05
8.061349e-05
9.1342495e-05
0.00010414486
0.00011945582
0.00013780633
0.00015984251
0.0001863501
0.00021828833
0.00025683319
0.00030341907
0.00035980054
0.00042812312
0.00051102227
0.00061174491
0.00073429923
0.0008836654
0.0010190758
0.0010189914
0.001018792
0.0010185697
0.0010182638
0.0010178632
0.0010173382
0.0010166502
0.00101575
0.0010145792
0.0010130548
0.0010110624
0.001008605
0.0010063301
0.0010047447
0.0010038294
0.0010035668
0.0010036782
0.0010042973
0.0010018464
0.0010024354
3.8115848e-07
9.0188713e-06
1.8778195e-05
1.9734205e-05
1.4897517e-05
1.99534e-05
1.4123728e-05
1.8600697e-05
1.5158066e-05
2.0317112e-05
1.8242574e-05
2.0795637e-05
1.9577102e-05
1.9676157e-05
1.9188648e-05
1.8982354e-05
1.8813056e-05
1.8748762e-05
1.876578e-05
1.8861265e-05
1.9034384e-05
1.9284192e-05
1.9609164e-05
2.0009623e-05
2.0486838e-05
2.1046073e-05
2.1693435e-05
2.2439248e-05
2.3297084e-05
2.4282645e-05
2.5411945e-05
2.6705365e-05
2.8189805e-05
2.9898344e-05
3.1872432e-05
3.4161876e-05
3.6826865e-05
3.9938558e-05
4.3583155e-05
4.7869806e-05
5.2931459e-05
5.8918895e-05
6.6021108e-05
7.4474019e-05
8.4563548e-05
9.6624943e-05
0.00011107539
0.0001284255
0.0001492981
0.00017445175
0.00020481228
0.00024151796
0.00028595898
0.00033983923
0.00040524421
0.0004847384
0.00058148709
0.00069940451
0.00084335029
0.0010184375
0.0010183818
0.0010181553
0.0010179083
0.0010175774
0.0010171506
0.0010165995
0.0010158864
0.0010149625
0.0010137722
0.0010122447
0.0010102723
0.0010078547
0.001005754
0.0010042948
0.0010034502
0.0010032292
0.0010034132
0.0010038084
0.0010018025
0.0010022116
3.4296096e-07
8.7327382e-06
1.7850086e-05
1.8448422e-05
1.3416017e-05
1.7643323e-05
1.2601374e-05
1.6277098e-05
1.3658983e-05
1.7930886e-05
1.6666238e-05
1.8550413e-05
1.7714086e-05
1.7626355e-05
1.7247417e-05
1.7040835e-05
1.6899514e-05
1.6845499e-05
1.6868164e-05
1.6961644e-05
1.7125703e-05
1.7359837e-05
1.7662855e-05
1.8035467e-05
1.8478707e-05
1.8997788e-05
1.9598335e-05
2.028982e-05
2.1084884e-05
2.19989e-05
2.3047319e-05
2.4249115e-05
2.5629612e-05
2.7219768e-05
2.9058733e-05
3.1193625e-05
3.3681872e-05
3.6591636e-05
4.0004534e-05
4.4023593e-05
4.8778207e-05
5.441331e-05
6.1109233e-05
6.9091745e-05
7.8639644e-05
9.0076527e-05
0.00010380524
0.00012032055
0.0001402273
0.00016426411
0.00019333141
0.00022853982
0.00027124716
0.00032312132
0.00038620599
0.00046301663
0.00055666273
0.00067099761
0.00081080869
0.00098207589
0.0010178189
0.0010175634
0.0010172876
0.0010169282
0.0010164722
0.0010158923
0.0010151526
0.0010142048
0.0010129934
0.0010114599
0.0010095157
0.0010071483
0.0010052143
0.0010038753
0.0010030928
0.0010028966
0.0010031319
0.0010034513
0.0010019488
0.0010020749
3.1244276e-07
8.5234723e-06
1.7056477e-05
1.8459064e-05
1.35174e-05
1.5621889e-05
1.1262781e-05
1.4277471e-05
1.2367219e-05
1.5869675e-05
1.5261518e-05
1.6523718e-05
1.597341e-05
1.5759648e-05
1.546114e-05
1.5267959e-05
1.5149712e-05
1.5106431e-05
1.5133455e-05
1.5224246e-05
1.5378812e-05
1.5597255e-05
1.5878767e-05
1.6224552e-05
1.6635538e-05
1.7116967e-05
1.7674119e-05
1.8315791e-05
1.9053698e-05
1.990284e-05
2.0878304e-05
2.199789e-05
2.3285618e-05
2.4770612e-05
2.6490045e-05
2.8488697e-05
3.0821528e-05
3.3554284e-05
3.6765154e-05
4.0551343e-05
4.5039268e-05
5.0369505e-05
5.6715632e-05
6.4293891e-05
7.3377714e-05
8.428166e-05
9.7396785e-05
0.00011320495
0.00013229624
0.00015539394
0.00018337788
0.00021733689
0.00025860291
0.00030881584
0.0003699874
0.00044459558
0.00053570769
0.00064713234
0.00078360611
0.00095103633
0.0010173012
0.001017015
0.001016706
0.0010163142
0.0010158254
0.0010152133
0.0010144441
0.0010134708
0.0010122362
0.0010106891
0.0010087739
0.0010064779
0.0010047039
0.0010034832
0.0010027699
0.0010025819
0.0010028178
0.0010031108
0.0010020828
0.0010019512
2.8627979e-07
8.3968184e-06
1.6419163e-05
1.8186841e-05
1.3252576e-05
1.3849709e-05
1.0765099e-05
1.2623541e-05
1.1689211e-05
1.4144115e-05
1.4031808e-05
1.4742895e-05
1.4382907e-05
1.4094706e-05
1.3846573e-05
1.3668554e-05
1.3565037e-05
1.3528298e-05
1.3556088e-05
1.3642063e-05
1.3786211e-05
1.3989152e-05
1.4250273e-05
1.4571199e-05
1.4952817e-05
1.5400379e-05
1.5918878e-05
1.6516583e-05
1.7204308e-05
1.799665e-05
1.8908501e-05
1.9956714e-05
2.1164279e-05
2.25588e-05
2.4175829e-05
2.6058211e-05
2.8258827e-05
3.0841509e-05
3.3882259e-05
3.7473264e-05
4.1738233e-05
4.6814918e-05
5.2872552e-05
6.0118751e-05
6.8823477e-05
7.9295295e-05
9.1916488e-05
0.00010715971
0.00012560407
0.00014796323
0.00017510234
0.00020809589
0.0002482586
0.00029721261
0.00035695083
0.00042992917
0.00051919064
0.00062852042
0.00076263482
0.00092741762
0.0010168238
0.0010165048
0.0010161586
0.0010157311
0.0010152069
0.0010145603
0.0010137593
0.0010127601
0.0010115033
0.0010099369
0.0010080452
0.0010058547
0.0010042302
0.0010031197
0.001002475
0.0010022759
0.0010025098
0.0010028401
0.0010022307
0.0010019941
2.5741122e-07
8.3268371e-06
1.5920102e-05
1.717256e-05
1.3157195e-05
1.2240867e-05
1.0762755e-05
1.1675731e-05
1.1049584e-05
1.2613063e-05
1.2923383e-05
1.316624e-05
1.2903949e-05
1.2583701e-05
1.236402e-05
1.2201473e-05
1.2109026e-05
1.20779e-05
1.2106355e-05
1.2188558e-05
1.2324161e-05
1.2514246e-05
1.2758126e-05
1.2981444e-05
1.3328704e-05
1.3739235e-05
1.4217275e-05
1.4770373e-05
1.5408259e-05
1.6144795e-05
1.6994645e-05
1.7973747e-05
1.9104145e-05
2.0411987e-05
2.1931327e-05
2.3703238e-05
2.5778646e-05
2.8219508e-05
3.1100408e-05
3.4769843e-05
3.8853672e-05
4.3725578e-05
4.9552903e-05
5.6535851e-05
6.4941988e-05
7.5076864e-05
8.7316921e-05
0.00010212899
0.00012008438
0.00014189247
0.00016840901
0.00020070091
0.00024007344
0.00028814012
0.00034688646
0.00041876017
0.00050679591
0.00061477388
0.00074741382
0.00091060887
0.0010163828
0.001016029
0.0010156425
0.0010151764
0.0010146145
0.0010139316
0.0010130972
0.0010120713
0.0010107955
0.0010092083
0.0010073247
0.0010052844
0.0010037977
0.0010027823
0.0010022006
0.0010019818
0.0010021921
0.001002554
0.0010023386
0.0010021153
2.3291772e-07
8.2880528e-06
1.548901e-05
1.5599277e-05
1.1926186e-05
1.0671652e-05
9.2078814e-06
1.0385178e-05
9.6446945e-06
1.134902e-05
1.1799982e-05
1.1712314e-05
1.1488259e-05
1.1177132e-05
1.0981366e-05
1.0839101e-05
1.0760464e-05
1.0738064e-05
1.0705307e-05
1.0771141e-05
1.0890328e-05
1.1063078e-05
1.1286979e-05
1.1562526e-05
1.189376e-05
1.2283749e-05
1.2737049e-05
1.3261142e-05
1.386521e-05
1.4562687e-05
1.5368435e-05
1.6297901e-05
1.7372669e-05
1.8617961e-05
2.0066943e-05
2.1759557e-05
2.3745538e-05
2.6085667e-05
2.8854009e-05
3.2140628e-05
3.6055165e-05
4.0736285e-05
4.6351309e-05
5.3542254e-05
6.1731013e-05
7.1625015e-05
8.3598134e-05
9.8114645e-05
0.00011574139
0.00013718907
0.00016330963
0.00019516955
0.00023407305
0.0002816347
0.0003398448
0.00041115779
0.00049861723
0.00060601839
0.00073810915
0.00090082655
0.0010159731
0.0010155827
0.0010151533
0.0010146464
0.0010140449
0.0010133248
0.0010124561
0.0010114024
0.0010101114
0.001008512
0.0010066175
0.0010047698
0.0010034097
0.0010024739
0.0010019433
0.001001709
0.0010018919
0.0010022668
0.0010023744
0.0010021762
2.1507222e-07
8.2477746e-06
1.5028262e-05
1.3658055e-05
9.8058318e-06
9.4898756e-06
7.60066e-06
8.858555e-06
9.0388127e-06
1.0197101e-05
1.0660429e-05
1.0357923e-05
1.0152085e-05
9.8734173e-06
9.7020784e-06
9.5157158e-06
9.4279942e-06
9.4012335e-06
9.4283443e-06
9.5060696e-06
9.630419e-06
9.8030066e-06
1.0022748e-05
1.0289657e-05
1.0607923e-05
1.0981502e-05
1.1414994e-05
1.1915913e-05
1.2493067e-05
1.3159444e-05
1.3930194e-05
1.4820501e-05
1.5851773e-05
1.7048586e-05
1.8443548e-05
2.0075914e-05
2.1994688e-05
2.4259999e-05
2.6945246e-05
3.0139637e-05
3.3953078e-05
3.8522118e-05
4.4016736e-05
5.0633588e-05
5.8624523e-05
6.8302245e-05
8.0748418e-05
9.5103926e-05
0.00011256136
0.00013383812
0.00015978833
0.00019148523
0.00023024061
0.00027768
0.00033581082
0.00040710964
0.00049464701
0.00060225371
0.00073472958
0.00089808862
0.0010155897
0.0010151609
0.0010146869
0.0010141375
0.0010134954
0.0010127376
0.0010118348
0.0010107521
0.0010094475
0.0010078547
0.0010059687
0.0010043104
0.0010030684
0.0010021995
0.0010017117
0.0010014664
0.0010016139
0.0010019816
0.0010023187
0.0010021038
1.9725219e-07
8.2063403e-06
1.3522562e-05
1.1915224e-05
7.9331198e-06
8.4288506e-06
6.7812471e-06
7.9887669e-06
8.3620613e-06
9.118072e-06
9.5315121e-06
9.1221763e-06
8.9222668e-06
8.5975565e-06
8.4173759e-06
8.3011465e-06
8.2460487e-06
8.2433627e-06
8.2868688e-06
8.3753374e-06
8.5061651e-06
8.6790224e-06
8.8956636e-06
9.1561404e-06
9.4648292e-06
9.8260796e-06
1.0244649e-05
1.0728208e-05
1.1285326e-05
1.192857e-05
1.2673428e-05
1.3535126e-05
1.4535118e-05
1.5697599e-05
1.7054941e-05
1.8646102e-05
2.0519793e-05
2.2736005e-05
2.5368389e-05
2.8506491e-05
3.2260224e-05
3.6765645e-05
4.219578e-05
4.8747262e-05
5.6674105e-05
6.629097e-05
7.7984976e-05
9.2209282e-05
0.00011053961
0.00013183662
0.00015784499
0.00018965188
0.00022858595
0.0002762941
0.00033481389
0.00040666039
0.00049495054
0.00060357297
0.00073740413
0.00090256686
0.0010152271
0.0010147584
0.0010142389
0.001013646
0.0010129626
0.0010121672
0.0010112317
0.0010101205
0.0010087999
0.0010072289
0.0010053965
0.0010039045
0.001002774
0.0010019672
0.0010015293
0.0010012549
0.0010013632
0.0010016977
0.0010020463
0.0010017341
1.8194057e-07
8.1605411e-06
1.0742054e-05
9.8584922e-06
6.5246956e-06
7.4994367e-06
6.1787341e-06
7.1725203e-06
7.8166009e-06
8.1360386e-06
8.4232958e-06
7.9112359e-06
7.6649148e-06
7.4378315e-06
7.3035433e-06
7.2250805e-06
7.1978319e-06
7.2159254e-06
7.2747542e-06
7.3729308e-06
7.5084711e-06
7.683248e-06
7.8988003e-06
8.1556455e-06
8.4582595e-06
8.8114244e-06
9.2201619e-06
9.6923486e-06
1.0236513e-05
1.086487e-05
1.1533988e-05
1.2367912e-05
1.3338112e-05
1.4468384e-05
1.5790854e-05
1.7344219e-05
1.9176961e-05
2.1348994e-05
2.3934335e-05
2.7023152e-05
3.0726383e-05
3.5457272e-05
4.087942e-05
4.7433599e-05
5.5376125e-05
6.5024824e-05
7.677782e-05
9.109898e-05
0.00010857265
0.00012992617
0.00015747707
0.00018967169
0.00022911785
0.00027749488
0.00033688416
0.00040985676
0.00049959688
0.00061007537
0.00074627171
0.00091444807
0.0010148797
0.0010143698
0.0010138047
0.0010131684
0.0010124438
0.0010116111
0.0010106448
0.0010095088
0.0010081685
0.0010066182
0.0010048928
0.0010035499
0.0010025245
0.0010017739
0.0010013657
0.0010010803
0.0010011413
0.0010014351
0.0010017168
0.0010011994
1.6838953e-07
8.1137552e-06
8.4807479e-06
8.406968e-06
5.7453958e-06
6.6398312e-06
5.6685488e-06
6.4584453e-06
7.2602687e-06
7.2190575e-06
7.2230664e-06
6.7879591e-06
6.5860733e-06
6.4182424e-06
6.3229673e-06
6.2759464e-06
6.2725003e-06
6.3086318e-06
6.3806653e-06
6.4884018e-06
6.6304768e-06
6.8086298e-06
7.0253675e-06
7.2816753e-06
7.5821113e-06
7.8978982e-06
8.2951505e-06
8.7551491e-06
9.2862854e-06
9.9003347e-06
1.0611482e-05
1.1438177e-05
1.240121e-05
1.3524446e-05
1.4840313e-05
1.6387913e-05
1.8216323e-05
2.0386248e-05
2.2973194e-05
2.6069246e-05
2.978798e-05
3.4271183e-05
3.9692341e-05
4.6259146e-05
5.4232223e-05
6.4490958e-05
7.6416239e-05
9.0967825e-05
0.00010874064
0.00013048509
0.00015711636
0.00019154832
0.00023184863
0.00028130623
0.00034206076
0.00041675808
0.00050867221
0.00062188322
0.00076150327
0.00093396267
0.0010145422
0.00101399
0.00101338
0.0010127011
0.0010119364
0.0010110671
0.0010100715
0.0010089166
0.00100756
0.0010060138
0.001004456
0.0010032435
0.0010023115
0.001001623
0.0010012285
0.0010009463
0.0010009516
0.0010011866
0.0010013996
0.0010011269
1.5625151e-07
8.0558503e-06
6.7494122e-06
7.3726232e-06
5.1164164e-06
5.8694046e-06
5.2293846e-06
5.8253569e-06
6.5988871e-06
6.1799774e-06
6.1394932e-06
5.8044154e-06
5.6435314e-06
5.5235853e-06
5.4617194e-06
5.4418007e-06
5.4595246e-06
5.5123462e-06
5.5974145e-06
5.7151519e-06
5.8649056e-06
6.0486059e-06
6.242867e-06
6.4961623e-06
6.7931827e-06
7.1381159e-06
7.5380163e-06
8.0004376e-06
8.5339882e-06
9.1506434e-06
9.8647369e-06
1.06945e-05
1.1661962e-05
1.2791353e-05
1.4115651e-05
1.5674726e-05
1.7518778e-05
1.9709804e-05
2.2325499e-05
2.5460875e-05
2.9232348e-05
3.3784875e-05
3.9300892e-05
4.5993344e-05
5.4131059e-05
6.404807e-05
7.6158838e-05
9.0963503e-05
0.00011003782
0.00013236829
0.00015973955
0.0001933199
0.00023678654
0.00028774897
0.00035038044
0.00042742206
0.0005222621
0.00063911888
0.00078327238
0.00096135002
0.0010142094
0.001013614
0.0010129607
0.0010122406
0.0010114379
0.0010105339
0.0010095094
0.0010083403
0.0010069849
0.0010054436
0.0010040807
0.001002986
0.0010021333
0.0010015044
0.0010011129
0.0010008375
0.0010007986
0.0010009855
0.0010011757
0.0010008447
1.4542343e-07
7.9833068e-06
5.4124411e-06
6.4349631e-06
4.5548016e-06
5.183153e-06
4.8534308e-06
5.1799695e-06
5.7698083e-06
5.2765724e-06
5.1880875e-06
4.9430061e-06
4.8207756e-06
4.74079e-06
4.7085423e-06
4.7130079e-06
4.7504646e-06
4.8194334e-06
4.9178481e-06
5.0278637e-06
5.1811474e-06
5.3682092e-06
5.5913192e-06
5.8534503e-06
6.1588811e-06
6.5121827e-06
6.9203379e-06
7.3915298e-06
7.9345934e-06
8.5616677e-06
9.2872114e-06
1.0129685e-05
1.1061424e-05
1.2197822e-05
1.3531326e-05
1.5102548e-05
1.696302e-05
1.9176098e-05
2.1821717e-05
2.4998342e-05
2.8826263e-05
3.3708764e-05
3.9372136e-05
4.6253918e-05
5.4632308e-05
6.4851086e-05
7.7344967e-05
9.2636792e-05
0.00011136606
0.00013555867
0.00016390966
0.00019871528
0.0002414675
0.00029683262
0.00036186828
0.00044189327
0.00054043753
0.00066188755
0.000811732
0.00099683114
0.0010138765
0.0010132378
0.0010125432
0.0010117842
0.0010109461
0.0010100109
0.001008959
0.0010077741
0.0010064408
0.0010049678
0.0010037626
0.0010027797
0.0010019971
0.0010014093
0.0010010239
0.0010007479
0.0010006746
0.0010007991
0.0010009349
0.0010006349
1.357641e-07
7.8566793e-06
4.39077e-06
5.5995398e-06
4.0526324e-06
4.571641e-06
4.5231834e-06
4.479796e-06
4.9342868e-06
4.4703826e-06
4.3629076e-06
4.1918207e-06
4.1063641e-06
4.0608949e-06
4.0555568e-06
4.0825692e-06
4.1389195e-06
4.2073025e-06
4.3141613e-06
4.4511381e-06
4.6190985e-06
4.8195807e-06
5.0555453e-06
5.3301759e-06
5.6483191e-06
6.0148135e-06
6.4367117e-06
6.9019078e-06
7.4552329e-06
8.0932911e-06
8.8305876e-06
9.6856039e-06
1.0680934e-05
1.1844964e-05
1.3211552e-05
1.4822641e-05
1.6732094e-05
1.900565e-05
2.1726428e-05
2.4997906e-05
2.8945945e-05
3.3729066e-05
3.9538848e-05
4.6611141e-05
5.523632e-05
6.6323576e-05
7.9310734e-05
9.5220519e-05
0.00011472498
0.00013865229
0.00016960058
0.00020592312
0.00025056466
0.00030544753
0.00037652201
0.00046018459
0.00056323183
0.00069024879
0.00084697575
0.0010141928
0.0010135389
0.0010128579
0.0010121248
0.0010113296
0.001010459
0.0010094969
0.0010084233
0.0010072205
0.0010059013
0.0010045694
0.0010035023
0.0010026233
0.00100191
0.0010013553
0.0010009716
0.001000721
0.0010005773
0.0010006302
0.0010007156
0.0010005247
1.2719167e-07
7.5389178e-06
3.6831368e-06
4.8575951e-06
3.6049259e-06
4.0292777e-06
4.0084908e-06
3.8462578e-06
4.129921e-06
3.7572199e-06
3.6552645e-06
3.5431159e-06
3.4921486e-06
3.4771277e-06
3.4964008e-06
3.5315828e-06
3.6000097e-06
3.6974924e-06
3.8232474e-06
3.9775394e-06
4.1618676e-06
4.3782956e-06
4.6302074e-06
4.9210777e-06
5.244285e-06
5.6247478e-06
6.0610785e-06
6.5614398e-06
7.1360904e-06
7.7972504e-06
8.5598055e-06
9.4429895e-06
1.0470329e-05
1.1671301e-05
1.3082112e-05
1.4746267e-05
1.6720542e-05
1.9073816e-05
2.1892684e-05
2.5286876e-05
2.9387413e-05
3.4360988e-05
4.0411932e-05
4.7787009e-05
5.6793497e-05
6.7808151e-05
8.2016229e-05
9.8675899e-05
0.00011911177
0.00014420477
0.00017501501
0.00021489508
0.00026177863
0.00031944716
0.0003903965
0.00048225092
0.00059060905
0.00072417923
0.00088898854
0.0010138759
0.0010131924
0.0010124722
0.0010117036
0.0010108756
0.0010099757
0.0010089899
0.0010079027
0.0010066958
0.0010053845
0.0010042422
0.001003297
0.0010025114
0.0010018593
0.0010013372
0.0010009532
0.0010006955
0.001000517
0.0010004979
0.001000532
0.0010003798
1.1977916e-07
7.1253155e-06
3.2339827e-06
4.1991673e-06
3.2059756e-06
3.3987461e-06
3.5525357e-06
3.2659964e-06
3.402995e-06
3.1374874e-06
3.056113e-06
2.9904807e-06
2.970829e-06
2.9829701e-06
3.0098611e-06
3.0735788e-06
3.1651453e-06
3.283392e-06
3.428452e-06
3.6013245e-06
3.8040557e-06
4.0389934e-06
4.3016791e-06
4.6094159e-06
4.9614455e-06
5.3634976e-06
5.8224597e-06
6.3467844e-06
6.9469393e-06
7.6359174e-06
8.4290809e-06
9.3464861e-06
1.0412737e-05
1.1658798e-05
1.3066914e-05
1.4781351e-05
1.6817203e-05
1.9247029e-05
2.229464e-05
2.5837502e-05
3.0122745e-05
3.5325278e-05
4.166343e-05
4.9397734e-05
5.8851829e-05
7.0426188e-05
8.4611855e-05
0.00010201109
0.00012446543
0.00015090861
0.00018339672
0.00022332966
0.00027501309
0.00033589071
0.00041081128
0.00050795718
0.00062242327
0.00076352513
0.00093760041
0.0010135504
0.0010128354
0.0010120798
0.0010112788
0.001010422
0.0010094971
0.0010084902
0.0010073917
0.0010062057
0.001004974
0.0010039737
0.00100314
0.0010024377
0.0010018394
0.0010013409
0.0010009546
0.0010006823
0.0010005003
0.0010004078
0.0010003975
0.0010002689
1.1379045e-07
6.2101471e-06
2.8495523e-06
3.6011641e-06
2.8597656e-06
2.8175656e-06
3.0990951e-06
2.7409029e-06
2.7792599e-06
2.6080433e-06
2.5541252e-06
2.526129e-06
2.5272098e-06
2.556887e-06
2.6178888e-06
2.7061688e-06
2.8198788e-06
2.9588778e-06
3.1240545e-06
3.3168526e-06
3.5345963e-06
3.7882751e-06
4.0780517e-06
4.4080156e-06
4.7830509e-06
5.209079e-06
5.6932995e-06
6.244491e-06
6.8734496e-06
7.5770749e-06
8.39948e-06
9.349122e-06
1.0451626e-05
1.1739096e-05
1.3251687e-05
1.5039603e-05
1.7164919e-05
1.9705343e-05
2.2757297e-05
2.6439906e-05
3.0901077e-05
3.6584502e-05
4.325154e-05
5.1397091e-05
6.1362491e-05
7.3571953e-05
8.8547056e-05
0.0001069296
0.00013069694
0.00015866268
0.00019304135
0.00023531493
0.00029010576
0.00035459059
0.00043397854
0.00053174745
0.00065837325
0.0008079437
0.00099241985
0.0010132149
0.0010124684
0.0010116814
0.0010108512
0.001009969
0.0010090239
0.0010080028
0.0010068941
0.0010057154
0.0010046406
0.001003758
0.0010030199
0.0010023902
0.0010018408
0.0010013658
0.001000978
0.001000684
0.0010004771
0.0010003674
0.0010003385
0.001000223
1.0881111e-07
4.3249827e-06
2.5014617e-06
3.0465601e-06
2.4266768e-06
2.33066e-06
2.6246591e-06
2.2739578e-06
2.2604594e-06
2.1622152e-06
2.1386486e-06
2.135966e-06
2.1648615e-06
2.2246641e-06
2.3113564e-06
2.4226417e-06
2.5578925e-06
2.7176547e-06
2.9006281e-06
3.112857e-06
3.3554029e-06
3.6311469e-06
3.9435894e-06
4.2969809e-06
4.6964429e-06
5.1481439e-06
5.6595691e-06
6.2304974e-06
6.8872161e-06
7.6371766e-06
8.4977033e-06
9.4903184e-06
1.0642149e-05
1.1987269e-05
1.3568398e-05
1.5438793e-05
1.7664666e-05
2.0328415e-05
2.3532573e-05
2.7404391e-05
3.2101574e-05
3.7818592e-05
4.5129125e-05
5.3730455e-05
6.426241e-05
7.7175081e-05
9.3022498e-05
0.00011248784
0.00013641315
0.00016732343
0.00020378013
0.00024862888
0.00030382241
0.0003752568
0.0004595498
0.000563378
0.00069795585
0.00085683774
0.001013632
0.0010128708
0.0010120933
0.0010112789
0.0010104231
0.0010095184
0.0010085556
0.0010075267
0.0010064311
0.0010053016
0.0010043683
0.0010035855
0.0010029269
0.0010023589
0.0010018548
0.0010014054
0.0010010193
0.0010007062
0.0010004744
0.001000356
0.0010003437
0.001000247
1.0350542e-07
3.566355e-06
2.1386679e-06
2.5370684e-06
2.0723966e-06
1.9239953e-06
2.138284e-06
1.8648793e-06
1.8387215e-06
1.7957248e-06
1.798379e-06
1.8264768e-06
1.8868024e-06
1.973093e-06
2.0830128e-06
2.2157205e-06
2.371495e-06
2.5495507e-06
2.7546637e-06
2.9879938e-06
3.2521031e-06
3.5500905e-06
3.8856566e-06
4.2632162e-06
4.6880671e-06
5.1666018e-06
5.7002764e-06
6.3084629e-06
6.9986152e-06
7.7852544e-06
8.6866489e-06
9.7256113e-06
1.0930842e-05
1.2338435e-05
1.3993831e-05
1.5953946e-05
1.8289473e-05
2.1088066e-05
2.4458778e-05
2.8536457e-05
3.3488549e-05
3.9808049e-05
4.7239834e-05
5.6331995e-05
6.7473945e-05
8.1143319e-05
9.7928605e-05
0.00011855547
0.00014525197
0.00017669737
0.0002153794
0.00026298643
0.00032159619
0.00039747338
0.00048702883
0.00059736022
0.00074041702
0.00090928742
0.001013297
0.0010125184
0.0010117135
0.0010108752
0.0010099975
0.0010090743
0.0010080974
0.00100706
0.001005977
0.0010049741
0.0010041467
0.0010034489
0.0010028551
0.0010023387
0.0010018774
0.001001459
0.0010010817
0.0010007507
0.0010004898
0.0010003587
0.0010003576
0.0010002842
9.9600593e-08
2.8469957e-06
1.825202e-06
2.0279763e-06
1.779053e-06
1.5760451e-06
1.6897169e-06
1.5183755e-06
1.5067112e-06
1.5073324e-06
1.5366552e-06
1.5976053e-06
1.6843182e-06
1.7933357e-06
1.9237791e-06
2.0758972e-06
2.2496789e-06
2.4482616e-06
2.6732519e-06
2.9270037e-06
3.2123247e-06
3.5324947e-06
3.8913524e-06
4.2934368e-06
4.7441863e-06
5.246626e-06
5.8141027e-06
6.4541727e-06
7.1789759e-06
8.0037489e-06
8.9478334e-06
1.0035409e-05
1.1296929e-05
1.2770646e-05
1.4504692e-05
1.6559624e-05
1.9011185e-05
2.1952428e-05
2.5499616e-05
2.9795969e-05
3.5249333e-05
4.1669934e-05
4.9515607e-05
5.9122314e-05
7.0902171e-05
8.5363016e-05
0.00010312969
0.00012497329
0.0001532125
0.00018652873
0.00022753225
0.0002780165
0.00034019401
0.00042066341
0.00051571837
0.00063285137
0.00078471144
0.00096401453
0.0010129596
0.0010121618
0.0010113334
0.0010104744
0.0010095781
0.0010086393
0.0010076543
0.0010066244
0.0010055785
0.0010047081
0.0010039703
0.0010033438
0.0010028037
0.0010023298
0.0010019061
0.0010015199
0.0010011588
0.0010008181
0.0010005308
0.0010003695
0.0010003442
0.0010003046
9.7293688e-08
2.2188352e-06
1.5525581e-06
1.5441267e-06
1.50871e-06
1.278777e-06
1.3247504e-06
1.2417402e-06
1.2574414e-06
1.2889451e-06
1.3514608e-06
1.4382308e-06
1.5462694e-06
1.674274e-06
1.8225307e-06
1.9920771e-06
2.1838017e-06
2.4007018e-06
2.6446377e-06
2.918186e-06
3.2243008e-06
3.566383e-06
3.9483776e-06
4.3749268e-06
4.8515809e-06
5.3850858e-06
5.983757e-06
6.6579314e-06
7.4120567e-06
8.2756144e-06
9.2632281e-06
1.0400539e-05
1.1719883e-05
1.326188e-05
1.5077421e-05
1.7300234e-05
1.9890427e-05
2.3001336e-05
2.6757115e-05
3.1311045e-05
3.685207e-05
4.3612733e-05
5.1880528e-05
6.2009611e-05
7.4436501e-05
8.9699567e-05
0.0001084616
0.0001326886
0.00016129695
0.00019650477
0.00023985437
0.00029324807
0.00036243136
0.00044409325
0.00054472265
0.00066876294
0.00082948687
0.0010134461
0.0010126262
0.0010118079
0.0010109592
0.0010100823
0.0010091709
0.0010082194
0.0010072252
0.0010062059
0.001005267
0.0010044911
0.0010038318
0.0010032662
0.0010027725
0.001002334
0.0010019395
0.0010015789
0.0010012361
0.0010008979
0.0010005905
0.0010003948
0.0010003302
0.0010002423
9.7376563e-08
1.6837627e-06
1.3224622e-06
1.1739501e-06
1.2366638e-06
1.0300443e-06
1.0568132e-06
1.0371278e-06
1.0811311e-06
1.1420552e-06
1.228556e-06
1.3348565e-06
1.4599138e-06
1.6038947e-06
1.7678807e-06
1.9533949e-06
2.1619913e-06
2.3962638e-06
2.6584173e-06
2.951142e-06
3.2774812e-06
3.640918e-06
4.0454881e-06
4.4959404e-06
4.9979592e-06
5.5584654e-06
6.1860202e-06
6.8913299e-06
7.6878773e-06
8.5927206e-06
9.6274364e-06
1.0819372e-05
1.2203016e-05
1.3821776e-05
1.5730039e-05
1.7995721e-05
2.0703407e-05
2.3958433e-05
2.7891267e-05
3.2663561e-05
3.8475155e-05
4.5572119e-05
5.425571e-05
6.4899439e-05
7.7962555e-05
9.4789734e-05
0.00011467228
0.00013912566
0.00016921922
0.00020627324
0.00025191522
0.0003110455
0.00038086549
0.00046691464
0.00057299819
0.00071064659
0.00087313545
0.0010131328
0.0010123042
0.0010114655
0.0010105993
0.0010097058
0.0010087817
0.0010078242
0.0010068348
0.0010058423
0.0010050178
0.0010043187
0.0010037248
0.0010032113
0.0010027585
0.0010023509
0.0010019788
0.0010016334
0.0010013013
0.0010009716
0.0010006654
0.0010004465
0.0010003325
0.0010002007
1.0065426e-07
1.2471007e-06
1.1317904e-06
9.0327014e-07
1.0783943e-06
8.2504175e-07
8.728338e-07
8.9823989e-07
9.64966e-07
1.0489568e-06
1.1528408e-06
1.2741792e-06
1.4133716e-06
1.571431e-06
1.7498485e-06
1.9503655e-06
2.1749592e-06
2.4256896e-06
2.7052204e-06
3.0162251e-06
3.3618155e-06
3.7455526e-06
4.171566e-06
4.644722e-06
5.1708544e-06
5.7570783e-06
6.4122136e-06
7.1473616e-06
7.9765472e-06
8.917594e-06
9.9930737e-06
1.123167e-05
1.2669599e-05
1.4352471e-05
1.6337459e-05
1.869599e-05
2.1516954e-05
2.4910669e-05
2.9013732e-05
3.3995006e-05
4.0336262e-05
4.7808668e-05
5.6952444e-05
6.8160773e-05
8.1917501e-05
9.8819246e-05
0.00011960216
0.00014517463
0.00017665447
0.0002174405
0.00026557337
0.00032488079
0.00039798518
0.00048812575
0.00060514795
0.00074330109
0.00091368032
0.0010128362
0.0010119976
0.0010111438
0.0010102639
0.0010093562
0.0010084182
0.0010074514
0.0010064724
0.0010055658
0.00100482
0.0010041864
0.0010036452
0.0010031751
0.0010027578
0.0010023787
0.001002027
0.0010016929
0.0010013654
0.0010010397
0.0010007387
0.0010005122
0.0010003698
0.0010002092
1.0722938e-07
9.6051528e-07
9.6544788e-07
7.6432527e-07
7.6802632e-07
7.0366446e-07
7.4966817e-07
8.1025126e-07
8.9420115e-07
9.9430439e-07
1.1112908e-06
1.2450833e-06
1.3967635e-06
1.5676677e-06
1.7594103e-06
1.9737919e-06
2.2128232e-06
2.478744e-06
2.7740614e-06
3.1015963e-06
3.4645493e-06
3.8665902e-06
4.3119836e-06
4.8057673e-06
5.3540012e-06
5.9620027e-06
6.6419584e-06
7.4040301e-06
8.2701057e-06
9.2473265e-06
1.0364328e-05
1.1651254e-05
1.314614e-05
1.489683e-05
1.6963256e-05
1.9420201e-05
2.2360664e-05
2.5899996e-05
3.0180942e-05
3.5379901e-05
4.1714627e-05
4.9453761e-05
5.8928418e-05
7.0544923e-05
8.4806131e-05
0.00010233149
0.00012498791
0.00015171895
0.00018462284
0.00022514877
0.00027508586
0.00033664679
0.00041256486
0.00051102902
0.00062742616
0.00077103706
0.0009482417
0.0010125689
0.0010117182
0.0010108509
0.0010099612
0.0010090456
0.0010081014
0.0010071319
0.0010061675
0.0010053563
0.0010046712
0.0010040906
0.0010035918
0.0010031564
0.0010027681
0.0010024137
0.0010020821
0.0010017626
0.0010014448
0.0010011249
0.0010008204
0.0010005688
0.0010003878
0.0010002499
1.2179269e-07
9.6601261e-07
8.0519587e-07
5.6634788e-07
6.1023166e-07
6.1341109e-07
6.7757185e-07
7.5693216e-07
8.5437945e-07
9.6666415e-07
1.0948036e-06
1.2396354e-06
1.4024698e-06
1.5847367e-06
1.7880759e-06
2.0143134e-06
2.2654903e-06
2.5438896e-06
2.8520729e-06
3.1929258e-06
3.5697193e-06
3.9861982e-06
4.4467052e-06
4.9563608e-06
5.5213175e-06
6.1491098e-06
6.8491199e-06
7.6331753e-06
8.5163102e-06
9.5176766e-06
1.0661642e-05
1.1979169e-05
1.3509377e-05
1.5301495e-05
1.7417177e-05
1.9933327e-05
2.2945544e-05
2.6572307e-05
3.0960129e-05
3.6289893e-05
4.2784771e-05
5.1083021e-05
6.0873598e-05
7.287515e-05
8.7607082e-05
0.00010570904
0.00012797108
0.00015536916
0.00018910935
0.00023068074
0.00028192828
0.00034831846
0.00042686096
0.0005237689
0.00064338295
0.00079106637
0.00097341881
0.0010123574
0.0010114898
0.0010106045
0.0010097008
0.0010087763
0.0010078302
0.0010068706
0.0010059475
0.0010052017
0.0010045669
0.0010040282
0.0010035634
0.0010031555
0.0010027898
0.0010024539
0.0010021376
0.0010018315
0.0010015273
0.0010012219
0.0010009238
0.0010006516
0.0010004095
0.0010001603
1.1164122e-07
6.2187279e-07
6.37987e-07
4.6896448e-07
5.120259e-07
5.5820135e-07
6.3742465e-07
7.3042562e-07
8.385692e-07
9.6119791e-07
1.0994054e-06
1.2542588e-06
1.4270932e-06
1.6193926e-06
1.8328306e-06
2.069281e-06
2.3308416e-06
2.6198293e-06
2.9389192e-06
3.2910509e-06
3.6795704e-06
4.1082988e-06
4.5816587e-06
5.1048544e-06
5.6841319e-06
6.3271348e-06
7.0433795e-06
7.8448727e-06
8.7539562e-06
9.7791923e-06
1.0950323e-05
1.2299136e-05
1.3865743e-05
1.5700586e-05
1.7866779e-05
2.0443015e-05
2.3527062e-05
2.7240069e-05
3.1731855e-05
3.7187406e-05
4.3834862e-05
5.1955289e-05
6.1894721e-05
7.408088e-05
8.9040751e-05
0.0001074252
0.00013003835
0.00015925942
0.00019379822
0.00023635189
0.00028881302
0.00035352178
0.00043337651
0.00053196732
0.00065374121
0.00080420164
0.00099012598
0.0010122333
0.0010113504
0.0010104454
0.0010095209
0.0010085762
0.0010076157
0.0010066603
0.0010058053
0.0010051006
0.0010045044
0.001003997
0.0010035586
0.0010031723
0.001002824
0.0010025013