/*--------------------------------*- C++ -*----------------------------------*\
  =========                 |
  \\      /  F ield         | OpenFOAM: The Open Source CFD Toolbox
   \\    /   O peration     | Website:  https://openfoam.org
    \\  /    A nd           | Version:  12
     \\/     M anipulation  |
\*---------------------------------------------------------------------------*/
FoamFile
{
    format      ascii;
    class       volScalarField;
    location    "0.08";
    object      T;
}
// * * * * * * * * * * * * * * * * * * * * * * * * * * * * * * * * * * * * * //

dimensions      [0 0 0 1 0 0 0];

internalField   nonuniform List<scalar> 
16000
(
295.00786
286.69204
289.91287
288.1632
289.25267
288.75576
289.17131
289.0641
289.25823
289.29292
289.41299
289.49741
289.60208
289.70412
289.81202
289.92313
290.03828
290.15733
290.28035
290.40736
290.53836
290.67336
290.81233
290.95522
291.10195
291.25244
291.40656
291.56416
291.72507
291.88908
292.05595
292.22542
292.39719
292.57095
292.74635
292.92302
293.10057
293.27861
293.45671
293.63447
293.81144
293.98722
294.1614
294.33356
294.50335
294.6704
294.83439
294.99502
295.15203
295.30519
295.45432
295.59927
295.73991
295.87619
296.00807
296.13553
296.25861
296.37736
296.49185
296.60217
296.70846
296.8108
296.90927
297.00394
297.09478
297.18169
297.26443
297.34256
297.41541
297.48196
297.54095
297.59108
297.63163
297.66334
297.69024
297.71334
297.76949
297.76145
297.93828
297.84878
294.71482
286.29966
289.67879
287.81964
288.97576
288.44204
288.89256
288.77598
288.98444
289.02448
289.15151
289.24474
289.35652
289.46731
289.58356
289.7036
289.82786
289.95631
290.08899
290.2259
290.36704
290.51236
290.66182
290.81533
290.97279
291.13407
291.299
291.46738
291.639
291.81358
291.99085
292.17048
292.35213
292.53542
292.71995
292.9053
293.09104
293.27672
293.46189
293.6461
293.8289
294.00985
294.18854
294.36456
294.53755
294.70718
294.87313
295.03515
295.19301
295.34653
295.49556
295.64001
295.77981
295.91495
296.04542
296.17127
296.29257
296.40942
296.52191
296.63017
296.73434
296.83453
296.93084
297.02331
297.11194
297.19663
297.27713
297.35303
297.42364
297.488
297.54486
297.59301
297.63188
297.66235
297.68782
297.71599
297.75627
297.78755
297.91596
297.88082
294.43639
285.93547
289.41137
287.51934
288.7147
288.17088
288.63502
288.52613
288.73947
288.79117
288.92369
289.02739
289.14723
289.26771
289.39347
289.52349
289.65799
289.79697
289.94044
290.08837
290.24072
290.39744
290.55843
290.72356
290.8927
291.06565
291.2422
291.4221
291.60506
291.79077
291.97888
292.169
292.36071
292.55358
292.74716
292.94096
293.13449
293.32727
293.51881
293.70862
293.89624
294.08123
294.26315
294.44164
294.61635
294.78696
294.95323
295.11492
295.27187
295.42395
295.57108
295.71322
295.85038
295.98259
296.10991
296.23245
296.35032
296.46366
296.57261
296.67732
296.77795
296.87464
296.96748
297.05654
297.14178
297.22312
297.3003
297.37289
297.44024
297.50136
297.55509
297.60032
297.63662
297.6651
297.68979
297.71844
297.75365
297.80222
297.90624
297.89853
294.18137
285.60294
289.19735
287.25635
288.48711
287.93278
288.41089
288.31123
288.53007
288.59489
288.73394
288.84931
288.97852
289.10987
289.24641
289.38761
289.53353
289.68419
289.83956
289.99957
290.16417
290.33325
290.50667
290.68426
290.86583
291.05113
291.23988
291.43178
291.62645
291.82352
292.02255
292.22309
292.42465
292.62672
292.82877
293.03028
293.23071
293.42951
293.62618
293.82021
294.01113
294.1985
294.38193
294.56105
294.73557
294.90522
295.06981
295.22918
295.38323
295.53192
295.67522
295.81318
295.94587
296.0734
296.19589
296.3135
296.4264
296.53478
296.63881
296.73867
296.83454
296.92657
297.01487
297.0995
297.18043
297.25755
297.3306
297.39916
297.46254
297.51982
297.56986
297.61168
297.645
297.67121
297.69481
297.72241
297.75668
297.8105
297.90143
297.91446
293.95024
285.30625
288.99907
287.03755
288.30593
287.73622
288.22474
288.13859
288.36173
288.4421
288.58841
288.71677
288.85667
288.99998
289.1485
289.30199
289.46045
289.62387
289.7922
289.96535
290.1432
290.32562
290.51241
290.70335
290.89816
291.09652
291.29809
291.50245
291.70917
291.91776
292.12771
292.33848
292.54949
292.76016
292.9699
293.17812
293.38424
293.58769
293.78793
293.98446
294.17683
294.36463
294.54749
294.72511
294.89726
295.06375
295.22446
295.37933
295.52833
295.67151
295.80895
295.94076
296.06709
296.18813
296.30407
296.41513
296.52152
296.62348
296.72122
296.81494
296.90485
296.9911
297.0738
297.15301
297.22869
297.30073
297.36884
297.43259
297.49129
297.54403
297.58975
297.6276
297.65746
297.68102
297.70298
297.72922
297.76362
297.81899
297.90147
297.92774
293.7469
285.05251
288.83297
286.85537
288.14564
287.58733
288.08753
288.01411
288.24213
288.33837
288.49274
288.63481
288.78651
288.94267
289.10419
289.27103
289.44314
289.62047
289.80293
289.99039
290.18267
290.37955
290.58077
290.78602
290.99493
291.20708
291.42202
291.63924
291.85818
292.07826
292.29887
292.51936
292.73907
292.95736
293.17355
293.38703
293.59717
293.80339
294.00517
294.20203
294.39356
294.57938
294.75923
294.93288
295.10018
295.26105
295.41546
295.56347
295.70514
295.84064
295.97012
296.0938
296.21191
296.3247
296.43245
296.53541
296.63387
296.72807
296.81828
296.90471
296.98757
297.06702
297.14319
297.2161
297.28572
297.3519
297.41436
297.47263
297.52603
297.57367
297.61456
297.64797
297.67396
297.69454
297.71439
297.73899
297.7734
297.82904
297.90325
297.93668
293.57389
284.84303
288.70027
286.70941
288.02219
287.48706
287.98576
287.93946
288.16682
288.28506
288.44847
288.60502
288.76991
288.94021
289.11624
289.29798
289.48533
289.67819
289.87639
290.07971
290.2879
290.50064
290.71755
290.9382
291.16212
291.38876
291.61754
291.84782
292.07893
292.31015
292.54078
292.77006
292.99726
293.22166
293.44255
293.65927
293.87121
294.07781
294.27857
294.47308
294.661
294.84206
295.01608
295.18295
295.34266
295.49523
295.64078
295.77946
295.91147
296.03708
296.15654
296.27016
296.37826
296.48116
296.57918
296.67264
296.76186
296.84711
296.92868
297.00679
297.08166
297.15345
297.22226
297.28811
297.35096
297.41063
297.46681
297.51903
297.56659
297.60862
297.64424
297.67281
297.69461
297.71186
297.72917
297.75177
297.78551
297.84009
297.90634
297.94146
293.42861
284.67546
288.59727
286.59791
287.92799
287.41645
287.92001
287.88214
288.1422
288.2804
288.45547
288.62841
288.80896
288.99566
289.18849
289.38738
289.59218
289.80268
290.01863
290.23969
290.4655
290.69562
290.92952
291.16665
291.40637
291.648
291.89079
292.13397
292.37673
292.61825
292.85768
293.0942
293.327
293.55533
293.77846
293.99574
294.20659
294.41052
294.60711
294.79605
294.97713
295.1502
295.31524
295.47228
295.62144
295.76292
295.89695
296.02383
296.14389
296.25747
296.36496
296.46674
296.5632
296.65471
296.74166
296.8244
296.90327
296.97856
297.05057
297.11953
297.18564
297.24905
297.30985
297.36804
297.42354
297.47616
297.52557
297.57126
297.61255
297.64861
297.6786
297.70203
297.71936
297.73299
297.74735
297.7675
297.79978
297.85193
297.91045
297.94557
293.30614
284.5481
288.52764
286.52139
287.88305
287.42614
287.91612
287.9427
288.16851
288.32861
288.51887
288.71073
288.90989
289.1157
289.328
289.54662
289.77132
290.00178
290.23762
290.47838
290.72353
290.97247
291.22452
291.47893
291.73489
291.99155
292.248
292.50331
292.75653
293.0067
293.25292
293.49428
293.72996
293.95918
294.18125
294.3956
294.60173
294.79926
294.98792
295.16756
295.33812
295.49966
295.65231
295.79629
295.93189
296.05946
296.17938
296.29209
296.39803
296.49765
296.59142
296.67979
296.76322
296.84212
296.9169
296.98794
297.05558
297.12014
297.1819
297.24107
297.29785
297.35237
297.40467
297.45475
297.50249
297.54767
297.58993
297.62876
297.66348
297.69327
297.7174
297.73546
297.74813
297.75787
297.7689
297.78619
297.81622
297.86447
297.91549
297.95084
293.20574
284.46291
288.49614
286.49626
287.89195
287.43915
287.95615
288.00594
288.25259
288.43852
288.64745
288.86079
289.08154
289.30932
289.54389
289.78494
290.03209
290.28488
290.54274
290.80504
291.07106
291.33998
291.61092
291.8829
292.15494
292.42595
292.69488
292.96061
293.2221
293.47829
293.72821
293.97096
294.20571
294.43177
294.64856
294.85561
295.05261
295.23935
295.41579
295.58196
295.73804
295.8843
296.02106
296.14876
296.26785
296.37885
296.48228
296.57869
296.66864
296.75266
296.83127
296.905
296.97432
297.03967
297.10148
297.16014
297.21597
297.26928
297.32033
297.36933
297.41643
297.46173
297.50525
297.54695
297.58667
297.62418
297.65908
297.69084
297.71879
297.74217
297.76028
297.77286
297.78071
297.78632
297.7937
297.80778
297.83481
297.87784
297.92194
297.95738
293.13116
284.42826
288.50899
286.59288
287.95851
287.57535
288.05543
288.15271
288.40486
288.61848
288.8501
289.088
289.3336
289.58653
289.8464
290.11274
290.38497
290.66242
290.94431
291.22975
291.51776
291.80728
292.09716
292.38619
292.67315
292.95676
293.23578
293.50901
293.77527
294.0335
294.28273
294.52211
294.75096
294.96872
295.17499
295.36955
295.55232
295.72337
295.8829
296.03122
296.16876
296.29601
296.41354
296.52195
296.62188
296.71399
296.79892
296.87731
296.9498
297.01699
297.07943
297.13766
297.19217
297.24341
297.2918
297.3377
297.38143
297.42326
297.46342
297.50209
297.53938
297.57536
297.61
297.64323
297.67486
297.70461
297.73207
297.75671
297.77785
297.79476
297.80683
297.81388
297.81683
297.8181
297.82155
297.8321
297.85537
297.89225
297.93004
297.96481
293.08907
284.45714
288.5746
286.72866
288.06962
287.74298
288.22322
288.36465
288.63437
288.87821
289.13684
289.40291
289.67701
289.95856
290.247
290.54161
290.84154
291.14583
291.4534
291.76304
292.07345
292.38327
292.69104
292.99532
293.29463
293.58755
293.8727
294.1488
294.41469
294.66937
294.91199
295.14188
295.35859
295.56183
295.75152
295.92774
296.09075
296.24093
296.37881
296.50498
296.62013
296.725
296.82034
296.90694
296.98557
297.057
297.12196
297.18115
297.23524
297.28486
297.33057
297.3729
297.41233
297.44928
297.48415
297.51727
297.54891
297.57931
297.60865
297.63707
297.66466
297.69141
297.71728
297.74213
297.76576
297.78783
297.80793
297.82551
297.83991
297.85043
297.85651
297.85809
297.8561
297.85287
297.85216
297.85885
297.87763
297.90777
297.9397
297.9727
293.08395
284.55488
288.70281
286.92162
288.24525
287.99407
288.46907
288.65924
288.95114
289.22853
289.51896
289.81747
290.1242
290.43823
290.75871
291.08457
291.41459
291.74743
292.08158
292.41547
292.74742
293.07573
293.39866
293.7145
294.02162
294.31849
294.6037
294.87604
295.13449
295.37825
295.60676
295.81969
296.01697
296.1987
296.36521
296.517
296.65469
296.77903
296.89087
296.99108
297.08059
297.16034
297.23124
297.2942
297.3501
297.39974
297.44392
297.48335
297.51868
297.55054
297.57947
297.60596
297.63046
297.65334
297.67495
297.69557
297.71543
297.73471
297.75356
297.77206
297.79023
297.80805
297.82542
297.84216
297.85801
297.87264
297.8856
297.89632
297.90416
297.90847
297.90873
297.90494
297.89803
297.89022
297.88519
297.88764
297.90119
297.92424
297.95062
297.98073
293.11773
284.7289
288.89834
287.19788
288.49404
288.32634
288.80305
289.04501
289.36696
289.68244
290.01016
290.34614
290.69011
291.0407
291.39662
291.75629
292.11803
292.47996
292.84015
293.19656
293.54714
293.88984
294.22269
294.54383
294.85158
295.14444
295.42118
295.68085
295.92277
296.14658
296.35218
296.53976
296.70975
296.86276
296.9996
297.12119
297.22857
297.32281
297.40504
297.47638
297.53792
297.59075
297.63588
297.67426
297.70682
297.73436
297.75767
297.77742
297.79425
297.80871
297.8213
297.83246
297.84257
297.85195
297.86088
297.86958
297.87823
297.88696
297.89585
297.90493
297.91418
297.92353
297.93282
297.94184
297.95031
297.95785
297.96399
297.96817
297.96975
297.96811
297.9628
297.95383
297.94208
297.92966
297.92016
297.91795
297.9256
297.94142
297.9626
297.98872
293.19512
284.99226
289.16461
287.5605
288.82911
288.75361
289.23894
289.53688
289.89735
290.25685
290.62802
291.00699
291.3929
291.78378
292.17769
292.57248
292.96582
293.3553
293.73846
294.11283
294.47601
294.82573
295.15993
295.47678
295.77478
296.05279
296.31
296.54601
296.76075
296.95449
297.1278
297.2815
297.4166
297.53428
297.63579
297.72248
297.79571
297.85681
297.90712
297.9479
297.98034
298.00556
298.02461
298.03844
298.04791
298.05382
298.05687
298.05767
298.0568
298.05472
298.05186
298.04858
298.04519
298.04194
298.03904
298.03665
298.03488
298.03381
298.03345
298.03379
298.03475
298.03621
298.03799
298.03982
298.0414
298.0423
298.04206
298.0401
298.03579
298.02855
298.01797
298.00406
297.98761
297.97063
297.95656
297.94925
297.95043
297.95913
297.97557
297.99712
293.32038
285.36314
289.49805
288.02321
289.26336
289.2904
289.7947
290.15441
290.563
290.9736
291.39463
291.82182
292.25348
292.68691
293.1194
293.54805
293.96987
294.38186
294.78106
295.16467
295.53014
295.87523
296.1981
296.49736
296.77206
297.02178
297.2465
297.44664
297.62298
297.77659
297.90879
298.02105
298.11496
298.19217
298.25432
298.30306
298.33994
298.36647
298.38405
298.39398
298.39744
298.39554
298.38925
298.37945
298.36692
298.35237
298.33639
298.31951
298.3022
298.28483
298.26776
298.25124
298.23551
298.22074
298.20707
298.19459
298.18336
298.17337
298.16461
298.157
298.15041
298.14469
298.1396
298.13486
298.13011
298.12493
298.11881
298.11118
298.10144
298.08901
298.07351
298.05493
298.03399
298.01257
297.99386
297.98103
297.97527
297.97715
297.98953
298.00594
293.49803
285.87062
289.90572
288.60375
289.81796
289.95985
290.49588
290.92438
291.39067
291.85934
292.33563
292.81466
293.29365
293.76899
294.23704
294.69408
295.13644
295.5606
295.96338
296.34198
296.69414
297.01816
297.31297
297.57811
297.8137
298.02037
298.19921
298.35165
298.4794
298.58435
298.66848
298.73385
298.78247
298.8163
298.83722
298.84698
298.84723
298.83946
298.82504
298.8052
298.78104
298.75353
298.72354
298.69183
298.65905
298.62577
298.59248
298.55959
298.52746
298.49636
298.46655
298.4382
298.41147
298.38644
298.36319
298.34174
298.32209
298.30418
298.28793
298.27323
298.25991
298.24776
298.23652
298.22587
298.21543
298.20476
298.19333
298.18057
298.16588
298.14872
298.12871
298.10579
298.08061
298.05494
298.03159
298.01291
297.99993
297.9953
298.00381
298.01418
293.7393
286.56061
290.43004
289.33296
290.52346
290.79285
291.37469
291.87876
292.41106
292.94334
293.47808
294.00946
294.53329
295.04483
295.53943
296.01264
296.46039
296.87916
297.26612
297.61925
297.9373
298.21985
298.46723
298.68042
298.86093
299.0107
299.13199
299.22721
299.29888
299.34954
299.38166
299.39761
299.3996
299.38972
299.36985
299.34172
299.30687
299.26668
299.22238
299.17502
299.12556
299.0748
299.02345
298.9721
298.92127
298.8714
298.82283
298.77586
298.73073
298.68763
298.64671
298.60805
298.57173
298.53779
298.5062
298.47695
298.44997
298.42516
298.40239
298.3815
298.36228
298.34449
298.32784
298.31198
298.29652
298.28098
298.26484
298.24751
298.22842
298.20702
298.18293
298.15605
298.12696
298.09729
298.06936
298.04469
298.02426
298.01268
298.01676
298.02229
294.07052
287.41802
291.09765
290.24775
291.41728
291.82387
292.46697
293.05317
293.65777
294.25646
294.84849
295.42674
295.98543
296.51872
297.02138
297.48889
297.91771
298.30538
298.65051
298.95281
299.21294
299.43242
299.61338
299.75848
299.87069
299.95314
300.00903
300.04151
300.0536
300.04816
300.02781
299.99499
299.95187
299.9004
299.84232
299.77917
299.71227
299.64279
299.57173
299.49995
299.42819
299.35707
299.28712
299.21876
299.15236
299.08821
299.02654
298.96753
298.91131
298.85798
298.80759
298.76017
298.71571
298.67417
298.6355
298.59961
298.56638
298.53568
298.50733
298.48113
298.45685
298.4342
298.41289
298.39252
298.3727
298.35293
298.33269
298.31139
298.28845
298.26335
298.23565
298.20524
298.17263
298.13927
298.10693
298.07643
298.0487
298.02958
298.02741
298.03019
294.53157
288.38644
291.95122
291.3832
292.54279
293.09427
293.81511
294.48908
295.16761
295.82836
296.46695
297.075
297.64573
298.17326
298.65311
299.08229
299.45931
299.78416
300.05808
300.28334
300.46303
300.60078
300.70054
300.7664
300.80242
300.81251
300.80038
300.76944
300.72281
300.6633
300.5934
300.5153
300.43094
300.34198
300.24988
300.15585
300.06097
299.96612
299.87206
299.77941
299.6887
299.60036
299.51473
299.43208
299.35264
299.27657
299.20397
299.13493
299.06949
299.00765
298.94939
298.89468
298.84345
298.7956
298.75102
298.70959
298.67115
298.63551
298.60248
298.57182
298.54327
298.51652
298.49125
298.46707
298.44354
298.42017
298.39643
298.37174
298.34553
298.31726
298.28648
298.25302
298.21733
298.18061
298.14407
298.10815
298.07423
298.0487
298.0391
298.03627
295.17742
289.63541
293.03733
292.79078
293.96001
294.66167
295.47129
296.23077
296.97205
297.67458
298.33129
298.93403
299.47714
299.95698
300.37209
300.72296
301.01175
301.24194
301.41796
301.54481
301.6278
301.67227
301.68337
301.666
301.62466
301.56343
301.48599
301.39554
301.29491
301.18655
301.07257
300.95476
300.83466
300.71354
300.59251
300.47246
300.35414
300.23818
300.12507
300.01521
299.90894
299.80649
299.70805
299.61376
299.5237
299.43792
299.35645
299.27926
299.20632
299.13757
299.07292
299.01228
298.95553
298.90253
298.85314
298.80717
298.76445
298.72476
298.68787
298.65353
298.62145
298.59131
298.56276
298.53539
298.50877
298.4824
298.45575
298.42825
298.39932
298.36843
298.33508
298.29909
298.26082
298.22111
298.18063
298.13972
298.10079
298.07121
298.05573
298.03503
296.06452
291.22483
294.44051
294.54944
295.74721
296.59301
297.48302
298.30423
299.07263
299.77151
300.39472
300.93766
301.39909
301.78045
302.08537
302.31917
302.48822
302.59952
302.6602
302.67723
302.65722
302.60624
302.52977
302.43268
302.3192
302.19302
302.05729
301.91468
301.76746
301.61753
301.46647
301.31559
301.16599
301.01855
300.87398
300.73288
300.59569
300.4628
300.33446
300.21089
300.09223
299.97857
299.86997
299.76644
299.66797
299.57451
299.48599
299.40234
299.32344
299.24919
299.17946
299.11409
299.05293
298.99581
298.94255
298.89293
298.84676
298.8038
298.76379
298.72647
298.69152
298.65861
298.62739
298.59743
298.56829
298.53948
298.51047
298.48069
298.44959
298.41658
298.38118
298.34317
298.30278
298.2605
298.21654
298.17112
298.12696
298.09126
298.0676
298.03683
297.17669
293.27816
296.26568
296.74233
297.97083
298.93237
299.85828
300.6819
301.40979
302.03335
302.55266
302.97061
303.29331
303.52883
303.68651
303.77611
303.80732
303.78932
303.73054
303.63854
303.51993
303.38046
303.225
303.05769
302.88199
302.70078
302.51642
302.33088
302.14575
301.96233
301.78165
301.60456
301.4317
301.26361
301.10067
300.94318
300.79136
300.64535
300.50524
300.37108
300.24286
300.12055
300.00411
299.89344
299.78846
299.68904
299.59506
299.50638
299.42285
299.34431
299.27059
299.20151
299.13689
299.07652
299.02019
298.96769
298.91878
298.87321
298.83071
298.791
298.75376
298.71864
298.68528
298.65325
298.62211
298.59137
298.5605
298.52894
298.49612
298.46147
298.42448
298.38491
298.34281
298.29834
298.25142
298.20223
298.15346
298.11129
298.07826
298.03846
298.68698
295.90766
298.60847
299.42334
300.62814
301.65018
302.52371
303.25318
303.84774
304.31128
304.65423
304.88898
305.02929
305.08903
305.08147
305.01875
304.91167
304.76959
304.60048
304.41103
304.20677
303.99226
303.77122
303.54665
303.32097
303.09613
302.87366
302.65478
302.44044
302.23139
302.02817
301.83121
301.6408
301.45717
301.28043
301.11065
300.94786
300.79203
300.6431
300.50099
300.36559
300.23678
300.11442
299.99837
299.88845
299.78451
299.68636
299.59384
299.50675
299.4249
299.3481
299.27614
299.20882
299.1459
299.08718
299.0324
298.98133
298.9337
298.88923
298.84763
298.80858
298.77172
298.73667
298.70303
298.67034
298.6381
298.60581
298.57289
298.53878
298.50289
298.46472
298.42394
298.38044
298.33412
298.28469
298.2324
298.17973
298.13161
298.08938
298.04019
300.64073
299.18373
301.46705
302.56866
303.74357
304.60164
305.30305
305.8265
306.1944
306.42514
306.53982
306.5585
306.49965
306.37952
306.21196
306.00856
305.77879
305.53035
305.26938
305.00078
304.72839
304.45526
304.18374
303.91565
303.65239
303.39502
303.14434
302.90093
302.66521
302.43745
302.21784
302.00646
301.80333
301.60843
301.42169
301.243
301.07224
300.90926
300.7539
300.60598
300.46531
300.33171
300.20498
300.08491
299.97131
299.86397
299.76268
299.66724
299.57743
299.49304
299.41386
299.33966
299.27022
299.20531
299.1447
299.08812
299.03534
298.98608
298.94005
298.89696
298.85647
298.81824
298.78189
298.747
298.71312
298.67977
298.64641
298.61249
298.57743
298.54063
298.50157
298.45984
298.41514
298.36718
298.31567
298.2609
298.20489
298.1511
298.09978
298.04098
303.06457
303.09498
305.08576
306.05188
306.93997
307.54703
307.95151
308.17448
308.25214
308.21396
308.08658
307.89197
307.64806
307.36907
307.06613
306.74787
306.42091
306.09028
305.75979
305.43231
305.10998
304.79436
304.48659
304.18749
303.89761
303.61732
303.34682
303.08623
302.83554
302.5947
302.36361
302.14213
301.93006
301.72723
301.53343
301.34842
301.17198
301.00387
300.84387
300.69173
300.54721
300.41008
300.2801
300.15703
300.04065
299.93072
299.82701
299.72931
299.63737
299.55098
299.46991
299.39392
299.32279
299.25627
299.19411
299.13607
299.08189
299.03129
298.98399
298.93968
298.89805
298.85873
298.82134
298.78548
298.75069
298.71649
298.68234
298.64769
298.61192
298.57445
298.5347
298.49215
298.44639
298.39703
298.34384
298.28703
298.22776
298.16778
298.107
298.04043
306.10137
307.48316
308.80162
309.49849
309.97391
310.18334
310.2086
310.09121
309.87155
309.57972
309.23898
308.8666
308.47535
308.07455
307.67095
307.26939
306.87335
306.48524
306.10677
305.73906
305.38286
305.0386
304.7065
304.38664
304.07896
303.78334
303.49957
303.22744
302.96666
302.71697
302.47807
302.24965
302.03141
301.82305
301.62427
301.43476
301.25423
301.0824
300.91898
300.76369
300.61626
300.47643
300.34393
300.21851
300.09991
299.9879
299.88223
299.78266
299.68896
299.60089
299.51822
299.44071
299.36811
299.3002
299.23671
299.17739
299.12199
299.07023
299.02183
298.97648
298.93385
298.89361
298.85536
298.8187
298.78318
298.7483
298.71354
298.67831
298.64201
298.60399
298.56364
298.52034
298.47357
298.42299
298.36841
298.3098
298.24725
298.18103
298.11164
298.03961
310.01601
311.79152
312.3296
312.51613
312.46364
312.23311
311.88649
311.46583
311.00105
310.51268
310.01465
309.51633
309.02395
308.54162
308.07196
307.61658
307.17643
306.75197
306.34335
305.95048
305.57316
305.21107
304.86382
304.531
304.21217
303.90689
303.61472
303.33522
303.06794
302.81248
302.56843
302.33538
302.11296
301.90079
301.69853
301.50582
301.32234
301.14777
300.98179
300.82411
300.67443
300.53247
300.39796
300.27063
300.15022
300.03648
299.92916
299.82801
299.73279
299.64327
299.5592
299.48035
299.40647
299.33732
299.27264
299.2122
299.15571
299.10292
299.05353
299.00725
298.96376
298.9227
298.8837
298.84636
298.81022
298.7748
298.73954
298.70385
298.66712
298.62866
298.58779
298.5438
298.49613
298.44449
298.38873
298.32847
298.26275
298.19078
298.11421
298.0385
314.93891
315.30986
315.04365
314.67908
314.16164
313.5743
312.9524
312.32132
311.69512
311.08235
310.48774
309.91383
309.36179
308.83196
308.32415
307.83789
307.37254
306.92735
306.50155
306.09433
305.70492
305.33257
304.97655
304.63618
304.31079
303.99977
303.70252
303.4185
303.14718
302.88806
302.64067
302.40456
302.17931
301.96452
301.7598
301.56478
301.37912
301.20247
301.03451
300.87494
300.72345
300.57975
300.44356
300.31461
300.19264
300.07739
299.96861
299.86606
299.76948
299.67864
299.5933
299.51321
299.43815
299.36785
299.30208
299.24058
299.18309
299.12935
299.07906
299.03193
298.98764
298.94585
298.90619
298.86826
298.8316
298.79571
298.76006
298.72402
298.68697
298.64819
298.6069
298.56236
298.51396
298.46145
298.40465
298.34285
298.27431
298.19767
298.11575
298.03789
316.92264
317.08992
316.52181
315.7663
314.99397
314.22064
313.46652
312.73916
312.04198
311.37597
310.74082
310.1356
309.55902
309.0097
308.48623
307.98721
307.51132
307.05733
306.62406
306.21044
305.81546
305.4382
305.07779
304.73345
304.40442
304.09003
303.78963
303.50262
303.22846
302.96661
302.71659
302.47793
302.25019
302.03297
301.82587
301.62851
301.44054
301.26163
301.09145
300.92968
300.77603
300.6302
300.49193
300.36093
300.23695
300.11973
300.00902
299.90459
299.80618
299.71356
299.6265
299.54476
299.4681
299.39627
299.32904
299.26615
299.20734
299.15236
299.10092
299.05272
299.00745
298.96478
298.92432
298.88568
298.84841
298.81201
298.77591
298.7395
298.70212
298.663
298.62133
298.57629
298.52727
298.47401
298.4163
298.35319
298.2825
298.20266
298.11725
298.03779
310.18631
308.99706
305.43518
302.60996
301.34944
301.06215
300.99481
300.99167
300.88371
300.82729
300.72374
300.65613
300.56665
300.48637
300.40254
300.31716
300.23103
300.14419
300.05662
299.96839
299.87959
299.79035
299.7008
299.61107
299.52131
299.43166
299.34226
299.25327
299.16481
299.07703
298.99006
298.90403
298.81908
298.73533
298.65291
298.57195
298.49258
298.41492
298.33912
298.2653
298.19359
298.12413
298.05706
297.99252
297.93064
297.87157
297.81546
297.76244
297.71266
297.66626
297.62339
297.58418
297.54877
297.51731
297.48992
297.46673
297.44786
297.43346
297.42363
297.41853
297.41833
297.42319
297.43326
297.44867
297.46968
297.4962
297.529
297.56687
297.61296
297.66099
297.72292
297.77394
297.85197
297.88101
297.9708
297.93776
298.02306
297.93006
298.02362
297.93189
309.45764
306.64991
302.59732
300.58526
300.02162
300.02147
300.11899
300.13101
300.12673
300.10199
300.07969
300.0429
300.0019
299.95433
299.9031
299.84839
299.79041
299.72934
299.66552
299.59927
299.53089
299.46066
299.38883
299.31566
299.24138
299.16622
299.09039
299.0141
298.93757
298.86097
298.7845
298.70835
298.63269
298.55771
298.48357
298.41045
298.33852
298.26794
298.19887
298.13149
298.06596
298.00243
297.94108
297.88207
297.82555
297.7717
297.72066
297.6726
297.62767
297.58602
297.54781
297.51317
297.48226
297.45521
297.43215
297.41321
297.39852
297.3882
297.38235
297.38112
297.38468
297.39317
297.40673
297.42547
297.4496
297.47908
297.51452
297.55492
297.60296
297.65308
297.71574
297.76801
297.84482
297.8744
297.96032
297.9277
298.01238
297.91768
298.01793
297.92349
308.1128
304.64432
301.64992
299.97054
299.6437
299.68312
299.71861
299.69393
299.66675
299.63474
299.60363
299.56936
299.53323
299.4944
299.45335
299.4098
299.36405
299.31609
299.26602
299.21395
299.15998
299.10425
299.04687
298.988
298.92779
298.86638
298.80394
298.74064
298.67666
298.61216
298.54733
298.48234
298.41739
298.35265
298.28831
298.22457
298.1616
298.09959
298.03873
297.97921
297.92121
297.86493
297.81054
297.75824
297.70819
297.6606
297.61562
297.57344
297.53422
297.49812
297.46532
297.43595
297.41018
297.38814
297.36997
297.35579
297.34573
297.3399
297.33841
297.3414
297.34902
297.36141
297.37868
297.40093
297.42835
297.4609
297.49911
297.54207
297.59218
297.64426
297.70786
297.76112
297.83691
297.86667
297.95043
297.91705
298.00135
297.90568
298.01166
297.91536
306.97516
303.26113
300.49496
299.23022
299.18513
299.20059
299.21894
299.18416
299.16711
299.13876
299.11573
299.0874
299.05891
299.02829
298.99649
298.96306
298.92816
298.89164
298.85351
298.81379
298.77249
298.72965
298.68532
298.63956
298.59246
298.54409
298.49456
298.444
298.39253
298.34028
298.2874
298.23405
298.1804
298.12661
298.07287
298.01936
297.96626
297.91376
297.86207
297.81139
297.7619
297.71381
297.66733
297.62265
297.57998
297.5395
297.50141
297.46589
297.43313
297.4033
297.37658
297.35312
297.33308
297.3166
297.30383
297.29488
297.28989
297.28896
297.2922
297.29973
297.3117
297.32823
297.34944
297.37539
297.40626
297.442
297.48307
297.52866
297.5809
297.63491
297.69953
297.75365
297.8286
297.85826
297.93971
297.90602
297.99018
297.89399
298.00497
297.90756
306.32109
302.08731
299.55562
298.61727
298.69782
298.67194
298.70033
298.66495
298.65978
298.6362
298.622
298.60103
298.58141
298.55983
298.53759
298.51407
298.48943
298.46353
298.43635
298.40787
298.37806
298.34692
298.31447
298.28071
298.24569
298.20945
298.17205
298.13356
298.09407
298.05369
298.01253
297.9707
297.92836
297.88565
297.84273
297.79976
297.75693
297.71442
297.67242
297.63113
297.59075
297.5515
297.51357
297.47718
297.44252
297.40982
297.37925
297.35104
297.32535
297.30238
297.28231
297.2653
297.2515
297.24107
297.23415
297.23086
297.23133
297.23565
297.24394
297.2563
297.27288
297.29379
297.31912
297.34894
297.38339
297.42243
297.46646
297.51472
297.56912
297.62503
297.69071
297.74561
297.81982
297.84919
297.92894
297.89463
297.97887
297.8826
297.99808
297.90012
305.76975
300.92818
298.77175
298.02897
298.18098
298.12584
298.17433
298.13946
298.14924
298.13234
298.12926
298.117
298.10717
298.09507
298.08255
298.06884
298.05413
298.03828
298.02131
298.00319
297.9839
297.96343
297.94178
297.91896
297.89497
297.86984
297.84361
297.81633
297.78805
297.75885
297.72881
297.69804
297.66663
297.63472
297.60245
297.56996
297.53742
297.50499
297.47286
297.44122
297.41026
297.38019
297.35121
297.32353
297.29736
297.2729
297.25036
297.22993
297.21181
297.19619
297.18324
297.17313
297.16603
297.16207
297.1614
297.16414
297.17042
297.18032
297.19394
297.21139
297.23282
297.25831
297.28793
297.32177
297.35991
297.40234
297.44939
297.50038
297.55694
297.61475
297.68147
297.7371
297.8106
297.83962
297.9175
297.88302
297.96742
297.87154
297.99156
297.89303
305.21196
299.91208
298.14112
297.49543
297.69414
297.61334
297.68139
297.64486
297.66698
297.65455
297.66046
297.6553
297.65335
297.6489
297.64429
297.63871
297.63228
297.62495
297.61668
297.60747
297.59728
297.5861
297.57392
297.56072
297.54651
297.5313
297.51511
297.49796
297.47989
297.46095
297.44121
297.42074
297.39963
297.37798
297.35591
297.33355
297.31103
297.28852
297.26619
297.24419
297.22273
297.20198
297.18215
297.16342
297.14602
297.13012
297.11594
297.10366
297.09348
297.08559
297.08015
297.07733
297.07728
297.08016
297.08608
297.09518
297.10756
297.12331
297.14252
297.1653
297.19176
297.222
297.25607
297.29403
297.33597
297.38187
297.43199
297.48572
297.54446
297.60417
297.67184
297.72819
297.801
297.82973
297.90573
297.87129
297.95593
297.86089
297.98652
297.88628
304.75567
298.98537
297.61259
297.00902
297.24526
297.13961
297.22626