/*--------------------------------*- C++ -*----------------------------------*\
  =========                 |
  \\      /  F ield         | OpenFOAM: The Open Source CFD Toolbox
   \\    /   O peration     | Website:  https://openfoam.org
    \\  /    A nd           | Version:  12
     \\/     M anipulation  |
\*---------------------------------------------------------------------------*/
FoamFile
{
    format      ascii;
    class       volScalarField;
    location    "0.05";
    object      alphat;
}
// * * * * * * * * * * * * * * * * * * * * * * * * * * * * * * * * * * * * * //

dimensions      [1 -1 -1 0 0 0 0];

internalField   nonuniform List<scalar> 
16000
(
4.9909277e-07
1.0773417e-05
2.1388099e-05
2.5753673e-05
1.9811198e-05
2.7265751e-05
1.9252223e-05
2.6385993e-05
2.059005e-05
2.835547e-05
2.3903623e-05
2.8078365e-05
2.5632409e-05
2.6330444e-05
2.5467283e-05
2.5345939e-05
2.5107533e-05
2.506287e-05
2.5104297e-05
2.5254012e-05
2.5504146e-05
2.5854335e-05
2.6302158e-05
2.6847952e-05
2.749443e-05
2.8248431e-05
2.9119136e-05
3.0121016e-05
3.1271688e-05
3.2590162e-05
3.4097359e-05
3.5820989e-05
3.7796761e-05
4.006867e-05
4.2690837e-05
4.5727843e-05
4.9256627e-05
5.3368928e-05
5.8178228e-05
6.3825014e-05
7.047404e-05
7.8319195e-05
8.7604603e-05
9.862888e-05
0.00011174683
0.00012738325
0.0001460641
0.00016842991
0.00019526116
0.00022751143
0.00026635245
0.00031322859
0.000369916
0.00043860712
0.00052201571
0.00062352668
0.00074739684
0.00089904126
0.0010854691
0.0011829168
0.0011839752
0.0011849563
0.0011857945
0.0011863799
0.0011865761
0.0011862171
0.0011852083
0.0011836489
0.0011818927
0.0011804253
0.0011795847
0.0011797517
0.0011807016
0.0011818089
0.0011827706
0.0011829302
0.001181847
0.001178891
0.0011739486
0.0011706766
4.4199229e-07
1.0209054e-05
2.1306491e-05
2.3178974e-05
1.7853833e-05
2.4413767e-05
1.7076221e-05
2.3079825e-05
1.8183709e-05
2.5017818e-05
2.1626646e-05
2.5284906e-05
2.341689e-05
2.3832357e-05
2.3165039e-05
2.2987574e-05
2.2792767e-05
2.2742183e-05
2.2783692e-05
2.2921407e-05
2.3152937e-05
2.3477545e-05
2.3893471e-05
2.4401135e-05
2.5002681e-05
2.5704534e-05
2.6514644e-05
2.7446054e-05
2.8515401e-05
2.9741164e-05
3.1142782e-05
3.2745545e-05
3.4582459e-05
3.6694202e-05
3.9131327e-05
4.1954459e-05
4.523629e-05
4.9062889e-05
5.3539821e-05
5.8799914e-05
6.5001272e-05
7.2326245e-05
8.1004545e-05
9.1320772e-05
0.00010361571
0.00011829339
0.00013585604
0.00015691776
0.00018222892
0.00021270761
0.00024948364
0.00029395549
0.00034784782
0.00041329592
0.00049294707
0.00059010848
0.00070894847
0.0008547704
0.0010344018
0.0011824692
0.0011835366
0.0011844926
0.001185308
0.0011858708
0.0011860481
0.0011856875
0.0011847189
0.0011832649
0.0011816585
0.001180322
0.0011795791
0.0011797878
0.0011806916
0.0011817075
0.0011825341
0.0011825333
0.0011812885
0.0011783465
0.0011736631
0.0011706002
3.9994928e-07
9.7715708e-06
2.0119704e-05
2.1228813e-05
1.5976677e-05
2.1478023e-05
1.5191981e-05
2.0044581e-05
1.633802e-05
2.19365e-05
1.9704619e-05
2.2498743e-05
2.1195975e-05
2.1327985e-05
2.0819464e-05
2.0618114e-05
2.0456976e-05
2.0410921e-05
2.0454358e-05
2.0584683e-05
2.0800909e-05
2.1102692e-05
2.1488584e-05
2.1959293e-05
2.2516487e-05
2.3166407e-05
2.3916134e-05
2.4777487e-05
2.5765956e-05
2.6899514e-05
2.8196587e-05
2.968056e-05
3.1382204e-05
3.3339361e-05
3.5599446e-05
3.8219491e-05
4.126849e-05
4.4828115e-05
4.8997357e-05
5.3901542e-05
5.9693473e-05
6.6546782e-05
7.467908e-05
8.4362192e-05
9.5926084e-05
0.0001097584
0.00012634213
0.00014627019
0.00017026929
0.00019923061
0.00023425146
0.00027669501
0.00032824628
0.00039099792
0.00046754894
0.00056115018
0.00067590589
0.00081705045
0.00099132503
0.0011822372
0.0011832948
0.0011842027
0.001184966
0.0011854732
0.0011855962
0.0011851963
0.0011842271
0.0011828402
0.0011813644
0.0011801698
0.0011795716
0.0011798108
0.0011806589
0.0011815988
0.0011822926
0.0011821546
0.0011808197
0.001177835
0.0011734088
0.0011705925
3.5867127e-07
9.4404347e-06
1.9073519e-05
1.9767405e-05
1.4352095e-05
1.8949756e-05
1.352637e-05
1.750531e-05
1.4695352e-05
1.9323025e-05
1.7973604e-05
2.0035085e-05
1.9149711e-05
1.907688e-05
1.868668e-05
1.8484235e-05
1.8352911e-05
1.831715e-05
1.8365738e-05
1.8492816e-05
1.8697952e-05
1.8981284e-05
1.9341709e-05
1.978039e-05
2.0298646e-05
2.0902696e-05
2.1599054e-05
2.2398575e-05
2.3315688e-05
2.4367963e-05
2.5573167e-05
2.6953084e-05
2.8536697e-05
3.035944e-05
3.2466119e-05
3.4910725e-05
3.7759128e-05
4.1089631e-05
4.4996102e-05
4.959703e-05
5.5041327e-05
6.1496253e-05
6.9169988e-05
7.8323374e-05
8.9279096e-05
0.00010241283
0.00011819322
0.00013719785
0.00016013674
0.00018788343
0.00022151297
0.00026236566
0.00031210115
0.00037278683
0.00044699544
0.00053794882
0.00064971882
0.00078750887
0.00095802964
0.0011699755
0.0011832616
0.0011841
0.0011847882
0.0011852183
0.001185271
0.0011848237
0.0011838486
0.0011825142
0.0011811448
0.0011800667
0.001179572
0.00117981
0.0011806029
0.0011814501
0.0011820137
0.0011817555
0.0011803312
0.0011773757
0.0011732552
0.0011706676
3.1723745e-07
9.1937007e-06
1.8172596e-05
1.9732569e-05
1.4372973e-05
1.6746911e-05
1.2067447e-05
1.5329107e-05
1.3285592e-05
1.7073576e-05
1.6437586e-05
1.7821935e-05
1.7246962e-05
1.7036544e-05
1.6733548e-05
1.6545195e-05
1.6438495e-05
1.6413764e-05
1.6466324e-05
1.6589697e-05
1.6783585e-05
1.7048773e-05
1.7384554e-05
1.7792677e-05
1.8274291e-05
1.8835632e-05
1.9482839e-05
2.0226008e-05
2.107853e-05
2.205754e-05
2.3180378e-05
2.4467511e-05
2.5946459e-05
2.7650602e-05
2.9622538e-05
3.1913648e-05
3.4587061e-05
3.7718418e-05
4.139782e-05
4.5737349e-05
5.0882781e-05
5.6996787e-05
6.4280418e-05
7.2984437e-05
8.3426472e-05
9.5973467e-05
0.00011108289
0.0001293208
0.0001513847
0.00017813643
0.00021063517
0.00025020634
0.00029849321
0.0003575491
0.00042993536
0.00051886488
0.00062840333
0.00076375529
0.00093164816
0.0011407917
0.0011834164
0.0011841653
0.0011847565
0.0011850875
0.0011850512
0.0011845446
0.0011835561
0.0011822608
0.0011809769
0.0011799986
0.0011795687
0.0011798082
0.0011805384
0.0011812828
0.0011817179
0.0011813476
0.0011798493
0.0011769901
0.0011731893
0.0011708072
2.946523e-07
9.0424249e-06
1.7457254e-05
1.9428398e-05
1.4086285e-05
1.4825597e-05
1.1458062e-05
1.3536153e-05
1.2422418e-05
1.519111e-05
1.5097919e-05
1.5885866e-05
1.5516527e-05
1.5225392e-05
1.4977013e-05
1.4804908e-05
1.4713955e-05
1.4695851e-05
1.4748585e-05
1.4866042e-05
1.5047833e-05
1.5295239e-05
1.5607809e-05
1.59877e-05
1.6436155e-05
1.6959263e-05
1.7562905e-05
1.8256589e-05
1.9052706e-05
1.9967936e-05
2.1019401e-05
2.2226515e-05
2.3615661e-05
2.5218542e-05
2.7075973e-05
2.9237215e-05
3.176313e-05
3.4727307e-05
3.8217538e-05
4.2340462e-05
4.7239106e-05
5.3073381e-05
6.0040049e-05
6.8380961e-05
7.8411033e-05
9.0492128e-05
0.00010507421
0.00012271631
0.00014410802
0.00017010655
0.00020176268
0.00024039657
0.0002876464
0.00034556497
0.00041672012
0.00050433918
0.00061251171
0.00074647863
0.00091303114
0.0011209725
0.0011837434
0.0011843852
0.0011848606
0.0011850742
0.0011849331
0.0011843582
0.0011833539
0.0011820906
0.0011808717
0.0011799637
0.0011795477
0.0011798055
0.0011804603
0.0011810965
0.0011814044
0.00118093
0.0011794059
0.0011766805
0.0011731993
0.0011709975
2.683691e-07
8.9559539e-06
1.6897725e-05
1.8347504e-05
1.3965077e-05
1.3093237e-05
1.1473697e-05
1.2484226e-05
1.1853576e-05
1.3548484e-05
1.3898412e-05
1.418067e-05
1.3917195e-05
1.35911e-05
1.3373312e-05
1.321752e-05
1.3138124e-05
1.312548e-05
1.3178173e-05
1.3290734e-05
1.3462486e-05
1.3695009e-05
1.3988018e-05
1.4259655e-05
1.4669614e-05
1.5151056e-05
1.5709211e-05
1.6352801e-05
1.7093021e-05
1.7945741e-05
1.8927836e-05
2.0057712e-05
2.1360719e-05
2.2866967e-05
2.4615642e-05
2.6654084e-05
2.9041052e-05
3.1848151e-05
3.5161758e-05
3.9379015e-05
4.4080121e-05
4.9692187e-05
5.6410553e-05
6.4469632e-05
7.4183004e-05
8.5910981e-05
0.00010009953
0.00011730472
0.00013821222
0.00016368109
0.00019476053
0.00023277436
0.00027936645
0.00033660198
0.00040707197
0.00049404057
0.0006016511
0.00073521653
0.00090163312
0.001109882
0.0011842239
0.0011847438
0.0011850882
0.0011851709
0.0011849125
0.0011842604
0.0011832369
0.0011819996
0.0011808249
0.0011799541
0.0011795542
0.0011798063
0.0011803748
0.0011809003
0.0011810827
0.0011805164
0.0011790012
0.0011764395
0.001173254
0.0011712204
2.4037833e-07
8.9071625e-06
1.6421439e-05
1.6669886e-05
1.2723666e-05
1.1411329e-05
9.8679716e-06
1.1122444e-05
1.0383035e-05
1.2183211e-05
1.2693228e-05
1.2617486e-05
1.2394888e-05
1.2077723e-05
1.1885021e-05
1.175034e-05
1.1685189e-05
1.1681266e-05
1.1666429e-05
1.1760121e-05
1.1913125e-05
1.2125589e-05
1.2396043e-05
1.2724527e-05
1.3116028e-05
1.3574316e-05
1.4104728e-05
1.471592e-05
1.5418487e-05
1.6227838e-05
1.7161081e-05
1.82361e-05
1.9477769e-05
2.0915215e-05
2.2586699e-05
2.4538388e-05
2.6827829e-05
2.9525476e-05
3.2717348e-05
3.6508264e-05
4.102611e-05
4.6432878e-05
5.2924659e-05
6.1242181e-05
7.0734453e-05
8.2222599e-05
9.6152509e-05
0.00011308127
0.00013369478
0.00015886091
0.00018963445
0.00022735244
0.00027367617
0.00033069732
0.00040104785
0.00048805183
0.0005959376
0.00073012939
0.00089766648
0.0011077481
0.0011848376
0.0011852239
0.0011854268
0.0011853706
0.0011849884
0.0011842515
0.0011832021
0.0011819823
0.0011808315
0.0011799712
0.001179588
0.0011798142
0.0011802876
0.0011807002
0.0011807611
0.0011801194
0.0011786363
0.0011762465
0.0011733271
0.0011714692
2.2117201e-07
8.8600475e-06
1.5925947e-05
1.459338e-05
1.0460151e-05
1.0145794e-05
8.1399392e-06
9.484854e-06
9.693416e-06
1.0957834e-05
1.1474483e-05
1.1166748e-05
1.0962739e-05
1.0679724e-05
1.0512616e-05
1.0329104e-05
1.0253148e-05
1.0243602e-05
1.0293361e-05
1.0399081e-05
1.0556966e-05
1.0769096e-05
1.1034164e-05
1.1352731e-05
1.1729653e-05
1.2169598e-05
1.2677995e-05
1.3263545e-05
1.393644e-05
1.4711615e-05
1.5606532e-05
1.663881e-05
1.7833185e-05
1.9218122e-05
2.0831351e-05
2.2718384e-05
2.4936102e-05
2.7554426e-05
3.0658892e-05
3.4353701e-05
3.8767518e-05
4.4060578e-05
5.0432887e-05
5.8117059e-05
6.7411813e-05
7.8689829e-05
9.3216877e-05
0.00011002875
0.00013053789
0.00015562781
0.00018636665
0.00022411445
0.00027056225
0.00032784306
0.00039864833
0.00048638536
0.00059539823
0.00073126314
0.00090120225
0.0011146526
0.0011855639
0.0011858065
0.0011858614
0.001185664
0.0011851575
0.0011843314
0.0011832456
0.0011820299
0.0011808842
0.0011800133
0.0011796501
0.0011798353
0.0011802049
0.0011805026
0.0011804484
0.0011797518
0.0011783229
0.0011760921
0.0011734116
0.0011717442
2.0348052e-07
8.8147229e-06
1.4334723e-05
1.2731227e-05
8.46335e-06
9.0089624e-06
7.2485808e-06
8.562373e-06
8.9755878e-06
9.8067264e-06
1.0269752e-05
9.8462849e-06
9.6479391e-06
9.3141164e-06
9.1364593e-06
9.0281117e-06
8.9866934e-06
9.0027808e-06
9.0703216e-06
9.1864368e-06
9.3514402e-06
9.5632831e-06
9.8247155e-06
1.0135997e-05
1.0502256e-05
1.0928607e-05
1.1420653e-05
1.198728e-05
1.2638439e-05
1.338863e-05
1.4255734e-05
1.5257459e-05
1.6418661e-05
1.776746e-05
1.9341433e-05
2.1185896e-05
2.335758e-05
2.5926489e-05
2.8978752e-05
3.2619361e-05
3.6977519e-05
4.2213612e-05
4.8532109e-05
5.6166876e-05
6.5420899e-05
7.6671523e-05
9.0386184e-05
0.00010711783
0.00012873892
0.00015398293
0.0001849642
0.00022307562
0.00027005122
0.00032808126
0.00039993643
0.00048913109
0.0006001546
0.00073877572
0.00091244329
0.0011308522
0.0011863797
0.0011864705
0.0011863743
0.0011860369
0.0011854106
0.001184495
0.0011833615
0.0011821336
0.0011809779
0.0011801016
0.0011797447
0.0011798751
0.0011801316
0.0011803112
0.0011801507
0.0011794227
0.0011780676
0.0011759878
0.0011735261
0.0011720441
1.876626e-07
8.7681153e-06
1.1384498e-05
1.056253e-05
6.9561912e-06
8.0209557e-06
6.6097283e-06
7.6972306e-06
8.400095e-06
8.7633331e-06
9.0903891e-06
8.5547607e-06
8.3051215e-06
8.0758651e-06
7.947067e-06
7.8789436e-06
7.8664721e-06
7.9051506e-06
7.9883933e-06
8.1159629e-06
8.285234e-06
8.4990307e-06
8.7591562e-06
9.0664467e-06
9.4261321e-06
9.8438151e-06
1.0325401e-05
1.0880032e-05
1.1517639e-05
1.2252368e-05
1.3035581e-05
1.4007831e-05
1.5137694e-05
1.6452925e-05
1.7990942e-05
1.9796918e-05
2.1927519e-05
2.445291e-05
2.7459966e-05
3.1054811e-05
3.5368385e-05
4.088125e-05
4.7212467e-05
5.4878164e-05
6.4185917e-05
7.5519357e-05
8.9362257e-05
0.00010628492
0.00012701221
0.00015245683
0.00018543354
0.00022425108
0.00027216979
0.00033145374
0.00040497368
0.00049637569
0.00061032195
0.00075281101
0.00093156778
0.0011565653
0.0011872591
0.0011871932
0.0011869451
0.0011864701
0.0011857303
0.0011847288
0.0011835392
0.0011822854
0.0011811084
0.0011802469
0.0011798756
0.0011799359
0.0011800708
0.0011801289
0.0011798741
0.0011791401
0.0011778764
0.0011759507
0.0011737052
0.0011723699
1.7383712e-07
8.7245401e-06
8.9877499e-06
8.990305e-06
6.1222791e-06
7.1138134e-06
6.0732404e-06
6.9418791e-06
7.8180392e-06
7.7924538e-06
7.8133918e-06
7.3590367e-06
7.1562947e-06
6.9901617e-06
6.9028431e-06
6.8683089e-06
6.8817948e-06
6.9389973e-06
7.036427e-06
7.173945e-06
7.3504213e-06
7.5678986e-06
7.8294369e-06
8.136365e-06
8.4940169e-06
8.8703048e-06
9.3396708e-06
9.8814819e-06
1.0505545e-05
1.1225556e-05
1.2058029e-05
1.3024434e-05
1.4149039e-05
1.5459777e-05
1.6994551e-05
1.8799166e-05
2.0931191e-05
2.3461981e-05
2.648049e-05
3.0095523e-05
3.4441685e-05
3.9687551e-05
4.604028e-05
5.3749314e-05
6.3129216e-05
7.52211e-05
8.9328042e-05
0.0001066027
0.00012778972
0.00015383887
0.00018592737
0.00022765512
0.00027694409
0.00033800133
0.00041381877
0.0005081998
0.00062600533
0.00077349398
0.00095871409
0.0011883047
0.0011881743
0.0011879507
0.0011875527
0.0011869427
0.0011860948
0.0011850138
0.0011837648
0.001182476
0.0011812707
0.0011804517
0.0011800465
0.0011800163
0.0011800264
0.0011799612
0.0011796297
0.0011789156
0.0011777567
0.001175993
0.0011739694
0.0011727352
1.6152602e-07
8.6733959e-06
7.1556882e-06
7.8982231e-06
5.4604135e-06
6.2999873e-06
5.6154629e-06
6.2770243e-06
7.1251765e-06
6.690216e-06
6.6622526e-06
6.3143177e-06
6.154848e-06
6.0397014e-06
5.9879413e-06
5.9822982e-06
6.0183465e-06
6.0935958e-06
6.2051031e-06
6.3535963e-06
6.5385401e-06
6.7623226e-06
6.9989044e-06
7.3027946e-06
7.657114e-06
8.0668209e-06
8.5401422e-06
9.0859169e-06
9.7142267e-06
1.0439043e-05
1.1277108e-05
1.2249716e-05
1.3382642e-05
1.4704339e-05
1.6253489e-05
1.8076961e-05
2.0233855e-05
2.2797317e-05
2.585922e-05
2.9532259e-05
3.3954993e-05
3.9300561e-05
4.5787694e-05
5.3673523e-05
6.3284346e-05
7.5028376e-05
8.9416291e-05
0.0001070714
0.00012990344
0.000156795
0.00018996107
0.00023094661
0.00028438401
0.00034774398
0.00042650172
0.00052464404
0.00064725566
0.00080087667
0.00099391426
0.0011893616
0.0011890952
0.0011887193
0.0011881775
0.0011874371
0.0011864849
0.0011853316
0.0011840265
0.0011826975
0.0011815064
0.0011807115
0.0011802598
0.0011801157
0.0011800041
0.0011798206
0.0011794378
0.0011787677
0.0011777186
0.0011761162
0.0011743267
0.0011731516
1.5061122e-07
8.6111593e-06
5.7454423e-06
6.9080847e-06
4.8728825e-06
5.5785421e-06
5.2274309e-06
5.5997043e-06
6.2519156e-06
5.7337797e-06
5.6527858e-06
5.4008243e-06
5.2822642e-06
5.2097411e-06
5.1896379e-06
5.210182e-06
5.2675442e-06
5.360342e-06
5.4865123e-06
5.6262646e-06
5.8152104e-06
6.0429582e-06
6.3122699e-06
6.6267036e-06
6.9913092e-06
7.4114861e-06
7.8954035e-06
8.4526418e-06
9.0935715e-06
9.832401e-06
1.0686074e-05
1.1676227e-05
1.2771408e-05
1.4105219e-05
1.5669816e-05
1.7513105e-05
1.9695963e-05
2.2293411e-05
2.5400311e-05
2.9133875e-05
3.3637827e-05
3.9387827e-05
4.6071671e-05
5.4210021e-05
6.4142384e-05
7.6291491e-05
9.119598e-05
0.0001095116
0.00013205088
0.00016130222
0.0001958367
0.00023855654
0.00029149655
0.0003606614
0.0004429997
0.00054567672
0.00067402662
0.00083488382
0.0010370266
0.0011903956
0.0011899927
0.0011894759
0.001188802
0.001187941
0.0011868891
0.0011856693
0.0011843203
0.0011829431
0.001181801
0.0011810149
0.0011805034
0.0011802377
0.0011800121
0.001179728
0.0011793243
0.0011787174
0.0011777712
0.0011763173
0.0011747661
0.0011736131
1.4095136e-07
8.4936387e-06
4.6700561e-06
6.0284596e-06
4.3493254e-06
4.9373571e-06
4.8905784e-06
4.8626455e-06
5.3703877e-06
4.8809023e-06
4.7781142e-06
4.6052465e-06
4.525814e-06
4.4902711e-06
4.4991326e-06
4.5441091e-06
4.6221127e-06
4.7139629e-06
4.8494731e-06
5.019507e-06
5.2252351e-06
5.4685788e-06
5.7530706e-06
6.0825031e-06
6.4625785e-06
6.8990078e-06
7.4000628e-06
7.9519868e-06
8.6065732e-06
9.3602238e-06
1.0229992e-05
1.1237615e-05
1.2409701e-05
1.3779718e-05
1.5387672e-05
1.7283201e-05
1.9530138e-05
2.2206592e-05
2.5411541e-05
2.9268571e-05
3.3928596e-05
3.9582388e-05
4.6461786e-05
5.485388e-05
6.5114583e-05
7.8337076e-05
9.3888684e-05
0.00011301989
0.00013658947
0.00016567135
0.00020350387
0.00024830239
0.00030386259
0.00037288825
0.00046320334
0.00057115105
0.00070611715
0.00087523772
0.0010876553
0.001191375
0.0011908428
0.0011901983
0.0011894088
0.0011884445
0.0011873029
0.0011860186
0.0011846409
0.0011832322
0.0011821388
0.0011813422
0.0011807783
0.0011803877
0.001180062
0.0011797095
0.0011793141
0.0011787777
0.0011779105
0.0011765899
0.0011752795
0.0011740985
1.3245804e-07
8.1726558e-06
3.9278414e-06
5.2485507e-06
3.8845241e-06
4.3705244e-06
4.3550392e-06
4.1964109e-06
4.5200241e-06
4.1267397e-06
4.0287355e-06
3.9190476e-06
3.8765588e-06
3.8738675e-06
3.9094812e-06
3.9630696e-06
4.0543002e-06
4.1787209e-06
4.3356575e-06
4.5255888e-06
4.7503788e-06
5.0125255e-06
5.316039e-06
5.6650392e-06
6.0520001e-06
6.5057732e-06
7.0249311e-06
7.6190795e-06
8.3002901e-06
9.0829581e-06
9.9846336e-06
1.1028003e-05
1.2240854e-05
1.3658043e-05
1.5322459e-05
1.7285745e-05
1.9615374e-05
2.2393427e-05
2.5723342e-05
2.9736534e-05
3.4590621e-05
4.048683e-05
4.767312e-05
5.6450946e-05
6.7198165e-05
8.0382043e-05
9.7440362e-05
0.0001175396
0.00014231897
0.00017292457
0.00021076198
0.00026007146
0.00031864024
0.00039143683
0.00048206727
0.00060075305
0.00074310478
0.00092137129
0.0011450285
0.0011922789
0.001191625
0.0011908676
0.0011899802
0.0011889352
0.0011877235
0.0011863755
0.0011849668
0.0011835818
0.0011825102
0.0011816892
0.0011810657
0.0011805702
0.001180172
0.0011797904
0.0011794214
0.0011789416
0.0011781172
0.0011769119
0.0011758378
0.0011745873
1.2521103e-07
7.7536562e-06
3.4627825e-06
4.5575883e-06
3.4722804e-06
3.706615e-06
3.8830445e-06
3.5861761e-06
3.7503153e-06
3.4715634e-06
3.3948898e-06
3.3352764e-06
3.3266268e-06
3.3535579e-06
3.3971259e-06
3.482506e-06
3.5998238e-06
3.7479534e-06
3.9272095e-06
4.1388701e-06
4.3854014e-06
4.6696101e-06
4.9864032e-06
5.3559052e-06
5.7773432e-06
6.2574696e-06
6.8044014e-06
7.4281037e-06
8.1409238e-06
8.9582008e-06
9.8980937e-06
1.0984323e-05
1.2246025e-05
1.3719912e-05
1.5385537e-05
1.7413146e-05
1.9821432e-05
2.2697053e-05
2.6305516e-05
3.050499e-05
3.5590431e-05
4.1773491e-05
4.9319596e-05
5.854773e-05
6.9856786e-05
8.3744334e-05
0.00010082654
0.00012186787
0.00014913946
0.00018146625
0.00022145289
0.00027098739
0.00033559041
0.00041255777
0.00050836405
0.00063394635
0.00078427455
0.00097233641
0.0011938233
0.0011930916
0.0011923264
0.0011914706
0.0011905015
0.0011893969
0.0011881419
0.0011867452
0.0011852844
0.0011839734
0.001182906
0.0011820528
0.001181367
0.0011807878
0.0011803601
0.0011799854
0.0011796412
0.0011791763
0.0011783456
0.0011772447
0.0011763748
0.0011750665
1.1950592e-07
6.7615543e-06
3.0669236e-06
3.9307387e-06
3.1172926e-06
3.0936677e-06
3.4129718e-06
3.0335671e-06
3.0891482e-06
2.9119207e-06
2.8644231e-06
2.8456485e-06
2.8593933e-06
2.9054792e-06
2.9873331e-06
3.1006185e-06
3.2434128e-06
3.4156973e-06
3.6186068e-06
3.8538968e-06
4.1185002e-06
4.4252686e-06
4.7744491e-06
5.1708648e-06
5.6202744e-06
6.1296617e-06
6.7075232e-06
7.3642277e-06
8.1125384e-06
8.9488467e-06
9.925259e-06
1.1051882e-05
1.2359129e-05
1.3885147e-05
1.5677709e-05
1.7796631e-05
2.0316006e-05
2.3328774e-05
2.6950536e-05
3.1324543e-05
3.662926e-05
4.3395451e-05
5.1347712e-05
6.1083472e-05
7.3023689e-05
8.7695479e-05
0.00010575303
0.00012801006
0.00015690571
0.00019111934
0.00023345105
0.00028589085
0.00035434869
0.0004357838
0.00053709721
0.00066332176
0.00082856825
0.0010267376
0.0011946222
0.0011938038
0.001192942
0.0011920036
0.0011909671
0.0011898163
0.0011885397
0.0011871331
0.0011856492
0.0011843901
0.0011833215
0.0011824321
0.0011816947
0.0011810743
0.001180655
0.0011802836
0.0011799416
0.0011794378
0.0011785453
0.001177509
0.0011768556
0.0011755842
1.1493613e-07
4.7358027e-06
2.7099906e-06
3.3492281e-06
2.6664452e-06
2.580576e-06
2.9173443e-06
2.5414036e-06
2.5387556e-06
2.440715e-06
2.4261105e-06
2.4348916e-06
2.4795321e-06
2.5596582e-06
2.6709355e-06
2.8109016e-06
2.9789511e-06
3.1757993e-06
3.399962e-06
3.6585537e-06
3.9528435e-06
4.2862289e-06
4.6628342e-06
5.0876693e-06
5.5667756e-06
6.1074371e-06
6.7185018e-06
7.3996773e-06
8.1821298e-06
9.0746909e-06
1.0097921e-05
1.1277383e-05
1.2645329e-05
1.4242304e-05
1.61192e-05
1.8339543e-05
2.0982431e-05
2.4146478e-05
2.7954665e-05
3.2560019e-05
3.815278e-05
4.4968438e-05
5.3695774e-05
6.3985034e-05
7.6612061e-05
9.2134799e-05
0.00011124591
0.00013480786
0.00016389538
0.00020164137
0.00024645316
0.00030195007
0.00037076379
0.00046046933
0.00056743154
0.00070050825
0.00087457482
0.0010827367
0.0011953093
0.0011944128
0.0011934732
0.0011924697
0.0011913811
0.0011901929
0.0011888991
0.0011875023
0.0011860442
0.0011848242
0.001183758
0.0011828439
0.0011820748
0.0011814471
0.0011810142
0.0011806437
0.0011802728
0.0011796815
0.0011787127
0.001177711
0.0011772354
0.0011761983
1.1010439e-07
3.9343933e-06
2.3359561e-06
2.8136797e-06
2.2996924e-06
2.1523742e-06
2.4038071e-06
2.1092054e-06
2.0913058e-06
2.0538789e-06
2.0680566e-06
2.1112695e-06
2.1917112e-06
2.3024251e-06
2.440861e-06
2.6061336e-06
2.7986198e-06
3.0173966e-06
3.2681145e-06
3.5521328e-06
3.8724636e-06
4.2327522e-06
4.6373564e-06
5.0914821e-06
5.6013852e-06
6.1746246e-06
6.8128577e-06
7.5391387e-06
8.3622769e-06
9.2995164e-06
1.0372568e-05
1.1608563e-05
1.3041658e-05
1.4714836e-05
1.6682262e-05
1.9011839e-05
2.1788014e-05
2.5115649e-05
2.9125446e-05
3.3979384e-05
3.9879122e-05
4.741529e-05
5.6289941e-05
6.7164416e-05
8.0515789e-05
9.6933026e-05
0.00011714711
0.0001420669
0.00017442427
0.00021272192
0.00026006731
0.00031866413
0.00039125647
0.00048579295
0.00059832348
0.00073807413
0.00092056745
0.0011381524
0.0011958851
0.0011949239
0.0011939235
0.0011928718
0.0011917474
0.0011905331
0.0011892213
0.0011878283
0.0011864498
0.0011852677
0.0011842183
0.0011832984
0.0011825114
0.0011818754
0.0011814052
0.0011810082
0.0011805727
0.0011798773
0.0011788479
0.0011778887
0.0011775212
0.0011768012
1.0684566e-07
3.1689446e-06
2.0140256e-06
2.2733816e-06
1.9985675e-06
1.7858447e-06
1.9261399e-06
1.7424761e-06
1.7399e-06
1.7511176e-06
1.7952358e-06
1.8761698e-06
1.9873457e-06
2.1248493e-06
2.2877068e-06
2.4762301e-06
2.6903816e-06
2.9338778e-06
3.2085922e-06
3.5172839e-06
3.8632507e-06
4.2503499e-06
4.6831042e-06
5.16687e-06
5.7080759e-06
6.3102366e-06
6.9892691e-06
7.7541031e-06
8.619158e-06
9.6025449e-06
1.072727e-05
1.2022108e-05
1.3523309e-05
1.5276434e-05
1.7338835e-05
1.9782716e-05
2.2698457e-05
2.6197213e-05
3.0418038e-05
3.5532516e-05
4.2028301e-05
4.9681645e-05
5.9042411e-05
7.0517541e-05
8.4608394e-05
0.00010193585
0.00012326822
0.00014955957
0.00018363376
0.00022398001
0.00027382042
0.0003354402
0.00041168078
0.00051077287
0.00062853953
0.00077447702
0.00096459715
0.0011905784
0.001196358
0.0011953427
0.001194296
0.0011932086
0.0011920609
0.0011908352
0.001189521
0.00118814
0.0011868429
0.0011857106
0.0011846972
0.0011837948
0.0011830055
0.0011823399
0.0011817984
0.0011813372
0.0011808127
0.001180029
0.0011789804
0.0011780849
0.001177775
0.0011773027
1.0546528e-07
2.497895e-06
1.7356388e-06
1.7546036e-06
1.7211749e-06
1.4723198e-06
1.5359868e-06
1.4501568e-06
1.4781682e-06
1.5243589e-06
1.6069266e-06
1.7181861e-06
1.8547009e-06
2.0149445e-06
2.1992409e-06
2.4087931e-06
2.6446033e-06
2.9102231e-06
3.2078146e-06
3.5403996e-06
3.9114488e-06
4.324964e-06
4.7855953e-06
5.2988237e-06
5.8712137e-06
6.5107566e-06
7.2273171e-06
8.0331713e-06
8.933463e-06
9.9634811e-06
1.1140525e-05
1.2495105e-05
1.4065701e-05
1.5900655e-05
1.8060536e-05
2.0704979e-05
2.3785692e-05
2.7485693e-05
3.1952988e-05
3.7370465e-05
4.3963825e-05
5.2011262e-05
6.1857343e-05
7.3927518e-05
8.874761e-05
0.00010696819
0.00012939303
0.00015838813
0.00019268977
0.0002349862
0.00028717617
0.00035161019
0.00043528022
0.00053434501
0.00065676488
0.00080810492
0.0010046716
0.0011978119
0.0011967357
0.0011956755
0.0011945935
0.0011934791
0.0011923151
0.0011910854
0.0011897804
0.001188427
0.0011872071
0.0011861338
0.0011851711
0.001184299
0.0011835081
0.0011828023
0.0011821851
0.0011816283
0.0011810092
0.001180178
0.0011791654
0.0011783714
0.0011781183
0.0011776925
1.0702097e-07
1.9232093e-06
1.5035156e-06
1.3570558e-06
1.4383304e-06
1.2094443e-06
1.250366e-06
1.235946e-06
1.296502e-06
1.3769709e-06
1.4879489e-06
1.6225746e-06
1.779575e-06
1.9591019e-06
2.1623982e-06
2.3912339e-06
2.6474051e-06
2.9339757e-06
3.2535191e-06
3.6091922e-06
4.0045706e-06
4.4437533e-06
4.9314968e-06
5.4734081e-06
6.0762102e-06
6.7481027e-06
7.4992423e-06
8.3423449e-06
9.2934353e-06
1.0372795e-05
1.1606082e-05
1.3025811e-05
1.4672981e-05
1.6599173e-05
1.8868998e-05
2.1563107e-05
2.4781923e-05
2.8650472e-05
3.3323596e-05
3.8993134e-05
4.5896273e-05
5.4325148e-05
6.4637577e-05
7.7277526e-05
9.2791364e-05
0.0001127796
0.00013640025
0.00016545943
0.00020123325
0.00024529712
0.00029959205
0.00036995098
0.0004530491
0.00055547614
0.00068175698
0.00084560241
0.0010389843
0.001198138
0.0011970264
0.0011959313
0.0011948221
0.0011936879
0.0011925135
0.0011912846
0.0011899947
0.0011886756
0.001187525
0.0011865104
0.0011856012
0.001184766
0.0011839831
0.0011832474
0.0011825665
0.0011819234
0.0011812359
0.001180399
0.0011794688
0.001178796
0.0011786082
0.0011781644
1.1266858e-07
1.4513922e-06
1.3149668e-06
1.0667999e-06
1.2835749e-06
9.9127507e-07
1.0564986e-06
1.0941437e-06
1.1814605e-06
1.2894373e-06
1.4213319e-06
1.5741105e-06
1.7481849e-06
1.9447084e-06
2.165414e-06
2.4123336e-06
2.6877794e-06
2.9941532e-06
3.3345908e-06
3.7122221e-06
4.1307014e-06
4.5942164e-06
5.1076317e-06
5.67669e-06
6.3082882e-06
7.0108519e-06
7.7948401e-06
8.6734321e-06
9.6632875e-06
1.0785583e-05
1.206713e-05
1.3541992e-05
1.5253145e-05
1.7254679e-05
1.9614337e-05
2.2416675e-05
2.5766821e-05
2.9795116e-05
3.4662779e-05
4.0568899e-05
4.8084881e-05
5.6933326e-05
6.7753197e-05
8.1006041e-05
9.7259121e-05
0.00011721087
0.00014172141
0.00017184931
0.00020889274
0.00025683224
0.00031329854
0.0003827386
0.00046814024
0.00057317637
0.00070921262
0.00086925358
0.0010659845
0.0011983923
0.0011972494
0.0011961251
0.0011949945
0.0011938464
0.0011926663
0.0011914415
0.0011901678
0.0011888809
0.0011877851
0.0011868183
0.001185954
0.0011851566
0.0011843996
0.0011836715
0.0011829739
0.0011822936
0.0011815756
0.0011807634
0.0011799351
0.0011793744
0.0011792217
0.0011787528
1.2304688e-07
1.1451072e-06
1.1525992e-06
9.2657538e-07
9.3866643e-07
8.6686951e-07
9.2905976e-07
1.0086816e-06
1.1166864e-06
1.2441304e-06
1.3918535e-06
1.5596619e-06
1.7487935e-06
1.9607946e-06
2.1975467e-06
2.461151e-06
2.7539569e-06
3.0785833e-06
3.4379652e-06
3.8354087e-06
4.2746696e-06
4.7600611e-06
5.296604e-06
5.8902401e-06
6.5481294e-06
7.2764802e-06
8.0898594e-06
9.0002667e-06
1.0033889e-05
1.1198843e-05
1.2529252e-05
1.4060849e-05
1.5838672e-05
1.7919309e-05
2.0373554e-05
2.3289603e-05
2.6776963e-05
3.0971209e-05
3.6039779e-05
4.2189142e-05
4.9673578e-05
5.8806005e-05
6.9971052e-05
8.3639214e-05
0.0001003908
0.00012093768
0.00014745474
0.00017865176
0.00021694601
0.00026395956
0.00032167727
0.00039253171
0.00047950105
0.00059180589
0.00072371708
0.00088550759
0.0010839128
0.001198605
0.0011974324
0.0011962817
0.0011951322
0.001193973
0.0011927902
0.0011915713
0.0011903126
0.0011890514
0.0011879921
0.0011870577
0.0011862263
0.0011854652
0.0011847508
0.0011840702
0.0011834153
0.0011827624
0.0011820619
0.0011812878
0.0011805469
0.0011800839
0.0011799454
0.0011795867
1.4445922e-07
1.1846865e-06
9.9176118e-07
7.0642116e-07
7.6654537e-07
7.7469308e-07
8.5859971e-07
9.60948e-07
1.0853239e-06
1.227524e-06
1.3887203e-06
1.5698478e-06
1.7724266e-06
1.9981149e-06
2.248822e-06
2.5266764e-06
2.8340605e-06
3.1736425e-06
3.5484192e-06
3.9617706e-06
4.4175328e-06
4.9201029e-06
5.4745885e-06
6.0870215e-06
6.7646627e-06
7.5164184e-06
8.3533937e-06
9.2896005e-06
1.0342857e-05
1.1535856e-05
1.2897454e-05
1.4464281e-05
1.6282554e-05
1.8410345e-05
2.092025e-05
2.390263e-05
2.7469554e-05
3.1759554e-05
3.694344e-05
4.3231413e-05
5.0881903e-05
6.0643554e-05
7.2132633e-05
8.6184427e-05
0.00010338915
0.00012446873
0.00015030778
0.00018198897
0.00022083599
0.00026846376
0.00032684864
0.0004020806
0.00049037789
0.00059849766
0.00073086961
0.00089290805
0.0010912136
0.0011988114
0.0011976119
0.0011964369
0.0011952682
0.0011940968
0.00119291
0.0011916958
0.0011904497
0.0011892077
0.0011881702
0.0011872575
0.0011864513
0.0011857236
0.0011850556
0.0011844353
0.0011838496
0.0011832669
0.0011826353
0.0011819369
0.001181293
0.0011809384
0.001180776
0.0011804287
1.3765421e-07
7.8850529e-07
8.1270615e-07
6.0208079e-07
6.5974504e-07
7.2050954e-07
8.2285285e-07
9.4192582e-07
1.0793531e-06
1.2341563e-06
1.4075981e-06
1.6008966e-06
1.8155991e-06
2.0534287e-06
2.316334e-06
2.6065002e-06
2.9263775e-06
3.2786715e-06
3.6665165e-06
4.0933531e-06
4.5631026e-06
5.0802479e-06
5.649984e-06
6.2784336e-06
6.9729568e-06
7.7425751e-06
8.5985356e-06
9.5550402e-06
1.0638783e-05
1.1859457e-05
1.325241e-05
1.4855168e-05
1.6715002e-05
1.8891242e-05
2.1457954e-05
2.4507245e-05
2.8153209e-05
3.253676e-05
3.7831506e-05
4.4250908e-05
5.2057001e-05
6.1570914e-05
7.3185658e-05
8.7383828e-05
0.00010475535
0.00012602221
0.00015206696
0.00018558152
0.00022493639
0.00027310777
0.00033205755
0.00040417329
0.00049236688
0.00060019174
0.00073198621
0.0008930474
0.0010898253
0.0011990352
0.001197817
0.0011966239
0.0011954387
0.0011942539
0.0011930588
0.0011918435
0.0011906045
0.0011893759
0.0011883518
0.0011874563
0.0011866729
0.001185976
0.0011853476
0.0011847745