/*--------------------------------*- C++ -*----------------------------------*\
  =========                 |
  \\      /  F ield         | OpenFOAM: The Open Source CFD Toolbox
   \\    /   O peration     | Website:  https://openfoam.org
    \\  /    A nd           | Version:  12
     \\/     M anipulation  |
\*---------------------------------------------------------------------------*/
FoamFile
{
    format      ascii;
    class       volScalarField;
    location    "0.05";
    object      k;
}
// * * * * * * * * * * * * * * * * * * * * * * * * * * * * * * * * * * * * * //

dimensions      [0 2 -2 0 0 0 0];

internalField   nonuniform List<scalar> 
16000
(
0.049474568
0.021481187
0.022360468
0.016472294
0.013974361
0.012650358
0.011864683
0.011394672
0.011076182
0.010861908
0.010703809
0.010586199
0.010494398
0.010421775
0.010363416
0.010316192
0.010277735
0.010246395
0.010220759
0.010199737
0.010182399
0.010168402
0.010157223
0.010148303
0.010141412
0.010136183
0.010132445
0.010130027
0.010128788
0.010128599
0.010129342
0.010130921
0.010133259
0.0101363
0.010139996
0.010144304
0.01014918
0.010154583
0.010160468
0.010166791
0.010173496
0.010180518
0.010187794
0.010195254
0.010202823
0.010210424
0.010217991
0.01022547
0.010232817
0.010239995
0.010246973
0.010253722
0.010260208
0.010266383
0.01027219
0.010277567
0.010282447
0.010286767
0.010290472
0.01029348
0.010295622
0.010296521
0.010295413
0.010290854
0.010280595
0.010262077
0.010233907
0.010197833
0.010159723
0.010127545
0.010106334
0.010100135
0.010107442
0.010124611
0.010142142
0.01015173
0.010146678
0.010116277
0.010063522
0.01001578
0.04523083
0.020331964
0.020917944
0.01592555
0.01362896
0.012447078
0.011701405
0.011277298
0.010974719
0.010777715
0.010629939
0.010521126
0.010435783
0.01036866
0.010314787
0.010271414
0.010236263
0.010207823
0.010184837
0.010166199
0.010150981
0.010138893
0.010129508
0.010122242
0.010116902
0.010113143
0.010110783
0.010109658
0.010109635
0.010110594
0.010112418
0.01011501
0.010118294
0.010122211
0.010126712
0.010131754
0.010137296
0.010143295
0.010149709
0.010156494
0.010163599
0.010170961
0.010178518
0.010186205
0.010193949
0.010201674
0.010209314
0.010216814
0.01022413
0.010231227
0.010238077
0.01024466
0.01025095
0.010256913
0.010262505
0.010267675
0.010272368
0.010276526
0.01028009
0.010282972
0.010284986
0.010285737
0.010284444
0.010279679
0.010269278
0.010250896
0.010223522
0.010189243
0.010153617
0.010123731
0.010104342
0.010098934
0.010106384
0.010122196
0.010138097
0.010145723
0.010138434
0.010108227
0.010057645
0.010013852
0.042154302
0.019523687
0.019584332
0.015362319
0.013276195
0.012220026
0.011532805
0.011150605
0.010871433
0.010692617
0.01055603
0.010456434
0.010378027
0.010316724
0.010267665
0.010228376
0.01019674
0.010171353
0.010151159
0.010135058
0.010122103
0.010112054
0.010104574
0.010099075
0.010095359
0.010093153
0.010092246
0.010092485
0.010093741
0.010095902
0.010098854
0.010102502
0.010106767
0.010111589
0.010116917
0.010122708
0.01012892
0.010135511
0.010142439
0.010149661
0.01015713
0.010164785
0.010172567
0.010180413
0.010188258
0.010196026
0.010203654
0.010211088
0.010218285
0.010225213
0.010231849
0.010238175
0.010244176
0.010249829
0.010255101
0.010259952
0.010264339
0.01026821
0.010271501
0.010274106
0.010275812
0.010276182
0.010274404
0.010269063
0.010258102
0.010239401
0.010212325
0.010179392
0.010146097
0.010118724
0.010101845
0.010097361
0.010104889
0.010119704
0.01013399
0.010139807
0.010131121
0.01010036
0.010052254
0.010012158
0.038671531
0.018978773
0.018434055
0.014858692
0.012957274
0.012015064
0.011378752
0.011035227
0.010776881
0.010614551
0.010488643
0.010397559
0.010325753
0.010269952
0.010225524
0.010190171
0.010161925
0.010139452
0.010121918
0.010108291
0.010097549
0.010089488
0.010083869
0.010080124
0.010078004
0.010077322
0.010077843
0.010079422
0.010081932
0.010085264
0.010089312
0.010093976
0.010099179
0.010104854
0.010110951
0.010117424
0.010124232
0.010131332
0.010138684
0.010146244
0.01015397
0.010161806
0.010169695
0.010177581
0.010185402
0.010193091
0.010200585
0.010207834
0.0102148
0.010221452
0.01022777
0.010233743
0.010239361
0.010244613
0.010249477
0.010253922
0.01025791
0.010261397
0.010264314
0.010266534
0.010267809
0.010267658
0.010265239
0.010259181
0.010247594
0.010228623
0.010201926
0.010170268
0.010139044
0.01011385
0.010098917
0.010095066
0.010102494
0.010116244
0.010128951
0.010133171
0.010123173
0.010092777
0.010048137
0.010010839
0.035224912
0.018673453
0.017467253
0.014392345
0.012660754
0.011821569
0.011234544
0.010926672
0.010688822
0.010541927
0.010426484
0.010343515
0.010278155
0.010227677
0.010187784
0.010156324
0.01013147
0.010111847
0.01009689
0.010085716
0.010077195
0.01007112
0.010067342
0.010065363
0.010064854
0.010065692
0.010067642
0.010070557
0.010074312
0.010078802
0.010083921
0.010089572
0.010095673
0.010102154
0.010108962
0.01011605
0.010123375
0.010130897
0.010138575
0.010146368
0.010154236
0.010162132
0.010170003
0.010177797
0.010185462
0.010192938
0.010200168
0.010207105
0.010213715
0.010219974
0.010225864
0.01023138
0.010236516
0.010241269
0.010245627
0.010249565
0.010253053
0.010256048
0.010258474
0.010260184
0.010260892
0.010260068
0.010256839
0.01024989
0.010237542
0.010218263
0.010191969
0.01016151
0.010132149
0.010108953
0.010095516
0.010092332
0.01009956
0.010112206
0.01012336
0.010126126
0.010115148
0.010085958
0.010044935
0.010009868
0.033540541
0.018609475
0.016750437
0.013965287
0.012388101
0.011641775
0.011101437
0.010826248
0.010608102
0.010475424
0.010370124
0.010294809
0.010235677
0.010190306
0.010154787
0.010127127
0.010105674
0.010088845
0.010076382
0.010067614
0.010061332
0.010057262
0.010055312
0.010055082
0.010056196
0.010058549
0.010061917
0.010066155
0.010071134
0.01007675
0.0100829
0.010089485
0.010096419
0.010103631
0.010111064
0.010118668
0.010126402
0.010134225
0.0101421
0.010149989
0.010157857
0.010165664
0.010173365
0.010180914
0.01018827
0.010195381
0.010202199
0.010208682
0.010214803
0.010220542
0.010225888
0.010230837
0.010235391
0.010239549
0.010243307
0.010246646
0.010249539
0.010251942
0.010253771
0.010254857
0.010254877
0.010253257
0.010249093
0.010241131
0.010227927
0.010208336
0.010182535
0.010153289
0.010125582
0.01010405
0.010091512
0.010089173
0.010096062
0.010107537
0.01011714
0.01011859
0.010107202
0.01007982
0.010042449
0.01000921
0.031051572
0.018708124
0.016240961
0.013574045
0.01213699
0.011474949
0.010979145
0.010733753
0.010534578
0.010414928
0.010319427
0.010251367
0.010198272
0.010157849
0.010126578
0.010102619
0.010084595
0.010070572
0.010060595
0.010054166
0.010050164
0.010048183
0.010048104
0.010049563
0.010052303
0.010056168
0.010060945
0.010066483
0.010072653
0.010079349
0.010086469
0.010093912
0.01010159
0.010109429
0.01011737
0.010125362
0.010133363
0.010141338
0.010149252
0.010157073
0.010164771
0.010172317
0.010179674
0.010186808
0.010193685
0.010200268
0.010206516
0.010212396
0.010217887
0.010222976
0.010227657
0.010231931
0.010235802
0.010239272
0.01024234
0.010244992
0.010247204
0.010248925
0.01025006
0.010250418
0.010249643
0.010247124
0.010241939
0.010232892
0.010218776
0.010198859
0.010173606
0.010145583
0.010119315
0.01009906
0.01008739
0.010085701
0.010092134
0.010102383
0.010110457
0.010110768
0.010099431
0.010074216
0.01004027
0.010008798
0.028453964
0.018896778
0.015827096
0.013216048
0.011905937
0.011320818
0.010867025
0.010648995
0.010467858
0.010360291
0.010274285
0.01021319
0.010165994
0.010130434
0.010103355
0.010083008
0.010068423
0.010057273
0.010049872
0.010045668
0.01004396
0.010044325
0.010045858
0.010049094
0.010053512
0.010058878
0.010065037
0.010071834
0.010079137
0.010086838
0.010094833
0.010103022
0.010111317
0.01011964
0.010127931
0.010136141
0.010144232
0.01015217
0.010159929
0.010167484
0.010174816
0.010181903
0.010188724
0.010195254
0.010201472
0.010207353
0.010212868
0.010217994
0.010222714
0.010227026
0.010230926
0.010234419
0.010237512
0.010240208
0.010242508
0.010244399
0.010245854
0.010246818
0.010247178
0.010246722
0.010245064
0.010241569
0.01023532
0.010225189
0.010210174
0.01018992
0.010165207
0.010138362
0.010113316
0.010094001
0.010083271
0.010082009
0.010087878
0.010096854
0.01010347
0.010102878
0.010091933
0.010068977
0.010038134
0.010008638
0.026752496
0.019082837
0.015336677
0.012888042
0.011693301
0.011178585
0.010764428
0.010571201
0.010407987
0.010311719
0.010234903
0.010180549
0.010139135
0.010108385
0.010085486
0.010068692
0.010057483
0.010049318
0.010044612
0.010042468
0.010042172
0.010045412
0.010049207
0.010054194
0.010060201
0.010067036
0.01007452
0.010082499
0.010090839
0.010099426
0.010108158
0.010116935
0.010125669
0.010134283
0.010142719
0.010150932
0.010158888
0.010166562
0.010173937
0.010180999
0.01018774
0.010194153
0.010200229
0.010205958
0.01021133
0.010216336
0.010220958
0.010225181
0.010228999
0.010232413
0.010235426
0.010238044
0.010240276
0.010242126
0.010243592
0.010244661
0.010245302
0.010245449
0.010244974
0.010243638
0.01024103
0.010236508
0.010229185
0.010218027
0.010202197
0.010181624
0.010157365
0.010131566
0.010107532
0.010088895
0.010079247
0.010078218
0.010083409
0.010091077
0.010096362
0.01009516
0.010084912
0.010064086
0.010036009
0.010008636
0.025063638
0.01925408
0.014668896
0.012587236
0.01149899
0.011048831
0.010672175
0.010501408
0.010355496
0.010269629
0.010201682
0.010153883
0.010118138
0.010092155
0.010073442
0.010060205
0.010052058
0.010047185
0.01004492
0.010043694
0.010048835
0.010052847
0.010058477
0.010065192
0.010072764
0.010080989
0.010089697
0.010098733
0.010107957
0.010117254
0.010126522
0.010135667
0.010144603
0.010153257
0.010161578
0.010169527
0.01017708
0.010184223
0.010190952
0.010197268
0.010203177
0.010208687
0.010213804
0.010218533
0.010222879
0.010226843
0.010230423
0.010233612
0.010236411
0.010238824
0.010240861
0.010242528
0.010243833
0.01024478
0.010245363
0.010245566
0.010245352
0.010244642
0.01024329
0.010241031
0.010237431
0.01023185
0.010223464
0.010211358
0.010194845
0.010174009
0.010150088
0.010125142
0.010101955
0.010084089
0.010075424
0.010074441
0.010078815
0.01008514
0.010089256
0.010087774
0.010078499
0.01005967
0.010034094
0.010008727
0.023544563
0.01939643
0.014131869
0.012311421
0.011323446
0.01093105
0.010590687
0.010440295
0.010310538
0.010234403
0.010175028
0.01013366
0.0101035
0.010082259
0.010067744
0.010058193
0.010051738
0.010051477
0.010052476
0.010055993
0.010060277
0.010066683
0.01007417
0.010082537
0.010091561
0.010101042
0.010110807
0.010120701
0.010130583
0.010140339
0.010149869
0.010159088
0.010167918
0.010176297
0.010184183
0.010191551
0.010198391
0.010204705
0.010210505
0.010215807
0.010220636
0.010225016
0.010228968
0.010232513
0.010235667
0.010238446
0.010240856
0.010242902
0.010244587
0.010245922
0.010246916
0.010247578
0.010247912
0.010247919
0.010247589
0.010246901
0.010245807
0.010244217
0.010241965
0.010238762
0.010234153
0.010227507
0.010218071
0.010205086
0.010188019
0.010167011
0.010143332
0.010119057
0.010096571
0.010079819
0.010071896
0.01007075
0.010074145
0.010079099
0.010082233
0.01008081
0.010072754
0.0100559
0.01003274
0.010009042
0.022188846
0.019526641
0.013666221
0.012060854
0.011166621
0.010825471
0.010519813
0.010387579
0.010273441
0.010206504
0.010155425
0.010120416
0.01009579
0.010079299
0.010068971
0.010063472
0.010061872
0.010062822
0.01006643
0.010071929
0.010079181
0.010087479
0.010096709
0.010106584
0.010116881
0.010127396
0.01013796
0.01014842
0.010158639
0.010168509
0.010177938
0.010186854
0.010195198
0.010202923
0.010210004
0.010216436
0.010222226
0.010227396
0.010231976
0.010236003
0.010239516
0.010242557
0.010245163
0.010247365
0.010249194
0.010250673
0.010251819
0.010252643
0.010253152
0.010253358
0.01025327
0.010252897
0.010252239
0.01025129
0.010250037
0.010248448
0.010246468
0.010243991
0.010240833
0.010236683
0.010231074
0.010223386
0.010212931
0.010199108
0.010181574
0.010160498
0.010137021
0.010113276
0.010091364
0.010076164
0.010068705
0.010067163
0.010069411
0.010073004
0.010075392
0.010074359
0.010067716
0.010052887
0.010032163
0.01000969
0.020962824
0.019613968
0.013239113
0.011835527
0.011028082
0.010732524
0.010459644
0.010343774
0.01024453
0.010186433
0.010143431
0.010114769
0.01009567
0.010083966
0.010077867
0.010076064
0.010077622
0.010081934
0.010088303
0.010096311
0.010105519
0.010115672
0.010126445
0.010137581
0.010148855
0.010160066
0.010171052
0.010181667
0.010191789
0.010201323
0.010210195
0.010218354
0.010225766
0.01023241
0.010238285
0.010243407
0.010247808
0.010251529
0.01025462
0.010257137
0.010259134
0.010260665
0.010261782
0.010262527
0.010262937
0.010263043
0.010262869
0.010262428
0.010261733
0.01026079
0.010259611
0.010258198
0.010256548
0.01025465
0.01025248
0.010249999
0.010247138
0.010243779
0.010239722
0.010234642
0.010228069
0.010219399
0.010207995
0.010193381
0.010175416
0.010154363
0.010131119
0.010107807
0.010087055
0.010073117
0.01006584
0.010063646
0.010064632
0.010066968
0.010068912
0.010068564
0.010063418
0.01005062
0.010032318
0.010010627
0.019859647
0.019619866
0.012851817
0.011633369
0.010906996
0.010651598
0.010410276
0.010309248
0.01022426
0.010174828
0.010139763
0.010117482
0.010103943
0.010097078
0.010095259
0.010097276
0.010102247
0.010109491
0.010118468
0.010128718
0.010139867
0.010151568
0.010163547
0.010175547
0.010187352
0.010198772
0.010209656
0.010219883
0.010229354
0.010238
0.010245778
0.010252668
0.010258667
0.010263788
0.010268057
0.010271516
0.01027422
0.01027623
0.010277612
0.010278436
0.01027877
0.010278678
0.010278219
0.010277441
0.010276389
0.010275095
0.010273585
0.010271877
0.01026998
0.010267902
0.010265647
0.010263215
0.010260596
0.010257771
0.010254707
0.010251354
0.010247632
0.010243408
0.010238471
0.010232492
0.010225012
0.010215458
0.010203237
0.010187936
0.010169566
0.01014858
0.010125706
0.010102664
0.010083553
0.010070585
0.010063189
0.01006016
0.010059883
0.010061203
0.010063054
0.010063589
0.010059844
0.010048936
0.010032918
0.010011872
0.018865604
0.01940708
0.012502289
0.011453337
0.010803183
0.010583185
0.010372008
0.010284638
0.010213344
0.010172576
0.010145369
0.01012954
0.010121611
0.010119631
0.010122097
0.010127876
0.010136124
0.010146199
0.01015756
0.010169756
0.010182411
0.010195203
0.010207856
0.010220132
0.010231833
0.010242799
0.010252908
0.010262075
0.010270244
0.010277384
0.010283493
0.01028859
0.01029271
0.010295898
0.010298212
0.010299716
0.010300483
0.01030059
0.010300117
0.01029914
0.010297735
0.01029597
0.010293909
0.010291602
0.010289093
0.010286418
0.010283599
0.010280655
0.010277594
0.010274419
0.010271129
0.010267717
0.010264169
0.010260455
0.010256533
0.010252342
0.010247787
0.010242727
0.010236941
0.010230108
0.010221792
0.010211472
0.010198612
0.01018282
0.01016413
0.010143171
0.010120817
0.010098186
0.010080701
0.010068382
0.010060724
0.010056723
0.010055351
0.010056021
0.010058101
0.010059525
0.010056843
0.010047558
0.010033771
0.01001341
0.017965891
0.018564828
0.012187846
0.011294732
0.010716877
0.010527594
0.010345378
0.0102709
0.010212835
0.010180836
0.010161466
0.010152152
0.010149851
0.010152728
0.010159388
0.010168758
0.01018003
0.01019257
0.010205856
0.010219446
0.010232978
0.010246142
0.010258696
0.010270434
0.010281205
0.010290896
0.010299437
0.010306797
0.010312973
0.010317988
0.010321883
0.010324719
0.010326566
0.010327501
0.010327603
0.010326956
0.010325645
0.010323755
0.010321368
0.010318566
0.010315422
0.010312006
0.010308378
0.010304588
0.010300679
0.010296681
0.010292616
0.010288498
0.010284334
0.010280122
0.010275856
0.010271522
0.010267098
0.010262546
0.010257813
0.010252825
0.010247479
0.010241622
0.010235033
0.010227403
0.01021833
0.010207362
0.010194043
0.010178015
0.010159213
0.010138199
0.010116243
0.01009477
0.010078378
0.010066379
0.010058307
0.010053463
0.010051333
0.010051785
0.01005425
0.010056283
0.010054121
0.010046082
0.010034481
0.01001499
0.017152474
0.017215073
0.01191054
0.011157293
0.01064716
0.010485777
0.010331434
0.010269438
0.010224172
0.010201069
0.010189493
0.010186677
0.010189913
0.010197472
0.010208041
0.010220602
0.010234367
0.01024872
0.010263159
0.010277267
0.010290717
0.010303252
0.010314683
0.010324875
0.010333745
0.010341254
0.010347402
0.010352223
0.010355774
0.010358129
0.010359374
0.010359604
0.010358915
0.010357406
0.01035517
0.010352299
0.010348881
0.010345
0.010340737
0.010336167
0.010331359
0.010326375
0.010321272
0.010316094
0.010310877
0.010305649
0.010300428
0.010295223
0.010290035
0.010284862
0.01027969
0.010274501
0.010269263
0.010263932
0.010258444
0.010252714
0.010246628
0.010240028
0.010232699
0.010224348
0.010214614
0.010203107
0.010189467
0.010173416
0.010154799
0.010133847
0.010111864
0.010092194
0.0100765
0.010064551
0.010056021
0.010050598
0.010048174
0.01004876
0.010051476
0.0100535
0.010051163
0.010044035
0.010034599
0.010016363
0.016421277
0.016357524
0.011676418
0.011041418
0.010594925
0.010459109
0.010331663
0.010281922
0.010249039
0.010234895
0.01023099
0.010234505
0.010242979
0.010254775
0.010268643
0.010283614
0.010298929
0.01031401
0.010328411
0.010341783
0.01035388
0.010364534
0.010373652
0.010381196
0.010387177
0.010391643
0.010394668
0.010396351
0.010396802
0.010396136
0.010394471
0.010391922
0.010388601
0.010384611
0.01038005
0.010375007
0.010369564
0.010363796
0.010357776
0.010351567
0.010345229
0.010338815
0.01033237
0.010325933
0.010319533
0.010313192
0.010306922
0.01030073
0.010294612
0.010288561
0.010282561
0.010276588
0.010270604
0.010264559
0.010258379
0.01025197
0.01024521
0.010237939
0.01022995
0.010220978
0.010210701
0.010198778
0.010184917
0.010168929
0.010150706
0.010130275
0.010108559
0.010090262
0.010075071
0.010063038
0.010054108
0.010048408
0.010046118
0.01004686
0.010049375
0.010050619
0.010047464
0.01004097
0.010033905
0.010017919
0.015764463
0.015359974
0.011476501
0.010947625
0.010561114
0.01044928
0.010347693
0.010310246
0.010289338
0.010284088
0.010287539
0.010296905
0.010309913
0.010325009
0.010341017
0.010357041
0.010372407
0.010386635
0.010399397
0.010410472
0.010419745
0.010427179
0.010432803
0.010436691
0.010438951
0.010439711
0.010439109
0.010437291
0.010434402
0.01043058
0.010425955
0.010420646
0.010414763
0.010408405
0.01040166
0.010394605
0.01038731
0.010379836
0.01037224
0.010364574
0.010356884
0.010349209
0.010341586
0.010334043
0.010326603
0.010319279
0.01031208
0.010305008
0.010298058
0.010291217
0.010284468
0.010277784
0.010271124
0.010264431
0.010257627
0.01025061
0.010243252
0.010235396
0.010226848
0.010217371
0.010206688
0.010194497
0.010180526
0.010164607
0.010146719
0.01012699
0.010106158
0.010088913
0.010074165
0.010062107
0.010052947
0.010047143
0.010045008
0.010045494
0.010047173
0.010047
0.010042833
0.010036849
0.010031894
0.010020147
0.01517639
0.014683989
0.011313211
0.010876591
0.01054675
0.010458477
0.010381703
0.010356755
0.010347291
0.010350484
0.010360465
0.010374545
0.010390639
0.010407318
0.010423551
0.010438608
0.010451991
0.0104634
0.010472696
0.01047984
0.010484878
0.010487918
0.01048911
0.010488625
0.010486647
0.010483358
0.010478935
0.010473543
0.010467336
0.010460454
0.010453018
0.010445138
0.010436909
0.010428412
0.010419719
0.010410891
0.010401979
0.010393029
0.01038408
0.010375169
0.010366326
0.010357581
0.010348957
0.010340472
0.010332141
0.010323972
0.010315969
0.010308129
0.010300445
0.010292902
0.010285482
0.010278156
0.010270884
0.010263607
0.010256245
0.010248693
0.010240822
0.010232477
0.010223477
0.010213615
0.010202652
0.010190326
0.010176368
0.010160569
0.010142884
0.010123647
0.0101044
0.010088074
0.010073876
0.010061994
0.01005278
0.010046737
0.010044102
0.010043785
0.01004404
0.010042221
0.010037278
0.010031935
0.010028549
0.010021513
0.014651456
0.013934992
0.011183216
0.010830958
0.010553638
0.010490029
0.010436731
0.010424156
0.010424989
0.010435241
0.010449892
0.010466469
0.010483166
0.010498813
0.010512656
0.010524248
0.010533364
0.010539953
0.010544099
0.010545951
0.010545709
0.0105436
0.010539856
0.01053471
0.01052838
0.010521065
0.010512945
0.01050418
0.010494909
0.010485251
0.01047531
0.01046517
0.010454905
0.010444574
0.010434227
0.010423906
0.010413644
0.010403469
0.010393404
0.010383469
0.010373683
0.01036406
0.010354613
0.010345352
0.010336283
0.010327408
0.010318726
0.01031023
0.01030191
0.010293752
0.010285737
0.010277835
0.01027001
0.010262204
0.010254341
0.010246318
0.01023801
0.010229265
0.010219912
0.010209762
0.010198608
0.010186218
0.010172348
0.010156775
0.01013941
0.010120674
0.010102949
0.010087616
0.010074142
0.01006263
0.010053382
0.01004678
0.010042905
0.010041087
0.010039566
0.010036327
0.010031093
0.010026535
0.010024227
0.01002026
0.014189323
0.013355612
0.011091154
0.010815415
0.010585607
0.010547976
0.010515879
0.010514292
0.010522898
0.010537293
0.010553332
0.010568966
0.010582859
0.010594269
0.010602849
0.010608513
0.01061135
0.010611559
0.010609412
0.010605204
0.010599232
0.01059178
0.010583113
0.010573468
0.010563055
0.010552056
0.010540626
0.010528895
0.010516973
0.010504948
0.010492895
0.010480873
0.010468927
0.010457096
0.010445407
0.010433883
0.010422539
0.010411387
0.010400436
0.010389693
0.010379163
0.010368848
0.010358752
0.010348875
0.010339217
0.010329772
0.010320535
0.010311496
0.010302641
0.010293956
0.01028542
0.010277006
0.01026868
0.01026039
0.010252068
0.010243619
0.010234925
0.010225841
0.010216205
0.010205835
0.010194538
0.010182106
0.010168322
0.010152982
0.010136013
0.010117912
0.010101541
0.010087232
0.010074594
0.010063537
0.010054156
0.010046684
0.010041258
0.01003747
0.010034124
0.010029874
0.010024801
0.010021184
0.010019701
0.010016455
0.013795369
0.012895553
0.011039487
0.010835048
0.010667906
0.010635361
0.01062022
0.010625992
0.010637892
0.010651834
0.010664757
0.010675278
0.010682706
0.010686834
0.010687748
0.010685705
0.010681044
0.010674138
0.010665359
0.010655059
0.010643553
0.010631116
0.010617988
0.010604368
0.010590426
0.0105763
0.010562103
0.010547927
0.010533843
0.010519909
0.010506166
0.010492648
0.010479377
0.01046637
0.010453636
0.010441179
0.010429
0.0104171
0.010405473
0.010394116
0.010383023
0.010372187
0.010361602
0.01035126
0.010341154
0.010331273
0.010321605
0.010312136
0.010302851
0.01029373
0.010284753
0.010275893
0.010267118
0.010258384
0.01024963
0.010240776
0.010231716
0.010222317
0.010212426
0.010201867
0.010190454
0.010177992
0.010164283
0.010149156
0.010132575
0.010115108
0.010099863
0.010086464
0.010074592
0.010063968
0.010054476
0.010046194
0.010039301
0.010033722
0.010028824
0.010023822
0.010019031
0.010016268
0.010015492
0.010012229
0.013478742
0.012525191
0.01103229
0.010889778
0.010769744
0.010751483
0.010746097
0.010753107
0.010762159
0.01077013
0.010775193
0.010776775
0.010774843
0.010769665
0.010761653
0.010751267
0.010738962
0.010725152
0.010710206
0.010694437
0.010678111
0.010661442
0.010644606
0.010627743
0.010610965
0.010594358
0.01057799
0.010561911
0.010546158
0.010530756
0.010515723
0.010501066
0.010486791
0.010472895
0.010459374
0.010446219
0.01043342
0.010420964
0.010408841
0.010397035
0.010385534
0.010374324
0.01036339
0.010352719
0.010342296
0.010332104
0.010322127
0.010312346
0.010302739
0.010293283
0.010283955
0.010274726
0.010265565
0.010256432
0.010247277
0.010238032
0.010228607
0.010218888
0.010208734
0.010197984
0.010186459
0.010173969
0.010160324
0.010145369
0.010129102
0.010112144
0.010097693
0.010084923
0.010073572
0.010063279
0.010053829
0.01004519
0.010037494
0.010030781
0.010024752
0.010019064
0.010014258
0.01001182
0.010011273
0.010008099
0.013256131
0.012256451
0.011072422
0.010986216
0.010901821
0.010887891
0.010883448
0.010884385
0.01088427
0.010881351
0.010874985
0.010865301
0.010852726
0.010837783
0.010820994
0.010802835
0.010783715
0.010763977
0.010743896
0.010723693
0.01070354
0.01068357
0.010663886
0.010644561
0.01062565
0.010607192
0.010589213
0.010571727
0.010554743
0.010538262
0.01052228
0.010506787
0.010491774
0.010477226
0.010463128
0.010449462
0.010436209
0.010423352
0.010410871
0.010398746
0.010386959
0.010375491
0.010364322
0.010353433
0.010342805
0.010332415
0.010322242
0.010312261
0.010302445
0.010292764
0.01028319
0.010273691
0.010264232
0.010254776
0.010245279
0.010235682
0.01022591
0.010215866
0.01020543
0.010194459
0.01018279
0.010170245
0.010156639
0.010141812
0.010125761
0.010109121
0.010095089
0.010082606
0.01007148
0.010061381
0.010052112
0.010043592
0.010035824
0.010028738
0.010022106
0.010015852
0.010010724
0.010008078
0.010007493
0.010005835
0.013127922
0.012088163
0.011165492
0.011113324
0.011048885
0.011031196
0.011017989
0.011006209
0.010992281
0.010975715
0.010956644
0.010935534
0.010912915
0.010889278
0.010865041
0.010840541
0.01081604
0.010791743
0.010767797
0.010744314
0.01072137
0.010699019
0.010677295
0.010656217
0.010635794
0.010616026
0.010596906
0.010578424
0.010560566
0.010543315
0.010526651
0.010510556
0.010495007
0.010479983
0.010465461
0.010451418
0.01043783
0.010424674
0.010411929
0.01039957
0.010387576
0.010375925
0.010364596
0.010353565
0.01034281
0.010332305
0.010322025
0.010311938
0.010302014
0.010292217
0.01028251
0.010272858
0.010263222
0.010253563
0.010243835
0.010233985
0.010223944
0.010213625
0.010202922
0.010191711
0.010179852
0.01016719
0.010153554
0.010138783
0.010122853
0.010106371
0.010092462
0.01008002
0.010068902
0.010058841
0.010049694
0.010041381
0.01003382
0.010026821
0.010020131
0.010013792
0.010008648
0.010005922
0.010005222
0.010003943
0.013061093
0.012016112
0.011322313
0.011254692
0.01119454
0.011162743
0.011133937
0.011105919
0.011077001
0.011047195
0.011016767
0.010986083
0.010955471
0.010925196
0.010895457
0.010866395
0.010838106
0.01081065
0.010784062
0.010758357
0.010733536
0.010709589
0.0106865
0.010664248
0.010642808
0.010622153
0.010602256
0.010583088
0.010564622
0.010546827
0.010529677
0.010513142
0.010497197
0.010481813
0.010466964
0.010452624
0.010438768
0.010425369
0.010412403
0.010399847
0.010387677
0.01037587
0.010364404
0.010353256
0.010342401
0.010331815
0.010321468
0.010311329
0.010301362
0.010291528
0.010281786
0.010272096
0.010262415
0.010252699
0.0102429
0.010232961
0.01022281
0.01021236
0.010201507
0.010190132
0.010178104
0.010165288
0.010151537
0.010136716
0.0101208
0.010104363
0.01009042
0.010077911
0.010066708
0.010056567
0.010047361
0.010039018
0.010031477
0.010024616
0.010018278
0.010012494
0.010007746
0.010004737
0.010003342
0.010001878
0.013068285
0.011975093
0.011476
0.011386653
0.011315129
0.011265037
0.011219253
0.011176306
0.011134909
0.01109488
0.011056168
0.0110188
0.010982795
0.01094816
0.010914881
0.01088293
0.01085227
0.010822855
0.010794637
0.010767567
0.010741592
0.010716662
0.010692729
0.010669746
0.010647666
0.010626446
0.010606045
0.010586425
0.010567548
0.010549378
0.010531882
0.010515027
0.010498783
0.01048312
0.010468009
0.010453421
0.010439331
0.010425713
0.01041254
0.01039979
0.010387438
0.010375463
0.010363842
0.010352555
0.010341578
0.010330889
0.01032046
0.01031026
0.010300256
0.010290408
0.010280674
0.01027101
0.010261372
0.010251714
0.010241984
0.010232123
0.010222056
0.010211691
0.010200914
0.010189594
0.010177587
0.010164751
0.010150951
0.010136076
0.010120123
0.010103652
0.010089558
0.010076912
0.010065577
0.010055312
0.010045971
0.010037466
0.01002976
0.010022827
0.01001664
0.010011221
0.010006766
0.010003632
0.010001894
0.010000783
0.013158618
0.012000035
0.01159145
0.011482664
0.011395904
0.011330011
0.011271425
0.011218232
0.011168811
0.011122514
0.011078902
0.011037686
0.01099864
0.010961583
0.01092636
0.010892836
0.010860891
0.010830417
0.010801318
0.010773507
0.010746904
0.010721435
0.010697033
0.010673638
0.010651192
0.010629642
0.010608941
0.010589042
0.010569905
0.010551489
0.010533759
0.010516679
0.010500216
0.01048434
0.010469019
0.010454226
0.010439933
0.010426112
0.010412739
0.010399789
0.010387238
0.010375066
0.010363252
0.010351777
0.01034062
0.010329764
0.010319185
0.010308859
0.010298753
0.010288832
0.010279054
0.010269373
0.010259742
0.010250111
0.010240433
0.010230653
0.010220707
0.010210512
0.010199958
0.010188905
0.010177183
0.010164614
0.010151044
0.010136382
0.010120667
0.010104385
0.010089966
0.010077106
0.010065577
0.01005515
0.010045669
0.010037029
0.010029201
0.010022223
0.010016132
0.010010902
0.010006493
0.010003019
0.010000768
0.0099998872
0.013282097
0.012055989
0.011652275
0.011531122
0.0114343
0.011360142
0.011295518
0.011237859
0.011185128
0.011136351
0.011090859
0.011048199
0.011008032
0.010970092
0.010934163
0.010900066
0.010867648
0.010836778
0.01080734
0.010779233
0.010752366
0.010726659
0.010702037
0.010678435
0.010655792
0.010634053
0.010613166
0.010593084
0.010573764
0.010555166
0.010537251
0.010519985
0.010503333
0.010487263
0.010471746
0.010456751
0.010442251
0.010428218
0.010414625
0.010401449
0.010388666
0.010376254
0.010364193
0.010352466
0.010341056
0.010329947
0.010319121
0.010308559
0.010298232
0.010288105
0.010278136
0.010268271
0.010258455
0.010248635
0.01023876
0.010228782
0.010218652
0.01020831
0.010197667
0.010186603
0.01017496
0.010162552
0.010149202
0.010134799
0.010119376
0.010103404
0.010089157
0.010076434
0.010065027
0.010054713
0.01004533
0.010036764
0.010028999
0.010022111
0.010016166
0.010011083
0.010006648
0.010002833
0.010000218
0.0099994504
65.764315
359.70065
119.52366
13.977139
0.38414689
0.022142199
0.020875153
0.020535228
0.02027085
0.019191477
0.017784506
0.016556308
0.015619202
0.015007067
0.014570796
0.014155539
0.013746771
0.013386089
0.013087465
0.012839585
0.012628894
0.012446927
0.012288464
0.012149554
0.012026922
0.011917886
0.011820315
0.011732508
0.011653118
0.011581078
0.011515507
0.01145564
0.011400803
0.011350417
0.011304012
0.011261199
0.011221641
0.011185034
0.01115109
0.011119538
0.011090129
0.011062621
0.011036786
0.011012409
0.010989284
0.010967215
0.010946013
0.010925504
0.010905545
0.010886037
0.010866927
0.010848217
0.010829976
0.010812334
0.010795482
0.010779676
0.010765246
0.010752586
0.010742147
0.010734349
0.010729227
0.010726389
0.010725201
0.010724772
0.010720348
0.010706533
0.010685848
0.010656421