/*--------------------------------*- C++ -*----------------------------------*\
  =========                 |
  \\      /  F ield         | OpenFOAM: The Open Source CFD Toolbox
   \\    /   O peration     | Website:  https://openfoam.org
    \\  /    A nd           | Version:  12
     \\/     M anipulation  |
\*---------------------------------------------------------------------------*/
FoamFile
{
    format      ascii;
    class       volScalarField;
    location    "0.05";
    object      Ma;
}
// * * * * * * * * * * * * * * * * * * * * * * * * * * * * * * * * * * * * * //

dimensions      [];

internalField   nonuniform List<scalar> 
16000
(
0.62335294
0.7402482
0.69574635
0.72007236
0.7051763
0.71202429
0.70637664
0.70786878
0.7052438
0.70479267
0.70317683
0.70204321
0.70063246
0.69925501
0.69779565
0.69628994
0.6947268
0.69310782
0.69143184
0.68969839
0.6879071
0.6860578
0.68415057
0.68218574
0.68016395
0.67808616
0.67595365
0.67376811
0.67153159
0.66924656
0.6669159
0.6645429
0.66213126
0.6596851
0.65720891
0.65470753
0.65218613
0.64965014
0.64710524
0.64455725
0.64201209
0.6394757
0.636954
0.63445276
0.63197757
0.62953376
0.62712637
0.62476007
0.62243921
0.62016778
0.61794942
0.61578749
0.61368506
0.6116449
0.60966956
0.60776128
0.60592213
0.60415409
0.60245923
0.60083973
0.59929817
0.59783791
0.59646301
0.59517772
0.59398602
0.59289049
0.59189023
0.59097783
0.59013606
0.58933577
0.58853682
0.58769243
0.58675561
0.58568558
0.58445368
0.58305758
0.58152631
0.57994082
0.57888386
0.57756276
0.62781895
0.74541981
0.69911329
0.72467966
0.708971
0.71627447
0.7101862
0.71179368
0.7089886
0.70846515
0.70676214
0.70551348
0.70401169
0.7025206
0.70095308
0.69933131
0.69764949
0.69590759
0.69410504
0.69224143
0.69031665
0.68833083
0.68628438
0.68417804
0.6820129
0.67979043
0.67751249
0.67518134
0.67279971
0.67037075
0.66789806
0.6653857
0.66283813
0.66026024
0.6576573
0.65503491
0.65239895
0.64975552
0.64711091
0.64447145
0.64184349
0.6392333
0.636647
0.63409046
0.63156923
0.6290885
0.62665303
0.62426716
0.62193476
0.61965927
0.61744376
0.61529093
0.61320317
0.61118258
0.60923099
0.60734994
0.60554079
0.60380482
0.60214337
0.60055806
0.59905081
0.59762434
0.59628209
0.59502763
0.59386415
0.59279328
0.59181308
0.5909152
0.59008179
0.58928363
0.5884812
0.58762881
0.58668094
0.58559841
0.58435397
0.58294635
0.58141411
0.57987409
0.57875571
0.57759998
0.63198847
0.7501651
0.70268987
0.72869441
0.71253651
0.71994197
0.71369692
0.71519455
0.71233516
0.71165655
0.70988589
0.70850054
0.70689517
0.70527816
0.70358689
0.7018349
0.70001894
0.69813871
0.69619392
0.69418449
0.69211066
0.68997295
0.68777226
0.68550983
0.68318733
0.68080684
0.67837091
0.67588256
0.67334529
0.67076309
0.66814045
0.66548232
0.6627941
0.66008159
0.65735096
0.65460867
0.65186141
0.64911602
0.6463794
0.64365841
0.64095979
0.63829007
0.63565546
0.63306178
0.63051441
0.62801821
0.62557747
0.62319594
0.62087684
0.61862287
0.61643626
0.61431888
0.61227226
0.61029764
0.60839596
0.60656793
0.60481406
0.60313484
0.60153089
0.60000313
0.59855288
0.59718225
0.59589401
0.59469103
0.59357557
0.59254809
0.5916053
0.59073741
0.58992546
0.58913983
0.58834159
0.58748671
0.58653212
0.585441
0.58418852
0.58277828
0.58125637
0.57975442
0.57865672
0.57756174
0.63579651
0.75449669
0.70569776
0.73220777
0.71565277
0.7231643
0.71675617
0.71812386
0.71520129
0.71434795
0.71249519
0.71095692
0.7092299
0.70747077
0.70563827
0.70373926
0.70177249
0.69973762
0.69763471
0.69546406
0.69322631
0.69092247
0.68855395
0.68612261
0.6836308
0.68108136
0.67847767
0.67582366
0.6731238
0.6703831
0.6676071
0.66480182
0.66197374
0.6591297
0.65627687
0.65342264
0.65057452
0.64774006
0.64492671
0.64214175
0.63939217
0.63668453
0.63402496
0.63141898
0.62887151
0.62638682
0.62396846
0.62161936
0.61934178
0.61713744
0.61500756
0.61295294
0.61097408
0.60907118
0.6072442
0.60549289
0.60381686
0.60221576
0.60068943
0.59923814
0.59786259
0.59656426
0.5953453
0.59420786
0.59315335
0.59218114
0.59128673
0.59045915
0.58967862
0.58891542
0.58813139
0.58728422
0.58633308
0.58524321
0.58399241
0.58258931
0.58108465
0.57962296
0.57856348
0.57748546
0.63923161
0.75835258
0.70846065
0.73511203
0.71815947
0.72583215
0.71930681
0.72048716
0.71751748
0.71645644
0.71451079
0.7128019
0.71093479
0.70901795
0.7070273
0.70496531
0.70283174
0.70062644
0.69834975
0.69600235
0.69358535
0.69110035
0.68854944
0.68593528
0.6832611
0.68053075
0.6777487
0.67492004
0.67205046
0.66914625
0.66621423
0.66326169
0.66029635
0.65732622
0.65435954
0.65140463
0.6484698
0.64556319
0.6426927
0.63986581
0.63708949
0.63437011
0.63171336
0.62912416
0.62660666
0.62416419
0.62179927
0.61951367
0.61730847
0.61518415
0.61314069
0.61117769
0.60929445
0.60749003
0.60576331
0.60411305
0.60253794
0.6010368
0.59960873
0.59825334
0.59697076
0.5957619
0.5946283
0.59357139
0.59259172
0.59168764
0.59085348
0.5900772
0.58933831
0.58860716
0.58784656
0.58701601
0.58607692
0.58499658
0.58375627
0.58236942
0.58088974
0.57947617
0.57846255
0.57738033
0.64224297
0.76164729
0.7107767
0.7375636
0.72034121
0.727866
0.72120882
0.72220642
0.71918745
0.71790932
0.7158588
0.71396853
0.71194551
0.70985809
0.70769413
0.70545371
0.70313707
0.70074441
0.69827654
0.69573474
0.69312088
0.69043742
0.68768747
0.6848748
0.68200391
0.67907998
0.67610891
0.67309728
0.67005231
0.66698183
0.66389415
0.66079804
0.65770255
0.65461692
0.65155043
0.64851228
0.6455114
0.64255632
0.63965508
0.63681503
0.63404278
0.63134409
0.62872381
0.62618586
0.62373319
0.62136782
0.61909089
0.61690273
0.61480294
0.61279057
0.6108642
0.60902206
0.60726218
0.60558245
0.60398065
0.60245456
0.601002
0.59962101
0.59831005
0.59706813
0.5958949
0.59479072
0.59375655
0.59279316
0.59190027
0.59107532
0.59031158
0.58959616
0.5889081
0.588218
0.58748984
0.58668502
0.58576704
0.58470537
0.58348516
0.58212363
0.58067659
0.57932186
0.5783479
0.57725736
0.64480321
0.76436495
0.71264591
0.73952839
0.7220564
0.72924937
0.72263135
0.72325233
0.72024851
0.71868679
0.71651717
0.71443448
0.71223579
0.70995946
0.70760097
0.70515993
0.7026371
0.7000335
0.69735077
0.69459121
0.69175782
0.68885434
0.68588527
0.68285594
0.67977247
0.67664177
0.67347153
0.67027015
0.66704668
0.66381071
0.66057223
0.65734157
0.65412915
0.65094536
0.64780038
0.64470404
0.64166556
0.63869352
0.63579562
0.63297862
0.63024826
0.62760917
0.62506486
0.62261775
0.62026915
0.61801938
0.61586784
0.61381313
0.61185318
0.60998542
0.60820691
0.60651451
0.60490495
0.60337496
0.60192131
0.60054087
0.59923071
0.59798824
0.59681135
0.59569862
0.59464926
0.59366321
0.59274089
0.59188244
0.59108686
0.59035071
0.58966646
0.58902049
0.58839164
0.58775094
0.58706368
0.58629321
0.58540505
0.58437115
0.58318082
0.58185344
0.5804477
0.57916214
0.57821792
0.57712538
0.64695445
0.76653547
0.71410914
0.74103414
0.72336777
0.73021205
0.72355463
0.72405501
0.72064448
0.71881137
0.71648707
0.7141859
0.71177752
0.70928076
0.70669528
0.70402136
0.70126054
0.69841492
0.69548734
0.69248145
0.68940178
0.68625374
0.68304369
0.67977888
0.67646751
0.67311862
0.66974204
0.66634833
0.66294858
0.65955432
0.65617732
0.6528294
0.64952222
0.64626708
0.64307472
0.63995511
0.63691732
0.63396931
0.63111788
0.62836855
0.62572551
0.62319165
0.62076857
0.61845664
0.6162551
0.61416218
0.61217525
0.61029096
0.60850544
0.60681444
0.6052135
0.60369814
0.60226389
0.60090645
0.59962171
0.59840582
0.59725526
0.59616695
0.59513844
0.59416796
0.59325445
0.5923975
0.59159707
0.59085278
0.59016295
0.58952346
0.58892612
0.58835687
0.5877945
0.58721073
0.58657224
0.5858443
0.58499447
0.58399762
0.58284703
0.58156255
0.58020748
0.57899623
0.5780764
0.57698578
0.64876343
0.768185
0.71512241
0.74207778
0.72402798
0.73022416
0.72366839
0.7233738
0.72034868
0.71822989
0.71570245
0.71314717
0.71048753
0.70773144
0.70488039
0.70193587
0.69890046
0.69577769
0.69257198
0.68928881
0.68593471
0.68251729
0.67904525
0.67552833
0.67197724
0.6684036
0.66481977
0.6612387
0.6576737
0.65413828
0.65064585
0.64720951
0.64384177
0.64055435
0.63735793
0.63426196
0.63127454
0.62840224
0.62565012
0.62302163
0.62051871
0.61814179
0.61588995
0.61376104
0.61175182
0.60985816
0.60807522
0.60639763
0.60481968
0.60333554
0.60193937
0.60062547
0.59938839
0.59822302
0.59712459
0.59608874
0.59511159
0.59418982
0.59332078
0.59250256
0.59173392
0.59101423
0.59034311
0.58971971
0.58914186
0.5886049
0.58810015
0.58761333
0.58712345
0.58660304
0.58602029
0.58534237
0.58453899
0.58358838
0.58248711
0.58125403
0.5799589
0.5788242
0.5779282
0.57683956
0.65023246
0.76929233
0.71562168
0.74245985
0.72398173
0.72975853
0.72319544
0.72251571
0.71929122
0.71682449
0.71404445
0.71119773
0.7082437
0.70518623
0.70202788
0.6987719
0.69542254
0.69198531
0.68846686
0.68487514
0.68121937
0.67751002
0.67375881
0.66997856
0.66618305
0.66238689
0.65860525
0.6548536
0.65114747
0.6475021
0.64393218
0.64045153
0.63707282
0.63380732
0.63066471
0.6276529
0.62477797
0.62204408
0.61945354
0.61700687
0.61470291
0.61253901
0.61051123
0.60861449
0.60684287
0.60518977
0.60364815
0.60221072
0.60087013
0.59961915
0.59845082
0.59735855
0.59633618
0.59537806
0.59447907
0.59363462
0.59284072
0.59209402
0.5913919
0.59073245
0.59011443
0.58953706
0.58899974
0.58850129
0.58803917
0.58760835
0.58719991
0.58679952
0.58638656
0.5859346
0.58541339
0.58479202
0.58404268
0.58314722
0.58210419
0.58093064
0.57970476
0.57864977
0.57777582
0.5766977
0.6513012
0.76975496
0.71553044
0.7413357
0.72317434
0.72836415
0.7219409
0.72067544
0.71731846
0.71447814
0.71138844
0.70820503
0.70490798
0.70150146
0.69798932
0.69437712
0.69067157
0.68688089
0.68301487
0.67908478
0.67510341
0.67108498
0.66704495
0.66299986
0.65896706
0.65496442
0.65100998
0.64712164
0.6433167
0.63961156
0.63602137
0.63255963
0.629238
0.62606602
0.62305102
0.62019802
0.61750978
0.61498685
0.61262776
0.61042922
0.60838632
0.60649287
0.60474157
0.60312436
0.60163264
0.60025749
0.59898991
0.597821
0.59674213
0.59574506
0.59482209
0.59396609
0.59317059
0.59242975
0.59173839
0.59109201
0.59048676
0.5899195
0.58938783
0.58889001
0.58842487
0.58799167
0.58758965
0.58721743
0.58687223
0.58654887
0.58623832
0.58592641
0.58559309
0.58521306
0.58475775
0.58419834
0.58350997
0.58267796
0.58170116
0.58059497
0.57944771
0.57847597
0.57762276
0.57656163
0.65187453
0.7694057
0.71473032
0.73954953
0.72175436
0.72612167
0.71976227
0.71789335
0.71430661
0.71105326
0.70759097
0.70401676
0.70032144
0.6965118
0.69259396
0.68857668
0.68447018
0.68028666
0.67604013
0.67174642
0.66742296
0.66308859
0.65876329
0.65446781
0.65022329
0.64605081
0.64197095
0.63800332
0.6341661
0.63047559
0.62694589
0.62358857
0.62041249
0.61742369
0.61462544
0.6120183
0.60960031
0.60736731
0.60531317
0.60343018
0.60170937
0.60014083
0.59871404
0.59741816
0.59624225
0.59517552
0.5942075
0.59332818
0.59252816
0.5917987
0.59113181
0.59052029
0.58995773
0.58943847
0.58895763
0.58851103
0.58809523
0.58770751
0.58734583
0.58700878
0.58669538
0.58640499
0.58613681
0.58588937
0.58565981
0.58544288
0.58522966
0.58500626
0.58475339
0.58444701
0.5840604
0.5835672
0.58294596
0.58218483
0.58128116
0.58024946
0.57918901
0.57830254
0.57746795
0.57643041
0.65189154
0.76817227
0.71308843
0.73704046
0.71947099
0.72285538
0.71653421
0.71401018
0.71011076
0.70639379
0.70248732
0.69845658
0.69429823
0.69002322
0.68564161
0.68116679
0.67661413
0.67200136
0.66734824
0.66267639
0.65800894
0.65337017
0.64878499
0.64427847
0.63987525
0.63559894
0.63147152
0.62751282
0.62373996
0.62016703
0.61680477
0.61366043
0.6107378
0.60803734
0.60555642
0.60328964
0.60122926
0.59936561
0.59768753
0.5961828
0.59483851
0.59364143
0.59257833
0.59163617
0.59080238
0.59006497
0.58941267
0.58883503
0.58832246
0.58786628
0.58745874
0.58709299
0.58676307
0.58646385
0.58619102
0.585941
0.58571094
0.5854987
0.58530277
0.58512212
0.58495607
0.58480415
0.58466559
0.58453893
0.58442135
0.58430766
0.58418913
0.58405235
0.58387887
0.58364611
0.58332946
0.5829056
0.58235678
0.58167279
0.5808477
0.57989613
0.57893015
0.57812672
0.5773064
0.5763099
0.65133533
0.76595923
0.71053551
0.73345031
0.71618981
0.71847403
0.71211139
0.70888068
0.70455892
0.70030751
0.69587235
0.69130529
0.68660827
0.6817981
0.67689108
0.67190732
0.66686933
0.66180207
0.65673253
0.65168928
0.64670194
0.64180055
0.63701483
0.63237345
0.62790325
0.62362846
0.61957006
0.61574524
0.61216702
0.60884408
0.60578072
0.6029771
0.60042952
0.59813092
0.59607136
0.59423858
0.59261861
0.59119627
0.58995566
0.5888806
0.58795504
0.58716328
0.58649025
0.5859217
0.58544429
0.58504568
0.58471459
0.58444081
0.58421522
0.58402973
0.58387726
0.58375174
0.58364799
0.5835617
0.58348935
0.58342815
0.58337602
0.58333147
0.58329358
0.58326182
0.58323584
0.58321536
0.58319976
0.58318765
0.58317629
0.58316069
0.58313239
0.58307857
0.58298181
0.58282114
0.58257443
0.58222202
0.58174987
0.58114772
0.58040515
0.57953898
0.57867242
0.57794535
0.57713548
0.5762056
0.65014804
0.76259758
0.70701733
0.72870008
0.71175167
0.71280437
0.70629448
0.70228976
0.69741916
0.69253921
0.6874762
0.68228055
0.67696203
0.67154567
0.66605669
0.66052419
0.65497981
0.64945746
0.6439926
0.63862154
0.6333805
0.62830464
0.62342701
0.61877752
0.61438202
0.61026162
0.6064321
0.60290374
0.5996813
0.59676427
0.59414736
0.59182112
0.58977259
0.58798611
0.58644402
0.58512734
0.58401642
0.58309144
0.58233287
0.58172183
0.58124032
0.58087145
0.58059951
0.5804101
0.58029012
0.58022775
0.58021246
0.58023495
0.58028709
0.58036186
0.58045325
0.58055624
0.58066671
0.58078135
0.58089759
0.58101357
0.58112803
0.58124022
0.58134982
0.5814568
0.58156119
0.58166294
0.58176158
0.58185587
0.58194325
0.58201894
0.58207491
0.58209904
0.58207509
0.58198387
0.58180617
0.58152646
0.58113388
0.58061636
0.57995926
0.5791844
0.57841873
0.57775797
0.57695556
0.57610857
0.64827525
0.75785167
0.70257425
0.7225991
0.70595158
0.70562491
0.69881693
0.6939429
0.68837547
0.68275017
0.6769491
0.6710283
0.66500903
0.65892709
0.65281933
0.64672629
0.64069082
0.63475727
0.62897026
0.62337343
0.61800794
0.6129111
0.60811508
0.60364588
0.59952272
0.59575764
0.5923556
0.58931488
0.58662777
0.58428137
0.58225861
0.58053921
0.57910068
0.57791916
0.57697023
0.57622956
0.57567341
0.57527907
0.57502508
0.57489149
0.57485996
0.57491375
0.5750378
0.57521861
0.57544424
0.57570419
0.5759893
0.5762917
0.57660468
0.57692259
0.57724078
0.5775555
0.57786379
0.57816347
0.57845302
0.57873151
0.57899854
0.57925408
0.57949843
0.579732
0.57995522
0.58016828
0.5803709
0.58056202
0.58073928
0.58089824
0.58103142
0.58112758
0.58117175
0.58114675
0.58103661
0.58082998
0.58051814
0.58008617
0.57951702
0.57883933
0.57817413
0.57756911
0.57677926
0.57602263
0.64566025
0.75133935
0.69710188
0.71488727
0.69848439
0.69659239
0.68929399
0.68342957
0.67700694
0.67051001
0.6638628
0.65713094
0.65035161
0.64357492
0.63685284
0.63024026
0.62379295
0.61756583
0.6116109
0.6059753
0.60069947
0.59581574
0.59134748
0.58730863
0.58370394
0.58052957
0.57777409
0.5754197
0.57344356
0.57181917
0.57051763
0.56950878
0.56876216
0.56824783
0.56793692
0.56780213
0.56781799
0.56796107
0.56821001
0.56854557
0.56895057
0.56940977
0.5699098
0.57043901
0.5709873
0.57154606
0.57210799
0.57266695
0.57321791
0.57375679
0.57428041
0.57478635
0.57527291
0.57573904
0.57618425
0.57660853
0.57701229
0.57739619
0.57776107
0.57810777
0.57843707
0.57874939
0.57904467
0.57932206
0.57957947
0.57981288
0.58001553
0.58017727
0.58028458
0.58032245
0.58027821
0.5801441
0.57991228
0.57956508
0.57908577
0.57850988
0.57794612
0.57739727
0.57663226
0.57595587
0.64217175
0.74239603
0.68998656
0.7051156
0.68889602
0.68523403
0.6772229
0.67023589
0.6628019
0.65531048
0.64772434
0.64012399
0.63256893
0.62512902
0.61787492
0.610877
0.60420209
0.59791061
0.59205406
0.58667303
0.58179597
0.57743878
0.5736052
0.57028784
0.56746965
0.56512573
0.56322521
0.5617331
0.560612
0.55982355
0.55932962
0.55909329
0.55907947
0.55925544
0.55959105
0.56005891
0.56063438
0.56129553
0.56202295
0.56279967
0.56361093
0.56444399
0.56528796
0.56613361
0.56697319
0.56780027
0.56860961
0.56939698
0.57015912
0.57089355
0.57159853
0.572273
0.57291646
0.57352893
0.57411089
0.57466318
0.57518692
0.57568337
0.57615384
0.57659954
0.57702154
0.57742052
0.57779662
0.57814923
0.57847658
0.57877524
0.57903938
0.57926011
0.57942562
0.57952321
0.5795432
0.57948014
0.57932585
0.57906139
0.57867408
0.57820606
0.57774532
0.577255
0.57652506
0.57591608
0.63752476
0.73099944
0.68080159
0.69272446
0.67660926
0.67099159
0.66200609
0.65374639
0.64515
0.63655813
0.62798069
0.6195217
0.61126956
0.60331681
0.59575074
0.58865025
0.58208186
0.57609706
0.5707306
0.56600018
0.56190722
0.55843851
0.55556853
0.55326207
0.55147697
0.55016664
0.54928234
0.54877501
0.54859677
0.54870205
0.54904823
0.54959619
0.55031042
0.55115915
0.55211418
0.55315074
0.55424724
0.55538503
0.55654807
0.55772274
0.55889749
0.5600627
0.56121037
0.56233397
0.56342824
0.56448904
0.5655132
0.56649839
0.56744301
0.56834614
0.56920741
0.57002698
0.57080544
0.5715438
0.57224339
0.57290576
0.57353264
0.57412577
0.57468686
0.57521742
0.57571876
0.57619176
0.57663681
0.57705355
0.57744063
0.57779536
0.57811301
0.57838625
0.57860522
0.57875967
0.57884224
0.57884817
0.57876804
0.57858393
0.57829124
0.57793705
0.57758457
0.57715559
0.57646445
0.57592143
0.63135738
0.7181987
0.66898897
0.67713289
0.66091222
0.65314936
0.64288128
0.6331796
0.62330406
0.61357877
0.60407298
0.59491963
0.58623321
0.5781191
0.57066459
0.56393581
0.55797543
0.55280245
0.54841375
0.54478677
0.54188317
0.53965278
0.53803744
0.5369746
0.53640027
0.53625147
0.53646792
0.5369933
0.53777597
0.53876933
0.53993183
0.54122689
0.54262261
0.54409139
0.54560956
0.54715697
0.54871658
0.55027411
0.5518177
0.55333756
0.55482575
0.55627588
0.55768294
0.55904308
0.56035345
0.56161208
0.56281774
0.56396981
0.56506826
0.5661135
0.56710639
0.56804815
0.56894035
0.56978481
0.57058356
0.57133877
0.5720526
0.57272717
0.57336449
0.57396631
0.57453411
0.57506899
0.57557154
0.57604171
0.57647868
0.57688059
0.57724402
0.57756337
0.57783108
0.57803948
0.57818279
0.57825551
0.57824641
0.57814067
0.57794486
0.57770909
0.5774685
0.57710168
0.57644209
0.57598167
0.62334571
0.70142474
0.6537239
0.65745993
0.64076921
0.63065546
0.61882241
0.60757572
0.59645023
0.58576437
0.57564324
0.56623579
0.55765757
0.5499953
0.5433016
0.53759582
0.53286662
0.52907659
0.52616793
0.52406843
0.52269716
0.52196939
0.52180064
0.52210959
0.52282023
0.52386303
0.52517556
0.52670262
0.528396
0.53021406
0.53212115
0.53408705
0.53608629
0.5380976
0.54010334
0.542089
0.54404278
0.54595515
0.54781857
0.54962714
0.55137639
0.55306304
0.55468484
0.5562404
0.55772903
0.55915069
0.56050583
0.56179533
0.56302045
0.56418278
0.5652842
0.56632682
0.56731299
0.56824519
0.56912602
0.56995808
0.57074388
0.5714858
0.57218602
0.57284649
0.57346882
0.57405428
0.57460366
0.5751173
0.57559494
0.57603564
0.5764373
0.57679625
0.57710751
0.57736609
0.57756745
0.57770458
0.57776435
0.57773613
0.57763802
0.57751899
0.57738473
0.57707859
0.57646021
0.57607516
0.6128531
0.67971706
0.63362371
0.6322953
0.61471226
0.60212785
0.58865938
0.57602928
0.56402036
0.5529277
0.54289125
0.53403069
0.52641092
0.52005011
0.51492271
0.51096766
0.50809728
0.50620662
0.5051818
0.50490699
0.50526977
0.50616479
0.50749596
0.50917757
0.51113454
0.513302
0.51562461
0.51805567
0.52055608
0.52309344
0.52564104
0.52817711
0.53068402
0.53314762
0.53555673
0.53790262
0.54017861
0.54237971
0.5445024
0.54654431
0.54850407
0.55038113
0.55217563
0.55388824
0.55552015
0.55707287
0.55854826
0.55994842
0.56127569
0.56253259
0.56372181
0.56484618
0.56590865
0.56691221
0.56785986
0.56875451
0.56959889
0.57039554
0.57114676
0.5718546
0.57252076
0.57314664
0.57373327
0.57428136
0.57479125
0.57526285
0.57569534
0.57608696
0.57643543
0.57673857
0.57699312
0.57719097
0.57731805
0.5773676
0.57736354
0.57735105
0.57730864
0.57706228
0.57650313
0.57617828
0.59873115
0.65097951
0.6067768
0.59988879
0.5811333
0.56618881
0.55149664
0.53817339
0.52618198
0.51573752
0.50691159
0.49972096
0.49411556
0.48999646
0.48722931
0.48565936
0.48512413
0.48546341
0.4865263
0.48817554
0.49028957
0.49276307
0.49550634
0.49844406
0.50151374
0.50466405
0.50785321
0.51104752
0.51422002
0.51734935
0.52041881
0.52341545
0.52632947
0.52915359
0.53188262
0.53451303
0.53704268
0.53947055
0.5417965
0.54402114
0.54614566
0.54817176
0.5501015
0.55193725
0.55368162
0.55533741
0.55690757
0.55839516
0.55980333
0.56113534
0.56239449
0.56358415
0.56470771
0.56576853
0.56676985
0.56771479
0.5686062
0.5694467
0.57023865
0.57098412
0.57168488
0.57234243
0.57295802
0.57353269
0.57406732
0.57456254
0.57501861
0.57543552
0.57581348
0.57615297
0.5764524
0.57670387
0.57689412
0.57701936
0.57710428
0.57718342
0.57721597
0.57702997
0.57654656
0.57628986
0.57901717
0.61287116
0.57099081
0.5584358
0.53899651
0.52212564
0.5073485
0.49474303
0.48427538
0.47598816
0.46978414
0.46550435
0.46293868
0.46185434
0.46201476
0.46319468
0.46518915
0.46781821
0.47092802
0.47438985
0.47809781
0.48196601
0.48592557
0.48992182
0.49391183
0.49786221
0.50174728
0.50554754
0.50924849
0.51283957
0.51631334
0.51966487
0.52289122
0.52599098
0.52896398
0.53181099
0.53453356
0.53713382
0.53961434
0.54197805
0.54422816
0.54636806
0.54840131
0.55033156
0.55216251
0.55389793
0.55554157
0.5570972
0.55856859
0.55995952
0.56127377
0.56251507
0.56368711
0.56479347
0.56583756
0.56682258
0.56775143
0.56862677
0.56945094
0.57022602
0.57095381
0.57163586
0.57227359
0.5728683
0.57342126
0.57393366
0.57440659
0.57484142
0.57524031
0.5756058
0.57593812
0.57623136
0.57647552
0.57666994
0.57683611
0.57699437
0.57709231
0.57697724
0.576584
0.57640976
0.55110302
0.56288832
0.52488274
0.50657498
0.4860462
0.47066037
0.45775618
0.44793104
0.44092065
0.4364832
0.43427396
0.43393136
0.43509963
0.43745417
0.44071201
0.44463541
0.44902995
0.45374002
0.45864314
0.46364428
0.46867059
0.47366688
0.4785919
0.48341524
0.48811494
0.49267554
0.4970866
0.50134152
0.50543663
0.5093705
0.51314339
0.51675684
0.52021332
0.52351603
0.52666867
0.52967531
0.53254025
0.53526798
0.5378631
0.54033025
0.54267411
0.54489933
0.54701053
0.5490123
0.55090912
0.55270543
0.55440557
0.55601382
0.55753438
0.55897141
0.56032899
0.5616111
0.56282162
0.56396424
0.56504246
0.56605948
0.56701822
0.56792131
0.56877107
0.56956956
0.57031855
0.57101965
0.57167432
0.57228405
0.57285033
0.57337469
0.57385885
0.57430516
0.57471694
0.57509797
0.57545001
0.57577024
0.57605373
0.57630375
0.57653829
0.57676614
0.57692737
0.57688313
0.57661179
0.57652673
0.51088188
0.49844457
0.46140932
0.44361635
0.42628597
0.4141548
0.40589317
0.40128801
0.39968797
0.40050998
0.40318812
0.40723794
0.41225945
0.41793612
0.42402402
0.43033927
0.43674569
0.44314398
0.4494629
0.45565224
0.46167747
0.46751564
0.4731523
0.47857925
0.4837928
0.48879254
0.49358042
0.49816001
0.50253605
0.50671405
0.51070001
0.51450025
0.51812121
0.52156939
0.52485128
0.52797326
0.53094162
0.53376248
0.53644186
0.53898559
0.54139935
0.54368866
0.5458589
0.54791524
0.54986274
0.55170627
0.55345058
0.55510028
0.55665988
0.55813377
0.55952622
0.56084137
0.56208319
0.56325543
0.5643616
0.56540487
0.56638813
0.56731397
0.56818469
0.56900229
0.56976854
0.57048501
0.5711532
0.57177459
0.57235079
0.57288352
0.57337497
0.57382806
0.57424674
0.57463529
0.57499653
0.57533062
0.57563772
0.57592493
0.57620707
0.57648303
0.57669236
0.57672916
0.57662406
0.57665652
0.44947199
0.41707506
0.38751053
0.37275008
0.36197166
0.35719928
0.3566387
0.35937582
0.36442388
0.37102704
0.3786029
0.38672922
0.39510723
0.40353107
0.41186196
0.42000872
0.42791343
0.43554124
0.4428731
0.44990072
0.45662309
0.46304399
0.46917034
0.47501099
0.48057598
0.48587588
0.49092155
0.49572375
0.5002931
0.50463989
0.50877404
0.51270508
0.51644215
0.51999396
0.52336881
0.52657464
0.529619
0.53250913
0.53525193
0.53785401
0.5403217
0.54266108
0.54487797
0.54697796
0.54896644
0.55084858
0.55262935
0.5543136
0.55590599
0.55741106
0.55883322
0.56017666
0.56144539
0.56264317
0.56377347
0.56483945
0.56584394
0.56678948
0.56767835
0.56851251
0.5692937
0.57002347
0.57070328
0.57133458
0.57191895
0.57245826
0.57295496
0.57341232
0.57383455
0.57422622
0.57459121
0.57493232
0.57525324
0.57556204
0.5758688
0.57616887
0.57642112
0.5765676
0.57662423
0.57677865
0.35422939
0.32088794
0.30335529
0.29890384
0.30028278
0.30651958
0.31564419
0.32639714
0.33790909
0.34963155
0.36123063
0.37251147
0.3833671
0.39374493
0.40362556
0.41300952
0.4219089
0.43034222
0.43833123
0.44589893
0.45306842
0.45986219
0.46630173
0.47240735
0.47819808
0.48369169
0.48890474
0.4938526
0.49854957
0.50300895
0.50724311
0.51126359
0.51508114
0.51870583
0.52214709
0.52541376
0.5285142
0.53145626
0.53424738
0.53689464
0.53940473
0.54178406
0.5440387
0.54617449
0.54819697
0.55011148
0.55192313
0.55363687
0.55525747
0.55678953
0.55823749
0.55960559
0.56089784
0.56211798
0.56326944
0.56435535
0.56537851
0.56634143
0.56724635
0.56809524
0.56888984
0.56963167
0.57032215
0.57096267
0.57155479
0.57210042
0.57260211
0.57306318
0.57348785
0.57388109
0.57424828
0.57459483
0.57492627
0.5752484
0.57556598
0.57587762
0.57616938
0.57642024
0.57663383
0.57687828
0.21572535
0.21445143
0.21981459
0.23315455
0.25038018
0.26867742
0.28684772
0.30424416
0.32063915
0.33596932
0.35025998
0.36357145
0.37597731
0.38755264
0.398369
0.40849223
0.41798187
0.42689126
0.43526801
0.4431545
0.45058852
0.45760378
0.46423043
0.47049551
0.47642332
0.48203582
0.48735284
0.4923924
0.49717094
0.50170345
0.50600369
0.51008433
0.51395705
0.51763267
0.52112123
0.52443211
0.52757407
0.53055532
0.53338359
0.53606618
0.53861001
0.54102162
0.54330724
0.5454728
0.54752394
0.54946606
0.55130436
0.5530438
0.55468919
0.55624517
0.55771619
0.55910649
0.56042008
0.56166066
0.56283168
0.56393621
0.56497705
0.56595667
0.56687732
0.56774096
0.56854932
0.5693039
0.57000605
0.57065711
0.57125856
0.57181227
0.57232065
0.57278681
0.57321482
0.57361011
0.57397973
0.57433134
0.57467099
0.57500125
0.57532353
0.57564426
0.57597639
0.57632455
0.57666269
0.57694105
0.091584432
0.12135992
0.15862651
0.19212807
0.22212426
0.248526
0.27195156
0.29286534
0.31168206
0.3287268
0.34426159
0.3584963
0.37160126
0.38371589
0.39495548
0.40541627
0.41517932
0.42431348
0.43287766
0.44092263
0.44849248
0.45562568
0.46235602
0.46871337
0.47472422
0.48041223
0.4857986
0.49090244
0.49574101
0.50033001
0.50468374
0.50881532
0.51273678
0.51645924
0.51999297
0.52334754
0.52653185
0.52955424
0.53242255
0.53514416
0.53772604
0.54017479
0.54249669
0.54469768
0.54678345
0.54875941
0.55063076
0.55240248
0.55407938
0.55566611
0.5571671
0.5585866
0.5599286
0.5611968
0.5623946
0.56352506
0.5645909
0.56559456
0.56653822
0.56742378
0.56825288
0.56902691
0.56974709
0.5704146
0.57103079
0.57159739
0.57211663
0.57259138
0.57302562
0.5734253
0.57379882
0.57415542
0.57450129
0.57483699
0.57516284
0.57549212
0.57585506
0.57626916
0.57668412
0.57697242
0.010188032
0.29618434
0.46928014
0.51637418
0.52578215
0.52613548
0.52578288
0.5269133
0.52841611
0.52990282
0.5313716
0.53282112
0.53423931
0.53564318
0.53704372
0.53845022
0.53986499
0.5412883
0.54271959
0.54415785
0.54560168
0.54704934
0.54849887
0.5499482
0.55139521
0.5528378
0.55427387
0.55570139
0.55711838
0.55852294
0.55991322
0.56128742
0.56264378
0.56398059
0.56529617
0.56658885
0.56785698
0.5690989
0.57031296
0.5714975
0.57265084
0.5737713
0.57485717
0.57590672
0.57691821
0.5778899
0.57882001
0.57970674
0.58054828
0.58134274
0.58208816
0.58278246
0.58342343
0.58400869
0.58453565
0.58500146
0.58540308
0.58573718
0.58600012
0.58618755
0.5862946
0.58631662
0.58624981
0.58609203
0.58584429
0.58551255
0.58511039
0.58466051
0.58419699
0.58376562
0.5834131
0.58319059
0.58308793
0.58309391
0.58306826
0.5828533
0.58253309
0.5814003
0.58061534
0.57757832
0.064224453
0.38263201
0.5190966
0.54386458
0.54453433
0.54254949
0.54169957
0.54185552
0.54206307
0.5423612
0.54275506
0.54330785
0.5439813
0.54474429
0.54556837
0.54645111
0.54738709
0.54837108
0.54939758
0.55046152
0.55155825
0.55268334
0.55383261
0.5550021
0.55618806
0.55738692
0.55859531
0.55980998
0.56102784
0.56224594
0.56346144
0.5646716
0.56587378
0.56706544
0.56824409
0.56940731
0.57055274
0.57167807
0.57278101
0.57385933
0.57491082
0.57593326
0.57692451
0.5778824
0.57880481
0.57968963
0.58053476
0.58133812
0.58209761
0.58281112
0.58347647
0.58409142
0.58465362
0.5851606
0.58560974
0.58599823
0.58632312
0.58658124
0.58676919
0.58688293
0.58691807
0.58687064
0.58673778
0.58651851
0.58621527
0.58583567
0.58539485
0.58491691
0.5844367
0.5839991
0.58364833
0.58342791
0.58332114
0.58330803
0.58323832
0.58299439
0.58256805
0.58143613
0.58049303
0.5775614
0.14612162
0.46199997
0.5388299
0.55140218
0.54986989
0.54885701
0.54886727
0.54939721
0.54980033
0.55029897
0.55078632
0.55133192
0.55190253
0.55251584
0.55316246
0.55384808
0.55456965
0.55532643
0.55611689
0.55693938
0.55779207
0.55867291
0.55957975
0.56051028
0.56146208
0.56243266
0.56341942
0.56441972
0.56543087
0.56645018
0.56747489
0.56850226
0.56952955
0.57055402
0.57157291
0.57258351
0.57358311
0.574569
0.57553851
0.57648899
0.57741779
0.57832232
0.57919999
0.58004826
0.58086461
0.58164658
0.58239173
0.58309767
0.58376199
0.58438232
0.58495625
0.58548133
0.58595509
0.58637494
0.58673823
0.58704217
0.58728389
0.58746039
0.58756849
0.58760448
0.58756444
0.58744508
0.58724441
0.58696257
0.5866033
0.58617562
0.58569603
0.58518979
0.58469212
0.5842468
0.58389479
0.58367281
0.58355696
0.58352076
0.58340679
0.58312359
0.58260741
0.58145744
0.58038686
0.57754783
0.22558913
0.5089119
0.55257244
0.55981264
0.55707804
0.55720389
0.55728553
0.55783366
0.55809735
0.55851585
0.55887496
0.55930644
0.5597475
0.56022049
0.560711
0.56122871
0.56177118
0.56233947
0.56293356
0.5635534
0.56419861
0.56486858
0.56556248
0.56627928
0.5670177
0.5677763
0.56855343
0.56934729
0.57015589
0.57097711
0.5718087
0.57264831
0.57349344
0.57434153
0.57518995
0.57603598
0.57687685
0.57770976
0.57853186
0.57934028
0.58013214
0.58090457
0.58165471
0.5823797
0.58307674
0.58374305
0.58437592
0.58497265
0.58553058
0.58604708
0.58651954
0.58694533
0.58732182
0.58764638
0.58791629
0.58812881