/*--------------------------------*- C++ -*----------------------------------*\
  =========                 |
  \\      /  F ield         | OpenFOAM: The Open Source CFD Toolbox
   \\    /   O peration     | Website:  https://openfoam.org
    \\  /    A nd           | Version:  12
     \\/     M anipulation  |
\*---------------------------------------------------------------------------*/
FoamFile
{
    format      ascii;
    class       surfaceScalarField;
    location    "0.05";
    object      phi;
}
// * * * * * * * * * * * * * * * * * * * * * * * * * * * * * * * * * * * * * //

dimensions      [1 0 -1 0 0 0 0];

internalField   nonuniform List<scalar> 
31760
(
-0.0006376226
-0.050818048
0.051454571
-0.0016005795
-0.064204958
0.065168004
-0.002599341
-0.062858506
0.06386024
-0.0036174999
-0.068509918
0.069528034
-0.0046908856
-0.070187644
0.071260897
-0.0057928501
-0.074441257
0.075543248
-0.0069649126
-0.077367968
0.078539996
-0.0081761418
-0.081366072
0.082577391
-0.0094477775
-0.084984612
0.086256322
-0.010778282
-0.089094605
0.090425244
-0.012164519
-0.093222102
0.094608496
-0.013618187
-0.097626056
0.099079924
-0.015133954
-0.10219408
0.10371008
-0.016720068
-0.10698792
0.10857431
-0.018376119
-0.11199647
0.11365284
-0.020106859
-0.11723632
0.11896741
-0.021914959
-0.12271549
0.12452399
-0.023803632
-0.1284454
0.13033452
-0.025776124
-0.13443702
0.13641001
-0.027835846
-0.14070159
0.14276186
-0.02998624
-0.14725147
0.14940246
-0.032231077
-0.15409857
0.15634406
-0.034573959
-0.16125644
0.16360004
-0.037018802
-0.16873873
0.17118435
-0.039568584
-0.1765599
0.17911051
-0.042227893
-0.18473398
0.18739418
-0.045000626
-0.19327712
0.1960508
-0.047890209
-0.20220585
0.20509643
-0.050900135
-0.21153697
0.21454795
-0.054034441
-0.22128843
0.22442385
-0.057296424
-0.23147905
0.23474218
-0.060689398
-0.24212848
0.24552265
-0.064216152
-0.25325806
0.25678606
-0.067879705
-0.26488872
0.26855357
-0.071682013
-0.27704436
0.280848
-0.075624694
-0.28974905
0.2936931
-0.079709026
-0.30302826
0.30711399
-0.083935421
-0.31690945
0.32113728
-0.088303615
-0.33142034
0.33578997
-0.092812194
-0.34659207
0.35110209
-0.097459039
-0.36245609
0.36710435
-0.10224058
-0.37904581
0.38382873
-0.10715204
-0.39639691
0.40130968
-0.1121874
-0.41454684
0.41958342
-0.1173387
-0.43353554
0.4386879
-0.1225965
-0.45340416
0.45866285
-0.12794896
-0.47419713
0.47955021
-0.13338279
-0.49596034
0.50139444
-0.13888211
-0.51874341
0.52424249
-0.14442816
-0.54259774
0.54814287
-0.1499994
-0.56757753
0.57314693
-0.15557172
-0.59374085
0.59931012
-0.16111705
-0.62114842
0.62668914
-0.16660362
-0.64986472
0.65534469
-0.17199597
-0.67995778
0.68534104
-0.17725304
-0.71150047
0.7167454
-0.18232942
-0.74456919
0.74962981
-0.18717413
-0.77924535
0.7840701
-0.19172896
-0.81561619
0.82014632
-0.19592961
-0.85377457
0.85794536
-0.19970355
-0.89382019
0.89755883
-0.20297013
-0.93586021
0.93908607
-0.20563888
-0.98001064
0.9826338
-0.20760913
-1.0263959
1.028317
-0.20876891
-1.0751471
1.0762568
-0.20899473
-1.1264019
1.1265809
-0.20814906
-1.1802978
1.1794143
-0.20608708
-1.2369625
1.2348791
-0.20264513
-1.2965089
1.2930707
-0.19764202
-1.3590169
1.3540515
-0.19088376
-1.4245281
1.4178491
-0.18216051
-1.4930462
1.4844502
-0.1712285
-1.5645497
1.5537998
-0.15782804
-1.6389898
1.6258339
-0.14166042
-1.7163166
1.7004559
-0.12241326
-1.7965375
1.7776446
-0.099742575
-1.8798542
1.8575347
-0.073221029
-1.9668068
1.9404906
-0.042458171
-2.0587135
2.028181
-2.1576448
2.1217632
-0.00063442769
-0.050184765
-0.0015034424
-0.063336193
-0.0023979062
-0.061963621
-0.003358248
-0.067549736
-0.0043293199
-0.069216765
-0.0053778019
-0.07339283
-0.0064415345
-0.076304308
-0.007585345
-0.080222224
-0.0087551106
-0.0838148
-0.0099992928
-0.087850311
-0.011286623
-0.091934625
-0.012641491
-0.09627099
-0.014053967
-0.10078136
-0.015533121
-0.10550848
-0.017079169
-0.11045008
-0.018696279
-0.11561881
-0.020386664
-0.12102465
-0.022154117
-0.12667744
-0.02400188
-0.13258868
-0.02593356
-0.13876927
-0.027952839
-0.14523146
-0.030062997
-0.15198761
-0.03226816
-0.15905039
-0.034572041
-0.16643388
-0.036979453
-0.17415141
-0.039493231
-0.18221903
-0.042118081
-0.190651
-0.044857752
-0.1994648
-0.047716534
-0.20867669
-0.050698007
-0.21830534
-0.05380625
-0.22836905
-0.057044593
-0.23888824
-0.060416334
-0.24988427
-0.063924448
-0.2613784
-0.067571343
-0.2733951
-0.071359319
-0.28595853
-0.075289516
-0.29909535
-0.079363395
-0.31283269
-0.083580249
-0.32720042
-0.087939605
-0.34222949
-0.092439771
-0.35795253
-0.097077536
-0.37440451
-0.1018484
-0.39162238
-0.10674711
-0.40964437
-0.1117664
-0.42851243
-0.11689746
-0.44826929
-0.12212977
-0.46896109
-0.12745039
-0.49063621
-0.13284462
-0.51334601
-0.13829546
-0.53714428
-0.143783
-0.56208814
-0.14928456
-0.5882385
-0.15477419
-0.61565944
-0.1602227
-0.64441869
-0.165597
-0.6745883
-0.17085956
-0.70624555
-0.1759685
-0.73947125
-0.18087664
-0.77435211
-0.18553074
-0.81098134
-0.18987175
-0.84945757
-0.19383311
-0.88988783
-0.1973406
-0.93238667
-0.20031091
-0.97707866
-0.20265252
-1.0240957
-0.20426264
-1.0735789
-0.20502949
-1.1256736
-0.2048264
-1.1805303
-0.20351936
-1.2382826
-0.2009616
-1.2990554
-0.19699126
-1.3629434
-0.19143344
-1.4300022
-0.18409228
-1.5002577
-0.17475181
-1.5737092
-0.16316814
-1.6503369
-0.14907643
-1.7301169
-0.1321769
-1.8131039
-0.11215447
-1.8995633
-0.08867191
-1.9901088
-0.061154748
-2.0860627
-2.1896466
-0.0005738263
-0.049611782
-0.0013847851
-0.062525348
-0.0021927351
-0.061156758
-0.0030972243
-0.066645183
-0.0039906173
-0.068323393
-0.0049702256
-0.072413113
-0.0059514801
-0.075322989
-0.0070161549
-0.079157393
-0.0081001946
-0.082730608
-0.0092570123
-0.086693288
-0.010453795
-0.090737608
-0.011714584
-0.095009921
-0.013030431
-0.099465189
-0.014409604
-0.10412893
-0.015852803
-0.10900646
-0.017363633
-0.1141075
-0.018945463
-0.11944229
-0.020601261
-0.12502103
-0.022335316
-0.13085394
-0.024150473
-0.13695334
-0.026051236
-0.14332985
-0.028041146
-0.14999675
-0.030124099
-0.15696638
-0.032304895
-0.16425191
-0.034586817
-0.17186819
-0.036975083
-0.17982932
-0.039473152
-0.18815134
-0.042086093
-0.1968501
-0.044817461
-0.20594339
-0.047672396
-0.21544828
-0.050653999
-0.22538511
-0.053766581
-0.2357731
-0.057013926
-0.24663412
-0.060398695
-0.25799058
-0.063924441
-0.26986602
-0.067593293
-0.28228605
-0.071407441
-0.29527727
-0.075367342
-0.30886854
-0.079473942
-0.32308925
-0.083726643
-0.33797188
-0.08812356
-0.35355039
-0.092662457
-0.36986006
-0.097339814
-0.38693917
-0.10215001
-0.40482805
-0.10708685
-0.42356923
-0.11214214
-0.44320748
-0.11730639
-0.46379027
-0.12256737
-0.4853687
-0.12791218
-0.50799488
-0.13332474
-0.5317258
-0.13878637
-0.55662124
-0.14427707
-0.58274349
-0.14977281
-0.61016067
-0.15524684
-0.63894334
-0.16066897
-0.669167
-0.16600508
-0.7009129
-0.17121718
-0.73426573
-0.17626146
-0.769318
-0.18109051
-0.80616647
-0.18564967
-0.84491698
-0.18987892
-0.88568171
-0.19371035
-0.92858286
-0.19706918
-0.97375139
-0.19987125
-1.0213278
-0.20202362
-1.0714608
-0.20342298
-1.1243046
-0.20396067
-1.1800136
-0.20351267
-1.2387354
-0.20194454
-1.3006047
-0.19911631
-1.3657219
-0.19486521
-1.4341663
-0.18902113
-1.5059726
-0.18138378
-1.5811712
-0.17173681
-1.6597599
-0.15983268
-1.7417496
-0.1453953
-1.8272352
-0.1281432
-1.9165405
-0.10777911
-2.0103379
-0.083694077
-2.1100558
-2.2177207
-0.00051798448
-0.049094521
-0.001268497
-0.061774881
-0.0020047692
-0.060420418
-0.0028559367
-0.065793932
-0.0036835824
-0.067495744
-0.0045966032
-0.071499978
-0.0055013147
-0.07441819
-0.0064928743
-0.078165656
-0.0074972926
-0.081726006
-0.0085736911
-0.085616651
-0.0096869543
-0.089624073
-0.010861358
-0.093835196
-0.012088964
-0.098237213
-0.01337706
-0.10284041
-0.014727347
-0.1076557
-0.016143611
-0.11269069
-0.01762917
-0.11795611
-0.019187428
-0.12346208
-0.020821877
-0.12921871
-0.022536888
-0.13523745
-0.024335655
-0.14153009
-0.026223261
-0.14810804
-0.028203635
-0.15498477
-0.030280784
-0.16217338
-0.03245988
-0.16968756
-0.034744888
-0.17754261
-0.037140855
-0.18575347
-0.039652126
-0.19433672
-0.04228415
-0.20330902
-0.045040277
-0.21268955
-0.047925623
-0.2224969
-0.050944528
-0.23275102
-0.054100653
-0.2434745
-0.05739784
-0.25468955
-0.060839449
-0.26642019
-0.064427878
-0.27869301
-0.06816527
-0.29153484
-0.072053463
-0.30497487
-0.076092714
-0.31904407
-0.080282963
-0.33377523
-0.084623489
-0.34920297
-0.089111482
-0.3653647
-0.093743982
-0.38229884
-0.098516449
-0.40004731
-0.10342276
-0.41865427
-0.10845618
-0.43816508
-0.11360676
-0.45863048
-0.11886524
-0.4801009
-0.12421847
-0.50263239
-0.12965237
-0.5262829
-0.13515073
-0.55111436
-0.14069431
-0.57719217
-0.1462621
-0.60458628
-0.15183032
-0.63337002
-0.15737082
-0.66362334
-0.16285393
-0.695429
-0.16824466
-0.72887701
-0.17350442
-0.76406351
-0.17858998
-0.80108981
-0.18345261
-0.84006722
-0.18803802
-0.88111333
-0.19228547
-0.92435651
-0.19612766
-0.96993383
-0.19948919
-1.017993
-0.20228689
-1.0686896
-0.20443122
-1.1221827
-0.20581711
-1.1786407
-0.2063417
-1.238208
-0.20588293
-1.3010383
-0.2043179
-1.3672334
-0.20150528
-1.436892
-0.19728147
-1.5100722
-0.19148063
-1.5868078
-0.18389874
-1.6671361
-0.17431645
-1.751086
-0.16248163
-1.8387997
-0.14813897
-1.9306606
-0.13100822
-2.0273901
-0.11054093
-2.1305104
-2.2417829
-0.00046300775
-0.04863213
-0.0011661854
-0.061071741
-0.001825277
-0.059761425
-0.0026199162
-0.06499917
-0.0033733972
-0.066742205
-0.0042287962
-0.070644453
-0.0050671586
-0.073579697
-0.0059932683
-0.077239329
-0.0069269972
-0.080792045
-0.0079305829
-0.084612779
-0.0089698753
-0.088584454
-0.010067854
-0.092736838
-0.011218713
-0.097085923
-0.012428633
-0.10163
-0.01370002
-0.10638375
-0.015035995
-0.11135409
-0.016440332
-0.11655106
-0.01791683
-0.12198478
-0.019469205
-0.12766544
-0.021101512
-0.13360414
-0.022818486
-0.13981199
-0.024623499
-0.14630176
-0.026522084
-0.15308477
-0.028518846
-0.16017503
-0.030618324
-0.1675863
-0.032825808
-0.17533313
-0.035146515
-0.18343055
-0.03758539
-0.19189537
-0.04014736
-0.2007443
-0.042837624
-0.20999624
-0.045661049
-0.21967009
-0.048622094
-0.22978623
-0.051725096
-0.24036736
-0.054974384
-0.25143569
-0.058373084
-0.26301647
-0.06192424
-0.27513634
-0.065630307
-0.28782274
-0.069493124
-0.30110547
-0.073513373
-0.31501665
-0.077691358
-0.32958948
-0.08202593
-0.34486003
-0.086515792
-0.36086585
-0.091157512
-0.37764752
-0.095947233
-0.39524741
-0.10088029
-0.4137105
-0.10594944
-0.43308474
-0.11114717
-0.45342117
-0.116464
-0.47477224
-0.12188876
-0.49719567
-0.12740939
-0.5207504
-0.13301077
-0.54550143
-0.13867671
-0.57151529
-0.14438826
-0.5988647
-0.15012402
-0.62762551
-0.15586038
-0.65787989
-0.16157009
-0.68971427
-0.16722221
-0.72322233
-0.17278344
-0.75850259
-0.17821492
-0.79566189
-0.18347419
-0.83481509
-0.1885128
-0.87608566
-0.19327738
-0.91960663
-0.19770801
-0.96552111
-0.20173873
-1.0139822
-0.20529637
-1.0651513
-0.20829931
-1.1191948
-0.21066344
-1.1762825
-0.2122871
-1.2365754
-0.21307732
-1.3002186
-0.2129115
-1.3673442
-0.21167448
-1.4380448
-0.20922576
-1.5124052
-0.20541004
-1.5904746
-0.20005144
-1.6723121
-0.19294629
-1.7579766
-0.18386562
-1.8476532
-0.1725983
-1.9417665
-0.15886967
-2.0411093
-0.14221285
-2.1472454
-2.2616922
-0.00041360047
-0.048219037
-0.0010760254
-0.06040932
-0.0016725685
-0.059164963
-0.0024095497
-0.064262067
-0.0030871185
-0.06606449
-0.003891128
-0.069840308
-0.0046623906
-0.07280824
-0.0055288719
-0.076372585
-0.0063988825
-0.079921744
-0.0073410363
-0.083670284
-0.0083202765
-0.087604827
-0.0093561495
-0.09170052
-0.01044511
-0.095996459
-0.011591831
-0.10048271
-0.012799165
-0.10517577
-0.014070988
-0.11008154
-0.015410822
-0.11521041
-0.01682256
-0.12057212
-0.018310717
-0.12617625
-0.019879301
-0.1320344
-0.021533422
-0.13815657
-0.023277905
-0.14455582
-0.025117901
-0.15124314
-0.027058521
-0.15823259
-0.029105382
-0.16553741
-0.031264291
-0.17317195
-0.033539977
-0.18115233
-0.035938729
-0.1894938
-0.038465827
-0.19821406
-0.041126622
-0.20733195
-0.043926669
-0.21686617
-0.046870503
-0.22683811
-0.049963469
-0.23726965
-0.053208811
-0.24818512
-0.056610975
-0.25960854
-0.060173228
-0.27156775
-0.063897699
-0.28409133
-0.067786297
-0.29720929
-0.071840484
-0.31095421
-0.076060236
-0.32536077
-0.080445341
-0.34046524
-0.08499368
-0.35630709
-0.089703387
-0.37292667
-0.094571051
-0.39036789
-0.099591413
-0.4086776
-0.10475915
-0.42790385
-0.11006822
-0.44809842
-0.1155094
-0.46931695
-0.12107432
-0.49161638
-0.12675101
-0.51505923
-0.13252822
-0.53970988
-0.13839116
-0.56563838
-0.14432385
-0.59291872
-0.15030806
-0.62162901
-0.15632314
-0.65185387
-0.16234579
-0.6836824
-0.16835049
-0.71721049
-0.17430718
-0.75254124
-0.18018313
-0.78978414
-0.18594086
-0.82905876
-0.19153962
-0.87049179
-0.1969328
-0.91422186
-0.20206906
-0.96039631
-0.20689109
-1.0091734
-0.21133565
-1.0607195
-0.21533333
-1.115206
-0.21880887
-1.1728073
-0.22168336
-1.2336877
-0.22386355
-1.2980068
-0.22526041
-1.3658936
-0.22576332
-1.4374638
-0.22525492
-1.51281
-0.22359992
-1.5920006
-0.22064039
-1.6751177
-0.21619256
-1.7622479
-0.21005587
-1.853614
-0.20204401
-1.9496862
-0.19192712
-2.051323
-0.17929814
-2.1600526
-2.2772631
-0.00037114015
-0.0478483
-0.0010025643
-0.059777854
-0.001544443
-0.05862309
-0.0022340893
-0.063572271
-0.0028529005
-0.065445558
-0.0036087921
-0.069084279
-0.0043245184
-0.072092216
-0.0051298566
-0.075566946
-0.0059580491
-0.079093209
-0.0068539608
-0.082773966
-0.007787086
-0.086671243
-0.0087733107
-0.090713773
-0.0098123119
-0.094956868
-0.010908138
-0.099386221
-0.012064864
-0.1040183
-0.013285987
-0.10885958
-0.01457638
-0.11391908
-0.01594015
-0.11920731
-0.017382109
-0.12473312
-0.018907663
-0.13050753
-0.020521427
-0.13654134
-0.022229612
-0.14284599
-0.024037437
-0.14943348
-0.025950596
-0.15631738
-0.027975437
-0.16351028
-0.030117592
-0.17102725
-0.032383931
-0.17888315
-0.034779991
-0.18709457
-0.037311476
-0.19567906
-0.039984957
-0.20465457
-0.042805397
-0.2140414
-0.045778335
-0.22386037
-0.048908393
-0.23413429
-0.052200629
-0.24488703
-0.055658031
-0.2561447
-0.059284194
-0.26793451
-0.06308215
-0.28028562
-0.067053493
-0.29322947
-0.071199244
-0.30679922
-0.075519939
-0.32103005
-0.080015404
-0.33595893
-0.084684239
-0.35162659
-0.089524713
-0.36807369
-0.094533469
-0.38534581
-0.099707349
-0.4034896
-0.10504152
-0.42255482
-0.11053018
-0.44259423
-0.11616741
-0.46366361
-0.12194472
-0.48582252
-0.12785408
-0.50913304
-0.13388471
-0.53366234
-0.14002537
-0.55948097
-0.14626331
-0.58666444
-0.15258316
-0.61529352
-0.15896833
-0.64545407
-0.16539932
-0.67723811
-0.17185496
-0.71074323
-0.17831069
-0.74607595
-0.18473886
-0.78334887
-0.19110904
-0.82268435
-0.19738612
-0.86421369
-0.2035319
-0.90807841
-0.20950304
-0.95443051
-0.215252
-1.0034317
-0.22072614
-1.0552524
-0.22586713
-1.1100686
-0.23061251
-1.168058
-0.23489582
-1.2293887
-0.23864157
-1.2942298
-0.24177033
-1.3627155
-0.24419741
-1.4349683
-0.24581909
-1.5111014
-0.24651774
-1.5911982
-0.24616244
-1.6753543
-0.24458204
-1.7636979
-0.24160084
-1.8564812
-0.23707566
-1.9542053
-0.23080569
-2.0578055
-0.22244616
-2.1686991
-2.2882527
-0.00032803766
-0.047520558
-0.00093376809
-0.059172029
-0.0014264156
-0.058130383
-0.0020703909
-0.062928106
-0.0026448145
-0.06487094
-0.0033725881
-0.068356362
-0.0040552066
-0.071409317
-0.0048457168
-0.074776104
-0.0056343361
-0.078304167
-0.0064839875
-0.081923829
-0.0073747734
-0.085779915
-0.0083180804
-0.089769856
-0.0093164395
-0.093957827
-0.010373276
-0.098328622
-0.011493042
-0.10289768
-0.012680322
-0.10767135
-0.013939085
-0.11265926
-0.015275318
-0.11786989
-0.016693859
-0.12331325
-0.01820039
-0.12899952
-0.019800753
-0.13493933
-0.02150095
-0.14114396
-0.023307284
-0.1476251
-0.025226985
-0.15439539
-0.02726551
-0.16146921
-0.029430317
-0.16885961
-0.031727518
-0.1765828
-0.034163902
-0.18465469
-0.036745931
-0.19309315
-0.039479607
-0.20191658
-0.042370599
-0.21114563
-0.045424572
-0.22080112
-0.048646575
-0.23090646
-0.052040574
-0.24148661
-0.055610712
-0.25256749
-0.059360395
-0.26417707
-0.0632917
-0.27634581
-0.067406778
-0.28910511
-0.071706851
-0.30248904
-0.076192371
-0.31653356
-0.080863047
-0.3312764
-0.085718726
-0.34675814
-0.09075716
-0.36302157
-0.095976584
-0.38011177
-0.10137427
-0.39807641
-0.10694661
-0.41696612
-0.11268963
-0.43683404
-0.11859859
-0.45773677
-0.12466776
-0.47973488
-0.13089065
-0.50289121
-0.13726009
-0.52727367
-0.14376697
-0.55295476
-0.15040176
-0.58001046
-0.15715298
-0.60852349
-0.16400797
-0.63858091
-0.17095216
-0.6702767
-0.1779683
-0.70371113
-0.1850375
-0.73899244
-0.19213827
-0.77623587
-0.19924613
-0.81556682
-0.2063337
-0.85711944
-0.21337035
-0.90103834
-0.22032159
-0.94747888
-0.22714979
-0.99660525
-0.23381229
-1.0485919
-0.2402636
-1.1036166
-0.24645336
-1.1618614
-0.25232655
-1.2234991
-0.25782678
-1.2887008
-0.26289363
-1.3576063
-0.26744686
-1.4303595
-0.27141308
-1.5070688
-0.27468989
-1.5878479
-0.27716368
-1.6728032
-0.27868864
-1.7620972
-0.27911834
-1.8560116
-0.27833886
-1.9550791
-0.27617959
-2.0602787
-0.2723759
-2.1729127
-2.294381
-0.00028638457
-0.047234376
-0.00087321287
-0.058585055
-0.0013255587
-0.057677914
-0.0019465108
-0.062306919
-0.0024984249
-0.064318774
-0.0032019176
-0.067652705
-0.0038567201
-0.070754157
-0.0046233921
-0.074008876
-0.0053819956
-0.077545069
-0.0061995088
-0.081105757
-0.0070634026
-0.0849154
-0.0079803699
-0.088852195
-0.0089553172
-0.092982107
-0.0099916726
-0.097291406
-0.011094526
-0.10179387
-0.012268715
-0.10649609
-0.013519915
-0.11140687
-0.014853542
-0.11653494
-0.016275608
-0.12188971
-0.017792882
-0.12748061
-0.019411396
-0.13331899
-0.021138662
-0.13941466
-0.022981036
-0.14578047
-0.024945878
-0.15242804
-0.027040733
-0.15937156
-0.029272336
-0.1666249
-0.031648166
-0.17420352
-0.03417502
-0.18212401
-0.036859264
-0.19040466
-0.039707614
-0.19906353
-0.042726039
-0.20812201
-0.045919491
-0.21760193
-0.049292744
-0.22752688
-0.052850488
-0.2379219
-0.056596281
-0.24881405
-0.060532769
-0.26023219
-0.064662722
-0.27220668
-0.068987892
-0.28476992
-0.073509204
-0.29795683
-0.078227612
-0.31180334
-0.083142982
-0.32634826
-0.088254831
-0.34163254
-0.093562701
-0.35769896
-0.099065719
-0.37459302
-0.10476193
-0.39236347
-0.1106496
-0.41106077
-0.11672624
-0.4307388
-0.12298917
-0.45145439
-0.12943529
-0.47326855
-0.13606035
-0.49624531
-0.14286016
-0.52045252
-0.1498294
-0.54596386
-0.15696157
-0.57285649
-0.16424973
-0.60121358
-0.17168503
-0.63112416
-0.17925766
-0.66268318
-0.1869554
-0.69599337
-0.19476559
-0.73116349
-0.2026723
-0.76831214
-0.21065784
-0.80756653
-0.21870268
-0.84906267
-0.22678432
-0.89294795
-0.23487772
-0.93937986
-0.24295425
-0.98852547
-0.25098367
-1.04056
-0.25893123
-1.0956649
-0.26676099
-1.154023
-0.27443077
-1.2158135
-0.28189982
-1.281207
-0.28911715
-1.3503552
-0.29603309
-1.423403
-0.30258316
-1.5004757
-0.30869179
-1.5816996
-0.31425805
-1.6672061
-0.31916088
-1.7571802
-0.32328503
-1.8519316
-0.32654716
-1.9520207
-0.32881221
-2.0584311
-0.32988473
-2.1724029
-2.295339
-0.00024774867
-0.046986755
-0.0008230766
-0.058009543
-0.0012448067
-0.057256014
-0.001890536
-0.061660935
-0.0024271535
-0.063781852
-0.0031093804
-0.066969627
-0.0037413866
-0.070121702
-0.0044655433
-0.073284312
-0.0052107242
-0.076799335
-0.0060124758
-0.080303382
-0.0068664216
-0.084060759
-0.007775366
-0.087942475
-0.0087464669
-0.092010142
-0.0097836548
-0.096253258
-0.010892694
-0.10068377
-0.012079344
-0.10530826
-0.013349843
-0.11013505
-0.014710871
-0.11517245
-0.01616921
-0.12042975
-0.017731558
-0.12591645
-0.01940651
-0.13164203
-0.021200491
-0.13761845
-0.023122323
-0.14385616
-0.025179236
-0.15036838
-0.027378995
-0.15716875
-0.029729619
-0.1642709
-0.032238419
-0.17169097
-0.034912269
-0.17944601
-0.037758458
-0.18755388
-0.040782843
-0.19603408
-0.04399089
-0.20490836
-0.047388117
-0.21419853
-0.050978817
-0.22392938
-0.054767048
-0.23412619
-0.058755952
-0.24481694
-0.062948204
-0.25603096
-0.067345894
-0.26779919
-0.071950577
-0.28015456
-0.076763842
-0.29313196
-0.081786194
-0.30676841
-0.087018353
-0.32110252
-0.092460864
-0.33617541
-0.098113938
-0.3520302
-0.10397728
-0.36871293
-0.11005135
-0.38627158
-0.11633621
-0.40475703
-0.12283133
-0.42422379
-0.12953652
-0.44472835
-0.13645124
-0.46633208
-0.14357485
-0.48909916
-0.1509056
-0.51309855
-0.15844252
-0.53840315
-0.1661828
-0.56509202
-0.1741234
-0.59324857
-0.18226057
-0.62296254
-0.19058912
-0.65433038
-0.19910314
-0.68745561
-0.20779487
-0.72244895
-0.21665569
-0.75942997
-0.22567528
-0.79852763
-0.23484107
-0.83988025
-0.24413975
-0.88363581
-0.25355548
-0.92995387
-0.26307086
-0.9790025
-0.27266563
-1.030959
-0.28231789
-1.0860058
-0.29200348
-1.1443277
-0.30169773
-1.2061048
-0.31137093
-1.2715139
-0.32099337
-1.3407088
-0.33053162
-1.4138404
-0.33993458
-1.4910544
-0.34915074
-1.5724796
-0.35810168
-1.6582736
-0.36669121
-1.7486438
-0.37482981
-1.8439301
-0.38247596
-1.9446978
-0.38951465
-2.0519337
-0.39584768
-2.1668062
-2.2907582
-0.00021383349
-0.046772973
-0.00078971527
-0.057433432
-0.0011884396
-0.056857061
-0.0018503047
-0.060998678
-0.0023644581
-0.063267335
-0.0030398992
-0.066293805
-0.0036651372
-0.069495977
-0.004384089
-0.072564779
-0.0051317947
-0.076051006
-0.0059338859
-0.079500591
-0.0067956047
-0.083198264
-0.0077170446
-0.087020172
-0.0087066922
-0.091019537
-0.0097693552
-0.095189532
-0.010911702
-0.099540242
-0.012140438
-0.10407821
-0.013462731
-0.10881131
-0.014885895
-0.11374768
-0.016418336
-0.11889553
-0.018067941
-0.12426488
-0.019842936
-0.12986485
-0.021752178
-0.13570679
-0.023803742
-0.14180191
-0.026006262
-0.14816288
-0.028368365
-0.15480336
-0.030897354
-0.16173826
-0.033600963
-0.16898333
-0.036486367
-0.17655614
-0.039560203
-0.18447512
-0.04282758
-0.19276126
-0.046294797
-0.20143515
-0.049965575
-0.21052115
-0.053844552
-0.22004315
-0.057934364
-0.23002843
-0.062237684
-0.24050491
-0.066757293
-0.25150183
-0.071494955
-0.26305114
-0.076452029
-0.27518618
-0.081630066
-0.28794166
-0.087030666
-0.30135453
-0.09265511
-0.31546375
-0.098504925
-0.33031019
-0.10458147
-0.34593714
-0.11088697
-0.36238978
-0.11742337
-0.3797164
-0.12419252
-0.39796796
-0.13119749
-0.4171978
-0.13844008
-0.43746366
-0.14592349
-0.45882556
-0.15365008
-0.4813485
-0.16162259
-0.50510112
-0.16984264
-0.53015744
-0.17831259
-0.55659576
-0.18703412
-0.58450023
-0.19600794
-0.61396159
-0.2052345
-0.6450766
-0.2147138
-0.6779493
-0.22444445
-0.71269194
-0.23442449
-0.74942478
-0.24465083
-0.78827805
-0.25512049
-0.82938992
-0.26582793
-0.87291083
-0.27676752
-0.91900004
-0.28793228
-0.96782642
-0.29931385
-1.019568
-0.31090285
-1.0744077
-0.32268921
-1.132531
-0.33466
-1.1941213
-0.34680603
-1.2593533
-0.35911188
-1.3283889
-0.37155541
-1.401389
-0.38411975
-1.4784969
-0.39676014
-1.5598717
-0.40942158
-1.6456817
-0.42203357
-1.7361575
-0.43455537
-1.8316474
-0.446963
-1.9327433
-0.45917702
-2.0403992
-0.47118761
-2.1557204
-2.2802022
-0.00019284194
-0.04658011
-0.0007882129
-0.056837778
-0.0011833712
-0.056461618
-0.001837531
-0.060344109
-0.002345111
-0.062759319
-0.0030228994
-0.065615503
-0.0036633667
-0.068854957
-0.0043895142
-0.071838007
-0.0051590949
-0.075280733
-0.0059826777
-0.078676237
-0.0068739598
-0.082306127
-0.0078321364
-0.086061049
-0.0088667868
-0.089983838
-0.0099839705
-0.094071188
-0.011191398
-0.09833153
-0.012496941
-0.10277125
-0.01390902
-0.10739766
-0.015436432
-0.11221853
-0.017087766
-0.11724227
-0.01887291
-0.1224776
-0.020800605
-0.1279348
-0.022880433
-0.13362435
-0.025121128
-0.13955833
-0.027531684
-0.14574913
-0.030120502
-0.152211
-0.032895518
-0.15895934
-0.035863608
-0.16601092
-0.039031761
-0.17338323
-0.042405286
-0.18109634
-0.045990028
-0.18917073
-0.049789641
-0.19762917
-0.053808116
-0.20649568
-0.05804861
-0.21579498
-0.062513549
-0.22555508
-0.067205243
-0.23580402
-0.072125763
-0.24657127
-0.077276624
-0.25788935
-0.082660096
-0.26979084
-0.088277914
-0.28231097
-0.094132573
-0.29548596
-0.1002267
-0.30935462
-0.10656338
-0.32395739
-0.11314641
-0.33933682
-0.11997966
-0.35553807
-0.12706752
-0.37260889
-0.13441537
-0.39059925
-0.14202841
-0.40956271
-0.14991254
-0.42955632
-0.15807361
-0.45064015
-0.16651812
-0.47287859
-0.1752524
-0.49634042
-0.1842836
-0.52109889
-0.1936179
-0.54723328
-0.20326196
-0.57482727
-0.21322171
-0.60397238
-0.22350399
-0.63476451
-0.23411403
-0.66730946
-0.24505758
-0.70171902
-0.25634011
-0.73811394
-0.26796691
-0.77662471
-0.2799425
-0.81739029
-0.29227169
-0.86056071
-0.30495876
-0.9062954
-0.31800761
-0.95476311
-0.33142217
-1.0061413
-0.34520577
-1.0606132
-0.35936165
-1.1183645
-0.37389308
-1.1795793
-0.38880732
-1.2444298
-0.40410141
-1.3130908
-0.4197807
-1.3857182
-0.43583321
-1.4624762
-0.45224409
-1.5435297
-0.46898327
-1.6290649
-0.48600967
-1.7193347
-0.50331391
-1.8146923
-0.52090958
-1.9157352
-0.538751
-2.0233777
-0.55691147
-2.1386783
-2.2632136
-0.00017425949
-0.046405768
-0.00079807758
-0.056213633
-0.0011996017
-0.05605976
-0.0018650225
-0.059678249
-0.002385137
-0.062238723
-0.0030780996
-0.064921987
-0.0037488699
-0.06818358
-0.0044983931
-0.0710878
-0.0053079194
-0.074470452
-0.0061753021
-0.077808017
-0.0071201936
-0.081360309
-0.008142524
-0.085037693
-0.0092526131
-0.088872616
-0.010458157
-0.092864391
-0.011768183
-0.097020119
-0.013191989
-0.10134591
-0.014739286
-0.10584867
-0.016420133
-0.11053581
-0.018244747
-0.11541559
-0.020222994
-0.12049707
-0.02236521
-0.12579005
-0.024680909
-0.13130585
-0.027179192
-0.13705695
-0.029869135
-0.14305577
-0.032758404
-0.14931796
-0.035854163
-0.15585941
-0.039163487
-0.162697
-0.042691108
-0.16985054
-0.046442112
-0.17733976
-0.050420287
-0.18518643
-0.054628915
-0.19341381
-0.059070906
-0.20204631
-0.063747496
-0.2111103
-0.068661792
-0.22063194
-0.073815103
-0.23064106
-0.079209248
-0.24116662
-0.084846978
-0.25224019
-0.090730418
-0.263895
-0.096863577
-0.27616439
-0.10325003
-0.28908502
-0.10989419
-0.30269485
-0.11680133
-0.31703348
-0.12397782
-0.33214236
-0.13143019
-0.3480665
-0.13916604
-0.3648526
-0.14719378
-0.3825498
-0.1555221
-0.40121142
-0.16416041
-0.42089379
-0.17311901
-0.44165612
-0.18240808
-0.46356291
-0.19203883
-0.48668193
-0.20202178
-0.51108713
-0.21236933
-0.53685592
-0.22309266
-0.56407322
-0.23420436
-0.59282922
-0.24571601
-0.62322088
-0.25764069
-0.65535263
-0.26999082
-0.68933707
-0.28277931
-0.72529458
-0.29602028
-0.76335455
-0.30972689
-0.80365692
-0.32391381
-0.84635008
-0.3385961
-0.89159274
-0.35378917
-0.93955295
-0.3695087
-0.99040748
-0.38577189
-1.0443379
-0.4025969
-1.1015291
-0.42000389
-1.1621642
-0.43801046
-1.2264198
-0.45663871
-1.2944692
-0.4759059
-1.3664766
-0.49582538
-1.4426142
-0.51639775
-1.5230635
-0.5376128
-1.6080274
-0.55947917
-1.6977555
-0.58201648
-1.7926183
-0.6052839
-1.8931985
-0.62924593
-2.0003735
-0.65409136
-2.1151683
-2.2392625
-0.00016023292
-0.046245397
-0.00082586109
-0.055547637
-0.0012409681
-0.055644275
-0.0019364173
-0.058982318
-0.002486685
-0.061687938
-0.0032081025
-0.064199971
-0.0039296413
-0.067461386
-0.0047238557
-0.070292851
-0.0055963357
-0.073597161
-0.0065346884
-0.076868765
-0.0075625065
-0.080331497
-0.0086818984
-0.083917202
-0.0099042417
-0.087649059
-0.011239291
-0.091528
-0.012697595
-0.095560333
-0.014290187
-0.099751685
-0.016028152
-0.1041089
-0.017922661
-0.1086393
-0.019984764
-0.11335128
-0.022225175
-0.11825422
-0.024653901
-0.12335863
-0.027280756
-0.12867602
-0.030114801
-0.13421962
-0.033163432
-0.14000351
-0.036434035
-0.14604336
-0.039932438
-0.1523566
-0.043663379
-0.15896121
-0.047631067
-0.16587751
-0.051838526
-0.17312643
-0.056287999
-0.1807305
-0.060981155
-0.18871359
-0.065919996
-0.19709973
-0.071105893
-0.20591595
-0.076540515
-0.21518808
-0.082226251
-0.22494526
-0.088165666
-0.23521626
-0.0943621
-0.24603187
-0.10082049
-0.25742373
-0.10754505
-0.26942591
-0.11454262
-0.28207242
-0.12181984
-0.29540145
-0.12938576
-0.3094502
-0.13724846
-0.32426107
-0.14541834
-0.33987676
-0.15390688
-0.3563429
-0.16272518
-0.37370903
-0.17188626
-0.39202656
-0.18140378
-0.41135117
-0.19129157
-0.43174194
-0.20156493
-0.45326188
-0.21223897
-0.47597898
-0.22333064
-0.49996535
-0.23485597
-0.52529936
-0.24683251
-0.55206441
-0.25927876
-0.58034984
-0.27221321
-0.61025267
-0.28565506
-0.64187677
-0.29962533
-0.67533303
-0.314145
-0.71074202
-0.32923585
-0.74823242
-0.34492151
-0.78794232
-0.36122687
-0.83001872
-0.37817772
-0.8746192
-0.39580089
-0.92191043
-0.41412638
-0.97206586
-0.43318473
-1.0252665
-0.45300876
-1.0816954
-0.47363376
-1.1415344
-0.49509584
-1.2049614
-0.51743596
-1.2721478
-0.54068877
-1.3432681
-0.56488296
-1.4185048
-0.59004223
-1.4980499
-0.61619242
-1.5821133
-0.64337068
-1.6709529
-0.67164691
-1.764928
-0.70110585
-1.8646184
-0.73174131
-1.9708323
-0.76384259
-2.0846192
-2.2076961
-0.000152218
-0.046092992
-0.00087848568
-0.054820967
-0.0013124685
-0.055209875
-0.0020516598
-0.058242612
-0.0026528015
-0.06108624
-0.0034208859
-0.06343125
-0.0042162391
-0.066665334
-0.0050799315
-0.069428378
-0.0060410134
-0.072635217
-0.0070816424
-0.07582718
-0.0082274945
-0.079184588
-0.0094842316
-0.082659297
-0.01086472
-0.08626728
-0.012380741
-0.090010553
-0.014044628
-0.09389487
-0.015868664
-0.097925908
-0.01786509
-0.10211055
-0.020045699
-0.10645657
-0.022421906
-0.11097272
-0.025004336
-0.11566919
-0.027802906
-0.1205572
-0.030826154
-0.12564962
-0.034081559
-0.13096073
-0.037575778
-0.13650546
-0.04131339
-0.14230152
-0.045298626
-0.14836671
-0.04953359
-0.15472113
-0.054020366
-0.16138512
-0.058760301
-0.16838034
-0.063754041
-0.17573002
-0.069002785
-0.18345746
-0.074507323
-0.19158712
-0.080269741
-0.20014472
-0.086292148
-0.20915607
-0.092578289
-0.21864867
-0.099131975
-0.22865122
-0.10595929
-0.23919226
-0.11306623
-0.25030346
-0.12046159
-0.26201617
-0.12815358
-0.27436493
-0.13615359
-0.28738476
-0.14447188
-0.30111401
-0.15312177
-0.31559201
-0.16211721
-0.33086085
-0.17147248
-0.34696583
-0.18120352
-0.36395482
-0.1913272
-0.38187835
-0.20186121
-0.40079126
-0.21282451
-0.42075138
-0.22423628
-0.44182149