/*--------------------------------*- C++ -*----------------------------------*\
  =========                 |
  \\      /  F ield         | OpenFOAM: The Open Source CFD Toolbox
   \\    /   O peration     | Website:  https://openfoam.org
    \\  /    A nd           | Version:  12
     \\/     M anipulation  |
\*---------------------------------------------------------------------------*/
FoamFile
{
    format      ascii;
    class       surfaceScalarField;
    location    "0.143";
    object      phi;
}
// * * * * * * * * * * * * * * * * * * * * * * * * * * * * * * * * * * * * * //

dimensions      [1 0 -1 0 0 0 0];

internalField   nonuniform List<scalar> 
31760
(
-0.00064065484
-0.050944449
0.051585474
-0.0016065359
-0.064397594
0.065363723
-0.0025853263
-0.063037217
0.064012801
-0.0036081208
-0.068708281
0.069731617
-0.0046852471
-0.070385149
0.071462848
-0.0057905683
-0.074655746
0.075761607
-0.0069659848
-0.07758875
0.078764758
-0.0081801103
-0.081600813
0.082815517
-0.0094545836
-0.085229446
0.086504528
-0.010787729
-0.089353181
0.090686946
-0.012176434
-0.093493631
0.094882979
-0.013632458
-0.097911934
0.099368623
-0.015150451
-0.10249479
0.10401348
-0.01673869
-0.10730444
0.1088934
-0.018396764
-0.11232961
0.11398843
-0.020129433
-0.11758699
0.11932044
-0.021939369
-0.12308465
0.1248954
-0.023829779
-0.12883403
0.1307253
-0.025803906
-0.13484617
0.13682119
-0.027865148
-0.14113234
0.14319452
-0.030016938
-0.14770497
0.14985774
-0.032263031
-0.15457604
0.15682317
-0.034607018
-0.16175917
0.16410424
-0.037052794
-0.16926809
0.17171501
-0.039603319
-0.17711734
0.17966907
-0.042263165
-0.18532106
0.18798219
-0.045036208
-0.19389553
0.19666993
-0.047925858
-0.20285737
0.20574845
-0.050935593
-0.21222355
0.2152348
-0.054069436
-0.22201216
0.22514761
-0.057330674
-0.23224218
0.23550511
-0.060722612
-0.24293347
0.2463272
-0.064248036
-0.25410755
0.25763487
-0.067909962
-0.26578561
0.26944954
-0.071710348
-0.27799178
0.28179428
-0.075650815
-0.29075039
0.29469309
-0.079732652
-0.30408725
0.30817145
-0.083956285
-0.31803014
0.32225627
-0.088321472
-0.33260714
0.33697496
-0.092826836
-0.34784979
0.35235795
-0.097470308
-0.36378999
0.36843642
-0.10224839
-0.38046162
0.38524284
-0.1071564
-0.39790087
0.40281221
-0.11218844
-0.41614575
0.42118134
-0.11733671
-0.4352368
0.44038883
-0.12259198
-0.45521582
0.46047508
-0.12794261
-0.47612789
0.48148277
-0.13337561
-0.49801958
0.50345709
-0.13887538
-0.52094114
0.52644573
-0.14442357
-0.54494453
0.55049784
-0.14999907
-0.57008432
0.57566528
-0.15557833
-0.59641867
0.60200376
-0.16113393
-0.62400805
0.62956986
-0.1666349
-0.65291613
0.65842372
-0.17204672
-0.68320954
0.68862843
-0.17732948
-0.71495895
0.72024924
-0.1824391
-0.74823753
0.75335518
-0.18732619
-0.78312212
0.78801778
-0.19193442
-0.8196935
0.82431088
-0.19620167
-0.85803567
0.86231271
-0.20005797
-0.89823626
0.90210301
-0.20342553
-0.94038643
0.94376522
-0.20621712
-0.98458167
0.9873853
-0.20833541
-1.0309209
1.0330522
-0.20967158
-1.079505
1.0808551
-0.21010461
-1.1304383
1.1308863
-0.20949818
-1.1838264
1.1832361
-0.20770678
-1.2397764
1.2380023
-0.20456363
-1.2984045
1.2952798
-0.19988181
-1.3598298
1.3551677
-0.19345879
-1.4241744
1.4177723
-0.18507412
-1.4915583
1.4831961
-0.17447413
-1.5621044
1.5515282
-0.16139179
-1.6359345
1.6228771
-0.14551785
-1.7131984
1.6973504
-0.12658496
-1.7940428
1.7751369
-0.10395645
-1.8786424
1.8560389
-0.078041064
-1.9673713
1.9414889
-0.046735408
-2.0591207
2.0278327
-2.157541
2.1226919
-0.00063479718
-0.05030919
-0.0015045797
-0.06352728
-0.0024034557
-0.062138356
-0.0033638788
-0.067747302
-0.0043353307
-0.069413189
-0.0053842981
-0.073606236
-0.0064485524
-0.076523968
-0.0075930162
-0.080455798
-0.0087634467
-0.084058462
-0.01000843
-0.088107623
-0.011296537
-0.092204935
-0.012652247
-0.096555613
-0.014065557
-0.10108085
-0.015545552
-0.10582379
-0.017092418
-0.11078206
-0.018710307
-0.11596838
-0.020401412
-0.12139279
-0.022169505
-0.12706515
-0.024017807
-0.13299703
-0.025949903
-0.13919937
-0.027969452
-0.14568449
-0.030079712
-0.15246481
-0.032284787
-0.15955306
-0.034588369
-0.16696342
-0.036995255
-0.1747093
-0.039508257
-0.18280684
-0.042132069
-0.19127042
-0.044870425
-0.20011765
-0.047727607
-0.20936492
-0.050707186
-0.21903105
-0.053813238
-0.22913451
-0.057049092
-0.2396959
-0.060418048
-0.25073678
-0.063923088
-0.26227865
-0.067566628
-0.2743462
-0.071350983
-0.28696388
-0.075277311
-0.30015864
-0.079347101
-0.31395794
-0.083559682
-0.32839199
-0.087914629
-0.34349213
-0.092410317
-0.35929142
-0.097043619
-0.37582525
-0.10181014
-0.39313108
-0.10670479
-0.41124765
-0.11172044
-0.43021746
-0.11684849
-0.45008384
-0.12207868
-0.47089352
-0.12739834
-0.49269546
-0.13279312
-0.51554158
-0.13824643
-0.53948613
-0.14373886
-0.56458645
-0.1492483
-0.59090341
-0.1547495
-0.61850062
-0.16021413
-0.64744485
-0.16561007
-0.67780649
-0.170901
-0.70966042
-0.17604645
-0.74308395
-0.18100089
-0.77815899
-0.18571301
-0.81497207
-0.19012603
-0.85361268
-0.194176
-0.8941756
-0.19779165
-0.93675929
-0.20089299
-0.98146795
-0.20339189
-1.0284087
-0.20518873
-1.0776937
-0.20617399
-1.1294374
-0.20622181
-1.1837618
-0.20519675
-1.2407834
-0.20294806
-1.3006339
-0.19930715
-1.3634501
-0.19408974
-1.4293697
-0.1870886
-1.4985359
-0.1780767
-1.5710912
-0.16680178
-1.647183
-0.15299801
-1.7269745
-0.13635791
-1.8106547
-0.1165093
-1.898462
-0.093332496
-1.9905155
-0.065684747
-2.0867478
-2.1887582
-0.00057351402
-0.049735426
-0.0013850903
-0.062715387
-0.0021965327
-0.061325671
-0.0031006639
-0.066842875
-0.0039940553
-0.06851947
-0.0049739913
-0.072625946
-0.0059554254
-0.075542151
-0.0070204918
-0.07939032
-0.0081047808
-0.082973734
-0.0092620038
-0.086949932
-0.010459096
-0.091007345
-0.01172022
-0.09529396
-0.013036345
-0.099764166
-0.014415758
-0.10444378
-0.015859128
-0.10933806
-0.017370047
-0.1144568
-0.018951861
-0.11981027
-0.02060752
-0.12540875
-0.022341293
-0.13126247
-0.024156003
-0.13738383
-0.026056135
-0.14378348
-0.02804521
-0.1504748
-0.030127105
-0.15747019
-0.032306603
-0.16478288
-0.034586969
-0.17242783
-0.036973412
-0.18041923
-0.039469377
-0.18877322
-0.042079927
-0.19750579
-0.044808612
-0.20663485
-0.047660574
-0.21617762
-0.050638915
-0.22615461
-0.053747955
-0.23658521
-0.056991489
-0.2474915
-0.060372191
-0.2588961
-0.063893639
-0.27082279
-0.067557985
-0.28329746
-0.071367453
-0.29634697
-0.075322541
-0.3100005
-0.079424246
-0.3242878
-0.083672034
-0.33924169
-0.0880641
-0.35489653
-0.092598309
-0.37128804
-0.097271267
-0.38845493
-0.1020775
-0.40643801
-0.10701099
-0.42528034
-0.11206375
-0.44502719
-0.11722656
-0.46572656
-0.1224875
-0.48743009
-0.12783402
-0.51019032
-0.13325049
-0.53406458
-0.13871877
-0.55911274
-0.14421947
-0.58539688
-0.14972933
-0.61298451
-0.15522249
-0.64194499
-0.16066982
-0.67235197
-0.16603847
-0.70428406
-0.17129192
-0.73782223
-0.17638811
-0.77305393
-0.18128164
-0.81006901
-0.18592015
-0.84896393
-0.19024633
-0.88983842
-0.19419527
-0.93279849
-0.19769549
-0.97795493
-0.20066619
-1.0254241
-0.20301745
-1.0753275
-0.20464797
-1.1277907
-0.20544935
-1.1829429
-0.20529531
-1.2409186
-0.20404627
-1.3018626
-0.20155429
-1.3659204
-0.19764614
-1.4332546
-0.19213961
-1.5040176
-0.18482271
-1.5783816
-0.17547074
-1.6565068
-0.16383411
-1.7385818
-0.14963054
-1.8248281
-0.13257294
-1.9154873
-0.11237336
-2.010681
-0.088380868
-2.110715
-2.2162363
-0.0005175826
-0.04921759
-0.0012686599
-0.06196404
-0.0020042845
-0.060590024
-0.0028563248
-0.065990516
-0.0036840246
-0.06769142
-0.004597617
-0.071711988
-0.0055024486
-0.074636932
-0.0064943582
-0.078398002
-0.0074986955
-0.081968965
-0.0085752453
-0.085872927
-0.0096885114
-0.089893599
-0.010862888
-0.094119076
-0.012090359
-0.09853616
-0.013378223
-0.10315535
-0.014728157
-0.10798753
-0.01614394
-0.11304039
-0.017628873
-0.11832467
-0.019186343
-0.12385057
-0.020819829
-0.12962824
-0.022533684
-0.13566918
-0.024331085
-0.14198525
-0.0262171
-0.1485879
-0.028195642
-0.15549071
-0.030270705
-0.16270682
-0.03244745
-0.17025003
-0.034729832
-0.17813573
-0.037122895
-0.18637898
-0.039630981
-0.19499645
-0.042259546
-0.20400495
-0.045011943
-0.21342381
-0.047893301
-0.22327176
-0.050907979
-0.23356895
-0.05405966
-0.24433814
-0.057352212
-0.25560176
-0.060789031
-0.26738408
-0.064372552
-0.27971192
-0.068104968
-0.29261241
-0.071988172
-0.30611502
-0.076022489
-0.32025105
-0.08020794
-0.33505365
-0.084543898
-0.35055781
-0.089027666
-0.36680133
-0.093656421
-0.38382303
-0.098425784
-0.40166529
-0.10332982
-0.42037272
-0.10836202
-0.43999115
-0.11351271
-0.46057177
-0.11877296
-0.48216543
-0.12413001
-0.50482854
-0.12957026
-0.52861926
-0.13507807
-0.55359946
-0.14063489
-0.5798342
-0.1462205
-0.60739259
-0.15181211
-0.6363466
-0.15738268
-0.66677411
-0.16290391
-0.69875499
-0.16834238
-0.73237533
-0.1736613
-0.76772594
-0.17881958
-0.80490097
-0.18377087
-0.84400213
-0.18846359
-0.88513435
-0.19283999
-0.92840984
-0.19683599
-0.97394567
-0.20037937
-1.0218663
-0.20338969
-1.0723015
-0.20577897
-1.1253844
-0.20744163
-1.1812618
-0.20827157
-1.2400687
-0.20814034
-1.3019725
-0.20691582
-1.3671219
-0.20444525
-1.4357005
-0.20055236
-1.507884
-0.19505934
-1.5838463
-0.18775364
-1.6637825
-0.17841402
-1.7478899
-0.16678977
-1.8364197
-0.1526163
-1.9296254
-0.1355905
-2.0276705
-0.11527296
-2.1310033
-2.2398061
-0.00046215115
-0.048755189
-0.001165882
-0.061260029
-0.0018247011
-0.059930908
-0.002620431
-0.065194474
-0.0033740672
-0.066937455
-0.0042296293
-0.070856079
-0.0050674967
-0.073798701
-0.0059937704
-0.077471343
-0.0069266327
-0.081035697
-0.0079300397
-0.084869091
-0.0089689529
-0.088854233
-0.010066471
-0.09302108
-0.01121673
-0.097385397
-0.012425927
-0.10194562
-0.013696456
-0.10671643
-0.015031426
-0.11170482
-0.016434601
-0.11692087
-0.017909765
-0.12237474
-0.019460617
-0.12807668
-0.021091197
-0.13403785
-0.022806225
-0.14026942
-0.024609056
-0.14678423
-0.026505216
-0.15359366
-0.028499297
-0.16071179
-0.030595833
-0.16815249
-0.032800111
-0.17593039
-0.035117352
-0.18406061
-0.037552506
-0.1925601
-0.040110513
-0.20144567
-0.042796588
-0.21073639
-0.045615623
-0.22045129
-0.048572105
-0.23061094
-0.051670406
-0.24123821
-0.054914897
-0.25235554
-0.058308752
-0.26398838
-0.061855071
-0.27616364
-0.065556369
-0.28890902
-0.069414562
-0.3022546
-0.073430412
-0.31623282
-0.077604319
-0.33087721
-0.081935243
-0.34622418
-0.086422014
-0.36231166
-0.091061346
-0.3791806
-0.095849558
-0.39687377
-0.10078218
-0.41543654
-0.10585223
-0.43491729
-0.11105248
-0.45536743
-0.11637379
-0.47683973
-0.12180543
-0.49939217
-0.12733585
-0.52308374
-0.13295055
-0.54797928
-0.13863408
-0.57414476
-0.14436836
-0.60165193
-0.15013305
-0.63057504
-0.15590576
-0.66099399
-0.16166066
-0.69299209
-0.16736852
-0.72665885
-0.17299794
-0.76208722
-0.17851226
-0.79937662
-0.18387147
-0.83863208
-0.18902981
-0.87996428
-0.19393682
-0.92349012
-0.19853562
-0.96933308
-0.20276309
-1.0176239
-0.20654838
-1.0684999
-0.20981083
-1.1221042
-0.21246498
-1.1785883
-0.2144048
-1.2381079
-0.21552969
-1.3008249
-0.21570658
-1.3669206
-0.21480788
-1.436573
-0.21267995
-1.5099838
-0.20915529
-1.5873408
-0.20404953
-1.668856
-0.19715948
-1.7547461
-0.18826215
-1.8452815
-0.1771232
-1.9407256
-0.16344153
-2.0413129
-0.14690451
-2.1475063
-2.2592623
-0.00041220126
-0.04834276
-0.0010747516
-0.060597222
-0.001670895
-0.059334484
-0.0024084149
-0.064456667
-0.0030860151
-0.066259554
-0.0038900185
-0.070051755
-0.0046611017
-0.073027278
-0.005527755
-0.076604331
-0.0063972436
-0.080165828
-0.0073387297
-0.083927204
-0.0083171539
-0.087875384
-0.0093521527
-0.091985631
-0.010440127
-0.096296946
-0.011585748
-0.10079949
-0.012791847
-0.1055098
-0.014062285
-0.11043382
-0.015400565
-0.11558199
-0.016810562
-0.12096411
-0.018296779
-0.12658979
-0.019863208
-0.13247071
-0.021514948
-0.13861693
-0.023256814
-0.14504156
-0.025093953
-0.15175566
-0.027031473
-0.15877337
-0.02907499
-0.16610802
-0.03123032
-0.17377404
-0.033502201
-0.18178764
-0.03589694
-0.19016421
-0.03841984
-0.19892155
-0.04107628
-0.20807864
-0.043871853
-0.21765432
-0.046811136
-0.22767018
-0.049899525
-0.23814825
-0.053140319
-0.24911306
-0.056538027
-0.26058888
-0.06009599
-0.27260377
-0.063816413
-0.28518655
-0.067701294
-0.29836754
-0.071752191
-0.31217959
-0.07596919
-0.32665772
-0.080352202
-0.3418385
-0.084899247
-0.35776176
-0.08960862
-0.37446816
-0.094477097
-0.392002
-0.099499639
-0.41041047
-0.10467119
-0.42974195
-0.10998601
-0.45004852
-0.11543529
-0.47138605
-0.12101108
-0.49381163
-0.12670202
-0.51738768
-0.13249749
-0.54217827
-0.13838352
-0.56825275
-0.14434509
-0.59568389
-0.15036511
-0.62454803
-0.15642425
-0.6549273
-0.16250075
-0.68690742
-0.16857089
-0.72057987
-0.17460661
-0.75604193
-0.18057746
-0.79339542
-0.18644843
-0.83274989
-0.1921814
-0.87421914
-0.1977325
-0.91792579
-0.20305311
-0.96399807
-0.20808833
-1.0125729
-0.21277666
-1.0637944
-0.21704889
-1.1178132
-0.22082751
-1.1747893
-0.22402811
-1.2348851
-0.22654852
-1.2982805
-0.22828807
-1.3651551
-0.22912285
-1.4357103
-0.22892182
-1.5101548
-0.22753716
-1.5886931
-0.22480306
-1.6715555
-0.22053979
-1.7589728
-0.21455499
-1.8512276
-0.20663114
-1.9486071
-0.19650915
-2.0513923
-0.18391877
-2.1600577
-2.274417
-0.00036968293
-0.047972862
-0.0010013278
-0.059965338
-0.0015424373
-0.058793127
-0.0022324786
-0.063766357
-0.0028504376
-0.065641312
-0.003606551
-0.069295339
-0.0043214876
-0.072312022
-0.005126669
-0.075798812
-0.0059542539
-0.079337885
-0.0068493834
-0.083031694
-0.0077815902
-0.086942775
-0.0087668054
-0.09099999
-0.0098046561
-0.095258644
-0.01089918
-0.099704492
-0.012054435
-0.10435404
-0.013273906
-0.10921381
-0.014562456
-0.11429287
-0.015924182
-0.11960178
-0.017363887
-0.12514944
-0.018886972
-0.13094695
-0.020498044
-0.13700513
-0.022203316
-0.14333552
-0.024008005
-0.14995016
-0.02591781
-0.1568627
-0.027939092
-0.16408581
-0.030077496
-0.17163466
-0.032339919
-0.17952418
-0.034731925
-0.18777109
-0.037259255
-0.19639304
-0.039928524
-0.20540811
-0.042744746
-0.21483676
-0.045713519
-0.22469997
-0.04883953
-0.2350207
-0.05212791
-0.24582305
-0.055581722
-0.25713332
-0.05920465
-0.26897897
-0.06299982
-0.28138938
-0.066968924
-0.29439629
-0.071113096
-0.30803313
-0.075432991
-0.32233536
-0.079928573
-0.33734028
-0.084598594
-0.3530889
-0.089441498
-0.36962222
-0.094454129
-0.3869861
-0.099633572
-0.40522751
-0.10497528
-0.42439644
-0.1104738
-0.44454591
-0.11612362
-0.46573181
-0.12191677
-0.4880137
-0.12784582
-0.51145346
-0.13390073
-0.53611776
-0.14007115
-0.56207626
-0.14634538
-0.58940309
-0.15270927
-0.61817702
-0.15914766
-0.64848118
-0.16564273
-0.68040398
-0.17217517
-0.71403834
-0.17872254
-0.7494847
-0.18525951
-0.78684775
-0.1917581
-0.82623967
-0.1981857
-0.86777889
-0.20450659
-0.91159111
-0.21067972
-0.95780988
-0.21665943
-1.0065767
-0.2223941
-1.0580417
-0.22782478
-1.1123628
-0.2328858
-1.1697066
-0.23750409
-1.2302433
-0.24159406
-1.2941649
-0.24506352
-1.361658
-0.24781367
-1.4329302
-0.24972654
-1.5082096
-0.25067155
-1.5877133
-0.25051084
-1.6716789
-0.24908118
-1.7603628
-0.24621457
-1.8540518
-0.24172727
-1.9530478
-0.23538384
-2.057689
-0.22695726
-2.1684398
-2.2850308
-0.00032651967
-0.047646141
-0.00093257026
-0.059359063
-0.0014242918
-0.058301169
-0.0020682014
-0.063122195
-0.0026416672
-0.065067578
-0.0033695403
-0.068567182
-0.0040512707
-0.071629989
-0.0048409428
-0.075008821
-0.0056288736
-0.078549614
-0.006477775
-0.082182433
-0.0073675775
-0.086052591
-0.0083097272
-0.090057437
-0.0093067484
-0.094261194
-0.01036207
-0.098648717
-0.01148014
-0.10323549
-0.012665539
-0.1080279
-0.013922229
-0.11303564
-0.015256192
-0.11826724
-0.016672261
-0.12373276
-0.018176115
-0.12944244
-0.019773598
-0.13540696
-0.021470717
-0.14163767
-0.023273786
-0.14814631
-0.025190052
-0.1549456
-0.027224993
-0.16204998
-0.029386099
-0.1694726
-0.031679517
-0.17722975
-0.034112082
-0.18533745
-0.03669031
-0.19381366
-0.039420262
-0.20267693
-0.042307672
-0.21194804
-0.045358283
-0.22164795
-0.048577223
-0.23180027
-0.051968543
-0.24243012
-0.055536479
-0.25356367
-0.059284538
-0.26522907
-0.063214899
-0.27745705
-0.067329827
-0.29027925
-0.071630665
-0.30373002
-0.076117999
-0.31784559
-0.080791683
-0.33266397
-0.085651733
-0.34822604
-0.090696087
-0.36457483
-0.095923206
-0.38175571
-0.10133062
-0.39981656
-0.10691503
-0.41880822
-0.11267286
-0.43878396
-0.11859982
-0.45980039
-0.12469073
-0.48191796
-0.13093979
-0.50519916
-0.13734062
-0.52971124
-0.1438851
-0.55552561
-0.15056482
-0.58271667
-0.15736964
-0.61136491
-0.16428845
-0.64155444
-0.17130844
-0.67337538
-0.17841435
-0.70692307
-0.18558945
-0.7422994
-0.19281458
-0.77961152
-0.20006763
-0.81897453
-0.20732352
-0.86050979
-0.21455376
-0.90434644
-0.22172566
-0.95062217
-0.22880281
-0.99948224
-0.23574278
-1.0510827
-0.24249861
-1.105586
-0.24901575
-1.1631665
-0.25523156
-1.2240024
-0.26107845
-1.2882907
-0.2664822
-1.3562246
-0.27134765
-1.4280327
-0.27558653
-1.5039361
-0.27908311
-1.5841793
-0.28171808
-1.6690036
-0.28335641
-1.7586814
-0.28385612
-1.8535057
-0.28305428
-1.9537986
-0.28074741
-2.0599448
-0.2767519
-2.1723848
-2.2908324
-0.00028438165
-0.04736157
-0.00087108647
-0.058772147
-0.0013215937
-0.057850439
-0.0019419842
-0.062501567
-0.0024926583
-0.06451665
-0.0031988417
-0.06786073
-0.0038528927
-0.070975652
-0.0046182778
-0.074243131
-0.0053759595
-0.077791611
-0.0061923364
-0.081365716
-0.0070549704
-0.085189595
-0.007970558
-0.089141466
-0.008943985
-0.09328736
-0.0099786647
-0.097613606
-0.011079672
-0.10213402
-0.012251836
-0.10685525
-0.013500823
-0.11178613
-0.014832046
-0.11693546
-0.016251519
-0.1223127
-0.017766018
-0.12792732
-0.019381584
-0.13379073
-0.02110575
-0.13991279
-0.022944891
-0.14630641
-0.024906403
-0.15298328
-0.026997867
-0.15995766
-0.029226067
-0.16724349
-0.031598535
-0.17485631
-0.034122132
-0.1828128
-0.03680329
-0.19113138
-0.039648806
-0.19983022
-0.042664729
-0.20893083
-0.045856101
-0.21845521
-0.049227787
-0.22842711
-0.052784578
-0.23887176
-0.056530136
-0.24981642
-0.060467214
-0.26129018
-0.064598696
-0.27332362
-0.068926456
-0.28594939
-0.073451549
-0.29920268
-0.078175071
-0.31311965
-0.083097044
-0.32773939
-0.088217164
-0.3431031
-0.093535183
-0.35925378
-0.099050467
-0.37623715
-0.10476136
-0.39410213
-0.11066645
-0.41289929
-0.1167637
-0.43268255
-0.12305093
-0.45350866
-0.12952564
-0.47543834
-0.13618434
-0.49853514
-0.14302372
-0.52286607
-0.15003951
-0.54850351
-0.15722646
-0.57552286
-0.16457907
-0.60400482
-0.17209013
-0.63403523
-0.17975169
-0.66570494
-0.18755358
-0.69911149
-0.19548535
-0.73435708
-0.20353332
-0.77155202
-0.21168205
-0.81081319
-0.21991405
-0.852264
-0.22820854
-0.89603683
-0.23654169
-0.94227238
-0.24488542
-0.9911202
-0.2532089
-1.042739
-0.26147503
-1.0972976
-0.26964278
-1.1549743
-0.27766142
-1.2159569
-0.28547801
-1.2804448
-0.29302678
-1.348644
-0.30024227
-1.4207827
-0.30704454
-1.4970964
-0.31334458
-1.5778387
-0.31903709
-1.6632673
-0.32401262
-1.7536589
-0.32815454
-1.8493127
-0.33132419
-1.9505728
-0.33336161
-2.057851
-0.33409651
-2.1715928
-2.291506
-0.00024621673
-0.047115174
-0.00082184679
-0.058196318
-0.001242599
-0.057429476
-0.0018877067
-0.061856235
-0.0024235037
-0.063980613
-0.0031045518
-0.067179427
-0.0037356642
-0.07034427
-0.004459168
-0.073519342
-0.0052033706
-0.077047104
-0.0060040905
-0.080564673
-0.0068568457
-0.084336497
-0.0077644273
-0.08823352
-0.0087339835
-0.092317417
-0.0097694389
-0.096577739
-0.010876554
-0.10102647
-0.012061092
-0.10567024
-0.013329295
-0.11051743
-0.014687853
-0.11557638
-0.016143561
-0.12085643
-0.017703135
-0.12636714
-0.019375204
-0.13211802
-0.021166218
-0.1381211
-0.023085047
-0.14438686
-0.025138966
-0.15092859
-0.0273358
-0.15775999
-0.029683632
-0.16489476
-0.032189847
-0.17234914
-0.034861397
-0.18014023
-0.037705657
-0.18828603
-0.040728578
-0.19680613
-0.043935718
-0.20572244
-0.047332699
-0.21505688
-0.050923916
-0.22483445
-0.054713534
-0.23508059
-0.058704807
-0.24582347
-0.06290052
-0.25709267
-0.067302883
-0.26891932
-0.071913576
-0.28133662
-0.076734325
-0.29437969
-0.081765783
-0.30808577
-0.087008839
-0.32249373
-0.092464233
-0.33764489
-0.098132403
-0.35358256
-0.10401332
-0.37035294
-0.11010776
-0.38800411
-0.1164162
-0.40658697
-0.12293855
-0.426156
-0.12967519
-0.44676744
-0.13662627
-0.46848228
-0.14379196
-0.49136403
-0.15117147
-0.51548064
-0.15876499
-0.54090354
-0.16657104
-0.56770977
-0.1745881
-0.59598007
-0.18281417
-0.62580076
-0.19124598
-0.65726395
-0.19987972
-0.69046772
-0.20870978
-0.72551604
-0.21772972
-0.76252006
-0.22693126
-0.80159848
-0.23630353
-0.84287727
-0.24583445
-0.88649
-0.25550885
-0.93258045
-0.2653091
-0.98130059
-0.27521359
-1.0328131
-0.28519721
-1.0872904
-0.29522992
-1.1449155
-0.30527763
-1.2058806
-0.31529759
-1.2703935
-0.32524432
-1.338663
-0.33506774
-1.4109221
-0.34470092
-1.4874229
-0.35407938
-1.5684163
-0.3631215
-1.6541776
-0.37174077
-1.7449881
-0.37983792
-1.8411592
-0.38731192
-1.9430371
-0.39403484
-2.0510659
-0.3998737
-2.165689
-2.2866994
-0.00021226049
-0.046902745
-0.0007885105
-0.057619882
-0.0011863809
-0.057031407
-0.0018486319
-0.061193769
-0.0023623913
-0.063466627
-0.0030345711
-0.066507007
-0.0036591382
-0.069719447
-0.0043776125
-0.072800596
-0.0051244382
-0.076299989
-0.0059254398
-0.079763365
-0.0067858703
-0.08347574
-0.0077058265
-0.087313217
-0.0086938035
-0.09132907
-0.0097546163
-0.095516533
-0.010894939
-0.099885726
-0.01212149
-0.10444325
-0.01344145
-0.109197
-0.014862155
-0.11415517
-0.016392038
-0.11932601
-0.018039024
-0.12471958
-0.01981138
-0.13034504
-0.021718019
-0.1362138
-0.023767074
-0.14233709
-0.025967248
-0.14872765
-0.028327248
-0.15539918
-0.030854459
-0.16236668
-0.033556704
-0.16964596
-0.036441255
-0.17725468
-0.039514851
-0.18521136
-0.042782702
-0.19353712
-0.046251215
-0.20225269
-0.049924214
-0.21138255
-0.053806448
-0.22095078
-0.05790066
-0.23098483
-0.06220963
-0.24151285
-0.066736256
-0.25256426
-0.071482417
-0.26417124
-0.076449599
-0.27636736
-0.081639495
-0.28918755
-0.087053863
-0.30266898
-0.092694164
-0.31685081
-0.09856214
-0.33177408
-0.1046594
-0.34748223
-0.11098848
-0.36402053
-0.11755167
-0.3814373
-0.12435127
-0.39978344
-0.13139086
-0.41911212
-0.13867288
-0.43948076
-0.14620126
-0.46094882
-0.15397927
-0.48358048
-0.16201069
-0.50744316
-0.17029836
-0.53260924
-0.17884608
-0.55915481
-0.18765711
-0.58716111
-0.19673397
-0.61671522
-0.20607908
-0.64790934
-0.21569449
-0.68084189
-0.22558093
-0.71561818
-0.23573844
-0.75235001
-0.24616568
-0.79115746
-0.25686101
-0.83216676
-0.26781964
-0.87551463
-0.27903596
-0.92134562
-0.29050208
-0.96981396
-0.3022075
-1.0210849
-0.31413889
-1.0753338
-0.32627953
-1.132747
-0.33860638
-1.1935229
-0.35109641
-1.2578697
-0.3637175
-1.326005
-0.37643014
-1.3981692
-0.38920163
-1.4746075
-0.40197563
-1.5555946
-0.41469459
-1.6414066
-0.42729214
-1.7323341
-0.43970665
-1.8286826
-0.45185193
-1.930824
-0.46364682
-2.0392027
-0.474989
-2.1542739
-2.2759926
-0.0001909019
-0.046711685
-0.00078650241
-0.057024105
-0.0011805397
-0.056637183
-0.0018348661
-0.060539243
-0.0023414267
-0.062959853
-0.003019279
-0.065828927
-0.0036587526
-0.069079731
-0.004383851
-0.072075239
-0.0051522533
-0.075531312
-0.0059745197
-0.078940806
-0.0068643477
-0.0825856
-0.0078209173
-0.086356316
-0.0088538078
-0.090295825
-0.0099690855
-0.094400878
-0.011174472
-0.098679937
-0.012477858
-0.10313943
-0.013887694
-0.1077867
-0.015412814
-0.11262955
-0.017061853
-0.11767644
-0.018844759
-0.12293611
-0.020770333
-0.12841887
-0.022848236
-0.13413525
-0.025087281
-0.14009736
-0.027496552
-0.14631764
-0.030084548
-0.15281039
-0.032859307
-0.15959107
-0.035827811
-0.16667654
-0.038997158
-0.17408435
-0.042372764
-0.1818347
-0.045960584
-0.18994817
-0.049764378
-0.19844767
-0.053788241
-0.20735737
-0.058035434
-0.21670217
-0.06250848
-0.22651026
-0.067209793
-0.23680988
-0.072141553
-0.24763071
-0.077305388
-0.25900548
-0.0827037
-0.27096697
-0.088338368
-0.28355063
-0.094212057
-0.29679286
-0.1003276
-0.31073263
-0.10668831
-0.32541051
-0.1132983
-0.34086914
-0.12016174
-0.35715371
-0.12728345
-0.37431193
-0.13466931
-0.39239359
-0.14232507
-0.411452
-0.15025734
-0.43154373
-0.15847279
-0.45272818
-0.16697886
-0.47506872
-0.17578303
-0.49863277
-0.18489373
-0.52349173
-0.19431863
-0.54972244
-0.20406605
-0.5774055
-0.21414373
-0.60662855
-0.22456047
-0.63748272
-0.2353235
-0.67006803
-0.24644053
-0.70448924
-0.25791881
-0.74085862
-0.26976508
-0.77929674
-0.2819848
-0.81993109
-0.29458301
-0.86289876
-0.30756341
-0.90834563
-0.32092833
-0.95642728
-0.33467879
-1.0073103
-0.34881346
-1.0611722
-0.36332828
-1.1182023
-0.37821578
-1.1786024
-0.39346869
-1.2425804
-0.40906668
-1.3103671
-0.42499723
-1.382195
-0.44123328
-1.4583238
-0.45775053
-1.5390252
-0.47451599
-1.6245843
-0.49148307
-1.7153046
-0.50860792
-1.8114889
-0.52584058
-1.9135168
-0.54314225
-2.021826
-0.56043762
-2.1368965
-2.2589082
-0.00017228867
-0.046539247
-0.00079657374
-0.056399654
-0.0011971943
-0.056236385
-0.0018627161
-0.059873531
-0.002381988
-0.062440378
-0.0030743053
-0.065136394
-0.0037441607
-0.068409645
-0.0044927476
-0.071326407
-0.0053011592
-0.074722638
-0.0061672515
-0.078074435
-0.0071107003
-0.081641853
-0.0081314357
-0.085335263
-0.0092397905
-0.08918713
-0.010443486
-0.09319682
-0.01175158
-0.097371455
-0.013173411
-0.10171718
-0.014718742
-0.10624093
-0.016397693
-0.11095013
-0.01822055
-0.11585308
-0.02019726
-0.12095886
-0.022338248
-0.1262773
-0.024653125
-0.13181974
-0.027151095
-0.13759871
-0.029841348
-0.14362666
-0.032731661
-0.1499193
-0.035829316
-0.15649258
-0.039141506
-0.16336345
-0.042673071
-0.17055182
-0.046429205
-0.17807752
-0.050413797
-0.18596245
-0.054630224
-0.19423002
-0.059081486
-0.2029048
-0.063768904
-0.21201334
-0.068695678
-0.22158195
-0.073863206
-0.2316407
-0.079273409
-0.24221873
-0.084929154
-0.2533478
-0.090832701
-0.26506133
-0.096988222
-0.27739284
-0.10339948
-0.29037914
-0.11007113
-0.30405832
-0.11700869
-0.31847005
-0.12421888
-0.3336558
-0.13170862
-0.34966055
-0.13948595
-0.36653085
-0.14755984
-0.38431562
-0.15593962
-0.40306776
-0.16463545
-0.42284304
-0.1736585
-0.44369979
-0.18301998
-0.4657014
-0.1927323
-0.48891406
-0.2028073
-0.5134097
-0.21325893
-0.5392631
-0.22410003
-0.56655591
-0.23534499
-0.59537426
-0.24700727
-0.62581018
-0.25910183
-0.65796216
-0.27164287
-0.69193575
-0.28464478
-0.72784297
-0.29812282
-0.76580353
-0.31209066
-0.80594645
-0.32656269
-0.84840807
-0.34155285
-0.89333473
-0.35707429
-0.94088272
-0.3731391
-0.99121967
-0.38975909
-1.0445234
-0.4069445
-1.1009849
-0.42470424
-1.1608072
-0.44304096
-1.2242044
-0.46195898
-1.2914058
-0.48145776
-1.3626488
-0.50153698
-1.4381926
-0.52219025
-1.518315
-0.54340261
-1.6033094
-0.56516382
-1.6934745
-0.58744495
-1.7891316
-0.61023666
-1.8906433
-0.63352462
-1.9984548
-0.65727471
-2.1130541
-2.2349021
-0.00015821493
-0.04638089
-0.0008245328
-0.05573318
-0.0012387774
-0.055821972
-0.0019342634
-0.059177865
-0.0024837327
-0.061890716
-0.0032046962
-0.064415225
-0.0039253744
-0.067688746
-0.0047186077
-0.070532939
-0.0055899622
-0.073851033
-0.0065270187
-0.077137111
-0.0075534068
-0.080615178
-0.0086712549
-0.084217109
-0.0098919708
-0.087966087
-0.011225356
-0.091863084
-0.012682011
-0.095914425
-0.014273033
-0.10012576
-0.016009583
-0.10450394
-0.017902918
-0.10905633
-0.019964182
-0.11379131
-0.022204196
-0.11871831
-0.024633082
-0.12384784
-0.027260777
-0.12919143
-0.030096467
-0.13476236
-0.033147675
-0.14057474
-0.036421911
-0.1466443
-0.039925123
-0.15298854
-0.043662155
-0.15962552
-0.047637318
-0.16657569
-0.051853723
-0.17386007
-0.056313692
-0.18150136
-0.061018965
-0.18952354
-0.065971614
-0.19795084
-0.071173078
-0.20681046
-0.076625102
-0.2161284
-0.082330163
-0.22593398
-0.088290926
-0.23625617
-0.094510857
-0.24712592
-0.10099505
-0.25857503
-0.10774789
-0.27063772
-0.11477644
-0.28334809
-0.12208763
-0.29674443
-0.1296908
-0.31086394
-0.1375944
-0.32574899
-0.14580928
-0.34144217
-0.15434744
-0.35798888
-0.16322057
-0.37543833
-0.17244237
-0.3938414
-0.18202734
-0.41325307
-0.19199022
-0.43373144
-0.20234739
-0.45533821
-0.21311519
-0.47813965
-0.22431196
-0.50220567
-0.23595522
-0.52761185
-0.2480642
-0.55443813
-0.26065911
-0.58276966
-0.2737602
-0.61269839
-0.28738836
-0.6443222
-0.30156616
-0.67774492
-0.31631576
-0.71307896
-0.33165967
-0.75044365
-0.34762165
-0.78996675
-0.36422586
-0.83178414
-0.38149638
-0.8760422
-0.39945721
-0.92289731
-0.41813402
-0.97251536
-0.43755126
-1.0250755
-0.45773321
-1.0807687
-0.47870353
-1.1397986
-0.50048329
-1.2023822
-0.52309587
-1.2687464
-0.54655886
-1.3391342
-0.57088897
-1.4138057
-0.59610464
-1.493037
-0.62222342
-1.5771219
-0.64924853
-1.6663731
-0.67718527
-1.7611104
-0.70604551
-1.8616928
-0.73585989
-1.9685477
-0.76661665
-2.0821927
-2.2033513
-0.00015019178
-0.046230565
-0.00087751053
-0.055005713
-0.0013105826
-0.05538874
-0.0020498999
-0.058438377
-0.0026502987
-0.061290133
-0.0034178607
-0.063647467
-0.0042123745
-0.066894022
-0.0050750859
-0.069670004
-0.0060350669
-0.072890811
-0.0070744639
-0.076097457
-0.0082190031
-0.079470363
-0.0094743904
-0.082961427
-0.010853543
-0.086586617
-0.012368313
-0.090347975
-0.01403111
-0.094251263
-0.015854309
-0.098302169
-0.017850254
-0.10250758
-0.020030856
-0.10687528
-0.022407655
-0.11141403
-0.024991414
-0.11613403
-0.027792191
-0.12104649
-0.030818665
-0.12616435
-0.034078451
-0.13150192
-0.037578333
-0.13707415
-0.041323003
-0.14289886
-0.045316793
-0.14899393
-0.049561885
-0.15537954
-0.054060432
-0.16207618
-0.058813838
-0.16910563
-0.063822795
-0.17649128
-0.069088549
-0.18425657
-0.074611939
-0.19242613
-0.08039511
-0.20102586
-0.086440241
-0.21008173
-0.09275117
-0.21962138
-0.099331821
-0.2296737
-0.10618842
-0.24026736
-0.11332716
-0.25143415
-0.12075703
-0.26320552
-0.12848651
-0.27561609
-0.1365273
-0.28870089
-0.14489001
-0.30249822
-0.1535884
-0.31704734
-0.16263689
-0.33239011
-0.17205033
-0.34857154
-0.18184531
-0.36563906
-0.19203945
-0.38364258
-0.20265128
-0.4026361
-0.21370074
-0.42267634