/*--------------------------------*- C++ -*----------------------------------*\
  =========                 |
  \\      /  F ield         | OpenFOAM: The Open Source CFD Toolbox
   \\    /   O peration     | Website:  https://openfoam.org
    \\  /    A nd           | Version:  12
     \\/     M anipulation  |
\*---------------------------------------------------------------------------*/
FoamFile
{
    format      ascii;
    class       volScalarField;
    location    "0.107";
    object      Ma;
}
// * * * * * * * * * * * * * * * * * * * * * * * * * * * * * * * * * * * * * //

dimensions      [];

internalField   nonuniform List<scalar> 
16000
(
0.62746667
0.74540667
0.70060544
0.72502367
0.70998509
0.71690281
0.71120345
0.71271295
0.71006454
0.70961447
0.70798827
0.70684826
0.7054293
0.70404392
0.70257609
0.70106155
0.69948908
0.69786027
0.69617389
0.69442948
0.69262666
0.69076526
0.68884541
0.68686747
0.68483214
0.68274045
0.68059378
0.67839391
0.67614301
0.67384367
0.67149891
0.66911219
0.66668737
0.66422875
0.66174103
0.65922926
0.65669885
0.65415547
0.65160506
0.6490537
0.64650761
0.64397302
0.64145615
0.63896308
0.63649971
0.6340717
0.63168434
0.62934256
0.62705085
0.62481317
0.62263299
0.62051318
0.61845605
0.61646332
0.6145361
0.61267489
0.61087958
0.60914948
0.60748328
0.60587891
0.60433353
0.6028437
0.60140536
0.60001354
0.59866251
0.59734601
0.59605746
0.5947902
0.59353746
0.59229206
0.59104633
0.58979272
0.588526
0.58724644
0.58596087
0.58467737
0.58329979
0.58232481
0.58004034
0.58018535
0.63200741
0.75067577
0.70391884
0.72973519
0.71387156
0.72124907
0.71510339
0.71672934
0.71389781
0.71337411
0.71165954
0.71040289
0.70889165
0.70739123
0.70581398
0.70418208
0.70248969
0.70073669
0.69892248
0.69704662
0.69510899
0.69310969
0.69104919
0.68892824
0.68674799
0.68450997
0.68221612
0.67986882
0.6774709
0.67502564
0.67253681
0.6700086
0.66744568
0.66485311
0.66223637
0.65960129
0.65695397
0.65430078
0.65164824
0.64900297
0.6463716
0.64376068
0.64117662
0.63862557
0.6361134
0.63364557
0.63122709
0.62886248
0.62655571
0.62431018
0.62212867
0.62001338
0.61796587
0.61598712
0.6140775
0.61223678
0.61046417
0.60875831
0.6071173
0.6055386
0.60401888
0.60255431
0.60114053
0.59977238
0.59844402
0.59714908
0.59588091
0.59463282
0.59339809
0.59216972
0.59094013
0.58970164
0.58844859
0.58718105
0.58590326
0.58461089
0.58332209
0.58210453
0.58029819
0.57986709
0.63625254
0.75551673
0.70756403
0.7338421
0.71752011
0.72500102
0.7186959
0.72021134
0.71732426
0.71664368
0.71486062
0.71346582
0.71184984
0.71022219
0.70851992
0.70675648
0.70492861
0.70303591
0.70107805
0.69905492
0.69696673
0.69481399
0.69259763
0.6903189
0.68797953
0.68558167
0.68312796
0.68062151
0.67806595
0.6754654
0.67282451
0.67014839
0.66744262
0.66471322
0.66196655
0.65920932
0.65644844
0.65369101
0.65094418
0.64821508
0.64551072
0.64283791
0.64020312
0.63761245
0.63507155
0.6325855
0.63015881
0.62779539
0.62549846
0.62327062
0.62111377
0.61902919
0.61701752
0.6150788
0.61321249
0.6114175
0.60969221
0.6080345
0.60644176
0.60491084
0.60343793
0.60201874
0.60064856
0.59932204
0.59803318
0.59677558
0.59554259
0.59432757
0.59312394
0.59192493
0.59072328
0.58951148
0.58828383
0.58703935
0.58578007
0.5845083
0.58325105
0.58195098
0.58038101
0.57964158
0.64012956
0.75993341
0.71065734
0.73744244
0.72070922
0.72829681
0.72182691
0.72321179
0.72026108
0.71940382
0.71753796
0.71598883
0.71425002
0.71247887
0.71063396
0.70872203
0.70674181
0.70469288
0.70257527
0.70038921
0.69813535
0.69581467
0.69342862
0.69097907
0.68846843
0.6858996
0.68327606
0.68060182
0.67788149
0.67512022
0.67232371
0.66949817
0.66665024
0.66378701
0.66091584
0.65804437
0.65518035
0.65233158
0.64950578
0.64671048
0.64395292
0.64123995
0.63857792
0.63597261
0.63342917
0.63095204
0.62854498
0.62621095
0.62395223
0.62177033
0.61966609
0.61763967
0.61569062
0.6138179
0.61201996
0.61029477
0.60863981
0.60705217
0.60552852
0.60406511
0.60265762
0.60130136
0.59999129
0.59872189
0.5974871
0.5962805
0.5950955
0.59392552
0.59276417
0.59160497
0.59044104
0.58926524
0.58807166
0.58685794
0.58562579
0.5843839
0.58314485
0.58183058
0.58040614
0.57946156
0.64363187
0.76386569
0.71348091
0.74040527
0.72328852
0.73103124
0.72444365
0.7256379
0.72264163
0.72157247
0.71961272
0.7178912
0.71601073
0.71408015
0.71207533
0.70999862
0.70784974
0.70562848
0.70333515
0.70097037
0.69853525
0.69603137
0.69346083
0.69082631
0.68813111
0.68537913
0.68257494
0.67972372
0.67683131
0.67390415
0.67094921
0.667974
0.66498643
0.66199474
0.65900739
0.65603295
0.65308
0.65015694
0.6472719
0.64443262
0.64164634
0.63891966
0.63625848
0.63366794
0.63115238
0.62871525
0.6263592
0.62408602
0.6218967
0.61979146
0.61776983
0.61583069
0.61397236
0.61219263
0.61048886
0.60885801
0.60729666
0.60580111
0.60436733
0.60299098
0.60166729
0.60039121
0.59915743
0.59796031
0.59679377
0.59565147
0.59452693
0.59341375
0.59230572
0.59119675
0.59008046
0.5889502
0.58779983
0.58662588
0.5854308
0.58422539
0.58300837
0.58171265
0.58038005
0.57931462
0.64670705
0.76722916
0.715855
0.74291038
0.72551713
0.73312112
0.72640633
0.72740837
0.72437294
0.72307509
0.721009
0.719104
0.71706572
0.71496256
0.7127824
0.7105252
0.70819117
0.70578043
0.70329376
0.70073238
0.69809815
0.6953935
0.69262156
0.68978613
0.68689175
0.68394368
0.68094791
0.67791114
0.67484075
0.67174471
0.66863155
0.66551022
0.66239
0.65928039
0.65619092
0.65313102
0.65010992
0.6471364
0.64421875
0.64136457
0.6385807
0.63587312
0.63324686
0.63070601
0.62825365
0.62589189
0.62362192
0.621444
0.6193576
0.61736141
0.61545349
0.61363131
0.61189187
0.61023173
0.60864716
0.60713414
0.6056884
0.60430548
0.60298074
0.60170933
0.60048611
0.59930575
0.59816277
0.59705149
0.59596591
0.59489982
0.59384695
0.59280113
0.59175644
0.59070717
0.58964757
0.58857151
0.58747269
0.58634698
0.58519756
0.58403427
0.58284734
0.58158754
0.58032702
0.57917337
0.64932374
0.77000356
0.71777344
0.74491863
0.72727822
0.73454654
0.72786222
0.728487
0.72546265
0.72388963
0.72170271
0.71960312
0.71738715
0.71509299
0.71271617
0.71025615
0.70771367
0.70508966
0.70238572
0.69960409
0.69674777
0.69382045
0.69082669
0.68777183
0.68466205
0.68150435
0.67830654
0.67507715
0.67182539
0.66856105
0.66529434
0.66203581
0.65879613
0.65558597
0.65241578
0.64929565
0.64623509
0.64324294
0.64032715
0.63749471
0.63475157
0.63210254
0.62955128
0.62710031
0.62475102
0.62250377
0.6203579
0.61831189
0.61636343
0.61450954
0.61274668
0.61107086
0.60947774
0.60796272
0.60652103
0.60514773
0.60383783
0.60258622
0.60138777
0.60023725
0.59912925
0.59805829
0.59701884
0.59600528
0.59501174
0.59403229
0.59306094
0.59209183
0.59111939
0.59013836
0.58914365
0.5881297
0.58709015
0.58602076
0.58492483
0.58380919
0.5826605
0.58145017
0.58025129
0.57903244
0.65152121
0.77221771
0.71927726
0.74645751
0.72862783
0.73552901
0.72882377
0.72931659
0.72589007
0.72403756
0.7216945
0.71937439
0.71694664
0.71442983
0.71182366
0.70912828
0.7063452
0.70347644
0.70052481
0.69749391
0.69438828
0.69121331
0.68797539
0.68468183
0.68134091
0.67796177
0.6745544
0.6711295
0.66769837
0.66427277
0.6608647
0.65748625
0.65414936
0.65086563
0.64764608
0.64450098
0.64143968
0.63847039
0.63560016
0.63283471
0.6301784
0.62763427
0.625204
0.62288801
0.62068555
0.61859479
0.61661298
0.61473657
0.61296133
0.61128253
0.60969505
0.60819347
0.60677223
0.60542566
0.60414808
0.60293385
0.60177737
0.60067309
0.59961554
0.59859926
0.59761874
0.59666848
0.59574303
0.59483691
0.59394455
0.59306033
0.59217867
0.59129409
0.59040142
0.58949594
0.5885732
0.58762815
0.5866547
0.58564888
0.58461327
0.5835502
0.58244699
0.58129726
0.58015587
0.57888553
0.65336798
0.77390143
0.72032439
0.74752581
0.72931621
0.73556667
0.72895632
0.72865834
0.72560446
0.72346761
0.72091934
0.71834266
0.71566104
0.71288212
0.71000746
0.7070384
0.70397754
0.7008283
0.69759511
0.69428342
0.69089976
0.68745175
0.68394816
0.68039879
0.67681449
0.67320699
0.66958884
0.66597319
0.66237359
0.65880381
0.65527755
0.6518082
0.64840859
0.64509074
0.64186566
0.63874308
0.63573137
0.63283738
0.63006634
0.62742191
0.62490611
0.62251948
0.62026111
0.61812883
0.61611931
0.61422828
0.6124507
0.61078089
0.60921272
0.60773978
0.60635547
0.60505313
0.60382617
0.60266806
0.60157247
0.60053324
0.5995444
0.59860017
0.59769494
0.59682321
0.59597955
0.59515855
0.59435501
0.5935637
0.59277942
0.591997
0.59121131
0.59041736
0.58961046
0.58878643
0.58794143
0.58707089
0.5861693
0.58523335
0.58426381
0.5832577
0.58220709
0.5811271
0.5800403
0.57873063
0.65486772
0.77503285
0.7208459
0.74792976
0.72928369
0.73511283
0.72848917
0.72780169
0.7245503
0.72206112
0.71925733
0.716386
0.71340661
0.71032282
0.70713721
0.70385294
0.70047426
0.69700658
0.69345658
0.68983219
0.68614267
0.68239854
0.6786116
0.67479477
0.67096202
0.66712812
0.66330848
0.65951881
0.65577493
0.65209239
0.6484862
0.64497052
0.64155835
0.63826129
0.63508935
0.63205072
0.62915172
0.62639675
0.62378825
0.62132686
0.61901149
0.61683948
0.61480682
0.61290834
0.61113793
0.60948878
0.60795352
0.60652448
0.6051938
0.60395361
0.6027961
0.60171368
0.60069898
0.59974497
0.59884491
0.59799242
0.59718143
0.59640614
0.59566102
0.59494073
0.59424007
0.59355392
0.59287741
0.5922057
0.59153404
0.59085777
0.59017231
0.58947322
0.58875636
0.58801814
0.58725517
0.58646337
0.58563822
0.58477722
0.58387818
0.5829329
0.58194214
0.58093933
0.57990396
0.57856693
0.65595873
0.77550823
0.7207637
0.74680692
0.72847626
0.73370925
0.72723064
0.72595049
0.72256469
0.71969817
0.71658107
0.71336918
0.71004276
0.70660576
0.70306206
0.69941715
0.6956777
0.69185194
0.68794965
0.68398213
0.67996226
0.67590434
0.67182398
0.66773788
0.66366362
0.65961929
0.65562325
0.65169367
0.64784822
0.64410365
0.64047546
0.63697753
0.63362185
0.63041829
0.62737449
0.62449571
0.62178491
0.61924279
0.61686798
0.6146572
0.61260553
0.61070666
0.60895316
0.60733677
0.60584861
0.60447945
0.60321991
0.6020606
0.6009923
0.60000605
0.59909328
0.5982458
0.59745591
0.59671635
0.59602035
0.5953616
0.59473416
0.5941325
0.59355138
0.59298578
0.59243091
0.59188207
0.59133483
0.59078484
0.59022788
0.58965984
0.58907676
0.58847481
0.58785049
0.58720076
0.58652256
0.58581232
0.58506687
0.58428441
0.58345885
0.58257775
0.58165336
0.58073221
0.5797457
0.57839653
0.65654481
0.77515705
0.71995937
0.74499915
0.72704371
0.73144534
0.7250307
0.72314137
0.71952278
0.71623884
0.71274486
0.70913769
0.70540829
0.7015633
0.69760888
0.6935537
0.68940803
0.68518405
0.68089589
0.67655942
0.67219222
0.6678133
0.66344283
0.65910182
0.65481169
0.65059385
0.64646923
0.64245783
0.63857819
0.63484703
0.63127881
0.62788549
0.62467623
0.62165739
0.61883245
0.61620214
0.61376465
0.61151585
0.60944961
0.60755815
0.60583236
0.60426215
0.60283675
0.60154504
0.60037572
0.59931763
0.5983598
0.5974917
0.59670326
0.59598497
0.59532792
0.59472383
0.59416504
0.59364447
0.59315563
0.59269256
0.59224975
0.59182211
0.59140489
0.59099358
0.59058391
0.59017175
0.58975319
0.58932442
0.58888181
0.58842185
0.5879412
0.58743673
0.58690562
0.58634533
0.58575304
0.58512576
0.58446189
0.58375989
0.5830093
0.58219538
0.58134305
0.58050419
0.57956298
0.57822097
0.65656284
0.77390491
0.71829666
0.74245717
0.72473212
0.72814029
0.72176397
0.71921298
0.71527793
0.7115254
0.70758211
0.70351309
0.69931511
0.69499901
0.69057491
0.68605618
0.68145831
0.67679906
0.67209835
0.66737796
0.66266125
0.65797273
0.65333764
0.64878137
0.64432895
0.6400044
0.63583012
0.63182635
0.62801067
0.62439753
0.62099805
0.61781978
0.61486678
0.61213971
0.60963606
0.6073505
0.60527531
0.60340074
0.60171552
0.60020724
0.59886277
0.59766862
0.5966112
0.59567714
0.59485344
0.59412764
0.59348797
0.59292336
0.59242352
0.59197897
0.59158101
0.59122168
0.59089378
0.59059077
0.59030673
0.59003631
0.58977463
0.58951725
0.58926005
0.58899917
0.58873096
0.58845192
0.58815875
0.58784826
0.58751738
0.58716322
0.58678309
0.58637457
0.58593556
0.58546394
0.58495714
0.58441288
0.58383103
0.58320957
0.58253398
0.58179024
0.58101515
0.58025573
0.57935338
0.57804112
0.65599502
0.77165464
0.71570629
0.73881754
0.72140502
0.72370222
0.71728341
0.71401885
0.70965637
0.70536349
0.70088535
0.69627364
0.6915304
0.68667242
0.68171611
0.67668164
0.67159169
0.66647138
0.66134794
0.65625022
0.65120817
0.6462522
0.64141246
0.63671807
0.63219634
0.62787197
0.62376643
0.61989732
0.61627806
0.61291765
0.60982069
0.60698752
0.60441459
0.60209488
0.60001846
0.59817301
0.59654442
0.59511732
0.5938756
0.59280282
0.59188259
0.59109888
0.59043623
0.58987997
0.58941631
0.58903239
0.58871637
0.58845742
0.58824566
0.58807218
0.58792896
0.58780881
0.58770533
0.58761278
0.58752608
0.58744068
0.5873525
0.58725787
0.58715342
0.58703601
0.58690268
0.58675064
0.58657723
0.58637986
0.58615608
0.58590358
0.58562029
0.58530451
0.58495479
0.58456945
0.58414625
0.58368383
0.58318302
0.58264032
0.58203845
0.58136798
0.58067493
0.57998924
0.57911517
0.57786334
0.65478305
0.76823531
0.71213535
0.73399936
0.7169027
0.71795619
0.71138765
0.70734128
0.7024235
0.697495
0.69238166
0.68713386
0.6817615
0.67628966
0.67074379
0.66515312
0.6595496
0.6539674
0.6484424
0.64301132
0.63771088
0.63257674
0.62764251
0.62293864
0.61849152
0.61432271
0.61044844
0.60687935
0.60362045
0.60067144
0.59802715
0.59567815
0.59361146
0.59181131
0.5902599
0.58893803
0.58782581
0.58690314
0.58615018
0.58554771
0.58507736
0.58472183
0.58446502
0.58429205
0.58418935
0.58414457
0.58414659
0.58418546
0.58425231
0.58433926
0.58443938
0.58454655
0.58465542
0.58476131
0.5848601
0.58494818
0.58502238
0.58507986
0.58511807
0.58513462
0.58512729
0.58509401
0.58503275
0.58494156
0.58481857
0.58466201
0.5844704
0.58424269
0.58397801
0.58367509
0.58333229
0.58294935
0.58252722
0.58205995
0.58152952
0.58093528
0.58032806
0.57970877
0.57885516
0.57768329
0.65287237
0.76340841
0.70762791
0.72781027
0.71101723
0.71067789
0.7038071
0.69888251
0.69325998
0.6875778
0.68171788
0.67573635
0.66965467
0.66350881
0.65733595
0.65117698
0.64507518
0.6390754
0.63322288
0.62756184
0.6221341
0.61697761
0.61212514
0.60760326
0.60343163
0.59962266
0.59618161
0.59310694
0.59039099
0.58802087
0.5859794
0.58424617
0.58279846
0.58161217
0.58066259
0.57992507
0.57937556
0.57899096
0.57874947
0.57863077
0.57861611
0.57868834
0.57883197
0.57903304
0.57927911
0.57955915
0.57986341
0.58018337
0.58051157
0.58084154
0.58116768
0.58148517
0.58178988
0.58207825
0.58234726
0.58259429
0.58281709
0.5830137
0.58318236
0.58332148
0.58342954
0.58350517
0.583547
0.58355367
0.58352386
0.58345633
0.58335012
0.58320469
0.58301959
0.58279404
0.58252734
0.58222038
0.58187339
0.58147721
0.58101547
0.58049951
0.57998029
0.57941949
0.57858068
0.57750721
0.65020518
0.75678496
0.70206727
0.71998647
0.70344007
0.70152045
0.69415348
0.68822851
0.68174142
0.67517806
0.66846232
0.66166014
0.65480901
0.64795945
0.64116398
0.63447808
0.62795826
0.62166016
0.61563659
0.60993545
0.60459787
0.59965685
0.59513625
0.59105042
0.58740439
0.58419445
0.58140921
0.57903076
0.57703612
0.57539856
0.57408886
0.57307656
0.57233084
0.57182138
0.57151894
0.57139585
0.57142626
0.57158635
0.57185439
0.57221075
0.57263785
0.57312006
0.57364357
0.57419628
0.57476762
0.57534843
0.57593083
0.57650805
0.57707432
0.57762477
0.57815527
0.57866238
0.57914324
0.57959547
0.58001712
0.58040656
0.58076246
0.58108368
0.58136925
0.58161831
0.58183005
0.58200373
0.5821386
0.5822339
0.5822888
0.58230257
0.5822747
0.58220497
0.5820932
0.58193912
0.58174329
0.58150771
0.58123119
0.58090152
0.58050587
0.58006842
0.57963676
0.57913009
0.57830543
0.57733927
0.64664676
0.74769628
0.69483956
0.7100756
0.69371417
0.69000813
0.68192075
0.67486191
0.6673525
0.65978365
0.65211815
0.64443706
0.63680054
0.62927916
0.62194451
0.61486787
0.60811702
0.60175332
0.59582914
0.59038578
0.58545227
0.58104496
0.57716784
0.57381362
0.57096519
0.56859749
0.56667938
0.56517554
0.56404816
0.56325846
0.56276788
0.56253903
0.5625364
0.56272684
0.56307979
0.56356747
0.56416485
0.56484963
0.56560203
0.56640473
0.56724258
0.56810246
0.56897309
0.56984479
0.57070935
0.57155982
0.5723904
0.57319623
0.57397334
0.57471848
0.57542902
0.57610288
0.57673843
0.57733443
0.57788992
0.57840425
0.57887689
0.57930752
0.57969585
0.58004168
0.58034488
0.58060528
0.5808227
0.58099691
0.5811276
0.58121449
0.58125745
0.58125643
0.58121132
0.58112241
0.58099158
0.58082168
0.58060991
0.58034221
0.58001092
0.57965041
0.57930073
0.57884696
0.57804834
0.57716132
0.6419088
0.73615269
0.68551549
0.69751616
0.68125954
0.67557909
0.66650678
0.65816225
0.64947773
0.64079617
0.632128
0.62357818
0.61523624
0.60719585
0.5995455
0.59236523
0.58572259
0.57966991
0.5742426
0.56945883
0.56532023
0.56181363
0.55891337
0.55658396
0.55478286
0.55346298
0.55257508
0.55206953
0.55189794
0.55201416
0.55237509
0.5529411
0.55367623
0.55454828
0.55552866
0.55659223
0.55771705
0.55888411
0.56007706
0.56128194
0.56248688
0.56368188
0.56485857
0.56601003
0.56713053
0.56821544
0.56926104
0.57026441
0.57122328
0.57213597
0.57300124
0.5738183
0.57458663
0.57530602
0.57597644
0.57659806
0.57717114
0.577696
0.57817301
0.57860257
0.57898508
0.57932091
0.57961039
0.57985377
0.58005122
0.58020294
0.58030908
0.58036965
0.58038457
0.58035461
0.5802827
0.58017193
0.58001815
0.57980773
0.57953977
0.57925387
0.57897519
0.57856571
0.57780499
0.57700924
0.63563129
0.72316265
0.67353629
0.68171926
0.66535681
0.65751063
0.6471421
0.63734106
0.62736396
0.61753703
0.60793076
0.59867949
0.58989925
0.58169675
0.57416054
0.56735776
0.56133179
0.55610212
0.55166578
0.54800018
0.54506672
0.54281477
0.54118565
0.54011617
0.53954166
0.53939846
0.53962562
0.54016618
0.5409679
0.54198361
0.54317125
0.5444938
0.54591891
0.54741862
0.5489689
0.55054927
0.5521424
0.55373373
0.55531108
0.55686441
0.55838544
0.55986748
0.56130515
0.56269423
0.56403144
0.56531434
0.56654117
0.56771076
0.56882241
0.56987582
0.57087103
0.57180833
0.57268823
0.57351137
0.57427856
0.57499065
0.57564856
0.5762532
0.5768055
0.57730633
0.57775659
0.57815707
0.57850855
0.57881171
0.57906719
0.57927559
0.57943736
0.57955255
0.57962117
0.57964441
0.57962561
0.57956721
0.57946409
0.5793056
0.57909906
0.57888493
0.57866764
0.57829226
0.57757504
0.57688755
0.62748682
0.70616216
0.65806548
0.66179625
0.64495987
0.63474217
0.62279322
0.61143288
0.60019443
0.58939873
0.57917276
0.56966709
0.56099878
0.5532557
0.54649129
0.54072537
0.53594668
0.53211765
0.52918003
0.52706099
0.52567886
0.52494809
0.52478333
0.52510243
0.52582857
0.52689146
0.52822798
0.5297823
0.53150564
0.53335586
0.53529689
0.53729809
0.53933364
0.54138198
0.54342516
0.54544842
0.54743971
0.54938926
0.55128927
0.55313359
0.55491749
0.55663739
0.55829071
0.55987568
0.56139124
0.56283687
0.56421253
0.56551857
0.56675564
0.56792463
0.56902663
0.57006286
0.57103467
0.57194346
0.57279067
0.57357778
0.57430622
0.5749774
0.57559269
0.57615339
0.57666077
0.57711601
0.57752021
0.57787444
0.57817975
0.57843711
0.57864722
0.57881033
0.57892673
0.57899801
0.57902718
0.57901508
0.57895584
0.57884362
0.57869465
0.57854743
0.57838348
0.57803599
0.57736904
0.57680649
0.61682736
0.68417246
0.63770525
0.63632895
0.61859218
0.60588443
0.59228686
0.57953319
0.56740657
0.55620428
0.54606813
0.5371191
0.52942301
0.52299845
0.51781988
0.51382585
0.51092803
0.50902058
0.50798861
0.50771525
0.508087
0.50899746
0.51034961
0.51205685
0.51404331
0.51624343
0.51860126
0.52106956
0.52360879
0.52618613
0.52877454
0.53135194
0.53390042
0.53640562
0.53885612
0.54124298
0.54355931
0.54579995
0.54796114
0.5500403
0.5520358
0.55394682
0.55577318
0.55751522
0.55917371
0.56074978
0.5622448
0.56366036
0.56499822
0.56626022
0.56744833
0.56856451
0.56961077
0.57058912
0.57150155
0.57234998
0.5731363
0.57386229
0.5745297
0.57514019
0.57569528
0.57619648
0.57664515
0.57704268
0.57739042
0.57768964
0.57794128
0.57814594
0.57830449
0.57841891
0.57849144
0.57852087
0.57850085
0.57843053
0.57833315
0.57824323
0.57812472
0.57781039
0.57720633
0.57675722
0.60249888
0.65508739
0.61053596
0.60355859
0.58464373
0.56956006
0.55473431
0.54128784
0.52918544
0.51864361
0.50973501
0.50247674
0.49681859
0.492661
0.48986862
0.4882855
0.4877478
0.48809394
0.48917169
0.49084251
0.49298374
0.49548903
0.49826782
0.50124404
0.50435453
0.50754743
0.5107805
0.51401964
0.51723756
0.52041263
0.52352788
0.52657017
0.52952949
0.53239839
0.5351715
0.53784516
0.54041704
0.54288595
0.54525157
0.5475143
0.5496751
0.5517354
0.55369696
0.55556182
0.55733222
0.55901056
0.56059934
0.56210113
0.56351854
0.56485419
0.56611066
0.56729053
0.56839634
0.56943053
0.57039552
0.57129361
0.57212701
0.57289783
0.57360808
0.5742597
0.57485447
0.57539408
0.57588017
0.57631431
0.57669809
0.57703294
0.57732002
0.57756039
0.57775561
0.57790808
0.57801923
0.57808627
0.57810324
0.57807328
0.57802225
0.57797714
0.57789226
0.57761862
0.57710093
0.57672878
0.5825276
0.61655979
0.57436707
0.56168536
0.54209904
0.52507198
0.51017035
0.49745657
0.48689856
0.47853912
0.4722807
0.46796333
0.46537549
0.46428267
0.4644465
0.4656399
0.46765626
0.47031407
0.47345817
0.47695869
0.48070879
0.48462175
0.48862803
0.49267243
0.49671158
0.5007117
0.50464681
0.50849718
0.51224807
0.51588875
0.51941163
0.52281164
0.5260857
0.52923226
0.53225104
0.53514269
0.53790861
0.54055077
0.54307157
0.54547376
0.54776031
0.54993435
0.55199915
0.55395804
0.55581438
0.55757152
0.5592328
0.56080154
0.56228096
0.56367426
0.56498451
0.56621473
0.56736782
0.56844661
0.56945379
0.57039196
0.57126358
0.572071
0.57281646
0.57350209
0.57412987
0.57470169
0.57521934
0.57568459
0.57609912
0.57646444
0.57678189
0.57705296
0.5772798
0.577465
0.5776094
0.57770977
0.57776185
0.57777217
0.57776525
0.57775721
0.57769529
0.57745469
0.57702307
0.57676577
0.5542992
0.56608318
0.52784488
0.50936221
0.48867807
0.47317185
0.46016667
0.45026293
0.44319582
0.43872199
0.43649461
0.43614963
0.43732878
0.43970506
0.44299333
0.446954
0.45139107
0.45614766
0.46110026
0.46615298
0.47123233
0.4762826
0.48126211
0.48614015
0.4908945
0.49550948
0.49997451
0.50428282
0.50843066
0.51241647
0.51624043
0.51990399
0.52340954
0.52676018
0.52995952
0.53301151
0.53592034
0.53869036
0.54132601
0.54383172
0.54621196
0.54847111
0.55061352
0.55264345
0.55456504
0.55638237
0.55809935
0.55971983
0.56124749
0.5626859
0.56403851
0.56530864
0.56649947
0.56761407
0.56865536
0.56962614
0.57052905
0.57136663
0.5721413
0.57285534
0.57351088
0.57410998
0.57465457
0.57514654
0.57558764
0.57597944
0.57632341
0.57662135
0.57687571
0.5770889
0.57726128
0.57739006
0.57747361
0.57752125
0.57755459
0.57758008
0.57754333
0.57734366
0.57699259
0.57679845
0.51369723
0.50112414
0.46384809
0.4459195
0.42847118
0.41624968
0.40792686
0.40328633
0.40167335
0.40250106
0.40519987
0.409282
0.41434465
0.42006898
0.42620923
0.43258011
0.43904434
0.44550181
0.45188065
0.45813019
0.46421556
0.47011354
0.4758095
0.48129509
0.48656651
0.49162329
0.49646729
0.50110205
0.50553224
0.50976335
0.51380131
0.5176524
0.521323
0.52481956
0.52814846
0.53131602
0.53432839
0.5371916
0.53991146
0.54249364
0.54494359
0.54726657
0.54946768
0.55155178
0.55352359
0.55538763
0.55714825
0.5588096
0.56037571
0.5618504
0.56323735
0.56454009
0.56576201
0.56690632
0.56797611
0.56897432
0.56990373
0.57076701
0.57156669
0.57230519
0.57298476
0.57360759
0.57417575
0.57469122
0.57515582
0.57557119
0.57593898
0.57626117
0.5765402
0.57677806
0.57697471
0.57712817
0.57723913
0.57731795
0.57738195
0.57743047
0.57741398
0.57725885
0.57699641
0.57688852
0.45179079
0.41918261
0.38945019
0.37458372
0.36373456
0.35892729
0.35836063
0.36111459
0.36619667
0.37284622
0.38047707
0.3886641
0.39710646
0.40559677
0.41399518
0.42220976
0.43018209
0.43787693
0.445275
0.45236787
0.4591544
0.46563832
0.47182651
0.47772781
0.48335224
0.48871039
0.49381309
0.49867113
0.50329511
0.50769531
0.51188164
0.51586361
0.51965031
0.5232504
0.52667214
0.52992336
0.53301154
0.53594376
0.53872678
0.54136703
0.5438706
0.54624333
0.54849077
0.5506182
0.55263068
0.55453303
0.55632983
0.55802549
0.5596242
0.56112996
0.5625466
0.56387778
0.565127
0.5662976
0.56739276
0.5684155
0.56936871
0.57025514
0.57107743
0.57183806
0.5725394
0.57318374
0.57377325
0.57430999
0.57479587
0.57523265
0.57562217
0.57596651
0.57626797
0.57652812
0.57674687
0.57692326
0.57705952
0.57716515
0.57725212
0.57731547
0.57731585
0.57720563
0.57701962
0.57694584
0.35593235
0.32242732
0.30479791
0.30031157
0.30169507
0.30796593
0.31714476
0.32796448
0.33955059
0.35135108
0.36302983
0.37439054
0.38532537
0.39578117
0.40573827
0.41519702
0.42416942
0.43267399
0.44073249
0.44836796
0.45560354
0.46246179
0.46896426
0.47513129
0.48098198
0.48653414
0.49180436
0.49680806
0.50155955
0.50607214
0.51035821
0.51442927
0.51829607
0.52196863
0.52545633
0.52876795
0.53191173
0.53489543
0.53772633
0.54041132
0.54295689
0.54536919
0.54765406
0.549817
0.55186328
0.55379787
0.55562552
0.55735075
0.55897786
0.56051095
0.56195393
0.56331053
0.56458432
0.5657787
0.56689692
0.56794205
0.56891703
0.56982468
0.57066768
0.57144859
0.57216985
0.5728338
0.57344269
0.57399864
0.57450362
0.57495955
0.57536838
0.57573227
0.57605329
0.57633281
0.57657101
0.576768
0.57692672
0.57705479
0.57715945
0.57723456
0.57725245
0.57718542
0.57706222
0.57700254
0.21672068
0.21543805
0.22082517
0.23423116
0.25154788
0.269946
0.28822032
0.30572001
0.32221574
0.33764341
0.35202809
0.36543008
0.37792312
0.38958246
0.40047987
0.41068137
0.4202467
0.42922937
0.43767715
0.44563258
0.45313355
0.4602139
0.46690388
0.47323063
0.47921853
0.48488958
0.4902637
0.49535895
0.50019178
0.50477722
0.50912904
0.5132599
0.51718147
0.52090454
0.5244391
0.52779448
0.53097933
0.53400177
0.53686937
0.53958928
0.54216819
0.54461244
0.54692797
0.54912046
0.55119523
0.55315738
0.55501171
0.5567628
0.55841502
0.5599725
0.56143919
0.56281887
0.56411514
0.56533142
0.56647099
0.56753695
0.56853228
0.56945982
0.57032228
0.57112225
0.57186221
0.57254454
0.57317151
0.57374529
0.57426791
0.57474137
0.5751677
0.575549
0.57588717
0.57618348
0.5764385
0.57665313
0.57683048
0.57697619
0.57709422
0.57717893
0.57721254
0.57718052
0.57710209
0.57704718
0.091996176
0.12191479
0.1593585
0.19302548
0.22317531
0.2497176
0.27327275
0.29430672
0.31323573
0.33038602
0.34602053
0.36034991
0.3735451
0.38574602
0.39706837
0.40760874
0.41744849
0.42665672
0.43529254
0.44340693
0.4510441
0.45824269
0.46503661
0.4714558
0.47752687
0.48327354
0.48871707
0.49387661
0.49876946
0.50341135
0.50781659
0.51199828
0.51596845
0.51973819
0.52331773
0.52671655
0.5299435
0.53300679
0.53591411
0.53867269
0.54128928
0.54377027
0.54612167
0.54834915
0.5504581
0.55245361
0.55434052
0.55612342
0.55780668
0.55939446
0.56089071
0.56229921
0.56362357
0.56486723
0.56603347
0.56712541
0.56814601
0.56909815
0.56998455
0.5708078
0.57157039
0.57227472
0.57292308
0.57351764
0.57406048
0.57455363
0.57499912
0.57539899
0.57575498
0.57606826
0.57633959
0.57657025
0.57676334
0.57692338
0.57705235
0.57714399
0.57718815
0.57718763
0.5771273
0.57707285
0.011068178
0.29778125
0.47227215
0.52005229
0.52973818
0.5302521
0.52993616
0.53107554
0.53255802
0.53404171
0.53552165
0.53696565
0.53838669
0.53979376
0.54119756
0.54260802
0.54402652
0.54545359
0.54688898
0.54833169
0.54978025
0.55123285
0.55268747
0.554142
0.55559423
0.55704197
0.55848303
0.55991526
0.56133657
0.56274491
0.5641383
0.56551478
0.56687246
0.56820946
0.56952394
0.57081409
0.57207809
0.57331415
0.57452047
0.57569526
0.5768367
0.577943
0.57901235
0.58004292
0.5810329
0.58198049
0.58288389
0.58374133
0.58455109
0.5853115
0.58602097
0.58667805
0.5872814
0.58782988
0.58832254
0.58875863
0.58913768
0.58945934
0.58972352
0.58993
0.59007819
0.59016768
0.59019822
0.59016941
0.59007965
0.58992758
0.58970723
0.58942018
0.58904715
0.58861435
0.58804974
0.58748015
0.58664247
0.58599298
0.58473644
0.58420467
0.58235802
0.58212247
0.57982047
0.57974238
0.064776985
0.38568528
0.52261457
0.54755235
0.5483824
0.54657064
0.54572212
0.54586797
0.54607365
0.54638081
0.54677382
0.54733243
0.54801138
0.5487811
0.54961328
0.55050461
0.55144835
0.55244003
0.55347426
0.55454584
0.55565004
0.55678238
0.55793865
0.55911486
0.56030723
0.56151214
0.56272614
0.56394593
0.56516835
0.56639035
0.56760898
0.56882141
0.57002489
0.57121673
0.57239435
0.5735552
0.57469681
0.57581673
0.57691258
0.57798201
0.57902272
0.58003243
0.5810089
0.58194991
0.58285332
0.583717
0.58453887
0.58531693
0.58604926
0.58673403
0.58736952
0.58795419
0.58848666
0.58896575
0.58939051
0.58976021
0.59007442
0.59033284
0.59053545
0.59068203
0.59077209
0.5908053
0.59078153
0.59070037
0.59056035
0.5903599
0.59009361
0.58976205
0.58934835
0.58887444
0.58827691
0.58766662
0.58680811
0.58611804
0.584858
0.58428319
0.58244119
0.5821946
0.57982136
0.57986672
0.15062914
0.46677622
0.54219805
0.55492634
0.55355278
0.55263125
0.55262746
0.5531919
0.55361076
0.5541383
0.55464594
0.55521555
0.55580534
0.55643675
0.55710141
0.55780386
0.55854015
0.55931067
0.56011389
0.5609481
0.56181151
0.56270216
0.56361796
0.56455666
0.56551586
0.5664931
0.56748581
0.56849133
0.56950695
0.57052994
0.5715575
0.57258682
0.57361509
0.57463948
0.57565717
0.57666534
0.57766119
0.57864194
0.57960484
0.58054715
0.58146618
0.58235927
0.58322381
0.58405723
0.58485702
0.58562075
0.58634606
0.58703067
0.58767243
0.58826931
0.58881944
0.58932115
0.58977296
0.59017363
0.59052217
0.59081784
0.59106019
0.59124897
0.59138416
0.59146558
0.59149276
0.59146545
0.59138358
0.59124677
0.59105359
0.59080235
0.59048797
0.5901104
0.58965435
0.58913892
0.58850626
0.58785679
0.58697372
0.58624756
0.58497729
0.58436602
0.58252074
0.58226475
0.5798344
0.57997425
0.23312944
0.51378076
0.55585742
0.56332715
0.56066217
0.56090822
0.56096913
0.56157137
0.56184612
0.5623017
0.56267962
0.56313787
0.5635988
0.56409142
0.56460135
0.56513647
0.56569411
0.56627646
0.56688338
0.56751482
0.56817046
0.5688498
0.56955209
0.57027637
0.57102143
0.57178585
0.57256804
0.57336619
0.57417833
0.57500232
0.57583588
0.57667661
0.57752199
0.57836938
0.5792161
0.58005936
0.58089633
0.58172415
0.58253992
0.58334074
0.58412368
0.58488586
0.58562441
0.5863365
0.58701936
0.58767029
0.58828669
0.58886606
0.58940603
0.58990439
0.59035914
0.59076846
0.59113078
0.59144481