/*--------------------------------*- C++ -*----------------------------------*\
  =========                 |
  \\      /  F ield         | OpenFOAM: The Open Source CFD Toolbox
   \\    /   O peration     | Website:  https://openfoam.org
    \\  /    A nd           | Version:  12
     \\/     M anipulation  |
\*---------------------------------------------------------------------------*/
FoamFile
{
    format      ascii;
    class       surfaceScalarField;
    location    "0.107";
    object      phi;
}
// * * * * * * * * * * * * * * * * * * * * * * * * * * * * * * * * * * * * * //

dimensions      [1 0 -1 0 0 0 0];

internalField   nonuniform List<scalar> 
31760
(
-0.00064030643
-0.050948055
0.051588376
-0.0016067546
-0.064406888
0.065373448
-0.0026039558
-0.063046161
0.06404226
-0.003625376
-0.068718127
0.069739552
-0.0047023019
-0.070395081
0.07147193
-0.0058076713
-0.074666252
0.075771553
-0.0069833643
-0.077600175
0.078775726
-0.0081980987
-0.081612961
0.08282753
-0.0094734281
-0.085242325
0.086517453
-0.010807679
-0.089366869
0.090700889
-0.012197727
-0.093508208
0.094897996
-0.013655314
-0.097927416
0.09938472
-0.015175081
-0.10251127
0.10403072
-0.016765287
-0.10732197
0.10891184
-0.018425515
-0.11234827
0.11400814
-0.020160513
-0.11760685
0.11934147
-0.021972944
-0.1231058
0.12491783
-0.023866009
-0.12885656
0.13074921
-0.025842945
-0.13487017
0.13684667
-0.027907148
-0.14115792
0.14322166
-0.030062049
-0.14773223
0.14988665
-0.032311405
-0.1546051
0.15685396
-0.034658805
-0.16179015
0.16413703
-0.037108151
-0.1693011
0.17174991
-0.039662409
-0.17715253
0.17970622
-0.042326155
-0.18535856
0.18802173
-0.045103275
-0.19393548
0.19671201
-0.047997186
-0.20289993
0.20579323
-0.051011372
-0.21226887
0.21528243
-0.05414987
-0.2220604
0.22519827
-0.057415972
-0.23229352
0.23555898
-0.060812998
-0.24298808
0.24638446
-0.064343743
-0.25416562
0.25769572
-0.068011239
-0.26584732
0.26951418
-0.071817457
-0.27805733
0.28186293
-0.075764039
-0.29082
0.29476597
-0.079852292
-0.30416111
0.30824878
-0.084082665
-0.31810847
0.32233829
-0.088454942
-0.33269016
0.33706193
-0.092967771
-0.34793773
0.35245011
-0.097619109
-0.36388307
0.36853403
-0.10240549
-0.38056007
0.38534616
-0.10732224
-0.39800494
0.40292152
-0.11236352
-0.41625568
0.42129692
-0.11752154
-0.43535282
0.44051098
-0.1227871
-0.45533819
0.4606041
-0.12814861
-0.47625686
0.48161896
-0.13359311
-0.4981554
0.50360079
-0.13910507
-0.52108406
0.52659726
-0.14466618
-0.54509479
0.55065754
-0.15025539
-0.57024211
0.57583344
-0.1558492
-0.59658413
0.60218064
-0.16142028
-0.62418119
0.62975564
-0.16693769
-0.65309682
0.65861839
-0.17236702
-0.68339737
0.68883176
-0.17766841
-0.71515313
0.72046064
-0.18279787
-0.74843681
0.75357361
-0.1877061
-0.78332456
0.78824156
-0.19233686
-0.81989635
0.82453751
-0.19662812
-0.85823507
0.86253863
-0.20050995
-0.89842687
0.9023232
-0.20390464
-0.94056095
0.94397268
-0.20672494
-0.98473022
0.9875705
-0.20887359
-1.0310307
1.0332027
-0.21024187
-1.0795603
1.0809557
-0.21070897
-1.1304212
1.1309197
-0.21013874
-1.1837181
1.183184
-0.20838556
-1.239558
1.2378458
-0.20528194
-1.2980563
1.2949988
-0.20063955
-1.3593295
1.3547381
-0.19425429
-1.4234958
1.4171659
-0.18590474
-1.490677
1.4823864
-0.17533722
-1.5610107
1.5505043
-0.16228455
-1.63465
1.621659
-0.14642781
-1.7117871
1.6959909
-0.12754752
-1.7925812
1.773758
-0.10482409
-1.8772103
1.8545394
-0.079079234
-1.9662289
1.9405481
-0.047624845
-2.0577494
2.0263332
-2.1567887
2.1220386
-0.00063551701
-0.050312901
-0.0015064672
-0.063536188
-0.0024083676
-0.062142271
-0.0033700114
-0.067756896
-0.0043428038
-0.069422664
-0.0053931972
-0.073616217
-0.0064589785
-0.076534742
-0.0076050273
-0.080467255
-0.008777141
-0.084070547
-0.010023886
-0.088120458
-0.011313848
-0.092218579
-0.012671494
-0.096570106
-0.014086834
-0.10109627
-0.015568951
-0.1058402
-0.017118032
-0.11079954
-0.018738239
-0.11598701
-0.020431761
-0.12141265
-0.022202378
-0.12708633
-0.024053313
-0.13301963
-0.025988157
-0.13922349
-0.028010572
-0.14571024
-0.030123822
-0.15249229
-0.032332016
-0.1595824
-0.034638851
-0.16699473
-0.037049134
-0.17474272
-0.039565681
-0.1828425
-0.042193195
-0.19130847
-0.04493542
-0.20015822
-0.047796646
-0.20940816
-0.050780453
-0.21907712
-0.053890931
-0.22918357
-0.05713142
-0.23974811
-0.060505234
-0.25079232
-0.064015372
-0.26233769
-0.067664268
-0.27440892
-0.071454258
-0.28703047
-0.07538652
-0.30022928
-0.07946257
-0.31403281
-0.083681762
-0.3284713
-0.088043697
-0.34357606
-0.09254678
-0.35938017
-0.097187913
-0.37591903
-0.10196273
-0.39323008
-0.10686617
-0.41135206
-0.11189114
-0.43032749
-0.11702908
-0.45019966
-0.12226978
-0.47101533
-0.12760059
-0.49282345
-0.13300725
-0.51567591
-0.1384732
-0.53962692
-0.14397908
-0.5647338
-0.14950286
-0.59105732
-0.15501936
-0.61866098
-0.16050031
-0.64761134
-0.16591367
-0.67797853
-0.17122321
-0.70983702
-0.17638853
-0.74326363
-0.18136421
-0.77833956
-0.18609905
-0.81515048
-0.19053637
-0.85378474
-0.19461231
-0.89433564
-0.19825568
-0.93689964
-0.20138649
-0.98157841
-0.20391667
-1.028476
-0.20574664
-1.0777018
-0.20676712
-1.1293678
-0.20685244
-1.1835951
-0.20586716
-1.2405004
-0.20365985
-1.3002156
-0.20006047
-1.3628757
-0.19488286
-1.4286156
-0.18791841
-1.4975799
-0.17893967
-1.5699254
-0.16769328
-1.6458315
-0.15391464
-1.7255015
-0.1372962
-1.8091389
-0.11742549
-1.8970222
-0.094315822
-1.9892753
-0.066569129
-2.0854519
-2.1879096
-0.00057482117
-0.049738318
-0.0013877454
-0.062723505
-0.0021973999
-0.061333565
-0.0031032361
-0.066851265
-0.0039984264
-0.06852768
-0.0049801459
-0.072634706
-0.0059634048
-0.075551701
-0.0070302435
-0.079400641
-0.0081163696
-0.082984653
-0.0092754202
-0.086961649
-0.010474398
-0.091019851
-0.011737435
-0.095307331
-0.01305553
-0.099778442
-0.014436971
-0.10445904
-0.015882432
-0.10935437
-0.017395515
-0.11447423
-0.01897957
-0.11982891
-0.020637554
-0.12542867
-0.02237374
-0.13128378
-0.024190957
-0.13740662
-0.026093695
-0.14380786
-0.028085483
-0.15050087
-0.030170202
-0.15749806
-0.032352645
-0.16481268
-0.034636082
-0.17245968
-0.037025732
-0.18045326
-0.039525046
-0.18880957
-0.042139099
-0.19754458
-0.044871449
-0.20667623
-0.047727252
-0.21622173
-0.05070962
-0.22620161
-0.053822889
-0.23663524
-0.05707087
-0.24754473
-0.060456255
-0.25895267
-0.063982642
-0.27088288
-0.067652207
-0.28336121
-0.071467196
-0.29641456
-0.075428134
-0.3100721
-0.079536046
-0.32436355
-0.083790428
-0.33932177
-0.088189504
-0.35498109
-0.092731169
-0.37137724
-0.097412065
-0.38854893
-0.10222675
-0.40653696
-0.10716925
-0.42538437
-0.11223162
-0.44513645
-0.11740468
-0.46584116
-0.12267655
-0.48755014
-0.12803476
-0.51031589
-0.13346371
-0.5341957
-0.13894533
-0.5592494
-0.1444603
-0.58553895
-0.14998542
-0.61313172
-0.15549491
-0.64209686
-0.16095972
-0.67250774
-0.16634708
-0.70444253
-0.17162056
-0.73798167
-0.1767382
-0.77321189
-0.18165474
-0.81022212
-0.18631794
-0.84910765
-0.19067058
-0.88996669
-0.19464784
-0.9329033
-0.19817828
-0.97802568
-0.20118112
-1.0254472
-0.20356648
-1.0752864
-0.20523324
-1.1276663
-0.20607318
-1.1827154
-0.20596006
-1.2405685
-0.2047537
-1.3013714
-0.20230467
-1.365269
-0.19843767
-1.4324221
-0.19296868
-1.5029845
-0.18568475
-1.5771423
-0.17636079
-1.6550872
-0.16474842
-1.7370464
-0.15055787
-1.8232645
-0.1335006
-1.9140148
-0.11332208
-2.0093871
-0.089253323
-2.1094691
-2.2152925
-0.00051841649
-0.049220078
-0.0012705897
-0.061971466
-0.0020080383
-0.060596337
-0.0028612049
-0.065998248
-0.0036900136
-0.067699048
-0.0046048317
-0.071720061
-0.005511006
-0.074645714
-0.0065042577
-0.07840758
-0.0075100446
-0.081979068
-0.0085880848
-0.085883819
-0.0097029336
-0.08990522
-0.010878951
-0.094131542
-0.012108135
-0.098549494
-0.013397782
-0.10316964
-0.01474957
-0.10800283
-0.016167278
-0.11305678
-0.01765421
-0.11834225
-0.019213758
-0.1238694
-0.0208494
-0.12964843
-0.022565499
-0.13569082
-0.024365233
-0.14200843
-0.02625368
-0.14861274
-0.028234758
-0.1555173
-0.030312466
-0.1627353
-0.032491972
-0.1702805
-0.034777242
-0.17816832
-0.037173324
-0.18641381
-0.039684574
-0.19503366
-0.042316455
-0.20404467
-0.045072336
-0.21346617
-0.047957359
-0.22331689
-0.050975898
-0.23361699
-0.054131655
-0.24438924
-0.05742852
-0.25565605
-0.060869908
-0.2674417
-0.06445828
-0.27977301
-0.068195857
-0.29267711
-0.072084558
-0.30618346
-0.076124739
-0.32032336
-0.080316451
-0.33512996
-0.084659101
-0.35063824
-0.089150026
-0.36688599
-0.093786439
-0.38391204
-0.098564
-0.40175875
-0.10347681
-0.4204707
-0.10851842
-0.44009373
-0.11367919
-0.46067901
-0.11895025
-0.48227735
-0.12431889
-0.50494512
-0.12977156
-0.52874043
-0.1352927
-0.55372509
-0.14086381
-0.57996402
-0.14646476
-0.60752619
-0.15207281
-0.63648333
-0.15766101
-0.66691301
-0.16320116
-0.69889464
-0.16865992
-0.73251375
-0.17400063
-0.76786039
-0.17918231
-0.80502776
-0.18415874
-0.84411634
-0.18887847
-0.88522955
-0.19328384
-0.92847758
-0.1973108
-0.973975
-0.20088713
-1.0218433
-0.2039324
-1.0722092
-0.20635872
-1.1252033
-0.2080607
-1.1809714
-0.20893227
-1.2396493
-0.20884445
-1.301406
-0.20766363
-1.3663911
-0.20523478
-1.4347874
-0.20137941
-1.5067723
-0.19591838
-1.5825329
-0.18863917
-1.6622946
-0.17932073
-1.7462935
-0.16770708
-1.8348086
-0.15353813
-1.9281134
-0.13651594
-2.0263375
-0.11614766
-2.1297762
-2.2387903
-0.00046292764
-0.048757332
-0.0011676574
-0.061266876
-0.0018277507
-0.059936323
-0.0026246625
-0.065201486
-0.0033793959
-0.066944494
-0.0042360983
-0.070863544
-0.0050751706
-0.073806821
-0.0060027018
-0.077480228
-0.006936886
-0.081045068
-0.0079416798
-0.084879216
-0.0089820528
-0.088865043
-0.010081073
-0.093032724
-0.011232885
-0.097397889
-0.01244369
-0.10195905
-0.01371588
-0.10673086
-0.015052571
-0.11172032
-0.01645753
-0.11693752
-0.017934548
-0.12239262
-0.019487327
-0.12809589
-0.021119914
-0.13405848
-0.022837032
-0.14029156
-0.024642044
-0.14680798
-0.026540477
-0.15361913
-0.028536933
-0.1607391
-0.030635948
-0.16818174
-0.032842821
-0.1759617
-0.035162778
-0.18409411
-0.037600783
-0.1925959
-0.040161785
-0.2014839
-0.042851017
-0.21077716
-0.045673384
-0.22049473
-0.048633394
-0.23065717
-0.051735438
-0.24128735
-0.054983911
-0.2524077
-0.05838201
-0.26404369
-0.061932864
-0.2762222
-0.065639016
-0.28897093
-0.069502411
-0.30231997
-0.073523843
-0.31630175
-0.077703747
-0.33094978
-0.082041116
-0.34630048
-0.08653482
-0.36239175
-0.091181611
-0.37926455
-0.095977847
-0.39696162
-0.10091911
-0.41552833
-0.10599845
-0.43501301
-0.1112087
-0.45546707
-0.11654077
-0.47694322
-0.121984
-0.49949941
-0.12752688
-0.52319457
-0.13315498
-0.54809341
-0.13885291
-0.57426182
-0.14460269
-0.60177133
-0.15038402
-0.63069597
-0.15617462
-0.66111527
-0.16194875
-0.6931121
-0.16767725
-0.72677533
-0.17332887
-0.76219713
-0.17886704
-0.79947594
-0.18425191
-0.8387155
-0.18943784
-0.88002495
-0.19437446
-0.92351919
-0.1990049
-0.96931922
-0.20326603
-1.0175528
-0.20708694
-1.0683543
-0.21038698
-1.1218642
-0.21308082
-1.178233
-0.21506247
-1.2376174
-0.21623083
-1.3001814
-0.21645141
-1.3661086
-0.21559419
-1.4355775
-0.2135029
-1.5087923
-0.21000842
-1.5859531
-0.20492643
-1.6673009
-0.1980537
-1.7530908
-0.18916431
-1.8436236
-0.1780292
-1.939172
-0.16435546
-2.0399342
-0.14778479
-2.1462753
-2.2582066
-0.00041290256
-0.048344593
-0.0010763321
-0.060603575
-0.0016733396
-0.059339482
-0.0024119235
-0.064463041
-0.0030906544
-0.066265919
-0.0038957374
-0.070058641
-0.0046679158
-0.073034796
-0.0055357621
-0.076612536
-0.006406511
-0.080174478
-0.0073492447
-0.083936647
-0.0083289624
-0.087885493
-0.0093652851
-0.091996576
-0.010454625
-0.096308727
-0.011601664
-0.10081219
-0.012809236
-0.10552348
-0.014081208
-0.11044854
-0.015421086
-0.11559784
-0.016832749
-0.12098116
-0.018320699
-0.12660814
-0.019888933
-0.13249045
-0.021542549
-0.13863815
-0.023286369
-0.14506437
-0.025125539
-0.15178016
-0.027065177
-0.15879966
-0.029110905
-0.16613621
-0.031268548
-0.17380425
-0.033542854
-0.18181998
-0.035940145
-0.19019877
-0.038465736
-0.19895846
-0.041125027
-0.208118
-0.043923626
-0.21769624
-0.046866134
-0.22771474
-0.049957969
-0.23819556
-0.053202455
-0.24916322
-0.056604129
-0.26064197
-0.06016636
-0.27265986
-0.063891384
-0.28524574
-0.067781231
-0.29842987
-0.071837495
-0.31224514
-0.076060293
-0.32672652
-0.080449578
-0.3419106
-0.085003406
-0.35783718
-0.089720113
-0.37454692
-0.09459652
-0.39208407
-0.099627632
-0.41049583
-0.10480844
-0.42983053
-0.11013327
-0.45014023
-0.11559334
-0.47148076
-0.12118078
-0.49390911
-0.12688428
-0.51748767
-0.1326933
-0.54228037
-0.13859393
-0.56835642
-0.14457123
-0.59578841
-0.15060818
-0.62465239
-0.15668553
-0.65503011
-0.16278163
-0.68700683
-0.16887284
-0.72067336
-0.17493122
-0.75612615
-0.18092644
-0.79346599
-0.18682362
-0.83280112
-0.19258475
-0.87424376
-0.19816606
-0.91791453
-0.20351891
-0.96393922
-0.20858834
-1.0124519
-0.21331274
-1.0635936
-0.21762279
-1.1175125
-0.22144104
-1.1743673
-0.22468307
-1.2343219
-0.22724629
-1.2975586
-0.22902865
-1.3642607
-0.22990375
-1.4346315
-0.2297376
-1.5088831
-0.22838045
-1.5872318
-0.22566647
-1.6699347
-0.22141624
-1.7572609
-0.21543514
-1.8495247
-0.20750633
-1.9470176
-0.19737922
-2.049978
-0.18476352
-2.1588083
-2.2733166
-0.00037024904
-0.047974495
-0.0010026005
-0.059971338
-0.001544478
-0.058797735
-0.002235361
-0.063772281
-0.0028543343
-0.065647087
-0.0036114849
-0.06930167
-0.0043275782
-0.072318832
-0.0051337355
-0.075806518
-0.005962419
-0.079345934
-0.006858603
-0.083040608
-0.0077919301
-0.086952313
-0.0087783262
-0.091010332
-0.0098174162
-0.095269789
-0.010913243
-0.099716521
-0.012069856
-0.10436702
-0.01329074
-0.10922782
-0.014580751
-0.11430799
-0.015943987
-0.11961809
-0.017385249
-0.12516704
-0.018909941
-0.13096592
-0.020522671
-0.13702558
-0.022229659
-0.14335753
-0.024036128
-0.14997384
-0.025947785
-0.15688815
-0.027971002
-0.16411313
-0.030111437
-0.17166394
-0.032375998
-0.17955552
-0.034770268
-0.18780459
-0.037300003
-0.19642879
-0.039971839
-0.20544621
-0.042790811
-0.21487728
-0.045762541
-0.22474299
-0.048891741
-0.2350663
-0.05218357
-0.24587128
-0.055641121
-0.25718424
-0.059268108
-0.26903264
-0.063067687
-0.28144584
-0.067041587
-0.29445556
-0.071190976
-0.30809523
-0.075516546
-0.3224003
-0.080018298
-0.33740805
-0.084695025
-0.35315948
-0.089545214
-0.36969556
-0.094565751
-0.38706214
-0.099753768
-0.40530615
-0.10510477
-0.42447755
-0.11061335
-0.44462931
-0.11627407
-0.46581728
-0.12207899
-0.48810093
-0.12802078
-0.51154206
-0.13408944
-0.5362072
-0.14027471
-0.56216587
-0.14656494
-0.58949196
-0.15294609
-0.61826395
-0.15940307
-0.64856459
-0.16591815
-0.68048177
-0.17247212
-0.71410771
-0.17904265
-0.74954199
-0.18560452
-0.78688821
-0.19212985
-0.82625724
-0.19858616
-0.86776586
-0.20493775
-0.91153783
-0.21114358
-0.95770426
-0.21715784
-1.0064039
-0.22292871
-1.0577839
-0.22839707
-1.1119997
-0.23349714
-1.1692168
-0.23815581
-1.2296063
-0.24228713
-1.293364
-0.24579762
-1.3606807
-0.24858597
-1.431768
-0.25053105
-1.5068583
-0.25150004
-1.5861796
-0.25135507
-1.6699946
-0.24993376
-1.7585967
-0.24706667
-1.8523053
-0.24256826
-1.951425
-0.23620761
-2.0562476
-0.22775492
-2.1671663
-2.2838749
-0.00032723349
-0.0476474
-0.00093403465
-0.059364641
-0.0014265507
-0.058305337
-0.0020712465
-0.063127696
-0.0026454329
-0.065073024
-0.0033738567
-0.068573407
-0.0040563897
-0.071636419
-0.0048467929
-0.075016237
-0.0056356864
-0.078557161
-0.0064856476
-0.082190771
-0.0073765812
-0.086061504
-0.0083199144
-0.090067127
-0.0093181448
-0.094271687
-0.010374701
-0.098660096
-0.01149402
-0.10324783
-0.012680686
-0.10804128
-0.013938658
-0.11305014
-0.015273926
-0.11828295
-0.016691324
-0.12374977
-0.018196541
-0.12946082
-0.019795426
-0.13542681
-0.021493996
-0.14165907
-0.023298573
-0.14816936
-0.025216417
-0.15497039
-0.027253015
-0.1620766
-0.029415876
-0.16950113
-0.03171116
-0.17726028
-0.034145722
-0.18537004
-0.036726095
-0.1938484
-0.039458364
-0.20271389
-0.042348288
-0.21198727
-0.045401634
-0.22168951
-0.048623558
-0.2318442
-0.05201814
-0.24247646
-0.055589648
-0.25361243
-0.059341619
-0.26528028
-0.063276266
-0.27751071
-0.067395888
-0.29033535
-0.071701866
-0.30378854
-0.076194819
-0.3179065
-0.080874643
-0.33272722
-0.085741391
-0.34829154
-0.090793044
-0.36464249
-0.096028108
-0.38182541
-0.10144416
-0.39988813
-0.10703795
-0.41888146
-0.11280596
-0.43885861
-0.11874396
-0.45987614
-0.12484682
-0.48199439
-0.13110881
-0.50527576
-0.13752363
-0.52978735
-0.14408322
-0.55560041
-0.15077925
-0.58278908
-0.15760168
-0.61143353
-0.16453947
-0.64161746
-0.17157989
-0.67343045
-0.17870779
-0.70696712
-0.18590653
-0.74232846
-0.19315705
-0.77962049
-0.20043733
-0.81895695
-0.20772236
-0.86045756
-0.21498368
-0.9042495
-0.22218851
-0.95046814
-0.22930026
-0.99925606
-0.23627621
-1.0507664
-0.24306909
-1.1051593
-0.24962414
-1.1626078
-0.25587859
-1.2232913
-0.26176451
-1.2874108
-0.26720654
-1.3551649
-0.27210708
-1.4267878
-0.27637458
-1.5025061
-0.27989082
-1.5825749
-0.28253644
-1.6672582
-0.28417781
-1.7568635
-0.28467275
-1.8517167
-0.28385757
-1.9521409
-0.28153108
-2.0584745
-0.27750327
-2.1710861
-2.2896171
-0.00028536068
-0.047362163
-0.00087306817
-0.058777025
-0.0013247885
-0.05785372
-0.0019462666
-0.062506315
-0.0024982419
-0.064521152
-0.0032015457
-0.06787024
-0.0038567376
-0.070981329
-0.0046234757
-0.074249597
-0.0053823403
-0.077798398
-0.0061998554
-0.08137336
-0.0070635683
-0.085197893
-0.0079802055
-0.089150595
-0.00895465
-0.093297345
-0.0099903358
-0.097624514
-0.011092343
-0.10214592
-0.012265513
-0.10686821
-0.013515517
-0.11180023
-0.014847779
-0.11695078
-0.016268314
-0.12232931
-0.017783909
-0.1279453
-0.01940061
-0.13381017
-0.021125962
-0.13993378
-0.022966348
-0.14632902
-0.024929177
-0.15300759
-0.027022043
-0.15998374
-0.029251749
-0.16727141
-0.031625841
-0.17488615
-0.034151204
-0.18284462
-0.036834291
-0.19116522
-0.039681923
-0.19986612
-0.042700175
-0.20896883
-0.045894118
-0.21849534
-0.049268645
-0.22846938
-0.052828577
-0.23891617
-0.056577608
-0.24986296
-0.060518522
-0.26133883
-0.064654239
-0.27337436
-0.068986665
-0.28600217
-0.073516889
-0.29925743
-0.078246043
-0.3131763
-0.083174187
-0.32779785
-0.088301057
-0.34316323
-0.093626444
-0.35931543
-0.099149761
-0.37630014
-0.10486939
-0.39416623
-0.110784
-0.41296423
-0.11689157
-0.43274798
-0.12318999
-0.45357416
-0.12967684
-0.47550341
-0.13634868
-0.49859913
-0.14320228
-0.52292817
-0.15023346
-0.54856275
-0.15743702
-0.57557797
-0.16480756
-0.60405422
-0.17233796
-0.63407687
-0.18002034
-0.66573622
-0.18784463
-0.69912906
-0.19580045
-0.73435663
-0.20387421
-0.77152813
-0.21205053
-0.81075902
-0.22031194
-0.85217107
-0.22863763
-0.89589475
-0.23700367
-0.94206849
-0.24538169
-0.99083929
-0.25374049
-1.0423632
-0.26204252
-1.0968066
-0.27024642
-1.1543465
-0.2783012
-1.2151721
-0.28615363
-1.2794869
-0.29373694
-1.3475033
-0.30098341
-1.4194568
-0.30780982
-1.4955898
-0.31412448
-1.5761661
-0.31982193
-1.6614636
-0.32479458
-1.751792
-0.32892648
-1.8474826
-0.3320779
-1.9488809
-0.33408906
-2.0563542
-0.33478607
-2.1702666
-2.2902217
-0.00024663594
-0.047115637
-0.0008227833
-0.058200957
-0.0012441431
-0.057432449
-0.0018898333
-0.061860708
-0.0024264604
-0.06398461
-0.0031093751
-0.067187426
-0.0037413432
-0.070349444
-0.0044655973
-0.073525428
-0.0052104606
-0.077053615
-0.0060118376
-0.080572065
-0.0068652415
-0.084344568
-0.0077734987
-0.088242418
-0.0087437446
-0.092327174
-0.0097799135
-0.09658842
-0.010887761
-0.10103815
-0.012073055
-0.10568298
-0.013342033
-0.11053131
-0.014701392
-0.11559147
-0.016157927
-0.12087282
-0.017718362
-0.1263849
-0.019391331
-0.13213722
-0.021183297
-0.13814182
-0.023103137
-0.14440916
-0.025158147
-0.15095255
-0.027356164
-0.15778567
-0.029705291
-0.16492221
-0.032212935
-0.17237839
-0.03488607
-0.18017133
-0.037732096
-0.188319
-0.040756992
-0.19684099
-0.043966342
-0.2057592
-0.047365797
-0.21509554
-0.050959783
-0.22487498
-0.054752495
-0.23512296
-0.058747217
-0.24586766
-0.062946766
-0.25713861
-0.067353383
-0.26896695
-0.071968781
-0.28138585
-0.076794716
-0.29443042
-0.081831878
-0.30813789
-0.087081189
-0.32254708
-0.092543427
-0.33769932
-0.098219071
-0.35363785
-0.10410813
-0.37040885
-0.11021145
-0.38806033
-0.11652953
-0.40664317
-0.12306234
-0.42621173
-0.12981034
-0.44682219
-0.13677373
-0.46853542
-0.14395275
-0.49141479
-0.15134669
-0.51552808
-0.15895581
-0.54094649
-0.16677872
-0.5677468
-0.17481398
-0.59600938
-0.18305967
-0.62582008
-0.19151261
-0.65727041
-0.20016904
-0.69045768
-0.20902344
-0.72548491
-0.21806941
-0.76246207
-0.22729868
-0.80150644
-0.23670038
-0.84274238
-0.24626234
-0.88630155
-0.2559692
-0.93232559
-0.26580298
-0.98096403
-0.2757416
-1.032377
-0.28575939
-1.0867347
-0.29582578
-1.144219
-0.30590636
-1.2050231
-0.31595808
-1.2693593
-0.32593461
-1.3374437
-0.33578392
-1.4095177
-0.34543594
-1.4858422
-0.35482336
-1.5666782
-0.36386426
-1.6523186
-0.37247438
-1.7430749
-0.38055599
-1.8392894
-0.38800629
-1.9413118
-0.39469218
-2.0495484
-0.40047626
-2.164345
-2.2853337
-0.00021247871
-0.046903256
-0.00078907974
-0.057624424
-0.0011873535
-0.05703425
-0.0018498834
-0.061198244
-0.0023638445
-0.063470716
-0.003039682
-0.066511642
-0.0036645906
-0.069724599
-0.0043833416
-0.072806741
-0.0051305694
-0.076306449
-0.0059320601
-0.079770636
-0.0067930025
-0.083483683
-0.0077135079
-0.087321969
-0.0087020463
-0.091338686
-0.0097634333
-0.09552708
-0.010904336
-0.099897281
-0.012131475
-0.10445588
-0.01345203
-0.10921078
-0.014873343
-0.11417017
-0.016403853
-0.11934231
-0.018051494
-0.12473725
-0.019824544
-0.13036414
-0.021731929
-0.13623438
-0.023781798
-0.14235923
-0.025982873
-0.14875138
-0.028343879
-0.15542455
-0.030872225
-0.16239371
-0.033575756
-0.16967467
-0.036461774
-0.17728509
-0.03953704
-0.18524346
-0.042806795
-0.19357091
-0.046277473
-0.20228813
-0.049952928
-0.21141963
-0.053837938
-0.22098943
-0.057935274
-0.23102501
-0.062247745
-0.24155447
-0.066778277
-0.25260724
-0.071528776
-0.26421549
-0.076500759
-0.27641276
-0.081695947
-0.28923396
-0.087116128
-0.30271624
-0.092762799
-0.31689874
-0.098637734
-0.33182245
-0.10474259
-0.34753079
-0.11107993
-0.36406896
-0.1176521
-0.38148525
-0.12446146
-0.39983047
-0.13151164
-0.4191577
-0.13880514
-0.43952427
-0.14634595
-0.46098951
-0.15413743
-0.48361745
-0.16218341
-0.50747532
-0.17048684
-0.53263526
-0.17905156
-0.55917305
-0.18788096
-0.58716955
-0.1969776
-0.61671136
-0.20634398
-0.64789006
-0.21598221
-0.68080328
-0.22589306
-0.71555534
-0.23607659
-0.75225686
-0.24653142
-0.79102653
-0.25725586
-0.83198893
-0.26824496
-0.87527896
-0.27949284
-0.92103912
-0.2909912
-0.96942137
-0.30272896
-1.0205886
-0.3146921
-1.074714
-0.32686324
-1.131983
-0.33921887
-1.1925949
-0.35173563
-1.2567622
-0.3643808
-1.3247105
-0.37711328
-1.3966901
-0.3898975
-1.4729563
-0.40267428
-1.5537942
-0.41538559
-1.6394955
-0.42796764
-1.7303769
-0.44036134
-1.8267733
-0.4524791
-1.9290637
-0.46423036
-2.0376647
-0.47549961
-2.1529218
-2.2745391
-0.00019131476
-0.046712026
-0.00078745258
-0.057028342
-0.0011821522
-0.056639611
-0.0018371501
-0.060543299
-0.0023443904
-0.062963528
-0.0030222157
-0.065833873
-0.0036622873
-0.069084575
-0.0043880156
-0.072081059
-0.0051569676
-0.075537538
-0.0059797759
-0.078947868
-0.0068700976
-0.082593395
-0.007827145
-0.086364953
-0.0088604887
-0.090305365
-0.0099762041
-0.094411384
-0.011182012
-0.098691481
-0.012485814
-0.10315208
-0.013896061
-0.10780052
-0.015421602
-0.11264461
-0.017071076
-0.1176928
-0.018854448
-0.12295382
-0.020780532
-0.12843798
-0.022859008
-0.13415581
-0.025098705
-0.14011941
-0.027508733
-0.1463412
-0.030097612
-0.15283548
-0.032873406
-0.15961769
-0.035843123
-0.16670469
-0.039013889
-0.17411401
-0.042391148
-0.18186584
-0.045980884
-0.18998075
-0.049786882
-0.19848164
-0.053813266
-0.20739267
-0.058063319
-0.21673873
-0.062539594
-0.22654798
-0.067244526
-0.23684867
-0.072180318
-0.24767046
-0.077348624
-0.25904606
-0.082751869
-0.27100822
-0.088391958
-0.2835924
-0.094271586
-0.29683494
-0.10039362
-0.31077479
-0.1067614
-0.32545249
-0.11337907
-0.34091063
-0.12025087
-0.35719432
-0.12738164
-0.37435124
-0.13477732
-0.39243107
-0.14244374
-0.41148703
-0.15038754
-0.43157559
-0.15861547
-0.45275599
-0.16713504
-0.47509144
-0.17595381
-0.49864915
-0.18508029
-0.52350026
-0.19452221
-0.5497213
-0.20428798
-0.57739244
-0.21438541
-0.60660085
-0.22482336
-0.637437
-0.23560908
-0.6700001
-0.24675031
-0.70439394
-0.25825426
-0.74072959
-0.2701276
-0.77912624
-0.28237566
-0.81970978
-0.29500326
-0.86261553
-0.30801377
-0.90798742
-0.321409
-0.95597896
-0.33518931
-1.0067545
-0.34935257
-1.0604898
-0.3638939
-1.117373
-0.37880522
-1.1776068
-0.39407891
-1.2414035
-0.40969424
-1.3090021
-0.42563755
-1.3806459
-0.44187945
-1.4566064
-0.45839287
-1.5371663
-0.47514409
-1.6226242
-0.49208924
-1.7133059
-0.50918812
-1.8095405
-0.52639159
-1.9117171
-0.54365381
-2.0202553
-0.56087204
-2.1355296
-2.2573763
-0.00017263049
-0.046539467
-0.00079737297
-0.056403644
-0.0011984977
-0.056238535
-0.0018644518
-0.059877386
-0.0023841785
-0.062443839
-0.0030770689
-0.065141016
-0.0037473402
-0.068414334
-0.00449632
-0.071332108
-0.0053050804
-0.0747288
-0.0061715326
-0.078081437
-0.0071153008
-0.081649639
-0.0081363384
-0.085343924
-0.0092449694
-0.089196732
-0.010448922
-0.093207423
-0.011757254
-0.097383128
-0.013179315
-0.10172999
-0.014724872
-0.10625492
-0.016404062
-0.11096536
-0.01822718
-0.1158696
-0.020204192
-0.12097671
-0.02234554
-0.12629651
-0.024660859
-0.13184034
-0.027159373
-0.13762071
-0.0298503
-0.14365006
-0.032741441
-0.14994409
-0.035840109
-0.15651873
-0.039153521
-0.16339094
-0.042686546
-0.17058059
-0.046444406
-0.17810752
-0.050431012
-0.18599362
-0.054649766
-0.19426229
-0.059103689
-0.20293807
-0.063794123
-0.21204751
-0.068724286
-0.22161693
-0.073895594
-0.23167636
-0.079309988
-0.24225493
-0.084970354
-0.25338439
-0.090878973
-0.26509814
-0.09704004
-0.27742967
-0.10345735
-0.29041574
-0.11013557
-0.30409443
-0.11708027
-0.31850535
-0.1242982
-0.33368993
-0.13179632
-0.34969306
-0.13958273
-0.36656124
-0.14766644
-0.38434327
-0.15605684
-0.40309196
-0.16476415
-0.42286294
-0.17379961
-0.44371441
-0.18317451
-0.46570953
-0.19290131
-0.4889143
-0.20299194
-0.51340037
-0.21346041
-0.53924218
-0.22431964
-0.56652095
-0.23558406
-0.5953223
-0.24726719
-0.62573758
-0.25938399
-0.65786451
-0.27194862
-0.69180762
-0.28497543
-0.72767777
-0.29847953
-0.7655933
-0.3124744
-0.80568169
-0.32697415
-0.84807759
-0.34199228
-0.89292549
-0.35754137
-0.9403798
-0.37363276
-0.99060619
-0.39027733
-1.0437808
-0.40748436
-1.1000935
-0.42526202
-1.1597483
-0.44361255
-1.2229635
-0.46254008
-1.2899764
-0.4820435
-1.3610359
-0.50212084
-1.4364144
-0.52276328
-1.5164018
-0.54395477
-1.6013038
-0.56568762
-1.6914366
-0.58793729
-1.7871446
-0.61069719
-1.8888012
-0.63395055
-1.9968394
-0.65762858
-2.1116566
-2.2333103
-0.00015851355
-0.046381015
-0.00082528173
-0.05573691
-0.0012399152
-0.055823936
-0.0019357563
-0.059181572
-0.0024856038
-0.061894015
-0.0032068632
-0.064419777
-0.0039278359
-0.067693376
-0.0047213745
-0.070538582
-0.0055929545
-0.073857225
-0.006530232
-0.077144161
-0.00755679
-0.080623072
-0.0086747774
-0.084225923
-0.0098955983
-0.087975884
-0.011229065
-0.091873922
-0.012685781
-0.095926362
-0.014276859
-0.10013884
-0.016013468
-0.10451823
-0.017906885
-0.10907184
-0.019968269
-0.11380809
-0.022208464
-0.11873637
-0.024637612
-0.12386719
-0.027265679
-0.12921207
-0.030101878
-0.13478427
-0.033153758
-0.14059791
-0.036428857
-0.14666867
-0.039933153
-0.15301407
-0.043671514
-0.15965215
-0.047648273
-0.16660335
-0.051866564
-0.17388869
-0.056328727
-0.18153084
-0.061036519
-0.18955379
-0.065992026
-0.19798176
-0.071196699
-0.20684194
-0.076652299
-0.21616032
-0.082361314
-0.2259662
-0.088326424
-0.23628852
-0.094551111
-0.24715824
-0.10104048
-0.25860711
-0.10779895
-0.27066933
-0.11483361
-0.28337898
-0.12215141
-0.29677426
-0.12976172
-0.31089235
-0.13767303
-0.32577556
-0.14589624
-0.34146639
-0.15444339
-0.35801015
-0.16332623
-0.37545596
-0.1725585
-0.39385458
-0.18215477
-0.41326085
-0.19212984
-0.43373268
-0.20250017
-0.45533159
-0.21328215
-0.4781236
-0.22449418
-0.50217833
-0.23615385
-0.52757101
-0.24828045
-0.55438114
-0.26089421
-0.58269332
-0.27401543
-0.61259886
-0.28766495
-0.64419482
-0.30186527
-0.67758407
-0.31663846
-0.71287784
-0.33200684
-0.75019415
-0.34799389
-0.78965927
-0.36462342
-0.83140749
-0.381919
-0.87558348
-0.39990398
-0.92234189
-0.41860319
-0.97184689
-0.43804004
-1.0242761
-0.45823773
-1.0798196
-0.47921902
-1.138682
-0.50100449
-1.2010839
-0.52361754
-1.26726
-0.54707582
-1.3374651
-0.57139531
-1.4119736
-0.59659266
-1.4910747
-0.62268402
-1.5750744
-0.64967449
-1.6642987
-0.6775739
-1.7590864
-0.7063978
-1.8598079
-0.73617987
-1.9668781
-0.76687484
-2.080744
-2.2017225
-0.00015044188
-0.046230623
-0.00087821057
-0.055009167
-0.0013114873
-0.055390685
-0.0020511011
-0.058441976
-0.0026517671
-0.061293361
-0.0034195703
-0.063651982
-0.0042142405
-0.066898706
-0.0050771111
-0.069675709
-0.0060371589
-0.072897164
-0.0070766055
-0.076104697
-0.0082211429
-0.079478505
-0.0094764951
-0.082970534
-0.01085558
-0.086596748
-0.012370262
-0.090359177
-0.014032958
-0.094263584
-0.015856063
-0.098315644
-0.017851931
-0.10252224
-0.0200325
-0.10689114
-0.02240933
-0.1114311
-0.024993212
-0.1161523
-0.02779423
-0.12106595
-0.030821096
-0.12618495
-0.03408145
-0.13152362
-0.037582107
-0.13709691
-0.041327782
-0.14292261
-0.045322828
-0.14901858
-0.04956945
-0.15540503
-0.054069813
-0.16210242
-0.058825335
-0.16913253
-0.06383672
-0.17651873
-0.06910522
-0.18428448
-0.074631683
-0.19245439
-0.080418261
-0.20105434
-0.08646714
-0.21011029
-0.092782169
-0.21964988
-0.099367283
-0.22970196
-0.10622872
-0.24029518
-0.11337269
-0.25146131
-0.12080821
-0.26323176
-0.12854377
-0.2756411
-0.13659111
-0.2887243
-0.14496088
-0.30251963
-0.15366685
-0.31706625
-0.16272351
-0.33240595
-0.17214573
-0.34858364
-0.18195017
-0.36564665
-0.19215449
-0.38364473
-0.20277728
-0.40263175