/*--------------------------------*- C++ -*----------------------------------*\
  =========                 |
  \\      /  F ield         | OpenFOAM: The Open Source CFD Toolbox
   \\    /   O peration     | Website:  https://openfoam.org
    \\  /    A nd           | Version:  12
     \\/     M anipulation  |
\*---------------------------------------------------------------------------*/
FoamFile
{
    format      ascii;
    class       volScalarField;
    location    "0.096";
    object      alphat;
}
// * * * * * * * * * * * * * * * * * * * * * * * * * * * * * * * * * * * * * //

dimensions      [1 -1 -1 0 0 0 0];

internalField   nonuniform List<scalar> 
16000
(
4.8948828e-07
1.077745e-05
2.0452081e-05
2.554039e-05
1.9736337e-05
2.7156214e-05
1.9179174e-05
2.6294625e-05
2.0515534e-05
2.8284322e-05
2.3819424e-05
2.8008055e-05
2.5552229e-05
2.6258049e-05
2.539136e-05
2.527075e-05
2.5029773e-05
2.4982284e-05
2.5019922e-05
2.5165106e-05
2.541026e-05
2.5754731e-05
2.6196225e-05
2.6735118e-05
2.7374154e-05
2.8120153e-05
2.8982253e-05
2.9974887e-05
3.1115629e-05
3.2423447e-05
3.3919178e-05
3.5630422e-05
3.7592768e-05
3.9850084e-05
4.2456381e-05
4.5476169e-05
4.8986403e-05
5.307896e-05
5.7867648e-05
6.3493628e-05
7.0122902e-05
7.7951318e-05
8.7225976e-05
9.8250045e-05
0.00011138506
0.00012706533
0.00014582991
0.00016833667
0.00019538777
0.00022796226
0.00026726016
0.0003147556
0.00037225352
0.0004419699
0.00052662871
0.0006295958
0.00075504836
0.00090820075
0.0010956095
0.00118024
0.0011810722
0.0011818257
0.001182489
0.0011830257
0.0011834324
0.0011836933
0.0011837893
0.0011836913
0.0011833535
0.001182713
0.0011816947
0.0011801816
0.0011781014
0.0011763978
0.0011749326
0.001173703
0.0011726998
0.0011719777
0.0011721815
0.0011735532
4.4489581e-07
1.0209451e-05
2.1249214e-05
2.3200416e-05
1.7788069e-05
2.4324545e-05
1.7012268e-05
2.3016593e-05
1.8120172e-05
2.4982871e-05
2.156123e-05
2.5246632e-05
2.3359662e-05
2.3784168e-05
2.3111126e-05
2.2933563e-05
2.2735696e-05
2.2682049e-05
2.2719873e-05
2.285336e-05
2.3080472e-05
2.3400148e-05
2.3810732e-05
2.4312657e-05
2.4908139e-05
2.560356e-05
2.6406876e-05
2.7331109e-05
2.8392883e-05
2.9610678e-05
3.1003906e-05
3.2597811e-05
3.4425352e-05
3.6527174e-05
3.8953835e-05
4.1766024e-05
4.5036609e-05
4.8851984e-05
5.3318232e-05
5.8569038e-05
6.4763941e-05
7.2087414e-05
8.0772224e-05
9.1107431e-05
0.00010344027
0.00011818361
0.00013585167
0.00015707416
0.00018262062
0.00021343086
0.00025065719
0.00029571892
0.00035035624
0.00041670909
0.00049740934
0.00059571069
0.00071565299
0.00086226833
0.0010418623
0.0011796851
0.0011805177
0.0011812287
0.0011818593
0.0011823657
0.0011827444
0.0011829797
0.0011830519
0.0011829321
0.0011825738
0.0011819104
0.0011808748
0.0011793916
0.0011773917
0.0011757622
0.0011743793
0.0011732357
0.001172286
0.0011716044
0.0011718135
0.001172734
3.8966713e-07
9.7666348e-06
2.0084971e-05
2.1134113e-05
1.5909233e-05
2.1407682e-05
1.513383e-05
1.9997668e-05
1.6278772e-05
2.1909894e-05
1.9644228e-05
2.2468745e-05
2.1147917e-05
2.1289541e-05
2.077653e-05
2.0575457e-05
2.04121e-05
2.0363624e-05
2.0404134e-05
2.0530973e-05
2.0743593e-05
2.1041339e-05
2.1422879e-05
2.1888901e-05
2.2441213e-05
2.3085961e-05
2.3830274e-05
2.4685963e-05
2.5668523e-05
2.6795947e-05
2.8086669e-05
2.956406e-05
3.1258889e-05
3.3209009e-05
3.5461897e-05
3.8074702e-05
4.1116643e-05
4.4669762e-05
4.8833603e-05
5.3734328e-05
5.9526087e-05
6.6384481e-05
7.4529867e-05
8.4237977e-05
9.5844374e-05
0.00010974423
0.00012643046
0.00014650854
0.00017072004
0.00019997184
0.00023537536
0.00027830281
0.00033043816
0.00039385545
0.00047110642
0.00056534609
0.00068049339
0.00082142924
0.00099425143
0.0011793137
0.0011801367
0.0011807882
0.0011813665
0.0011818241
0.0011821571
0.0011823496
0.0011823812
0.0011822228
0.0011818283
0.0011811276
0.0011800517
0.001178567
0.0011766585
0.0011751193
0.0011738307
0.0011727758
0.001171886
0.0011712545
0.0011714283
0.0011720051
3.5223254e-07
9.4323796e-06
1.90427e-05
1.9623744e-05
1.428983e-05
1.8887404e-05
1.3476414e-05
1.7464207e-05
1.4643235e-05
1.9300927e-05
1.7922192e-05
2.0011936e-05
1.9111428e-05
1.9046553e-05
1.8652879e-05
1.8450469e-05
1.8317419e-05
1.82796e-05
1.8325789e-05
1.8449905e-05
1.8652029e-05
1.8931989e-05
1.9288807e-05
1.972356e-05
2.023779e-05
2.0837566e-05
2.1529472e-05
2.2324365e-05
2.323668e-05
2.4284017e-05
2.5484166e-05
2.6858915e-05
2.8437262e-05
3.0254668e-05
3.2356016e-05
3.4795412e-05
3.7638935e-05
4.0965222e-05
4.4868627e-05
4.9468339e-05
5.4914373e-05
6.1375608e-05
6.9062451e-05
7.8238829e-05
8.9231836e-05
0.00010242297
0.00011828826
0.00013741428
0.00016052093
0.00018849076
0.00022240395
0.00026359791
0.00031371499
0.0003747816
0.00044929217
0.00054033101
0.00065172978
0.00078826336
0.0009558923
0.0011620615
0.0011799563
0.0011805317
0.0011810398
0.0011814322
0.0011817039
0.0011818392
0.0011818168
0.001181607
0.0011811652
0.0011804201
0.0011792956
0.0011777893
0.0011759723
0.0011745245
0.0011733294
0.0011723577
0.0011715252
0.0011709274
0.0011710342
0.0011713081
3.2128085e-07
9.1839984e-06
1.8134642e-05
1.9602366e-05
1.4238792e-05
1.6693968e-05
1.2023889e-05
1.5295377e-05
1.3239645e-05
1.7055446e-05
1.6394462e-05
1.7804266e-05
1.7216882e-05
1.7012412e-05
1.6706711e-05
1.6518029e-05
1.6409867e-05
1.6383303e-05
1.6433829e-05
1.6554564e-05
1.6745817e-05
1.700807e-05
1.7340753e-05
1.7745449e-05
1.8223582e-05
1.8781234e-05
1.9424597e-05
2.0163776e-05
2.1012161e-05
2.1986916e-05
2.3105408e-05
2.4388107e-05
2.5862551e-05
2.7562138e-05
2.9529522e-05
3.1816173e-05
3.4485366e-05
3.7612987e-05
4.1289498e-05
4.5627475e-05
5.0773464e-05
5.6891301e-05
6.4183617e-05
7.2903293e-05
8.3370959e-05
9.5957412e-05
0.00011112467
0.00012944375
0.00015161646
0.00017850619
0.00021116718
0.00025090854
0.00029933818
0.00035844345
0.00043067202
0.00051904983
0.00062733617
0.00076021727
0.00092354126
0.0011246
0.0011799588
0.0011804435
0.0011808648
0.0011811762
0.001181372
0.0011814362
0.001181347
0.0011810734
0.0011805724
0.0011797752
0.0011785964
0.0011770469
0.0011753362
0.0011739816
0.0011728779
0.0011719836
0.0011712085
0.0011706259
0.0011706415
0.0011706594
2.9236472e-07
9.0312823e-06
1.7408024e-05
1.9337076e-05
1.3990678e-05
1.4780487e-05
1.1361508e-05
1.3506909e-05
1.2276027e-05
1.5167778e-05
1.5061127e-05
1.587102e-05
1.5492293e-05
1.5205333e-05
1.4954951e-05
1.4782211e-05
1.4689899e-05
1.4670092e-05
1.4721037e-05
1.4836052e-05
1.5015417e-05
1.5260162e-05
1.556995e-05
1.5946772e-05
1.6392033e-05
1.6911795e-05
1.7511928e-05
1.8201953e-05
1.8994247e-05
1.9905513e-05
2.0952888e-05
2.2155784e-05
2.3540587e-05
2.513899e-05
2.6991832e-05
2.9148402e-05
3.1669629e-05
3.4629221e-05
3.811516e-05
4.2234343e-05
4.7130186e-05
5.2963238e-05
5.9931123e-05
6.8276756e-05
7.8316512e-05
9.0413986e-05
0.00010502068
0.00012269632
0.00014412901
0.00017016953
0.00020185306
0.00024046902
0.00028760084
0.00034520863
0.00041570832
0.00050208547
0.00060804829
0.00073821999
0.00089837031
0.0010956849
0.0011801329
0.0011805136
0.0011808332
0.0011810496
0.0011811562
0.0011811371
0.0011809696
0.0011806217
0.0011800506
0.0011791938
0.0011779618
0.0011763583
0.0011747605
0.0011734993
0.0011724839
0.0011716608
0.0011709435
0.0011703625
0.00117027
0.0011700671
2.6165702e-07
8.9457609e-06
1.684425e-05
1.8282239e-05
1.3866192e-05
1.3054661e-05
1.140554e-05
1.2441695e-05
1.1820388e-05
1.353781e-05
1.386792e-05
1.4167623e-05
1.3897382e-05
1.3573766e-05
1.3354355e-05
1.3197611e-05
1.3116803e-05
1.3102493e-05
1.3153543e-05
1.3263826e-05
1.343325e-05
1.3663305e-05
1.3953642e-05
1.4222375e-05
1.4629169e-05
1.5107447e-05
1.5662266e-05
1.6302346e-05
1.7038863e-05
1.7887689e-05
1.8865701e-05
1.9991282e-05
2.1289762e-05
2.279121e-05
2.4534783e-05
2.6567783e-05
2.8948937e-05
3.1749827e-05
3.5056823e-05
3.926643e-05
4.3960046e-05
4.9564282e-05
5.6274566e-05
6.4325278e-05
7.4029821e-05
8.5748004e-05
9.9924209e-05
0.00011711077
0.00013798577
0.00016339351
0.00019435616
0.00023215119
0.00027834638
0.00033488491
0.00040416397
0.00048914451
0.00059350213
0.00072181882
0.00087981433
0.0010746071
0.001180462
0.001180727
0.001180932
0.0011810413
0.0011810472
0.0011809339
0.0011806785
0.0011802474
0.001179597
0.0011786723
0.001177392
0.0011757466
0.0011742557
0.0011730865
0.0011721549
0.001171397
0.001170736
0.0011701574
0.0011699359
0.0011694533
2.3823156e-07
8.896784e-06
1.6364617e-05
1.6623056e-05
1.2687101e-05
1.1374877e-05
9.8487862e-06
1.110262e-05
1.0373385e-05
1.2170588e-05
1.2668319e-05
1.2605313e-05
1.2377742e-05
1.2061807e-05
1.1867737e-05
1.1731944e-05
1.1665339e-05
1.1659773e-05
1.1643025e-05
1.1734566e-05
1.1885207e-05
1.2095408e-05
1.2363164e-05
1.2688874e-05
1.3077479e-05
1.3532656e-05
1.4059756e-05
1.4667421e-05
1.5366215e-05
1.6171532e-05
1.7100465e-05
1.8170849e-05
1.9407516e-05
2.0839509e-05
2.2505009e-05
2.4450071e-05
2.6732106e-05
2.9421397e-05
3.2603744e-05
3.6383677e-05
4.0888691e-05
4.6280237e-05
5.2753668e-05
6.1047106e-05
7.0510375e-05
8.1960464e-05
9.5838416e-05
0.00011269298
0.00013319605
0.00015819193
0.0001886962
0.00022598251
0.00027161259
0.00032752367
0.00039610805
0.00048031919
0.00058382013
0.00071117534
0.00086808372
0.0010616371
0.0011809263
0.0011810656
0.0011811456
0.001181138
0.0011810339
0.0011808175
0.001180466
0.0011799452
0.0011792089
0.0011782081
0.0011768832
0.0011752187
0.0011738291
0.0011727485
0.0011718967
0.0011711998
0.0011705858
0.0011699999
0.001169649
0.001169063
2.1974983e-07
8.848395e-06
1.5871001e-05
1.4548339e-05
1.0426755e-05
1.0110147e-05
8.1198506e-06
9.4703592e-06
9.663865e-06
1.0948792e-05
1.1453209e-05
1.1154699e-05
1.0947273e-05
1.0664714e-05
1.0496421e-05
1.0311396e-05
1.0233776e-05
1.0222453e-05
1.0270321e-05
1.0374184e-05
1.0529801e-05
1.0739444e-05
1.1001996e-05
1.1317833e-05
1.169183e-05
1.2128643e-05
1.2633671e-05
1.3215592e-05
1.3884557e-05
1.4655468e-05
1.5545747e-05
1.6572948e-05
1.776173e-05
1.9140436e-05
2.074666e-05
2.2625721e-05
2.4834257e-05
2.744186e-05
3.0533635e-05
3.4213186e-05
3.8608358e-05
4.3878234e-05
5.0221199e-05
5.7867476e-05
6.7112228e-05
7.8322771e-05
9.275277e-05
0.00010943162
0.00012974784
0.00015455188
0.00018485951
0.00022194882
0.00026738522
0.00032311118
0.00039152809
0.00047559947
0.00057899661
0.0007062905
0.00086318768
0.0010567917
0.0011815026
0.0011815086
0.0011814559
0.0011813238
0.0011811028
0.0011807766
0.0011803227
0.0011797077
0.0011788828
0.001177799
0.0011764293
0.0011747824
0.0011734866
0.0011724895
0.001171714
0.0011710769
0.0011705006
0.0011698951
0.0011694261
0.0011687974
2.0138944e-07
8.8035788e-06
1.424492e-05
1.2669839e-05
8.4318113e-06
8.9888967e-06
7.2267572e-06
8.5482737e-06
8.9515693e-06
9.7981211e-06
1.0252654e-05
9.8349044e-06
9.6341812e-06
9.2997442e-06
9.1206396e-06
9.0107793e-06
8.9676046e-06
8.9818893e-06
9.0469456e-06
9.1620471e-06
9.3243125e-06
9.5337891e-06
9.7926711e-06
1.0101207e-05
1.0464515e-05
1.0887682e-05
1.137627e-05
1.1939138e-05
1.2586184e-05
1.3331856e-05
1.4193977e-05
1.5190164e-05
1.6345167e-05
1.7686943e-05
1.9252868e-05
2.1087986e-05
2.3248666e-05
2.5804417e-05
2.8840704e-05
3.2461598e-05
3.6795025e-05
4.1999574e-05
4.8277158e-05
5.585796e-05
6.5039551e-05
7.6191261e-05
8.976852e-05
0.00010630603
0.00012763854
0.00015247277
0.00018284889
0.00022005747
0.00026567807
0.00032167018
0.00039045895
0.00047503643
0.00057910438
0.00070726624
0.00086526542
0.0010602544
0.0011821652
0.0011820327
0.0011818426
0.0011815812
0.0011812386
0.0011807983
0.0011802377
0.0011795257
0.0011786135
0.0011774451
0.0011760214
0.001174441
0.0011732317
0.0011723117
0.0011716096
0.0011710331
0.0011704889
0.0011698603
0.0011692822
0.0011687018
1.8593096e-07
8.7568991e-06
1.1317373e-05
1.0510846e-05
6.9293096e-06
8.0071205e-06
6.5911885e-06
7.6849789e-06
8.3807287e-06
8.7564242e-06
9.0766264e-06
8.5438811e-06
8.2920124e-06
8.0617545e-06
7.9314163e-06
7.8616836e-06
7.8474389e-06
7.8843047e-06
7.9656466e-06
8.090866e-06
8.2580243e-06
8.4694182e-06
8.7269936e-06
9.0315253e-06
9.3882307e-06
9.802677e-06
1.0280724e-05
1.0831478e-05
1.1464804e-05
1.2194786e-05
1.2972704e-05
1.3939043e-05
1.5062204e-05
1.6369733e-05
1.7898782e-05
1.9694164e-05
2.1812059e-05
2.4321962e-05
2.7309841e-05
3.0880556e-05
3.5163286e-05
4.0634479e-05
4.6912508e-05
5.450711e-05
6.3718448e-05
7.4919293e-05
8.857734e-05
0.00010523897
0.00012559306
0.00015049815
0.00018266218
0.0002203111
0.00026650049
0.00032321919
0.00039293141
0.00047867753
0.00058421332
0.00071420263
0.00087445669
0.0010722126
0.0011828869
0.001182613
0.0011822836
0.0011818909
0.0011814246
0.0011808684
0.0011801992
0.0011793883
0.0011783925
0.0011771486
0.0011756566
0.0011741948
0.0011730662
0.0011722162
0.0011715851
0.00117107
0.0011705474
0.0011698998
0.0011692696
0.0011687397
1.7224814e-07
8.7132132e-06
8.93415e-06
8.9521449e-06
6.1021585e-06
7.0973481e-06
6.0577685e-06
6.9341242e-06
7.801153e-06
7.785907e-06
7.8009514e-06
7.3479321e-06
7.1433345e-06
6.9759714e-06
6.8870885e-06
6.8509123e-06
6.8626425e-06
6.9179411e-06
7.0133825e-06
7.1488672e-06
7.3230853e-06
7.5381852e-06
7.7971815e-06
8.1013511e-06
8.4560106e-06
8.8288908e-06
9.29467e-06
9.8325383e-06
1.0452227e-05
1.1167352e-05
1.1994319e-05
1.2954464e-05
1.4071873e-05
1.5374219e-05
1.6899069e-05
1.8691767e-05
2.0809262e-05
2.3322049e-05
2.6317902e-05
2.9903986e-05
3.4212606e-05
3.9409096e-05
4.5696022e-05
5.3316236e-05
6.2574769e-05
7.4492877e-05
8.836337e-05
0.00010530418
0.00012601524
0.00015137989
0.00018247644
0.0002227112
0.00026986244
0.00032777955
0.00039898187
0.00048657917
0.00059440673
0.0007272194
0.00089093046
0.0010928957
0.0011836398
0.0011832239
0.0011827563
0.0011822327
0.0011816431
0.0011809717
0.001180195
0.0011792847
0.0011782069
0.0011769084
0.0011753763
0.0011740412
0.0011729909
0.001172204
0.0011716404
0.0011711876
0.0011706767
0.0011700177
0.0011694198
0.0011689501
1.6008164e-07
8.6620551e-06
7.1125525e-06
7.8644356e-06
5.4434232e-06
6.2873647e-06
5.6019511e-06
6.2704716e-06
7.1106255e-06
6.6828821e-06
6.650623e-06
6.3030269e-06
6.1419405e-06
6.0254418e-06
5.9721156e-06
5.9648167e-06
5.9991001e-06
6.0725225e-06
6.1820823e-06
6.3285132e-06
6.5112705e-06
6.7327029e-06
6.966585e-06
7.2677204e-06
7.6190588e-06
8.0255028e-06
8.4952396e-06
9.037046e-06
9.660915e-06
1.0380722e-05
1.1213075e-05
1.2179102e-05
1.3304354e-05
1.4616966e-05
1.6155209e-05
1.7965381e-05
2.0105813e-05
2.2648584e-05
2.5684088e-05
2.9322968e-05
3.3700898e-05
3.898695e-05
4.5394065e-05
5.317113e-05
6.2632545e-05
7.4169277e-05
8.8266897e-05
0.00010551203
0.00012774192
0.00015379089
0.00018574264
0.00022496903
0.00027576585
0.00033536523
0.00040863969
0.00049879133
0.00060976261
0.00074643238
0.00091485619
0.0011225434
0.0011843963
0.00118384
0.0011832378
0.0011825865
0.0011818762
0.0011810925
0.0011802121
0.0011792054
0.0011780446
0.0011767064
0.0011751999
0.0011739777
0.001173005
0.0011722756
0.001171774
0.001171383
0.001170879
0.0011702151
0.001169749
0.0011693171
1.4930212e-07
8.600815e-06
5.711378e-06
6.8796483e-06
4.8585879e-06
5.5681487e-06
5.2159404e-06
5.5946202e-06
6.2392385e-06
5.7260368e-06
5.6418606e-06
5.3895698e-06
5.2695116e-06
5.1955746e-06
5.1739198e-06
5.1928351e-06
5.2484746e-06
5.3394687e-06
5.4637358e-06
5.6013111e-06
5.7880654e-06
6.0134878e-06
6.2803129e-06
6.592062e-06
6.9537498e-06
7.370716e-06
7.851077e-06
8.404343e-06
9.0407805e-06
9.7744816e-06
1.062223e-05
1.1605461e-05
1.2692526e-05
1.4016567e-05
1.556927e-05
1.7397861e-05
1.9562289e-05
2.2136288e-05
2.5212932e-05
2.8906943e-05
3.3358541e-05
3.9036151e-05
4.5624381e-05
5.3632114e-05
6.3384415e-05
7.5283177e-05
8.9836792e-05
0.00010765713
0.00012949286
0.00015770667
0.00019078766
0.00023141409
0.0002813292
0.00034597411
0.00042191785
0.00051534641
0.00063034097
0.00077193915
0.00094638634
0.0011613888
0.0011851305
0.0011844375
0.0011837066
0.001182933
0.0011821069
0.0011812153
0.0011802371
0.0011791424
0.0011779014
0.0011765181
0.0011751164
0.0011740005
0.0011731055
0.0011724308
0.0011719829
0.001171649
0.0011711586
0.0011705016
0.0011702079
0.0011698295
1.3976158e-07
8.4785471e-06
4.6437328e-06
6.0047851e-06
4.3374527e-06
4.9293676e-06
4.8805951e-06
4.8582269e-06
5.3592429e-06
4.8729294e-06
4.7678226e-06
4.5942291e-06
4.5133779e-06
4.4764079e-06
4.4837462e-06
4.5271292e-06
4.603457e-06
4.6933901e-06
4.8269997e-06
4.9950501e-06
5.1986915e-06
5.4398112e-06
5.7219158e-06
6.0487528e-06
6.4259862e-06
6.8592601e-06
7.3567824e-06
7.9046353e-06
8.5546586e-06
9.3030408e-06
1.0166649e-05
1.1166982e-05
1.2330326e-05
1.368972e-05
1.5284578e-05
1.7163727e-05
1.9389897e-05
2.2039663e-05
2.5209868e-05
2.9021119e-05
3.3620139e-05
3.9191791e-05
4.5959556e-05
5.4198616e-05
6.4247867e-05
7.7166635e-05
9.2302517e-05
0.00011084764
0.00013358655
0.00016148573
0.00019757302
0.00023993009
0.0002919843
0.00035596748
0.00043879714
0.00053624152
0.00065616276
0.00080379462
0.00098562519
0.0011866405
0.001185819
0.0011849953
0.001184143
0.0011832548
0.00118232
0.0011813267
0.0011802569
0.0011790848
0.001177783
0.0011763593
0.0011751177
0.001174103
0.0011732862
0.0011726675
0.0011722641
0.001171973
0.0011715099
0.0011708945
0.0011707223
0.0011704984
1.3137679e-07
8.1496468e-06
3.9098191e-06
5.2294562e-06
3.8747308e-06
4.3646378e-06
4.3461334e-06
4.1922264e-06
4.5104196e-06
4.1188954e-06
4.0191368e-06
3.9084795e-06
3.8646113e-06
3.8604981e-06
3.8946275e-06
3.9465369e-06
4.0360854e-06
4.1587886e-06
4.3139542e-06
4.502032e-06
4.7248592e-06
4.9848969e-06
5.2861246e-06
5.6326111e-06
6.0166918e-06
6.4673226e-06
6.9829248e-06
7.5730044e-06
8.2495112e-06
9.0266782e-06
9.9218402e-06
1.0957408e-05
1.2160794e-05
1.3566352e-05
1.5216282e-05
1.7161278e-05
1.9467519e-05
2.2215287e-05
2.5505517e-05
2.9466129e-05
3.4249836e-05
4.0050952e-05
4.7107669e-05
5.5707596e-05
6.6208851e-05
7.9050479e-05
9.5614033e-05
0.00011503372
0.00013885271
0.00016809575
0.0002039946
0.00025044982
0.00030504069
0.000372155
0.00045466953
0.00056141325
0.0006871811
0.00084197886
0.001032588
0.0011873769
0.0011864417
0.0011854963
0.001184531
0.0011835368
0.0011825024
0.0011814158
0.0011802615
0.0011790193
0.0011776841
0.001176309
0.0011751925
0.0011742772
0.0011735377
0.0011729798
0.0011726155
0.0011723475
0.0011719127
0.0011713688
0.001171326
0.0011712159
1.2423228e-07
7.7353106e-06
3.4476362e-06
4.5424428e-06
3.464486e-06
3.7024458e-06
3.8750774e-06
3.5820685e-06
3.7421901e-06
3.4641108e-06
3.3859828e-06
3.3252575e-06
3.3152643e-06
3.3408172e-06
3.3827971e-06
3.4666633e-06
3.5824573e-06
3.7290286e-06
3.9066645e-06
4.1166095e-06
4.3612997e-06
4.6434989e-06
4.957986e-06
5.3249988e-06
5.7436391e-06
6.2205889e-06
6.7638771e-06
7.3833582e-06
8.0912394e-06
8.9026791e-06
9.8355899e-06
1.0913376e-05
1.2164744e-05
1.3625826e-05
1.5275578e-05
1.7282892e-05
1.9665083e-05
2.2506753e-05
2.6069481e-05
3.0209144e-05
3.5214336e-05
4.1288813e-05
4.8686861e-05
5.7711744e-05
6.8740046e-05
8.2237577e-05
9.8775171e-05
0.00011905248
0.00014521373
0.00017600767
0.00021382384
0.00026028081
0.0003203757
0.00039109959
0.00047805808
0.00059070677
0.0007232433
0.00088635484
0.0010871611
0.0011880269
0.001186984
0.001185928
0.0011848587
0.0011837679
0.0011826439
0.0011814738
0.0011802458
0.0011789434
0.0011775702
0.0011763409
0.0011753366
0.0011745145
0.0011738498
0.0011733553
0.0011730317
0.0011727705
0.0011723461
0.0011718886
0.0011719809
0.0011719554
1.1861885e-07
6.6969543e-06
3.0545175e-06
3.9192304e-06
3.1113266e-06
3.0907779e-06
3.4058506e-06
3.0295506e-06
3.0822243e-06
2.9049295e-06
2.8561441e-06
2.836221e-06
2.8486163e-06
2.8933224e-06
2.9738333e-06
3.0857938e-06
3.2272441e-06
3.3981332e-06
3.5995639e-06
3.8332536e-06
4.0960259e-06
4.4008188e-06
4.7477844e-06
5.1416936e-06
5.5882417e-06
6.0943358e-06
6.6683766e-06
7.3206113e-06
8.0636454e-06
8.8936206e-06
9.8624803e-06
1.0979922e-05
1.2275879e-05
1.3787845e-05
1.5562704e-05
1.7659054e-05
2.0149309e-05
2.3124087e-05
2.6695775e-05
3.1003154e-05
3.6218451e-05
4.2860256e-05
5.0646515e-05
6.0154798e-05
7.1781576e-05
8.6019281e-05
0.00010347289
0.00012488614
0.00015255969
0.00018509672
0.00022506779
0.00027418131
0.0003377946
0.00041258093
0.00050455476
0.00061768894
0.00076404638
0.00093661231
0.0011490416
0.0011885793
0.0011874379
0.0011862834
0.0011851196
0.0011839413
0.0011827379
0.0011814946
0.0011802025
0.0011788686
0.0011775337
0.0011764427
0.0011755419
0.0011748069
0.0011742165
0.0011737818
0.0011734985
0.0011732326
0.0011728082
0.0011724429
0.0011726639
0.0011727806
1.14106e-07
4.7054667e-06
2.6991948e-06
3.3416166e-06
2.6615717e-06
2.578457e-06
2.911107e-06
2.5374826e-06
2.5327352e-06
2.4342023e-06
2.4184562e-06
2.4260685e-06
2.469479e-06
2.5484375e-06
2.6585799e-06
2.7974082e-06
2.9642755e-06
3.1598595e-06
3.3825923e-06
3.6396284e-06
3.9321731e-06
4.2635802e-06
4.6379244e-06
5.0601597e-06
5.5362606e-06
6.0734286e-06
6.6804079e-06
7.3567123e-06
8.1334538e-06
9.0191887e-06
1.0034181e-05
1.1203597e-05
1.2559153e-05
1.4140671e-05
1.5998058e-05
1.8193488e-05
2.0804208e-05
2.3926279e-05
2.7679161e-05
3.2211005e-05
3.7705283e-05
4.4388064e-05
5.2929685e-05
6.2970679e-05
7.5257051e-05
9.0310208e-05
0.00010877134
0.00013143029
0.00015925947
0.00019519097
0.00023752593
0.00028955967
0.00035353537
0.00043627028
0.00053377552
0.00065374327
0.00080908668
0.00099219757
0.0011902775
0.0011890303
0.0011878001
0.0011865606
0.001185313
0.0011840554
0.0011827816
0.0011814782
0.0011801323
0.001178768
0.0011775865
0.0011766081
0.0011758006
0.0011751431
0.0011746306
0.0011742467
0.0011739999
0.001173727
0.0011733087
0.0011730546
0.0011733874
0.0011735928
1.0935244e-07
3.9101802e-06
2.3277338e-06
2.8093654e-06
2.2952156e-06
2.150636e-06
2.3986688e-06
2.1054642e-06
2.0860476e-06
2.04794e-06
2.0610698e-06
2.103223e-06
2.1826622e-06
2.2924189e-06
2.4299007e-06
2.5941816e-06
2.7855969e-06
3.0031448e-06
3.2525054e-06
3.534979e-06
3.8535357e-06
4.211775e-06
4.6140031e-06
5.0653663e-06
5.5720489e-06
6.1415215e-06
6.775274e-06
7.4963206e-06
8.3132417e-06
9.2430389e-06
1.0307102e-05
1.1532128e-05
1.2951694e-05
1.4607998e-05
1.6554136e-05
1.8856558e-05
2.1597721e-05
2.4879765e-05
2.8829655e-05
3.3604232e-05
3.9398077e-05
4.6787897e-05
5.5468972e-05
6.6080704e-05
7.907381e-05
9.5000503e-05
0.00011454044
0.00013853082
0.00016955937
0.0002060644
0.00025092771
0.00030608939
0.00037393518
0.00046170643
0.00056518289
0.00069255379
0.00085760003
0.0010522282
0.0011906924
0.0011893796
0.0011880726
0.0011867616
0.0011854431
0.0011841151
0.0011827763
0.0011814233
0.0011800594
0.0011787528
0.0011777029
0.0011768312
0.0011761079
0.0011755115
0.0011750712
0.0011747396
0.0011745187
0.0011742435
0.0011738407
0.0011736759
0.0011741199
0.0011743615
1.061604e-07
3.1502835e-06
2.0073969e-06
2.2706308e-06
1.9948778e-06
1.7845735e-06
1.9221588e-06
1.7390758e-06
1.7353806e-06
1.7458852e-06
1.7890438e-06
1.8691325e-06
1.9795089e-06
2.1162209e-06
2.2782493e-06
2.4658661e-06
2.6789704e-06
2.9212805e-06
3.1946242e-06
3.5017208e-06
3.8458252e-06
4.2307472e-06
4.6609548e-06
5.1417405e-06
5.6794566e-06
6.2774829e-06
6.9516898e-06
7.7108265e-06
8.5691166e-06
9.5444132e-06
1.0659382e-05
1.1942338e-05
1.3428917e-05
1.5163847e-05
1.7203359e-05
1.9618139e-05
2.2496502e-05
2.59468e-05
3.0104275e-05
3.5135322e-05
4.15175e-05
4.9022304e-05
5.8184074e-05
6.9391413e-05
8.3120443e-05
9.9957249e-05
0.00012062217
0.00014600328
0.00017879109
0.00021742424
0.00026492477
0.00032335355
0.00039525382
0.00048825653
0.00059802465
0.00073322908
0.00090850436
0.0011154153
0.0011910068
0.0011896335
0.0011882618
0.0011868914
0.0011855158
0.0011841305
0.0011827346
0.0011813355
0.0011799664
0.0011788218
0.0011778735
0.0011770958
0.0011764562
0.0011759309
0.0011755128
0.0011752412
0.0011750369
0.0011747689
0.0011744087
0.0011743241
0.0011748005
0.0011750231
1.0484234e-07
2.4849499e-06
1.7305303e-06
1.7532408e-06
1.7180764e-06
1.4713628e-06
1.5330642e-06
1.4472166e-06
1.4743801e-06
1.519848e-06
1.601684e-06
1.7122837e-06
1.8481457e-06
2.0076992e-06
2.1912271e-06
2.3998968e-06
2.6346583e-06
2.8990595e-06
3.1952154e-06
3.526108e-06
3.8951638e-06
4.3063342e-06
4.7642113e-06
5.2742083e-06
5.8428083e-06
6.477904e-06
7.1892368e-06
7.9889253e-06
8.8818654e-06
9.9031666e-06
1.1069734e-05
1.2411604e-05
1.3966623e-05
1.5782283e-05
1.7918011e-05
2.0531466e-05
2.3572956e-05
2.7222448e-05
3.162422e-05
3.6956157e-05
4.3437232e-05
5.1336594e-05
6.0986614e-05
7.279626e-05
8.7269054e-05
0.00010502537
0.00012682822
0.00015495941
0.00018813268
0.00022891697
0.00027908535
0.0003408266
0.00042079148
0.00051511439
0.00063132571
0.00077459651
0.0009603583
0.0011800344
0.0011912333
0.0011898062
0.0011883797
0.0011869582
0.0011855362
0.0011841083
0.0011826714
0.0011812494
0.0011799797
0.0011789435
0.0011780885
0.0011773844
0.0011768065
0.0011763554
0.0011759798
0.001175736
0.0011755402
0.0011752795
0.0011749721
0.0011749626
0.0011754496
0.0011756306
1.0645452e-07
1.9148699e-06
1.4997562e-06
1.35667e-06
1.4360921e-06
1.208716e-06
1.2483067e-06
1.2335198e-06
1.2934244e-06
1.3732825e-06
1.4837052e-06
1.6177952e-06
1.7742212e-06
1.9530957e-06
2.1556277e-06
2.3835566e-06
2.6386383e-06
2.9239186e-06
3.2419286e-06
3.5957842e-06
3.9890147e-06
4.4256659e-06
4.9104334e-06
5.4488531e-06
6.0475639e-06
6.7146634e-06
7.4601826e-06
8.2966776e-06
9.2399662e-06
1.0310059e-05
1.1532253e-05
1.2938587e-05
1.4569422e-05
1.6475496e-05
1.8720297e-05
2.1382992e-05
2.4562043e-05
2.8379896e-05
3.2987992e-05
3.8573707e-05
4.5368364e-05
5.3656408e-05
6.3785576e-05
7.6186588e-05
9.1388442e-05
0.00011095422
0.00013403799
0.00016239665
0.00019725919
0.0002401436
0.00029292316
0.00036127343
0.00044192847
0.00054132709
0.00066391539
0.0008231342
0.0010113573
0.00119289
0.0011913878
0.0011899142
0.0011884435
0.0011869773
0.0011855135
0.0011840529
0.001182601
0.0011811945
0.0011800539
0.001179107
0.0011783321
0.0011776953
0.0011771768
0.0011767485
0.0011764386
0.0011762142
0.0011760208
0.0011757679
0.0011755118
0.0011755612
0.0011760363
0.0011761698
1.121542e-07
1.4468658e-06
1.3125106e-06
1.0671394e-06
1.2817386e-06
9.905397e-07
1.0550734e-06
1.0922359e-06
1.1790563e-06
1.2865664e-06
1.4180146e-06
1.5703135e-06
1.7438317e-06
1.939692e-06
2.1595992e-06
2.4055577e-06
2.6798497e-06
2.9848392e-06
3.3236315e-06
3.6993113e-06
4.1154844e-06
4.5762835e-06
5.0865102e-06
5.6518343e-06
6.2790676e-06
6.9765335e-06
7.7545655e-06
8.6261858e-06
9.6078508e-06
1.0720472e-05
1.1990513e-05
1.3451574e-05
1.5146024e-05
1.7127156e-05
1.9461672e-05
2.2232775e-05
2.5543851e-05
2.9523006e-05
3.4328613e-05
4.0156161e-05
4.7569283e-05
5.6290431e-05
6.694905e-05
7.999798e-05
9.5993917e-05
0.00011562278
0.00013973049
0.00016936073
0.00020579832
0.00025298037
0.00030860609
0.00037711821
0.00046156552
0.00056573758
0.00070112397
0.00086122108
0.0010591735
0.0011930168
0.0011914824
0.0011899721
0.0011884687
0.0011869689
0.0011854683
0.0011839697
0.0011825054
0.0011812267
0.0011801707
0.0011792989
0.0011785832
0.0011779977
0.001177542
0.0011771439
0.0011768679
0.0011766621
0.0011764693
0.0011762317
0.001176025
0.0011761073
0.0011765359
0.0011766286
1.225906e-07
1.1463105e-06
1.1513628e-06
9.2648326e-07
9.3827406e-07
8.664541e-07
9.2802514e-07
1.0072693e-06
1.114897e-06
1.2419711e-06
1.3892881e-06
1.5566205e-06
1.7451759e-06
1.9564757e-06
2.1923766e-06
2.4549529e-06
2.746524e-06
3.069675e-06
3.4273027e-06
3.8226695e-06
4.2594821e-06
4.741998e-06
5.2751743e-06
5.8648806e-06
6.5181926e-06
7.2411956e-06
8.0483755e-06
8.951563e-06
9.97678e-06
1.1131828e-05
1.2450529e-05
1.3968183e-05
1.5729268e-05
1.778965e-05
2.0219202e-05
2.3104963e-05
2.6555001e-05
3.0703133e-05
3.5714688e-05
4.1793656e-05
4.9191486e-05
5.8217979e-05
6.9254518e-05
8.2768564e-05
9.9338211e-05
0.00011967515
0.00014594511
0.0001768941
0.00021495369
0.00026179414
0.00031948403
0.0003905935
0.0004783175
0.00059221244
0.00072706467
0.0008938768
0.0011004702
0.0011931095
0.0011915416
0.001189996
0.0011884637
0.0011869417
0.0011854269
0.0011839239
0.0011824755
0.0011813048
0.0011803246
0.0011795166
0.0011788505
0.0011783031
0.0011778929
0.0011775241
0.0011772546
0.0011770687
0.0011768749
0.0011766609
0.001176503
0.0011765994
0.0011769542
0.0011769807
1.4409471e-07
1.184597e-06
9.9139485e-07
7.0700713e-07
7.6651647e-07
7.7440774e-07
8.5788914e-07
9.5995152e-07
1.084029e-06
1.2258961e-06
1.3866864e-06
1.5673157e-06
1.769282e-06
1.9942217e-06
2.2440206e-06
2.5207804e-06
2.8268538e-06
3.1648747e-06
3.5378018e-06
3.9489712e-06
4.40217e-06
4.9017401e-06
5.4527267e-06
6.0610912e-06
6.7340136e-06
7.4803053e-06
8.3109573e-06
9.23984e-06
1.0284592e-05
1.1467675e-05
1.2817646e-05
1.4370752e-05
1.6172719e-05
1.8281006e-05
2.0767449e-05
2.3721501e-05
2.7254168e-05
3.1502793e-05
3.6636931e-05
4.2865586e-05
5.0446259e-05
6.0123748e-05
7.1521573e-05
8.5475186e-05
0.00010258153
0.00012357543
0.00014936464
0.00018107141
0.00022008486
0.00026812483
0.00032733115
0.0004040604
0.00049488503
0.00060711171
0.00074595952
0.00091797855
0.0011313915
0.0011932132
0.001191611
0.0011900271
0.0011884577
0.0011869009
0.0011853594
0.0011838574
0.0011825135
0.0011814121
0.0011804957
0.0011797387
0.0011791138
0.0011786088
0.0011781892
0.0011778713
0.00117759
0.0011774294
0.0011772337
0.0011770435
0.0011769185
0.0011769917
0.001177236
0.0011772242
1.3738906e-07
7.9027825e-07
8.1311388e-07
6.0278274e-07
6.598612e-07
7.2035693e-07
8.2242568e-07
9.412637e-07
1.0784153e-06
1.2328796e-06
1.4058965e-06
1.5986663e-06
1.8127173e-06
2.0497524e-06
2.3116971e-06
2.6007104e-06
2.9192131e-06
3.2698762e-06
3.6557978e-06
4.0803753e-06
4.5474821e-06
5.0615478e-06
5.6277077e-06
6.252018e-06
6.9417634e-06
7.7058781e-06
8.5555052e-06
9.5047197e-06
1.0580074e-05
1.1791013e-05
1.3172641e-05
1.4762156e-05
1.6606421e-05
1.8764271e-05
2.1309199e-05
2.4332671e-05
2.794813e-05
3.2295903e-05
3.754924e-05
4.3921728e-05
5.1676407e-05
6.1136936e-05
7.2701346e-05
8.6861263e-05
0.00010422204
0.00012553122
0.00015171277
0.00018552408
0.00022544412
0.00027460477
0.00033520641
0.00040998843
0.00050237401
0.00061665157
0.00075820877
0.00093383344
0.0011520797
0.0011933676
0.0011917388
0.0011901243
0.0011885233
0.0011869352
0.0011853676
0.0011838611
0.0011825952
0.0011815433
0.0011806717
0.0011799496
0.0011793484
0.0011788692
0.0011784767
0.001178168
0.001177933