/*--------------------------------*- C++ -*----------------------------------*\
  =========                 |
  \\      /  F ield         | OpenFOAM: The Open Source CFD Toolbox
   \\    /   O peration     | Website:  https://openfoam.org
    \\  /    A nd           | Version:  12
     \\/     M anipulation  |
\*---------------------------------------------------------------------------*/
FoamFile
{
    format      ascii;
    class       volScalarField;
    location    "0.096";
    object      p;
}
// * * * * * * * * * * * * * * * * * * * * * * * * * * * * * * * * * * * * * //

dimensions      [1 -1 -2 0 0 0 0];

internalField   nonuniform List<scalar> 
16000
(
89670.8
89797.193
89809.029
89943.9
89970.046
90097.839
90148.328
90265.402
90339.33
90450.689
90542.939
90654.176
90760.536
90876.073
90993.496
91116.378
91243.329
91374.954
91511.13
91651.945
91797.408
91947.524
92102.275
92261.619
92425.489
92593.789
92766.393
92943.144
93123.853
93308.296
93496.214
93687.315
93881.271
94077.724
94276.279
94476.518
94677.992
94880.232
95082.751
95285.046
95486.608
95686.924
95885.486
96081.793
96275.361
96465.725
96652.447
96835.118
97013.364
97186.846
97355.266
97518.365
97675.923
97827.763
97973.746
98113.771
98247.774
98375.723
98497.618
98613.493
98723.407
98827.448
98925.734
99018.413
99105.658
99187.667
99264.659
99336.859
99404.494
99467.786
99526.955
99582.188
99633.611
99681.556
99726.512
99767.726
99805.452
99847.617
99878.825
99888.675
89300.638
89443.975
89453.37
89600.294
89627.988
89766.752
89819.589
89947.995
90025.727
90147.233
90245.87
90366.057
90480.733
90605.134
90731.816
90864.181
91001.026
91142.838
91289.538
91441.179
91597.757
91759.253
91925.618
92096.776
92272.62
92453.012
92637.778
92826.711
93019.566
93216.062
93415.881
93618.666
93824.027
94031.539
94240.746
94451.165
94662.289
94873.594
95084.541
95294.585
95503.184
95709.797
95913.899
96114.986
96312.576
96506.22
96695.504
96880.053
97059.533
97233.655
97402.175
97564.889
97721.642
97872.316
98016.833
98155.153
98287.266
98413.197
98532.993
98646.733
98754.517
98856.469
98952.737
99043.491
99128.925
99209.247
99284.676
99355.436
99421.738
99483.791
99541.795
99595.903
99646.253
99693.257
99737.134
99776.915
99814.882
99855.497
99880.037
99903.45
88961.384
89120.273
89129.405
89289.785
89317.564
89470.131
89524.666
89665.438
89748.052
89880.097
89986.526
90116.32
90240.593
90374.884
90512.038
90655.1
90803.079
90956.335
91114.803
91278.498
91447.386
91621.409
91800.482
91984.484
92173.261
92366.626
92564.348
92766.162
92971.758
93180.789
93392.865
93607.558
93824.403
94042.902
94262.527
94482.726
94702.93
94922.555
95141.016
95357.729
95572.12
95783.636
95991.746
96195.952
96395.796
96590.859
96780.769
96965.203
97143.888
97316.6
97483.165
97643.455
97797.386
97944.915
98086.038
98220.78
98349.2
98471.377
98587.416
98697.443
98801.602
98900.053
98992.972
99080.555
99163.01
99240.552
99313.402
99381.772
99445.863
99505.867
99561.962
99614.269
99662.955
99708.446
99750.665
99788.825
99826.399
99864.488
99884.373
99917.789
88657.487
88827.202
88837.378
89013.138
89040.377
89209.212
89265.963
89421.071
89509.499
89653.625
89769.332
89910.097
90045.602
90191.257
90340.413
90495.658
90656.206
90822.297
90993.867
91170.893
91353.312
91541.029
91733.916
91931.807
92134.495
92341.73
92553.218
92768.619
92987.547
93209.569
93434.213
93660.961
93889.263
94118.536
94348.171
94577.542
94806.013
95032.946
95257.711
95479.693
95698.303
95912.986
96123.225
96328.55
96528.544
96722.842
96911.138
97093.182
97268.78
97437.795
97600.14
97755.778
97904.712
98046.984
98182.67
98311.873
98434.718
98551.351
98661.933
98766.638
98865.652
98959.173
99047.405
99130.562
99208.865
99282.534
99351.782
99416.811
99477.803
99534.935
99588.355
99638.16
99684.551
99727.911
99767.889
99804.087
99840.654
99875.375
99891.374
99932.913
88392.09
88576.778
88583.653
88778.224
88804.388
88991.733
89050.691
89222.024
89317.588
89475.246
89602.054
89755.021
89903.309
90061.601
90224.022
90392.661
90566.947
90747.027
90932.843
91124.342
91321.424
91523.953
91731.746
91944.574
92162.156
92384.163
92610.21
92839.862
93072.632
93307.986
93545.345
93784.088
94023.565
94263.097
94501.99
94739.543
94975.056
95207.845
95437.249
95662.64
95883.435
96099.098
96309.154
96513.187
96710.848
96901.855
97085.992
97263.106
97433.108
97595.964
97751.693
97900.36
98042.066
98176.947
98305.164
98426.899
98542.349
98651.722
98755.234
98853.105
98945.562
99032.833
99115.145
99192.728
99265.807
99334.602
99399.314
99460.13
99517.214
99570.721
99620.767
99667.436
99710.96
99751.627
99788.858
99822.797
99857.846
99888.407
99900.892
99950.005
88170.086
88372.446
88377.232
88592.907
88617.967
88825.815
88887.078
89076.345
89180.284
89352.261
89491.442
89657.145
89819.151
89990.917
90167.556
90350.666
90539.854
90735.187
90936.579
91143.924
91357.06
91575.777
91799.806
92028.824
92262.448
92500.236
92741.687
92986.243
93233.292
93482.175
93732.187
93982.592
94232.628
94481.519
94728.486
94972.759
95213.591
95450.27
95682.126
95908.547
96128.983
96342.956
96550.062
96749.976
96942.45
97127.314
97304.471
97473.892
97635.611
97789.718
97936.35
98075.683
98207.923
98333.302
98452.069
98564.481
98670.805
98771.305
98866.246
98955.89
99040.497
99120.317
99195.594
99266.565
99333.456
99396.476
99455.812
99511.629
99564.072
99613.272
99659.31
99702.267
99742.399
99779.846
99813.876
99845.301
99878.323
99903.993
99913.395
99969.849
87992.056
88215.365
88217.36
88457.753
88481.813
88713.94
88778.425
88987.193
89099.512
89285.132
89437.591
89616.633
89793.689
89980.441
90172.99
90372.427
90578.442
90790.996
91009.933
91235.058
91466.115
91702.785
91944.684
92191.363
92442.305
92696.925
92954.576
93214.553
93476.094
93738.394
94000.614
94261.892
94521.354
94778.132
95031.376
95280.271
95524.046
95761.993
95993.473
96217.926
96434.882
96643.96
96844.87
97037.417
97221.492
97397.068
97564.198
97722.998
97873.644
98016.361
98151.412
98279.087
98399.699
98513.572
98621.035
98722.416
98818.04
98908.222
98993.264
99073.46
99149.092
99220.425
99287.711
99351.184
99411.063
99467.539
99520.781
99570.929
99618.107
99662.414
99703.902
99742.66
99778.944
99812.702
99843.161
99871.879
99902.342
99922.508
99929.507
99993.07
87851.966
88099.876
88097.554
88367.747
88388.668
88647.684
88715.296
88943.164
89067.141
89268.844
89438.268
89633.494
89828.644
90033.323
90244.597
90463.131
90688.651
90921.011
91159.966
91405.21
91656.364
91912.972
92174.503
92440.346
92709.818
92982.16
93256.55
93532.107
93807.902
94082.972
94356.337
94627.012
94894.026
95156.44
95413.363
95663.969
95907.51
96143.329
96370.87
96589.68
96799.42
96999.858
97190.868
97372.426
97544.598
97707.535
97861.457
98006.646
98143.428
98272.168
98393.254
98507.087
98614.076
98714.627
98809.139
98897.997
98981.569
99060.207
99134.24
99203.98
99269.719
99331.726
99390.25
99445.514
99497.719
99547.037
99593.609
99637.553
99678.965
99717.909
99754.413
99788.585
99820.646
99850.32
99876.949
99902.821
99930.135
99944.27
99949.643
100020.24
87747.797
88024.145
88017.414
88324.581
88339.558
88627.327
88700.296
88950.178
89091.019
89311.354
89501.449
89715.815
89932.156
90157.894
90390.926
90631.568
90879.512
91134.488
91396.121
91663.955
91937.446
92215.961
92498.776
92785.08
93073.979
93364.508
93655.638
93946.291
94235.36
94521.722
94804.264
95081.901
95353.596
95618.381
95875.376
96123.801
96362.996
96592.422
96811.673
97020.472
97218.67
97406.243
97583.276
97749.958
97906.561
98053.434
98190.98
98319.648
98439.917
98552.281
98657.243
98755.302
98846.944
98932.64
99012.84
99087.966
99158.418
99224.562
99286.741
99345.269
99400.436
99452.504
99501.706
99548.248
99592.305
99634.021
99673.51
99710.863
99746.147
99779.39
99810.606
99839.923
99867.473
99892.766
99915.441
99938.379
99961.922
99969.703
99974.309
100051.73
87682.278
87991.851
87982.001
88326.214
88340.42
88660.496
88744.932
89020.212
89181.093
89422.07
89636.495
89873.224
90114.044
90364.268
90622.387
90888.408
91161.918
91442.479
91729.535
92022.429
92320.398
92622.574
92927.988
93235.575
93544.193
93852.63
94159.629
94463.906
94764.178
95059.181
95347.705
95628.608
95900.847
96163.496
96415.763
96657.003
96886.728
97104.605
97310.458
97504.262
97686.125
97856.281
98015.069
98162.915
98300.319
98427.829
98546.031
98655.53
98756.94
98850.867
98937.904
99018.622
99093.562
99163.237
99228.122
99288.659
99345.251
99398.268
99448.045
99494.887
99539.067
99580.828
99620.378
99657.896
99693.527
99727.385
99759.552
99790.091
99819.037
99846.383
99872.145
99896.459
99919.312
99940.054
99958.8
99978.75
99997.91
99999.337
100004.22
100087.69
87662.239
88011.306
87997.474
88382.325
88400.474
88757.132
88856.63
89159.192
89345.843
89610.338
89853.352
90116.415
90385.487
90664.042
90950.93
91245.875
91548.289
91857.505
92172.718
92492.998
92817.289
93144.417
93473.103
93801.978
94129.608
94454.518
94775.215
95090.224
95398.118
95697.546
95987.263
96266.161
96533.288
96787.867
97029.309
97257.217
97471.382
97671.777
97858.546
98031.978
98192.495
98340.624
98476.978
98602.23
98717.095
98822.309
98918.617
99006.753
99087.433
99161.342
99229.131
99291.412
99348.751
99401.672
99450.653
99496.128
99538.488
99578.085
99615.232
99650.209
99683.262
99714.602
99744.406
99772.82
99799.953
99825.885
99850.669
99874.339
99896.893
99918.3
99938.586
99957.87
99975.95
99992.118
100007.11
100024.04
100038.23
100033.77
100040.19
100128.35
87696.413
88092.456
88074.719
88507.744
88530.818
88927.249
89046.348
89378.057
89596.258
89887.616
90163.621
90457.544
90759.107
91070.28
91390.027
91717.754
92052.598
92393.566
92739.501
93089.1
93440.925
93793.42
94144.937
94493.766
94838.164
95176.395
95506.767
95827.665
96137.599
96435.231
96719.413
96989.205
97243.897
97483.012
97706.309
97913.767
98105.573
98282.097
98443.866
98591.536
98725.862
98847.67
98957.834
99057.249
99146.814
99227.415
99299.909
99365.117
99423.814
99476.722
99524.513
99567.801
99607.146
99643.055
99675.981
99706.33
99734.462
99760.693
99785.301
99808.529
99830.585
99851.643
99871.84
99891.284
99910.048
99928.177
99945.695
99962.604
99978.868
99994.441
100009.37
100023.71
100037.06
100048.8
100060.35
100074.22
100082.94
100073.34
100082.92
100174.2
87785.758
88237.658
88216.584
88704.46
88736.019
89176.078
89322.403
89685.877
89942.794
90265.826
90579.994
90910.266
91249.397
91598.153
91955.37
92320.035
92690.865
93066.407
93445.032
93824.96
94204.283
94581.008
94953.084
95318.451
95675.086
96021.048
96354.535
96673.926
96977.824
97265.091
97534.869
97786.592
98019.983
98235.042
98432.023
98611.404
98773.854
98920.192
99051.357
99168.368
99272.292
99364.219
99445.234
99516.401
99578.743
99633.235
99680.793
99722.267
99758.443
99790.036
99817.695
99842.003
99863.484
99882.599
99899.756
99915.314
99929.584
99942.835
99955.297
99967.169
99978.614
99989.761
100000.71
100011.52
100022.23
100032.86
100043.39
100053.8
100064.02
100074.01
100083.82
100093.42
100102.2
100109.8
100118.32
100129.08
100131.94
100118.32
100132.91
100225.28
87935.487
88453.695
88429.921
88980.112
89026.507
89514.152
89697.023
90095.643
90399.107
90760.187
91118.628
91491.768
91874.438
92266.337
92665.894
93071.508
93481.311
93893.256
94305.123
94714.569
95119.164
95516.445
95903.972
96279.392
96640.506
96985.332
97312.164
97619.616
97906.655
98172.613
98417.186
98640.415
98842.656
99024.537
99186.918
99330.837
99457.467
99568.069
99663.954
99746.447
99816.858
99876.462
99926.477
99968.055
100002.27
100030.11
100052.5
100070.25
100084.11
100094.75
100102.75
100108.64
100112.88
100115.87
100117.95
100119.41
100120.51
100121.46
100122.43
100123.59
100125.03
100126.84
100129.08
100131.78
100134.92
100138.5
100142.48
100146.79
100151.36
100156.14
100161.18
100166.31
100170.79
100174.68
100180.57
100188.18
100185.01
100168.63
100190.04
100281.03
88152.22
88749.729
88725.164
89346.138
89414.631
89953.945
90184.682
90623.689
90982.754
91390.425
91800.67
92224.233
92656.996
93097.604
93543.823
93993.304
94443.451
94891.495
95334.534
95769.597
96193.713
96603.996
96997.739
97372.496
97726.167
98057.059
98363.929
98645.998
98902.951
99134.907
99342.375
99526.199
99687.496
99827.596
99947.976
100050.2
100135.9
100206.67
100264.09
100309.7
100344.94
100371.16
100389.61
100401.44
100407.71
100409.35
100407.2
100402.03
100394.48
100385.14
100374.51
100363.04
100351.1
100339
100327.02
100315.38
100304.27
100293.84
100284.21
100275.48
100267.71
100260.94
100255.17
100250.4
100246.6
100243.72
100241.69
100240.43
100239.83
100239.88
100240.59
100241.61
100242.19
100242.88
100246.49
100250.88
100241.99
100223.91
100253.18
100340.24
88442.263
89134.513
89112.029
89813.428
89915.42
90512.323
90805.671
91293.663
91718.908
92183.513
92653.904
93135.472
93624.302
94117.957
94613.331
95107.157
95595.937
96076.049
96543.831
96995.701
97428.28
97838.52
98223.813
98582.081
98911.829
99212.17
99482.805
99723.99
99936.466
100121.38
100280.21
100414.68
100526.64
100618.08
100690.97
100747.29
100788.94
100817.75
100835.42
100843.53
100843.53
100836.75
100824.38
100807.48
100786.99
100763.76
100738.51
100711.89
100684.43
100656.61
100628.83
100601.43
100574.69
100548.85
100524.09
100500.57
100478.42
100457.71
100438.51
100420.87
100404.81
100390.31
100377.36
100365.9
100355.87
100347.2
100339.8
100333.56
100328.38
100324.26
100321.13
100318.47
100315.64
100313.74
100315.4
100316.55
100302.83
100283.66
100320.35
100403.37
88813.22
89618.655
89603.876
90400.878
90553.439
91218.009
91591.136
92138.991
92641.061
93173.018
93711.283
94257.125
94806.127
95354.566
95898.151
96432.415
96952.772
97454.705
97933.934
98386.608
98809.456
99199.914
99556.194
99877.304
100163.02
100413.84
100630.83
100815.59
100970.09
101096.55
101197.37
101275.01
101331.94
101370.56
101393.17
101401.92
101398.82
101385.72
101364.29
101336.02
101302.27
101264.22
101222.91
101179.27
101134.09
101088.05
101041.74
100995.66
100950.23
100905.8
100862.66
100821.03
100781.12
100743.07
100706.99
100672.96
100641.03
100611.25
100583.63
100558.15
100534.79
100513.51
100494.25
100476.92
100461.45
100447.73
100435.66
100425.09
100415.96
100408.25
100401.79
100395.94
100390.3
100386.5
100386.59
100384.55
100366.68
100347.56
100391.22
100470.8
89285.008
90229.985
90234.286
91146.588
91367.345
92109.869
92580.161
93199.113
93787.591
94396.516
95009.103
95623.181
96232.971
96832.971
97417.308
97980.173
98516.056
99020.014
99487.9
99916.532
100303.78
100648.59
100950.9
101211.58
101432.23
101615.07
101762.73
101878.14
101964.37
102024.53
102061.67
102078.71
102078.42
102063.35
102035.85
101998.04
101951.84
101898.93
101840.81
101778.8
101714.03
101647.5
101580.05
101512.41
101445.19
101378.91
101314
101250.8
101189.61
101130.65
101074.11
101020.12
100968.77
100920.13
100874.25
100831.14
100790.79
100753.19
100718.3
100686.08
100656.46
100629.37
100604.7
100582.36
100562.24
100544.23
100528.18
100513.96
100501.53
100490.83
100481.56
100473.04
100465.27
100460.2
100458.89
100453.59
100432.64
100416.32
100466.12
100540.37
89890.041
91012.238
91045.877
92092.116
92399.921
93228.411
93814.724
94518.393
95202.855
95897.245
96587.698
97268.508
97931.705
98569.73
99175.331
99742.063
100264.6
100738.99
101162.7
101534.68
101855.23
102125.78
102348.73
102527.18
102664.7
102765.16
102832.5
102870.64
102883.36
102874.22
102846.52
102803.28
102747.23
102680.79
102606.12
102525.1
102439.38
102350.39
102259.35
102167.31
102075.16
101983.65
101893.4
101804.94
101718.7
101635
101554.13
101476.3
101401.67
101330.36
101262.43
101197.94
101136.91
101079.32
101025.16
100974.38
100926.93
100882.74
100841.75
100803.86
100768.99
100737.01
100707.83
100681.31
100657.33
100635.75
100616.42
100599.22
100584.11
100570.97
100559.39
100548.77
100539.52
100533.68
100531.01
100522.6
100499.94
100488.62
100543.67
100609.09
90657.383
91993.075
92070.753
93270.687
93699.376
94625.832
95349.779
96154.798
96942.691
97724.721
98486.471
99218.661
99911.38
100556.11
101145.92
101675.84
102142.96
102546.35
102886.9
103167.01
103390.24
103560.94
103683.99
103764.5
103807.56
103818.12
103800.86
103760.08
103699.73
103623.33
103534.02
103434.55
103327.31
103214.4
103097.58
102978.37
102858.08
102737.78
102618.39
102500.67
102385.22
102272.56
102163.1
102057.15
101954.96
101856.72
101762.56
101672.55
101586.76
101505.19
101427.84
101354.67
101285.62
101220.64
101159.64
101102.53
101049.23
100999.62
100953.61
100911.07
100871.89
100835.92
100803.05
100773.13
100746.01
100721.55
100699.59
100680.02
100662.79
100647.71
100634.29
100622.12
100611.97
100605.66
100601.6
100590.6
100567.93
100562.28
100619.7
100673.28
91617.178
93219.65
93378.084
94748.95
95344.37
96384.827
97263.47
98180.272
99065.912
99918.438
100721.89
101465.25
102139.26
102737.66
103257.14
103697.18
104059.72
104348.62
104569.17
104727.56
104830.46
104884.64
104896.7
104872.87
104818.92
104740.06
104640.94
104525.65
104397.77
104260.36
104116.06
103967.12
103815.42
103662.56
103509.87
103358.43
103209.16
103062.78
102919.9
102780.98
102646.4
102516.42
102391.26
102271.06
102155.91
102045.86
101940.91
101841.04
101746.21
101656.35
101571.37
101491.17
101415.65
101344.69
101278.17
101215.96
101157.93
101103.96
101053.9
101007.63
100964.99
100925.83
100890.02
100857.39
100827.79
100801.05
100777.03
100755.64
100736.78
100720.18
100705.35
100692.1
100681.47
100674.76
100669.28
100656.42
100635.01
100634.22
100690.19
100731.95
92852.957
94792.519
95076.668
96639.116
97448.849
98611.989
99640.379
100653.62
101600.02
102470.92
103252.51
103937.07
104520.89
105004.36
105391.14
105687.43
105901.12
106041.03
106116.33
106136.03
106108.66
106042.1
105943.41
105818.85
105673.86
105513.14
105340.7
105159.9
104973.6
104784.16
104593.54
104403.36
104214.93
104029.34
103847.45
103669.92
103497.32
103330.03
103168.37
103012.57
102862.76
102719.04
102581.44
102449.96
102324.55
102205.16
102091.68
101984.01
101882.03
101785.61
101694.6
101608.84
101528.2
101452.51
101381.62
101315.37
101253.61
101196.19
101142.94
101093.72
101048.37
101006.71
100968.59
100933.86
100902.33
100873.84
100848.26
100825.49
100805.38
100787.61
100771.72
100757.79
100746.91
100739.73
100732.78
100718.61
100699.07
100701.89
100753.96
100786.02
94496.97
96852.974
97317.954
99070.243
100129.53
101400.63
102526.31
103569.39
104492.06
105288.04
105953.06
106489.25
106903.18
107204.73
107405.72
107518.85
107556.76
107531.52
107454.19
107334.65
107181.55
107002.3
106803.23
106589.63
106365.91
106135.7
105902
105667.23
105433.36
105201.99
104974.36
104751.47
104534.11
104322.86
104118.16
103920.35
103729.64
103546.17
103370.01
103201.17
103039.63
102885.31
102738.12
102597.94
102464.62
102338.01
102217.94
102104.24
101996.72
101895.21
101799.52
101709.45
101624.82
101545.45
101471.16
101401.76
101337.1
101276.99
101221.27
101169.76
101122.3
101078.71
101038.83
101002.48
100969.47
100939.66
100912.91
100889.11
100868.05
100849.37
100832.73
100818.4
100807.35
100799.54
100791.11
100776.19
100759.05
100764.69
100811.15
100833.32
96740.27
99562.72
100271.01
102164.05
103435.18
104753.68
105859.83
106804.98
107576.03
108178.71
108624.06
108927.87
109108.07
109183.1
109170.66
109086.95
108946.33
108761.17
108541.96
108297.42
108034.74
107759.77
107477.26
107191.01
106904.04
106618.76
106337.07
106060.41
105789.94
105526.5
105270.73
105023.09
104783.9
104553.36
104331.56
104118.55
103914.29
103718.71
103531.7
103353.11
103182.78
103020.51
102866.11
102719.38
102580.09
102448.03
102322.97
102204.68
102092.96
101987.56
101888.28
101794.91
101707.22
101625.02
101548.11
101476.29
101409.38
101347.21
101289.58
101236.31
101187.24
101142.17
101100.93
101063.34
101029.23
100998.42
100970.79
100946.2
100924.39
100905.01
100887.85
100873.27
100861.97
100853.3
100843.45
100828.42
100814
100821.06
100859.8
100872.98
99836.692
103036.78
104052.89
106012.65
107325.24
108496.63
109416.58
110109.83
110594.1
110896.08
111043.77
111064.69
110984
110823.7
110602.46
110335.7
110036
109713.4
109375.92
109029.83
108680.05
108330.37
107983.72
107642.33
107307.89
106981.65
106664.51
106357.11
106059.9
105773.13
105496.95
105231.4
104976.43
104731.95
104497.8
104273.8
104059.74
103855.39
103660.5
103474.81
103298.05
103129.97
102970.27
102818.71
102675
102538.88
102410.09
102288.37
102173.46
102065.13
101963.14
101867.23
101777.21
101692.83
101613.9
101540.21
101471.57
101407.79
101348.68
101294.05
101243.72
101197.51
101155.23
101116.69
101081.72
101050.15
101021.84
100996.6
100974.17
100954.22
100936.67
100921.85
100910.1
100900.34
100889.3
100874.74
100862.95
100869.99
100899.62
100904.17
104044.24
107459.09
108678.82
110375.33
111505.07
112339.01
112876.05
113170.99
113268.52
113211.8
113037.34
112775.47
112450.46
112081.39
111683.04
111266.71
110840.97
110412.24
109985.33
109563.79
109150.21
108746.45
108353.81
107973.21
107605.19
107250.11
106908.11
106579.21
106263.31
105960.25
105669.81
105391.72
105125.69
104871.41
104628.55
104396.77
104175.74
103965.11
103764.55
103573.71
103392.27
103219.91
103056.3
102901.13
102754.1
102614.91
102483.27
102358.91
102241.54
102130.92
102026.78
101928.88
101836.99
101750.87
101670.31
101595.1
101525.05
101459.95
101399.63
101343.88
101292.52
101245.36
101202.21
101162.89
101127.2
101094.99
101066.09
101040.28
101017.29
100996.86
100978.94
100963.74
100951.28
100940.36
100928.52
100914.95
100905.27
100910.17
100928.86
100927.33
109292.48
112670.29
113793.62
114925.28
115540.23
115826.86
115849.8
115682.56
115379.31
114982.57
114523.89
114026.56
113507.47
112978.76
112449.08
111924.55
111409.42
110906.59
110418.02
109944.95
109488.1
109047.85
108624.29
108217.35
107826.81
107452.36
107093.61
106750.17
106421.58
106107.39
105807.13
105520.35
105246.57
104985.36
104736.27
104498.86
104272.72
104057.43
103852.6
103657.85
103472.79
103297.07
103130.35
102972.28
102822.53
102680.8
102546.78
102420.18
102300.71
102188.1
102082.09
101982.42
101888.86
101801.17
101719.14
101642.54
101571.19
101504.89
101443.43
101386.64
101334.31
101286.27
101242.31
101202.24
101165.88
101133.06
101103.56
101077.18
101053.64
101032.72
101014.36
100998.61
100985.26
100973.3
100961.15
100948.59
100939.43
100940.27
100950.2
100945.8
115532.05
118052.16
118666.23
118950.02
118857.66
118530.31
118047.5
117469.89
116838.16
116179.86
115513.29
114850.47
114199.23
113564.49
112949.31
112355.4
111783.64
111234.31
110707.31
110202.27
109718.68
109255.9
108813.26
108390.04
107985.54
107599.02
107229.8
106877.2
106540.54
106219.21
105912.6
105620.11
105341.2
105075.33
104821.98
104580.67
104350.93
104132.32
103924.39
103726.74
103538.98
103360.71
103191.59
103031.25
102879.35
102735.59
102599.63
102471.19
102349.97
102235.7
102128.11
102026.94
101931.95
101842.9
101759.58
101681.77
101609.27
101541.88
101479.42
101421.68
101368.48
101319.62
101274.91
101234.16
101197.17
101163.75
101133.69
101106.75
101082.68
101061.27
101042.42
101026.01
101011.74
100998.84
100986.45
100974.69
100965.82
100962.86
100964.15
100957.66
122177.03
122620.59
122404.17
121856.3
121125.88
120302.96
119443.71
118579.93
117730.17
116904.67
116108.89
115345.36
114614.91
113917.35
113251.9
112617.46
112012.77
111436.47
110887.23
110363.72
109864.68
109388.9
108935.24
108502.62
108090.04
107696.54
107321.24
106963.29
106621.93
106296.41
105986.04
105690.17
105408.19
105139.51
104883.58
104639.88
104407.92
104187.23
103977.35
103777.87
103588.36
103408.44
103237.73
103075.88
102922.54
102777.38
102640.09
102510.37
102387.91
102272.45
102163.7
102061.42
101965.36
101875.28
101790.97
101712.2
101638.78
101570.51
101507.19
101448.65
101394.69
101345.11
101299.73
101258.35
101220.77
101186.78
101156.17
101128.7
101104.12
101082.24
101062.87
101045.81
101030.72
101017.13
101004.66
100993.42
100984.12
100977.37
100972.34
100965.86
126058.71
125433.66
124518.68
123466.85
122382.75
121310.43
120272.6
119278.59
118331.84
117432.62
116579.65
115770.88
115003.96
114276.48
113586.04
112930.38
112307.37
111715.02
111151.52
110615.18
110104.46
109617.93
109154.28
108712.31
108290.9
107889.04
107505.75
107140.17
106791.47
106458.88
106141.68
105839.21
105550.83
105275.94
105014
104764.46
104526.83
104300.63
104085.41
103880.73
103686.19
103501.39
103325.96
103159.53
103001.77
102852.33
102710.91
102577.2
102450.9
102331.74
102219.45
102113.76
102014.43
101921.22
101833.92
101752.3
101676.17
101605.33
101539.59
101478.76
101422.65
101371.07
101323.83
101280.73
101241.57
101206.13
101174.18
101145.48
101119.8
101096.93
101076.63
101058.62
101042.58
101028.23
101015.48
101004.29
100994.32
100984.95
100976.29
100970.34
103944.99
103917.68
103964.79
104012.29
104047.39
104056.57
104038.57
104008.46
103972.36
103926.97
103867.95
103795.95
103714.71
103629.01
103539.69
103446.81
103350.69
103251.8
103150.56
103047.34
102942.51
102836.41
102729.35
102621.63
102513.51
102405.25
102297.08
102189.22
102081.86
101975.2
101869.42
101764.68
101661.16
101559.01
101458.38
101359.42
101262.27
101167.07
101073.97
100983.1
100894.59
100808.59
100725.23
100644.63
100566.92
100492.25
100420.72
100352.46
100287.59
100226.2
100168.4
100114.27
100063.9
100017.34
99974.647
99935.852
99900.968
99869.992
99842.903
99819.656
99800.184
99784.392
99772.158
99763.332
99757.722
99755.129
99755.266
99757.965
99762.767
99769.771
99778.193
99788.586
99800.322
99812.363
99829.961
99836.919
99871.268
99854.194
99930.51
99859.662
103283.85
103277.75
103292.15
103309.1
103308.28
103301.41
103291
103273.86
103245.14
103210.65
103169.26
103122.68
103070.22
103012.98
102951.01
102884.98
102815.12
102741.77
102665.25
102585.88
102503.94
102419.75
102333.57
102245.69
102156.39
102065.92
101974.55
101882.53
101790.09
101697.47
101604.9
101512.61
101420.81
101329.7
101239.49
101150.38
101062.56
100976.22
100891.54
100808.7
100727.88
100649.24
100572.96
100499.19
100428.1
100359.83
100294.53
100232.34
100173.39
100117.8
100065.67
100017.11
99972.187
99930.975
99893.52
99859.854
99829.983
99803.9
99781.572
99762.947
99747.945
99736.462
99728.362
99723.485
99721.628
99722.58
99726.055
99731.863
99739.572
99749.252
99760.166
99772.882
99786.689
99800.909
99819.955
99829.346
99864.059
99849.791
99926.254
99855.718
102858.23
102843.35
102816.26
102787.85
102759.91
102733.87
102702.95
102672.61
102638.59
102603.95
102565.3
102525.18
102481.46
102435.55
102386.54
102334.96
102280.61
102223.67
102164.18
102102.26
102038.03
101971.62
101903.18
101832.87
101760.86
101687.34
101612.49
101536.51
101459.59
101381.96
101303.8
101225.35
101146.81
101068.4
100990.34
100912.83
100836.1
100760.36
100685.82
100612.68
100541.14
100471.42
100403.69
100338.15
100274.99
100214.38
100156.49
100101.48
100049.49
100000.66
99955.112
99912.947
99874.256
99839.109
99807.557
99779.63
99755.334
99734.654
99717.552
99703.967
99693.81
99686.966
99683.292
99682.617
99684.732
99689.418
99696.39
99705.449
99716.182
99728.643
99742.132
99757.232
99773.166
99789.555
99810.133
99821.834
99857.135
99845.314
99922.172
99851.955
102273.72
102251.58
102223.37
102192.37
102161.58
102134.21
102102.49
102073.6
102040.6
102009.5
101974.92
101941.02
101904.38
101867.29
101828.09
101787.56
101745.22
101701.2
101655.39
101607.79
101558.39
101507.2
101454.25
101399.61
101343.34
101285.52
101226.28
101165.73
101104.01
101041.27
100977.68
100913.42
100848.68
100783.65
100718.53
100653.53
100588.87
100524.76
100461.42
100399.06
100337.91
100278.18
100220.08
100163.83
100109.63
100057.66
100008.13
99961.197
99917.033
99875.784
99837.582
99802.545
99770.767
99742.324
99717.268
99695.63
99677.414
99662.6
99651.145
99642.979
99638.007
99636.105
99637.121
99640.876
99647.159
99655.745
99666.355
99678.786
99692.645
99707.976
99724.111
99741.648
99759.753
99778.308
99800.476
99814.379
99850.448
99840.806
99918.279
99848.384
101556.52
101540.43
101524.66
101506.07
101485.57
101469.37
101447.33
101429.63
101406.6
101386.81
101362.63
101340.22
101314.68
101289.56
101262.39
101234.39
101204.8
101173.88
101141.47
101107.53
101072.04
101034.98
100996.35
100956.15
100914.43
100871.21
100826.57
100780.57
100733.32
100684.91
100635.48
100585.17
100534.12
100482.5
100430.49
100378.28
100326.07
100274.06
100222.47
100171.51
100121.4
100072.36
100024.61
99978.384
99933.88
99891.309
99850.869
99812.745
99777.111
99744.127
99713.933
99686.651
99662.383
99641.207
99623.175
99608.318
99596.638
99588.111
99582.686
99580.287
99580.81
99584.123
99590.069
99598.462
99609.089
99621.725
99636.098
99652.006
99669.078
99687.353
99706.195
99726.214
99746.525
99767.246
99791.029
99807.048
99843.987
99836.386
99914.562
99845.025
100844.16
100837.68
100833.09
100827.57
100818.05
100813.75
100802.15
100796.42
100783.89
100775.9
100762.31
100751.49
100736.84
100723.26
100707.45
100691.13
100673.23
100654.22
100633.87
100612.2
100589.19
100564.8
100539.02
100511.84
100483.28
100453.34
100422.05
100389.47
100355.64
100320.65
100284.57
100247.52
100209.62
100170.99
100131.8
100092.2
100052.38
100012.51
99972.796
99933.448
99894.676
99856.694
99819.722
99783.977
99749.673
99717.017
99686.211
99657.444
99630.894
99606.722
99585.074
99566.073
99549.82
99536.393
99525.843
99518.199
99513.457
99511.587
99512.531
99516.206
99522.499
99531.272
99542.36
99555.573
99570.698
99587.512
99605.754
99625.225
99645.582
99666.858
99688.455
99710.99
99733.534
99756.419
99781.82
99799.892
99837.744
99832.126
99911.002
99841.906
100196.57
100196.56
100197.4
100200.34
100197.97
100202.33
100197.98
100201.25
100196.28
100197.43
100192.27
100191.34
100185.8
100181.48
100174.68
100167.9
100159.74
100150.78
100140.75
100129.66
100117.46
100104.11
100089.59
100073.87
100056.95
100038.82
100019.49
99998.979
99977.322
99954.568
99930.778
99906.031
99880.42
99854.054
99827.057
99799.568
99771.741
99743.74
99715.745
99687.943
99660.529
99633.707
99607.681
99582.657
99558.842
99536.436
99515.632
99496.616
99479.562
99464.627
99451.951
99441.654
99433.832
99428.558
99425.879
99425.814
99428.354
99433.461
99441.067
99451.081
99463.382
99477.824
99494.236
99512.425
99532.179
99553.278
99575.474
99598.576
99622.269
99646.588
99670.972
99696.043
99720.837
99745.882
99772.891
99792.982
99831.732
99828.073
99907.589
99839.05
99613.771
99618.791
99622.729
99630.896