/*--------------------------------*- C++ -*----------------------------------*\
  =========                 |
  \\      /  F ield         | OpenFOAM: The Open Source CFD Toolbox
   \\    /   O peration     | Website:  https://openfoam.org
    \\  /    A nd           | Version:  12
     \\/     M anipulation  |
\*---------------------------------------------------------------------------*/
FoamFile
{
    format      ascii;
    class       volVectorField;
    location    "0.096";
    object      U;
}
// * * * * * * * * * * * * * * * * * * * * * * * * * * * * * * * * * * * * * //

dimensions      [0 1 -1 0 0 0 0];

internalField   nonuniform List<vector> 
16000
(
(215.80186 -3.135988e-17 -8.3941496)
(252.74905 0 5.3925766)
(238.78405 0 -7.5834415)
(246.51251 4.9624844e-17 3.7910137)
(241.81888 -4.8983962e-17 -5.9662838)
(244.02754 0 1.7562036)
(242.23148 0 -4.3352337)
(242.73748 8.3843724e-17 -0.029031394)
(241.89701 -7.9657978e-17 -3.1658598)
(241.77487 0 -1.2704393)
(241.26052 7.1977182e-17 -2.5704822)
(240.91265 -2.0506296e-16 -1.9885736)
(240.46854 1.2979198e-16 -2.4281066)
(240.03933 -1.234627e-16 -2.3649043)
(239.58205 1.1714168e-16 -2.5261589)
(239.11092 -3.4748844e-18 -2.598039)
(238.62118 -3.301007e-18 -2.7015039)
(238.11373 -9.7407656e-17 -2.7942341)
(237.58804 1.9084264e-16 -2.8887382)
(237.04396 -9.0547559e-17 -2.981044)
(236.48135 1.7223495e-16 -3.071537)
(235.90013 -1.6326427e-16 -3.1595212)
(235.3003 0 -3.2444999)
(234.68196 1.5197486e-16 -3.3258935)
(234.04529 -4.1126151e-18 -3.4031142)
(233.39059 -2.6524517e-16 -3.4755422)
(232.71827 1.2571724e-16 -3.542551)
(232.02886 0 -3.6035009)
(231.32302 0 -3.6577556)
(230.60153 2.1833312e-16 -3.7046872)
(229.86532 -2.0342832e-16 -3.7436894)
(229.11545 0 -3.7741864)
(228.35313 0 -3.7956442)
(227.57969 0 -3.8075846)
(226.7966 5.1324117e-18 -3.8095951)
(226.00543 1.5575804e-16 -3.801341)
(225.20787 -1.4258366e-16 -3.7825769)
(224.40572 -1.396512e-16 -3.7531544)
(223.60084 1.2365283e-16 -3.7130314)
(222.79515 0 -3.6622794)
(221.99061 -1.1834855e-16 -3.6010848)
(221.18921 1.1170824e-16 -3.5297526)
(220.39293 -2.1170988e-16 -3.4487037)
(219.60369 1.9974381e-16 -3.3584715)
(218.82339 -1.9508112e-16 -3.2596956)
(218.05385 3.5716489e-16 -3.15311)
(217.29677 5.5961262e-18 -3.0395336)
(216.55375 2.9705821e-19 -2.919854)
(215.82626 -1.503386e-16 -2.7950117)
(215.11558 1.4218826e-16 -2.6659824)
(214.42286 -1.2559708e-16 -2.5337583)
(213.74907 0 -2.3993286)
(213.09499 7.4649357e-18 -2.2636631)
(212.46119 0 -2.1276939)
(211.84809 6.6429985e-18 -1.9923002)
(211.25589 2.0685083e-16 -1.8582961)
(210.68465 -3.7807738e-16 -1.726419)
(210.13424 1.0917881e-17 -1.5973203)
(209.60441 1.6801006e-16 -1.4715583)
(209.0947 -1.4871443e-16 -1.3496114)
(208.60445 1.4008301e-16 -1.2318576)
(208.13288 -8.814901e-18 -1.118627)
(207.67906 0 -1.0101677)
(207.24175 0 -0.90665673)
(206.81944 -1.1109032e-16 -0.80822722)
(206.41031 1.1177263e-16 -0.71497558)
(206.01219 -9.9043693e-17 -0.62699349)
(205.62263 1.9333604e-16 -0.5443913)
(205.23906 -1.8868757e-16 -0.46730989)
(204.85906 8.3652215e-17 -0.39593723)
(204.4807 5.2827102e-18 -0.33048865)
(204.10259 0 -0.27104205)
(203.72365 4.7499748e-18 -0.21768429)
(203.34167 -4.5120642e-18 -0.17143746)
(202.95317 0 -0.13248556)
(202.55893 -3.3743377e-17 -0.096276742)
(202.16008 6.2458657e-17 -0.069043219)
(201.72357 -3.1737285e-17 -0.062833179)
(201.29104 0 0.0037992323)
(200.89437 0 0.026711504)
(217.11559 0 -11.218717)
(254.38726 -3.721e-18 3.3442301)
(239.79357 -1.1959616e-16 -10.513014)
(247.97322 1.1026192e-16 1.7046279)
(242.9241 0 -8.8320873)
(245.36564 1.0144807e-16 -0.40314257)
(243.36476 -1.8733727e-16 -7.0844488)
(243.96024 -1.0241035e-19 -2.3119663)
(243.02841 8.4425244e-17 -5.7596817)
(242.90736 0 -3.6716349)
(242.35234 -1.5250238e-16 -5.049426)
(241.97571 1.4917532e-16 -4.4351056)
(241.49971 1.4188104e-16 -4.8608935)
(241.03623 -2.6118316e-16 -4.7984981)
(240.54453 1.2006735e-16 -4.9395655)
(240.0371 1.1038399e-17 -5.0040818)
(239.51006 1.15428e-16 -5.0919058)
(238.964 -1.0280164e-16 -5.1708402)
(238.39855 0 -5.2492167)
(237.8136 0 -5.3243433)
(237.20906 5.6727883e-18 -5.3961033)
(236.58497 -1.7796158e-16 -5.463792)
(235.94144 3.3744954e-16 -5.5267794)
(235.27869 -3.1532325e-16 -5.5843863)
(234.59706 1.4252373e-16 -5.6359187)
(233.897 0 -5.6806687)
(233.1791 1.2430841e-16 -5.7179195)
(232.4441 -1.3329615e-16 -5.7469612)
(231.69284 0 -5.7670975)
(230.92636 3.5226831e-18 -5.7776579)
(230.1458 -1.336166e-17 -5.7780087)
(229.35247 0 -5.7675688)
(228.54782 0 -5.7458174)
(227.73343 -1.7050224e-16 -5.712314)
(226.911 3.385612e-16 -5.6667069)
(226.08236 -1.6257511e-16 -5.6087465)
(225.24941 -1.5898375e-16 -5.5382986)
(224.41416 1.4551189e-16 -5.4553499)
(223.57865 -1.1207819e-16 -5.3600188)
(222.74497 -2.8611635e-19 -5.2525584)
(221.91521 -2.6763369e-19 -5.133359)
(221.09143 2.3263761e-16 -5.0029463)
(220.27566 -1.0976224e-16 -4.8619772)
(219.46987 0 -4.711231)
(218.67591 2.0224858e-16 -4.5515999)
(217.89553 1.1930192e-17 -4.3840736)
(217.13034 -5.1142844e-18 -4.2097232)
(216.3818 -1.6443851e-16 -4.0296829)
(215.65119 0 -3.8451295)
(214.93964 -1.4647061e-16 -3.6572619)
(214.24807 -8.853965e-18 -3.4672802)
(213.57722 2.599662e-16 -3.2763631)
(212.92762 -1.3001616e-16 -3.0856501)
(212.29963 0 -2.8962224)
(211.69342 -2.0371886e-17 -2.709087)
(211.10896 -2.110964e-16 -2.525165)
(210.54608 3.6108538e-16 -2.3452802)
(210.00446 -2.1516428e-16 -2.1701518)
(209.48364 0 -2.0003895)
(208.98301 -1.7071236e-16 -1.8365069)
(208.50177 1.7939547e-16 -1.6789016)
(208.03903 2.6673202e-17 -1.5279046)
(207.59375 0 -1.3837697)
(207.16464 -1.4182399e-16 -1.2466613)
(206.75017 7.3187638e-18 -1.1166921)
(206.34852 1.116604e-16 -0.99392838)
(205.95756 -1.9728537e-17 -0.87842048)
(205.5749 9.2963336e-17 -0.77022979)
(205.19796 -1.0508459e-16 -0.66945204)
(204.82427 5.5066174e-18 -0.57624827)
(204.45176 -5.1960089e-18 -0.49078749)
(204.07906 0 -0.41302476)
(203.70505 -4.636445e-18 -0.34303526)
(203.32725 4.3854904e-18 -0.28195229)
(202.94269 8.3061071e-18 -0.22896945)
(202.55241 9.8419883e-19 -0.1793664)
(202.14983 0 -0.14514468)
(201.7143 3.0215164e-17 -0.12615465)
(201.29732 -5.7567436e-17 -0.034862673)
(200.84392 2.5849228e-17 -0.055721268)
(218.29515 0 -14.116624)
(255.87264 -1.2238996e-16 1.0963033)
(240.73751 2.4959663e-16 -13.527147)
(249.23477 -2.2290245e-16 -0.54977844)
(243.92456 1.1008897e-16 -11.772265)
(246.5023 -3.2598083e-18 -2.7543701)
(244.3737 9.9219875e-17 -9.8805504)
(244.99473 -9.3969329e-17 -4.7922142)
(244.00598 -5.5783279e-18 -8.4175808)
(243.86148 -5.2966131e-18 -6.2385338)
(243.27105 -1.0061696e-17 -7.6270634)
(242.85832 1.3881844e-16 -7.0184684)
(242.34679 -1.4071201e-16 -7.4128314)
(241.84474 1.3810157e-16 -7.3574165)
(241.31389 -1.1863682e-16 -7.477022)
(240.76565 -1.5549144e-17 -7.5333996)
(240.19652 0 -7.6055162)
(239.60712 -1.2283636e-20 -7.6694922)
(238.99714 -2.2616077e-16 -7.7306743)
(238.36656 -3.6752454e-19 -7.7870393)
(237.71543 1.7334696e-16 -7.8381555)
(237.0439 1.7027631e-17 -7.8832326)
(236.35224 -2.1537749e-17 -7.9215191)
(235.64083 0 -7.9522305)
(234.9102 7.1731268e-21 -7.9745759)
(234.161 -1.6533794e-16 -7.987761)
(233.39404 1.4771096e-16 -7.9909997)
(232.61029 8.2441477e-18 -7.983522)
(231.81085 0 -7.9645932)
(230.99702 -7.3961838e-18 -7.93352)
(230.17023 -1.4811298e-21 -7.8896714)
(229.33208 -1.9909755e-16 -7.8324902)
(228.48429 2.0051641e-16 -7.7615091)
(227.62874 1.1882157e-17 -7.6763689)
(226.76742 -1.7987701e-16 -7.5768274)
(225.90242 1.4845303e-16 -7.4627767)
(225.03589 -1.8089191e-16 -7.3342519)
(224.17006 1.5161983e-16 -7.1914402)
(223.30717 -1.4356175e-16 -7.0346834)
(222.44944 1.3530068e-16 -6.8644832)
(221.59908 1.5998176e-17 -6.6814976)
(220.75822 0 -6.4865332)
(219.9289 1.9956527e-16 -6.2805376)
(219.11305 -2.4155429e-16 -6.0645851)
(218.31243 0 -5.8398595)
(217.52867 1.7928269e-16 -5.6076366)
(216.76322 -1.5732515e-16 -5.3692598)
(216.01732 1.6974793e-16 -5.1261195)
(215.29202 -1.7954812e-16 -4.8796279)
(214.58817 0 -4.6311965)
(213.90643 1.7705087e-16 -4.3822128)
(213.24723 -1.330604e-16 -4.1340165)
(212.61081 0 -3.8878812)
(211.99725 0 -3.6449964)
(211.4064 1.2467532e-16 -3.4064517)
(210.83798 -2.0821632e-16 -3.1732283)
(210.29156 1.2222783e-16 -2.9461889)
(209.76656 1.8394959e-16 -2.7260743)
(209.26232 1.9817184e-19 -2.5135003)
(208.77804 1.7616884e-19 -2.3089718)
(208.31277 -3.2378931e-16 -2.1128718)
(207.86547 8.9359742e-17 -1.9254958)
(207.43501 0 -1.7470705)
(207.02002 1.4202733e-16 -1.5777213)
(206.61896 -1.6292226e-16 -1.4175151)
(206.22999 1.1135873e-16 -1.2664679)
(205.85106 1.3143494e-17 -1.1245709)
(205.47983 -8.5931913e-17 -0.99182185)
(205.11382 1.1539799e-17 -0.86826408)
(204.75052 2.1702688e-17 -0.75402728)
(204.38782 -1.0206182e-16 -0.64922326)
(204.02431 9.5991139e-17 -0.55372803)
(203.65879 -7.2326512e-17 -0.46770377)
(203.28872 1.3624158e-16 -0.39212995)
(202.9118 -5.618113e-17 -0.3250021)
(202.52806 -6.0616164e-17 -0.26300485)
(202.12654 5.0080666e-17 -0.22171171)
(201.69678 0 -0.18554283)
(201.2897 3.2046963e-18 -0.077918644)
(200.80057 -1.2153584e-17 -0.13895823)
(219.31542 0 -17.084281)
(257.20881 0 -1.2860787)
(241.49772 0 -16.677038)
(250.31654 1.0652212e-16 -2.9127278)
(244.73903 -1.2368917e-16 -14.843355)
(247.47235 -2.2029057e-16 -5.2243729)
(245.20139 2.0951632e-16 -12.795696)
(245.85082 -1.2409397e-17 -7.4004264)
(244.79772 5.9090852e-18 -11.186457)
(244.62576 -1.7376613e-16 -8.9374659)
(243.99533 1.7011507e-16 -10.316417)
(243.541 1.0110031e-17 -9.7275978)
(242.98905 -1.5352223e-16 -10.082446)
(242.44311 1.3637712e-16 -10.035549)
(241.86798 -1.3691926e-20 -10.132371)
(241.27377 -8.179072e-18 -10.1786)
(240.65757 0 -10.233364)
(240.01993 -7.3834752e-18 -10.279896)
(239.36068 -2.1017677e-16 -10.321203)
(238.67993 2.1222079e-16 -10.35571)
(237.97787 1.2597249e-17 -10.382755)
(237.25479 -1.1943356e-17 -10.401461)
(236.51114 2.1522301e-16 -10.410976)
(235.74749 -1.7143617e-16 -10.410423)
(234.96459 1.0166708e-17 -10.398919)
(234.16333 1.9277923e-16 -10.375598)
(233.3448 -1.2752351e-16 -10.33961)
(232.51024 0 -10.290143)
(231.66109 1.4735549e-16 -10.226437)
(230.79894 -1.2368712e-16 -10.147805)
(229.92557 2.4927949e-16 -10.053645)
(229.04291 -1.3313519e-17 -9.9434669)
(228.15303 -2.0939122e-16 -9.8169008)
(227.25812 1.736754e-16 -9.6737204)
(226.3605 -1.8709223e-16 -9.5138525)
(225.46251 -3.0171013e-20 -9.3373932)
(224.56658 2.0915729e-16 -9.1446136)
(223.67514 -3.1565388e-16 -8.935965)
(222.79058 9.2902478e-17 -8.712081)
(221.91524 3.5173995e-17 -8.4737722)
(221.05138 -4.9737348e-17 -8.2220208)
(220.20113 0 -7.9579646)
(219.36646 -8.8502757e-17 -7.6828834)
(218.54918 1.3861138e-16 -7.3981762)
(217.75091 -2.0929378e-16 -7.1053397)
(216.97304 1.9665193e-16 -6.8059443)
(216.21675 -2.0858199e-16 -6.5016043)
(215.48299 3.9220566e-16 -6.1939538)
(214.77252 -3.0736312e-16 -5.8846198)
(214.08582 3.082178e-16 -5.575196)
(213.42321 -1.4466688e-16 -5.2672196)
(212.78477 1.3617927e-16 -4.9621495)
(212.1704 -9.573119e-17 -4.6613461)
(211.57982 3.0019198e-17 -4.3660586)
(211.01259 0 -4.0774097)
(210.46813 0 -3.7963912)
(209.94571 0 -3.5238578)
(209.44452 2.3237398e-17 -3.2605265)
(208.96367 0 -3.0069776)
(208.50217 -1.6355458e-16 -2.7636692)
(208.05893 1.9146842e-16 -2.5309373)
(207.63279 -1.0777063e-16 -2.3090135)
(207.2225 -1.1651002e-19 -2.0980665)
(206.82667 2.5214402e-16 -1.8981625)
(206.44371 2.9614027e-17 -1.7093032)
(206.07184 -1.3829979e-16 -1.5314396)
(205.70905 5.1864374e-17 -1.3644931)
(205.35313 -1.4571016e-16 -1.2083913)
(205.00165 -4.5531338e-17 -1.0631233)
(204.65217 -6.4005235e-17 -0.92877899)
(204.30249 -6.0022627e-17 -0.80540572)
(203.95115 5.6250085e-17 -0.6928501)
(203.59677 0 -0.59138609)
(203.23695 0 -0.50161503)
(202.87001 -1.5505102e-17 -0.42050095)
(202.49432 0 -0.3469482)
(202.0964 6.8491924e-18 -0.29785765)
(201.67522 5.1572305e-17 -0.24241904)
(201.2759 -7.2864754e-17 -0.12406627)
(200.75855 -1.1962169e-20 -0.22255951)
(220.15671 0 -20.250253)
(258.37163 -8.8055646e-18 -3.7457775)
(242.12356 2.6635431e-16 -19.962565)
(251.1769 -2.487787e-16 -5.4007798)
(245.31649 2.5386761e-16 -18.028926)
(248.23855 -2.3225997e-16 -7.8474144)
(245.82803 -2.2140852e-16 -15.81643)
(246.49482 2.0958911e-16 -10.166923)
(245.37982 0 -14.058521)
(245.17 0 -11.786643)
(244.49736 1.7962499e-16 -13.120315)
(243.99468 -1.7016906e-16 -12.56979)
(243.39761 -1.0109337e-17 -12.875387)
(242.8026 2.8754358e-17 -12.836246)
(242.17827 -9.0996701e-18 -12.908226)
(241.53328 3.4513012e-17 -12.940546)
(240.86528 0 -12.975005)
(240.17476 0 -13.000333)
(239.46168 -2.3570593e-16 -13.017933)
(238.72628 2.0903747e-16 -13.026452)
(237.96889 0 -13.025044)
(237.19001 0 -13.012725)
(236.3903 -1.9020306e-16 -12.988514)
(235.57059 3.5995627e-16 -12.951424)
(234.73192 -1.7024777e-16 -12.900476)
(233.87551 -2.0169467e-17 -12.834716)
(233.00277 -3.820132e-17 -12.753239)
(232.11534 -1.4475204e-16 -12.655204)
(231.21504 1.1951475e-16 -12.539857)
(230.30385 0 -12.40655)
(229.38397 -3.0610904e-17 -12.254767)
(228.45772 0 -12.08414)
(227.52755 0 -11.894467)
(226.59602 2.0665069e-16 -11.685732)
(225.66575 -2.1903365e-16 -11.458114)
(224.73939 2.2976854e-17 -11.211996)
(223.81958 -2.1680182e-17 -10.94797)
(222.90893 -4.0988366e-17 -10.666838)
(222.00993 -8.5990037e-20 -10.369601)
(221.12497 8.1685568e-20 -10.057451)
(220.25628 -7.7095599e-20 -9.7317552)
(219.40587 0 -9.394032)
(218.57557 -1.2168039e-16 -9.0459305)
(217.76696 1.1426344e-16 -8.6891981)
(216.98137 0 -8.3256525)
(216.21988 -5.0646172e-17 -7.9571552)
(215.4833 1.9035417e-16 -7.5855736)
(214.77221 -2.2314924e-16 -7.2127577)
(214.08693 -2.0994476e-16 -6.8405094)
(213.42756 1.5740402e-16 -6.470558)
(212.79399 1.1101654e-16 -6.1045368)
(212.18589 -1.3857468e-16 -5.7439653)
(211.6028 -3.2488974e-17 -5.3902308)
(211.04405 -2.1343799e-16 -5.0445806)
(210.50887 1.1415505e-16 -4.7081105)
(209.99636 -1.0706754e-16 -4.3817651)
(209.50553 1.0014605e-16 -4.0663366)
(209.03532 2.3464892e-16 -3.7624675)
(208.58461 -1.7549876e-16 -3.4706569)
(208.15225 0 -3.1912765)
(207.73701 -3.8405902e-17 -2.9245763)
(207.3376 -7.1891677e-17 -2.6706978)
(206.95273 1.3433698e-16 -2.4297203)
(206.58096 1.2568829e-16 -2.2016285)
(206.2207 -2.3488669e-16 -1.9863396)
(205.87022 8.2265369e-17 -1.7837242)
(205.52761 5.1283248e-17 -1.5936228)
(205.19076 9.5879148e-17 -1.4158885)
(204.85739 1.3441917e-16 -1.2504534)
(204.5251 2.4405117e-20 -1.0973567)
(204.19171 0 -0.95658051)
(203.85559 0 -0.82799656)
(203.51516 -3.4213722e-17 -0.7119791)
(203.1683 9.5994785e-17 -0.60855063)
(202.81387 -8.9782809e-17 -0.51394728)
(202.44822 -8.4045725e-17 -0.42982326)
(202.05665 5.2444718e-17 -0.37225117)
(201.64732 0 -0.29613969)
(201.2558 4.6077529e-17 -0.17154419)
(200.71563 2.0578459e-20 -0.30584926)
(220.79846 0 -23.588761)
(259.33529 1.8933724e-20 -6.2813428)
(242.55367 9.0635645e-18 -23.343455)
(251.86946 2.8813745e-16 -8.0276854)
(245.73745 3.3422665e-19 -21.318168)
(248.77274 -5.0540228e-16 -10.621465)
(246.20868 -3.2443528e-19 -18.932339)
(246.89773 4.5584048e-16 -13.096219)
(245.72085 -2.0973229e-16 -17.031586)
(245.46711 -1.244084e-17 -14.785485)
(244.75081 1.1815882e-17 -16.037581)
(244.19474 -1.7942001e-16 -15.538061)
(243.54883 1.9115004e-16 -15.786422)
(242.90055 -1.8162643e-16 -15.750966)
(242.22267 3.0595445e-16 -15.795811)
(241.52235 -3.0826166e-16 -15.809734)
(240.79777 1.3738935e-16 -15.82047)
(240.04943 0 -15.820583)
(239.27748 0 -15.810339)
(238.48234 1.463519e-17 -15.788394)
(237.66461 -2.7750648e-17 -15.753685)
(236.82506 0 -15.705065)
(235.96468 1.992801e-16 -15.641398)
(235.08469 4.7344546e-19 -15.561573)
(234.18649 -3.5665104e-16 -15.464509)
(233.27177 1.6851993e-16 -15.349188)
(232.34238 1.993935e-17 -15.214684)
(231.40042 0 -15.06017)
(230.4482 -1.786257e-16 -14.88496)
(229.4882 1.346941e-16 -14.688522)
(228.52305 -2.2336543e-16 -14.470505)
(227.55554 2.1024078e-16 -14.230761)
(226.58854 -2.2754323e-16 -13.969353)
(225.62495 2.1418146e-16 -13.686584)
(224.66772 7.5927731e-17 -13.382989)
(223.71974 0 -13.059343)
(222.78383 0 -12.716665)
(221.86266 4.2318596e-17 -12.356193)
(220.95875 3.9859004e-17 -11.979382)
(220.07442 -3.7526833e-17 -11.587872)
(219.21172 3.5316284e-17 -11.183468)
(218.37246 6.6631956e-17 -10.768105)
(217.55816 -6.2582852e-17 -10.343818)
(216.77003 3.5285392e-16 -9.9127056)
(216.00901 -2.7601609e-16 -9.4768925)
(215.27572 5.1805845e-17 -9.0384996)
(214.57051 -4.874801e-17 -8.599606)
(213.89347 0 -8.1622233)
(213.24444 2.1426116e-16 -7.7282656)
(212.62304 -1.6048578e-16 -7.2995298)
(212.02868 0 -6.8776729)
(211.46062 0 -6.4642015)
(210.91797 1.3205819e-16 -6.0604571)
(210.39969 -6.1724518e-17 -5.6676142)
(209.90469 0 -5.2866761)
(209.43175 -1.6218323e-16 -4.9184781)
(208.97962 1.0095593e-16 -4.5636938)
(208.54702 1.4170808e-16 -4.2228413)
(208.13265 -1.7627408e-16 -3.8962942)
(207.73519 1.647676e-16 -3.5843006)
(207.35331 -1.536954e-16 -3.2869901)
(206.98564 6.7850302e-20 -3.0043881)
(206.63085 0 -2.7364597)
(206.28748 6.2475631e-17 -2.4830883)
(205.954 -2.9129845e-16 -2.2440916)
(205.62873 1.62919e-16 -2.0192476)
(205.30986 0 -1.8083104)
(204.99545 -1.4166117e-16 -1.6110581)
(204.68337 8.8000716e-17 -1.4273647)
(204.37132 1.2311593e-16 -1.2572047)
(204.05714 3.4177615e-20 -1.1005013)
(203.739 -7.1259442e-17 -0.95720207)
(203.41509 9.9660873e-17 -0.82772456)
(203.08368 -1.548208e-16 -0.71136475)
(202.744 8.6594064e-17 -0.60408366)
(202.39012 2.6899984e-17 -0.51049219)
(202.00739 5.0210311e-17 -0.44364569)
(201.61296 0 -0.34611821)
(201.22948 -4.3746202e-17 -0.21891478)
(200.67005 2.0365706e-17 -0.38729457)
(221.22485 0 -27.095828)
(260.0921 9.7980811e-18 -8.9234292)
(242.78324 -3.0556664e-16 -26.849734)
(252.37665 2.4948917e-16 -10.796445)
(245.9615 2.5627958e-16 -24.706666)
(249.06424 -4.9983917e-16 -13.550466)
(246.38842 2.2991605e-16 -22.130978)
(247.04369 2.327738e-16 -16.187984)
(245.82387 -2.206028e-16 -20.09022)
(245.50634 3.9267397e-17 -17.92055)
(244.74561 0 -19.055941)
(244.13069 0 -18.61662)
(243.43098 -2.2333386e-17 -18.804177)
(242.72359 -1.6956112e-16 -18.768216)
(241.98582 1.4032417e-16 -18.785278)
(241.22348 1.9036003e-17 -18.777317)
(240.43542 -3.6084944e-17 -18.761385)
(239.62226 3.0787564e-16 -18.73242)
(238.78447 -2.2624483e-16 -18.689887)
(237.92283 2.4557096e-16 -18.632329)
(237.03827 -2.029312e-16 -18.558474)
(236.13201 2.7514742e-17 -18.467018)
(235.2055 1.5632046e-16 -18.356693)
(234.26042 -1.9661068e-16 -18.226295)
(233.29873 0 -18.074695)
(232.32264 0 -17.900874)
(231.33458 0 -17.703952)
(230.33723 -1.9692877e-16 -17.483215)
(229.33345 1.8550708e-16 -17.238141)
(228.32627 -3.5151517e-17 -16.968423)
(227.31883 0 -16.674003)
(226.31439 -2.8179272e-16 -16.355077)
(225.31622 2.3551787e-16 -16.012112)
(224.32756 -5.5707775e-17 -15.645853)
(223.35159 1.5754372e-16 -15.257326)
(222.39138 -4.8954383e-17 -14.847819)
(221.44977 -1.8569857e-16 -14.418878)
(220.52942 2.190716e-16 -13.972278)
(219.63271 -1.6446519e-16 -13.509994)
(218.76169 7.7580479e-17 -13.03417)
(217.91812 -7.2796557e-17 -12.54708)
(217.1034 1.3684552e-16 -12.051085)
(216.31859 -6.4122149e-17 -11.548597)
(215.56439 -2.4134287e-16 -11.042033)
(214.84118 5.0890578e-16 -10.533779)
(214.14902 -2.1195441e-16 -10.026151)
(213.48769 -1.4936682e-16 -9.5213688)
(212.8567 9.2864128e-17 -9.0215206)
(212.25533 8.7358821e-17 -8.5285473)
(211.68269 -1.6342536e-16 -8.0442219)
(211.1377 1.5269251e-16 -7.5701371)
(210.61918 0 -7.107699)
(210.12581 1.3365296e-16 -6.6581222)
(209.65622 -1.8720671e-16 -6.2224326)
(209.20898 5.8340929e-17 -5.8014719)
(208.78263 5.4370775e-17 -5.395905)
(208.37569 0 -5.0062331)
(207.98668 0 -4.6328037)
(207.61415 0 -4.2758253)
(207.25669 0 -3.9353898)
(206.91288 0 -3.6114791)
(206.58132 -7.1441412e-17 -3.3039803)
(206.26065 0 -3.0127269)
(205.94947 -5.5756203e-20 -2.7374854)
(205.64629 2.3070983e-16 -2.4779638)
(205.34953 -2.1462644e-16 -2.2338406)
(205.05753 -9.9914751e-17 -2.004782)
(204.7685 -1.8578039e-16 -1.7904957)
(204.48049 2.5896989e-16 -1.5907944)
(204.19137 4.7957933e-20 -1.4055765)
(203.89902 7.4592176e-17 -1.2347228)
(203.60135 0 -1.0782926)
(203.29633 0 -0.93664516)
(202.98273 0 -0.80828476)
(202.65984 -1.113404e-16 -0.68947006)
(202.31937 0 -0.58761647)
(201.94809 -9.61915e-17 -0.51067547)
(201.57129 1.3411158e-16 -0.39176243)
(201.19564 8.3157749e-17 -0.26500262)
(200.62105 -1.9255099e-17 -0.4616145)
(221.4403 0 -30.780295)
(260.64875 0 -11.674119)
(242.81876 3.2148557e-16 -30.487932)
(252.70241 1.928953e-17 -13.723782)
(245.9998 -2.6901982e-16 -28.205032)
(249.17579 0 -16.657228)
(246.36664 1.6118709e-17 -25.407915)
(247.06327 -3.0554372e-17 -19.433564)
(245.67798 0 -23.213703)
(245.29058 1.9260506e-16 -21.174989)
(244.47831 -4.1698785e-16 -22.171532)
(243.79397 1.974509e-16 -21.800181)
(243.03063 2.343642e-17 -21.929055)
(242.25418 0 -21.88808)
(241.44656 2.1029622e-17 -21.87653)
(240.61245 -3.3923084e-16 -21.842346)
(239.75137 7.4782364e-17 -21.795218)
(238.86422 2.5000144e-16 -21.731489)
(237.95189 2.374292e-16 -21.650129)
(237.01557 -2.5609808e-16 -21.549562)
(236.05673 0 -21.42835)
(235.07711 -2.8736503e-16 -21.285079)
(234.07874 2.4399068e-16 -21.118399)
(233.06395 -2.0565979e-16 -20.927082)
(232.03535 1.9383778e-16 -20.710033)
(230.9958 -1.8370435e-16 -20.466322)
(229.94843 3.4655223e-16 -20.195238)
(228.89655 -1.6354014e-16 -19.896297)
(227.84365 1.5467222e-16 -19.569288)
(226.79336 -2.916076e-16 -19.214287)
(225.74934 1.3724853e-16 -18.831681)
(224.71527 1.2962386e-16 -18.422179)
(223.69476 -2.4457188e-16 -17.986807)
(222.6913 5.6776744e-17 -17.526911)
(221.70819 -5.7629221e-19 -17.044144)
(220.74846 2.544532e-16 -16.540425)
(219.81487 0 -16.017932)
(218.90983 1.9475724e-19 -15.479046)
(218.03534 0 -14.926314)
(217.19305 -7.9428779e-17 -14.362403)
(216.38416 -1.4927504e-16 -13.790049)
(215.60948 7.0088187e-17 -13.21201)
(214.86942 0 -12.63102)
(214.16402 -6.1764462e-17 -12.04974)
(213.49296 2.8909096e-16 -11.470728)
(212.85562 -3.245597e-16 -10.896396)
(212.25113 -3.0411331e-16 -10.328992)
(211.67835 2.8394529e-16 -9.7705737)
(211.136 -1.7720366e-16 -9.2229945)
(210.62264 0 -8.687897)
(210.13671 0 -8.1667074)
(209.6766 7.2326119e-17 -7.6606377)
(209.24064 6.7498192e-17 -7.1706914)
(208.82713 1.2579331e-16 -6.6976711)
(208.4344 -5.8660089e-17 -6.2421914)
(208.06075 -1.0927052e-16 -5.8046926)
(207.70455 -2.0377254e-16 -5.3854566)
(207.36419 -9.5067939e-17 -4.9846226)
(207.03812 1.7649992e-16 -4.6022039)
(206.72486 0 -4.2381118)
(206.42298 -7.6453135e-17 -3.8921611)
(206.13107 -1.4211236e-16 -3.5640866)
(205.84781 1.3204124e-16 -3.2535809)
(205.57187 6.1244283e-17 -2.9602848)
(205.30185 5.6965267e-17 -2.6837929)
(205.0363 0 -2.4236831)
(204.7737 1.9639878e-16 -2.1795388)
(204.51245 1.8224764e-16 -1.9510042)
(204.25081 -2.536101e-16 -1.7378281)
(203.98686 7.8440982e-17 -1.5398258)
(203.71852 -7.270684e-17 -1.356863)
(203.44345 -4.4778697e-20 -1.1891196)
(203.15943 2.4990996e-16 -1.0367573)
(202.86573 -2.3161664e-16 -0.89754418)
(202.5614 5.3622063e-17 -0.76866712)
(202.23584 1.4915856e-16 -0.65976157)
(201.87877 -4.6076624e-17 -0.57191661)
(201.52205 -4.2679874e-17 -0.43274112)
(201.15351 0 -0.31020868)
(200.56804 3.6548525e-17 -0.53383372)
(221.4556 3.9100932e-16 -34.651882)
(261.01047 5.4390024e-19 -14.540804)
(242.63831 -3.5832679e-16 -34.274245)
(252.8404 0 -16.81524)
(245.77551 0 -31.778955)
(248.94479 -2.6733812e-16 -19.93718)
(246.03952 2.7044976e-16 -28.739449)
(246.56533 6.4144885e-17 -22.840113)
(245.26219 -2.4346789e-16 -26.437989)
(244.79499 2.3028699e-16 -24.575532)
(243.92062 -2.4613048e-16 -25.411933)
(243.15398 2.0687344e-16 -25.104103)
(242.31485 -4.9078629e-17 -25.173823)
(241.45762 -4.6541471e-17 -25.118222)
(240.56859 -1.763641e-16 -25.073022)
(239.65161 1.6657932e-16 -25.004851)
(238.70687 -3.5574645e-16 -24.918555)
(237.73566 5.9799292e-16 -24.811173)
(236.73943 -2.8254561e-16 -24.681281)
(235.71997 -2.6809762e-16 -24.527166)
(234.67939 2.5281876e-16 -24.347252)
(233.62014 -3.0109669e-17 -24.140056)
(232.545 -2.2664512e-16 -23.904223)
(231.45709 2.1350121e-16 -23.638595)
(230.35979 2.5292489e-16 -23.342223)
(229.25678 -1.4261459e-16 -23.014418)
(228.15195 0 -22.654792)
(227.04933 2.5506353e-16 -22.263275)
(225.95308 -3.2037055e-16 -21.84016)
(224.86737 1.1272341e-16 -21.386103)
(223.79634 -2.8501209e-16 -20.902139)
(222.744 2.0080403e-16 -20.38968)
(221.71416 -6.3275277e-17 -19.850493)
(220.71035 2.3778578e-16 -19.286682)
(219.73577 -2.2304715e-16 -18.700657)
(218.79323 -2.1022435e-16 -18.095078)
(217.8851 1.9703757e-16 -17.472816)
(217.01326 -4.6213692e-17 -16.8369)
(216.17913 0 -16.190448)
(215.38364 8.1784864e-17 -15.536617)
(214.62723 -7.6332002e-17 -14.878545)
(213.9099 0 -14.219297)
(213.23122 1.3441585e-16 -13.561815)
(212.59043 -6.2878483e-17 -12.908884)
(211.98639 -1.7630627e-16 -12.263092)
(211.41775 5.4995323e-16 -11.626809)
(210.88291 -2.0591485e-16 -11.00217)
(210.38011 9.6039668e-17 -10.391064)
(209.90749 -2.6930096e-16 -9.7951311)
(209.46309 -1.848355e-19 -9.2157655)
(209.04496 1.5614626e-16 -8.6541225)
(208.65109 -1.4566911e-16 -8.1111287)
(208.27953 -6.7791208e-17 -7.587497)
(207.92834 -6.3147647e-17 -7.0837418)
(207.59566 -1.1791572e-16 -6.600197)
(207.27966 2.18978e-16 -6.137035)
(206.9786 0 -5.6942853)
(206.69082 9.4632519e-17 -5.2718533)
(206.41474 -3.5214368e-16 -4.8695387)
(206.14887 2.4508487e-16 -4.4870592)
(205.89179 7.5849357e-17 -4.1240534)
(205.64218 1.4091359e-16 -3.7800997)
(205.39876 1.3093668e-16 -3.4547484)
(205.1603 -1.2115117e-16 -3.147514)
(204.92555 -1.1227109e-16 -2.857881)
(204.6932 -3.1232679e-16 -2.5853327)
(204.46191 -4.1528967e-20 -2.3293802)
(204.23027 -8.9262607e-17 -2.0896125)
(203.99676 0 -1.8657124)
(203.7597 -2.2948804e-16 -1.657417)
(203.51706 7.0767875e-17 -1.4646094)
(203.2663 0 -1.2875592)
(203.00508 1.2108022e-16 -1.1260772)
(202.73312 0 -0.97739785)
(202.44871 1.0343839e-16 -0.84022662)
(202.1395 -1.4334145e-16 -0.72534358)
(201.79955 1.3246432e-16 -0.62574567)
(201.46484 -8.1575731e-17 -0.46851423)
(201.10231 7.5349808e-17 -0.35319608)
(200.51124 0 -0.60214248)
(221.25815 -4.1076706e-16 -38.71699)
(261.16433 3.6281025e-16 -17.541327)
(242.20615 -3.3243136e-16 -38.238595)
(252.72205 3.3054762e-16 -20.083631)
(245.26599 3.1655333e-16 -35.411284)
(248.48644 -1.799025e-17 -23.402886)
(245.46969 -2.8343815e-16 -32.154386)
(245.93939 -2.6906696e-16 -26.439257)
(244.54946 2.8638937e-16 -29.782198)
(243.97452 0 -28.123375)
(243.02757 2.8576576e-17 -28.784233)
(242.16605 0 -28.527693)
(241.23846 -1.2853551e-16 -28.537774)
(240.28815 2.4269168e-16 -28.455894)
(239.30553 0 -28.36923)
(238.29396 0 -28.256782)
(237.25446 0 -28.120356)
(236.18894 3.9089249e-17 -27.957265)
(235.09958 0 -27.765791)
(233.98897 -2.4448257e-16 -27.544124)
(232.8601 3.2940316e-16 -27.290621)
(231.71633 1.2464388e-16 -27.003837)
(230.56139 1.7674313e-16 -26.682542)
(229.39935 -2.7761806e-16 -26.325803)
(228.23455 -5.2315764e-17 -25.933011)
(227.07155 -2.4759358e-16 -25.503929)
(225.91508 1.8634684e-16 -25.038723)
(224.76991 -2.2010282e-16 -24.537995)
(223.6408 8.2347737e-17 -24.002784)
(222.53238 7.785867e-17 -23.434574)
(221.4491 0 -22.835285)
(220.39509 2.7700445e-16 -22.207231)
(219.37409 -2.601676e-16 -21.553103)
(218.3894 0 -20.875902)
(217.44381 -2.3001071e-16 -20.178895)
(216.53953 2.1543916e-16 -19.465539)
(215.67822 -1.0153283e-16 -18.739413)
(214.86093 1.9009149e-16 -18.004157)
(214.08814 -2.670981e-16 -17.263388)
(213.35981 1.2841502e-19 -16.520644)
(212.67537 -1.5606214e-16 -15.779326)
(212.03383 -7.3037669e-17 -15.042643)
(211.43379 -1.3708738e-16 -14.313576)
(210.87355 2.5555449e-16 -13.594846)
(210.35116 -1.1925564e-16 -12.888895)
(209.86446 0 -12.197876)
(209.41118 -3.8435266e-19 -11.523647)
(208.98899 9.7020378e-17 -10.867782)
(208.59551 0 -10.231577)
(208.22837 8.439128e-17 -9.6160644)
(207.88526 7.8912561e-17 -9.0220335)
(207.56394 -7.3268748e-17 -8.4500481)
(207.26224 2.7279164e-16 -7.9004679)
(206.97809 -2.5359983e-16 -7.3734713)
(206.70953 -1.179485e-16 -6.8690756)
(206.45469 -1.0957523e-16 -6.3871599)
(206.21182 1.0174677e-16 -5.9274846)
(205.97927 1.8874053e-16 -5.4897117)
(205.75548 -3.5011152e-16 -5.0734231)
(205.53904 4.0576322e-16 -4.6781428)
(205.3286 -1.5034973e-16 -4.3033352)
(205.1229 1.3936804e-16 -3.9484275)
(204.92082 -1.2901407e-16 -3.612836)
(204.72124 2.3894595e-16 -3.2959562)
(204.52307 -3.3171748e-16 -2.9971724)
(204.32519 2.0449258e-16 -2.715886)
(204.12642 -8.3889612e-20 -2.4515509)
(203.92557 8.7416031e-17 -2.2037099)
(203.72135 0 -1.9719801)
(203.51233 0 -1.7560384)
(203.29657 0 -1.5558176)
(203.07135 -1.2704928e-16 -1.3715986)
(202.8344 1.7077585e-20 -1.202709)
(202.58561 0 -1.0462032)
(202.32207 0 -0.90273815)
(202.03056 9.188561e-17 -0.78271496)
(201.71066 -1.6932025e-16 -0.6705203)
(201.39903 0 -0.49846347)
(201.0409 0 -0.39192604)
(200.45213 -1.3188727e-16 -0.66482142)
(220.81389 2.7729934e-17 -42.985055)
(261.07271 -7.8552412e-16 -20.697958)
(241.49444 3.4778504e-16 -42.342554)
(252.0753 -2.172819e-17 -23.533486)
(244.44089 3.731143e-16 -39.165875)
(247.69205 -3.5185274e-16 -27.092858)
(244.58808 0 -35.686309)
(244.92572 -3.1695202e-16 -30.230905)
(243.48432 2.330042e-16 -33.241469)
(242.78496 2.2131252e-16 -31.810605)
(241.75191 -2.3888915e-16 -32.290747)
(240.78139 0 -32.066559)
(239.75087 1.9197212e-19 -32.014864)
(238.69385 0 -31.892837)
(237.60438 3.8482464e-16 -31.75329)
(236.48584 -7.2697259e-16 -31.582867)
(235.3402 3.4321007e-16 -31.381548)
(234.17026 -4.0542963e-17 -31.146745)
(232.97922 -3.8527427e-17 -30.876561)
(231.77075 3.6619763e-17 -30.569174)
(230.54896 -6.8378982e-17 -30.223033)
(229.31839 -3.2394017e-16 -29.836891)
(228.08393 3.0488471e-16 -29.40987)
(226.85076 5.7475264e-17 -28.941527)
(225.62429 -2.7239431e-16 -28.431871)
(224.41003 -7.0063875e-19 -27.881434)
(223.21349 2.8931247e-16 -27.29126)
(222.04009 -1.8158801e-16 -26.662928)
(220.89502 -6.1658917e-19 -25.998533)
(219.78315 0 -25.30066)
(218.70891 0 -24.572344)
(217.67618 -7.1462114e-17 -23.817004)
(216.68825 1.3378531e-16 -23.038392)
(215.74776 0 -22.240493)
(214.85661 -1.1825416e-16 -21.427455)
(214.01602 2.2126899e-16 -20.603501)
(213.22651 -1.0366493e-16 -19.772829)