/*--------------------------------*- C++ -*----------------------------------*\
  =========                 |
  \\      /  F ield         | OpenFOAM: The Open Source CFD Toolbox
   \\    /   O peration     | Website:  https://openfoam.org
    \\  /    A nd           | Version:  12
     \\/     M anipulation  |
\*---------------------------------------------------------------------------*/
FoamFile
{
    format      ascii;
    class       volScalarField;
    location    "0.06";
    object      k;
}
// * * * * * * * * * * * * * * * * * * * * * * * * * * * * * * * * * * * * * //

dimensions      [0 2 -2 0 0 0 0];

internalField   nonuniform List<scalar> 
16000
(
0.047603389
0.021525293
0.022146367
0.016306142
0.013861262
0.012565082
0.011788514
0.011327396
0.011012215
0.010800981
0.010645221
0.010529142
0.010438632
0.010367009
0.010309356
0.010262597
0.010224486
0.010193388
0.010168005
0.010147198
0.010130027
0.010116144
0.01010505
0.010096194
0.010089353
0.010084171
0.010080476
0.010078102
0.010076911
0.010076775
0.010077576
0.010079213
0.010081609
0.010084699
0.010088426
0.010092739
0.010097584
0.010102911
0.010108669
0.010114812
0.010121285
0.010128033
0.010135002
0.010142141
0.010149388
0.010156681
0.010163963
0.010171186
0.010178311
0.010185304
0.010192143
0.010198812
0.010205292
0.010211561
0.010217581
0.010223299
0.010228644
0.010233538
0.010237902
0.010241665
0.010244732
0.010246951
0.010248119
0.010247953
0.010246041
0.010241841
0.010234825
0.010224877
0.01021275
0.010200339
0.010190765
0.010187651
0.010192614
0.010202925
0.010211773
0.010211992
0.010201131
0.010181818
0.010143624
0.010121433
0.045084313
0.020373725
0.020731052
0.015768925
0.013518815
0.012356358
0.011625376
0.011207116
0.010910122
0.010715792
0.010570256
0.010462851
0.010378686
0.010312504
0.010259336
0.010216417
0.010181579
0.01015333
0.010130521
0.010112073
0.010096995
0.010084997
0.010075673
0.010068448
0.010063158
0.010059423
0.010057086
0.010055986
0.010055992
0.010056984
0.010058848
0.010061483
0.010064811
0.010068764
0.010073288
0.01007833
0.01008384
0.010089766
0.010096059
0.010102672
0.010109555
0.010116654
0.010123917
0.010131294
0.010138732
0.010146169
0.010153552
0.010160834
0.010167976
0.010174945
0.010181718
0.010188278
0.01019461
0.010200697
0.010206511
0.01021201
0.010217133
0.010221805
0.010225948
0.010229493
0.010232364
0.010234434
0.01023552
0.010235364
0.010233585
0.010229671
0.010223079
0.010213643
0.010202131
0.010190486
0.010181683
0.010178977
0.010183661
0.010192845
0.010200129
0.010198765
0.010186783
0.010164957
0.010131789
0.010105343
0.041588795
0.019558678
0.01943007
0.015215442
0.013170182
0.012132239
0.011457313
0.011080797
0.010806267
0.01062988
0.010495349
0.010397043
0.010319689
0.010259217
0.010210825
0.010172005
0.010140679
0.010115439
0.010095361
0.010079417
0.010066578
0.010056592
0.010049151
0.01004365
0.010039996
0.010037789
0.010036885
0.010037128
0.010038393
0.010040567
0.010043539
0.010047211
0.010051503
0.010056346
0.010061685
0.010067466
0.01007364
0.010080156
0.010086964
0.010094018
0.010101271
0.01010867
0.010116164
0.010123708
0.010131254
0.010138743
0.010146127
0.010153363
0.010160414
0.010167248
0.010173843
0.010180183
0.010186253
0.01019204
0.010197526
0.010202679
0.010207451
0.010211776
0.010215581
0.010218797
0.010221358
0.010223157
0.010224026
0.010223719
0.010221875
0.010218014
0.010211609
0.010202469
0.010191371
0.010180342
0.010172268
0.010169986
0.010174345
0.010182269
0.010187778
0.01018481
0.010171441
0.010147876
0.010118868
0.010090196
0.037818865
0.019004836
0.018303521
0.014719569
0.012854703
0.011928389
0.011303697
0.010965139
0.010711225
0.010551076
0.010427063
0.010337167
0.010266311
0.010211232
0.010167395
0.01013252
0.010104614
0.010082241
0.01006479
0.010051284
0.010040635
0.010032617
0.010027029
0.010023224
0.010021168
0.010020465
0.01002097
0.010022532
0.01002503
0.010028357
0.010032405
0.010037076
0.010042287
0.01004797
0.010054065
0.010060519
0.010067283
0.010074306
0.010081538
0.010088933
0.010096448
0.010104033
0.010111639
0.010119226
0.010126749
0.010134159
0.010141411
0.010148465
0.01015529
0.010161859
0.010168147
0.01017414
0.010179827
0.010185197
0.010190238
0.010194931
0.010199242
0.010203116
0.010206488
0.010209294
0.01021147
0.010212925
0.010213502
0.01021296
0.010210947
0.010207015
0.010200671
0.010191718
0.01018091
0.010170308
0.01016272
0.010160579
0.010164315
0.010170787
0.010174476
0.010170069
0.010155718
0.010131757
0.01010517
0.010076399
0.035035223
0.018709598
0.017334814
0.014260516
0.012561413
0.011736373
0.011159995
0.010856573
0.010622784
0.010477862
0.01036415
0.010282275
0.010217777
0.010167931
0.010128536
0.010097529
0.010073049
0.010053478
0.0100386
0.010027514
0.010019053
0.010013002
0.01000927
0.010007185
0.010006706
0.010007511
0.010009425
0.010012305
0.01001603
0.010020495
0.010025598
0.010031237
0.01003733
0.010043802
0.010050596
0.010057654
0.010064928
0.010072367
0.010079923
0.010087552
0.010095211
0.010102857
0.010110446
0.010117938
0.0101253
0.010132488
0.010139464
0.010146194
0.010152652
0.010158815
0.010164663
0.010170181
0.01017536
0.010180194
0.010184676
0.010188795
0.010192532
0.010195848
0.010198688
0.01020099
0.010202693
0.010203712
0.0102039
0.010203015
0.010200706
0.010196546
0.010190098
0.010181192
0.01017055
0.010160214
0.010152908
0.010150698
0.010153619
0.010158556
0.010160503
0.010154997
0.010140049
0.010116369
0.010091826
0.01006362
0.032983979
0.018656551
0.01661892
0.013840101
0.01229184
0.011558045
0.011027468
0.01075625
0.010541805
0.010410918
0.010307183
0.010232868
0.01017452
0.010129711
0.010094607
0.010067333
0.010046276
0.010029462
0.010017094
0.010008408
0.01000213
0.0099980638
0.0099961681
0.009995861
0.0099969204
0.0099992296
0.010002548
0.010006735
0.010011668
0.010017244
0.01002336
0.010029916
0.010036826
0.010044014
0.010051418
0.010058981
0.010066652
0.010074385
0.010082133
0.010089854
0.010097511
0.010105065
0.010112479
0.010119719
0.010126759
0.010133567
0.010140109
0.010146361
0.010152301
0.010157914
0.010163183
0.010168096
0.010172646
0.010176828
0.010180641
0.010184082
0.010187144
0.010189803
0.010192017
0.010193729
0.010194877
0.010195376
0.010195083
0.010193756
0.010191036
0.010186513
0.010179811
0.010170819
0.010160229
0.010150003
0.010142763
0.010140255
0.010142176
0.010145544
0.01014593
0.010139778
0.010124659
0.010101786
0.010079113
0.010051565
0.030565654
0.018762984
0.016108875
0.013454953
0.012043638
0.011392734
0.010905813
0.010663973
0.010468117
0.010350089
0.010255993
0.010188844
0.010136459
0.010096549
0.010065635
0.010041975
0.010024356
0.010010331
0.010000456
0.0099941678
0.0099900812
0.0099881089
0.0099879786
0.0099896166
0.0099921038
0.0099959151
0.01000063
0.010006107
0.010012217
0.010018859
0.010025929
0.010033327
0.010040965
0.010048763
0.010056658
0.010064594
0.01007252
0.010080392
0.010088168
0.010095812
0.010103291
0.010110574
0.010117634
0.010124444
0.010130987
0.010137241
0.010143184
0.010148796
0.010154065
0.010158981
0.010163534
0.010167715
0.010171517
0.01017494
0.010177983
0.010180651
0.010182946
0.01018486
0.010186363
0.010187404
0.010187918
0.010187814
0.01018695
0.010185083
0.010181849
0.010176842
0.010169748
0.010160536
0.010149882
0.010139618
0.010132232
0.010129219
0.01013
0.010131865
0.010131168
0.010124699
0.01010975
0.010088029
0.0100673
0.010040065
0.028142483
0.018948031
0.015686491
0.013102504
0.011815286
0.011240097
0.010794272
0.01057947
0.010401266
0.010295202
0.010210463
0.010150204
0.010103656
0.010068573
0.01004182
0.01002169
0.010007499
0.0099963623
0.0099890085
0.0099851032
0.0099831851
0.0099836869
0.0099850519
0.0099882107
0.0099926112
0.0099979103
0.010003999
0.010010724
0.010017957
0.010025589
0.01003352
0.010041649
0.010049885
0.010058148
0.010066374
0.010074508
0.010082504
0.010090321
0.010097926
0.010105288
0.010112384
0.010119193
0.010125698
0.010131883
0.01013774
0.01014326
0.010148431
0.010153241
0.010157687
0.010161766
0.010165472
0.0101688
0.010171747
0.010174311
0.010176497
0.010178311
0.010179763
0.010180856
0.010181574
0.010181873
0.010181681
0.010180901
0.010179384
0.010176888
0.01017305
0.010167465
0.010159863
0.010150305
0.010139473
0.01012904
0.010121314
0.010117605
0.010117152
0.010117673
0.010116475
0.010109995
0.010095519
0.010075069
0.010056038
0.010030284
0.026376461
0.019126862
0.015172308
0.012779516
0.011605188
0.01109928
0.010692295
0.010501979
0.010341409
0.010246518
0.010170846
0.010117262
0.010076441
0.010046135
0.010023547
0.010006903
0.0099960184
0.0099879625
0.0099831974
0.0099815216
0.0099810992
0.0099841394
0.0099879344
0.0099928772
0.0099988161
0.010005581
0.010012989
0.010020889
0.010029147
0.010037652
0.010046303
0.010055
0.010063654
0.010072185
0.010080532
0.010088643
0.010096478
0.010104005
0.010111201
0.010118045
0.010124525
0.010130634
0.010136368
0.010141721
0.010146699
0.010151303
0.010155533
0.010159387
0.010162867
0.010165977
0.010168718
0.010171088
0.010173085
0.010174709
0.010175964
0.01017686
0.010177409
0.010177623
0.010177496
0.010176991
0.010176035
0.010174515
0.010172275
0.010169072
0.010164554
0.01015832
0.010150124
0.010140108
0.010128992
0.010118284
0.010110056
0.010105484
0.010103823
0.01010356
0.010102121
0.010095897
0.0100822
0.010063074
0.01004538
0.010022035
0.024754075
0.019292715
0.01452587
0.012483281
0.011413444
0.010970659
0.010600859
0.010432648
0.010289119
0.010204491
0.010137574
0.010090482
0.010055279
0.010029706
0.010011297
0.0099981741
0.0099901407
0.0099856156
0.0099835936
0.0099815188
0.0099873309
0.0099913593
0.0099969524
0.01000362
0.010011131
0.010019283
0.010027909
0.010036856
0.010045986
0.010055185
0.010064353
0.010073395
0.010082223
0.010090764
0.010098963
0.010106775
0.010114172
0.010121133
0.010127647
0.01013371
0.010139323
0.010144494
0.010149232
0.010153548
0.010157456
0.010160971
0.010164105
0.010166862
0.010169251
0.010171282
0.010172959
0.010174284
0.010175256
0.010175876
0.010176147
0.010176078
0.010175683
0.010174976
0.01017396
0.010172606
0.010170837
0.010168529
0.01016551
0.010161538
0.010156277
0.010149344
0.010140502
0.010129942
0.010118441
0.010107372
0.010098521
0.010092981
0.010090336
0.010089817
0.010088325
0.010082547
0.010069905
0.010052266
0.010035802
0.010014833
0.023257408
0.019429501
0.014001122
0.012211937
0.011240565
0.010854731
0.010520319
0.010372152
0.010244494
0.010169492
0.010111043
0.010070324
0.010040663
0.010019801
0.010005582
0.0099961804
0.0099894204
0.0099898243
0.0099908926
0.0099945458
0.0099987735
0.010005171
0.010012634
0.010020956
0.010029918
0.010039322
0.010048997
0.01005879
0.010068561
0.010078198
0.010087601
0.010096685
0.010105372
0.010113598
0.010121319
0.010128505
0.010135143
0.010141227
0.010146765
0.010151768
0.010156256
0.010160251
0.010163779
0.010166864
0.010169531
0.010171806
0.010173709
0.010175254
0.010176453
0.010177319
0.010177858
0.010178076
0.010177972
0.010177546
0.0101768
0.010175741
0.010174378
0.010172728
0.010170797
0.01016856
0.010165942
0.01016281
0.010158975
0.010154191
0.010148141
0.010140472
0.010130957
0.010119803
0.010107829
0.010096318
0.010086781
0.010080308
0.010077387
0.010076695
0.010075252
0.010070035
0.010058645
0.010042621
0.010027473
0.010009107
0.021924908
0.019554612
0.013544824
0.01196582
0.011086365
0.010751069
0.010450404
0.01032015
0.010207868
0.010141965
0.010091725
0.010057318
0.010033159
0.010017026
0.010006979
0.010001734
0.010000412
0.010001343
0.010005047
0.010010597
0.010017886
0.010026189
0.010035398
0.01004523
0.010055462
0.010065893
0.010076354
0.010086694
0.010096778
0.010106497
0.010115762
0.010124501
0.010132653
0.010140173
0.010147034
0.010153226
0.010158755
0.010163637
0.010167897
0.010171568
0.010174685
0.010177288
0.010179415
0.010181103
0.010182388
0.010183304
0.010183877
0.010184128
0.01018407
0.010183716
0.010183075
0.010182152
0.010180945
0.010179454
0.01017768
0.010175623
0.010173289
0.01017069
0.010167831
0.010164693
0.010161205
0.010157227
0.010152559
0.010146941
0.010140072
0.01013164
0.010121446
0.010109686
0.010097172
0.010085142
0.010074916
0.01006794
0.010065165
0.010064367
0.010063016
0.010058438
0.010048462
0.010034108
0.010020227
0.01000498
0.020719783
0.019630134
0.013123662
0.011744685
0.010950303
0.010659601
0.010391273
0.010277172
0.010179564
0.010122423
0.01008019
0.010052093
0.01003344
0.010022087
0.010016269
0.010014681
0.010016398
0.010020882
0.010027353
0.010035433
0.010044679
0.010054843
0.010065597
0.010076687
0.010087888
0.010098999
0.010109859
0.010120324
0.010130273
0.010139611
0.010148267
0.010156191
0.01016335
0.010169722
0.010175308
0.010180121
0.01018419
0.010187554
0.010190258
0.010192352
0.010193889
0.010194921
0.010195499
0.010195669
0.010195474
0.010194953
0.010194138
0.010193051
0.010191705
0.010190112
0.010188279
0.01018621
0.010183901
0.010181351
0.010178555
0.010175511
0.010172218
0.010168679
0.010164897
0.010160853
0.010156484
0.010151651
0.010146146
0.010139697
0.010132005
0.010122795
0.010111922
0.010099574
0.010086491
0.010073908
0.01006303
0.010056468
0.010053798
0.010052935
0.0100517
0.010047806
0.010039351
0.010026811
0.010014309
0.01000132
0.019636289
0.019626319
0.012742696
0.011546376
0.010831623
0.010580422
0.010343037
0.0102436
0.010160063
0.010111521
0.01007717
0.01005543
0.010042325
0.010035812
0.010034283
0.010036541
0.010041708
0.0100491
0.010058195
0.010068527
0.010079722
0.010091434
0.010103389
0.01011533
0.010127041
0.010138331
0.010149051
0.010159081
0.010168323
0.010176712
0.010184205
0.010190786
0.010196454
0.010201224
0.010205123
0.010208192
0.010210485
0.010212059
0.010212979
0.010213309
0.010213113
0.010212455
0.010211392
0.010209976
0.010208255
0.010206268
0.010204049
0.01020162
0.010198994
0.010196177
0.010193172
0.010189978
0.010186593
0.010183008
0.010179217
0.010175213
0.010170985
0.010166529
0.010161839
0.010156899
0.010151651
0.010145965
0.010139632
0.010132372
0.010123879
0.0101139
0.010102348
0.010089438
0.010075795
0.010062655
0.010051844
0.010045902
0.010043346
0.010042458
0.010041381
0.010038183
0.01003126
0.010020626
0.010009584
0.009998404
0.018659666
0.019345683
0.012398828
0.011370098
0.010730172
0.01051374
0.010306012
0.01022009
0.010150091
0.010110161
0.010083631
0.010068331
0.010060836
0.010059216
0.010061986
0.010068018
0.010076476
0.010086721
0.010098209
0.010110491
0.01012319
0.010135982
0.010148592
0.010160778
0.010172345
0.01018313
0.010193016
0.010201917
0.010209782
0.010216583
0.010222322
0.010227021
0.010230719
0.010233466
0.010235318
0.010236344
0.010236614
0.010236203
0.010235188
0.010233643
0.010231636
0.010229237
0.010226505
0.010223495
0.010220253
0.01021682
0.010213225
0.010209489
0.010205623
0.010201627
0.010197497
0.010193228
0.010188811
0.010184236
0.010179492
0.010174564
0.010169437
0.010164095
0.010158526
0.010152711
0.010146599
0.010140073
0.010132929
0.010124884
0.010115633
0.010104925
0.010092704
0.010079239
0.01006512
0.010051343
0.010041738
0.010036288
0.01003385
0.010032997
0.010032131
0.010029602
0.010024106
0.010015436
0.010006024
0.0099967059
0.017775353
0.018404002
0.012089969
0.011215065
0.010646202
0.010459986
0.010280764
0.01020762
0.010150726
0.010119527
0.01010081
0.010092023
0.010090164
0.010093416
0.010100395
0.010110037
0.010121531
0.010134246
0.01014766
0.010161327
0.010174882
0.010188015
0.01020048
0.010212074
0.010222644
0.010232079
0.010240313
0.010247317
0.010253094
0.010257672
0.010261097
0.010263435
0.010264761
0.010265156
0.010264704
0.010263487
0.010261592
0.010259101
0.010256094
0.010252647
0.010248831
0.010244712
0.010240348
0.010235791
0.010231084
0.010226265
0.01022136
0.010216386
0.010211348
0.010206242
0.010201058
0.01019578
0.010190395
0.010184888
0.010179243
0.01017344
0.010167458
0.010161273
0.010154861
0.010148203
0.010141253
0.010133908
0.010125973
0.010117171
0.010107204
0.010095833
0.010082991
0.010068936
0.010054489
0.010041183
0.010032654
0.010027668
0.010025358
0.010024601
0.010024
0.010022072
0.010017797
0.010011092
0.010003519
0.0099960351
0.016976729
0.017045828
0.011818716
0.011081128
0.010578835
0.010420117
0.010268371
0.010207619
0.010163427
0.010141098
0.010130164
0.010127881
0.010131572
0.010139522
0.010150425
0.010163266
0.010177255
0.010191775
0.010206319
0.010220467
0.010233892
0.010246333
0.010257601
0.010267563
0.010276137
0.010283289
0.010289024
0.010293381
0.010296424
0.010298233
0.0102989
0.010298527
0.010297216
0.010295069
0.010292185
0.010288655
0.010284568
0.010280007
0.010275047
0.010269761
0.010264213
0.010258461
0.010252558
0.01024655
0.010240475
0.010234366
0.010228245
0.010222123
0.010216002
0.010209873
0.010203716
0.010197511
0.010191234
0.010184864
0.010178381
0.01017176
0.010164975
0.010157995
0.010150788
0.010143328
0.010135574
0.010127437
0.010118736
0.010109206
0.010098558
0.010086582
0.010073225
0.010058658
0.010043666
0.010032293
0.010024642
0.010020087
0.010017913
0.010017283
0.010016972
0.01001558
0.010012289
0.010007417
0.010001859
0.0099959115
0.016259556
0.016215204
0.011590284
0.010968697
0.010528999
0.010395534
0.010270338
0.010221772
0.010189894
0.010176512
0.010173249
0.010177308
0.010186251
0.010198449
0.010212653
0.010227894
0.010243407
0.010258613
0.010273062
0.010286402
0.010298387
0.010308848
0.010317694
0.010324894
0.010330461
0.010334449
0.010336941
0.010338042
0.010337868
0.010336544
0.010334194
0.01033094
0.010326899
0.01032218
0.010316882
0.010311097
0.010304907
0.010298384
0.010291597
0.010284605
0.010277462
0.010270217
0.010262913
0.010255587
0.010248271
0.010240991
0.010233766
0.010226603
0.010219499
0.01021244
0.010205403
0.010198357
0.010191272
0.010184117
0.010176865
0.01016949
0.01016196
0.010154241
0.010146293
0.010138081
0.010129563
0.010120663
0.010111226
0.010101004
0.010089722
0.010077171
0.010063334
0.010048638
0.010034393
0.010024507
0.010017712
0.010013558
0.010011519
0.010010997
0.010010951
0.010010049
0.010007587
0.010004317
0.010000796
0.0099970853
0.01561558
0.015225524
0.011395488
0.010878314
0.010497624
0.01038794
0.010288323
0.010252006
0.010232058
0.010227569
0.010231668
0.010241585
0.010255062
0.010270546
0.010286859
0.010303103
0.010318599
0.010332866
0.010345572
0.0103565
0.010365535
0.010372645
0.010377864
0.010381273
0.010382986
0.010383138
0.010381879
0.01037936
0.010375735
0.010371148
0.010365739
0.010359631
0.010352941
0.01034577
0.01033821
0.010330339
0.010322225
0.010313929
0.010305502
0.010296992
0.010288437
0.010279874
0.010271334
0.010262846
0.010254434
0.010246117
0.010237909
0.010229816
0.010221831
0.010213939
0.010206111
0.010198312
0.010190502
0.010182643
0.0101747
0.01016664
0.010158431
0.010150035
0.010141405
0.010132497
0.010123262
0.010113633
0.010103486
0.010092612
0.01008076
0.01006772
0.010053414
0.010038443
0.010026516
0.010017796
0.010011797
0.010008028
0.010006117
0.01000566
0.010005801
0.01000532
0.010003622
0.010001795
0.010000005
0.0099977838
0.015039427
0.014570087
0.011237081
0.010810775
0.010485732
0.010399582
0.010324557
0.010300711
0.010292179
0.010296128
0.010306746
0.010321356
0.010337879
0.010354883
0.010371337
0.010386509
0.010399899
0.010411209
0.010420304
0.010427148
0.010431795
0.01043436
0.010434999
0.010433894
0.010431235
0.010427215
0.010422017
0.010415816
0.010408773
0.010401033
0.010392727
0.010383967
0.010374854
0.010365474
0.010355898
0.010346189
0.010336397
0.010326564
0.010316727
0.010306914
0.010297152
0.010287464
0.010277869
0.010268385
0.010259028
0.010249813
0.010240747
0.010231834
0.010223068
0.010214431
0.010205896
0.010197425
0.010188971
0.010180488
0.010171932
0.010163262
0.010154442
0.010145432
0.010136184
0.010126641
0.010116746
0.010106434
0.010095609
0.010084108
0.010071705
0.010058248
0.010043909
0.010029948
0.010019701
0.010012066
0.010006759
0.010003356
0.010001587
0.01000117
0.010001404
0.010001233
0.010000212
0.0099996062
0.0099992378
0.0099985051
0.014525675
0.013828878
0.011111675
0.010768774
0.010495018
0.010433847
0.01038213
0.010370627
0.01037235
0.010383319
0.010398549
0.010415575
0.010432594
0.010448437
0.010462352
0.010473895
0.010482845
0.01048916
0.010492928
0.010494309
0.010493512
0.010490773
0.010486334
0.010480435
0.010473303
0.010465147
0.010456153
0.010446488
0.010436298
0.010425707
0.010414825
0.01040374
0.01039253
0.010381256
0.010369969
0.010358712
0.010347515
0.010336404
0.010325397
0.010314509
0.010303751
0.010293133
0.010282664
0.010272351
0.010262203
0.010252225
0.010242423
0.010232798
0.010223343
0.010214044
0.010204876
0.0101958
0.010186771
0.010177735
0.010168641
0.010159437
0.010150079
0.010140521
0.010130715
0.010120602
0.010110115
0.010099177
0.010087713
0.010075612
0.010062688
0.010048798
0.010034464
0.010022823
0.01001383
0.010007146
0.010002418
0.009999348
0.0099977458
0.0099973797
0.009997649
0.0099977082
0.0099973988
0.009997977
0.0099987274
0.0099991938
0.014074338
0.013264464
0.011024145
0.010757151
0.010529135
0.010494816
0.010464149
0.010463563
0.010472963
0.010487964
0.010504445
0.010520366
0.010534399
0.010545808
0.010554255
0.010559663
0.010562132
0.010561872
0.010559165
0.010554318
0.010547636
0.010539415
0.010529927
0.010519418
0.010508106
0.010496178
0.010483796
0.010471096
0.010458191
0.010445176
0.010432129
0.010419111
0.010406172
0.01039335
0.010380674
0.010368166
0.010355839
0.010343703
0.010331762
0.010320016
0.010308465
0.010297105
0.010285936
0.010274955
0.010264162
0.010253556
0.010243137
0.010232903
0.010222849
0.010212963
0.010203224
0.0101936
0.010184049
0.010174517
0.010164946
0.010155277
0.010145451
0.010135414
0.010125113
0.010114491
0.010103478
0.010091988
0.010079929
0.010067228
0.010053847
0.010039909
0.010026678
0.010016655
0.010008787
0.010002876
0.0099986202
0.0099958347
0.0099944138
0.0099941366
0.0099944526
0.0099947571
0.0099952855
0.0099972043
0.009999116
0.010000358
0.013691029
0.012814408
0.01097686
0.01078108
0.010616855
0.010585498
0.010571598
0.010578212
0.010590718
0.010605059
0.010618198
0.010628768
0.010636092
0.010639977
0.010640525
0.010638006
0.010632774
0.010625213
0.010615709
0.010604622
0.010592277
0.010578959
0.010564913
0.010550345
0.010535431
0.010520313
0.01050511
0.010489916
0.010474807
0.010459842
0.010445067
0.010430517
0.010416216
0.010402181
0.010388421
0.010374941
0.010361738
0.01034881
0.010336148
0.010323741
0.010311579
0.010299649
0.01028794
0.010276441
0.010265142
0.010254037
0.010243119
0.010232383
0.010221821
0.010211423
0.010201174
0.010191049
0.010181013
0.010171019
0.010161012
0.010150928
0.010140696
0.010130249
0.010119521
0.010108448
0.010096968
0.010084996
0.01007243
0.010059189
0.010045338
0.01003145
0.010020242
0.010011363
0.01000446
0.0099991935
0.0099953402
0.0099928071
0.0099915722
0.0099914366
0.0099918914
0.0099925261
0.0099938894
0.0099971366
0.010000697
0.010002767
0.013385097
0.012454552
0.010973876
0.010839881
0.010721983
0.010705082
0.010700612
0.010708188
0.01071756
0.010725637
0.010730625
0.010731971
0.010729664
0.010723993
0.010715388
0.010704324
0.010691268
0.01067665
0.010660845
0.010644177
0.010626916
0.010609285
0.010591464
0.010573598
0.010555801
0.010538164
0.010520756
0.01050363
0.010486826
0.010470369
0.010454279
0.010438566
0.010423235
0.010408284
0.010393707
0.010379495
0.010365636
0.010352114
0.010338913
0.010326014
0.010313398
0.010301046
0.010288938
0.010277056
0.010265383
0.010253904
0.010242605
0.010231476
0.010220505
0.010209683
0.010198994
0.01018842
0.010177934
0.010167502
0.010157075
0.010146596
0.010135995
0.010125194
0.010114111
0.010102663
0.010090772
0.010078364
0.010065372
0.010051777
0.010037806
0.01002479
0.01001487
0.010006968
0.01000084
0.0099961498
0.0099927035
0.0099904533
0.0099894246
0.009989459
0.009990096
0.009991017
0.0099928258
0.0099965188
0.010000812
0.010003779
0.013173932
0.012195587
0.011017883
0.01094051
0.010857774
0.010844754
0.010840842
0.010841982
0.010841831
0.010838681
0.010831923
0.010821717
0.010808513
0.010792854
0.01077528
0.01075628
0.010736273
0.010715612
0.010694579
0.010673399
0.010652251
0.01063127
0.010610562
0.010590202
0.010570249
0.010550741
0.010531706
0.010513161
0.010495115
0.010477568
0.010460517
0.010443955
0.010427869
0.010412247
0.010397072
0.010382323
0.010367982
0.010354025
0.010340431
0.010327174
0.010314231
0.010301577
0.010289187
0.010277037
0.010265104
0.010253366
0.010241803
0.010230396
0.010219129
0.010207986
0.01019695
0.010186005
0.010175128
0.010164292
0.010153461
0.010142588
0.010131617
0.010120476
0.010109082
0.010097343
0.010085154
0.010072414
0.01005905
0.010045119
0.010031173
0.010019733
0.010010657
0.010003533
0.0099980143
0.0099938353
0.0099908197
0.0099889011
0.0099880682
0.0099881718
0.0099887944
0.0099896683
0.0099913509
0.0099946299
0.0099987077
0.01000173
0.013052247
0.012036502
0.011119108
0.011071482
0.01100816
0.01099092
0.010977776
0.010965785
0.010951444
0.010934314
0.010914563
0.010892685
0.01086923
0.010844707
0.010819543
0.010794087
0.010768609
0.010743315
0.01071836
0.010693856
0.010669884
0.010646498
0.010623733
0.01060161
0.010580137
0.010559315
0.010539139
0.010519598
0.010500676
0.010482359
0.010464626
0.010447457
0.010430831
0.010414723
0.010399111
0.01038397
0.010369273
0.010354995
0.010341109
0.010327589
0.010314407
0.010301536
0.010288948
0.010276616
0.010264512
0.01025261
0.010240884
0.010229308
0.010217859
0.010206515
0.010195253
0.010184051
0.010172886
0.010161731
0.010150554
0.010139317
0.010127974
0.01011647
0.010104737
0.0100927
0.010080275
0.010067367
0.010053899
0.010039954
0.010026376
0.010016025
0.010007668
0.010001124
0.0099960591
0.0099922605
0.0099895765
0.0099878996
0.0099871294
0.0099871008
0.0099875193
0.0099882503
0.0099898795
0.0099929917
0.0099970113
0.010000341
0.012994281
0.011970043
0.011283284
0.01121637
0.011156577
0.011124693
0.011095466
0.011066838
0.011037174
0.01100653
0.0109752
0.010943569
0.010911979
0.010880704
0.01084995
0.010819863
0.010790543
0.010762052
0.010734427
0.010707682
0.01068182
0.010656832
0.010632701
0.010609405
0.01058692
0.010565219
0.010544274
0.010524056
0.010504535
0.010485682
0.010467469
0.010449867
0.010432847
0.010416381
0.010400441
0.010384998
0.010370026
0.010355495
0.010341378
0.010327647
0.010314273
0.010301229
0.010288487
0.010276018
0.010263792
0.010251782
0.010239958
0.010228292
0.010216754
0.010205315
0.010193949
0.010182625
0.010171314
0.010159985
0.010148601
0.010137123
0.010125502
0.010113686
0.010101611
0.010089209
0.010076408
0.010063148
0.01004944
0.010035598
0.010023242
0.010013567
0.010005807
0.0099996989
0.0099949488
0.0099913556
0.0099887902
0.0099871692
0.0099863772
0.0099862144
0.0099866609
0.0099876111
0.0099894439
0.0099924596
0.0099962441
0.009999493
0.013010933
0.011933917
0.011438655
0.011351175
0.01127911
0.011228449
0.011181842
0.011137977
0.011095594
0.011054542
0.011014784
0.010976359
0.010939293
0.010903595
0.010869255
0.010836245
0.01080453
0.010774065
0.010744801
0.010716687
0.010689672
0.010663705
0.010638737
0.010614719
0.010591606
0.010569353
0.010547917
0.01052726
0.010507343
0.010488129
0.010469584
0.010451675
0.010434368
0.010417634
0.010401441
0.010385761
0.010370563
0.010355821
0.010341505
0.010327589
0.010314044
0.010300843
0.010287958
0.010275362
0.010263026
0.010250921
0.010239019
0.01022729
0.010215702
0.010204226
0.010192831
0.010181483
0.010170149
0.010158792
0.010147374
0.010135847
0.010124161
0.010112255
0.010100063
0.010087512
0.010074529
0.010061061
0.010047152
0.010033264
0.010021609
0.010012372
0.010004981
0.009999137
0.0099945634
0.0099910687
0.0099885398
0.0099869101
0.0099860956
0.0099858697
0.009986364
0.0099874276
0.0099892843
0.0099920767
0.0099955269
0.0099987687
0.013108792
0.011964301
0.01155653
0.011448807
0.011361043
0.011294211
0.011234544
0.011180242
0.011129697
0.011082275
0.011037543
0.010995216
0.01095507
0.010916923
0.01088062
0.010846026
0.010813019
0.010781493
0.010751349
0.010722499
0.010694862
0.010668364
0.010642938
0.01061852
0.010595054
0.010572484
0.010550762
0.010529842
0.01050968
0.010490236
0.010471473
0.010453354
0.010435846
0.010418915
0.010402532
0.010386664
0.010371284
0.010356363
0.010341873
0.010327787
0.010314077
0.010300718
0.010287683
0.010274944
0.010262476
0.01025025
0.010238239
0.010226414
0.010214743
0.010203198
0.010191746
0.010180356
0.010168993
0.010157624
0.01014621
0.01013471
0.010123074
0.010111245
0.010099157
0.01008674
0.010073923
0.010060648
0.010046949
0.010033252
0.010021651
0.010012495
0.010005164
0.0099993604
0.0099948113
0.0099913233
0.0099887616
0.009987044
0.0099861313
0.009985878
0.0099863317
0.0099874686
0.0099893349
0.0099919363
0.0099951038
0.0099984302
0.01323487
0.012020811
0.011619403
0.011497895
0.011399973
0.011324677
0.011258862
0.011200015
0.011146109
0.011096171
0.011049536
0.011005751
0.010964473
0.010925438
0.010888428
0.010853261
0.010819785
0.010787866
0.010757388
0.010728248
0.010700355
0.010673625
0.010647986
0.01062337
0.010599714
0.010576962
0.010555062
0.010533967
0.01051363
0.010494012
0.010475073
0.010456777
0.010439088
0.010421975
0.010405406
0.010389351
0.01037378
0.010358665
0.01034398
0.010329695
0.010315787
0.010302227
0.010288991
0.010276052
0.010263384
0.010250961
0.010238753
0.010226733
0.01021487
0.010203133
0.010191488
0.010179903
0.010168345
0.01015678
0.010145175
0.010133492
0.010121687
0.01010971
0.010097502
0.010084998
0.010072136
0.010058867
0.010045242
0.010031746
0.010020719
0.010011904
0.010004854
0.0099992482
0.0099948349
0.0099914288
0.0099888997
0.0099871632
0.0099861891
0.0099859092
0.009986373
0.0099875528
0.0099894086
0.009991869
0.0099948467
0.0099982298
66.862025
364.91676
122.05186
14.68549
0.40687898
0.021780553
0.020442792
0.020126489
0.019844058
0.018757978
0.017362953
0.016152653
0.015240896
0.014654396
0.014237198
0.013838171
0.013446556
0.013102646
0.012818299
0.01258197
0.012380874
0.012207134
0.012055778
0.011923036
0.01180583
0.011701621
0.011608378
0.011524486
0.011448678
0.01137995
0.011317469
0.011260512
0.011208444
0.011160726
0.011116927
0.011076696
0.011039731
0.011005761
0.010974536
0.010945826
0.01091943
0.010895155
0.010872815
0.010852239
0.010833271
0.010815761
0.010799558
0.01078451
0.010770473
0.010757305
0.010744868
0.010733032