/*--------------------------------*- C++ -*----------------------------------*\
  =========                 |
  \\      /  F ield         | OpenFOAM: The Open Source CFD Toolbox
   \\    /   O peration     | Website:  https://openfoam.org
    \\  /    A nd           | Version:  12
     \\/     M anipulation  |
\*---------------------------------------------------------------------------*/
FoamFile
{
    format      ascii;
    class       volScalarField;
    location    "0.06";
    object      p;
}
// * * * * * * * * * * * * * * * * * * * * * * * * * * * * * * * * * * * * * //

dimensions      [1 -1 -2 0 0 0 0];

internalField   nonuniform List<scalar> 
16000
(
89056.398
89184.409
89196.356
89332.864
89359.378
89488.699
89539.908
89658.392
89733.354
89846.108
89939.628
90052.331
90160.161
90277.291
90396.375
90521.02
90649.832
90783.424
90921.681
91064.698
91212.492
91365.075
91522.439
91684.548
91851.346
92022.745
92198.629
92378.852
92563.236
92751.566
92943.597
93139.045
93337.596
93538.901
93742.58
93948.223
94155.397
94363.643
94572.487
94781.44
94990.01
95197.698
95404.012
95608.469
95810.601
96009.963
96206.133
96398.725
96587.386
96771.803
96951.704
97126.861
97297.083
97462.222
97622.168
97776.847
97926.218
98070.271
98209.021
98342.502
98470.763
98593.857
98711.837
98824.754
98932.651
99035.56
99133.495
99226.453
99314.4
99397.274
99474.985
99547.419
99614.445
99675.977
99731.996
99782.615
99826.575
99860.246
99918.128
99886.259
88683.665
88828.853
88838.182
88987.038
89015.206
89155.624
89209.301
89339.252
89418.117
89541.156
89641.171
89762.954
89879.225
90005.351
90133.834
90268.108
90406.969
90550.912
90699.865
90853.889
91012.988
91177.148
91346.328
91520.462
91699.45
91883.162
92071.436
92264.073
92460.839
92661.461
92865.632
93073.006
93283.203
93495.808
93710.376
93926.434
94143.487
94361.02
94578.508
94795.419
95011.222
95225.393
95437.421
95646.817
95853.117
96055.888
96254.737
96449.31
96639.298
96824.44
97004.518
97179.364
97348.851
97512.897
97671.455
97824.514
97972.093
98114.235
98251.004
98382.477
98508.737
98629.866
98745.934
98857.002
98963.117
99064.309
99160.587
99251.943
99338.345
99419.747
99496.082
99567.24
99633.07
99693.46
99748.323
99797.283
99839.073
99876.303
99917.889
99905.037
88343.702
88504.613
88513.84
88676.17
88704.357
88858.742
88914.1
89056.548
89140.359
89274.049
89381.965
89513.481
89639.495
89775.667
89914.792
90059.945
90210.129
90365.715
90526.641
90692.929
90864.55
91041.455
91223.565
91410.769
91602.921
91799.841
92001.31
92207.071
92416.824
92630.23
92846.908
93066.441
93288.371
93512.21
93737.438
93963.513
94189.872
94415.945
94641.154
94864.926
95086.701
95305.935
95522.114
95734.755
95943.412
96147.689
96347.232
96541.743
96730.975
96914.733
97092.874
97265.305
97431.978
97592.887
97748.061
97897.56
98041.468
98179.891
98312.945
98440.754
98563.441
98681.117
98793.872
98901.78
99004.892
99103.232
99196.799
99285.57
99369.504
99448.557
99522.671
99591.739
99655.62
99714.2
99767.221
99813.996
99854.215
99890.973
99922.686
99922.469
88040.25
88212.165
88222.366
88400.327
88427.955
88598.847
88656.51
88813.495
88903.26
89049.214
89166.586
89309.262
89446.709
89594.446
89745.777
89903.314
90066.27
90234.89
90409.121
90588.944
90774.304
90965.117
91161.261
91362.581
91568.877
91779.91
91995.394
92214.997
92438.34
92665
92894.51
93126.361
93360.008
93594.875
93830.361
94065.844
94300.695
94534.285
94765.991
94995.206
95221.353
95443.885
95662.3
95876.141
96085.009
96288.558
96486.504
96678.622
96864.749
97044.777
97218.655
97386.382
97548.001
97703.595
97853.276
97997.181
98135.466
98268.298
98395.851
98518.297
98635.795
98748.487
98856.485
98959.875
99058.714
99153.022
99242.786
99327.965
99408.5
99484.336
99555.407
99621.603
99682.807
99738.893
99789.4
99833.583
99872
99906.31
99931.195
99939.541
87777.567
87964.67
87971.392
88168.424
88194.982
88384.538
88444.422
88617.815
88714.843
88874.543
89003.217
89158.271
89308.67
89469.197
89633.948
89805.032
89981.883
90164.661
90353.314
90547.8
90748.027
90953.868
91165.15
91381.65
91603.096
91829.166
92059.482
92293.614
92531.084
92771.359
93013.867
93257.991
93503.084
93748.472
93993.463
94237.36
94479.468
94719.107
94955.621
95188.389
95416.835
95640.436
95858.727
96071.309
96277.849
96478.088
96671.832
96858.959
97039.409
97213.183
97380.339
97540.981
97695.254
97843.337
97985.429
98121.748
98252.52
98377.975
98498.34
98613.83
98724.64
98830.936
98932.85
99030.48
99123.883
99213.077
99298.035
99378.695
99454.976
99526.796
99594.059
99656.646
99714.462
99767.355
99814.692
99855.886
99892.056
99922.887
99942.217
99957.354
87560.038
87765.008
87769.734
87988.075
88013.583
88223.825
88286.144
88477.654
88583.136
88757.204
88898.298
89066.135
89230.324
89404.416
89583.502
89769.197
89961.117
90159.336
90363.777
90574.341
90790.873
91013.168
91240.966
91473.949
91711.739
91953.899
92199.932
92449.284
92701.346
92955.459
93210.923
93467.001
93722.931
93977.939
94231.245
94482.08
94729.698
94973.389
95212.487
95446.385
95674.54
95896.485
96111.829
96320.263
96521.56
96715.572
96902.23
97081.537
97253.56
97418.427
97576.318
97727.452
97872.083
98010.486
98142.95
98269.768
98391.235
98507.635
98619.243
98726.309
98829.056
98927.67
99022.294
99113.033
99199.943
99283.034
99362.265
99437.554
99508.794
99575.869
99638.638
99696.956
99750.74
99799.775
99843.317
99881.109
99914.544
99941.118
99955.443
99976.558
87387.177
87613.377
87615.293
87858.688
87883.213
88118.137
88183.647
88394.754
88508.584
88696.294
88850.757
89032.059
89211.469
89400.746
89595.971
89798.246
90007.266
90222.997
90445.289
90673.951
90908.732
91149.318
91395.331
91646.325
91901.785
92161.131
92423.717
92688.836
92955.729
93223.589
93491.574
93758.82
94024.45
94287.592
94547.395
94803.038
95053.752
95298.828
95537.629
95769.6
95994.28
96211.297
96420.379
96621.347
96814.117
96998.69
97175.145
97343.637
97504.378
97657.637
97803.72
97942.968
98075.742
98202.409
98323.341
98438.899
98549.434
98655.279
98756.742
98854.099
98947.59
99037.41
99123.708
99206.585
99286.091
99362.225
99434.928
99504.098
99569.606
99631.295
99688.973
99742.463
99791.663
99836.252
99875.442
99909.446
99939.629
99961.191
99971.06
99997.835
87252.204
87503.307
87500.869
87774.492
87795.73
88057.663
88126.265
88356.582
88482.402
88686.54
88858.311
89056.141
89254
89461.559
89675.87
89897.608
90126.501
90362.412
90605.1
90854.264
91109.529
91370.444
91636.481
91907.032
92181.413
92458.868
92738.571
93019.638
93301.137
93582.1
93861.54
94138.464
94411.896
94680.889
94944.547
95202.038
95452.612
95695.612
95930.481
96156.776
96374.165
96582.43
96781.465
96971.268
97151.932
97323.638
97486.642
97641.264
97787.874
97926.881
98058.724
98183.855
98302.732
98415.807
98523.517
98626.279
98724.488
98818.508
98908.667
98995.255
99078.513
99158.637
99235.768
99309.997
99381.36
99449.836
99515.349
99577.777
99636.97
99692.73
99744.817
99793.027
99837.205
99876.876
99911.285
99941.2
99967.612
99983.537
99989.578
100021.73
87153.45
87433.347
87426.543
87737.595
87752.738
88043.606
88118.089
88370.769
88513.931
88737.087
88929.923
89147.276
89366.716
89595.721
89832.18
90076.418
90328.136
90587.067
90852.843
91125.013
91403.038
91686.284
91974.03
92265.464
92559.69
92855.738
93152.572
93449.108
93744.228
94036.801
94325.702
94609.834
94888.15
95159.672
95423.512
95678.884
95925.123
96161.692
96388.188
96604.344
96810.025
97005.223
97190.048
97364.715
97529.53
97684.875
97831.196
97968.982
98098.759
98221.073
98336.478
98445.524
98548.748
98646.667
98739.765
98828.495
98913.277
98994.487
99072.46
99147.48
99219.782
99289.544
99356.892
99421.895
99484.566
99544.86
99602.679
99657.886
99710.303
99759.7
99805.802
99848.382
99887.204
99921.612
99950.98
99976.637
99998.783
100008.47
100011.3
100048.9
87094.802
87408.362
87398.401
87746.484
87761.455
88085.2
88171.558
88450.12
88613.58
88857.742
89075.268
89315.33
89559.616
89813.482
90075.417
90345.438
90623.14
90908.086
91199.726
91497.407
91800.364
92107.729
92418.528
92731.691
93046.068
93360.436
93673.527
93984.043
94290.686
94592.178
94887.291
95174.87
95453.856
95723.313
95982.438
96230.582
96467.255
96692.129
96905.035
97105.963
97295.039
97472.523
97638.781
97794.275
97939.54
98075.166
98201.782
98320.041
98430.605
98534.135
98631.277
98722.653
98808.855
98890.434
98967.901
99041.722
99112.319
99180.064
99245.277
99308.226
99369.119
99428.111
99485.297
99540.717
99594.351
99646.126
99695.921
99743.58
99788.902
99831.624
99871.452
99908.151
99941.37
99970.285
99994.52
100015.87
100033.28
100036.38
100036.86
100079.72
87083.706
87437.284
87423.223
87812.7
87831.863
88192.636
88294.023
88600.187
88789.668
89057.61
89304.058
89570.802
89843.723
90126.325
90417.46
90716.855
91023.926
91338.009
91658.297
91983.858
92313.633
92646.439
92980.986
93315.895
93649.716
93980.956
94308.104
94629.665
94944.191
95250.31
95546.758
95832.409
96106.295
96367.629
96615.816
96850.454
97071.341
97278.461
97471.969
97652.18
97819.541
97974.61
98118.036
98250.531
98372.853
98485.783
98590.111
98686.624
98776.087
98859.243
98936.794
99009.402
99077.679
99142.186
99203.431
99261.868
99317.901
99371.878
99424.089
99474.767
99524.086
99572.162
99619.052
99664.756
99709.217
99752.329
99793.947
99833.896
99871.949
99907.816
99941.207
99971.865
99999.303
100022.59
100041.74
100058.81
100071.09
100067.49
100066.68
100114.29
87127.908
87529.055
87511.233
87949.537
87973.405
88374.281
88495.524
88831.142
89052.572
89347.76
89627.636
89925.684
90231.569
90547.28
90871.783
91204.486
91544.525
91890.903
92242.46
92597.882
92955.719
93314.4
93672.261
94027.57
94378.562
94723.475
95060.59
95388.267
95704.989
96009.395
96300.314
96576.79
96838.1
97083.761
97313.531
97527.397
97725.557
97908.401
98076.481
98230.481
98371.193
98499.481
98616.26
98722.469
98819.055
98906.95
98987.062
99060.261
99127.377
99189.186
99246.41
99299.71
99349.685
99396.876
99441.76
99484.759
99526.238
99566.502
99605.797
99644.311
99682.17
99719.444
99756.143
99792.221
99827.578
99862.076
99895.546
99927.787
99958.548
99987.525
100014.44
100039
100060.55
100078.17
100092.38
100105.21
100112.01
100101.92
100100.93
100152.57
87227.641
87685.245
87664.082
88157.727
88190.441
88635.478
88784.414
89152.258
89412.917
89740.259
90058.828
90393.76
90737.774
91091.646
91454.212
91824.454
92201.083
92582.637
92967.472
93353.791
93739.666
94123.079
94501.952
94874.194
95237.75
95590.647
95931.049
96257.302
96567.984
96861.93
97138.267
97396.417
97636.099
97857.316
98060.333
98245.645
98413.944
98566.082
98703.028
98825.842
98935.633
99033.535
99120.679
99198.177
99267.1
99328.471
99383.258
99432.362
99476.62
99516.798
99553.593
99587.63
99619.464
99649.585
99678.42
99706.337
99733.645
99760.594
99787.372
99814.112
99840.887
99867.713
99894.549
99921.298
99947.82
99973.939
99999.463
100024.16
100047.76
100069.96
100090.49
100108.98
100124.64
100136.67
100146.17
100154.79
100155.79
100139.66
100139.62
100194.4
87388.883
87913.509
87889.746
88446.386
88494.185
88987.352
89173.3
89576.769
89884.556
90250.503
90613.964
90992.396
91380.603
91778.285
92183.861
92595.719
93011.978
93430.569
93849.25
94265.65
94677.307
95081.722
95476.414
95858.99
96227.21
96579.053
96912.776
97226.964
97520.559
97792.879
98043.612
98272.799
98480.806
98668.28
98836.103
98985.344
99117.211
99233.005
99334.08
99421.805
99497.54
99562.605
99618.268
99665.729
99706.109
99740.453
99769.717
99794.779
99816.432
99835.387
99852.277
99867.66
99882.02
99895.776
99909.286
99922.848
99936.705
99951.038
99965.974
99981.583
99997.882
100014.83
100032.33
100050.23
100068.36
100086.52
100104.46
100121.95
100138.67
100154.34
100168.7
100181.28
100191.15
100197.83
100202.96
100207.33
100202.28
100180.84
100182.84
100239.64
87618.061
88222.825
88198.478
88826.549
88896.798
89442.197
89676.646
90121.095
90485.203
90898.425
91314.424
91744.014
92183.055
92630.185
93083.15
93539.583
93996.862
94452.185
94902.616
95345.136
95776.729
96194.458
96595.565
96977.555
97338.284
97676.021
97989.492
98277.901
98540.921
98778.671
98991.669
99180.778
99347.143
99492.123
99617.233
99724.086
99814.34
99889.655
99951.663
100001.94
100041.97
100073.16
100096.82
100114.13
100126.2
100134.01
100138.46
100140.34
100140.35
100139.13
100137.2
100135.03
100133.02
100131.51
100130.76
100131.01
100132.41
100135.08
100139.07
100144.4
100151.02
100158.83
100167.69
100177.4
100187.74
100198.49
100209.38
100220.12
100230.39
100239.94
100248.46
100255.37
100259.71
100261.46
100262.63
100262.72
100251.48
100225.84
100231.12
100288.44
87921.33
88621.821
88599.752
89309.068
89413.479
90017.203
90315.084
90809.242
91240.367
91711.305
92188.263
92676.664
93172.575
93673.537
94176.418
94677.913
95174.481
95662.448
96138.093
96597.771
97038.042
97455.796
97848.371
98213.642
98550.079
98856.769
99133.405
99380.241
99598.028
99787.939
99951.477
100090.39
100206.6
100302.12
100378.97
100439.19
100484.72
100517.44
100539.11
100551.36
100555.68
100553.45
100545.9
100534.15
100519.18
100501.87
100483
100463.24
100443.19
100423.34
100404.13
100385.92
100368.99
100353.6
100339.94
100328.13
100318.28
100310.42
100304.55
100300.6
100298.48
100298.03
100299.06
100301.35
100304.64
100308.68
100313.15
100317.75
100322.15
100326.09
100329.24
100330.84
100330.07
100327.49
100325.18
100320.9
100303.54
100275.26
100285.28
100341.1
88306.621
89121.494
89107.598
89913.637
90069.364
90741.562
91120.114
91674.898
92183.757
92722.906
93268.624
93822.182
94379.127
94935.697
95487.547
96030.145
96558.836
97069.021
97556.347
98016.884
98447.296
98844.964
99208.056
99535.554
99827.225
100083.55
100305.64
100495.11
100653.95
100784.44
100889.01
100970.2
101030.5
101072.38
101098.19
101110.14
101110.29
101100.53
101082.59
101058.01
101028.18
100994.34
100957.57
100918.83
100878.96
100838.67
100798.61
100759.3
100721.19
100684.66
100650.03
100617.53
100587.37
100559.7
100534.62
100512.19
100492.42
100475.29
100460.72
100448.6
100438.77
100431.04
100425.17
100420.91
100417.97
100416.08
100414.9
100414.07
100413.28
100412.26
100410.57
100407.38
100402.12
100395.95
100390.62
100381.95
100358.91
100329.82
100345.66
100397.88
88794.683
89750.827
89756.395
90678.534
90903.178
91654.118
92130.856
92757.609
93353.914
93971.032
94592.075
95214.833
95833.461
96442.377
97035.618
97607.279
98151.751
98663.999
99139.796
99575.892
99970.111
100321.36
100629.59
100895.64
101121.17
101308.4
101460.03
101579.02
101668.51
101731.66
101771.58
101791.25
101793.49
101780.92
101755.93
101720.71
101677.21
101627.17
101572.13
101513.45
101452.32
101389.75
101326.64
101263.75
101201.72
101141.12
101082.4
101025.94
100972.07
100921.02
100872.99
100828.13
100786.54
100748.28
100713.37
100681.8
100653.51
100628.41
100606.38
100587.24
100570.79
100556.8
100545
100535.12
100526.86
100519.91
100513.89
100508.44
100503.24
100498
100492.14
100484.82
100475.88
100466.95
100459.05
100446.14
100418.36
100390.16
100411.94
100460.34
89417.63
90552.65
90587.693
91644.689
91957.504
92795.479
93389.575
94102.151
94795.66
95499.395
96199.376
96889.807
97562.603
98210.083
98824.871
99400.411
99931.282
100413.43
100844.31
101222.81
101549.22
101825
102052.58
102235.1
102376.18
102479.75
102549.82
102590.37
102605.26
102598.1
102572.27
102530.83
102476.57
102411.98
102339.24
102260.31
102176.87
102090.39
102002.14
101913.19
101824.48
101736.8
101650.79
101567.01
101485.92
101407.9
101333.25
101262.21
101194.96
101131.62
101072.29
101017.01
100965.8
100918.64
100875.49
100836.26
100800.84
100769.08
100740.8
100715.79
100693.82
100674.62
100657.89
100643.36
100630.7
100619.58
100609.6
100600.39
100591.65
100582.98
100573.72
100563.1
100551.43
100540.61
100530.6
100513.87
100482.7
100457.11
100485.09
100529.68
90203.656
91554.132
91633.837
92846.605
93281.541
94218.696
94952.03
95767.253
96565.494
97358.004
98130.196
98872.642
99575.276
100229.44
100828.08
101366.14
101840.64
102250.63
102597.01
102882.18
103109.75
103284.15
103410.31
103493.42
103538.64
103551.01
103535.27
103495.81
103436.64
103361.33
103273.1
103174.74
103068.7
102957.11
102841.8
102724.32
102606.01
102487.99
102371.2
102256.43
102144.34
102035.45
101930.21
101828.96
101731.98
101639.49
101551.65
101468.54
101390.25
101316.8
101248.17
101184.34
101125.25
101070.82
101020.94
100975.46
100934.23
100897.05
100863.71
100833.96
100807.53
100784.13
100763.47
100745.25
100729.12
100714.74
100701.7
100689.63
100678.22
100666.97
100655.16
100642.21
100628.89
100617.06
100605.41
100585.58
100552.82
100531.79
100565.91
100606.03
91184.497
92804.226
92965.856
94351.3
94954.844
96007.338
96897.13
97825.484
98722.581
99586.345
100400.6
101154.15
101837.6
102444.57
102971.7
103418.44
103786.74
104080.5
104305.08
104466.75
104572.26
104628.47
104642.07
104619.4
104566.29
104488.05
104389.4
104274.49
104146.95
104009.92
103866.09
103717.73
103566.79
103414.9
103263.41
103113.47
102966
102821.78
102681.42
102545.42
102414.19
102288.01
102167.13
102051.73
101941.9
101837.74
101739.26
101646.46
101559.31
101477.75
101401.68
101331.03
101265.66
101205.44
101150.21
101099.79
101053.97
101012.53
100975.21
100941.75
100911.86
100885.25
100861.6
100840.61
100821.93
100805.17
100789.95
100775.92
100762.7
100749.74
100736.3
100722.08
100708.2
100696.14
100683.38
100661.52
100629.38
100614.89
100654.62
100689.21
92444.686
94404.479
94693.53
96272.306
97092.437
98268.891
99309.91
100335.63
101293.92
102175.94
102967.71
103661.37
104253.16
104743.44
105135.92
105436.84
105654.18
105796.88
105874.22
105895.31
105868.82
105802.7
105704.14
105579.46
105434.2
105273.12
105100.29
104919.13
104732.56
104542.97
104352.37
104162.42
103974.47
103789.62
103608.77
103432.62
103261.75
103096.59
102937.46
102784.62
102638.23
102498.4
102365.21
102238.66
102118.75
102005.43
101898.63
101798.24
101704.17
101616.28
101534.42
101458.46
101388.22
101323.53
101264.18
101209.96
101160.63
101115.94
101075.63
101039.41
101006.97
100978.03
100952.28
100929.38
100908.98
100890.69
100874.13
100858.95
100844.74
100830.89
100816.73
100802.28
100788.82
100777.2
100763.88
100741.29
100712.09
100705.66
100749.45
100775.23
94117.374
96497.152
96969.447
98739.514
99811.531
101096.77
102235.58
103290.99
104224.77
105030.51
105703.9
106247.05
106666.59
106972.5
107176.72
107292.08
107331.39
107306.84
107229.64
107109.78
106956.02
106775.88
106575.76
106361.03
106136.16
105904.86
105670.15
105434.5
105199.94
104968.07
104740.19
104517.32
104300.26
104089.65
103885.94
103689.48
103500.52
103319.21
103145.65
102979.87
102821.86
102671.59
102528.97
102393.91
102266.29
102145.98
102032.82
101926.65
101827.3
101734.6
101648.35
101568.37
101494.46
101426.4
101363.96
101306.91
101255
101207.95
101165.48
101127.31
101093.12
101062.64
101035.54
101011.48
100990.11
100971.02
100953.86
100938.26
100923.76
100909.74
100895.67
100881.87
100869.55
100858.84
100845.54
100823.52
100798.82
100800.27
100845.76
100861.48
96394.913
99244.48
99962.854
101874.2
103159.48
104492.34
105610.63
106566.39
107346.34
107956.21
108407.1
108714.96
108897.89
108974.52
108962.74
108878.93
108737.6
108551.29
108330.58
108084.32
107819.78
107542.9
107258.47
106970.36
106681.64
106394.76
106111.65
105833.79
105562.36
105298.23
105042.06
104794.35
104555.41
104325.48
104104.69
103893.08
103690.64
103497.31
103313.02
103137.62
102970.97
102812.92
102663.29
102521.89
102388.53
102263.01
102145.11
102034.63
101931.35
101835.07
101745.56
101662.61
101585.99
101515.46
101450.79
101391.71
101337.96
101289.26
101245.32
101205.87
101170.59
101139.2
101111.38
101086.78
101065.04
101045.76
101028.6
101013.15
100998.92
100985.31
100971.99
100959.43
100948.64
100939.05
100926.37
100906.32
100887.03
100894.16
100937.68
100949.05
99532.809
102761.75
103789.15
105768.07
107094.06
108277.53
109207.28
109908.11
110397.92
110703.62
110853.46
110875.25
110794.38
110633.08
110410.21
110141.37
109839.26
109514.07
109173.87
108825.04
108472.54
108120.23
107771.09
107427.37
107090.8
106762.65
106443.86
106135.08
105836.78
105549.24
105272.62
105006.97
104752.28
104508.46
104275.38
104052.86
103840.73
103638.75
103446.71
103264.36
103091.47
102927.78
102773.05
102627.04
102489.49
102360.15
102238.78
102125.14
102018.98
101920.07
101828.18
101743.06
101664.47
101592.17
101525.9
101465.39
101410.37
101360.57
101315.7
101275.46
101239.59
101207.77
101179.7
101155.02
101133.35
101114.32
101097.57
101082.65
101069.07
101056.3
101044.16
101033.16
101023.94
101015.47
101003.97
100987.11
100973.49
100983.81
101022.1
101028.32
103787.35
107232.19
108464.11
110176.25
111317.21
112159.49
112702.19
113000.48
113099.48
113042.74
112867.11
112603.19
112275.5
111903.32
111501.58
111081.69
110652.33
110220
109789.55
109364.6
108947.76
108540.93
108145.45
107762.24
107391.88
107034.74
106690.97
106360.61
106043.58
105739.74
105448.87
105170.72
104905.02
104651.48
104409.77
104179.57
103960.58
103752.45
103554.87
103367.53
103190.12
103022.33
102863.87
102714.45
102573.79
102441.61
102317.64
102201.61
102093.27
101992.37
101898.66
101811.9
101731.82
101658.19
101590.72
101529.17
101473.24
101422.68
101377.19
101336.5
101300.33
101268.38
101240.33
101215.83
101194.5
101175.95
101159.8
101145.6
101132.85
101121.1
101110.29
101100.83
101092.99
101085.56
101075.74
101062.85
101054.39
101064.51
101093.24
101097.18
109087.27
112493.55
113627.88
114769.64
115390.58
115680.22
115703.81
115535.46
115229.84
114829.81
114367.25
113865.65
113342.07
112808.77
112274.51
111745.46
111225.93
110718.87
110226.27
109749.38
109288.96
108845.39
108418.8
108009.11
107616.12
107239.53
106878.97
106534.05
106204.33
105889.36
105588.71
105301.91
105028.53
104768.12
104520.25
104284.52
104060.51
103847.83
103646.09
103454.95
103274.05
103103.05
102941.63
102789.48
102646.29
102511.76
102385.62
102267.58
102157.38
102054.77
101959.49
101871.29
101789.92
101715.11
101646.61
101584.14
101527.43
101476.22
101430.23
101389.19
101352.82
101320.82
101292.86
101268.6
101247.65
101229.62
101214.09
101200.59
101188.65
101177.9
101168.29
101160.05
101153.16
101146.6
101138.62
101129.5
101124.97
101134.07
101154.6
101154.76
115383.38
117923.03
118543.21
118829.71
118736.96
118407.13
117920.43
117338.06
116701.02
116037.13
115364.85
114696.33
114039.46
113399.26
112778.78
112179.81
111603.22
111049.32
110518.01
110008.95
109521.63
109055.42
108609.65
108183.63
107776.63
107387.96
107016.92
106662.84
106325.08
106003.01
105696.03
105403.58
105125.11
104860.09
104608.04
104368.47
104140.94
103925
103720.26
103526.32
103342.81
103169.38
103005.68
102851.38
102706.18
102569.77
102441.85
102322.15
102210.41
102106.36
102009.75
101920.32
101837.82
101762
101692.58
101629.3
101571.91
101520.13
101473.69
101432.33
101395.76
101363.7
101335.82
101311.76
101291.14
101273.54
101258.54
101245.65
101234.44
101224.57
101215.9
101208.48
101202.17
101196.39
101190.35
101184.63
101182.63
101188.75
101200.31
101199.41
122082.87
122529.78
122311.9
121759.79
121023.58
120194.02
119327.74
118456.81
117599.95
116767.51
115964.98
115194.96
114458.29
113754.8
113083.71
112443.94
111834.21
111253.19
110699.54
110171.94
109669.12
109189.88
108733.08
108297.66
107882.6
107486.97
107109.88
106750.51
106408.08
106081.86
105771.19
105475.4
105193.92
104926.15
104671.58
104429.68
104199.99
103982.04
103775.41
103579.69
103394.5
103219.46
103054.24
102898.5
102751.91
102614.18
102485
102364.09
102251.2
102146.05
102048.4
101957.99
101874.57
101797.89
101727.68
101663.68
101605.65
101553.31
101506.4
101464.66
101427.83
101395.6
101367.66
101343.65
101323.19
101305.84
101291.18
101278.72
101268.05
101258.8
101250.75
101243.78
101237.78
101232.6
101228.22
101225.07
101224.3
101227.06
101231.96
101232.04
125994.86
125365.01
124442.92
123382.83
122290.1
121209.15
120162.89
119160.7
118206.1
117299.36
116439.21
115623.6
114850.19
114116.54
113420.27
112759.1
112130.9
111533.69
110965.64
110425.08
109910.44
109420.33
108953.41
108508.51
108084.5
107680.37
107295.16
106928.01
106578.09
106244.66
105927
105624.45
105336.41
105062.27
104801.51
104553.6
104318.06
104094.43
103882.27
103681.19
103490.78
103310.69
103140.57
102980.08
102828.9
102686.73
102553.28
102428.27
102311.42
102202.5
102101.24
102007.4
101920.73
101840.99
101767.9
101701.23
101640.7
101586.07
101537.08
101493.47
101454.96
101421.28
101392.09
101367.04
101345.74
101327.73
101312.57
101299.77
101288.89
101279.56
101271.47
101264.38
101258.22
101253.16
101249.53
101247.55
101247.05
101247.56
101248.69
101249.6
103683.41
103656.42
103706.57
103756.55
103793.55
103804.03
103786.87
103757.49
103721.89
103676.89
103618.04
103545.93
103464.35
103378.18
103288.21
103194.52
103097.45
102997.48
102895.06
102790.59
102684.44
102576.96
102468.48
102359.31
102249.72
102139.97
102030.3
101920.94
101812.09
101703.95
101596.71
101490.53
101385.59
101282.05
101180.07
101079.8
100981.4
100885
100790.76
100698.83
100609.36
100522.49
100438.37
100357.15
100278.98
100204
100132.36
100064.21
99999.697
99938.957
99882.126
99829.334
99780.702
99736.346
99696.369
99660.864
99629.907
99603.559
99581.867
99564.85
99552.496
99544.758
99541.545
99542.738
99548.146
99557.616
99570.776
99587.574
99607.193
99629.973
99654.44
99681.087
99709.825
99735.577
99773.287
99786.323
99847.935
99820.736
99927.129
99839.911
103041.91
103035.23
103048.75
103064.57
103062.79
103054.79
103043.16
103024.76
102994.51
102958.45
102915.46
102867.27
102813.21
102754.34
102690.75
102623.11
102551.66
102476.73
102398.64
102317.7
102234.23
102148.5
102060.81
101971.43
101880.63
101788.69
101695.85
101602.38
101508.51
101414.48
101320.53
101226.88
101133.74
101041.34
100949.87
100859.55
100770.56
100683.12
100597.41
100513.61
100431.93
100352.53
100275.61
100201.34
100129.91
100061.47
99996.204
99934.277
99875.849
99821.076
99770.102
99723.066
99680.097
99641.31
99606.812
99576.694
99551.029
99529.872
99513.259
99501.2
99493.669
99490.603
99491.899
99497.42
99506.973
99520.384
99537.305
99557.639
99580.644
99606.539
99633.979
99663.323
99694.465
99722.772
99761.789
99777.844
99838.939
99815.851
99921.786
99835.06
102613.02
102596.56
102566.48
102534.89
102504.17
102475.56
102442.33
102409.87
102373.76
102337.18
102296.65
102254.75
102209.32
102161.76
102111.17
102058.04
102002.21
101943.81
101882.9
101819.58
101753.97
101686.2
101616.42
101544.79
101471.47
101396.65
101320.52
101243.27
101165.1
101086.23
101006.86
100927.21
100847.5
100767.95
100688.79
100610.22
100532.48
100455.79
100380.36
100306.42
100234.18
100163.85
100095.65
100029.77
99966.432
99905.825
99848.144
99793.576
99742.301
99694.491
99650.304
99609.89
99573.385
99540.914
99512.585
99488.49
99468.7
99453.268
99442.221
99435.561
99433.248
99435.209
99441.326
99451.453
99465.389
99482.948
99503.801
99527.817
99554.313
99583.421
99613.895
99645.989
99679.586
99710.381
99750.869
99769.568
99830.644
99811.149
99916.822
99830.755
101993.46
101970.17
101941.21
101909.19
101877.25
101848.92
101816.1
101786.26
101752.21
101720.15
101684.57
101649.7
101612.09
101574.02
101533.85
101492.34
101449.02
101404.01
101357.22
101308.62
101258.23
101206.04
101152.09
101096.44
101039.16
100980.33
100920.08
100858.52
100795.8
100732.06
100667.49
100602.27
100536.57
100470.61
100404.6
100338.74
100273.26
100208.39
100144.36
100081.4
100019.73
99959.589
99901.208
99844.812
99790.625
99738.865
99689.746
99643.474
99600.245
99560.245
99523.646
99490.608
99461.277
99435.784
99414.242
99396.743
99383.358
99374.135
99369.095
99368.231
99371.493
99378.797
99390.018
99404.996
99423.527
99445.417
99470.347
99498.168
99528.245
99560.647
99594.208
99629.101
99665.191
99698.433
99740.506
99761.556
99823.014
99806.544
99912.306
99826.942
101244.68
101228.47
101212.93
101194.53
101174.04
101157.92
101135.75
101118.02
101094.78
101074.83
101050.38
101027.67
101001.79
100976.29
100948.71
100920.25
100890.18
100858.74
100825.78
100791.26
100755.17
100717.48
100678.2
100637.33
100594.92
100551
100505.64
100458.92
100410.94
100361.81
100311.65
100260.61
100208.85
100156.54
100103.87
100051.02
99998.224
99945.68
99893.618
99842.266
99791.858
99742.631
99694.822
99648.669
99604.406
99562.266
99522.474
99485.248
99450.797
99419.315
99390.986
99365.977
99344.443
99326.518
99312.316
99301.93
99295.43
99292.858
99294.229
99299.524
99308.689
99321.628
99338.208
99358.263
99381.584
99407.968
99437.107
99468.837
99502.568
99538.325
99575.01
99612.737
99651.337
99687.006
99730.715
99753.921
99816.001
99802.166
99908.239
99823.608
100510.51
100504.18
100499.93
100494.79
100485.46
100481.47
100469.97
100464.48
100452.01
100444.15
100430.58
100419.77
100405.09
100391.4
100375.49
100359.02
100340.95
100321.71
100301.11
100279.16
100255.84
100231.1
100204.96
100177.39
100148.42
100118.05
100086.32
100053.27
100018.97
99983.499
99946.944
99909.416
99871.041
99831.964
99792.342
99752.347
99712.167
99672.001
99632.058
99592.557
99553.723
99515.788
99478.987
99443.558
99409.739
99377.763
99347.86
99320.253
99295.154
99272.762
99253.265
99236.835
99223.628
99213.778
99207.401
99204.584
99205.394
99209.865
99218.004
99229.784
99245.142
99263.974
99286.142
99311.47
99339.749
99370.767
99404.227
99439.949
99477.391
99516.541
99556.372
99596.95
99638.066
99676.154
99721.506
99746.707
99809.575
99798.113
99904.59
99820.74
99846.008
99846.052
99847.035
99850.25
99847.991
99852.651
99848.361
99851.889
99846.976
99848.308
99843.227
99842.424
99836.958
99832.644
99825.854
99819.056
99810.871
99801.859
99791.752
99780.556
99768.234
99754.742
99740.056
99724.156
99707.032
99688.683
99669.12
99648.366
99626.457
99603.446
99579.399
99554.4
99528.547
99501.957
99474.762
99447.112
99419.168
99391.107
99363.119
99335.405
99308.173
99281.641
99256.035
99231.581
99208.509
99187.048
99167.421
99149.846
99134.531
99121.673
99111.457
99104.054
99099.614
99098.27
99100.128
99105.271
99113.757
99125.612
99140.831
99159.378
99181.181
99206.13
99234.079
99264.851
99298.229
99333.996
99371.864
99411.643
99452.832
99495.394
99538.376
99581.801
99625.428
99665.918
99712.897
99740.161
99803.734
99794.466
99901.332
99818.335
99247.935
99253.022
99257.002
99265.359
99266.73
99277.112
99276.962
99286.596
99286.46
99294.311
99294.464