/*--------------------------------*- C++ -*----------------------------------*\
  =========                 |
  \\      /  F ield         | OpenFOAM: The Open Source CFD Toolbox
   \\    /   O peration     | Website:  https://openfoam.org
    \\  /    A nd           | Version:  12
     \\/     M anipulation  |
\*---------------------------------------------------------------------------*/
FoamFile
{
    format      ascii;
    class       volScalarField;
    location    "0.06";
    object      rho;
}
// * * * * * * * * * * * * * * * * * * * * * * * * * * * * * * * * * * * * * //

dimensions      [1 -3 0 0 0 0 0];

internalField   nonuniform List<scalar> 
16000
(
1.0537969
1.0870312
1.0747121
1.0831192
1.079217
1.0827211
1.0817301
1.0835869
1.0837445
1.0849767
1.0856438
1.0866799
1.0875776
1.0885965
1.0896152
1.0906872
1.0917926
1.0929391
1.094125
1.0953512
1.0966178
1.0979248
1.0992721
1.1006594
1.1020859
1.103551
1.1050536
1.1065922
1.1081654
1.1097711
1.1114073
1.1130714
1.1147606
1.116472
1.1182021
1.1199475
1.1217044
1.1234688
1.1252367
1.1270038
1.1287658
1.1305185
1.1322577
1.1339791
1.1356788
1.1373529
1.1389977
1.1406101
1.1421868
1.1437253
1.1452231
1.1466784
1.1480896
1.1494553
1.1507748
1.1520475
1.1532734
1.1544527
1.1555861
1.1566747
1.1577197
1.1587229
1.1596864
1.1606124
1.1615027
1.1623582
1.1631781
1.1639588
1.1646937
1.1653728
1.1659839
1.1665142
1.1669493
1.1672711
1.1674517
1.1674522
1.1672242
1.1667555
1.1664565
1.1655179
1.0505114
1.0842683
1.071377
1.0802973
1.0761661
1.079944
1.0788513
1.0808831
1.0810349
1.0823719
1.0830925
1.0842059
1.0851798
1.0862752
1.0873767
1.088532
1.089725
1.0909615
1.0922404
1.0935624
1.0949273
1.096335
1.097785
1.0992767
1.1008092
1.1023813
1.1039914
1.1056377
1.1073183
1.1090307
1.1107721
1.1125395
1.1143296
1.1161389
1.1179634
1.119799
1.1216414
1.1234863
1.1253291
1.1271651
1.1289899
1.1307989
1.1325877
1.1343521
1.1360881
1.1377921
1.1394606
1.1410906
1.1426795
1.1442249
1.1457251
1.1471786
1.1485843
1.1499417
1.1512504
1.1525105
1.1537223
1.1548867
1.1560047
1.1570777
1.1581072
1.1590952
1.1600438
1.1609549
1.1618301
1.16267
1.1634734
1.1642362
1.1649517
1.1656099
1.1661992
1.1667066
1.167118
1.1674151
1.1675694
1.1675389
1.1672799
1.1668384
1.1664211
1.1656744
1.0475509
1.0817617
1.0684171
1.0777207
1.0734462
1.0774295
1.0763081
1.0784617
1.0786567
1.0800789
1.0808755
1.0820677
1.0831297
1.0843106
1.0855053
1.0867548
1.0880462
1.0893837
1.0907665
1.0921947
1.093668
1.0951859
1.0967476
1.0983521
1.099998
1.1016838
1.1034074
1.1051666
1.1069587
1.1087807
1.1106294
1.112501
1.1143916
1.1162969
1.1182125
1.1201337
1.1220557
1.1239735
1.1258821
1.1277767
1.1296524
1.1315046
1.1333289
1.1351211
1.1368775
1.1385946
1.1402693
1.1418993
1.1434823
1.1450166
1.1465011
1.147935
1.1493179
1.1506499
1.1519312
1.1531625
1.1543449
1.1554796
1.156568
1.1576121
1.1586136
1.1595746
1.1604971
1.1613832
1.1622339
1.1630495
1.1638281
1.1645653
1.1652539
1.1658839
1.1664439
1.1669213
1.1673024
1.1675688
1.1676911
1.1676265
1.1673452
1.1669045
1.1664252
1.1658301
1.0449257
1.079515
1.0657765
1.0754116
1.0710036
1.0752241
1.07408
1.0763746
1.0766224
1.0781437
1.0790312
1.0803146
1.0814801
1.0827601
1.0840619
1.0854189
1.0868213
1.0882719
1.0897699
1.0913152
1.0929072
1.0945452
1.0962279
1.0979539
1.0997216
1.1015286
1.1033726
1.1052506
1.1071593
1.1090949
1.1110534
1.1130304
1.1150212
1.1170208
1.119024
1.1210256
1.1230199
1.1250018
1.1269658
1.1289068
1.1308198
1.1327001
1.1345434
1.136346
1.1381043
1.1398153
1.1414768
1.1430867
1.1446437
1.1461469
1.1475958
1.1489905
1.1503313
1.1516191
1.1528549
1.15404
1.1551761
1.1562648
1.1573083
1.1583085
1.1592678
1.1601883
1.161072
1.1619208
1.1627356
1.1635161
1.16426
1.1649624
1.1656158
1.1662102
1.166734
1.1671752
1.1675205
1.1677517
1.167838
1.1677384
1.1674365
1.1669832
1.1664696
1.1659901
1.0426844
1.077664
1.0635223
1.0734595
1.0689032
1.0734016
1.0722475
1.0746891
1.0750097
1.076639
1.0776365
1.0790209
1.0803029
1.0816924
1.0831111
1.0845851
1.0861075
1.0876801
1.0893023
1.0909738
1.0926935
1.0944605
1.096273
1.0981292
1.1000267
1.1019625
1.1039333
1.1059355
1.1079648
1.1100165
1.1120859
1.1141674
1.1162556
1.1183446
1.1204286
1.1225014
1.1245572
1.1265902
1.1285948
1.1305656
1.1324978
1.1343869
1.136229
1.1380206
1.139759
1.1414419
1.1430677
1.1446353
1.1461444
1.1475948
1.1489871
1.1503223
1.1516016
1.1528265
1.153999
1.1551209
1.1561946
1.1572223
1.1582063
1.1591493
1.1600536
1.1609215
1.161755
1.1625558
1.1633246
1.1640606
1.164761
1.1654206
1.1660314
1.1665832
1.1670646
1.1674637
1.1677678
1.1679588
1.1680053
1.1678705
1.1675482
1.1670773
1.1665421
1.1661656
1.040867
1.0762223
1.0617277
1.0719781
1.0673324
1.0720375
1.0708714
1.0734832
1.0738876
1.075632
1.0767499
1.0782371
1.0796412
1.0811459
1.0826881
1.0842875
1.0859392
1.0876443
1.0894019
1.0912112
1.0930706
1.0949785
1.0969324
1.0989295
1.1009666
1.1030397
1.1051446
1.1072764
1.1094299
1.1115993
1.1137787
1.1159616
1.1181416
1.1203119
1.122466
1.1245972
1.1266993
1.128766
1.1307919
1.1327717
1.1347008
1.1365752
1.1383917
1.1401477
1.1418411
1.1434709
1.1450364
1.1465376
1.1479752
1.1493503
1.1506644
1.1519194
1.1531175
1.1542611
1.1553529
1.1563954
1.1573913
1.1583436
1.1592548
1.1601279
1.1609654
1.1617695
1.1625424
1.1632853
1.1639987
1.1646814
1.1653302
1.1659394
1.1665007
1.1670037
1.1674371
1.1677889
1.1680473
1.1681939
1.1681975
1.1680273
1.1676846
1.1671929
1.1666423
1.1663607
1.0394618
1.07519
1.0603763
1.0709737
1.0662316
1.0711474
1.0700378
1.0727757
1.0732852
1.0751095
1.0763551
1.07795
1.0794877
1.0811214
1.0828025
1.0845441
1.0863427
1.088198
1.0901086
1.0920728
1.0940884
1.0961526
1.098262
1.1004128
1.1026004
1.1048198
1.1070653
1.109331
1.1116102
1.113896
1.1161811
1.1184582
1.1207197
1.1229582
1.1251665
1.1273375
1.1294648
1.1315423
1.1335645
1.1355269
1.1374255
1.1392573
1.1410198
1.1427117
1.1443322
1.1458814
1.14736
1.1487693
1.1501112
1.1513879
1.1526021
1.1537567
1.1548548
1.1558997
1.1568945
1.1578426
1.158747
1.159611
1.1604377
1.1612298
1.1619902
1.162721
1.1634242
1.1641007
1.1647507
1.1653724
1.1659624
1.1665146
1.1670204
1.1674694
1.1678499
1.1681506
1.1683596
1.1684586
1.1684171
1.1682118
1.1678486
1.1673327
1.1667728
1.1665824
1.0384006
1.0744997
1.0593914
1.0703834
1.0655352
1.0706916
1.0695867
1.0725368
1.0730665
1.0750159
1.076426
1.0781575
1.0798573
1.0816479
1.0834936
1.0854024
1.0873715
1.0893997
1.0914848
1.0936243
1.0958147
1.0980522
1.1003321
1.1026492
1.1049974
1.1073704
1.1097609
1.1121613
1.1145637
1.1169597
1.119341
1.1216989
1.1240253
1.1263121
1.1285516
1.1307368
1.1328614
1.1349197
1.1369072
1.1388201
1.1406556
1.1424119
1.1440882
1.1456845
1.1472015
1.148641
1.1500051
1.1512965
1.1525184
1.1536744
1.154768
1.1558033
1.1567842
1.1577145
1.1585981
1.1594387
1.1602397
1.1610047
1.1617368
1.1624389
1.1631138
1.1637634
1.1643894
1.1649926
1.1655725
1.166127
1.1666523
1.1671419
1.1675872
1.1679777
1.1683017
1.1685482
1.1687056
1.1687549
1.1686677
1.1684288
1.1680445
1.1675014
1.1669391
1.1668366
1.0376837
1.0741419
1.0587611
1.0702309
1.0651835
1.0705239
1.0695041
1.0724948
1.0733531
1.0754442
1.07705
1.0789434
1.0808308
1.0828049
1.0848406
1.086942
1.0891063
1.0913311
1.0936132
1.0959486
1.0983327
1.1007599
1.103224
1.1057179
1.108234
1.1107639
1.1132986
1.1158291
1.1183456
1.1208385
1.1232982
1.1257155
1.1280814
1.1303876
1.1326267
1.1347919
1.1368778
1.1388797
1.1407945
1.1426197
1.1443544
1.1459986
1.1475532
1.1490201
1.150402
1.1517021
1.1529242
1.1540726
1.1551518
1.1561663
1.1571208
1.1580202
1.1588689
1.1596715
1.160432
1.1611546
1.1618429
1.1625004
1.1631304
1.1637357
1.1643187
1.1648813
1.1654247
1.1659492
1.166454
1.1669365
1.1673925
1.1678153
1.1681963
1.1685249
1.1687899
1.1689805
1.1690851
1.1690841
1.1689522
1.1686824
1.1682769
1.1677035
1.1671443
1.1671293
1.0373587
1.0741658
1.0585391
1.0704239
1.06525
1.0708354
1.0700025
1.0731764
1.074232
1.0764773
1.0783081
1.0803912
1.082493
1.0846795
1.0869329
1.0892544
1.0916401
1.0940864
1.0965883
1.0991403
1.1017357
1.104367
1.1070258
1.109703
1.1123886
1.1150722
1.1177431
1.12039
1.123002
1.1255682
1.1280782
1.1305222
1.1328912
1.1351774
1.1373741
1.1394756
1.1414781
1.1433788
1.1451763
1.1468706
1.1484629
1.1499555
1.1513515
1.1526549
1.1538703
1.1550027
1.1560575
1.1570402
1.1579565
1.1588119
1.159612
1.1603621
1.1610672
1.161732
1.1623609
1.162958
1.1635271
1.1640716
1.1645945
1.1650985
1.1655856
1.1660574
1.1665147
1.1669572
1.1673836
1.167791
1.1681746
1.1685278
1.1688419
1.1691067
1.1693112
1.1694452
1.1694969
1.1694463
1.1692724
1.1689756
1.1685486
1.1679438
1.1673952
1.1674642
1.037498
1.0746457
1.0587834
1.0708449
1.065843
1.0717275
1.0710966
1.074443
1.0757682
1.0781922
1.0802826
1.0825899
1.0849374
1.0873687
1.0898709
1.0924422
1.0950774
1.0977707
1.1005152
1.1033029
1.1061246
1.1089703
1.1118288
1.1146883
1.1175365
1.1203607
1.123148
1.1258857
1.1285615
1.1311639
1.1336821
1.1361066
1.1384293
1.1406437
1.1427447
1.1447292
1.1465953
1.1483432
1.1499742
1.1514912
1.1528979
1.1541992
1.1554006
1.1565083
1.1575287
1.1584684
1.1593342
1.1601326
1.1608703
1.1615534
1.1621879
1.1627795
1.1633334
1.1638543
1.1643466
1.1648143
1.165261
1.1656898
1.1661034
1.1665042
1.1668938
1.1672733
1.167643
1.168002
1.1683486
1.1686792
1.1689891
1.1692714
1.1695177
1.169718
1.1698618
1.1699397
1.1699392
1.1698407
1.1696289
1.1693096
1.168861
1.1682255
1.1676969
1.1678427
1.0381713
1.0756447
1.0595857
1.0719846
1.0671294
1.0732454
1.0728797
1.076405
1.0780513
1.080684
1.0830696
1.0856405
1.0882693
1.0909817
1.0937671
1.0966205
1.0995346
1.1025008
1.1055091
1.1085482
1.1116057
1.1146683
1.1177216
1.120751
1.1237415
1.126678
1.1295462
1.132332
1.1350226
1.1376067
1.1400743
1.1424175
1.1446302
1.1467084
1.1486503
1.1504559
1.152127
1.1536669
1.1550806
1.1563739
1.1575536
1.158627
1.159602
1.1604865
1.1612886
1.1620162
1.1626769
1.1632781
1.1638269
1.1643297
1.1647926
1.1652214
1.1656209
1.1659959
1.1663505
1.1666883
1.1670125
1.167326
1.167631
1.1679293
1.1682221
1.1685099
1.1687924
1.1690684
1.1693354
1.1695896
1.1698259
1.1700377
1.1702167
1.1703532
1.1704378
1.170461
1.1704099
1.1702662
1.1700216
1.1696841
1.169214
1.1685512
1.168052
1.1682649
1.0393675
1.0771612
1.060931
1.0737509
1.0690689
1.0754349
1.0754151
1.0791386
1.0811675
1.0840527
1.0867752
1.0896572
1.0926098
1.0956453
1.0987525
1.101923
1.1051456
1.1084078
1.1116956
1.1149936
1.1182854
1.1215538
1.1247813
1.12795
1.1310425
1.1340423
1.1369338
1.139703
1.142338
1.1448291
1.147169
1.1493529
1.1513787
1.1532465
1.1549588
1.1565199
1.1579358
1.1592139
1.1603624
1.1613905
1.1623076
1.1631232
1.163847
1.1644884
1.1650565
1.1655598
1.1660065
1.1664043
1.1667601
1.1670804
1.1673711
1.1676375
1.1678842
1.1681154
1.1683349
1.1685457
1.1687507
1.168952
1.1691515
1.1693504
1.1695493
1.1697481
1.1699461
1.1701412
1.1703306
1.1705103
1.170675
1.1708182
1.1709319
1.171007
1.1710349
1.1710062
1.1709071
1.1707222
1.1704505
1.1700986
1.1696068
1.1689222
1.1684619
1.1687298
1.0411498
1.079257
1.0628966
1.0761736
1.0717717
1.0783938
1.0788112
1.0827577
1.0852324
1.0884265
1.0915353
1.094784
1.0981104
1.1015157
1.1049855
1.1085062
1.1120615
1.115634
1.1192045
1.122753
1.1262584
1.1296998
1.1330561
1.136307
1.1394338
1.1424192
1.1452488
1.1479106
1.1503959
1.152699
1.1548177
1.1567524
1.1585064
1.1600855
1.1614973
1.162751
1.163857
1.1648263
1.1656706
1.1664013
1.16703
1.167568
1.1680257
1.1684135
1.1687406
1.1690159
1.1692475
1.1694426
1.1696079
1.1697494
1.1698725
1.1699817
1.1700813
1.1701748
1.1702652
1.1703552
1.1704468
1.1705418
1.1706413
1.1707459
1.1708557
1.1709701
1.1710876
1.1712057
1.1713213
1.17143
1.1715266
1.1716047
1.1716567
1.1716743
1.1716496
1.1715726
1.1714294
1.1712085
1.1709161
1.1705527
1.1700392
1.1693409
1.168929
1.1692368
1.0435761
1.0819877
1.0655923
1.0793628
1.0753306
1.0822216
1.0831836
1.0873971
1.0903906
1.0939699
1.0975272
1.1012069
1.104962
1.1087832
1.1126508
1.1165447
1.1204426
1.1243209
1.1281547
1.1319184
1.1355866
1.1391345
1.1425387
1.1457783
1.1488352
1.151695
1.1543471
1.156785
1.1590062
1.1610121
1.1628074
1.1643995
1.1657984
1.1670159
1.1680648
1.1689589
1.1697124
1.1703393
1.1708533
1.1712678
1.1715953
1.1718476
1.1720357
1.1721696
1.1722584
1.1723104
1.1723331
1.1723331
1.1723164
1.1722881
1.1722528
1.1722144
1.1721763
1.1721412
1.1721115
1.1720892
1.1720758
1.1720722
1.1720791
1.1720964
1.1721237
1.1721596
1.1722023
1.1722488
1.1722957
1.1723385
1.1723721
1.1723901
1.1723854
1.1723507
1.1722784
1.172158
1.1719758
1.1717258
1.1714197
1.1710468
1.1705121
1.1698117
1.1694593
1.169788
1.046703
1.0853836
1.0691462
1.0833934
1.079872
1.0870594
1.0887018
1.0932587
1.0968557
1.1009109
1.1049849
1.1091585
1.1133907
1.1176624
1.1219466
1.1262155
1.1304393
1.1345869
1.1386269
1.1425285
1.1462626
1.1498031
1.1531275
1.1562181
1.1590623
1.1616526
1.1639869
1.1660677
1.1679018
1.1694993
1.1708734
1.172039
1.1730126
1.1738111
1.1744521
1.1749524
1.1753287
1.1755967
1.1757711
1.1758656
1.1758929
1.1758643
1.1757903
1.17568
1.1755417
1.1753827
1.1752096
1.1750279
1.1748426
1.1746578
1.1744772
1.1743039
1.1741401
1.1739882
1.1738496
1.1737257
1.1736172
1.1735245
1.1734475
1.1733858
1.1733382
1.173303
1.1732777
1.1732593
1.1732439
1.1732272
1.173204
1.1731682
1.1731132
1.1730327
1.1729191
1.172761
1.1725463
1.1722756
1.1719625
1.1715815
1.1710275
1.1703405
1.1700617
1.1703871
1.0506052
1.0894557
1.0736781
1.0884247
1.0856074
1.0931576
1.0956314
1.1006272
1.1049091
1.1095287
1.1141805
1.1188983
1.1236396
1.1283739
1.1330644
1.1376729
1.1421601
1.146487
1.1506169
1.1545167
1.1581583
1.1615199
1.1645863
1.1673494
1.1698079
1.1719662
1.1738343
1.1754262
1.1767592
1.1778528
1.1787279
1.1794057
1.1799077
1.1802545
1.1804659
1.1805605
1.1805557
1.1804672
1.1803094
1.1800952
1.1798363
1.1795428
1.1792239
1.1788875
1.1785406
1.1781891
1.1778383
1.1774926
1.1771557
1.1768309
1.1765207
1.1762272
1.1759521
1.1756966
1.1754617
1.175248
1.1750555
1.174884
1.174733
1.1746014
1.1744875
1.1743893
1.1743039
1.1742281
1.1741579
1.1740892
1.1740165
1.1739343
1.1738366
1.1737176
1.1735696
1.1733806
1.1731416
1.1728593
1.172546
1.1721578
1.1715893
1.1709341
1.1707406
1.1710365
1.0554815
1.0943697
1.0794413
1.0947866
1.0928706
1.1008459
1.1042956
1.1098272
1.1148639
1.1201284
1.125409
1.1307023
1.1359559
1.1411234
1.1461543
1.1509985
1.1556086
1.1599421
1.1639634
1.1676456
1.1709708
1.1739305
1.1765247
1.1787617
1.1806558
1.1822265
1.183497
1.1844927
1.1852402
1.1857664
1.1860975
1.1862586
1.1862734
1.1861638
1.1859499
1.1856498
1.1852799
1.1848546
1.1843869
1.1838878
1.1833674
1.182834
1.182295
1.1817567
1.1812245
1.180703
1.180196
1.1797067
1.1792376
1.1787909
1.1783682
1.1779707
1.1775992
1.1772543
1.1769363
1.1766451
1.1763802
1.1761409
1.1759261
1.1757342
1.1755632
1.1754107
1.1752736
1.1751487
1.175032
1.1749192
1.1748054
1.174685
1.1745529
1.1744036
1.1742286
1.1740166
1.1737625
1.1734784
1.1731707
1.1727782
1.172205
1.1715988
1.1714924
1.171752
1.0616085
1.1007156
1.0868181
1.1028099
1.1020051
1.1104494
1.115027
1.1212165
1.1270802
1.1330623
1.1390003
1.1448549
1.1505554
1.1560372
1.1612377
1.1661015
1.1705831
1.1746488
1.1782779
1.181462
1.1842047
1.1865192
1.188427
1.1899551
1.1911349
1.1919997
1.1925837
1.1929204
1.1930423
1.1929797
1.1927609
1.1924116
1.1919548
1.1914113
1.1907994
1.1901351
1.1894325
1.1887038
1.1879594
1.1872083
1.1864582
1.1857155
1.1849856
1.1842731
1.1835818
1.1829148
1.1822746
1.1816632
1.181082
1.1805321
1.1800143
1.179529
1.1790763
1.1786562
1.1782683
1.1779119
1.1775862
1.1772899
1.1770214
1.176779
1.1765602
1.1763624
1.1761825
1.1760171
1.1758625
1.1757143
1.1755679
1.1754181
1.1752605
1.1750893
1.1748956
1.1746694
1.1744103
1.1741338
1.1738369
1.1734449
1.1728804
1.1723403
1.1723233
1.1725465
1.0691639
1.1089795
1.0960111
1.1127371
1.113392
1.1223959
1.1282726
1.1352737
1.1420218
1.1487403
1.1552768
1.1615573
1.1674949
1.1730169
1.178064
1.1825943
1.186584
1.1900266
1.1929311
1.1953192
1.1972225
1.1986793
1.1997317
1.2004238
1.2007994
1.2009007
1.2007676
1.2004367
1.1999414
1.1993117
1.1985739
1.1977515
1.1968647
1.1959311
1.1949657
1.1939816
1.1929897
1.1919992
1.1910179
1.1900524
1.1891079
1.1881889
1.187299
1.1864411
1.1856173
1.1848296
1.1840791
1.1833667
1.1826929
1.182058
1.1814619
1.1809044
1.1803851
1.1799032
1.179458
1.1790483
1.1786728
1.1783299
1.1780178
1.1777343
1.1774768
1.1772426
1.1770286
1.1768316
1.1766477
1.176473
1.1763027
1.1761326
1.1759583
1.1757739
1.1755702
1.1753393
1.1750859
1.1748255
1.1745441
1.174159
1.1736199
1.173164
1.1732361
1.173421
1.0783
1.1190713
1.1076479
1.1251175
1.1276841
1.1373859
1.1446871
1.1526003
1.1601769
1.1674797
1.1743533
1.1807066
1.1864603
1.1915622
1.1959857
1.1997286
1.2028095
1.2052632
1.2071363
1.2084828
1.2093602
1.2098267
1.2099384
1.2097484
1.2093056
1.208654
1.2078327
1.2068764
1.205815
1.2046743
1.2034766
1.2022408
1.2009827
1.1997159
1.1984515
1.197199
1.1959659
1.1947586
1.1935822
1.1924408
1.1913376
1.1902752
1.1892554
1.1882797
1.187349
1.1864638
1.1856245
1.1848309
1.1840827
1.1833796
1.1827207
1.1821054
1.1815327
1.1810014
1.1805105
1.1800583
1.1796432
1.1792634
1.1789169
1.1786011
1.1783137
1.1780517
1.1778122
1.177592
1.1773875
1.1771946
1.1770092
1.1768274
1.1766451
1.1764559
1.1762512
1.176026
1.1757887
1.1755517
1.1752896
1.1749196
1.1744245
1.1740702
1.1742293
1.1743747
1.0897762
1.1319073
1.1226412
1.1409134
1.1458434
1.1563232
1.1649744
1.1736707
1.1817457
1.1891741
1.195829
1.2016483
1.2066033
1.2107004
1.213974
1.2164796
1.2182864
1.2194706
1.2201111
1.2202846
1.2200637
1.2195145
1.2186968
1.2176631
1.216459
1.2151238
1.2136909
1.2121887
1.210641
1.2090676
1.207485
1.2059067
1.2043439
1.2028056
1.2012993
1.1998308
1.1984047
1.1970246
1.1956932
1.1944125
1.193184
1.1920084
1.1908865
1.1898182
1.1888034
1.1878419
1.1869329
1.1860757
1.1852693
1.1845127
1.1838048
1.1831443
1.18253
1.1819604
1.1814339
1.1809488
1.1805033
1.1800952
1.1797226
1.1793828
1.1790733
1.1787914
1.1785344
1.1782989
1.1780816
1.1778785
1.1776861
1.1775007
1.1773182
1.1771322
1.1769351
1.1767254
1.1765133
1.1763054
1.1760666
1.1757215
1.1752891
1.1750493
1.1752832
1.1753635
1.1051838
1.1485983
1.1422797
1.1612027
1.1688411
1.1799769
1.1894821
1.1983779
1.2062101
1.212956
1.2185794
1.2231048
1.2265926
1.2291302
1.2308209
1.2317737
1.2320968
1.2318921
1.2312529
1.2302621
1.228992
1.2275045
1.2258521
1.224079
1.2222217
1.2203106
1.2183706
1.2164218
1.2144808
1.2125609
1.2106726
1.2088243
1.2070228
1.2052731
1.203579
1.2019435
1.2003686
1.1988556
1.1974052
1.1960178
1.1946932
1.1934312
1.1922311
1.191092
1.1900131
1.1889931
1.1880309
1.1871251
1.1862742
1.1854768
1.1847314
1.1840366
1.1833907
1.1827919
1.1822386
1.1817288
1.1812606
1.1808318
1.1804402
1.1800834
1.1797589
1.1794642
1.1791964
1.1789526
1.1787295
1.1785233
1.1783309
1.1781488
1.1779729
1.1777967
1.1776148
1.1774284
1.1772478
1.1770728
1.1768618
1.176552
1.176194
1.1760636
1.1763488
1.1763591
1.1259899
1.1704472
1.1679957
1.1869985
1.1970409
1.2082852
1.2175999
1.2255874
1.2320799
1.2371444
1.2408781
1.2434208
1.2449274
1.2455556
1.2454555
1.2447633
1.243599
1.2420658
1.2402505
1.2382254
1.2360499
1.2337725
1.2314322
1.2290606
1.2266827
1.2243186
1.2219838
1.2196908
1.217449
1.2152658
1.2131466
1.2110953
1.2091149
1.2072072
1.2053732
1.2036135
1.201928
1.2003162
1.1987775
1.1973108
1.195915
1.1945886
1.1933304
1.1921387
1.1910119
1.1899484
1.1889464
1.1880042
1.1871201
1.1862922
1.1855189
1.1847985
1.1841291
1.1835088
1.1829358
1.1824081
1.1819236
1.1814802
1.1810756
1.1807076
1.1803739
1.180072
1.1797993
1.1795529
1.1793295
1.179126
1.1789392
1.1787658
1.1786015
1.1784406
1.1782793
1.1781211
1.1779745
1.1778331
1.1776542
1.1773918
1.1771167
1.1770742
1.1773752
1.1773738
1.1548559
1.1982503
1.2008721
1.2191909
1.2295877
1.2395906
1.247295
1.2531008
1.2571386
1.2596502
1.2608749
1.2610475
1.2603795
1.2590544
1.2572272
1.255025
1.2525514
1.249889
1.2471033
1.2442459
1.2413571
1.2384682
1.2356034
1.232781
1.2300152
1.2273163
1.2246922
1.2221482
1.2196883
1.2173148
1.2150293
1.2128321
1.2107234
1.2087024
1.2067682
1.2049194
1.2031546
1.201472
1.1998697
1.1983459
1.1968986
1.1955257
1.1942253
1.1929953
1.1918336
1.1907382
1.1897071
1.1887382
1.1878296
1.1869794
1.1861856
1.1854464
1.1847598
1.1841239
1.1835367
1.1829962
1.1825004
1.1820471
1.1816342
1.1812596
1.1809211
1.1806163
1.1803429
1.180098
1.1798786
1.1796816
1.1795043
1.1793432
1.179194
1.1790517
1.1789145
1.1787862
1.1786721
1.1785615
1.178417
1.1782121
1.1780221
1.1780429
1.1783243
1.178295
1.1943156
1.2338211
1.2396777
1.2551826
1.2644343
1.2714324
1.2758718
1.2783058
1.2791002
1.2786249
1.2771833
1.2750261
1.2723526
1.2693188
1.266045
1.2626232
1.259123
1.2555968
1.2520839
1.2486131
1.2452058
1.2418775
1.2386391
1.2354981
1.2324597
1.2295268
1.2267009
1.2239825
1.2213711
1.2188657
1.2164647
1.2141662
1.2119682
1.2098682
1.2078638
1.2059525
1.2041317
1.2023988
1.2007512
1.1991865
1.197702
1.1962953
1.194964
1.1937058
1.1925182
1.1913991
1.1903461
1.1893571
1.18843
1.1875627
1.1867533
1.1859998
1.1853002
1.1846524
1.1840546
1.1835048
1.1830008
1.1825406
1.1821224
1.1817439
1.1814033
1.1810983
1.1808267
1.1805856
1.1803723
1.1801841
1.1800179
1.1798704
1.1797374
1.1796151
1.1795023
1.1794023
1.1793164
1.1792324
1.1791223
1.1789764
1.1788615
1.1789103
1.1791326
1.1791283
1.2425331
1.2754488
1.2827079
1.2926208
1.2975845
1.2999494
1.3001116
1.2987274
1.2962359
1.2929863
1.2892345
1.2851685
1.2809246
1.2766006
1.2722662
1.2679709
1.2637491
1.2596248
1.2556139
1.251727
1.2479702
1.2443471
1.2408587
1.237505
1.2342844
1.2311948
1.2282336
1.2253976
1.2226837
1.2200883
1.217608
1.2152394
1.2129789
1.210823
1.2087684
1.2068118
1.20495
1.2031797
1.201498
1.1999018
1.1983885
1.1969551
1.1955992
1.1943181
1.1931093
1.1919704
1.190899
1.1898929
1.1889499
1.1880679
1.1872449
1.1864789
1.1857678
1.1851098
1.1845026
1.1839445
1.1834335
1.1829676
1.1825449
1.1821636
1.1818217
1.1815172
1.1812478
1.181011
1.1808041
1.1806243
1.1804687
1.180334
1.1802162
1.1801123
1.1800215
1.1799452
1.179882
1.1798209
1.1797445
1.1796536
1.1796009
1.1796713
1.1798452
1.1798204
1.297251
1.3181462
1.3227628
1.3251588
1.3243585
1.3216808
1.3177475
1.3130537
1.3079243
1.3025793
1.2971645
1.2917761
1.2864764
1.2813054
1.2762878
1.271438
1.2667636
1.2622674
1.2579491
1.2538064
1.2498356
1.2460322
1.2423912
1.2389073
1.2355751
1.2323892
1.2293443
1.2264352
1.223657
1.2210049
1.218474
1.2160601
1.2137588
1.2115661
1.2094779
1.2074905
1.2056003
1.2038038
1.2020978
1.200479
1.1989446
1.1974915
1.196117
1.1948184
1.1935932
1.1924388
1.1913529
1.1903331
1.1893773
1.1884833
1.1876492
1.1868728
1.1861522
1.1854855
1.1848705
1.1843055
1.1837885
1.1833177
1.1828913
1.1825075
1.1821646
1.1818605
1.1815931
1.18136
1.1811586
1.180986
1.1808393
1.1807151
1.1806101
1.1805215
1.1804484
1.1803906
1.1803459
1.1803072
1.1802655
1.1802234
1.1802108
1.1802701
1.1803795
1.1803619
1.3507182
1.3540623
1.3528332
1.3483246
1.34243
1.3357815
1.3288488
1.3218762
1.3150117
1.3083355
1.3018911
1.2956993
1.2897671
1.2840939
1.2786742
1.2735
1.2685618
1.2638497
1.2593534
1.2550631
1.2509692
1.2470624
1.243334
1.2397758
1.2363801
1.2331397
1.2300476
1.2270975
1.2242833
1.2215994
1.2190405
1.2166015
1.2142776
1.2120645
1.2099577
1.2079533
1.2060475
1.2042365
1.2025169
1.2008855
1.1993391
1.1978747
1.1964895
1.1951808
1.1939458
1.1927822
1.1916873
1.190659
1.189695
1.1887932
1.1879516
1.1871682
1.1864409
1.1857679
1.1851472
1.1845769
1.1840552
1.1835803
1.1831506
1.1827643
1.1824198
1.1821153
1.1818487
1.1816177
1.1814198
1.181252
1.1811114
1.1809947
1.1808988
1.180821
1.1807597
1.1807136
1.1806811
1.1806596
1.1806467
1.1806435
1.1806582
1.1806999
1.1807554
1.1807589
1.3851253
1.3774733
1.3698613
1.36151
1.3528315
1.3442444
1.3359168
1.3279242
1.3202955
1.3130342
1.306132
1.2995742
1.2933437
1.2874224
1.2817927
1.2764374
1.2713407
1.2664875
1.2618641
1.2574577
1.2532566
1.2492499
1.2454277
1.2417807
1.2383005
1.2349792
1.2318094
1.2287845
1.225898
1.2231442
1.2205174
1.2180125
1.2156248
1.2133494
1.2111823
1.2091192
1.2071563
1.2052899
1.2035165
1.2018328
1.2002358
1.1987224
1.1972897
1.1959352
1.194656
1.1934497
1.1923139
1.1912462
1.1902446
1.1893069
1.188431
1.187615
1.186857
1.186155
1.1855071
1.1849114
1.1843662
1.1838697
1.1834202
1.1830162
1.1826559
1.1823377
1.1820594
1.1818189
1.1816135
1.1814403
1.1812963
1.1811781
1.1810826
1.1810071
1.1809489
1.1809058
1.1808762
1.1808605
1.1808601
1.1808745
1.1808998
1.180929
1.1809569
1.1809733
1.1612446
1.1660649
1.1810026
1.1930039
1.198572
1.1998605
1.1999448
1.1996141
1.1996613
1.1993581
1.1990564
1.1985559
1.1979692
1.1973233
1.1966315
1.1958983
1.1951283
1.1943271
1.1934998
1.1926508
1.1917839
1.1909028
1.1900109
1.189111
1.1882059
1.1872981
1.1863897
1.1854828
1.1845794
1.1836811
1.1827897
1.1819066
1.1810335
1.1801716
1.1793225
1.1784873
1.1776675
1.1768643
1.1760789
1.1753126
1.1745667
1.1738425
1.173141
1.1724636
1.1718115
1.1711859
1.1705879
1.1700187
1.1694795
1.1689713
1.1684951
1.1680519
1.1676424
1.1672674
1.1669275
1.1666229
1.1663537
1.1661199
1.1659208
1.1657558
1.1656231
1.1655209
1.165447
1.1653986
1.1653729
1.165368
1.1653816
1.1654163
1.1654706
1.1655571
1.1656752
1.1658486
1.1660937
1.1663809
1.1668189
1.1670477
1.1676156
1.1672708
1.1678107
1.1659284
1.1569698
1.1683886
1.1849536
1.1933902
1.1956834
1.1955831
1.1950359
1.1947827
1.1944605
1.1941556
1.1937674
1.1933565
1.1929023
1.1924147
1.1918883
1.1913297
1.19074
1.1901219
1.1894778
1.18881
1.1881209
1.1874128
1.1866879
1.1859484
1.1851967
1.1844349
1.1836651
1.1828895
1.18211
1.1813288
1.1805478
1.1797688
1.1789937
1.1782244
1.1774626
1.17671
1.1759684
1.1752394
1.1745247
1.1738257
1.1731442
1.1724816
1.1718395
1.1712194
1.1706226
1.1700506
1.1695048
1.1689864
1.1684969
1.1680372
1.1676086
1.167212
1.1668484
1.1665183
1.1662223
1.1659609
1.1657339
1.1655413
1.1653825
1.1652566
1.1651618
1.1650964
1.1650579
1.1650438
1.1650514
1.1650789
1.1651247
1.1651916
1.1652791
1.1653989
1.1655521
1.1657609
1.16604
1.1663588
1.166809
1.1670526
1.1675972
1.16726
1.167752
1.1658459
1.1577568
1.1715372
1.1834082
1.1898689
1.1908399
1.1903518
1.1898449
1.1895791
1.1892819
1.1889936
1.1886542
1.188313
1.1879376
1.1875481
1.1871314
1.1866945
1.1862346
1.1857534
1.1852512
1.1847287
1.1841869
1.1836269
1.1830498
1.1824569
1.1818497
1.1812295
1.180598
1.1799569
1.1793077
1.1786522
1.1779922
1.1773295
1.176666
1.1760035
1.1753439
1.1746891
1.1740408
1.173401
1.1727716
1.1721543
1.171551
1.1709635
1.1703934
1.1698426
1.1693126
1.1688051
1.1683217
1.1678638
1.1674329
1.1670303
1.1666572
1.1663146
1.1660035
1.1657247
1.1654787
1.1652658
1.1650861
1.1649394
1.164825
1.1647421
1.1646888
1.1646632
1.1646631
1.164686
1.1647292
1.1647913
1.1648713
1.1649719
1.1650938
1.1652483
1.1654374
1.165682
1.1659945
1.1663423
1.1668034
1.1670578
1.1675825
1.1672533
1.1676908
1.1657673
1.1553541
1.1700454
1.1809747
1.1857433
1.1855753
1.1851868
1.1847467
1.184546
1.184231
1.1839785
1.1836658
1.183379
1.1830619
1.1827471
1.182412
1.1820676
1.1817079
1.1813347
1.1809469
1.1805443
1.1801268
1.1796944
1.1792473
1.178786
1.1783109
1.1778229
1.1773226
1.1768113
1.17629
1.17576
1.1752228
1.1746797
1.1741325
1.1735828
1.1730324
1.172483
1.1719366
1.1713949
1.17086
1.1703338
1.1698181
1.169315
1.1688263
1.1683538
1.1678995
1.167465
1.1670522
1.1666627
1.1662979
1.1659594
1.1656485
1.1653663
1.1651137
1.1648918
1.1647009
1.1645415
1.1644135
1.1643168
1.1642506
1.1642141
1.1642053
1.1642225
1.1642633
1.1643252
1.1644061
1.1645047
1.1646203
1.1647562
1.1649137
1.1651039
1.1653297
1.1656103
1.1659556
1.1663301
1.1668009
1.167063
1.1675706
1.1672453
1.1676281
1.1656939
1.1496327
1.1663711
1.176447
1.1800332
1.1795024
1.1794189
1.1790658
1.1790062
1.1787696
1.1786367
1.1784168
1.1782409
1.1780241
1.1778183
1.1775906
1.1773575
1.1771096
1.1768507
1.1765788
1.1762938
1.1759956
1.1756839
1.1753587
1.1750201
1.1746685
1.1743041
1.1739275
1.1735393
1.1731404
1.1727316
1.172314
1.1718888
1.1714573
1.171021
1.1705814
1.1701402
1.169699
1.1692597
1.1688242
1.1683944
1.1679722
1.1675596
1.1671585
1.1667709
1.1663987
1.1660438
1.165708
1.1653931
1.1651008
1.1648324
1.1645894
1.1643731
1.1641844
1.1640243
1.1638933
1.1637917
1.1637196
1.1636767
1.1636623
1.1636753
1.163714
1.1637765
1.1638605
1.1639638
1.1640842
1.1642209
1.1643738
1.1645462
1.1647404
1.1649671
1.1652302
1.1655467
1.1659237
1.1663226
1.1668015
1.167069
1.1675608
1.1672343
1.1675642
1.1656255
1.1435354
1.1627479
1.1714328
1.1743737
1.1736943
1.1738674
1.17356
1.1736387
1.1734686
1.1734484
1.1733112
1.1732382
1.1731124
1.1730058
1.1728746
1.1727412
1.1725929
1.1724352
1.1722659
1.1720851
1.1718927
1.1716885
1.1714724
1.1712442
1.1710041
1.1707523
1.1704889
1.1702143
1.169929
1.1696338
1.1693292
1.1690164
1.1686962
1.1683699
1.1680388
1.1677043
1.1673681
1.1670317
1.1666969
1.1663655
1.1660395
1.1657206
1.1654108
1.1651122
1.1648265
1.1645558
1.1643019
1.1640665
1.1638514
1.163658
1.1634878
1.163342
1.1632218
1.1631279
1.1630608
1.163021
1.1630084
1.1630227
1.1630631
1.1631285
1.1632173
1.1633274
1.1634568
1.1636032
1.163765
1.1639414
1.1641328
1.1643429
1.1645746
1.1648385
1.165139
1.1654912
1.1658984
1.1663195
1.1668046
1.1670745
1.167552
1.1672198
1.1674989
1.1655616
1.1382325
1.1593308
1.1664968
1.1691226
1.1683384
1.1687143
1.1684147
1.1686044
1.1684739
1.1685423
1.1684684
1.1684834
1.1684337
1.1684056
1.168349
1.1682958
1.1682294
1.1681567
1.1680746
1.1679833
1.1678826
1.1677719
1.1676512
1.1675202
1.1673788
1.1672269
1.1670648
1.1668925
1.1667104
1.1665188
1.1663184
1.1661098
1.1658938
1.1656714
1.1654437
1.1652119
1.1649775
1.1647418
1.1645064
1.164273
1.1640434
1.1638193
1.1636025
1.163395
1.1631985
1.163015
1.1628463
1.162694
1.1625598
1.1624452
1.1623516
1.1622803
1.1622322
1.1622081
1.1622086
1.162234
1.162284
1.1623585
1.1624565
1.1625769
1.1627179
1.1628778
1.1630543
1.1632457
1.1634502
1.1636676
1.1638987
1.1641474
1.1644173
1.164719
1.1650569
1.1654439
1.1658795
1.1663206
1.16681
1.1670762
1.1675434
1.1672016
1.1674327
1.1655022
1.1332948
1.1562417
1.1618695
1.1643651
1.163469