/*--------------------------------*- C++ -*----------------------------------*\
  =========                 |
  \\      /  F ield         | OpenFOAM: The Open Source CFD Toolbox
   \\    /   O peration     | Website:  https://openfoam.org
    \\  /    A nd           | Version:  12
     \\/     M anipulation  |
\*---------------------------------------------------------------------------*/
FoamFile
{
    format      ascii;
    class       volScalarField;
    location    "0.082";
    object      k;
}
// * * * * * * * * * * * * * * * * * * * * * * * * * * * * * * * * * * * * * //

dimensions      [0 2 -2 0 0 0 0];

internalField   nonuniform List<scalar> 
16000
(
0.049235531
0.021661473
0.02254825
0.016614551
0.01408756
0.012748039
0.011953873
0.011478467
0.011157016
0.010940495
0.010780699
0.010661833
0.010569058
0.010495686
0.01043663
0.010388726
0.010349588
0.010317563
0.010291441
0.010270015
0.010252251
0.010237816
0.010226206
0.010216855
0.010209523
0.010203853
0.010199659
0.010196771
0.010195044
0.010194344
0.010194547
0.01019555
0.01019727
0.010199641
0.010202605
0.010206106
0.010210091
0.010214505
0.010219295
0.010224404
0.01022977
0.01023532
0.010240987
0.010246701
0.010252385
0.010257968
0.010263391
0.010268606
0.010273574
0.010278255
0.010282608
0.010286591
0.010290158
0.010293264
0.010295862
0.010297911
0.010299358
0.010300135
0.010300152
0.010299279
0.010297345
0.010294133
0.010289413
0.010282896
0.010274208
0.010262863
0.010248189
0.010229319
0.010205456
0.010176162
0.010140833
0.010100563
0.010073906
0.010058037
0.010052128
0.010056024
0.010060583
0.010076366
0.010037232
0.010051982
0.046624501
0.02050612
0.021099471
0.016065055
0.013739983
0.012544681
0.011790228
0.011361643
0.011055615
0.010856497
0.010707047
0.010596994
0.010510674
0.010442813
0.01038829
0.010344279
0.010308492
0.010279358
0.010255797
0.010236751
0.010221093
0.010208553
0.010198732
0.010191024
0.010185244
0.010181028
0.010178197
0.010176587
0.010176059
0.01017649
0.010177757
0.010179757
0.010182406
0.010185636
0.010189389
0.010193609
0.010198246
0.010203244
0.01020855
0.010214113
0.010219872
0.010225759
0.010231708
0.010237653
0.010243522
0.010249244
0.010254759
0.010260021
0.010264992
0.010269636
0.010273917
0.010277799
0.010281239
0.010284194
0.010286621
0.010288477
0.010289714
0.010290267
0.010290048
0.010288933
0.01028676
0.01028332
0.010278393
0.010271701
0.010262883
0.010251468
0.010236827
0.010218103
0.010194411
0.010165471
0.010131389
0.010092942
0.010067642
0.010052619
0.010047034
0.010049213
0.010058106
0.010073433
0.010036898
0.010053446
0.04233973
0.019684934
0.019769863
0.015496979
0.013384595
0.012316088
0.011620804
0.011234358
0.010952024
0.010771206
0.010633019
0.010532228
0.010452847
0.010390788
0.010341094
0.010301206
0.010268993
0.01024296
0.010222124
0.010205603
0.010192198
0.010181674
0.01017375
0.010167782
0.010163637
0.010160953
0.010159556
0.010159289
0.010160019
0.010161628
0.010164
0.010167032
0.010170637
0.010174747
0.010179302
0.010184247
0.010189531
0.010195099
0.0102009
0.010206881
0.010212988
0.010219156
0.01022532
0.010231418
0.010237384
0.010243149
0.010248656
0.010253858
0.010258722
0.010263215
0.010267307
0.010270966
0.010274155
0.010276837
0.010278968
0.01028051
0.010281414
0.010281619
0.010281041
0.010279558
0.010277014
0.010273209
0.01026793
0.010260912
0.010251804
0.01024014
0.010225329
0.01020657
0.010182911
0.010154003
0.010120702
0.010084576
0.010060985
0.010047074
0.010041793
0.01004371
0.010052506
0.010061515
0.010041855
0.010053109
0.038796332
0.019129735
0.018615224
0.0149881
0.013062873
0.012109623
0.011465679
0.011118282
0.01085691
0.010692705
0.010565275
0.010473048
0.010400289
0.010343716
0.010298638
0.010262696
0.010233919
0.010210885
0.010192675
0.010178612
0.010167419
0.010158862
0.010152796
0.010148536
0.010145993
0.010144813
0.010144824
0.010145874
0.010147833
0.01015059
0.010154032
0.010158054
0.01016257
0.010167508
0.010172806
0.010178409
0.010184265
0.010190321
0.010196526
0.010202829
0.01020918
0.010215517
0.010221781
0.010227912
0.010233852
0.010239536
0.010244908
0.010249925
0.010254557
0.010258776
0.010262557
0.010265875
0.010268699
0.010270995
0.010272724
0.010273847
0.01027432
0.010274085
0.010273059
0.010271128
0.010268136
0.010263894
0.010258195
0.010250787
0.010241329
0.010229362
0.010214317
0.010195477
0.010171886
0.01014299
0.010110123
0.010076522
0.010054558
0.010041653
0.010036596
0.010038441
0.010047005
0.010054978
0.010045916
0.010057086
0.03637931
0.018818031
0.017620697
0.014516595
0.012763292
0.011914277
0.011320174
0.01100878
0.010768101
0.010619458
0.010502578
0.010418523
0.010352247
0.010301002
0.010260444
0.010228369
0.010202975
0.010182912
0.010167286
0.010155655
0.010146682
0.010140089
0.010135874
0.010133335
0.010132382
0.010132705
0.01013412
0.010136482
0.010139661
0.010143548
0.010148034
0.010153014
0.010158399
0.010164114
0.010170095
0.010176286
0.010182634
0.010189089
0.0101956
0.010202118
0.010208597
0.010214981
0.010221217
0.010227249
0.010233026
0.010238491
0.010243591
0.010248287
0.010252553
0.010256367
0.010259708
0.010262559
0.010264895
0.010266687
0.0102679
0.010268497
0.010268436
0.010267662
0.010266095
0.010263625
0.010260101
0.01025534
0.01024914
0.01024126
0.010231376
0.010219034
0.010203673
0.010184655
0.010161117
0.010132274
0.010099518
0.010068686
0.010048349
0.010036441
0.010031724
0.010033536
0.010041031
0.010048035
0.010047622
0.010060361
0.034009062
0.018748676
0.016897437
0.014084495
0.012487576
0.011732556
0.011185658
0.010907287
0.010686504
0.010552201
0.01044555
0.010369205
0.010309201
0.010263087
0.010226913
0.010198603
0.010176515
0.010159387
0.010146297
0.010137062
0.010130307
0.010125707
0.010123309
0.010122543
0.010123132
0.010124951
0.010127761
0.010131419
0.010135795
0.010140779
0.010146266
0.010152149
0.010158337
0.010164752
0.010171328
0.010178008
0.010184738
0.010191471
0.010198158
0.010204754
0.010211217
0.0102175
0.010223554
0.010229333
0.010234793
0.010239884
0.010244562
0.01024879
0.010252548
0.01025582
0.010258591
0.010260849
0.010262577
0.010263751
0.010264341
0.010264311
0.010263622
0.010262219
0.010260028
0.01025694
0.010252811
0.010247463
0.010240697
0.010232282
0.010221909
0.010209142
0.010193416
0.01017414
0.010150618
0.010121992
0.010089415
0.010061204
0.010042462
0.010031521
0.010027182
0.010028894
0.010035347
0.010041802
0.010047458
0.010059716
0.03110781
0.018846508
0.01638249
0.013688432
0.012233496
0.01156374
0.01106189
0.010813638
0.010612019
0.010490867
0.010394098
0.010325063
0.010271136
0.010230002
0.010198111
0.010173501
0.010154676
0.010140483
0.010129922
0.010123065
0.010118523
0.010116072
0.01011538
0.010116605
0.010118552
0.01012186
0.010126054
0.010130985
0.010136522
0.010142557
0.010148981
0.01015569
0.01016259
0.0101696
0.010176654
0.010183691
0.010190663
0.010197522
0.010204226
0.010210734
0.010217011
0.010223019
0.010228719
0.010234072
0.010239044
0.010243596
0.01024769
0.010251298
0.010254402
0.010256994
0.010259064
0.010260608
0.010261613
0.010262061
0.010261927
0.010261177
0.010259771
0.010257659
0.010254768
0.010250994
0.010246194
0.010240198
0.010232812
0.010223808
0.010212896
0.010199665
0.010183549
0.010163956
0.010140372
0.010112118
0.010079988
0.010054206
0.010036998
0.010026991
0.010023045
0.010024598
0.010030057
0.010036063
0.010045303
0.01005303
0.028815099
0.019035118
0.015964791
0.013325868
0.011999573
0.011407599
0.010948323
0.010727689
0.010544305
0.010435335
0.010348144
0.010286124
0.010238135
0.010201891
0.010174231
0.010153299
0.010137725
0.010126491
0.010118492
0.010113984
0.010111601
0.010111876
0.010112445
0.010115112
0.010119008
0.010123785
0.010129334
0.010135495
0.010142135
0.010149142
0.010156409
0.010163832
0.010171315
0.010178776
0.010186148
0.010193374
0.010200406
0.010207202
0.010213728
0.010219952
0.010225844
0.010231379
0.01023653
0.010241268
0.010245569
0.010249407
0.010252754
0.010255586
0.010257893
0.01025967
0.010260916
0.010261631
0.010261807
0.010261432
0.010260484
0.010258932
0.010256736
0.010253847
0.010250193
0.010245674
0.010240151
0.010233459
0.010225411
0.010215782
0.010204295
0.010190572
0.010174065
0.010154142
0.010130406
0.010102612
0.010071346
0.010047806
0.010032037
0.010022903
0.010019311
0.010020642
0.010025303
0.010030826
0.010040139
0.010042796
0.027104615
0.019223794
0.01547585
0.01299355
0.011784159
0.011263337
0.010844272
0.010648669
0.010483407
0.010385835
0.010307913
0.010252683
0.010210512
0.010179098
0.010155639
0.010138384
0.010126068
0.010117814
0.01011245
0.010110101
0.010109421
0.010111717
0.010115053
0.01011947
0.010124878
0.0101311
0.010137946
0.010145261
0.010152906
0.010160766
0.010168736
0.010176712
0.010184601
0.010192319
0.010199803
0.010207
0.010213868
0.010220375
0.010226493
0.010232201
0.010237485
0.010242329
0.010246721
0.010250645
0.010254087
0.010257035
0.010259471
0.010261379
0.010262752
0.010263592
0.010263903
0.010263687
0.010262943
0.010261663
0.010259827
0.010257406
0.01025436
0.010250639
0.010246174
0.010240866
0.010234581
0.010227157
0.010218417
0.010208142
0.010196062
0.010181831
0.010164945
0.010144733
0.010120777
0.010093411
0.010063598
0.01004208
0.010027638
0.010019298
0.010015992
0.010016999
0.010020952
0.010026076
0.010034337
0.010036432
0.02533642
0.019397131
0.014796983
0.012688705
0.011587197
0.01113135
0.010750551
0.010577701
0.010429885
0.010342807
0.010273828
0.010225197
0.010188729
0.010162099
0.010142821
0.010129255
0.010120216
0.010114917
0.010112367
0.010109997
0.010114935
0.010118462
0.010123501
0.010129625
0.010136583
0.010144168
0.010152209
0.010160548
0.010169046
0.010177582
0.010186054
0.010194363
0.010202418
0.010210143
0.010217478
0.010224379
0.010230814
0.010236762
0.010242209
0.010247149
0.01025158
0.010255504
0.01025892
0.010261829
0.010264229
0.010266119
0.010267493
0.010268341
0.010268662
0.01026846
0.010267742
0.010266514
0.010264778
0.010262529
0.010259749
0.010256409
0.01025247
0.01024788
0.010242571
0.010236446
0.010229374
0.010221198
0.010211749
0.01020082
0.010188147
0.010173401
0.010156148
0.010135732
0.010111576
0.010084417
0.01005676
0.010037057
0.010023823
0.0100162
0.010013114
0.01001372
0.010016949
0.010021622
0.010029052
0.010030513
0.023802697
0.019541178
0.014252826
0.01240911
0.011409175
0.011012011
0.010667691
0.010515402
0.010383905
0.010306639
0.010246299
0.010204141
0.01017329
0.010151425
0.010136327
0.010126476
0.010120757
0.010118229
0.010118915
0.010121925
0.010125637
0.010131458
0.010138357
0.010146108
0.010154491
0.010163303
0.010172371
0.010181537
0.010190659
0.01019962
0.010208319
0.010216665
0.01022458
0.010231994
0.01023886
0.010245148
0.01025084
0.01025593
0.010260421
0.010264324
0.010267653
0.010270425
0.010272658
0.010274363
0.010275554
0.010276238
0.01027642
0.010276097
0.010275269
0.010273943
0.010272128
0.01026983
0.010267053
0.010263793
0.010260033
0.010255746
0.010250889
0.010245411
0.010239242
0.010232287
0.01022442
0.010215486
0.010205324
0.010193743
0.01018049
0.010165241
0.010147615
0.01012708
0.010102903
0.010075642
0.010050777
0.01003272
0.010020582
0.010013621
0.010010752
0.01001097
0.01001343
0.010017071
0.010022704
0.010021789
0.022425173
0.019672666
0.013779841
0.012155022
0.011250012
0.010904967
0.010595474
0.010461485
0.010345797
0.010277802
0.010225821
0.010190062
0.010164774
0.010147681
0.010136785
0.010130673
0.010128348
0.010129071
0.010132087
0.010137034
0.010143711
0.01015142
0.010160034
0.01016927
0.010178898
0.010188716
0.010198551
0.01020825
0.010217676
0.010226715
0.010235277
0.010243285
0.010250677
0.010257402
0.01026343
0.010268748
0.010273358
0.010277274
0.010280519
0.01028312
0.01028511
0.010286521
0.010287384
0.010287726
0.010287568
0.01028693
0.010285821
0.010284245
0.010282204
0.010279703
0.010276749
0.01027335
0.010269508
0.010265218
0.010260466
0.010255222
0.010249443
0.010243075
0.010236046
0.010228266
0.010219609
0.010209927
0.010199062
0.010186838
0.010173025
0.010157299
0.010139295
0.010118653
0.010094786
0.010067889
0.010045558
0.010029025
0.010017885
0.010011558
0.010008976
0.010008916
0.01001056
0.010012405
0.010014794
0.01001122
0.021179817
0.019762159
0.013347341
0.011926411
0.01110927
0.010810207
0.010534021
0.010416568
0.010315899
0.010256814
0.010212966
0.01018359
0.010163854
0.010151561
0.010144907
0.010142576
0.010143622
0.010147339
0.010153166
0.010160604
0.010169224
0.010178764
0.010188899
0.010199368
0.010209946
0.010220429
0.010230654
0.010240475
0.010249768
0.010258436
0.010266404
0.010273619
0.010280043
0.010285651
0.010290438
0.010294414
0.010297603
0.01030004
0.010301767
0.01030283
0.010303277
0.010303153
0.010302502
0.010301359
0.010299757
0.010297719
0.01029526
0.010292387
0.010289102
0.010285406
0.010281304
0.0102768
0.010271894
0.010266581
0.010260844
0.010254654
0.010247965
0.010240722
0.010232852
0.010224263
0.010214838
0.010204432
0.010192887
0.010180038
0.010165683
0.010149522
0.010131165
0.010110346
0.010086954
0.010061233
0.01004107
0.010025938
0.010015699
0.010009977
0.010007783
0.010007559
0.010008319
0.010007958
0.010007196
0.010004493
0.020059692
0.019769101
0.01295483
0.011721231
0.010986178
0.010727765
0.010483437
0.010380954
0.010294677
0.010244318
0.010208459
0.010185496
0.010171341
0.010163902
0.010161531
0.010163004
0.010167428
0.010174129
0.010182537
0.010192202
0.010202741
0.010213807
0.010225122
0.010236428
0.010247507
0.010258167
0.010268259
0.010277657
0.010286263
0.010294008
0.010300846
0.010306755
0.01031173
0.01031578
0.010318927
0.010321206
0.010322666
0.010323361
0.010323348
0.01032269
0.010321444
0.010319668
0.010317411
0.010314718
0.010311623
0.010308153
0.010304326
0.01030015
0.010295625
0.010290747
0.010285516
0.010279931
0.010273988
0.010267679
0.010260986
0.010253879
0.01024631
0.010238222
0.010229541
0.010220177
0.010210015
0.010198919
0.010186733
0.01017329
0.010158409
0.010141844
0.010123215
0.010102184
0.010079095
0.010055567
0.010037323
0.010023467
0.010014013
0.010008818
0.010007025
0.010006682
0.010006565
0.010004577
0.010002334
0.01000025
0.019050505
0.019564463
0.012600629
0.01153843
0.010880506
0.010657861
0.010444021
0.010355314
0.010282846
0.010241207
0.010213253
0.010196771
0.010188245
0.010185701
0.01018762
0.010192854
0.010200552
0.010210063
0.010220842
0.010232434
0.010244458
0.01025659
0.010268553
0.010280105
0.01029105
0.010301224
0.010310506
0.01031881
0.010326079
0.010332282
0.010337416
0.010341496
0.010344556
0.010346638
0.010347795
0.010348085
0.010347576
0.010346336
0.010344437
0.010341946
0.01033893
0.01033545
0.01033156
0.010327303
0.010322719
0.010317832
0.010312662
0.010307213
0.010301485
0.010295468
0.010289154
0.010282535
0.010275603
0.010268346
0.010260742
0.010252761
0.010244356
0.010235466
0.010226018
0.01021592
0.010205065
0.010193323
0.010180543
0.010166555
0.010151178
0.010134218
0.010115407
0.010094356
0.010071326
0.010050848
0.010034354
0.010021656
0.010012851
0.010008018
0.010006433
0.01000604
0.010005321
0.010002661
0.010000125
0.0099985252
0.018137386
0.018731871
0.012281896
0.011377282
0.010792504
0.010600894
0.010416314
0.0103406
0.010281465
0.010248649
0.010228572
0.010218631
0.010215749
0.010218069
0.010224181
0.010233002
0.010243713
0.010255676
0.010268362
0.010281327
0.010294204
0.010306682
0.010318517
0.010329502
0.010339484
0.010348351
0.010356031
0.010362494
0.010367736
0.010371778
0.010374662
0.010376447
0.010377199
0.010376993
0.010375905
0.010374011
0.01037139
0.01036812
0.010364275
0.010359927
0.010355139
0.010349974
0.010344482
0.010338707
0.010332685
0.01032644
0.010319986
0.010313328
0.010306459
0.010299369
0.010292039
0.010284453
0.010276597
0.010268453
0.010259998
0.0102512
0.010242013
0.010232374
0.010222209
0.01021143
0.010199932
0.010187594
0.01017427
0.010159798
0.01014399
0.010126652
0.010107657
0.010086984
0.010065033
0.010046979
0.010032175
0.010020535
0.010012238
0.010007501
0.010005885
0.010005444
0.010004527
0.010001907
0.0099996189
0.0099981399
0.017311849
0.017370518
0.012000571
0.011237515
0.010721235
0.01055779
0.010401363
0.010338223
0.01029198
0.010268109
0.010255863
0.010252442
0.010255107
0.010262113
0.010272132
0.010284135
0.010297327
0.010311085
0.010324904
0.010338362
0.010351133
0.010362954
0.010373636
0.010383044
0.010391093
0.010397745
0.010403
0.01040689
0.010409473
0.010410822
0.010411022
0.010410165
0.010408348
0.010405665
0.010402204
0.010398053
0.010393292
0.010387999
0.010382244
0.010376094
0.010369608
0.01036284
0.010355837
0.010348636
0.010341268
0.010333754
0.010326107
0.010318325
0.010310401
0.010302319
0.010294053
0.010285581
0.010276879
0.010267922
0.010258685
0.010249134
0.010239225
0.010228897
0.010218074
0.010206671
0.010194587
0.010181707
0.010167893
0.010152992
0.010136839
0.010119228
0.010100008
0.010079572
0.010059873
0.010043926
0.010030706
0.01002004
0.010012123
0.010007274
0.010005317
0.010004722
0.010003855
0.010001805
0.010000144
0.0099990864
0.016569742
0.016497937
0.011762903
0.011119516
0.010667594
0.010529938
0.010400661
0.01034986
0.010316082
0.010301215
0.01029667
0.010299597
0.010307509
0.010318751
0.010332062
0.010346463
0.010361187
0.010375654
0.010389412
0.01040211
0.010413499
0.01042341
0.010431748
0.010438478
0.010443607
0.010447184
0.010449284
0.010450004
0.010449454
0.010447749
0.010445007
0.010441339
0.010436856
0.010431659
0.010425841
0.010419484
0.010412665
0.010405451
0.010397906
0.010390083
0.010382032
0.010373797
0.010365415
0.010356917
0.010348327
0.010339661
0.010330927
0.010322125
0.010313241
0.010304257
0.010295145
0.010285872
0.010276407
0.010266718
0.010256775
0.010246542
0.010235976
0.010225021
0.010213603
0.010201637
0.010189027
0.010175665
0.010161418
0.010146135
0.010129681
0.010111933
0.01009275
0.01007256
0.010055636
0.010041534
0.010029759
0.010019997
0.010012397
0.010007329
0.01000478
0.010003843
0.010003099
0.010002053
0.010001277
0.0099999836
0.015903198
0.015489097
0.011559881
0.011023797
0.010632533
0.010519031
0.010415842
0.010377412
0.010355679
0.010349746
0.010352582
0.010361371
0.01037382
0.010388357
0.010403796
0.010419234
0.01043399
0.01044758
0.010459673
0.010470046
0.010478582
0.010485244
0.010490059
0.010493103
0.010494481
0.010494321
0.010492763
0.010489953
0.010486032
0.010481141
0.010475407
0.010468949
0.010461873
0.010454276
0.010446241
0.010437839
0.010429135
0.010420182
0.010411027
0.010401712
0.010392274
0.010382742
0.010373144
0.010363502
0.010353832
0.010344145
0.010334446
0.010324731
0.010314988
0.010305195
0.010295323
0.010285335
0.010275193
0.010264855
0.010254285
0.010243444
0.010232289
0.01022077
0.010208819
0.010196351
0.010183274
0.010169488
0.010154874
0.010139278
0.010122542
0.010104632
0.010085824
0.010067025
0.010052075
0.010039602
0.010029099
0.010020198
0.010012939
0.010007684
0.010004578
0.010003067
0.010002281
0.01000218
0.010002634
0.010001279
0.015306416
0.01480181
0.011393857
0.010951012
0.010617097
0.010527259
0.010449086
0.010423228
0.010413
0.010415542
0.010424926
0.010438435
0.010453967
0.010470076
0.010485724
0.010500174
0.010512922
0.010523667
0.010532267
0.01053868
0.010542952
0.010545191
0.010545546
0.010544188
0.0105413
0.010537065
0.010531658
0.010525245
0.01051798
0.01051
0.010501427
0.010492369
0.010482916
0.010473149
0.010463135
0.010452928
0.010442574
0.010432111
0.010421569
0.010410974
0.010400348
0.01038971
0.010379074
0.010368452
0.010357853
0.010347283
0.010336742
0.010326226
0.010315722
0.010305209
0.01029466
0.010284036
0.010273294
0.010262389
0.010251272
0.010239898
0.010228225
0.010216204
0.010203777
0.010190868
0.010177384
0.010163224
0.010148289
0.010132462
0.010115579
0.010097493
0.010078689
0.010062532
0.010049118
0.010037971
0.010028552
0.010020484
0.0100137
0.010008441
0.010004876
0.010002732
0.010001604
0.010001796
0.010003705
0.010003271
0.014773672
0.014044057
0.011261484
0.010903794
0.010623165
0.010557961
0.010503441
0.010490022
0.010490142
0.010499768
0.010513832
0.010529836
0.01054596
0.010561019
0.010574255
0.010585214
0.010593668
0.010599565
0.010602985
0.010604078
0.010603042
0.010600104
0.010595498
0.010589453
0.010582188
0.010573902
0.010564775
0.010554966
0.010544611
0.010533831
0.010522726
0.010511381
0.010499865
0.010488234
0.010476535
0.010464804
0.010453067
0.010441345
0.010429652
0.010418
0.010406395
0.010394843
0.010383349
0.010371913
0.010360539
0.010349224
0.010337966
0.010326758
0.010315589
0.01030444
0.010293287
0.010282094
0.01027082
0.010259415
0.010247825
0.010235997
0.010223878
0.010211419
0.010198569
0.010185269
0.010171436
0.010156963
0.010141738
0.010125675
0.010108759
0.010091077
0.010073176
0.010058804
0.010046726
0.010036624
0.010028087
0.010020792
0.010014604
0.010009565
0.010005693
0.010002912
0.010001391
0.010001079
0.01000394
0.010005242
0.014304528
0.013455863
0.011167399
0.010886818
0.010654672
0.010615195
0.010582018
0.010579647
0.010587577
0.01060136
0.01061681
0.01063186
0.010645159
0.010655957
0.010663901
0.010668902
0.010671047
0.010670533
0.010667632
0.010662638
0.010655847
0.010647544
0.010637991
0.010627427
0.010616059
0.01060407
0.010591613
0.010578817
0.010565791
0.010552622
0.010539383
0.010526131
0.010512908
0.01049975
0.010486679
0.010473713
0.010460861
0.010448129
0.010435517
0.010423021
0.010410637
0.010398359
0.01038618
0.010374093
0.010362092
0.010350169
0.010338316
0.010326526
0.010314786
0.010303082
0.010291391
0.010279687
0.010267931
0.010256078
0.010244074
0.010231858
0.010219367
0.010206543
0.01019333
0.010179677
0.010165529
0.010150804
0.010135384
0.010119124
0.010101975
0.010084393
0.010068845
0.01005585
0.010044908
0.010035655
0.010027811
0.010021155
0.010015554
0.010010884
0.010006918
0.01000355
0.010001508
0.010001174
0.010003645
0.010005156
0.013904319
0.012989237
0.011114105
0.010905173
0.010735617
0.010702014
0.010685904
0.010690936
0.010702179
0.010715506
0.010727825
0.010737737
0.010744541
0.010748025
0.010748271
0.010745533
0.01074015
0.010732494
0.010722936
0.010711828
0.010699482
0.010686175
0.010672144
0.01065759
0.010642678
0.010627547
0.010612308
0.010597052
0.010581848
0.010566752
0.010551804
0.010537034
0.010522463
0.010508102
0.010493958
0.01048003
0.010466313
0.010452799
0.010439477
0.010426333
0.010413351
0.010400517
0.010387814
0.010375227
0.010362741
0.010350343
0.01033802
0.010325758
0.010313546
0.010301368
0.010289208
0.010277043
0.010264846
0.010252578
0.010240193
0.010227633
0.010214831
0.010201716
0.010188217
0.010174271
0.010159826
0.010144838
0.010129259
0.010113032
0.010096156
0.010079155
0.010065348
0.010053614
0.010043664
0.010035152
0.01002786
0.01002166
0.010016472
0.010012142
0.010008336
0.010004772
0.010001984
0.010001181
0.010003231
0.010004278
0.013582208
0.012612988
0.011105719
0.010959013
0.010837082
0.010817704
0.010811441
0.010817729
0.01082612
0.010833454
0.010837883
0.010838821
0.010836228
0.010830371
0.010821657
0.010810548
0.010797494
0.010782912
0.010767167
0.010750573
0.010733393
0.010715842
0.010698093
0.010680285
0.010662528
0.010644907
0.010627488
0.010610318
0.010593433
0.010576857
0.010560602
0.010544677
0.010529081
0.01051381
0.010498854
0.0104842
0.010469833
0.010455733
0.010441881
0.010428255
0.010414832
0.01040159
0.010388504
0.010375553
0.010362714
0.010349969
0.010337296
0.010324679
0.0103121
0.010299544
0.010286994
0.010274432
0.010261837
0.01024918
0.010236427
0.010223533
0.01021044
0.010197079
0.010183371
0.010169233
0.010154584
0.010139356
0.010123514
0.010107098
0.01009044
0.010075155
0.010062601
0.010051972
0.010042904
0.010035076
0.010028277
0.010022407
0.010017423
0.010013203
0.010009458
0.010005941
0.01000305
0.01000197
0.010002923
0.010003493
0.013354892
0.01233935
0.011145149
0.011054777
0.010968776
0.010953821
0.01094854
0.010948746
0.010947942
0.010944349
0.010937307
0.010926938
0.010913666
0.010898011
0.010880492
0.010861585
0.010841698
0.010821171
0.010800279
0.010779241
0.010758227
0.010737369
0.010716767
0.010696493
0.0106766
0.010657124
0.010638089
0.010619508
0.010601387
0.010583723
0.01056651
0.010549736
0.010533388
0.010517446
0.010501893
0.010486705
0.010471859
0.010457329
0.01044309
0.010429114
0.010415374
0.010401842
0.01038849
0.010375289
0.010362213
0.010349235
0.010336331
0.010323476
0.010310649
0.010297827
0.010284992
0.010272123
0.010259201
0.010246204
0.010233106
0.010219876
0.010206474
0.010192849
0.010178936
0.01016466
0.010149931
0.010134658
0.010118771
0.010102324
0.010085879
0.010072097
0.010060538
0.0100508
0.010042477
0.010035265
0.010028944
0.010023393
0.010018554
0.010014328
0.010010531
0.010007059
0.010004246
0.010002843
0.010002935
0.010002843
0.013223725
0.01216707
0.011236536
0.011181469
0.011115618
0.011096926
0.011082878
0.011070332
0.01105567
0.011038385
0.011018597
0.010996765
0.010973418
0.010949043
0.010924056
0.010898791
0.010873511
0.010848416
0.010823654
0.010799332
0.010775526
0.010752287
0.010729646
0.010707621
0.010686218
0.010665434
0.010645261
0.010625684
0.010606688
0.010588252
0.010570355
0.010552972
0.01053608
0.010519652
0.01050366
0.010488079
0.010472878
0.01045803
0.010443503
0.010429269
0.010415298
0.010401558
0.010388019
0.010374651
0.010361423
0.010348305
0.010335268
0.010322282
0.01030932
0.010296354
0.010283359
0.010270308
0.010257178
0.010243944
0.010230582
0.010217064
0.010203362
0.010189441
0.01017526
0.010160769
0.010145907
0.01013061
0.010114825
0.010098619
0.010082622
0.010069889
0.010059108
0.01005004
0.010042293
0.010035584
0.010029688
0.010024458
0.010019797
0.010015613
0.010011796
0.010008333
0.010005519
0.010003844
0.01000318
0.010002031
0.01315399
0.012092755
0.011392019
0.011322563
0.011261129
0.011228311
0.011198629
0.011169798
0.011140102
0.011109534
0.011078355
0.011046922
0.01101556
0.010984531
0.010954029
0.010924195
0.010895122
0.010866867
0.010839462
0.010812921
0.010787241
0.010762411
0.010738412
0.010715219
0.010692806
0.010671143
0.010650199
0.010629944
0.010610345
0.01059137
0.010572989
0.010555169
0.01053788
0.01052109
0.010504768
0.010488884
0.010473406
0.010458304
0.010443547
0.010429104
0.010414943
0.010401035
0.010387348
0.01037385
0.010360512
0.010347302
0.010334188
0.01032114
0.010308127
0.010295116
0.010282077
0.010268978
0.010255788
0.010242476
0.01022901
0.010215358
0.010201486
0.01018736
0.010172944
0.010158197
0.010143079
0.010127558
0.010111647
0.010095591
0.010080648
0.010068534
0.010058327
0.010049731
0.010042397
0.010036053
0.010030474
0.010025492
0.010020988
0.010016878
0.010013097
0.01000964
0.010006643
0.010004366
0.010002819
0.010001259
0.013158727
0.012050069
0.011546189
0.011454295
0.011381594
0.011330439
0.011283738
0.011239936
0.011197726
0.011156907
0.011117421
0.011079288
0.011042522
0.011007124
0.010973079
0.010940354
0.01090891
0.010878699
0.01084967
0.010821768
0.010794942
0.010769138
0.010744303
0.010720389
0.010697347
0.010675129
0.010653694
0.010632997
0.010612998
0.010593659
0.010574943
0.010556812
0.010539233
0.010522171
0.010505594
0.010489468
0.010473763
0.010458446
0.010443487
0.010428855
0.010414519
0.01040045
0.010386618
0.010372991
0.010359541
0.010346238
0.010333052
0.010319952
0.010306907
0.010293887
0.01028086
0.010267792
0.010254651
0.0102414
0.010228004
0.010214423
0.010200619
0.010186547
0.010172161
0.010157411
0.010142247
0.010126628
0.010110591
0.010094496
0.010080073
0.010068295
0.010058388
0.010050053
0.010042958
0.010036834
0.010031447
0.010026605
0.010022186
0.010018131
0.01001441
0.01001097
0.010007753
0.010004817
0.010002392
0.010000675
0.013247672
0.012073325
0.011661439
0.01155022
0.011462229
0.011395253
0.011335717
0.011281645
0.011231389
0.011184289
0.011139892
0.011097904
0.011058092
0.011020272
0.010984283
0.010949988
0.010917262
0.010885997
0.010856092
0.010827457
0.01080001
0.010773675
0.010748382
0.010724066
0.010700669
0.010678133
0.010656409
0.010635447
0.010615202
0.010595631
0.010576695
0.010558353
0.010540571
0.010523311
0.010506541
0.010490226
0.010474334
0.010458834
0.010443696
0.010428887
0.01041438
0.010400143
0.010386149
0.010372369
0.010358773
0.010345335
0.010332026
0.010318818
0.010305683
0.010292591
0.010279516
0.010266425
0.01025329
0.010240078
0.010226756
0.010213289
0.01019964
0.010185769
0.010171632
0.010157181
0.010142364
0.010127136
0.010111504
0.010095728
0.010081164
0.010069369
0.010059443
0.010051115
0.010044051
0.010037979
0.010032646
0.010027842
0.010023439
0.010019401
0.010015712
0.010012249
0.010008774
0.010005188
0.010001985
0.01000028
0.013371656
0.012129804
0.011721434
0.011598722
0.011500515
0.011425282
0.011359691
0.011301143
0.011247573
0.011197988
0.01115171
0.011108278
0.011067345
0.011028643
0.01099195
0.010957084
0.01092389
0.010892231
0.010861992
0.010833066
0.010805361
0.010778793
0.010753286
0.010728771
0.010705184
0.010682467
0.010660566
0.01063943
0.010619013
0.01059927
0.01058016
0.010561645
0.010543686
0.010526247
0.010509295
0.010492795
0.010476715
0.010461024
0.01044569
0.010430684
0.010415975
0.010401535
0.010387334
0.010373344
0.010359537
0.010345885
0.010332362
0.010318938
0.010305588
0.010292282
0.010278995
0.010265697
0.010252359
0.010238951
0.010225442
0.010211799
0.010197986
0.010183967
0.0101697
0.010155142
0.010140247
0.010124982
0.010109382
0.0100938
0.01007995
0.010068594
0.01005905
0.010051022
0.010044205
0.010038337
0.010033166
0.010028483
0.010024167
0.010020203
0.010016585
0.010013141
0.010009516
0.01000552
0.010001824
0.010000094
64.357216
353.29657
118.83664
14.395481
0.39815115
0.021360935
0.020161992
0.019864958
0.019612532
0.018554529
0.017214321
0.01601694
0.015110176
0.014538379
0.014131808
0.013747413
0.013374158
0.013042408
0.012762814
0.012528571
0.012329516
0.012157902
0.0120085
0.01187749
0.011761816
0.011658983
0.011566991
0.01148424
0.011409474
0.011341701
0.011280102
0.011223957
0.01117264
0.011125625
0.011082497
0.01104292
0.011006604
0.010973292
0.010942745
0.01091475
0.010889117
0.010865663
0.010844204
0.010824569
0.010806589
0.01079009
0.010774892
0.010760816
0.010747709
0.010735439
0.010723905
0.010713023
0.010702723
0.010692927
0.010683551
0.010674509
0.010665748
0.010657252
0.010649048
0.010641243
0.010633782
0.010626392
0.010618829
0.010610919
0.010602446
0.010592814
0.0105783
0.010560179