/*--------------------------------*- C++ -*----------------------------------*\
  =========                 |
  \\      /  F ield         | OpenFOAM: The Open Source CFD Toolbox
   \\    /   O peration     | Website:  https://openfoam.org
    \\  /    A nd           | Version:  12
     \\/     M anipulation  |
\*---------------------------------------------------------------------------*/
FoamFile
{
    format      ascii;
    class       volScalarField;
    location    "0.082";
    object      nut;
}
// * * * * * * * * * * * * * * * * * * * * * * * * * * * * * * * * * * * * * //

dimensions      [0 2 -1 0 0 0 0];

internalField   nonuniform List<scalar> 
16000
(
4.6895093e-07
9.9121709e-06
1.8004702e-05
2.3996971e-05
1.8405685e-05
2.5179121e-05
1.7835212e-05
2.4342911e-05
1.9048123e-05
2.6131346e-05
2.2058434e-05
2.5827349e-05
2.3582667e-05
2.4184674e-05
2.3376793e-05
2.3239844e-05
2.2999153e-05
2.2934026e-05
2.2947496e-05
2.3059008e-05
2.3261008e-05
2.3552814e-05
2.393192e-05
2.4398305e-05
2.4954065e-05
2.5605051e-05
2.6359173e-05
2.7229099e-05
2.8230234e-05
2.937915e-05
3.0694071e-05
3.2199247e-05
3.3925984e-05
3.5912858e-05
3.8207305e-05
4.0865886e-05
4.3955934e-05
4.7557722e-05
5.1770583e-05
5.6717483e-05
6.2542573e-05
6.9415615e-05
7.755057e-05
8.7209225e-05
9.8702736e-05
0.00011240406
0.0001287752
0.00014837843
0.00017189743
0.00020016455
0.00023419763
0.00027524401
0.00032482731
0.00038481389
0.00045749315
0.00054568883
0.00065289974
0.00078348967
0.00094295281
0.0010207099
0.0010205355
0.0010203005
0.0010200003
0.0010195888
0.0010190524
0.0010183618
0.0010174793
0.0010163557
0.0010149461
0.0010132243
0.0010111521
0.0010087831
0.0010071516
0.0010061074
0.0010056064
0.0010055923
0.0010055696
0.0010061373
0.0010034435
0.0010039341
4.3196122e-07
9.4179646e-06
1.9890313e-05
2.1550885e-05
1.6620965e-05
2.2640858e-05
1.5854822e-05
2.1379101e-05
1.6848239e-05
2.313262e-05
1.9993041e-05
2.3323706e-05
2.1592127e-05
2.1944999e-05
2.1312651e-05
2.1126344e-05
2.0925431e-05
2.0855748e-05
2.0869964e-05
2.0971505e-05
2.1157673e-05
2.1427481e-05
2.1779039e-05
2.2212409e-05
2.2729222e-05
2.3334959e-05
2.4036479e-05
2.4845206e-05
2.5775729e-05
2.6844202e-05
2.806757e-05
2.9467974e-05
3.1074375e-05
3.2922482e-05
3.5056666e-05
3.7530106e-05
4.0406523e-05
4.3761325e-05
4.7687035e-05
5.230011e-05
5.7739109e-05
6.4163866e-05
7.1775917e-05
8.0824948e-05
9.1609846e-05
0.0001044851
0.00011989148
0.00013836743
0.00016056931
0.00018729692
0.00021952888
0.00025846806
0.00030558624
0.00036269034
0.00043200012
0.00051625817
0.00061886955
0.00074407955
0.00089722238
0.0010200418
0.0010198858
0.0010196319
0.0010193193
0.0010188976
0.0010183533
0.0010176582
0.0010167767
0.0010156603
0.0010142594
0.0010125569
0.0010105538
0.0010082847
0.0010067273
0.0010057326
0.0010052496
0.0010051392
0.001005376
0.0010058211
0.0010033285
0.0010039395
3.8185369e-07
9.0331907e-06
1.8838802e-05
1.9720492e-05
1.4907826e-05
1.996674e-05
1.4137718e-05
1.8608898e-05
1.5169876e-05
2.0327853e-05
1.8251891e-05
2.0798554e-05
1.9582654e-05
1.9679512e-05
1.9192292e-05
1.8985557e-05
1.8816288e-05
1.8751915e-05
1.8768995e-05
1.886504e-05
1.9038629e-05
1.9289153e-05
1.9615044e-05
2.0016627e-05
2.0495177e-05
2.1055981e-05
2.170517e-05
2.2453093e-05
2.3313359e-05
2.4301722e-05
2.5434273e-05
2.67315e-05
2.8220435e-05
2.9934329e-05
3.1914853e-05
3.42121e-05
3.6886632e-05
4.0010095e-05
4.366934e-05
4.7974372e-05
5.3059275e-05
5.9076346e-05
6.6216585e-05
7.4718559e-05
8.4871683e-05
9.7015866e-05
0.00011157457
0.00012906693
0.0001501275
0.00017553081
0.00020622455
0.000243377
0.00028841997
0.00034311577
0.00040963272
0.00049065379
0.00058951683
0.00071039133
0.00085851311
0.0010194184
0.0010192788
0.0010190009
0.0010186673
0.0010182268
0.0010176653
0.0010169555
0.0010160635
0.0010149439
0.0010135434
0.0010118417
0.0010098817
0.0010077411
0.0010062763
0.0010053434
0.0010048812
0.0010047527
0.0010049954
0.0010051531
0.0010035816
0.0010038065
3.415391e-07
8.7436215e-06
1.7903847e-05
1.8351661e-05
1.3420829e-05
1.7654693e-05
1.261486e-05
1.6285471e-05
1.3670315e-05
1.7943462e-05
1.6678508e-05
1.8558426e-05
1.7723433e-05
1.7633837e-05
1.7254532e-05
1.7047305e-05
1.6905741e-05
1.6851517e-05
1.6874077e-05
1.6968056e-05
1.7132571e-05
1.7367429e-05
1.7671416e-05
1.8045236e-05
1.8489922e-05
1.9010711e-05
1.9613249e-05
2.0307037e-05
2.1104754e-05
2.2021831e-05
2.3073804e-05
2.4279754e-05
2.5665145e-05
2.7261114e-05
2.9107046e-05
3.1250363e-05
3.3748897e-05
3.6671344e-05
4.0100034e-05
4.4138929e-05
4.891866e-05
5.4585794e-05
6.132282e-05
6.9358355e-05
7.8974979e-05
9.0501356e-05
0.00010434718
0.00012101657
0.00014112714
0.0001654349
0.000194864
0.00023055746
0.00027391803
0.00032667683
0.000390967
0.00046943108
0.00056536156
0.00068288015
0.00082716864
0.0010047636
0.0010187189
0.0010184147
0.001018056
0.0010175928
0.0010170109
0.0010162832
0.0010153771
0.0010142516
0.0010128533
0.0010111508
0.0010092145
0.0010072147
0.0010058383
0.0010049608
0.001004516
0.0010043778
0.0010046095
0.0010047093
0.0010037413
0.0010039539
3.1306102e-07
8.5288046e-06
1.7085144e-05
1.8360832e-05
1.3410193e-05
1.5630673e-05
1.1273156e-05
1.4286373e-05
1.2376741e-05
1.5879136e-05
1.5273525e-05
1.6532945e-05
1.5982857e-05
1.5767645e-05
1.5468576e-05
1.5274894e-05
1.515652e-05
1.5113245e-05
1.5140299e-05
1.5231778e-05
1.5386994e-05
1.5606331e-05
1.588897e-05
1.623611e-05
1.6648682e-05
1.7131952e-05
1.7691226e-05
1.8335334e-05
1.9076036e-05
1.9928397e-05
2.090759e-05
2.2031529e-05
2.3324378e-05
2.4815447e-05
2.6542153e-05
2.8549599e-05
3.0893173e-05
3.363919e-05
3.686659e-05
4.0673572e-05
4.5187858e-05
5.0551749e-05
5.6941098e-05
6.4575177e-05
7.3731464e-05
8.4729954e-05
9.7969067e-05
0.00011394068
0.00013324858
0.00015663465
0.00018500406
0.00021948034
0.0002614435
0.00031260101
0.00037506009
0.00045143373
0.00054498184
0.0006597933
0.00080101643
0.00097515129
0.0010182035
0.0010178707
0.0010174821
0.0010169917
0.0010163848
0.0010156351
0.0010147101
0.0010135733
0.001012176
0.0010104747
0.0010085438
0.0010066992
0.0010054115
0.001004587
0.0010041681
0.001004021
0.0010041938
0.001004249
0.0010037731
0.0010040852
2.8643504e-07
8.3983141e-06
1.6439629e-05
1.8127e-05
1.3187563e-05
1.3856373e-05
1.066901e-05
1.2630249e-05
1.1491552e-05
1.413531e-05
1.4039921e-05
1.4750159e-05
1.4390073e-05
1.4101307e-05
1.3853059e-05
1.3675031e-05
1.3571773e-05
1.3535423e-05
1.3563476e-05
1.3650352e-05
1.3795339e-05
1.3999303e-05
1.426165e-05
1.4583996e-05
1.4967257e-05
1.5416695e-05
1.5937341e-05
1.6537503e-05
1.7228046e-05
1.8023631e-05
1.893924e-05
1.9991841e-05
2.1204571e-05
2.2605223e-05
2.4229602e-05
2.6120885e-05
2.8332397e-05
3.0928558e-05
3.3986146e-05
3.7598377e-05
4.1890307e-05
4.7001482e-05
5.3103507e-05
6.0407174e-05
6.9186708e-05
7.9756419e-05
9.2506359e-05
0.00010791975
0.00012659008
0.00014925068
0.00017679344
0.00021032954
0.00025122451
0.00030117174
0.00036226468
0.00043710102
0.00052892466
0.00064181064
0.00078089876
0.00095267454
0.0010177275
0.0010173641
0.0010169418
0.0010164205
0.0010157851
0.0010150105
0.0010140639
0.0010129112
0.0010115128
0.0010098213
0.0010078993
0.001006202
0.0010050019
0.001004227
0.0010038373
0.0010036783
0.001003792
0.0010038206
0.0010037088
0.0010039828
2.566376e-07
8.3260967e-06
1.5932825e-05
1.7157979e-05
1.3090546e-05
1.2250409e-05
1.0719155e-05
1.1641277e-05
1.1061651e-05
1.2621043e-05
1.2929685e-05
1.3172272e-05
1.2910662e-05
1.2590263e-05
1.2370797e-05
1.2208468e-05
1.211642e-05
1.2085838e-05
1.2114602e-05
1.2197721e-05
1.2334187e-05
1.2525283e-05
1.2770359e-05
1.2995056e-05
1.3343919e-05
1.3756254e-05
1.4236358e-05
1.4791822e-05
1.5432426e-05
1.6172097e-05
1.7025586e-05
1.8008947e-05
1.9144366e-05
2.0458184e-05
2.1984709e-05
2.376535e-05
2.5851482e-05
2.8305654e-05
3.1203237e-05
3.4894536e-05
3.9005443e-05
4.3912094e-05
4.9784285e-05
5.6825513e-05
6.5307787e-05
7.5542645e-05
8.7914631e-05
0.00010290157
0.00012108978
0.00014320914
0.00017014342
0.000202998
0.00024313134
0.00029223132
0.00035238829
0.00042619766
0.00051690219
0.00062857944
0.00076638139
0.0009368164
0.0010172877
0.0010168912
0.0010164322
0.0010158769
0.0010152101
0.0010144081
0.0010134383
0.0010122665
0.0010108628
0.0010091895
0.0010072905
0.00100573
0.0010046153
0.0010038866
0.0010035265
0.0010033554
0.0010034136
0.0010034202
0.0010035266
0.0010035548
2.3300953e-07
8.2861013e-06
1.5498386e-05
1.5615807e-05
1.1993031e-05
1.067928e-05
9.2674006e-06
1.0391228e-05
9.7253684e-06
1.1345951e-05
1.1809108e-05
1.1719865e-05
1.149639e-05
1.1184935e-05
1.0989235e-05
1.0847082e-05
1.0768728e-05
1.0746831e-05
1.0714336e-05
1.0780965e-05
1.0900942e-05
1.1074624e-05
1.1299626e-05
1.1576428e-05
1.1909117e-05
1.2300783e-05
1.2756011e-05
1.3282323e-05
1.3888952e-05
1.4589395e-05
1.5398597e-05
1.6332121e-05
1.7411692e-05
1.8662728e-05
2.0118647e-05
2.1819729e-05
2.381616e-05
2.6169317e-05
2.8954054e-05
3.2261489e-05
3.620266e-05
4.0918102e-05
4.6577642e-05
5.3828908e-05
6.2094427e-05
7.2089614e-05
8.4196716e-05
9.8891379e-05
0.00011675596
0.00013852242
0.00016507183
0.00019751072
0.00023719857
0.00028582698
0.00034549469
0.00041880895
0.00050902779
0.00062024976
0.00075765966
0.00092781738
0.0010168786
0.0010164472
0.0010159491
0.0010153575
0.0010146572
0.0010138263
0.0010128332
0.0010116415
0.0010102275
0.0010085772
0.0010067238
0.0010052889
0.0010042564
0.0010035706
0.0010032328
0.0010030522
0.0010030671
0.0010030508
0.001003178
0.0010030292
2.1497828e-07
8.2458503e-06
1.5043444e-05
1.3676975e-05
9.8625023e-06
9.4922385e-06
7.6377054e-06
8.8603937e-06
9.0431443e-06
1.0204698e-05
1.0670072e-05
1.0366505e-05
1.0160802e-05
9.8817957e-06
9.7104219e-06
9.524103e-06
9.4365762e-06
9.4102755e-06
9.4377137e-06
9.5159873e-06
9.6410847e-06
9.8144495e-06
1.0035173e-05
1.030323e-05
1.0622823e-05
1.0997933e-05
1.1433193e-05
1.1936156e-05
1.251568e-05
1.3184812e-05
1.3958785e-05
1.4852899e-05
1.5888703e-05
1.7090967e-05
1.8492551e-05
2.0133048e-05
2.206191e-05
2.433986e-05
2.7041094e-05
3.0255875e-05
3.4095528e-05
3.8698501e-05
4.423733e-05
5.0912117e-05
5.8979372e-05
6.8758126e-05
8.1343689e-05
9.5879753e-05
0.00011357892
0.00013518053
0.00016156881
0.00019385844
0.00023341833
0.00028195338
0.00034158249
0.00041493939
0.00050531477
0.00061684764
0.00075477666
0.00092574105
0.0010164954
0.001016027
0.0010154882
0.0010148591
0.0010141242
0.0010132632
0.0010122474
0.001011038
0.0010096102
0.0010079813
0.0010062057
0.001004883
0.0010039285
0.0010032845
0.0010029626
0.001002767
0.0010027446
0.0010027156
0.001002799
0.0010025582
1.9720951e-07
8.2044555e-06
1.3595617e-05
1.1922664e-05
7.9750607e-06
8.4325354e-06
6.786026e-06
7.9918249e-06
8.3692612e-06
9.1246603e-06
9.5410204e-06
9.1305913e-06
8.9307144e-06
8.6057023e-06
8.4254707e-06
8.3092894e-06
8.2543463e-06
8.2520386e-06
8.2964493e-06
8.3842739e-06
8.5162824e-06
8.6898845e-06
8.9074049e-06
9.1689107e-06
9.4787946e-06
9.8414283e-06
1.0261602e-05
1.074702e-05
1.1306305e-05
1.1952082e-05
1.2699922e-05
1.3565164e-05
1.4569404e-05
1.573703e-05
1.7100665e-05
1.8699601e-05
2.0582993e-05
2.2811429e-05
2.5459352e-05
2.8617377e-05
3.2396845e-05
3.6935741e-05
4.2409689e-05
4.9018834e-05
5.7021951e-05
6.6740165e-05
7.8569389e-05
9.2974715e-05
0.0001115573
0.00013318446
0.00015963906
0.00019205096
0.0002318076
0.00028063742
0.00034069208
0.00041464739
0.00050584545
0.00061848766
0.00075788918
0.0009307947
0.0010161325
0.0010156253
0.001015045
0.0010143778
0.0010136081
0.0010127168
0.0010116788
0.0010104564
0.0010090158
0.0010073963
0.001005738
0.0010045146
0.0010036329
0.0010030291
0.0010027175
0.0010025027
0.0010024426
0.0010024008
0.0010024494
0.0010021559
1.81904e-07
8.1584851e-06
1.0799614e-05
9.9036911e-06
6.547853e-06
7.5049931e-06
6.1822242e-06
7.1760775e-06
7.823823e-06
8.1431421e-06
8.4320541e-06
7.919014e-06
7.6725577e-06
7.445256e-06
7.31093e-06
7.232532e-06
7.2054433e-06
7.223695e-06
7.2828949e-06
7.3817562e-06
7.5177364e-06
7.6931871e-06
7.9095271e-06
8.167294e-06
8.4709791e-06
8.825386e-06
9.2355685e-06
9.7094393e-06
1.0255577e-05
1.0886258e-05
1.1558102e-05
1.2395306e-05
1.3369464e-05
1.4504563e-05
1.5832972e-05
1.7393718e-05
1.9235723e-05
2.1419486e-05
2.4019818e-05
2.7127949e-05
3.0856251e-05
3.5621048e-05
4.1086619e-05
4.7698184e-05
5.5716911e-05
6.5467221e-05
7.7356239e-05
9.1860062e-05
0.00010957976
0.00013126563
0.00015928316
0.0001920942
0.00023237975
0.00028190266
0.00034286074
0.0004179887
0.00051070012
0.00062528321
0.00076715521
0.0009431905
0.0010157843
0.0010152368
0.0010146148
0.0010139096
0.0010131059
0.0010121847
0.0010111241
0.0010098933
0.0010084499
0.0010068231
0.0010053183
0.001004184
0.0010033682
0.0010028073
0.0010025029
0.0010022686
0.0010021692
0.0010020855
0.0010020643
0.0010016629
1.6835585e-07
8.1115098e-06
8.5196343e-06
8.4103521e-06
5.7500072e-06
6.6428499e-06
5.6719842e-06
6.4625127e-06
7.2670145e-06
7.2255358e-06
7.2303401e-06
6.7945941e-06
6.5926062e-06
6.4246692e-06
6.3294112e-06
6.2824885e-06
6.2792275e-06
6.3156396e-06
6.3880042e-06
6.4961161e-06
6.6387236e-06
6.8174747e-06
7.0349145e-06
7.2920438e-06
7.5934368e-06
7.9103477e-06
8.3089016e-06
8.770425e-06
9.303359e-06
9.9195406e-06
1.0633235e-05
1.1462999e-05
1.2429759e-05
1.3557571e-05
1.4879103e-05
1.6433784e-05
1.8271126e-05
2.0452419e-05
2.3053963e-05
2.6168909e-05
2.9912278e-05
3.4427815e-05
3.989166e-05
4.6515108e-05
5.4563688e-05
6.4927116e-05
7.6989187e-05
9.1724996e-05
0.00010974657
0.00013182779
0.00015891618
0.00019399305
0.00023514848
0.00028577465
0.00034812974
0.00042502552
0.00051996861
0.00063736086
0.00078275191
0.00096316885
0.0010154453
0.0010148562
0.0010141934
0.0010134505
0.0010126138
0.0010116642
0.0010105806
0.001009342
0.0010079143
0.0010063065
0.001004942
0.0010038898
0.0010031306
0.0010026193
0.0010023151
0.0010020746
0.001001936
0.0010017688
0.0010015789
0.001000931
1.5622411e-07
8.0540957e-06
6.772742e-06
7.3766454e-06
5.1190111e-06
5.8719695e-06
5.232614e-06
5.8287953e-06
6.6051627e-06
6.1854561e-06
6.1454597e-06
5.8099811e-06
5.6490323e-06
5.5290453e-06
5.4672251e-06
5.4474173e-06
5.4653167e-06
5.5183746e-06
5.6037525e-06
5.7218732e-06
5.8720723e-06
6.0563066e-06
6.2512052e-06
6.5052374e-06
6.803119e-06
7.1490618e-06
7.5501477e-06
8.0139682e-06
8.5491812e-06
9.1678228e-06
9.8843063e-06
1.0716966e-05
1.1687968e-05
1.2821726e-05
1.4151458e-05
1.5717356e-05
1.7570052e-05
1.977213e-05
2.2402072e-05
2.5555965e-05
2.9351676e-05
3.3936136e-05
3.9494462e-05
4.6243248e-05
5.4456299e-05
6.4474439e-05
7.6721421e-05
9.1710082e-05
0.00011104227
0.00013371338
0.00016154777
0.00019575928
0.00024011971
0.0002922711
0.00035653192
0.00043581092
0.00053373078
0.00065483493
0.00080484205
0.00099095875
0.00101511
0.0010144788
0.0010137765
0.001012997
0.0010121281
0.0010111524
0.0010100473
0.0010087969
0.001007394
0.0010058508
0.0010046069
0.0010036313
0.0010029162
0.0010024485
0.0010021542
0.0010019213
0.0010017402
0.0010014554
0.0010010847
0.0010005057
1.4539898e-07
7.9819307e-06
5.4270089e-06
6.4378758e-06
4.557234e-06
5.1854807e-06
4.8566074e-06
5.1833859e-06
5.77536e-06
5.2812828e-06
5.1929716e-06
4.9476334e-06
4.8253481e-06
4.7453491e-06
4.7131551e-06
4.7177295e-06
4.7553507e-06
4.8245384e-06
4.9232278e-06
5.0335841e-06
5.1872759e-06
5.3748197e-06
5.5984978e-06
5.8612971e-06
6.1675141e-06
6.521744e-06
6.9309975e-06
7.4034943e-06
7.9481179e-06
8.5770666e-06
9.3048767e-06
1.0150109e-05
1.1085196e-05
1.222576e-05
1.3564462e-05
1.5142231e-05
1.7011023e-05
1.9234768e-05
2.1894184e-05
2.5088799e-05
2.8940346e-05
3.3855069e-05
3.9560287e-05
4.6497957e-05
5.4951302e-05
6.5270975e-05
7.7901103e-05
9.3377421e-05
0.00011235709
0.00013690242
0.00016572088
0.00020116444
0.00024478909
0.0003013931
0.00036808152
0.00045037596
0.00055204104
0.00067778879
0.00083354766
0.0010154121
0.0010147731
0.0010141003
0.0010133606
0.0010125461
0.0010116461
0.001010646
0.0010095238
0.0010082598
0.001006872
0.0010054502
0.0010043135
0.0010034097
0.0010027335
0.0010022933
0.0010020231
0.0010017956
0.0010015717
0.0010012026
0.0010007597
0.0010002461
1.3574239e-07
7.8576306e-06
4.3990375e-06
5.60188e-06
4.0546143e-06
4.5737063e-06
4.5262965e-06
4.4828825e-06
4.9388625e-06
4.4742611e-06
4.3668163e-06
4.195575e-06
4.1100826e-06
4.0646199e-06
4.0593408e-06
4.0864581e-06
4.1429598e-06
4.2115443e-06
4.3186564e-06
4.4559422e-06
4.6242727e-06
4.8251962e-06
5.0616836e-06
5.3369337e-06
5.6558103e-06
6.0231755e-06
6.4461096e-06
6.9125468e-06
7.4673512e-06
8.1071895e-06
8.8466414e-06
9.7042849e-06
1.0702843e-05
1.1870871e-05
1.3242458e-05
1.4859856e-05
1.6777346e-05
1.9061235e-05
2.1795412e-05
2.5084407e-05
2.9055514e-05
3.3869214e-05
3.9719758e-05
4.684665e-05
5.554527e-05
6.6735005e-05
7.9857465e-05
9.5950904e-05
0.00011570519
0.00013997299
0.00017140286
0.00020836592
0.00025388461
0.00030997092
0.0003827577
0.00046870987
0.00057490344
0.00070624521
0.00086891064
0.001015096
0.0010144294
0.0010137172
0.0010129427
0.001012096
0.0010111665
0.0010101425
0.0010090084
0.0010077413
0.0010063551
0.0010051027
0.0010040636
0.0010032252
0.0010025819
0.0010021615
0.0010019066
0.0010016827
0.0010014326
0.0010010388
0.0010005979
0.0010001359
1.2717229e-07
7.5434029e-06
3.6845619e-06
4.8593456e-06
3.6066897e-06
4.0311179e-06
4.0114559e-06
3.8490131e-06
4.1335214e-06
3.7603388e-06
3.6583444e-06
3.5461017e-06
3.4951143e-06
3.4801127e-06
3.4994477e-06
3.5347304e-06
3.6033019e-06
3.700973e-06
3.8269633e-06
3.9815423e-06
4.1662165e-06
4.3830585e-06
4.6354634e-06
4.9269203e-06
5.250831e-06
5.6321237e-06
6.069442e-06
6.5709818e-06
7.1470436e-06
7.8099018e-06
8.5745131e-06
9.4602034e-06
1.0490622e-05
1.169541e-05
1.3110995e-05
1.4781183e-05
1.6763151e-05
1.9126332e-05
2.1958073e-05
2.5369128e-05
2.9491922e-05
3.4495068e-05
4.0585532e-05
4.8013679e-05
5.7091737e-05
6.8203268e-05
8.2547482e-05
9.9387664e-05
0.00012006973
0.00014549914
0.00017676971
0.00021730327
0.00026505957
0.00032392762
0.00039652753
0.00049073287
0.00060223831
0.00074012767
0.00091084914
0.0010147723
0.001014075
0.0010133271
0.0010125205
0.001011645
0.0010106896
0.0010096427
0.0010084965
0.0010072487
0.0010059212
0.0010048032
0.0010038583
0.0010030804
0.0010024694
0.0010020481
0.0010017912
0.0010015722
0.0010013195
0.0010009433
0.0010005309
0.0010000851
1.197604e-07
7.1291163e-06
3.2349104e-06
4.2006529e-06
3.2075401e-06
3.4004112e-06
3.5552297e-06
3.2683373e-06
3.4057059e-06
3.1399156e-06
3.0584895e-06
2.9928049e-06
2.97315e-06
2.9853222e-06
3.0122768e-06
3.0760977e-06
3.1678052e-06
3.2862327e-06
3.4315174e-06
3.6046639e-06
3.8077254e-06
4.0430589e-06
4.3062211e-06
4.6145205e-06
4.9672177e-06
5.3700619e-06
5.8299649e-06
6.3554102e-06
6.9569041e-06
7.6474897e-06
8.4425955e-06
9.3623638e-06
1.0431513e-05
1.1681162e-05
1.3093701e-05
1.4813769e-05
1.6856802e-05
1.9295878e-05
2.2355811e-05
2.5914566e-05
3.0220824e-05
3.5451337e-05
4.1826969e-05
4.9611738e-05
5.9134082e-05
7.0801099e-05
8.5112972e-05
0.00010268458
0.00012538285
0.00015215213
0.00018508798
0.0002256365
0.00027819714
0.00034025224
0.00041679713
0.0005162638
0.0006338401
0.00077920892
0.00095910855
0.0010144368
0.0010137089
0.0010129289
0.0010120931
0.0010111919
0.0010102155
0.0010091515
0.001007991
0.0010067547
0.0010055516
0.0010045503
0.0010036931
0.0010029688
0.0010023854
0.0010019577
0.0010016785
0.0010014547
0.0010012109
0.0010008833
0.0010005239
0.0010001309
1.1377309e-07
6.2228007e-06
2.8501967e-06
3.6024709e-06
2.861127e-06
2.8190152e-06
3.1013779e-06
2.7427844e-06
2.7812603e-06
2.6098923e-06
2.5559333e-06
2.5279133e-06
2.5290022e-06
2.5587189e-06
2.6197942e-06
2.7081805e-06
2.8220305e-06
2.9612064e-06
3.126601e-06
3.3196635e-06
3.5377269e-06
3.7917861e-06
4.0820144e-06
4.4125133e-06
4.788181e-06
5.2149567e-06
5.7000614e-06
6.2523014e-06
6.8825075e-06
7.5876216e-06
8.411816e-06
9.3636242e-06
1.0468774e-05
1.1759507e-05
1.3276164e-05
1.5069202e-05
1.7201043e-05
1.9749868e-05
2.2812747e-05
2.65097e-05
3.0989866e-05
3.669938e-05
4.3400714e-05
5.1592584e-05
6.1620847e-05
7.3915981e-05
8.9008255e-05
0.00010755153
0.00013154753
0.00015982023
0.0001946224
0.00023748113
0.00029311014
0.00035872461
0.00043967692
0.00053961172
0.00066933258
0.00082304935
0.0010131771
0.0010140904
0.0010133313
0.0010125229
0.0010116612
0.0010107369
0.0010097419
0.0010086687
0.0010075085
0.0010062844
0.0010052352
0.0010043361
0.0010035595
0.0010028875
0.0010023252
0.0010018886
0.0010015732
0.0010013324
0.0010010976
0.0010008433
0.0010005624
0.001000173
1.088064e-07
4.3270794e-06
2.502326e-06
3.0476733e-06
2.4278779e-06
2.3318684e-06
2.6264663e-06
2.2754216e-06
2.2619301e-06
2.1636064e-06
2.1400148e-06
2.1373237e-06
2.1662408e-06
2.2260949e-06
2.3128675e-06
2.4242618e-06
2.559652e-06
2.7195869e-06
2.9027706e-06
3.1152526e-06
3.3581002e-06
3.634202e-06
3.9470667e-06
4.3009554e-06
4.7010015e-06
5.1533885e-06
5.6656201e-06
6.2374979e-06
6.8953371e-06
7.6466266e-06
8.5087394e-06
9.5032622e-06
1.0657409e-05
1.2005367e-05
1.3590017e-05
1.5464831e-05
1.7696316e-05
2.0367274e-05
2.3580799e-05
2.7464916e-05
3.2178402e-05
3.7917221e-05
4.525802e-05
5.3899496e-05
6.4486208e-05
7.7473925e-05
9.3424607e-05
0.00011303251
0.00013715519
0.0001683484
0.00020518885
0.00025057187
0.00030651004
0.00037901763
0.00046476962
0.00057062935
0.00070812547
0.00087093556
0.0010144945
0.0010137334
0.0010129442
0.0010121108
0.0010112268
0.0010102833
0.001009271
0.0010081872
0.0010070465
0.0010058989
0.0010049591
0.0010041502
0.0010034444
0.0010028211
0.0010022806
0.0010018383
0.0010014974
0.001001227
0.0010009868
0.0010007885
0.0010006086
0.0010002454
1.0350246e-07
3.5677731e-06
2.1393184e-06
2.5379982e-06
2.0734664e-06
1.9250114e-06
2.1396109e-06
1.8659928e-06
1.8398046e-06
1.7967669e-06
1.7994086e-06
1.8275137e-06
1.8878749e-06
1.9742259e-06
2.08423e-06
2.2170466e-06
2.3729563e-06
2.5511756e-06
2.7564852e-06
2.990049e-06
3.254434e-06
3.5527453e-06
3.8886903e-06
4.266692e-06
4.6920577e-06
5.1711913e-06
5.7055621e-06
6.3145598e-06
7.0056593e-06
7.7934096e-06
8.6961152e-06
9.7366366e-06
1.0943739e-05
1.2353603e-05
1.4011789e-05
1.5975376e-05
1.8315281e-05
2.111947e-05
2.4497431e-05
2.8584616e-05
3.3549318e-05
3.988624e-05
4.73411e-05
5.646477e-05
6.7650057e-05
8.1379395e-05
9.8248053e-05
0.00011899129
0.00014585622
0.0001775323
0.00021653891
0.0002646035
0.00032385904
0.00040067746
0.00049152813
0.0006036808
0.00074937386
0.00092182027
0.0010141459
0.001013366
0.0010125513
0.0010116955
0.0010107919
0.001009834
0.0010088119
0.0010077169
0.0010065752
0.0010055745
0.0010047199
0.0010039847
0.0010033391
0.0010027623
0.0010022498
0.001001812
0.0010014544
0.0010011587
0.0010008992
0.0010006969
0.0010006211
0.0010003717
9.9600848e-08
2.8482665e-06
1.8257543e-06
2.0287542e-06
1.7799957e-06
1.5768847e-06
1.6906523e-06
1.519206e-06
1.5075139e-06
1.5081186e-06
1.5374394e-06
1.5984127e-06
1.6851705e-06
1.7942524e-06
1.9247793e-06
2.0770007e-06
2.2509061e-06
2.4496364e-06
2.6748009e-06
2.9287562e-06
3.2143143e-06
3.5347587e-06
3.8939332e-06
4.296382e-06
4.7475498e-06
5.2504674e-06
5.8184916e-06
6.4591877e-06
7.1847083e-06
8.0103054e-06
8.9553413e-06
1.0044023e-05
1.130684e-05
1.2782095e-05
1.4517988e-05
1.6575171e-05
1.902952e-05
2.1974276e-05
2.5525966e-05
2.9828193e-05
3.5289585e-05
4.1720779e-05
4.9580953e-05
5.9207772e-05
7.1015821e-05
8.5516512e-05
0.00010333986
0.00012526444
0.00015362341
0.00018710805
0.00022835432
0.00027918904
0.00034187278
0.00042309503
0.00051920973
0.0006378607
0.00079194928
0.00097431963
0.0010137927
0.0010129939
0.0010121576
0.0010112828
0.0010103615
0.0010093889
0.0010083635
0.0010072899
0.0010061978
0.0010052965
0.0010045164
0.0010038396
0.0010032431
0.0010027093
0.0010022305
0.0010018074
0.0010014389
0.00100112
0.0010008553
0.0010005976
0.0010005788
0.0010005003
9.7296535e-08
2.2197748e-06
1.5530222e-06
1.5447544e-06
1.5094951e-06
1.2794446e-06
1.3254196e-06
1.2423607e-06
1.2580476e-06
1.2895461e-06
1.3520756e-06
1.438878e-06
1.5469647e-06
1.6750316e-06
1.8233645e-06
1.9930014e-06
2.1848312e-06
2.4018536e-06
2.6459302e-06
2.9196393e-06
3.2259372e-06
3.5682263e-06
3.9504538e-06
4.3772639e-06
4.8542086e-06
5.3880358e-06
5.9870625e-06
6.6616273e-06
7.4161745e-06
8.2801948e-06
9.26831e-06
1.0406163e-05
1.1726092e-05
1.3268722e-05
1.5084948e-05
1.7308537e-05
1.9899565e-05
2.3011424e-05
2.6768326e-05
3.1323653e-05
3.6866525e-05
4.3629784e-05
5.1901417e-05
6.2036382e-05
7.4472461e-05
8.9749999e-05
0.00010853484
0.00013279857
0.00016146342
0.0001967592
0.00024024507
0.00029384871
0.00036336205
0.00044551627
0.00054688685
0.00067203129
0.00083442563
0.0010142582
0.0010134439
0.0010126245
0.0010117693
0.0010108788
0.0010099452
0.0010089602
0.0010079206
0.0010068514
0.0010058903
0.0010050658
0.0010043496
0.0010037208
0.0010031635
0.0010026656
0.0010022198
0.0010018181
0.0010014459
0.001001098
0.0010008217
0.0010005911
0.0010005324
0.0010004687
9.7382301e-08
1.6845276e-06
1.32287e-06
1.1744627e-06
1.2372715e-06
1.0305618e-06
1.0573111e-06
1.0376016e-06
1.081602e-06
1.1425316e-06
1.2290549e-06
1.3353904e-06
1.4604928e-06
1.6045278e-06
1.7685761e-06
1.9541609e-06
2.1628358e-06
2.3971957e-06
2.6594452e-06
2.9522745e-06
3.2787263e-06
3.642283e-06
4.0469791e-06
4.4975611e-06
4.9997104e-06
5.5603436e-06
6.1880158e-06
6.8934253e-06
7.6900433e-06
8.594913e-06
9.6295901e-06
1.0821394e-05
1.2204775e-05
1.382309e-05
1.5730659e-05
1.7995305e-05
2.0701498e-05
2.3954418e-05
2.7884343e-05
3.2652688e-05
3.8459017e-05
4.5549089e-05
5.4223833e-05
6.4856454e-05
7.7905979e-05
9.4716434e-05
0.00011458062
0.00013901469
0.00016909056
0.00020613345
0.00025177964
0.00031094334
0.00038085286
0.00046708421
0.00057350006
0.00071172558
0.00087514404
0.0010139309
0.0010131078
0.0010122688
0.001011396
0.0010104895
0.0010095457
0.0010085612
0.0010075357
0.0010064982
0.0010056339
0.00100488
0.0010042199
0.0010036337
0.0010031085
0.0010026369
0.0010022145
0.0010018329
0.0010014725
0.0010011162
0.0010007948
0.0010005653
0.0010005092
0.0010003976
1.0066343e-07
1.247739e-06
1.1321667e-06
9.0369081e-07
1.0789257e-06
8.2543675e-07
8.7321667e-07
8.986128e-07
9.6534469e-07
1.0493494e-06
1.1532585e-06
1.2746288e-06
1.4138579e-06
1.5719574e-06
1.7504175e-06
1.9509786e-06
2.1756166e-06
2.4263899e-06
2.7059609e-06
3.0170005e-06
3.3626172e-06
3.746368e-06
4.1723774e-06
4.6455046e-06
5.1715751e-06
5.7576926e-06
6.4126622e-06
7.1475662e-06
7.976404e-06
8.9169646e-06
9.9917741e-06
1.1229454e-05
1.2666136e-05
1.4347318e-05
1.6330021e-05
1.8685466e-05
2.1502267e-05
2.4890382e-05
2.8985928e-05
3.3957149e-05
4.0284677e-05
4.7739215e-05
5.6859453e-05
6.8036964e-05
8.1753604e-05
9.8603592e-05
0.00011932028
0.00014480897
0.0001761844
0.0002168372
0.00026481703
0.00032394888
0.00039686213
0.00048681116
0.00060365438
0.00074171539
0.00091214838
0.0010136213
0.0010127901
0.0010119383
0.001011053
0.0010101318
0.0010091722
0.0010081761
0.0010071617
0.0010062192
0.0010054246
0.0010047325
0.0010041224
0.0010035757
0.0010030801
0.0010026289
0.0010022193
0.001001844
0.0010014871
0.0010011353
0.0010008124
0.0010005881
0.0010004763
0.0010003479
1.0724288e-07
9.6118193e-07
9.6580272e-07
7.646165e-07
7.6837202e-07
7.0397927e-07
7.4997032e-07
8.1055609e-07
8.9451832e-07
9.9463975e-07
1.1116488e-06
1.2454657e-06
1.3971699e-06
1.5680961e-06
1.7598568e-06
1.9742503e-06
2.2132849e-06
2.4791968e-06
2.7744893e-06
3.1019782e-06
3.464858e-06
3.8667907e-06
4.3120314e-06
4.8056063e-06
5.3535602e-06
5.9611885e-06
6.6406596e-06
7.4021019e-06
8.2673685e-06
9.243534e-06
1.0359165e-05
1.1644309e-05
1.3136865e-05
1.4884497e-05
1.6946894e-05
1.9398508e-05
2.2331899e-05
2.586183e-05
3.0130264e-05
3.5312569e-05
4.1625147e-05
4.9334869e-05
5.8770541e-05
7.0335484e-05
8.4528671e-05
0.00010196458
0.00012449955
0.00015107682
0.00018378192
0.0002240531
0.0002736673
0.00033482419
0.00041024423
0.00050807707
0.00062375187
0.00076652496
0.00094278931
0.0010133406
0.0010125003
0.001011639
0.0010107484
0.0010098237
0.0010088605
0.0010078617
0.0010068583
0.0010059991
0.0010052595
0.0010046169
0.0010040487
0.0010035376
0.0010030707
0.0010026406
0.0010022427
0.0010018708
0.0010015137
0.0010011662
0.0010008492
0.0010006088
0.001000455
0.0010003063
1.2181329e-07
9.6681784e-07
8.0551228e-07
5.6662111e-07
6.1049494e-07
6.1366354e-07
6.7782264e-07
7.5719369e-07
8.5465708e-07
9.6695991e-07
1.0951166e-06
1.2399627e-06
1.4028063e-06
1.5850748e-06
1.7884051e-06
2.0146196e-06
2.2657552e-06
2.5440897e-06
2.8521785e-06
3.1928992e-06
3.5695139e-06
3.9857557e-06
4.4459538e-06
4.9552114e-06
5.5196606e-06
6.1468098e-06
6.8460082e-06
7.6290411e-06
8.5108871e-06
9.5106246e-06
1.0652523e-05
1.1967411e-05
1.3494228e-05
1.5281964e-05
1.7391944e-05
1.9900633e-05
2.2903038e-05
2.6516849e-05
3.0887528e-05
3.6194556e-05
4.2659257e-05
5.0916281e-05
6.0653263e-05
7.2583691e-05
8.7221309e-05
0.00010519836
0.00012729534
0.00015447598
0.00018793098
0.00022913036
0.00027989585
0.00034564149
0.00042338679
0.00051928561
0.00063763181
0.00078373518
0.00096414022
0.0010131129
0.0010122589
0.0010113843
0.0010104856
0.0010095587
0.0010086005
0.0010076142
0.0010066351
0.0010058338
0.0010051369
0.0010045313
0.001003995
0.0010035122
0.0010030702
0.0010026601
0.0010022762
0.0010019124
0.0010015615
0.0010012219
0.0010009089
0.0010006505
0.0010004433
0.0010002177
1.1167163e-07
6.2253419e-07
6.3824945e-07
4.691953e-07
5.1223867e-07
5.5841421e-07
6.3764722e-07
7.3066436e-07
8.388253e-07
9.6146962e-07
1.0996884e-06
1.2545464e-06
1.4273759e-06
1.6196574e-06
1.8330608e-06
2.0694546e-06
2.3309312e-06
2.6198e-06
2.9387276e-06
3.2906434e-06
3.6788804e-06
4.1072449e-06
4.5801408e-06
5.1027505e-06
5.6812925e-06
6.323377e-06
7.038478e-06
7.8385482e-06
8.7458656e-06
9.7688846e-06
1.0937228e-05
1.2282516e-05
1.3844632e-05
1.5673712e-05
1.7832458e-05
2.0399005e-05
2.3470377e-05
2.7166725e-05
3.1636538e-05
3.7063027e-05
4.3671972e-05
5.1741296e-05
6.1612842e-05
7.370875e-05
8.8548591e-05
0.00010677342
0.00012917453
0.00015810438
0.0001922685
0.0002343287
0.00028614272
0.0003500069
0.00042876434
0.00052593515
0.00064587745
0.00079398351
0.00097689826
0.0010129671
0.0010121005
0.0010112109
0.0010102974
0.0010093573
0.0010083915
0.0010074131
0.0010064922
0.0010057247
0.0010050592
0.0010044793
0.0010039655
0.0010035029
0.0010030787