/*--------------------------------*- C++ -*----------------------------------*\
  =========                 |
  \\      /  F ield         | OpenFOAM: The Open Source CFD Toolbox
   \\    /   O peration     | Website:  https://openfoam.org
    \\  /    A nd           | Version:  12
     \\/     M anipulation  |
\*---------------------------------------------------------------------------*/
FoamFile
{
    format      ascii;
    class       volScalarField;
    location    "0.082";
    object      p;
}
// * * * * * * * * * * * * * * * * * * * * * * * * * * * * * * * * * * * * * //

dimensions      [1 -1 -2 0 0 0 0];

internalField   nonuniform List<scalar> 
16000
(
89786.59
89911.206
89922.992
90055.86
90081.745
90207.639
90257.544
90372.873
90445.875
90555.601
90646.625
90756.272
90861.165
90975.076
91090.855
91212.007
91337.168
91466.931
91601.173
91739.979
91883.358
92031.313
92183.824
92340.848
92502.317
92668.135
92838.178
93012.289
93190.281
93371.933
93556.99
93745.161
93936.125
94129.526
94324.978
94522.067
94720.352
94919.373
95118.651
95317.696
95516.009
95713.093
95908.45
96101.597
96292.061
96479.393
96663.168
96842.991
97018.502
97189.378
97355.333
97516.122
97671.538
97821.414
97965.623
98104.075
98236.717
98363.527
98484.514
98599.717
98709.199
98813.04
98911.339
99004.212
99091.784
99174.192
99251.579
99324.093
99391.886
99455.102
99513.874
99568.367
99618.755
99665.063
99707.133
99742.96
99795.397
99771.712
99917.811
99763.308
89419.488
89560.832
89570.051
89714.925
89742.474
89879.152
89931.483
90057.977
90134.769
90254.515
90351.842
90470.324
90583.413
90706.059
90830.956
90961.444
91096.341
91236.123
91380.711
91530.159
91684.459
91843.59
92007.504
92176.124
92349.343
92527.023
92708.992
92895.045
93084.94
93278.397
93475.103
93674.705
93876.819
94081.025
94286.875
94493.893
94701.581
94909.426
95116.899
95323.471
95528.609
95731.79
95932.503
96130.257
96324.587
96515.058
96701.271
96882.866
97059.525
97230.974
97396.981
97557.358
97711.959
97860.68
98003.454
98140.253
98271.078
98395.962
98514.962
98628.162
98735.663
98837.578
98934.037
99025.175
99111.137
99192.07
99268.122
99339.445
99406.188
99468.487
99526.457
99580.256
99630.035
99675.639
99716.823
99756.7
99792.869
99800.343
99896.144
99791.532
89083.844
89240.465
89249.567
89407.528
89435.096
89585.324
89639.256
89777.898
89859.458
89989.554
90094.528
90222.448
90344.965
90477.332
90612.518
90753.519
90899.356
91050.382
91206.533
91367.819
91534.208
91705.64
91882.028
92063.253
92249.161
92439.565
92634.236
92832.911
93035.285
93241.011
93449.707
93660.95
93874.281
94089.209
94305.216
94521.759
94738.279
94954.206
95168.968
95381.995
95592.729
95800.631
96005.187
96205.916
96402.372
96594.155
96780.907
96962.323
97138.143
97308.159
97472.209
97630.179
97781.997
97927.632
98067.091
98200.411
98327.66
98448.928
98564.325
98673.982
98778.04
98876.649
98969.964
99058.147
99141.358
99219.755
99293.493
99362.723
99427.588
99488.209
99544.696
99597.181
99645.715
99690.074
99730.758
99769.711
99799.85
99823.77
99890.012
99813.987
88782.661
88949.883
88960.094
89133.144
89160.218
89326.472
89382.593
89535.356
89622.643
89764.634
89878.736
90017.457
90151.02
90294.567
90441.557
90594.537
90752.731
90916.373
91085.4
91259.786
91439.467
91624.347
91814.298
92009.153
92208.707
92412.711
92620.874
92832.857
93048.279
93266.714
93487.694
93710.71
93935.218
94160.646
94386.396
94611.853
94836.395
95059.399
95280.251
95498.352
95713.13
95924.045
96130.598
96332.336
96528.857
96719.813
96904.913
97083.924
97256.667
97423.017
97582.901
97736.292
97883.205
98023.695
98157.848
98285.776
98407.615
98523.517
98633.648
98738.183
98837.305
98931.197
99020.042
99104.022
99183.311
99258.077
99328.48
99394.669
99456.776
99514.911
99569.176
99619.666
99666.323
99709.011
99748.539
99785.162
99813.16
99842.699
99892.047
99832.102
88519.286
88701.227
88708.405
88899.944
88925.954
89110.441
89168.739
89337.47
89431.78
89587.093
89712.117
89862.85
90008.991
90164.973
90325.014
90491.171
90662.877
90840.276
91023.308
91211.917
91406.004
91605.429
91810.012
92019.521
92233.681
92452.161
92674.582
92900.514
93129.475
93360.937
93594.33
93829.043
94064.435
94299.841
94534.58
94767.965
94999.315
95227.962
95453.261
95674.604
95891.424
96103.205
96309.486
96509.872
96704.028
96891.689
97072.652
97246.782
97414
97574.286
97727.669
97874.224
98014.064
98147.334
98274.204
98394.865
98509.521
98618.385
98721.676
98819.613
98912.415
99000.296
99083.458
99162.101
99236.409
99306.557
99372.705
99434.995
99493.548
99548.46
99599.815
99647.657
99691.861
99732.403
99770.003
99803.848
99830.506
99861.295
99898.177
99850.95
88298.811
88498.237
88503.146
88715.57
88740.477
88945.151
89005.73
89192.121
89294.677
89464.101
89601.305
89764.588
89924.235
90093.484
90267.521
90447.916
90634.281
90826.678
91025.02
91229.198
91439.049
91654.363
91874.873
92100.257
92330.135
92564.069
92801.563
93042.067
93284.975
93529.639
93775.365
94021.428
94267.082
94511.565
94754.115
94993.982
95230.437
95462.787
95690.382
95912.629
96128.998
96339.027
96542.332
96738.602
96927.606
97109.189
97283.267
97449.823
97608.903
97760.606
97905.076
98042.5
98173.092
98297.092
98414.755
98526.347
98632.136
98732.393
98827.382
98917.36
99002.577
99083.266
99159.65
99231.933
99300.308
99364.949
99426.009
99483.622
99537.894
99588.902
99636.703
99681.282
99722.486
99760.368
99795.37
99826.174
99851.325
99881.072
99908.06
99872.755
88121.622
88341.657
88343.834
88580.588
88604.546
88833.1
88896.873
89102.483
89213.302
89396.181
89546.46
89722.883
89897.345
90081.343
90271.031
90467.482
90670.389
90879.707
91095.281
91316.915
91544.351
91777.273
92015.299
92257.984
92504.815
92755.214
93008.542
93264.102
93521.146
93778.88
94036.48
94293.099
94547.883
94799.983
95048.57
95292.848
95532.071
95765.549
95992.665
96212.881
96425.743
96630.888
96828.045
97017.032
97197.754
97370.198
97534.424
97690.56
97838.789
97979.342
98112.489
98238.527
98357.775
98470.561
98577.219
98678.084
98773.48
98863.724
98949.116
99029.944
99106.476
99178.961
99247.627
99312.682
99374.315
99432.692
99487.957
99540.229
99589.592
99636.103
99679.782
99720.554
99758.261
99792.98
99824.815
99852.344
99875.576
99902.449
99921.607
99898.285
87981.887
88226.138
88224.115
88490.142
88511.072
88766.096
88832.95
89057.398
89179.672
89378.395
89545.361
89737.711
89929.969
90131.594
90339.688
90554.905
90776.97
91005.736
91240.957
91482.327
91729.469
91981.931
92239.184
92500.625
92765.577
93033.292
93302.958
93573.709
93844.63
94114.776
94383.186
94648.896
94910.957
95168.453
95420.518
95666.35
95905.223
96136.504
96359.656
96574.248
96779.956
96976.565
97163.964
97342.14
97511.17
97671.213
97822.496
97965.307
98099.975
98226.87
98346.382
98458.916
98564.886
98664.699
98758.757
98847.447
98931.138
99010.179
99084.896
99155.59
99222.542
99286.002
99346.196
99403.327
99457.571
99509.082
99557.984
99604.375
99648.317
99689.839
99728.914
99765.421
99799.206
99830.3
99858.502
99882.605
99903.524
99926.114
99939.046
99926.749
87877.629
88149.93
88143.562
88445.707
88460.894
88744.304
88816.384
89062.536
89201.381
89418.445
89605.736
89816.908
90029.996
90252.317
90481.788
90718.719
90962.801
91213.763
91471.23
91734.75
92003.781
92277.695
92555.776
92837.222
93121.152
93406.614
93692.595
93978.037
94261.851
94542.939
94820.212
95092.61
95359.123
95618.81
95870.817
96114.39
96348.892
96573.806
96788.746
96993.452
97187.79
97371.748
97545.422
97709.006
97862.781
98007.096
98142.36
98269.021
98387.558
98498.469
98602.253
98699.412
98790.434
98875.79
98955.929
99031.275
99102.223
99169.14
99232.359
99292.185
99348.894
99402.73
99453.907
99502.613
99549.004
99593.212
99635.339
99675.454
99713.593
99749.747
99783.843
99815.726
99845.245
99872.322
99896.54
99917.124
99935.258
99952.552
99960.534
99958.261
87811.152
88116.191
88106.615
88445.666
88459.835
88775.113
88858.398
89129.549
89288.091
89525.46
89736.671
89969.827
90206.978
90453.359
90707.474
90969.325
91238.502
91514.564
91796.958
92085.034
92378.034
92675.101
92975.276
93277.51
93580.677
93883.586
94185.003
94483.669
94778.326
95067.742
95350.733
95626.189
95893.098
96150.562
96397.816
96634.241
96859.369
97072.888
97274.639
97464.606
97642.909
97809.788
97965.586
98110.732
98245.723
98371.109
98487.472
98595.414
98695.547
98788.474
98874.787
98955.054
99029.817
99099.586
99164.836
99226.006
99283.497
99337.673
99388.862
99437.358
99483.42
99527.274
99569.112
99609.098
99647.364
99684.012
99719.115
99752.71
99784.8
99815.334
99844.195
99871.207
99896.202
99918.962
99938.987
99956.008
99970.82
99982.063
99986.118
99993.354
87789.169
88133.085
88119.611
88498.705
88516.69
88867.999
88966.116
89264.137
89448.03
89708.549
89947.878
90206.929
90471.85
90746.066
91028.436
91318.68
91616.213
91920.371
92230.356
92545.247
92864.001
93185.459
93508.36
93831.359
94153.044
94471.969
94786.671
95095.707
95397.684
95691.285
95975.301
96248.655
96510.428
96759.871
96996.422
97219.702
97429.523
97625.869
97808.893
97978.891
98136.286
98281.605
98415.457
98538.512
98651.478
98755.087
98850.075
98937.17
99017.083
99090.496
99158.055
99220.369
99278.003
99331.477
99381.268
99427.806
99471.478
99512.63
99551.568
99588.558
99623.836
99657.596
99690.003
99721.188
99751.252
99780.263
99808.259
99835.245
99861.183
99885.977
99909.475
99931.489
99951.804
99970.065
99985.842
99999.313
100010.34
100015.16
100016.14
100031.98
87820.3
88210.471
88193.124
88619.659
88642.511
89033.022
89150.406
89477.141
89692.057
89979.004
90250.772
90540.153
90836.998
91143.246
91457.869
91780.273
92109.601
92444.87
92784.936
93128.512
93474.18
93820.407
94165.574
94508
94845.978
95177.808
95501.835
95816.487
96120.31
96412.008
96690.467
96954.783
97204.273
97438.485
97657.196
97860.399
98048.291
98221.246
98379.79
98524.575
98656.351
98775.935
98884.191
98982.005
99070.265
99149.845
99221.594
99286.325
99344.804
99397.751
99445.83
99489.654
99529.779
99566.709
99600.895
99632.74
99662.598
99690.779
99717.552
99743.15
99767.769
99791.568
99814.674
99837.182
99859.157
99880.63
99901.602
99922.039
99941.861
99960.932
99979.072
99996.08
100011.67
100025.39
100037.02
100047
100053.91
100052.39
100051.43
100074.38
87905.549
88350.739
88330.084
88810.683
88841.814
89275.305
89419.432
89777.439
90030.423
90348.513
90657.792
90982.882
91316.618
91659.754
92011.133
92369.751
92734.339
93103.461
93475.51
93848.73
94221.247
94591.1
94956.277
95314.761
95664.572
96003.817
96330.74
96643.765
96941.539
97222.961
97487.208
97733.742
97962.305
98172.912
98365.826
98541.526
98700.678
98844.095
98972.705
99087.513
99189.574
99279.96
99359.743
99429.971
99491.653
99545.753
99593.174
99634.758
99671.283
99703.458
99731.93
99757.278
99780.022
99800.621
99819.482
99836.959
99853.357
99868.941
99883.931
99898.516
99912.847
99927.042
99941.185
99955.332
99969.508
99983.705
99997.887
100011.98
100025.86
100039.35
100052.26
100064.38
100075.31
100084.6
100092.3
100098.88
100101.34
100093.74
100091.99
100121.58
88049.894
88560.408
88537.043
89079.06
89124.733
89605.123
89785.168
90177.769
90476.517
90831.993
91184.768
91551.95
91928.419
92313.88
92706.774
93105.52
93508.274
93913.014
94317.557
94719.598
95116.751
95506.601
95886.761
96254.933
96608.973
96946.953
97267.218
97568.427
97849.585
98110.056
98349.558
98568.146
98766.184
98944.299
99103.344
99244.346
99368.463
99476.936
99571.057
99652.13
99721.445
99780.255
99829.761
99871.096
99905.32
99933.413
99956.275
99974.722
99989.493
100001.25
100010.58
100018
100023.97
100028.89
100033.09
100036.87
100040.48
100044.13
100047.98
100052.16
100056.79
100061.94
100067.64
100073.9
100080.72
100088.05
100095.81
100103.89
100112.12
100120.3
100128.24
100135.66
100142.12
100147.23
100151.32
100154.53
100152.24
100139.52
100138.62
100172.47
88259.892
88848.54
88824.302
89436.124
89503.459
90034.762
90261.834
90694.139
91047.534
91448.77
91852.425
92269.105
92694.732
93127.967
93566.6
94008.313
94450.548
94890.578
95325.554
95752.56
96168.688
96571.119
96957.21
97324.581
97671.193
97995.404
98296.017
98572.289
98823.928
99051.066
99254.217
99434.221
99592.184
99729.418
99847.377
99947.607
100031.69
100101.23
100157.76
100202.78
100237.73
100263.92
100282.6
100294.89
100301.82
100304.34
100303.26
100299.35
100293.25
100285.54
100276.72
100267.24
100257.47
100247.72
100238.26
100229.32
100221.07
100213.67
100207.23
100201.83
100197.51
100194.32
100192.24
100191.24
100191.27
100192.26
100194.08
100196.57
100199.55
100202.81
100206.11
100209.13
100211.39
100212.66
100213.51
100213.43
100206.51
100189.75
100190.48
100225.34
88541.802
89223.806
89201.487
89892.567
89992.684
90580.675
90869.272
91349.714
91768.165
92225.334
92688.069
93161.694
93642.333
94127.579
94614.368
95099.481
95579.482
96050.814
96509.892
96953.214
97377.481
97779.724
98157.405
98508.512
98831.599
99125.818
99390.896
99627.1
99835.173
100016.25
100171.8
100303.5
100413.19
100502.82
100574.33
100629.66
100670.69
100699.19
100716.85
100725.22
100725.73
100719.67
100708.23
100692.45
100673.26
100651.5
100627.88
100603.04
100577.53
100551.81
100526.28
100501.3
100477.13
100454.01
100432.14
100411.67
100392.7
100375.32
100359.59
100345.54
100333.17
100322.46
100313.37
100305.82
100299.73
100294.99
100291.43
100288.86
100287.08
100285.85
100284.93
100283.91
100282.31
100280.16
100278.13
100274.84
100263.53
100243.91
100246.49
100279.47
88902.918
89696.424
89681.424
90466.66
90616.4
91271.028
91638.119
92177.426
92671.425
93194.774
93724.169
94260.871
94800.514
95339.433
95873.405
96398.046
96908.865
97401.441
97871.594
98315.569
98730.183
99112.945
99462.126
99776.776
100056.7
100302.39
100514.93
100695.88
100847.19
100971.05
101069.82
101145.92
101201.76
101239.71
101262.02
101270.82
101268.07
101255.58
101234.99
101207.79
101175.29
101138.66
101098.94
101057.03
101013.72
100969.68
100925.51
100881.69
100838.65
100796.74
100756.25
100717.42
100680.44
100645.46
100612.58
100581.9
100553.45
100527.27
100503.35
100481.68
100462.22
100444.89
100429.62
100416.3
100404.82
100395
100386.68
100379.64
100373.63
100368.43
100363.73
100359.07
100354.04
100348.9
100344.26
100337.72
100322.27
100300.81
100305.89
100335.82
89362.476
90293.296
90296.941
91196.079
91412.903
92144.326
92607.052
93216.253
93795.183
94394.112
94996.444
95600.053
96199.251
96788.635
97362.448
97915.006
98440.922
98935.37
99394.31
99814.647
100194.32
100532.31
100828.6
101084.03
101300.22
101479.33
101623.97
101737.01
101821.49
101880.44
101916.86
101933.62
101933.45
101918.84
101892.11
101855.33
101810.38
101758.93
101702.45
101642.23
101579.39
101514.91
101449.62
101384.25
101319.4
101255.6
101193.26
101132.74
101074.33
101018.27
100964.74
100913.87
100865.77
100820.5
100778.11
100738.61
100701.98
100668.21
100637.24
100609.01
100583.44
100560.42
100539.83
100521.55
100505.4
100491.22
100478.78
100467.85
100458.19
100449.54
100441.55
100433.69
100425.67
100417.99
100410.91
100400.98
100381.69
100359.81
100368.34
100394.39
89952.734
91058.181
91090.809
92122.342
92424.685
93240.584
93817.404
94509.815
95183.014
95865.805
96544.503
97213.51
97865.009
98491.596
99086.175
99642.449
100155.22
100620.63
101036.25
101401.05
101715.34
101980.56
102199.08
102373.96
102508.7
102607.1
102673.06
102710.41
102722.86
102713.92
102686.83
102644.55
102589.76
102524.83
102451.89
102372.79
102289.14
102202.36
102113.64
102024.02
101934.37
101845.45
101757.86
101672.13
101588.68
101507.86
101429.94
101355.15
101283.64
101215.54
101150.92
101089.85
101032.34
100978.38
100927.95
100881.01
100837.5
100797.34
100760.43
100726.69
100695.98
100668.17
100643.12
100620.65
100600.59
100582.72
100566.81
100552.6
100539.85
100528.28
100517.45
100506.84
100496.34
100486.56
100477.15
100463.77
100441.44
100420.84
100432.5
100452.61
90703.072
92018.983
92094.977
93277.254
93698.728
94610.914
95323.052
96114.994
96889.76
97658.553
98407.19
99126.581
99807.016
100440.16
101019.25
101539.43
101997.86
102393.68
102727.77
103002.51
103221.4
103388.75
103509.35
103588.21
103630.36
103640.64
103623.66
103583.64
103524.47
103449.6
103362.1
103264.69
103159.73
103049.24
102934.98
102818.45
102700.92
102583.46
102466.96
102352.17
102239.71
102130.08
102023.68
101920.85
101821.82
101726.79
101635.89
101549.22
101466.83
101388.75
101314.97
101245.46
101180.17
101119.04
101061.99
101008.92
100959.73
100914.31
100872.53
100834.26
100799.33
100767.6
100738.88
100712.98
100689.7
100668.8
100650.04
100633.14
100617.85
100603.84
100590.63
100577.75
100565.25
100553.71
100542.07
100525.44
100501
100483.24
100497.47
100509.06
91642.254
93221.153
93376.367
94726.958
95312.435
96336.702
97200.927
98102.679
98973.496
99811.557
100601.2
101331.62
101993.77
102581.53
103091.67
103523.72
103879.6
104163.13
104379.52
104534.88
104635.75
104688.8
104700.52
104677.03
104624
104546.56
104449.27
104336.16
104210.73
104076
103934.55
103788.61
103640.02
103490.34
103340.89
103192.74
103046.78
102903.74
102764.21
102628.65
102497.44
102370.85
102249.08
102132.31
102020.6
101914.03
101812.61
101716.33
101625.14
101538.99
101457.8
101381.47
101309.91
101243
101180.61
101122.61
101068.86
101019.21
100973.52
100931.61
100893.3
100858.42
100826.77
100798.13
100772.28
100748.96
100727.92
100708.87
100691.55
100675.57
100660.44
100645.76
100631.7
100618.64
100604.91
100585.71
100560.32
100545.16
100560.47
100562.26
92852.338
94763.633
95042.257
96581.654
97378.026
98523.008
99534.63
100531.28
101461.99
102318.29
103086.65
103759.49
104333.22
104808.24
105188.19
105479.17
105688.96
105826.25
105900.07
105919.27
105892.26
105826.77
105729.76
105607.37
105464.96
105307.15
105137.86
104960.42
104777.62
104591.8
104404.87
104218.42
104033.77
103851.96
103673.83
103500.07
103331.21
103167.65
103009.7
102857.58
102711.44
102571.38
102437.44
102309.63
102187.9
102072.21
101962.47
101858.59
101760.45
101667.93
101580.89
101499.19
101422.68
101351.2
101284.61
101222.72
101165.38
101112.41
101063.64
101018.88
100977.93
100940.59
100906.66
100875.89
100848.04
100822.85
100800.05
100779.36
100760.46
100742.96
100726.35
100710.34
100695.11
100680.73
100665.2
100644.26
100618.73
100604.68
100617.85
100613.81
94463.934
96785.966
97242.098
98968.798
100011.03
101262.5
102370.26
103396.59
104304.29
105087.23
105741.25
106268.46
106675.38
106971.74
107169.2
107280.26
107317.37
107292.42
107216.28
107098.68
106948.12
106771.91
106576.26
106366.38
106146.59
105920.48
105690.99
105460.5
105230.96
105003.92
104780.61
104562.02
104348.92
104141.89
103941.36
103747.67
103561.02
103381.57
103209.38
103044.47
102886.83
102736.39
102593.06
102456.73
102327.27
102204.55
102088.39
101978.65
101875.14
101777.69
101686.12
101600.26
101519.92
101444.91
101375.06
101310.16
101250.05
101194.52
101143.38
101096.43
101053.46
101014.26
100978.58
100946.21
100916.87
100890.29
100866.19
100844.29
100824.24
100805.63
100787.99
100771.08
100755.04
100739.61
100722.65
100700.69
100675.52
100661.58
100671.03
100663.81
96665.787
99448.385
100143.79
102009.82
103261.26
104559.58
105648.7
106579.13
107338.01
107931.07
108369.21
108668.01
108845.16
108918.82
108906.43
108823.96
108685.52
108503.32
108287.66
108047.14
107788.82
107518.47
107240.75
106959.4
106677.41
106397.13
106120.42
105848.73
105583.17
105324.58
105073.59
104830.65
104596.08
104370.06
104152.72
103944.08
103744.12
103552.76
103369.92
103195.44
103029.17
102870.94
102720.56
102577.83
102442.55
102314.51
102193.5
102079.31
101971.73
101870.53
101775.52
101686.49
101603.22
101525.52
101453.18
101386
101323.77
101266.3
101213.37
101164.77
101120.28
101079.67
101042.72
101009.16
100978.74
100951.17
100926.17
100903.44
100882.62
100863.28
100845
100827.61
100811.09
100794.91
100776.94
100754.71
100730.79
100717.01
100721.07
100708.61
99708.745
102864.98
103865.44
105796.92
107090.08
108244.1
109150.16
109832.84
110309.61
110606.83
110752.09
110772.55
110692.98
110535.08
110317.21
110054.61
109759.61
109442.15
109110.09
108769.61
108425.55
108081.66
107740.8
107405.17
107076.44
106755.82
106444.21
106142.25
105850.36
105568.79
105297.7
105037.12
104787.01
104547.27
104317.77
104098.31
103888.71
103688.73
103498.14
103316.69
103144.12
102980.19
102824.63
102677.18
102537.59
102405.61
102280.98
102163.47
102052.82
101948.81
101851.19
101759.76
101674.27
101594.52
101520.29
101451.36
101387.53
101328.57
101274.28
101224.44
101178.81
101137.18
101099.29
101064.89
101033.71
101005.47
100979.88
100956.63
100935.35
100915.63
100897.08
100879.51
100862.75
100846.04
100827.6
100805.99
100783.89
100769.6
100766.68
100749.35
103851
107219.65
108421.6
110094.48
111207.77
112029.58
112558.67
112849.14
112945.08
112889.07
112717.11
112459.07
112138.89
111775.39
111383.1
110973.18
110554.04
110132.04
109711.88
109297.08
108890.17
108492.98
108106.81
107732.54
107370.71
107021.67
106685.56
106362.39
106052.07
105754.45
105469.3
105196.36
104935.34
104685.95
104447.86
104220.74
104004.27
103798.11
103601.94
103415.44
103238.28
103070.16
102910.76
102759.8
102616.98
102482.01
102354.63
102234.56
102121.54
102015.33
101915.68
101822.36
101735.12
101653.74
101578
101507.67
101442.55
101382.42
101327.05
101276.21
101229.7
101187.26
101148.66
101113.63
101081.91
101053.22
101027.26
101003.72
100982.22
100962.4
100943.86
100926.31
100909.41
100892.42
100874.06
100853.54
100832.95
100817.58
100807.77
100783.97
109023.46
112356.57
113463.61
114579.8
115185.96
115468.42
115490.88
115325.88
115026.88
114635.78
114183.71
113693.63
113182.17
112661.32
112139.6
111623.02
111115.76
110620.71
110139.76
109674.14
109224.56
108791.38
108374.71
107974.46
107590.4
107222.24
106869.6
106532.08
106209.24
105900.62
105605.77
105324.25
105055.59
104799.36
104555.12
104322.44
104100.94
103890.19
103689.82
103499.46
103318.75
103147.34
102984.9
102831.1
102685.63
102548.2
102418.5
102296.27
102181.23
102073.12
101971.7
101876.7
101787.9
101705.07
101627.97
101556.39
101490.11
101428.9
101372.55
101320.83
101273.51
101230.35
101191.12
101155.56
101123.39
101094.34
101068.11
101044.38
101022.83
101003.07
100984.7
100967.28
100950.35
100933.39
100915.72
100896.85
100877.21
100858.31
100839.61
100812.78
115176.93
117665.1
118270.17
118550.03
118458.74
118135.73
117659.47
117089.82
116466.9
115817.87
115160.79
114507.5
113865.71
113240.29
112634.22
112049.2
111486.08
110945.14
110426.26
109929.09
109453.1
108997.69
108562.17
108145.83
107747.98
107367.91
107004.91
106658.33
106327.52
106011.84
105710.71
105423.55
105149.81
104888.96
104640.52
104403.99
104178.94
103964.91
103761.49
103568.28
103384.91
103211
103046.2
102890.18
102742.62
102603.2
102471.63
102347.62
102230.9
102121.2
102018.27
101921.85
101831.71
101747.61
101669.33
101596.65
101529.33
101467.17
101409.94
101357.42
101309.38
101265.59
101225.8
101189.75
101157.2
101127.84
101101.38
101077.54
101055.99
101036.37
101018.19
101000.9
100984.02
100967.35
100950.72
100933.43
100913.89
100890.59
100863.97
100836.39
121734.8
122172.9
121959.14
121418.43
120697.67
119885.76
119038.11
118186.13
117348.09
116534.1
115749.53
114996.86
114276.91
113589.48
112933.8
112308.77
111713.14
111145.56
110604.72
110089.31
109598.06
109129.8
108683.39
108257.76
107851.92
107464.94
107095.93
106744.07
106408.59
106088.77
105783.92
105493.41
105216.63
104953.01
104702.02
104463.14
104235.88
104019.8
103814.46
103619.43
103434.34
103258.79
103092.44
102934.93
102785.94
102645.16
102512.27
102387
102269.06
102158.19
102054.13
101956.63
101865.46
101780.37
101701.14
101627.54
101559.37
101496.4
101438.41
101385.17
101336.48
101292.09
101251.77
101215.27
101182.33
101152.66
101125.98
101102.02
101080.48
101060.98
101042.96
101025.77
101009.01
100992.78
100977.21
100961.16
100941.15
100913.59
100880.64
100853.57
125566.77
124949.73
124046.59
123008.47
121938.62
120880.54
119856.63
118876.08
117942.29
117055.5
116214.44
115417.09
114661.11
113944.11
113263.73
112617.72
112003.96
111420.52
110865.57
110337.46
109834.65
109355.75
108899.45
108464.56
108049.99
107654.72
107277.8
106918.38
106575.63
106248.81
105937.2
105640.14
105357.02
105087.26
104830.3
104585.62
104352.75
104131.2
103920.56
103720.39
103530.3
103349.91
103178.87
103016.82
102863.44
102718.41
102581.43
102452.21
102330.47
102215.95
102108.38
102007.53
101913.16
101825.02
101742.89
101666.55
101595.79
101530.38
101470.12
101414.77
101364.12
101317.94
101275.99
101238.02
101203.76
101172.94
101145.27
101120.48
101098.3
101078.3
101059.87
101042.31
101025.26
101009
100993.83
100978.17
100957.38
100926.84
100889.99
100863.21
103897.08
103871.08
103919.98
103968.75
104004.79
104014.91
103997.95
103968.96
103934.12
103889.94
103832.02
103760.99
103680.76
103596.13
103507.8
103415.86
103320.63
103222.61
103122.23
103019.87
102915.91
102810.7
102704.55
102597.76
102490.62
102383.36
102276.22
102169.43
102063.18
101957.67
101853.07
101749.56
101647.3
101546.43
101447.13
101349.52
101253.76
101159.99
101068.34
100978.96
100891.98
100807.54
100725.77
100646.8
100570.77
100497.8
100428.02
100361.54
100298.49
100238.97
100183.08
100130.9
100082.5
100037.93
99997.245
99960.449
99927.539
99898.483
99873.228
99851.689
99833.757
99819.287
99808.13
99800.046
99794.949
99792.257
99792.549
99793.63
99799.379
99800.957
99814.879
99810.857
99840.412
99815.431
99875.83
99815.118
99917.608
99812.399
99955.572
99801.227
103282.04
103275.79
103288.7
103303.65
103301.45
103293.03
103281.22
103262.9
103232.87
103197.19
103154.68
103107.17
103053.86
102995.92
102933.35
102866.86
102796.65
102723.09
102646.47
102567.1
102485.28
102401.31
102315.45
102227.99
102139.19
102049.31
101958.6
101867.31
101775.68
101683.93
101592.3
101501
101410.24
101320.23
101231.17
101143.24
101056.66
100971.59
100888.23
100806.75
100727.32
100650.12
100575.32
100503.07
100433.53
100366.86
100303.2
100242.69
100185.46
100131.62
100081.3
100034.56
99991.505
99952.176
99916.616
99884.839
99856.833
99832.56
99811.96
99794.94
99781.38
99771.127
99764.018
99759.816
99758.399
99759.242
99762.777
99767.091
99775.495
99780.211
99795.847
99794.886
99824.435
99804.157
99863.865
99807.649
99909.689
99805.326
99953.316
99793.44
102871.21
102854.99
102824.92
102793.38
102762.99
102734.63
102701.7
102669.57
102633.87
102597.77
102557.75
102516.49
102471.72
102424.96
102375.2
102323.01
102268.19
102210.9
102151.17
102089.11
102024.85
101958.51
101890.23
101820.18
101748.51
101675.41
101601.05
101525.64
101449.36
101372.43
101295.04
101217.41
101139.75
101062.28
100985.2
100908.73
100833.08
100758.47
100685.1
100613.17
100542.9
100474.48
100408.1
100343.96
100282.22
100223.08
100166.7
100113.24
100062.84
100015.65
99971.767
99931.305
99894.347
99860.954
99831.168
99805.001
99782.441
99763.446
99747.949
99735.852
99727.026
99721.313
99718.54
99718.47
99720.957
99725.518
99732.481
99740.137
99751.395
99759.254
99776.887
99778.689
99808.774
99792.724
99852.169
99799.904
99901.675
99798.464
99950.568
99786.198
102270.3
102247.46
102218.87
102187.26
102155.85
102127.96
102095.69
102066.38
102032.91
102001.47
101966.52
101932.38
101895.44
101858.19
101818.82
101778.19
101735.78
101691.76
101645.99
101598.48
101549.22
101498.22
101445.52
101391.18
101335.25
101277.84
101219.06
101159.01
101097.85
101035.72
100972.8
100909.25
100845.26
100781.03
100716.76
100652.66
100588.94
100525.81
100463.5
100402.22
100342.18
100283.62
100226.73
100171.72
100118.8
100068.16
100020
99974.476
99931.762
99892.003
99855.329
99821.85
99791.658
99764.822
99741.385
99721.361
99704.735
99691.464
99681.476
99674.667
99670.904
99670.024
99671.844
99676.132
99682.723
99691.168
99701.714
99712.823
99727.09
99738.128
99757.962
99762.488
99793.752
99781.471
99840.591
99791.946
99893.831
99791.824
99947.331
99779.421
101543.06
101527.52
101512.42
101494.5
101474.59
101458.91
101437.32
101420.12
101397.44
101378.09
101354.22
101332.22
101306.92
101282.17
101255.27
101227.57
101198.25
101167.64
101135.51
101101.88
101066.7
101029.97
100991.68
100951.85
100910.52
100867.72
100823.52
100778
100731.26
100683.4
100634.55
100584.85
100534.45
100483.51
100432.23
100380.79
100329.38
100278.22
100227.51
100177.48
100128.34
100080.32
100033.63
99988.492
99945.121
99903.724
99864.497
99827.63
99793.292
99761.642
99732.815
99706.932
99684.09
99664.359
99647.784
99634.38
99624.13
99616.987
99612.876
99611.69
99613.29
99617.507
99624.157
99633.007
99643.879
99656.358
99670.619
99685.282
99702.67
99716.923
99739.125
99746.51
99779.732
99770.463
99829.281
99783.884
99886.081
99785.374
99943.87
99773.064
100832.7
100827.02
100823.1
100818.3
100809.45
100805.75
100794.74
100789.62
100777.6
100770.19
100757.09
100746.83
100732.57
100719.51
100704.11
100688.22
100670.7
100652.07
100632.1
100610.8
100588.15
100564.12
100538.72
100511.92
100483.74
100454.2
100423.34
100391.18
100357.81
100323.28
100287.7
100251.16
100213.8
100175.75
100137.16
100098.19
100059.04
100019.88
99980.913
99942.35
99904.4
99867.279
99831.204
99796.393
99763.062
99731.419
99701.665
99673.991
99648.572
99625.567
99605.116
99587.342
99572.342
99560.187
99550.92
99544.552
99541.065
99540.409
99542.503
99547.235
99554.462
99564.014
99575.699
99589.29
99604.597
99621.237
99639.322
99657.623
99678.206
99695.695
99720.406
99730.785
99766.126
99759.502
99818.341
99775.839
99878.488
99779.147
99940.523
99767.131
100192.58
100193
100194.19
100197.59
100195.75
100200.56
100196.66
100200.39
100195.79
100197.4
100192.59
100192.1
100186.86
100183.01
100176.54
100170.12
100162.26
100153.64
100143.93
100133.15
100121.28
100108.25
100094.05
100078.66
100062.07
100044.27
100025.28
100005.12
99983.824
99961.445
99938.047
99913.709
99888.528
99862.615
99836.097
99809.116
99781.828
99754.398
99727.006
99699.84
99673.096
99646.976
99621.686
99597.434
99574.427
99552.867
99532.949
99514.856
99498.758
99484.812
99473.155
99463.904
99457.153
99452.967
99451.383
99452.409
99456.018
99462.157
99470.738
99481.645
99494.729
99509.816
99526.714
99545.197
99565.068
99585.973
99607.97
99629.974
99653.793
99674.528
99701.822
99715.257
99752.254
99748.55
99807.61
99767.911
99871.018
99773.176
99937.19
99761.604
99618.785
99624.045
99628.17
99636.43
99638.011
99648.302
99648.348
99657.973
99657.986