/*--------------------------------*- C++ -*----------------------------------*\
  =========                 |
  \\      /  F ield         | OpenFOAM: The Open Source CFD Toolbox
   \\    /   O peration     | Website:  https://openfoam.org
    \\  /    A nd           | Version:  12
     \\/     M anipulation  |
\*---------------------------------------------------------------------------*/
FoamFile
{
    format      ascii;
    class       volScalarField;
    location    "0.103";
    object      alphat;
}
// * * * * * * * * * * * * * * * * * * * * * * * * * * * * * * * * * * * * * //

dimensions      [1 -1 -1 0 0 0 0];

internalField   nonuniform List<scalar> 
16000
(
4.8605161e-07
1.0732029e-05
1.9485379e-05
2.5739108e-05
1.9663196e-05
2.7021251e-05
1.9111379e-05
2.6188976e-05
2.0462005e-05
2.8194831e-05
2.3768126e-05
2.7924163e-05
2.548536e-05
2.6177625e-05
2.5314412e-05
2.518976e-05
2.494751e-05
2.4897305e-05
2.4932326e-05
2.5074388e-05
2.5316025e-05
2.5656542e-05
2.6093584e-05
2.6627497e-05
2.7260942e-05
2.8000663e-05
2.885569e-05
2.9840318e-05
3.097194e-05
3.2269315e-05
3.3753039e-05
3.545041e-05
3.7396636e-05
3.963511e-05
4.2219237e-05
4.5212775e-05
4.8691733e-05
5.2746805e-05
5.7490293e-05
6.3061418e-05
6.9623711e-05
7.7369878e-05
8.6542898e-05
9.7440536e-05
0.00011041731
0.00012589843
0.00014441105
0.00016659759
0.00019324037
0.0002252931
0.00026392389
0.00031056722
0.00036697969
0.00043531832
0.00051823363
0.00061899648
0.00074165481
0.00089123429
0.0010740053
0.0011788325
0.0011796897
0.0011804308
0.0011810662
0.0011815589
0.0011819144
0.0011821327
0.0011822204
0.001182191
0.0011820613
0.0011818433
0.0011815325
0.0011810973
0.0011804504
0.0011794411
0.001178289
0.0011770259
0.0011756252
0.0011746868
0.0011730669
0.0011727931
4.4331226e-07
1.0169694e-05
2.1190819e-05
2.2999433e-05
1.7705378e-05
2.4212279e-05
1.6945462e-05
2.2923316e-05
1.8060413e-05
2.4887372e-05
2.1496557e-05
2.5153968e-05
2.3283484e-05
2.3700104e-05
2.3031307e-05
2.2852554e-05
2.2654602e-05
2.2599577e-05
2.2635656e-05
2.2766782e-05
2.2990975e-05
2.3307193e-05
2.3713741e-05
2.4211052e-05
2.4801278e-05
2.5490747e-05
2.6287328e-05
2.7203925e-05
2.8257007e-05
2.9464867e-05
3.0846693e-05
3.2427457e-05
3.4239766e-05
3.6323825e-05
3.8729631e-05
4.1517171e-05
4.4758436e-05
4.853872e-05
5.2962733e-05
5.8162397e-05
6.4295009e-05
7.1542233e-05
8.013317e-05
9.035207e-05
0.0001025399
0.00011710145
0.00013454036
0.00015547266
0.00018065034
0.00021099101
0.00024761907
0.00029191938
0.00034559035
0.00041072181
0.00048988449
0.00058625442
0.00070376783
0.00084730924
0.0010229581
0.0011782764
0.0011791433
0.0011798467
0.0011804545
0.0011809233
0.0011812581
0.001181459
0.0011815323
0.0011814904
0.0011813491
0.0011811191
0.0011807944
0.0011803449
0.0011796959
0.001178703
0.0011775734
0.0011763072
0.0011749686
0.0011738387
0.0011727469
0.0011728453
3.8774166e-07
9.7285669e-06
2.0011944e-05
2.1033994e-05
1.5843248e-05
2.1300634e-05
1.5076198e-05
1.9908503e-05
1.6227293e-05
2.1822872e-05
1.9586225e-05
2.238533e-05
2.1077398e-05
2.1213188e-05
2.0702972e-05
2.05011e-05
2.0337447e-05
2.0287711e-05
2.0326543e-05
2.0451172e-05
2.0661087e-05
2.0955631e-05
2.1333428e-05
2.179517e-05
2.2342602e-05
2.2981824e-05
2.3719886e-05
2.4568497e-05
2.5543012e-05
2.6661255e-05
2.7941458e-05
2.9406745e-05
3.1087569e-05
3.3021381e-05
3.5255154e-05
3.7845403e-05
4.0860557e-05
4.4381675e-05
4.8507077e-05
5.336137e-05
5.9096722e-05
6.5886265e-05
7.3947163e-05
8.3550957e-05
9.5027739e-05
0.00010876567
0.00012524855
0.00014507008
0.00016895684
0.00019779692
0.00023267831
0.00027494456
0.00032624547
0.00038861516
0.00046455823
0.00055717113
0.00067029526
0.000808702
0.00097832139
0.0011779091
0.0011787726
0.0011794207
0.0011799807
0.0011804067
0.0011807031
0.0011808699
0.0011809127
0.0011808433
0.0011806767
0.0011804225
0.001180073
0.001179596
0.0011789261
0.0011779395
0.0011768347
0.0011755899
0.0011742751
0.0011730962
0.0011722119
0.0011723108
3.5054294e-07
9.3954411e-06
1.897498e-05
1.9549369e-05
1.4231785e-05
1.8796012e-05
1.3425582e-05
1.7390035e-05
1.4596903e-05
1.922866e-05
1.7868246e-05
1.9939688e-05
1.9046639e-05
1.8978313e-05
1.8586017e-05
1.8383004e-05
1.8249427e-05
1.8210382e-05
1.825492e-05
1.8376911e-05
1.8576484e-05
1.8853445e-05
1.9206768e-05
1.9637539e-05
2.0147236e-05
2.0741889e-05
2.1428009e-05
2.2216362e-05
2.3121259e-05
2.4160143e-05
2.5350624e-05
2.6714265e-05
2.8279779e-05
3.0082268e-05
3.216616e-05
3.4584998e-05
3.7404153e-05
4.0701387e-05
4.4569973e-05
4.9127731e-05
5.4522925e-05
6.0922273e-05
6.8533397e-05
7.7616593e-05
8.8494201e-05
0.00010154168
0.00011722724
0.00013612742
0.0001589494
0.0001865599
0.00022001961
0.00026064225
0.00031004249
0.00037021537
0.00044361987
0.00053329771
0.00064302479
0.00077749663
0.00094255048
0.0011454283
0.0011786057
0.0011791825
0.0011796772
0.0011800442
0.0011802868
0.0011804045
0.0011804022
0.0011802908
0.0011800841
0.0011797914
0.001179404
0.0011788872
0.0011781838
0.0011771931
0.0011761172
0.0011748985
0.001173591
0.0011724045
0.0011717738
0.0011714751
3.2078511e-07
9.1490922e-06
1.8070991e-05
1.9524674e-05
1.4198818e-05
1.6615911e-05
1.1978198e-05
1.5232177e-05
1.3196796e-05
1.6993344e-05
1.6342823e-05
1.7739845e-05
1.7156869e-05
1.6950904e-05
1.6645984e-05
1.6456931e-05
1.6348219e-05
1.6320528e-05
1.6369505e-05
1.6488243e-05
1.6677119e-05
1.6936592e-05
1.7266041e-05
1.7667064e-05
1.8141027e-05
1.8693973e-05
1.9332032e-05
2.0065223e-05
2.0906827e-05
2.1873867e-05
2.2983545e-05
2.4256131e-05
2.5718908e-05
2.7404957e-05
2.9356528e-05
3.162459e-05
3.4271797e-05
3.737326e-05
4.1018492e-05
4.5318876e-05
5.0419425e-05
5.6482095e-05
6.3707121e-05
7.2344278e-05
8.2710131e-05
9.5170364e-05
0.00011018043
0.00012830296
0.00015022925
0.00017680973
0.00020908294
0.00024833931
0.00029616551
0.00035452602
0.00042584453
0.00051312012
0.00062007718
0.00075135079
0.00091270473
0.0011112812
0.0011786238
0.0011791145
0.0011795269
0.001179819
0.0011799927
0.0011800471
0.0011799862
0.0011798195
0.0011795597
0.0011792153
0.0011787776
0.0011782094
0.0011774599
0.0011764724
0.0011754283
0.0011742385
0.0011729394
0.0011717623
0.0011712339
0.0011707429
2.9071459e-07
8.997568e-06
1.7350186e-05
1.9253603e-05
1.394436e-05
1.4712466e-05
1.1337563e-05
1.3452224e-05
1.2274175e-05
1.5116926e-05
1.5012825e-05
1.5814218e-05
1.5437817e-05
1.5150431e-05
1.4900357e-05
1.4727255e-05
1.4634321e-05
1.4613414e-05
1.4662892e-05
1.4776036e-05
1.4953194e-05
1.5195378e-05
1.5502202e-05
1.5875662e-05
1.6317125e-05
1.68326e-05
1.7427905e-05
1.8112484e-05
1.8898618e-05
1.9802881e-05
2.0842263e-05
2.2035997e-05
2.3410242e-05
2.4996412e-05
2.6834989e-05
2.8974824e-05
3.1476294e-05
3.441243e-05
3.7870379e-05
4.1956007e-05
4.6811393e-05
5.2595464e-05
5.9503796e-05
6.7776687e-05
7.7727081e-05
8.971431e-05
0.00010418447
0.00012169043
0.0001429118
0.00016868909
0.00020004536
0.00023825604
0.00028488944
0.00034189068
0.00041166234
0.00049717745
0.00060212836
0.0007311121
0.0008898487
0.001085421
0.0011788148
0.0011792053
0.0011795201
0.0011797229
0.0011798143
0.0011797927
0.0011796609
0.0011794272
0.0011791029
0.001178695
0.0011781949
0.0011775654
0.0011767556
0.0011757863
0.001174777
0.0011736197
0.0011723371
0.0011711816
0.0011706508
0.0011700852
2.598841e-07
8.9127544e-06
1.6787992e-05
1.8196062e-05
1.382151e-05
1.2995012e-05
1.13716e-05
1.2399604e-05
1.1779657e-05
1.3489873e-05
1.3822345e-05
1.4117298e-05
1.3847953e-05
1.3524527e-05
1.3305178e-05
1.3148083e-05
1.3066658e-05
1.3051325e-05
1.3101033e-05
1.3209614e-05
1.3377031e-05
1.3604762e-05
1.3892423e-05
1.4158336e-05
1.4561762e-05
1.5036205e-05
1.5586701e-05
1.6221903e-05
1.69529e-05
1.7795452e-05
1.8766303e-05
1.9883681e-05
2.1172716e-05
2.2663231e-05
2.4394072e-05
2.6412158e-05
2.8775735e-05
3.1555796e-05
3.4837983e-05
3.9016116e-05
4.3673801e-05
4.9234675e-05
5.5892435e-05
6.38793e-05
7.3505833e-05
8.5128368e-05
9.9186948e-05
0.0001162285
0.00013692454
0.00016211162
0.00019280323
0.00023026741
0.00027606271
0.0003321249
0.00040084776
0.00048519316
0.00058883849
0.00071636199
0.0008734636
0.0010672003
0.001179161
0.0011794386
0.0011796424
0.0011797433
0.0011797402
0.0011796314
0.0011794182
0.0011791075
0.0011787091
0.0011782282
0.0011776553
0.0011769571
0.0011760763
0.001175146
0.0011741738
0.0011730548
0.001171797
0.0011706642
0.0011701279
0.0011695093
2.3750892e-07
8.8636432e-06
1.6309561e-05
1.6541202e-05
1.2621081e-05
1.1323733e-05
9.8007056e-06
1.1059816e-05
1.0323311e-05
1.2130058e-05
1.2624814e-05
1.2560127e-05
1.2332887e-05
1.2017478e-05
1.182344e-05
1.1687349e-05
1.1620193e-05
1.1613711e-05
1.1595931e-05
1.1685994e-05
1.1834858e-05
1.2042972e-05
1.2308375e-05
1.2631377e-05
1.3016906e-05
1.3468617e-05
1.3991809e-05
1.4595065e-05
1.5288871e-05
1.6088523e-05
1.7010991e-05
1.8073975e-05
1.9302127e-05
2.0724276e-05
2.2378329e-05
2.4310003e-05
2.657629e-05
2.9246959e-05
3.240718e-05
3.6160708e-05
4.0634093e-05
4.5987613e-05
5.2415184e-05
6.0649903e-05
7.0045437e-05
8.1413144e-05
9.5190733e-05
0.00011192292
0.00013227686
0.00015709155
0.00018737719
0.00022440244
0.00026972554
0.00032528358
0.00039347477
0.00047726591
0.00058033816
0.00070727241
0.0008637733
0.0010569064
0.0011796415
0.0011797954
0.0011798772
0.0011798653
0.0011797579
0.0011795523
0.0011792489
0.0011788531
0.001178373
0.0011778118
0.0011771578
0.001176386
0.0011754547
0.0011745599
0.0011736276
0.0011725555
0.0011713335
0.001170214
0.0011696485
0.0011689821
2.187038e-07
8.8150073e-06
1.5815801e-05
1.4477885e-05
1.0371766e-05
1.0066116e-05
8.0820806e-06
9.4355205e-06
9.6317806e-06
1.0910425e-05
1.141262e-05
1.1114317e-05
1.0907098e-05
1.0625124e-05
1.0456855e-05
1.0271714e-05
1.0193632e-05
1.0181511e-05
1.0228299e-05
1.033083e-05
1.0484758e-05
1.0692553e-05
1.095293e-05
1.1266304e-05
1.1637517e-05
1.2071189e-05
1.2572674e-05
1.31506e-05
1.3815047e-05
1.4580827e-05
1.5465254e-05
1.6485758e-05
1.766684e-05
1.9036655e-05
2.0632554e-05
2.2499563e-05
2.4693952e-05
2.7284869e-05
3.0356876e-05
3.4012923e-05
3.838006e-05
4.3616407e-05
4.9919181e-05
5.7517238e-05
6.6704038e-05
7.784484e-05
9.2185982e-05
0.00010876341
0.00012895833
0.00015361826
0.00018375688
0.00022065162
0.00026587006
0.00032136166
0.0003895426
0.00047340128
0.0005766423
0.00070387155
0.00086082331
0.0010546052
0.0011802326
0.001180254
0.0011802052
0.0011800723
0.0011798526
0.0011795429
0.0011791426
0.0011786551
0.0011780871
0.0011774405
0.0011767004
0.0011758471
0.0011748987
0.0011740372
0.0011731474
0.001172132
0.0011709592
0.001169844
0.0011692311
0.001168469
2.0047542e-07
8.7701661e-06
1.41654e-05
1.2610485e-05
8.3875823e-06
8.9518356e-06
7.1997712e-06
8.516841e-06
8.920919e-06
9.7639836e-06
1.0215755e-05
9.7992412e-06
9.5987045e-06
9.2649625e-06
9.0859055e-06
8.9757626e-06
8.9320392e-06
8.9455637e-06
9.0095584e-06
9.123642e-06
9.284167e-06
9.4919041e-06
9.7488027e-06
1.0055089e-05
1.0415858e-05
1.0836162e-05
1.1321523e-05
1.1880752e-05
1.2523683e-05
1.3264684e-05
1.412148e-05
1.5111575e-05
1.6259582e-05
1.7593287e-05
1.9149855e-05
2.0974075e-05
2.3121996e-05
2.5662747e-05
2.868133e-05
3.2281271e-05
3.6589847e-05
4.1764883e-05
4.8007383e-05
5.5546531e-05
6.4678696e-05
7.577184e-05
8.9279932e-05
0.00010573632
0.00012696847
0.00015169409
0.00018194901
0.00021902752
0.00026451703
0.00032039111
0.0003890983
0.00047366642
0.00057784468
0.00070628893
0.00086479009
0.0010605308
0.0011809081
0.0011807908
0.0011806057
0.001180346
0.0011800084
0.0011795894
0.0011790872
0.0011785034
0.0011778424
0.001177106
0.0011762796
0.0011753387
0.0011744156
0.0011735861
0.0011727407
0.0011717912
0.0011706813
0.0011695631
0.0011688885
0.0011681391
1.85095e-07
8.7234703e-06
1.1255128e-05
1.0452738e-05
6.8961032e-06
7.9746802e-06
6.5671164e-06
7.6574774e-06
8.3519009e-06
8.7259849e-06
9.0438437e-06
8.5128543e-06
8.2612949e-06
8.031397e-06
7.9009722e-06
7.8308764e-06
7.8158882e-06
7.8521352e-06
7.9324669e-06
8.0564382e-06
8.2222476e-06
8.4320321e-06
8.6877777e-06
8.9902411e-06
9.3446148e-06
9.7564343e-06
1.0231521e-05
1.0778936e-05
1.1408488e-05
1.2134188e-05
1.2907485e-05
1.3868308e-05
1.4985136e-05
1.6285371e-05
1.7805982e-05
1.9591557e-05
2.169801e-05
2.4194513e-05
2.716665e-05
3.0718843e-05
3.497976e-05
4.0423657e-05
4.6671256e-05
5.4230241e-05
6.3400078e-05
7.4552856e-05
8.8155737e-05
0.00010475503
0.00012504025
0.00014987183
0.00018195563
0.00021953827
0.00026568294
0.00032239973
0.00039218483
0.0004781247
0.00058403605
0.00071465229
0.00087585129
0.0010749237
0.0011816405
0.0011813806
0.0011810566
0.0011806669
0.0011802081
0.0011796768
0.0011790699
0.0011783868
0.0011776293
0.0011767988
0.00117589
0.0011748846
0.0011740099
0.0011732135
0.0011724139
0.0011715357
0.001170501
0.0011693851
0.0011686494
0.0011680496
1.7146861e-07
8.6797989e-06
8.8867015e-06
8.9123486e-06
6.0773494e-06
7.0691799e-06
6.0359095e-06
6.9098686e-06
7.7739983e-06
7.7589517e-06
7.7726107e-06
7.3211051e-06
7.116709e-06
6.9494952e-06
6.8604194e-06
6.8238451e-06
6.8349947e-06
6.8894607e-06
6.9839398e-06
7.1182958e-06
7.2911885e-06
7.5047886e-06
7.7620848e-06
8.064336e-06
8.4168354e-06
8.7873867e-06
9.2504586e-06
9.7852733e-06
1.0401511e-05
1.1112726e-05
1.1935244e-05
1.2890307e-05
1.4001893e-05
1.5297546e-05
1.6814672e-05
1.8598426e-05
2.070553e-05
2.3206212e-05
2.6187939e-05
2.9757533e-05
3.4046924e-05
3.922105e-05
4.5482097e-05
5.3072611e-05
6.2297419e-05
7.4175041e-05
8.8003905e-05
0.00010490073
0.00012556793
0.00015089325
0.00018196266
0.0002221901
0.00026938371
0.00032741643
0.00039884824
0.00048684516
0.00059531627
0.00072910329
0.00089420664
0.0010980581
0.0011824017
0.001181998
0.0011815351
0.0011810149
0.0011804341
0.0011797892
0.0011790766
0.0011782932
0.0011774379
0.0011765116
0.0011755209
0.0011745181
0.001173685
0.0011729247
0.0011721718
0.0011713647
0.0011704126
0.0011693217
0.0011685401
0.0011680448
1.593578e-07
8.6285843e-06
7.0763951e-06
7.8297355e-06
5.4220547e-06
6.2632138e-06
5.5819448e-06
6.2490083e-06
7.0854567e-06
6.659515e-06
6.6263365e-06
6.2798424e-06
6.1188696e-06
6.002365e-06
5.9487673e-06
5.9410111e-06
5.9746625e-06
6.047312e-06
6.1559365e-06
6.3012802e-06
6.4827952e-06
6.702814e-06
6.9351575e-06
7.2345153e-06
7.5838547e-06
7.9880515e-06
8.4552594e-06
8.9942159e-06
9.6148673e-06
1.0331032e-05
1.1159248e-05
1.2120559e-05
1.3240417e-05
1.4546847e-05
1.6077981e-05
1.7879959e-05
2.0010923e-05
2.2542742e-05
2.5565572e-05
2.9189811e-05
3.3550893e-05
3.8817679e-05
4.5202972e-05
5.295571e-05
6.2390587e-05
7.3899283e-05
8.7968766e-05
0.00010518822
0.00012739618
0.00015344008
0.0001854117
0.00022469998
0.00027562474
0.00033545915
0.00040912264
0.00049988373
0.00061177116
0.00074976818
0.00092004083
0.0011301992
0.0011831642
0.0011826178
0.0011820187
0.00118137
0.0011806687
0.0011799111
0.0011790932
0.0011782103
0.0011772588
0.0011762421
0.0011751683
0.0011742332
0.0011734427
0.0011727219
0.0011720171
0.0011712756
0.001170403
0.001169369
0.0011685924
0.0011681813
1.4862856e-07
8.5674753e-06
5.6834086e-06
6.8500209e-06
4.8397923e-06
5.5473328e-06
5.1975371e-06
5.5757165e-06
6.2168124e-06
5.7058298e-06
5.6211806e-06
5.3695929e-06
5.2495548e-06
5.1754895e-06
5.153497e-06
5.1719186e-06
5.2269179e-06
5.3171333e-06
5.4404893e-06
5.577046e-06
5.7626196e-06
5.9867077e-06
6.2520309e-06
6.5620936e-06
6.9218891e-06
7.3367312e-06
7.8147052e-06
8.3652841e-06
8.998692e-06
9.7289693e-06
1.0572838e-05
1.1551658e-05
1.2633916e-05
1.3952272e-05
1.549847e-05
1.7319604e-05
1.9475477e-05
2.2039665e-05
2.5105075e-05
2.8786277e-05
3.3223383e-05
3.8883651e-05
4.5453921e-05
5.3442484e-05
6.3175208e-05
7.5055417e-05
8.9593878e-05
0.00010740639
0.0001292478
0.00015748841
0.00019063643
0.00023138934
0.00028152173
0.00034652379
0.00042301745
0.00051726759
0.00063345381
0.00077673529
0.00095349435
0.0011715696
0.0011839016
0.0011832163
0.0011824862
0.0011817132
0.001180895
0.0011800274
0.0011791063
0.0011781266
0.0011770822
0.0011759872
0.001174904
0.0011740274
0.0011732818
0.0011726041
0.0011719502
0.0011712662
0.0011704592
0.0011695123
0.0011688127
0.001168455
1.391335e-07
8.4443224e-06
4.6220756e-06
5.9794845e-06
4.3210251e-06
4.911521e-06
4.8635313e-06
4.8419104e-06
5.3398043e-06
4.8555838e-06
4.7502831e-06
4.5770708e-06
4.4961435e-06
4.4589455e-06
4.4658866e-06
4.5087378e-06
4.5844075e-06
4.6735837e-06
4.8063028e-06
4.9733382e-06
5.1758332e-06
5.4156644e-06
5.6963242e-06
6.0215426e-06
6.3969633e-06
6.8282057e-06
7.3234487e-06
7.868805e-06
8.5159716e-06
9.2611357e-06
1.0121111e-05
1.1117332e-05
1.2276013e-05
1.3630106e-05
1.5218931e-05
1.7091215e-05
1.9309574e-05
2.1950476e-05
2.5110666e-05
2.8910688e-05
3.3497281e-05
3.9055449e-05
4.5809047e-05
5.4033981e-05
6.4070428e-05
7.6978251e-05
9.2111552e-05
0.0001106662
0.00013343478
0.00016139588
0.0001975954
0.00024014214
0.00029249963
0.00035695091
0.00044049772
0.00053897176
0.00066035562
0.00081002046
0.00099461801
0.0011853863
0.0011845896
0.0011837724
0.0011829184
0.0011820273
0.0011810975
0.0011801248
0.0011791039
0.0011780316
0.0011769042
0.0011757316
0.0011747226
0.0011739005
0.0011731992
0.0011725678
0.0011719686
0.001171336
0.0011705735
0.0011697257
0.0011691817
0.0011688457
1.3078984e-07
8.11471e-06
3.8935844e-06
5.2080258e-06
3.860344e-06
4.349337e-06
4.3308748e-06
4.1781351e-06
4.4940325e-06
4.1041265e-06
4.004297e-06
3.8937764e-06
3.8497357e-06
3.8453099e-06
3.8789889e-06
3.9303462e-06
4.0192249e-06
4.1411497e-06
4.2954284e-06
4.4825053e-06
4.7042087e-06
4.9629877e-06
5.2628076e-06
5.6077201e-06
5.9900648e-06
6.4387398e-06
6.9521549e-06
7.5397868e-06
8.2135505e-06
8.9876393e-06
9.8793414e-06
1.0911012e-05
1.2110002e-05
1.351059e-05
1.5154903e-05
1.7093556e-05
1.9392649e-05
2.2132401e-05
2.5413714e-05
2.9364526e-05
3.413769e-05
3.9927823e-05
4.6973711e-05
5.5564014e-05
6.6058576e-05
7.8899197e-05
9.5470428e-05
0.00011491573
0.00013878664
0.00016812228
0.00020417535
0.00025088035
0.00030585361
0.00037354258
0.00045690075
0.00056488752
0.00069236828
0.00084952247
0.0010433169
0.0011861209
0.0011852072
0.0011842683
0.0011832991
0.0011822977
0.001181263
0.0011801919
0.0011790776
0.0011779161
0.0011767231
0.001175552
0.001174619
0.0011738494
0.0011731915
0.0011726079
0.0011720664
0.0011714835
0.0011707511
0.0011699878
0.0011696072
0.0011693422
1.236826e-07
7.7024671e-06
3.4336087e-06
4.5243311e-06
3.4519159e-06
3.6898054e-06
3.8614056e-06
3.5699757e-06
3.7286454e-06
3.4516186e-06
3.3734268e-06
3.3126562e-06
3.3024027e-06
3.3275746e-06
3.3690728e-06
3.4523469e-06
3.5674514e-06
3.7132367e-06
3.8899853e-06
4.0989342e-06
4.3425092e-06
4.6234617e-06
4.9365665e-06
5.3020324e-06
5.7189492e-06
6.1939791e-06
6.7351282e-06
7.3522251e-06
8.0574462e-06
8.8659147e-06
9.7955031e-06
1.0869568e-05
1.2116761e-05
1.3573154e-05
1.5217859e-05
1.7219333e-05
1.9595007e-05
2.2429458e-05
2.5983795e-05
3.0114879e-05
3.5111134e-05
4.1176758e-05
4.8566816e-05
5.7585899e-05
6.8612697e-05
8.2116296e-05
9.8672536e-05
0.00011898857
0.00014521972
0.00017613174
0.00021413694
0.00026088692
0.00032143458
0.00039281912
0.00048073551
0.00059478553
0.00072923655
0.00089496702
0.0010992983
0.0011867637
0.0011857399
0.0011846904
0.0011836161
0.0011825136
0.0011813814
0.0011802186
0.0011790211
0.0011777817
0.0011765211
0.0011754569
0.0011745891
0.0011738698
0.0011732544
0.001172719
0.0011722341
0.0011717002
0.001171003
0.0011703284
0.001170115
0.0011700314
1.1810013e-07
6.656151e-06
3.0423706e-06
3.9040904e-06
3.1003303e-06
3.0804649e-06
3.3937667e-06
3.0192662e-06
3.0711123e-06
2.8943891e-06
2.8454898e-06
2.8253916e-06
2.8374635e-06
2.8817396e-06
2.9617205e-06
3.0730632e-06
3.213808e-06
3.3838995e-06
3.5844337e-06
3.8171189e-06
4.0787697e-06
4.3823117e-06
4.7278845e-06
5.1202455e-06
5.5650744e-06
6.0692608e-06
6.6411855e-06
7.2910725e-06
8.0315006e-06
8.8586294e-06
9.8242887e-06
1.0938168e-05
1.2230154e-05
1.3737691e-05
1.5507612e-05
1.7598467e-05
2.0082641e-05
2.3050751e-05
2.6615236e-05
3.0915021e-05
3.6122635e-05
4.2756484e-05
5.0536786e-05
6.0041964e-05
7.1670847e-05
8.5919476e-05
0.00010339828
0.00012485909
0.00015261495
0.00018528632
0.00022546819
0.00027490363
0.0003390094
0.00041450619
0.00050750216
0.00062208171
0.00077050833
0.00094583981
0.001161985
0.0011873047
0.0011861786
0.0011850301
0.0011838613
0.0011826681
0.0011814475
0.0011801988
0.0011789251
0.0011776389
0.0011764065
0.0011754291
0.0011746262
0.0011739553
0.0011733825
0.0011728948
0.0011724616
0.0011719737
0.0011713247
0.001170751
0.0011706899
0.0011706797
1.1360697e-07
4.6806798e-06
2.6884889e-06
3.3292919e-06
2.652264e-06
2.5699965e-06
2.9007406e-06
2.5288037e-06
2.5236144e-06
2.4253073e-06
2.4093801e-06
2.4167311e-06
2.4597562e-06
2.5382373e-06
2.647819e-06
2.786006e-06
2.9521471e-06
3.1469131e-06
3.3687266e-06
3.6247355e-06
3.9161346e-06
4.2462668e-06
4.6191955e-06
5.0398623e-06
5.5142279e-06
6.0494784e-06
6.6543403e-06
7.3283266e-06
8.1024966e-06
8.9853904e-06
9.9972391e-06
1.1163171e-05
1.2514861e-05
1.4092083e-05
1.5944697e-05
1.8134839e-05
2.0739728e-05
2.3855435e-05
2.7601482e-05
3.2126178e-05
3.7613306e-05
4.4289493e-05
5.2825268e-05
6.2864128e-05
7.5153777e-05
9.0219257e-05
0.00010870722
0.00013141555
0.00015932848
0.00019539688
0.0002379441
0.00029030005
0.00035475448
0.00043820541
0.00053671918
0.00065810874
0.00081548682
0.0010013187
0.0011889648
0.0011877397
0.0011865205
0.0011852844
0.0011840312
0.0011827579
0.0011814602
0.0011801358
0.001178792
0.0011774656
0.0011763651
0.0011754623
0.00117472
0.0011740967
0.0011735681
0.0011731272
0.0011727389
0.0011722909
0.0011716987
0.0011712195
0.0011712669
0.0011713869
1.0888051e-07
3.8897322e-06
2.3187911e-06
2.799545e-06
2.2871659e-06
2.1436394e-06
2.3901578e-06
2.0982066e-06
2.0785353e-06
2.0404214e-06
2.0533033e-06
2.0951174e-06
2.174119e-06
2.2833614e-06
2.420253e-06
2.5838649e-06
2.7745253e-06
2.9912224e-06
3.2396316e-06
3.521043e-06
3.8384172e-06
4.1953435e-06
4.5961178e-06
5.0458749e-06
5.5507869e-06
6.1183101e-06
6.7499276e-06
7.4686225e-06
8.2829577e-06
9.2099075e-06
1.0270829e-05
1.1492382e-05
1.2908098e-05
1.4560127e-05
1.6501515e-05
1.8798662e-05
2.153399e-05
2.4809628e-05
2.8752583e-05
3.3519817e-05
3.9306169e-05
4.6688149e-05
5.5363134e-05
6.5971277e-05
7.896539e-05
9.4900909e-05
0.00011446233
0.000138494
0.00016959446
0.00020621742
0.00025126587
0.00030670981
0.00037497581
0.0004633755
0.00056773698
0.00069635482
0.00086318627
0.0010602074
0.0011893655
0.0011880687
0.0011867684
0.0011854562
0.0011841286
0.0011827841
0.0011814202
0.0011800346
0.0011786476
0.0011773907
0.0011763765
0.0011755451
0.0011748586
0.0011742825
0.0011738002
0.0011734058
0.0011730563
0.0011726419
0.0011721113
0.001171738
0.0011718711
0.0011720167
1.057087e-07
3.1337304e-06
1.9998269e-06
2.2629277e-06
1.987943e-06
1.7788387e-06
1.9154124e-06
1.7330557e-06
1.7291498e-06
1.739491e-06
1.7823317e-06
1.8620187e-06
1.9719171e-06
2.108081e-06
2.2694871e-06
2.4564012e-06
2.6687126e-06
2.9101342e-06
3.1824845e-06
3.4884737e-06
3.8313476e-06
4.2149063e-06
4.6436076e-06
5.1227334e-06
5.6586239e-06
6.2546484e-06
6.9266592e-06
7.6833876e-06
8.5390341e-06
9.5114232e-06
1.0623185e-05
1.1902591e-05
1.3385227e-05
1.5115761e-05
1.7150358e-05
1.955963e-05
2.2431824e-05
2.5875233e-05
3.0025066e-05
3.5047742e-05
4.1420353e-05
4.8915736e-05
5.8068253e-05
6.9267385e-05
8.2990684e-05
9.9826467e-05
0.00012049849
0.00014589995
0.00017872841
0.00021743516
0.00026505697
0.00032367633
0.00039586567
0.00048930433
0.00059969175
0.00073577191
0.00091230418
0.0011209117
0.0011896619
0.0011882991
0.0011869299
0.0011855529
0.0011841619
0.0011827547
0.0011813336
0.0011799076
0.0011785138
0.0011773749
0.0011764351
0.0011756655
0.0011750293
0.0011744991
0.0011740646
0.0011737164
0.0011734012
0.001173016
0.0011725494
0.0011722854
0.001172492
0.0011726348
1.0440476e-07
2.4720953e-06
1.7241707e-06
1.7475041e-06
1.7121323e-06
1.4666786e-06
1.5277778e-06
1.4422175e-06
1.4691373e-06
1.5143345e-06
1.5957901e-06
1.7059439e-06
1.841293e-06
2.0002647e-06
2.1831346e-06
2.3910628e-06
2.6249893e-06
2.8884566e-06
3.1835697e-06
3.5133018e-06
3.88107e-06
4.2908159e-06
4.7471216e-06
5.2553891e-06
5.8220895e-06
6.4551013e-06
7.1641491e-06
7.9613303e-06
8.8515268e-06
9.8697982e-06
1.1033014e-05
1.2371157e-05
1.3922008e-05
1.573298e-05
1.7863403e-05
2.0470632e-05
2.3505167e-05
2.7146687e-05
3.1539312e-05
3.686077e-05
4.3329898e-05
5.1215749e-05
6.0850671e-05
7.2643728e-05
8.7098728e-05
0.00010483664
0.00012662152
0.00015473509
0.00018789766
0.00022868071
0.00027886344
0.00034064292
0.00042067948
0.00051512377
0.00063152054
0.00077506183
0.00096121701
0.001181443
0.0011898699
0.0011884464
0.0011870172
0.0011855849
0.0011841426
0.0011826849
0.0011812119
0.0011797543
0.001178463
0.0011774035
0.0011765305
0.0011758126
0.0011752202
0.0011747333
0.0011743457
0.0011740424
0.0011737609
0.0011734097
0.0011730141
0.0011728528
0.00117311
0.0011732319
1.0602121e-07
1.9051262e-06
1.4944195e-06
1.3524048e-06
1.4312264e-06
1.2048993e-06
1.2441022e-06
1.2293057e-06
1.2889123e-06
1.3684239e-06
1.4784252e-06
1.6120346e-06
1.7679143e-06
1.9461711e-06
2.1480058e-06
2.3751501e-06
2.6293507e-06
2.9136466e-06
3.2305593e-06
3.5831954e-06
3.9750743e-06
4.4102317e-06
4.8933521e-06
5.4299592e-06
6.0266785e-06
6.6915917e-06
7.43471e-06
8.268565e-06
9.2089426e-06
1.0275812e-05
1.1494416e-05
1.2896724e-05
1.4523008e-05
1.6423891e-05
1.866272e-05
2.1318483e-05
2.4489418e-05
2.8297695e-05
3.2894417e-05
3.8466541e-05
4.524488e-05
5.3513238e-05
6.3618554e-05
7.599051e-05
9.1156763e-05
0.00011067644
0.00013370534
0.00016199558
0.00019677227
0.00023954824
0.00029218956
0.00036035279
0.00044077175
0.00053985493
0.00066201479
0.00082062191
0.0010080337
0.0011915088
0.0011900092
0.0011885317
0.0011870501
0.0011855671
0.0011840801
0.0011825884
0.0011810961
0.0011796433
0.0011784587
0.0011774692
0.0011766526
0.001175978
0.001175423
0.0011749751
0.0011746298
0.0011743663
0.0011741183
0.0011738105
0.0011734959
0.0011734271
0.0011737146
0.0011738134
1.1171221e-07
1.4396517e-06
1.3080461e-06
1.0639389e-06
1.2774468e-06
9.8740001e-07
1.0516126e-06
1.0885835e-06
1.1750619e-06
1.2821794e-06
1.4131748e-06
1.5649607e-06
1.7378976e-06
1.9331014e-06
2.1522693e-06
2.3973977e-06
2.6707606e-06
2.9747126e-06
3.3123507e-06
3.6867495e-06
4.1015038e-06
4.560735e-06
5.0692321e-06
5.6326509e-06
6.257787e-06
6.9529448e-06
7.728434e-06
8.5972465e-06
9.5757992e-06
1.0684951e-05
1.1951097e-05
1.3407746e-05
1.5097147e-05
1.7072438e-05
1.9400115e-05
2.2163118e-05
2.5464487e-05
2.9431883e-05
3.42231e-05
4.003287e-05
4.7422937e-05
5.6115963e-05
6.673886e-05
7.9741959e-05
9.5678506e-05
0.00011522967
0.00013923484
0.00016872874
0.0002049838
0.00025191004
0.0003071995
0.00037525254
0.00045906877
0.00056236794
0.00069649694
0.00085489351
0.0010504892
0.0011916271
0.001190094
0.0011885758
0.0011870535
0.0011855268
0.0011839944
0.0011824615
0.0011809552
0.0011795988
0.0011784859
0.0011775598
0.0011767923
0.0011761561
0.0011756338
0.0011752198
0.0011749095
0.0011746757
0.0011744562
0.0011741972
0.0011739724
0.0011739945
0.0011742975
0.0011743502
1.2212728e-07
1.1413175e-06
1.1476624e-06
9.2362656e-07
9.3536055e-07
8.6377449e-07
9.2505121e-07
1.0040023e-06
1.1112565e-06
1.2379073e-06
1.3847414e-06
1.5515273e-06
1.7394649e-06
1.9500687e-06
2.185188e-06
2.4468893e-06
2.7374837e-06
3.0595472e-06
3.4159664e-06
3.8099929e-06
4.2453216e-06
4.7261964e-06
5.25756e-06
5.845265e-06
6.4963673e-06
7.216927e-06
8.0214039e-06
8.9215895e-06
9.9434509e-06
1.1094727e-05
1.2409149e-05
1.3921899e-05
1.5677295e-05
1.7730992e-05
2.0152582e-05
2.3028734e-05
2.646702e-05
3.0600601e-05
3.5593933e-05
4.1649829e-05
4.9018145e-05
5.8006486e-05
6.8993198e-05
8.2441518e-05
9.8923644e-05
0.00011914305
0.000145248
0.00017597894
0.00021374037
0.00026017118
0.00031729582
0.00038762207
0.0004742568
0.00058657926
0.00071929119
0.00088311378
0.001085544
0.001191703
0.0011901406
0.0011885919
0.0011870427
0.0011854897
0.0011839306
0.0011823728
0.0011808609
0.0011795949
0.0011785383
0.001177664
0.0011769403
0.0011763418
0.0011758521
0.0011754664
0.001175185
0.0011749712
0.0011747733
0.0011745599
0.0011744156
0.0011745121
0.0011748303
0.0011748667
1.4358321e-07
1.178617e-06
9.8837351e-07
7.0498124e-07
7.6421579e-07
7.7204939e-07
8.5521509e-07
9.5693966e-07
1.0806172e-06
1.2220323e-06
1.3823087e-06
1.5623578e-06
1.763671e-06
1.9878782e-06
2.2368576e-06
2.5127034e-06
2.8177591e-06
3.1546491e-06
3.5263211e-06
3.936099e-06
4.3877564e-06
4.8856198e-06
5.434717e-06
6.0409893e-06
6.7115928e-06
7.4553098e-06
8.2830949e-06
9.2087714e-06
1.0249915e-05
1.1428907e-05
1.2774192e-05
1.4321867e-05
1.6117457e-05
1.8218149e-05
2.0695415e-05
2.3638218e-05
2.7156907e-05
3.1387938e-05
3.649967e-05
4.2699477e-05
5.0242621e-05
5.9869122e-05
7.1201017e-05
8.5066391e-05
0.00010205367
0.00012288578
0.00014845389
0.00017985699
0.00021845165
0.00026591192
0.00032431307
0.00039988244
0.00048912797
0.00059914531
0.00073489835
0.00090258312
0.0011099394
0.0011917736
0.0011901803
0.0011886011
0.0011870265
0.0011854535
0.0011838807
0.0011823191
0.0011808337
0.0011796287
0.001178616
0.0011777795
0.0011770899
0.0011765258
0.0011760726
0.0011757116
0.0011754542
0.0011752582
0.0011750827
0.0011749125
0.0011748243
0.0011749477
0.0011752514
0.0011753237
1.3692029e-07
7.8617328e-07
8.1079749e-07
6.0110854e-07
6.5792612e-07
7.1820534e-07
8.1993797e-07
9.3840372e-07
1.0751276e-06
1.2291089e-06
1.4015808e-06
1.5937386e-06
1.8071048e-06
2.0433753e-06
2.3044686e-06
2.5925354e-06
2.9099872e-06
3.2594843e-06
3.6441136e-06
4.0672587e-06
4.5327781e-06
5.0450841e-06
5.609292e-06
6.2314348e-06
6.9187691e-06
7.6801952e-06
8.526813e-06
9.472642e-06
1.054416e-05
1.175071e-05
1.3127267e-05
1.4710846e-05
1.6548067e-05
1.8697433e-05
2.1231989e-05
2.4242595e-05
2.7841873e-05
3.2169037e-05
3.7395822e-05
4.3733735e-05
5.1442946e-05
6.0843114e-05
7.2326692e-05
8.63775e-05
0.00010358998
0.00012469641
0.0001505994
0.00018401346
0.00022339742
0.0002718137
0.00033137857
0.00040471258
0.00049507102
0.00060650553
0.000744071
0.00091409077
0.0011244791
0.0011918878
0.0011902648
0.001188654
0.001187049
0.001185448
0.0011838537
0.0011822901
0.0011808695
0.0011797011
0.0011787229
0.0011779139
0.0011772457
0.0011767081
0.0011762756
0.0011759465
0.0011757059