/*--------------------------------*- C++ -*----------------------------------*\
  =========                 |
  \\      /  F ield         | OpenFOAM: The Open Source CFD Toolbox
   \\    /   O peration     | Website:  https://openfoam.org
    \\  /    A nd           | Version:  12
     \\/     M anipulation  |
\*---------------------------------------------------------------------------*/
FoamFile
{
    format      ascii;
    class       volScalarField;
    location    "0.103";
    object      k;
}
// * * * * * * * * * * * * * * * * * * * * * * * * * * * * * * * * * * * * * //

dimensions      [0 2 -2 0 0 0 0];

internalField   nonuniform List<scalar> 
16000
(
0.04885391
0.021591913
0.022357821
0.016439938
0.013960815
0.012645996
0.011862319
0.011394838
0.011077133
0.010863535
0.010705987
0.010588674
0.010497129
0.010424632
0.010366333
0.010319229
0.010280719
0.010249094
0.010223377
0.010202135
0.010184814
0.010170693
0.010159368
0.010150301
0.010143273
0.010137921
0.010134068
0.010131547
0.010130219
0.010129954
0.01013063
0.010132147
0.010134423
0.010137389
0.010140987
0.010145159
0.010149851
0.010155006
0.010160571
0.010166494
0.010172716
0.010179172
0.010185799
0.010192531
0.010199291
0.010206001
0.010212596
0.010219019
0.010225222
0.010231163
0.010236805
0.010242109
0.010247034
0.010251536
0.010255571
0.010259091
0.010262038
0.010264339
0.010265902
0.010266618
0.010266362
0.010265012
0.010262479
0.010258697
0.01025364
0.010247355
0.010239987
0.010231787
0.010223039
0.010213943
0.010204494
0.01019436
0.010182396
0.01016642
0.010149723
0.010132513
0.010114175
0.010108362
0.010084041
0.010105968
0.045770803
0.020431904
0.020924537
0.015900776
0.013618093
0.012441845
0.011700447
0.011277687
0.010976646
0.010780142
0.010632846
0.010524248
0.01043909
0.010372049
0.010318194
0.010274932
0.010239774
0.010210992
0.010187872
0.010168927
0.010153704
0.010141473
0.010131925
0.010124483
0.010118993
0.010115081
0.010112577
0.010111321
0.010111179
0.010112032
0.01011376
0.010116263
0.010119457
0.010123272
0.01012765
0.010132534
0.010137869
0.010143599
0.010149671
0.010156033
0.01016263
0.010169397
0.010176274
0.010183197
0.010190096
0.010196895
0.010203528
0.01020994
0.010216085
0.010221926
0.010227428
0.01023256
0.010237286
0.010241565
0.010245356
0.010248617
0.010251297
0.010253328
0.010254628
0.010255095
0.010254619
0.010253084
0.010250408
0.010246529
0.01024142
0.010235117
0.01022776
0.010219583
0.01021086
0.010201774
0.010192292
0.010182092
0.010170235
0.010154669
0.010138501
0.010121395
0.010104701
0.010093869
0.010082069
0.010105911
0.041194965
0.019603896
0.019607478
0.015342774
0.013268035
0.012217001
0.011532993
0.011152045
0.010873998
0.01069558
0.010559378
0.010459933
0.010381639
0.010320348
0.010271243
0.010232046
0.01020047
0.010174724
0.010154371
0.010137874
0.010124893
0.010114674
0.010107013
0.010101297
0.010097431
0.01009504
0.01009396
0.010094037
0.010095144
0.010097167
0.010099992
0.010103518
0.010107661
0.01011235
0.010117525
0.010123127
0.010129103
0.010135397
0.010141955
0.010148725
0.010155654
0.01016268
0.010169744
0.010176785
0.010183739
0.010190532
0.010197102
0.010203396
0.010209372
0.010214997
0.010220243
0.010225082
0.010229485
0.010233417
0.010236841
0.010239718
0.010242003
0.010243635
0.010244539
0.010244622
0.010243785
0.010241927
0.010238971
0.010234864
0.010229577
0.010223144
0.010215689
0.010207435
0.010198645
0.01018949
0.01017991
0.010169539
0.010157588
0.010142328
0.010126763
0.010110299
0.010094205
0.010081743
0.010075707
0.010096324
0.038414055
0.019044763
0.018465898
0.014842743
0.012950952
0.012013016
0.011379657
0.011037119
0.010779798
0.010617777
0.010492185
0.010401206
0.010329462
0.010273614
0.010229055
0.010193737
0.010165627
0.010142805
0.010125139
0.010111021
0.010100234
0.010091979
0.010086173
0.010082152
0.01007988
0.010078984
0.010079303
0.01008069
0.01008302
0.010086183
0.01009007
0.010094579
0.010099626
0.010105136
0.010111047
0.010117301
0.010123843
0.010130618
0.01013757
0.010144649
0.010151805
0.010158979
0.010166113
0.010173151
0.010180034
0.010186696
0.010193076
0.010199124
0.010204804
0.010210089
0.010214955
0.010219382
0.010223346
0.010226819
0.010229768
0.010232158
0.010233948
0.010235085
0.0102355
0.01023511
0.010233826
0.010231559
0.010228242
0.010223827
0.010218288
0.010211646
0.010204012
0.010195589
0.010186627
0.010177295
0.010167517
0.010156882
0.010144724
0.010129674
0.010114853
0.010099175
0.010083355
0.010070506
0.010069132
0.010081631
0.036011905
0.018734081
0.017483552
0.01437935
0.012655802
0.011820325
0.011235901
0.010928858
0.010691891
0.010545243
0.010430053
0.010347153
0.010281821
0.010231264
0.010191164
0.010159635
0.010134951
0.010115012
0.01010001
0.010088253
0.010079657
0.010073366
0.01006941
0.010067099
0.010066412
0.010067013
0.010068732
0.010071426
0.010074969
0.010079256
0.010084182
0.010089643
0.010095553
0.010101834
0.010108422
0.010115258
0.010122285
0.010129449
0.010136697
0.010143977
0.010151243
0.010158441
0.010165517
0.010172418
0.010179094
0.010185485
0.010191535
0.0101972
0.010202448
0.010207257
0.010211612
0.010215499
0.010218902
0.010221797
0.010224157
0.01022595
0.010227139
0.010227678
0.010227504
0.010226543
0.010224716
0.010221946
0.010218177
0.010213365
0.010207486
0.010200553
0.010192659
0.010183984
0.01017476
0.01016515
0.010155075
0.010144087
0.0101316
0.010116933
0.010102956
0.01008813
0.01007265
0.01006011
0.010061078
0.010068848
0.033284232
0.018665834
0.016751691
0.013954599
0.012384204
0.011641095
0.011103062
0.010828568
0.010611188
0.010478706
0.010373603
0.010298327
0.010239196
0.010193738
0.010157975
0.010130116
0.010108801
0.01009169
0.010079322
0.010069902
0.010063489
0.010059181
0.010057056
0.010056502
0.010057362
0.010059456
0.010062568
0.010066554
0.010071289
0.010076671
0.010082593
0.010088952
0.010095659
0.010102634
0.010109811
0.010117127
0.010124527
0.010131959
0.01013937
0.010146713
0.010153943
0.010161014
0.010167877
0.010174485
0.010180797
0.010186761
0.010192327
0.010197459
0.010202129
0.010206325
0.010210035
0.010213255
0.010215974
0.010218177
0.010219839
0.010220932
0.010221422
0.010221268
0.010220415
0.010218797
0.010216342
0.010212987
0.010208684
0.010203397
0.010197101
0.010189804
0.010181576
0.010172578
0.010163018
0.010153042
0.010142574
0.010131158
0.010118193
0.010104188
0.01009114
0.010077237
0.010062292
0.010050362
0.010051673
0.010056436
0.030418838
0.018766097
0.01623117
0.013565166
0.012133949
0.011474675
0.010980905
0.010736107
0.010537583
0.010418093
0.010322739
0.010254691
0.010201571
0.010161061
0.010129553
0.010105284
0.010087313
0.010073017
0.010063268
0.010056203
0.01005197
0.010049763
0.010049393
0.010050788
0.010053045
0.010056628
0.010061122
0.010066381
0.010072277
0.010078705
0.010085562
0.010092743
0.010100156
0.01010772
0.010115365
0.01012303
0.01013066
0.010138205
0.010145617
0.010152853
0.010159874
0.01016664
0.010173114
0.010179254
0.010185028
0.010190395
0.010195316
0.010199757
0.010203702
0.010207142
0.010210074
0.010212501
0.01021442
0.010215819
0.010216681
0.010216977
0.010216679
0.010215747
0.010214133
0.010211779
0.01020862
0.010204605
0.010199694
0.010193858
0.010187075
0.010179344
0.010170719
0.010161336
0.01015138
0.01014097
0.010130025
0.010118137
0.010104587
0.010091609
0.010079546
0.010066649
0.010052449
0.010041306
0.010042677
0.010045008
0.028493382
0.018952376
0.015808286
0.013208607
0.01190358
0.011320813
0.01086885
0.010651309
0.010470722
0.010363279
0.010277379
0.010216274
0.01016903
0.010133382
0.010106097
0.010085383
0.010070747
0.010059306
0.010052134
0.010047491
0.010045388
0.01004571
0.010046778
0.010049688
0.010053834
0.010058891
0.010064741
0.01007123
0.010078229
0.010085629
0.010093325
0.010101215
0.010109204
0.01011721
0.010125163
0.010133003
0.010140679
0.010148144
0.010155359
0.010162286
0.010168894
0.010175155
0.01018104
0.010186519
0.010191569
0.010196162
0.010200268
0.010203862
0.010206933
0.01020948
0.010211508
0.010213025
0.010214034
0.01021453
0.010214499
0.010213915
0.010212749
0.010210966
0.010208521
0.010205363
0.010201437
0.010196697
0.010191115
0.010184668
0.010177335
0.010169109
0.010160031
0.01015021
0.010139808
0.010128918
0.010117429
0.010105049
0.010091273
0.010079313
0.010068284
0.010056489
0.010043264
0.01003292
0.010033812
0.010034115
0.026724285
0.019134688
0.015314812
0.012881758
0.011691481
0.0111787
0.010766248
0.010573424
0.010410675
0.010314506
0.010237763
0.010183383
0.010141903
0.010111055
0.010087985
0.010070822
0.010059451
0.010051005
0.010046161
0.010044135
0.010043402
0.010046253
0.010049771
0.010054446
0.010060122
0.010066627
0.010073778
0.010081423
0.010089427
0.010097678
0.010106072
0.010114509
0.010122895
0.010131146
0.010139197
0.010146992
0.010154484
0.010161636
0.010168417
0.0101748
0.010180766
0.010186298
0.010191379
0.010195993
0.010200127
0.010203766
0.010206891
0.010209486
0.010211544
0.010213073
0.010214081
0.010214584
0.010214589
0.010214098
0.010213096
0.010211561
0.010209464
0.010206769
0.010203439
0.010199424
0.010194678
0.010189162
0.010182857
0.010175745
0.010167809
0.010159039
0.010149458
0.010139153
0.010128259
0.010116856
0.010104788
0.010091837
0.010078386
0.010067443
0.010057476
0.010046876
0.010034852
0.010025335
0.010025415
0.010023652
0.024967118
0.019305533
0.014651915
0.012581908
0.011497634
0.011048788
0.010673958
0.010503558
0.010358019
0.010272228
0.010204327
0.010156489
0.010120664
0.010094569
0.010075707
0.010062143
0.010053675
0.010048687
0.010045059
0.010046225
0.010049662
0.010053415
0.010058723
0.010065107
0.010072336
0.01008021
0.01008856
0.010097231
0.010106086
0.010115011
0.010123901
0.01013266
0.0101412
0.01014944
0.010157321
0.010164797
0.010171829
0.010178393
0.010184471
0.01019005
0.010195123
0.010199689
0.010203746
0.01020729
0.010210321
0.010212835
0.010214825
0.010216282
0.010217206
0.010217608
0.010217501
0.010216905
0.010215832
0.010214286
0.010212255
0.010209717
0.01020664
0.010202993
0.010198735
0.010193826
0.010188223
0.010181893
0.010174825
0.010167007
0.010158424
0.010149066
0.010138944
0.010128113
0.010116678
0.010104721
0.010092094
0.010078498
0.010066048
0.010056127
0.010047237
0.010037896
0.010027263
0.010018588
0.010017692
0.010014601
0.02348043
0.019445868
0.014117641
0.012307003
0.011322557
0.010931456
0.010592484
0.010442378
0.010312922
0.010236845
0.010177492
0.010136075
0.010105828
0.010084465
0.010069807
0.01006001
0.010052936
0.010053023
0.010053945
0.010056566
0.010060935
0.010067013
0.010074171
0.010082192
0.010090855
0.010099962
0.010109341
0.010118839
0.010128316
0.010137657
0.010146763
0.010155545
0.010163923
0.010171829
0.010179215
0.010186045
0.0101923
0.010197968
0.010203049
0.010207547
0.010211472
0.010214837
0.010217656
0.010219937
0.010221693
0.010222932
0.010223655
0.010223861
0.010223554
0.010222745
0.010221454
0.010219699
0.010217495
0.010214849
0.010211751
0.010208177
0.010204094
0.010199467
0.01019426
0.010188435
0.010181952
0.010174785
0.010166927
0.010158371
0.010149108
0.010139128
0.010128431
0.010117038
0.010105016
0.010092447
0.010079323
0.010065432
0.010054355
0.010045485
0.010037675
0.010029614
0.010020509
0.010012747
0.01001095
0.010007953
0.022128099
0.019573645
0.013655969
0.012057306
0.011166165
0.010826332
0.010521614
0.010389598
0.010275725
0.010208832
0.010157759
0.010122696
0.010097981
0.010081367
0.010070889
0.010065259
0.010063582
0.01006411
0.010067455
0.010072815
0.010079679
0.010087664
0.010096553
0.010106067
0.010115982
0.010126097
0.010136245
0.010146271
0.010156042
0.010165449
0.010174399
0.010182819
0.010190646
0.01019783
0.01020434
0.01021016
0.01021529
0.010219738
0.010223524
0.010226669
0.010229201
0.010231149
0.010232539
0.010233394
0.010233735
0.010233579
0.010232935
0.010231809
0.010230205
0.010228134
0.010225616
0.010222669
0.010219309
0.010215543
0.010211362
0.010206739
0.010201641
0.010196028
0.010189866
0.010183118
0.010175749
0.010167734
0.010159071
0.010149759
0.010139792
0.010129162
0.01011786
0.010105877
0.010093239
0.010080019
0.01006639
0.010053215
0.010043396
0.010035618
0.010028881
0.010022072
0.010014559
0.010007893
0.010005355
0.010002188
0.020908842
0.01965746
0.01322977
0.011832775
0.011028017
0.010733437
0.010461491
0.010345815
0.010246776
0.010188715
0.010145711
0.010116994
0.010097809
0.010085989
0.010079747
0.010077756
0.01007909
0.010083239
0.010089358
0.010097066
0.010105994
0.010115817
0.010126236
0.010136991
0.010147859
0.010158639
0.010169169
0.010179307
0.010188929
0.01019794
0.010206268
0.010213861
0.010220681
0.010226705
0.010231926
0.010236353
0.010240008
0.010242923
0.010245134
0.010246684
0.010247614
0.010247966
0.010247779
0.010247085
0.010245914
0.010244286
0.010242217
0.010239714
0.010236783
0.010233433
0.010229677
0.010225535
0.01022102
0.010216137
0.010210878
0.010205215
0.01019911
0.010192522
0.010185414
0.010177751
0.010169502
0.010160644
0.010151174
0.010141099
0.010130413
0.01011911
0.010107178
0.010094586
0.010081326
0.010067508
0.010053323
0.010041823
0.010033251
0.010026591
0.01002092
0.010015295
0.010009326
0.010003969
0.010001226
0.0099980428
0.01981206
0.019660952
0.012843908
0.01163138
0.010907357
0.010652812
0.010412232
0.010311368
0.010226553
0.010177153
0.010142085
0.010119755
0.010106137
0.010099165
0.010097214
0.010099078
0.010103867
0.01011088
0.010119613
0.010129593
0.010140429
0.01015179
0.010163395
0.010174989
0.010186354
0.010197302
0.010207682
0.010217375
0.010226281
0.010234335
0.010241492
0.010247732
0.010253053
0.010257464
0.010260986
0.010263657
0.010265521
0.01026663
0.010267039
0.010266804
0.010265979
0.010264616
0.010262759
0.010260449
0.010257716
0.010254586
0.010251076
0.010247194
0.010242943
0.010238328
0.010233357
0.010228043
0.010222397
0.010216424
0.010210112
0.010203434
0.010196349
0.010188811
0.010180781
0.010172225
0.010163115
0.010153429
0.010143163
0.010132326
0.010120919
0.01010893
0.010096345
0.010083135
0.010069258
0.010054978
0.010041304
0.010031305
0.010023974
0.010018434
0.010013827
0.010009306
0.010004717
0.010000825
0.0099985415
0.0099954455
0.018823452
0.019426982
0.012495585
0.011452139
0.010803999
0.010584695
0.010374155
0.010286934
0.010215786
0.010175054
0.01014785
0.010131985
0.010123991
0.010121918
0.010124264
0.010129892
0.010137961
0.010147828
0.010158942
0.010170855
0.010183189
0.010195619
0.010207871
0.010219702
0.010230918
0.010241357
0.0102509
0.010259461
0.010266988
0.010273451
0.01027885
0.010283203
0.010286547
0.010288925
0.010290391
0.010291004
0.01029083
0.010289937
0.010288391
0.010286257
0.010283597
0.010280465
0.01027691
0.010272972
0.010268684
0.010264071
0.010259147
0.010253919
0.01024839
0.010242555
0.010236417
0.010229981
0.010223253
0.010216233
0.010208911
0.010201259
0.010193232
0.010184782
0.010175866
0.010166449
0.010156507
0.010146019
0.010134978
0.010123392
0.01011127
0.010098597
0.010085346
0.010071517
0.010057108
0.010042318
0.010030373
0.010021754
0.010015599
0.010011149
0.010007603
0.010004129
0.010000678
0.0099982005
0.0099970494
0.0099941837
0.017928614
0.018548126
0.012182364
0.011294338
0.010718205
0.010529506
0.010347822
0.010273485
0.010215556
0.010183603
0.010164249
0.010154915
0.010152567
0.010155368
0.010161922
0.010171156
0.010182254
0.010194581
0.010207614
0.010220906
0.010234091
0.01024686
0.010258968
0.010270209
0.010280431
0.010289524
0.010297419
0.010304087
0.01030953
0.010313771
0.010316854
0.010318843
0.010319808
0.010319826
0.010318973
0.010317329
0.010314971
0.010311976
0.010308414
0.010304355
0.010299856
0.010294974
0.010289755
0.010284236
0.010278448
0.010272412
0.010266139
0.010259635
0.010252895
0.010245911
0.010238677
0.010231188
0.010223442
0.010215438
0.01020716
0.010198584
0.010189665
0.010180351
0.010170593
0.010160358
0.010149621
0.010138367
0.010126583
0.010114269
0.010101442
0.010088103
0.010074202
0.010059731
0.01004498
0.010030804
0.010020554
0.010013223
0.010008155
0.010004728
0.010002216
0.0099997693
0.0099972655
0.0099958904
0.0099959637
0.009993997
0.01711994
0.017192012
0.011906549
0.011157758
0.01064908
0.010488195
0.010334303
0.010272453
0.010227321
0.010204282
0.010192741
0.010189928
0.010193136
0.010200636
0.010211112
0.010223542
0.010237131
0.010251261
0.010265425
0.010279202
0.010292263
0.010304348
0.010315269
0.01032489
0.01033313
0.010339952
0.01034536
0.010349391
0.010352105
0.010353581
0.010353906
0.010353179
0.010351499
0.010348962
0.010345661
0.010341684
0.010337112
0.01033202
0.010326478
0.010320549
0.010314286
0.010307738
0.010300945
0.01029394
0.010286748
0.010279384
0.010271858
0.010264168
0.010256308
0.010248263
0.010240018
0.01023156
0.010222876
0.010213958
0.010204791
0.010195349
0.010185592
0.010175468
0.010164923
0.010153919
0.010142431
0.010130451
0.010117963
0.010104955
0.010091438
0.010077443
0.01006296
0.010047935
0.010032726
0.010020687
0.010011893
0.010005742
0.010001659
0.0099991586
0.0099976034
0.009996154
0.0099945763
0.0099942137
0.0099955114
0.0099954981
0.016393325
0.016342514
0.011673942
0.011042816
0.01059754
0.010462166
0.01033511
0.010285528
0.010252789
0.010238735
0.010234889
0.01023843
0.010246896
0.010258647
0.010272426
0.010287258
0.010302378
0.010317204
0.010331285
0.01034427
0.01035591
0.010366037
0.010374558
0.010381439
0.010386693
0.01039037
0.01039255
0.010393335
0.01039284
0.010391186
0.010388491
0.010384876
0.010380453
0.010375326
0.010369591
0.010363333
0.010356628
0.010349544
0.010342142
0.010334471
0.010326579
0.010318501
0.010310271
0.010301912
0.010293441
0.010284871
0.010276204
0.010267437
0.010258559
0.01024955
0.010240389
0.010231051
0.010221517
0.010211767
0.010201783
0.01019154
0.010181004
0.010170126
0.010158852
0.010147134
0.010134946
0.010122282
0.010109132
0.010095477
0.010081304
0.010066645
0.010051594
0.010036396
0.010022094
0.010011807
0.010004381
0.0099993018
0.0099961101
0.0099944304
0.0099937117
0.0099931702
0.0099925154
0.0099931155
0.0099954057
0.009996444
0.015740773
0.01534645
0.011475462
0.010950051
0.010564534
0.010453131
0.010351899
0.010314635
0.010293892
0.010288761
0.010292297
0.010301709
0.010314719
0.010329766
0.010345667
0.01036152
0.010376644
0.010390555
0.010402923
0.010413527
0.01042225
0.010429058
0.010433982
0.0104371
0.010438524
0.010438386
0.010436831
0.010434008
0.010430065
0.010425147
0.010419386
0.010412905
0.010405814
0.010398213
0.010390188
0.010381812
0.010373151
0.010364256
0.010355175
0.010345947
0.010336602
0.010327167
0.010317663
0.010308104
0.010298501
0.010288858
0.010279176
0.010269446
0.010259655
0.010249782
0.010239798
0.010229674
0.010219379
0.010208884
0.010198163
0.010187189
0.010175935
0.010164359
0.010152413
0.010140044
0.010127215
0.010113911
0.010100136
0.010085881
0.010071118
0.010055851
0.010040231
0.010024866
0.010012963
0.010004148
0.0099979469
0.0099938423
0.009991464
0.0099905099
0.0099904896
0.009990705
0.0099908904
0.0099922515
0.0099951211
0.00999777
0.015156761
0.014676957
0.011313655
0.010880202
0.010551103
0.010463318
0.010386887
0.010362155
0.010352883
0.01035622
0.0103663
0.010380426
0.010396505
0.0104131
0.010429173
0.010443989
0.010457047
0.010468045
0.010476844
0.010483407
0.010487784
0.010490084
0.010490463
0.010489097
0.010486175
0.010481882
0.0104764
0.010469901
0.01046254
0.010454462
0.010445792
0.010436641
0.010427104
0.010417265
0.010407191
0.010396941
0.010386561
0.010376089
0.010365553
0.010354978
0.010344383
0.01033378
0.010323179
0.010312585
0.010302002
0.010291427
0.010280856
0.010270279
0.01025968
0.010249037
0.01023832
0.010227496
0.010216526
0.010205372
0.010193998
0.010182373
0.010170467
0.010158251
0.010145685
0.010132722
0.010119316
0.010105433
0.010091069
0.01007624
0.010060948
0.010045195
0.010029327
0.010015372
0.010005082
0.0099976083
0.0099924746
0.0099892478
0.0099876193
0.0099873173
0.0099878747
0.0099886788
0.0099895739
0.0099916472
0.0099949297
0.0099982876
0.014635748
0.013929826
0.011185176
0.010835938
0.010559028
0.010496101
0.010443153
0.010430824
0.010431864
0.010442262
0.010456994
0.010473577
0.010490198
0.01050568
0.010519267
0.010530509
0.010539182
0.010545239
0.010548764
0.010549912
0.010548889
0.010545924
0.010541258
0.010535125
0.010527749
0.010519334
0.010510063
0.0105001
0.010489587
0.010478646
0.010467382
0.010455883
0.01044422
0.010432454
0.010420633
0.010408794
0.010396965
0.010385167
0.010373415
0.010361716
0.010350077
0.010338498
0.010326979
0.010315516
0.010304103
0.010292735
0.0102814
0.010270087
0.010258779
0.010247454
0.010236085
0.010224636
0.010213068
0.010201335
0.010189393
0.010177201
0.010164723
0.010151929
0.010138793
0.010125282
0.010111355
0.010096966
0.010082078
0.010066701
0.010050913
0.010034893
0.010019237
0.01000735
0.0099984133
0.0099920566
0.0099878253
0.0099853643
0.0099844181
0.0099847084
0.0099857546
0.009987013
0.0099884828
0.0099911766
0.0099948353
0.009998635
0.014177575
0.013355436
0.011094791
0.01082204
0.010592112
0.010555561
0.010523816
0.010522479
0.010531266
0.01054576
0.010561806
0.010577351
0.010591053
0.010602171
0.010610358
0.010615533
0.010617789
0.010617329
0.010614433
0.010609399
0.010602532
0.01059412
0.010584431
0.010573709
0.010562165
0.010549985
0.010537328
0.010524325
0.010511087
0.010497706
0.010484256
0.010470797
0.010457375
0.010444025
0.010430775
0.010417641
0.010404636
0.010391764
0.010379027
0.010366419
0.010353934
0.010341564
0.010329297
0.010317122
0.010305026
0.010292996
0.010281018
0.010269077
0.010257154
0.010245231
0.01023328
0.010221271
0.010209166
0.01019692
0.010184485
0.010171809
0.010158846
0.010145558
0.010131913
0.010117892
0.010103475
0.010088634
0.010073322
0.010057494
0.010041201
0.010024954
0.010011078
0.010000588
0.0099928247
0.0099873726
0.0099838696
0.0099820418
0.0099816843
0.0099825039
0.0099839994
0.0099856796
0.0099876627
0.0099908534
0.0099948202
0.009998865
0.013787765
0.012898664
0.011044941
0.010843653
0.01067704
0.010644734
0.010629907
0.01063587
0.01064786
0.010661784
0.010674577
0.010684856
0.010691934
0.010695608
0.010695972
0.010693288
0.010687904
0.010680199
0.010670552
0.01065932
0.010646822
0.010633339
0.010619111
0.010604344
0.010589206
0.010573838
0.010558356
0.010542851
0.010527395
0.010512046
0.010496846
0.010481827
0.010467012
0.010452413
0.010438039
0.01042389
0.010409962
0.010396248
0.010382737
0.010369415
0.010356266
0.010343271
0.010330412
0.010317671
0.010305027
0.010292462
0.010279957
0.010267493
0.010255049
0.010242607
0.010230143
0.010217631
0.010205037
0.010192325
0.010179447
0.010166353
0.010152988
0.010139298
0.010125238
0.010110775
0.010095895
0.010080598
0.010064894
0.010048802
0.010032429
0.010016428
0.010004305
0.0099949885
0.0099881757
0.0099834521
0.0099805218
0.0099791862
0.009979284
0.0099805232
0.009982415
0.0099845351
0.0099870562
0.0099906747
0.0099948871
0.0099989802
0.013475621
0.012532142
0.011039709
0.010900469
0.01078078
0.010762849
0.010757642
0.010764698
0.010773672
0.010781442
0.010786186
0.010787337
0.010784872
0.010779069
0.010770349
0.010759182
0.010746028
0.01073131
0.0107154
0.010698617
0.010681227
0.010663449
0.01064546
0.010627401
0.010609383
0.010591495
0.010573803
0.010556356
0.010539192
0.010522333
0.010505797
0.010489591
0.010473716
0.010458168
0.01044294
0.010428019
0.01041339
0.010399035
0.010384935
0.010371067
0.010357409
0.010343936
0.010330623
0.010317445
0.010304378
0.010291396
0.010278475
0.010265593
0.010252726
0.010239852
0.010226948
0.010213992
0.010200956
0.01018781
0.010174517
0.010161035
0.010147313
0.010133294
0.010118918
0.010104131
0.010088893
0.010073182
0.010057017
0.010040506
0.01002409
0.010009675
0.0099987129
0.0099903925
0.009984346
0.0099802169
0.0099777495
0.009976789
0.0099771935
0.0099786855
0.0099808373
0.0099833391
0.0099864063
0.009990472
0.0099949288
0.0099990758
0.013258234
0.012267285
0.011081887
0.010999218
0.010915047
0.010901235
0.010896767
0.01089753
0.01089711
0.010893766
0.010886866
0.010876555
0.010863271
0.010847548
0.010829917
0.010810862
0.010790798
0.01077007
0.010748959
0.010727686
0.010706424
0.010685309
0.010664439
0.010643892
0.010623719
0.010603959
0.010584634
0.010565761
0.010547343
0.010529381
0.010511867
0.010494792
0.01047814
0.010461895
0.010446038
0.010430546
0.010415397
0.010400566
0.010386026
0.010371751
0.010357713
0.010343882
0.01033023
0.010316727
0.010303344
0.010290052
0.010276822
0.010263627
0.010250438
0.01023723
0.010223977
0.010210655
0.01019724
0.010183705
0.010170022
0.01015616
0.010142079
0.010127736
0.010113077
0.010098049
0.010082596
0.010066673
0.01005028
0.010033554
0.010017197
0.010004259
0.0099942093
0.0099866778
0.0099812507
0.0099776164
0.0099755451
0.0099748897
0.0099754948
0.0099770908
0.0099793262
0.0099820244
0.0099854652
0.0099899617
0.009994881
0.0099991107
0.013133172
0.012102957
0.011179121
0.011128606
0.011064173
0.01104634
0.011032824
0.011020599
0.011006111
0.01098889
0.010969085
0.010947175
0.010923701
0.010899164
0.010873987
0.010848511
0.010823003
0.010797666
0.010772651
0.010748069
0.010723995
0.010700483
0.010677564
0.010655256
0.010633566
0.010612492
0.010592025
0.010572152
0.010552855
0.010534115
0.01051591
0.010498217
0.010481009
0.010464263
0.010447949
0.010432041
0.010416509
0.010401325
0.010386459
0.01037188
0.010357557
0.01034346
0.010329557
0.010315815
0.010302203
0.010288689
0.010275241
0.010261827
0.010248416
0.010234977
0.010221481
0.010207899
0.010194202
0.010180363
0.010166354
0.010152148
0.010137714
0.010123022
0.010108035
0.010092717
0.010077029
0.010060941
0.010044463
0.010027794
0.010011946
0.010000025
0.009990711
0.0099837865
0.0099788491
0.009975617
0.0099738792
0.0099734823
0.0099742457
0.0099759093
0.0099781806
0.009980953
0.0099844711
0.0099889613
0.0099939781
0.0099985704
0.013070868
0.012033474
0.011340044
0.011272127
0.011211599
0.01117932
0.011149887
0.011121152
0.01109144
0.011060785
0.011029464
0.010997854
0.010966287
0.010935033
0.010904292
0.010874209
0.010844878
0.01081636
0.010788688
0.010761876
0.010735922
0.010710816
0.010686538
0.010663065
0.010640369
0.01061842
0.010597188
0.010576642
0.010556748
0.010537476
0.010518792
0.010500664
0.010483062
0.010465953
0.010449305
0.010433087
0.010417268
0.010401816
0.010386698
0.010371883
0.010357339
0.010343033
0.010328933
0.010315007
0.010301222
0.010287544
0.010273941
0.010260379
0.010246825
0.010233245
0.010219606
0.010205876
0.01019202
0.010178006
0.010163802
0.010149374
0.010134689
0.010119717
0.010104424
0.010088781
0.010072765
0.010056371
0.010039671
0.010023057
0.010008257
0.0099969353
0.0099881742
0.0099816881
0.0099771145
0.0099741836
0.009972692
0.0099724828
0.0099733695
0.0099751128
0.0099774809
0.0099804007
0.0099840343
0.0099884936
0.009993452
0.0099981794
0.01308314
0.011994721
0.01149516
0.011405863
0.011333454
0.011282555
0.011235867
0.011191984
0.011149622
0.01110861
0.011068903
0.01103053
0.010993512
0.010957855
0.010923546
0.010890554
0.010858841
0.01082836
0.01079906
0.010770888
0.010743791
0.010717716
0.010692611
0.010668425
0.010645111
0.010622621
0.01060091
0.010579936
0.010559658
0.010540036
0.010521032
0.010502609
0.010484732
0.010467365
0.010450475
0.010434027
0.010417989
0.010402328
0.010387012
0.010372007
0.010357283
0.010342806
0.010328544
0.010314465
0.010300536
0.010286724
0.010272998
0.010259324
0.010245669
0.010232001
0.010218284
0.010204486
0.010190573
0.010176508
0.010162257
0.010147783
0.010133048
0.010118014
0.010102641
0.010086893
0.010070736
0.010054161
0.010037258
0.010020532
0.010006196
0.0099951579
0.0099866455
0.0099803757
0.0099760054
0.0099732655
0.0099719425
0.0099717906
0.0099727441
0.0099745338
0.0099769918
0.0099800485
0.0099837818
0.0099882132
0.0099930919
0.009997897
0.013177949
0.012022136
0.011612133
0.011502928
0.011414967
0.011348015
0.01128834
0.011234072
0.011183584
0.01113623
0.011091569
0.011049309
0.011009223
0.010971128
0.010934864
0.010900295
0.010867299
0.010835764
0.010805592
0.010776692
0.010748982
0.010722385
0.010696833
0.010672259
0.010648604
0.010625811
0.010603829
0.010582608
0.010562103
0.01054227
0.010523068
0.010504457
0.0104864
0.01046886
0.010451802
0.010435191
0.010418994
0.010403177
0.010387707
0.010372552
0.01035768
0.010343059
0.010328656
0.01031444
0.010300379
0.01028644
0.010272594
0.010258806
0.010245047
0.010231284
0.010217486
0.01020362
0.010189656
0.010175561
0.010161302
0.010146846
0.010132159
0.010117203
0.010101945
0.010086348
0.010070381
0.010054029
0.010037359
0.010020783
0.010006162
0.009994968
0.0099863069
0.0099799363
0.0099755265
0.0099728132
0.0099716
0.0099713743
0.0099723636
0.0099741636
0.0099766906
0.0099798547
0.0099836607
0.0099880647
0.0099928633
0.0099977155
0.013303528
0.012078635
0.011673962
0.01155183
0.011453681
0.011378331
0.011312533
0.011253739
0.011199902
0.01115004
0.01110348
0.011059766
0.011018552
0.010979569
0.0109426
0.010907461
0.010873996
0.010842072
0.010811569
0.010782384
0.010754423
0.010727602
0.010701844
0.01067708
0.010653247
0.010630285
0.010608139
0.01058676
0.010566099
0.010546111
0.010526756
0.010507992
0.010489781
0.010472087
0.010454874
0.010438107
0.010421753
0.010405777
0.010390148
0.010374833
0.0103598
0.010345016
0.01033045
0.01031607
0.010301845
0.010287741
0.010273729
0.010259776
0.01024585
0.010231921
0.010217957
0.010203928
0.010189802
0.010175548
0.010161135
0.01014653
0.010131699
0.010116608
0.010101219
0.010085498
0.010069415
0.010052964
0.010036234
0.010019725
0.010005623
0.009994666
0.0099861542
0.00997983
0.0099754121
0.0099726677
0.0099713698
0.009971039
0.0099721689
0.0099739203
0.0099764753
0.0099796909
0.009983532
0.0099879267
0.0099926963
0.0099976065
66.997306
364.79316
123.01548
14.924188
0.41298276
0.02142908
0.020099502
0.019803115
0.019534697
0.018474338
0.017132273
0.015946223
0.015047276
0.014475769
0.014070362
0.013685889
0.013310983
0.012979135
0.012701278
0.012469102
0.012271751
0.012101503
0.011953229
0.011823174
0.011708337
0.011606251
0.011514932
0.011432793
0.011358587
0.011291331
0.011230213
0.011174524
0.011123646
0.011077057
0.011034348
0.010995188
0.010959292
0.010926411
0.010896314
0.010868795
0.010843675
0.010820779
0.010799936
0.010780984
0.010763771
0.010748138
0.010733926
0.010720977
0.01070915
0.010698324
0.010688385