/*--------------------------------*- C++ -*----------------------------------*\
  =========                 |
  \\      /  F ield         | OpenFOAM: The Open Source CFD Toolbox
   \\    /   O peration     | Website:  https://openfoam.org
    \\  /    A nd           | Version:  12
     \\/     M anipulation  |
\*---------------------------------------------------------------------------*/
FoamFile
{
    format      ascii;
    class       volScalarField;
    location    "0.103";
    object      nut;
}
// * * * * * * * * * * * * * * * * * * * * * * * * * * * * * * * * * * * * * //

dimensions      [0 2 -1 0 0 0 0];

internalField   nonuniform List<scalar> 
16000
(
4.6116913e-07
9.8483193e-06
1.8254296e-05
2.3697246e-05
1.8171209e-05
2.4895945e-05
1.7621717e-05
2.4110154e-05
1.8832283e-05
2.59231e-05
2.1838032e-05
2.5633822e-05
2.337562e-05
2.3988773e-05
2.3176414e-05
2.3040081e-05
2.2795841e-05
2.2726557e-05
2.2734329e-05
2.2838762e-05
2.3032739e-05
2.3315302e-05
2.3683979e-05
2.4138744e-05
2.4681655e-05
2.5318441e-05
2.6056853e-05
2.6909335e-05
2.7891048e-05
2.9018286e-05
3.0308891e-05
3.1786608e-05
3.348212e-05
3.5433246e-05
3.7686521e-05
4.0297434e-05
4.3332055e-05
4.686913e-05
5.1006131e-05
5.5863845e-05
6.1583902e-05
6.833296e-05
7.6321162e-05
8.5805853e-05
9.7093041e-05
0.0001105494
0.00012662936
0.00014588637
0.00016899392
0.00019677257
0.0002302268
0.00027058962
0.00031937018
0.00037842086
0.00045001688
0.00053696499
0.00064273755
0.00077164434
0.00092906123
0.0010188602
0.0010187845
0.0010186533
0.0010184751
0.0010182182
0.0010178875
0.0010174834
0.0010170126
0.0010164869
0.0010159217
0.0010153275
0.0010147021
0.0010140206
0.0010132108
0.0010121467
0.0010110184
0.0010098509
0.0010086011
0.001007959
0.0010061909
0.0010069336
4.2033771e-07
9.3559619e-06
1.9727353e-05
2.1226936e-05
1.6409406e-05
2.2363131e-05
1.566695e-05
2.1154356e-05
1.6664712e-05
2.2935599e-05
1.9798133e-05
2.3142939e-05
2.1403384e-05
2.1764829e-05
2.1129721e-05
2.0943948e-05
2.0740279e-05
2.0666938e-05
2.0676188e-05
2.0771333e-05
2.0950259e-05
2.1211695e-05
2.1553771e-05
2.1976543e-05
2.2481616e-05
2.3074354e-05
2.3761473e-05
2.4554191e-05
2.5466863e-05
2.6515394e-05
2.7716396e-05
2.9091562e-05
3.0669292e-05
3.2484608e-05
3.4581064e-05
3.7010859e-05
3.9836564e-05
4.3132215e-05
4.6988647e-05
5.1520297e-05
5.686342e-05
6.3175062e-05
7.06533e-05
7.9543778e-05
9.0140817e-05
0.00010279341
0.00011793568
0.00013609826
0.00015792851
0.00018421586
0.0002159272
0.00025425281
0.00030065184
0.00035691896
0.00042526084
0.0005084028
0.00060972129
0.00073340479
0.00088466494
0.0010181217
0.0010180707
0.0010179226
0.0010177361
0.0010174732
0.0010171387
0.0010167329
0.0010162618
0.0010157368
0.0010151721
0.0010145776
0.0010139497
0.001013265
0.0010124624
0.0010114214
0.0010103202
0.0010091545
0.0010079967
0.0010070844
0.0010059794
0.0010068476
3.6831026e-07
8.9707198e-06
1.8680417e-05
1.9471599e-05
1.4721646e-05
1.9719954e-05
1.397219e-05
1.8413925e-05
1.5006876e-05
2.0155219e-05
1.8076639e-05
2.0637494e-05
1.9413039e-05
1.9517177e-05
1.9027178e-05
1.882038e-05
1.8648402e-05
1.8580392e-05
1.8592813e-05
1.8682829e-05
1.8849672e-05
1.9092429e-05
1.9409523e-05
1.9801256e-05
2.0268872e-05
2.0817542e-05
2.1453262e-05
2.218619e-05
2.3029704e-05
2.399932e-05
2.5110816e-05
2.6384261e-05
2.7846162e-05
2.9529122e-05
3.147404e-05
3.3730076e-05
3.635669e-05
3.9424219e-05
4.3017905e-05
4.7245788e-05
5.2239681e-05
5.8149209e-05
6.5162036e-05
7.3512756e-05
8.3486293e-05
9.5417219e-05
0.00010972244
0.00012691328
0.00014761516
0.00017259202
0.00020277932
0.00023933176
0.00028366664
0.00033753065
0.0004030736
0.00048295235
0.00058046179
0.00069969309
0.00084572931
0.0010174309
0.0010174035
0.0010172336
0.0010170305
0.0010167543
0.0010164089
0.0010159946
0.0010155168
0.0010149864
0.0010144169
0.0010138173
0.001013183
0.0010124885
0.0010116815
0.0010106581
0.0010095887
0.0010084548
0.0010073299
0.0010063392
0.0010055454
0.0010062314
3.3527845e-07
8.6819122e-06
1.7757014e-05
1.8132451e-05
1.3254373e-05
1.7437719e-05
1.2468496e-05
1.611652e-05
1.3524916e-05
1.7791844e-05
1.651972e-05
1.8413309e-05
1.7570024e-05
1.7486676e-05
1.7105034e-05
1.6897442e-05
1.6753426e-05
1.6695725e-05
1.6713998e-05
1.6802331e-05
1.6960552e-05
1.7188178e-05
1.748396e-05
1.7848566e-05
1.828301e-05
1.8792416e-05
1.9382303e-05
2.0061998e-05
2.0843955e-05
2.1743372e-05
2.2775488e-05
2.3958995e-05
2.5318868e-05
2.6885633e-05
2.8697949e-05
3.0802357e-05
3.3255634e-05
3.6125226e-05
3.9491934e-05
4.3457834e-05
4.8151341e-05
5.3716465e-05
6.0332523e-05
6.8224276e-05
7.7669906e-05
8.8992923e-05
0.00010259666
0.00011897752
0.00013874409
0.0001626418
0.00019158244
0.00022669492
0.00026936613
0.00032130903
0.00038463404
0.00046195075
0.00055649749
0.00067229999
0.00081436111
0.00098888566
0.0010167836
0.0010165889
0.0010163644
0.0010160706
0.00101571
0.0010152827
0.0010147935
0.0010142523
0.0010136718
0.001013061
0.0010124145
0.001011705
0.0010108872
0.0010098765
0.0010088473
0.0010077527
0.0010066408
0.0010056411
0.0010051407
0.0010053583
3.0727373e-07
8.4692175e-06
1.6947716e-05
1.8143674e-05
1.324953e-05
1.5441884e-05
1.1143734e-05
1.413934e-05
1.2246484e-05
1.5746164e-05
1.5129684e-05
1.6402288e-05
1.5844814e-05
1.563486e-05
1.533388e-05
1.513951e-05
1.5018816e-05
1.4972109e-05
1.4995103e-05
1.5081178e-05
1.5230397e-05
1.5442884e-05
1.571777e-05
1.6056202e-05
1.6459101e-05
1.6931615e-05
1.7478933e-05
1.8109719e-05
1.8835514e-05
1.9671151e-05
2.063152e-05
2.1734169e-05
2.3002803e-05
2.4466158e-05
2.6160964e-05
2.8131481e-05
3.0432085e-05
3.312788e-05
3.6296349e-05
4.003388e-05
4.4466019e-05
4.9732595e-05
5.600642e-05
6.350301e-05
7.2495474e-05
8.3298758e-05
9.6305033e-05
0.00011199855
0.00013097401
0.00015396264
0.00018185695
0.00021576559
0.0002570511
0.00030739988
0.00036889173
0.0004440992
0.00053621598
0.0006492153
0.00078803636
0.00095879748
0.0010162085
0.001015986
0.0010157348
0.0010154182
0.0010150376
0.0010145926
0.0010140872
0.0010135302
0.0010129337
0.0010123059
0.0010116414
0.0010109115
0.0010100762
0.0010090882
0.0010081056
0.0010070541
0.0010059571
0.0010049793
0.0010046172
0.0010045669
2.779717e-07
8.340561e-06
1.6300036e-05
1.7917574e-05
1.3032708e-05
1.3691082e-05
1.0561652e-05
1.2501871e-05
1.1402363e-05
1.4021404e-05
1.3910726e-05
1.4633411e-05
1.4266876e-05
1.3982146e-05
1.3732121e-05
1.3552934e-05
1.3447302e-05
1.3407431e-05
1.343153e-05
1.3513159e-05
1.3652363e-05
1.3849782e-05
1.4104771e-05
1.4418849e-05
1.4792949e-05
1.5232196e-05
1.5741508e-05
1.6329037e-05
1.7005432e-05
1.7785128e-05
1.8682833e-05
1.9715172e-05
2.0904849e-05
2.2279111e-05
2.3873109e-05
2.5729213e-05
2.7899768e-05
3.0448018e-05
3.3449335e-05
3.6995209e-05
4.1208554e-05
4.6226497e-05
5.2217707e-05
5.9389321e-05
6.8011191e-05
7.8392632e-05
9.0917541e-05
0.00010606155
0.00012440902
0.00014668242
0.00017376064
0.00020673909
0.00024696417
0.00029610524
0.00035622349
0.00042986859
0.00052020606
0.00063117576
0.00076767843
0.0009357805
0.0010156727
0.0010154194
0.0010151367
0.0010147927
0.0010143877
0.0010139208
0.001013395
0.0010128182
0.0010122013
0.0010115514
0.0010108634
0.0010101087
0.0010092473
0.0010082983
0.0010073683
0.001006364
0.0010052909
0.0010043532
0.0010040285
0.0010038264
2.4885546e-07
8.2705164e-06
1.5792785e-05
1.695047e-05
1.2931782e-05
1.21037e-05
1.0602487e-05
1.1531925e-05
1.0950357e-05
1.2519198e-05
1.281317e-05
1.3067547e-05
1.2800298e-05
1.2482783e-05
1.2261607e-05
1.2097729e-05
1.200327e-05
1.1969125e-05
1.1994051e-05
1.2072121e-05
1.2203037e-05
1.2387872e-05
1.2625993e-05
1.2843027e-05
1.318331e-05
1.3586072e-05
1.4055523e-05
1.4599104e-05
1.5226391e-05
1.5951088e-05
1.6787685e-05
1.7751907e-05
1.8865534e-05
2.0154389e-05
2.1652152e-05
2.3399461e-05
2.5446746e-05
2.7855416e-05
3.0699476e-05
3.4323683e-05
3.8359109e-05
4.3176072e-05
4.8941495e-05
5.5855324e-05
6.4185173e-05
7.4237593e-05
8.6391028e-05
0.00010111572
0.00011898877
0.00014072891
0.00016720645
0.00019951003
0.00023897719
0.00028726873
0.00034643769
0.00041902348
0.00050817797
0.00061782394
0.00075284383
0.00091928063
0.0010151717
0.0010148844
0.0010145659
0.0010141903
0.0010137569
0.0010132642
0.0010127144
0.0010121142
0.0010114733
0.0010107975
0.0010100811
0.0010092989
0.0010084052
0.0010075162
0.0010066432
0.0010056919
0.0010046531
0.001003763
0.0010034645
0.0010031344
2.2849239e-07
8.2305134e-06
1.5357847e-05
1.5418443e-05
1.1817342e-05
1.0552273e-05
9.142361e-06
1.0288922e-05
9.5992078e-06
1.1258928e-05
1.1703121e-05
1.1624779e-05
1.1396822e-05
1.1087299e-05
1.0890038e-05
1.0746108e-05
1.0665371e-05
1.0639949e-05
1.0603748e-05
1.0665601e-05
1.0780296e-05
1.0947953e-05
1.1166504e-05
1.1435951e-05
1.1760468e-05
1.2143053e-05
1.2588164e-05
1.3103182e-05
1.3697145e-05
1.4383333e-05
1.5176435e-05
1.6091696e-05
1.7150457e-05
1.8377633e-05
1.9806039e-05
2.1475211e-05
2.3434417e-05
2.5743925e-05
2.8477251e-05
3.1723881e-05
3.5592889e-05
4.0222406e-05
4.5779419e-05
5.2900603e-05
6.1018098e-05
7.0835665e-05
8.2729469e-05
9.7167529e-05
0.00011472285
0.0001361159
0.0001622137
0.00019410494
0.00023312633
0.00028093916
0.00033959955
0.00041165029
0.00050024552
0.00060930915
0.00074372636
0.00090954615
0.0010146996
0.0010143754
0.0010140175
0.0010136066
0.001013141
0.0010126192
0.0010120421
0.0010114156
0.0010107479
0.0010100435
0.0010092948
0.0010084837
0.0010075775
0.0010067481
0.0010059366
0.0010050462
0.001004054
0.0010032087
0.0010029091
0.0010024577
2.1020748e-07
8.1886337e-06
1.4902616e-05
1.3497997e-05
9.7149961e-06
9.3824861e-06
7.5402248e-06
8.7787547e-06
8.9543582e-06
1.0123669e-05
1.0574168e-05
1.0280029e-05
1.007107e-05
9.7931492e-06
9.6203019e-06
9.4320383e-06
9.3420832e-06
9.3123083e-06
9.3359502e-06
9.4098271e-06
9.5297049e-06
9.6975641e-06
9.9119688e-06
1.0173032e-05
1.0484858e-05
1.0851328e-05
1.1276955e-05
1.1769158e-05
1.2336608e-05
1.299214e-05
1.3750734e-05
1.4627382e-05
1.5643261e-05
1.6822658e-05
1.8197849e-05
1.9807701e-05
2.170078e-05
2.3936723e-05
2.6588412e-05
2.9744515e-05
3.3514407e-05
3.8034173e-05
4.3473489e-05
5.0029019e-05
5.7953e-05
6.7559295e-05
7.9924858e-05
9.4208526e-05
0.00011160259
0.00013283443
0.00015877355
0.00019051559
0.00022940465
0.00027711187
0.00033570792
0.00040775318
0.0004964207
0.00060565454
0.00074036381
0.00090663189
0.0010142506
0.0010138868
0.0010134863
0.0010130368
0.0010125361
0.0010119821
0.0010113751
0.0010107196
0.0010100226
0.0010092877
0.0010085048
0.0010076601
0.0010067719
0.0010060022
0.0010052553
0.0010044341
0.001003503
0.0010026987
0.0010023745
0.0010017638
1.9273338e-07
8.1474105e-06
1.3351347e-05
1.1755567e-05
7.8565082e-06
8.3419036e-06
6.714497e-06
7.9195985e-06
8.287452e-06
9.0520496e-06
9.4551043e-06
9.052428e-06
8.850269e-06
8.5256405e-06
8.3438522e-06
8.225458e-06
8.1678299e-06
8.1622474e-06
8.2022352e-06
8.287179e-06
8.4135048e-06
8.5816675e-06
8.7931834e-06
9.0480094e-06
9.3504835e-06
9.7048772e-06
1.0115859e-05
1.0591003e-05
1.1138753e-05
1.1771528e-05
1.2504647e-05
1.3353151e-05
1.433827e-05
1.5483929e-05
1.6822179e-05
1.8391607e-05
2.02405e-05
2.2428376e-05
2.5028382e-05
2.8129552e-05
3.1841302e-05
3.6299267e-05
4.1676194e-05
4.816881e-05
5.6031591e-05
6.5580412e-05
7.7204865e-05
9.1362383e-05
0.00010962697
0.00013088575
0.00015689084
0.00018875168
0.00022782867
0.00027581277
0.00033480144
0.00040738769
0.00049678159
0.00060696849
0.00074290435
0.00091073502
0.0010138185
0.0010134125
0.0010129672
0.0010124766
0.001011938
0.0010113494
0.0010107103
0.0010100234
0.0010092944
0.0010085267
0.0010077108
0.0010068283
0.0010059958
0.0010052856
0.0010046049
0.0010038604
0.001003005
0.0010022375
0.0010018674
0.0010011946
1.7796928e-07
8.1011343e-06
1.060678e-05
9.7410539e-06
6.4564659e-06
7.4259151e-06
6.1188255e-06
7.1128944e-06
7.7485695e-06
8.0777313e-06
8.3560698e-06
7.8489916e-06
7.6008603e-06
7.3731127e-06
7.2370234e-06
7.1562402e-06
7.1256688e-06
7.1414752e-06
7.1968804e-06
7.2912366e-06
7.4226792e-06
7.5929116e-06
7.803492e-06
8.0548716e-06
8.3514755e-06
8.6980077e-06
9.0994024e-06
9.5634451e-06
1.0098542e-05
1.0716771e-05
1.1375012e-05
1.2196306e-05
1.3152268e-05
1.4266432e-05
1.5570613e-05
1.7103149e-05
1.8912113e-05
2.1056951e-05
2.3611192e-05
2.6664502e-05
3.0327334e-05
3.5009179e-05
4.0379664e-05
4.6876731e-05
5.4757221e-05
6.434022e-05
7.60263e-05
9.0283662e-05
0.00010770324
0.00012902238
0.00015656548
0.0001888181
0.00022841018
0.00027706305
0.00033691391
0.00041060479
0.00050140216
0.00061335615
0.00075149537
0.00092205605
0.0010133972
0.0010129466
0.001012455
0.0010119212
0.0010113428
0.0010107176
0.0010100444
0.0010093243
0.0010085606
0.0010077571
0.0010069117
0.0010060112
0.0010052549
0.0010046054
0.001003991
0.0010033269
0.0010025611
0.0010018355
0.001001411
0.0010007924
1.6476916e-07
8.0538777e-06
8.3692368e-06
8.2976887e-06
5.68365e-06
6.5740926e-06
5.6151396e-06
6.4074415e-06
7.1979567e-06
7.166814e-06
7.1638963e-06
6.7320481e-06
6.5285667e-06
6.3596003e-06
6.2623812e-06
6.2130767e-06
6.2070328e-06
6.2399698e-06
6.308648e-06
6.412716e-06
6.5507487e-06
6.7244908e-06
6.9364101e-06
7.1874218e-06
7.4820359e-06
7.7914978e-06
8.1817066e-06
8.6339034e-06
9.1563624e-06
9.7607278e-06
1.0461021e-05
1.1275507e-05
1.2224761e-05
1.3332392e-05
1.4630522e-05
1.6157898e-05
1.7963189e-05
2.0106643e-05
2.2663273e-05
2.5724666e-05
2.9403911e-05
3.3842381e-05
3.921334e-05
4.5724574e-05
5.3637234e-05
6.3826288e-05
7.5685871e-05
9.017485e-05
0.00010789472
0.00012960568
0.0001562375
0.00019071752
0.00023115983
0.0002808841
0.00034208101
0.00041745937
0.00051036315
0.00062493349
0.00076630184
0.00094082299
0.0010129805
0.0010124833
0.0010119447
0.0010113666
0.0010107467
0.0010100832
0.0010093745
0.0010086195
0.0010078197
0.0010069781
0.0010061031
0.0010052414
0.0010045549
0.0010039677
0.001003418
0.0010028334
0.0010021665
0.0010015006
0.0010010247
0.0010004264
1.5297177e-07
7.9958748e-06
6.6565231e-06
7.278455e-06
5.0621414e-06
5.8133575e-06
5.1811822e-06
5.7806476e-06
6.5423394e-06
6.1329535e-06
6.0873754e-06
5.7540674e-06
5.5916831e-06
5.4702834e-06
5.406374e-06
5.3840647e-06
5.3990548e-06
5.4489127e-06
5.5306852e-06
5.644833e-06
5.7906668e-06
5.9700831e-06
6.1596501e-06
6.407842e-06
6.6992702e-06
7.0380439e-06
7.4311443e-06
7.8860332e-06
8.411203e-06
9.0184995e-06
9.722095e-06
1.0540032e-05
1.149412e-05
1.2608336e-05
1.391535e-05
1.5454677e-05
1.727611e-05
1.9441185e-05
2.2027096e-05
2.5128343e-05
2.886085e-05
3.3369144e-05
3.8835369e-05
4.5472541e-05
5.3549969e-05
6.3402843e-05
7.5447887e-05
9.018925e-05
0.00010920177
0.00013149585
0.00015886291
0.00019249122
0.00023607893
0.00028728761
0.00035032783
0.00042799468
0.00052373285
0.00064180269
0.00078747521
0.00096725539
0.0010125627
0.0010120175
0.0010114318
0.0010108086
0.0010101465
0.0010094434
0.0010086976
0.0010079069
0.0010070706
0.0010061941
0.0010052868
0.0010045181
0.0010039009
0.0010033768
0.0010028899
0.0010023792
0.0010018111
0.0010012268
0.0010007331
0.001000148
1.4244385e-07
7.9246857e-06
5.3368824e-06
6.3541274e-06
4.5076803e-06
5.135397e-06
4.8098037e-06
5.1412528e-06
5.7195585e-06
5.2342966e-06
5.1422053e-06
4.8977259e-06
4.7739791e-06
4.6923229e-06
4.6579656e-06
4.6600285e-06
4.6947932e-06
4.7608048e-06
4.8559957e-06
4.9624387e-06
5.1119009e-06
5.2948154e-06
5.5134138e-06
5.7706175e-06
6.0706515e-06
6.4180105e-06
6.8196e-06
7.2835111e-06
7.8184622e-06
8.4364621e-06
9.1518072e-06
9.9827673e-06
1.0901944e-05
1.2023638e-05
1.3340353e-05
1.4892343e-05
1.6730725e-05
1.8918385e-05
2.1534737e-05
2.4677704e-05
2.8467038e-05
3.3302631e-05
3.89158e-05
4.5741532e-05
5.4058395e-05
6.4211191e-05
7.6636593e-05
9.1861069e-05
0.00011052999
0.00013467007
0.0001630054
0.00019784244
0.00024069827
0.00029626652
0.00036165845
0.0004422295
0.00054155162
0.00066403364
0.00081512922
0.0010015363
0.0010121384
0.0010115444
0.0010109121
0.0010102441
0.0010095395
0.0010087961
0.0010080119
0.0010071851
0.0010063127
0.0010054091
0.0010045294
0.0010038442
0.0010032962
0.001002835
0.0010024092
0.0010019654
0.0010014856
0.0010009994
0.0010005388
0.00099995798
1.3304956e-07
7.7919541e-06
4.3298058e-06
5.5309064e-06
4.0117134e-06
4.531317e-06
4.4831725e-06
4.4462134e-06
4.8901891e-06
4.4324303e-06
4.3224857e-06
4.1511874e-06
4.0641645e-06
4.0168842e-06
4.0093908e-06
4.0339879e-06
4.0876689e-06
4.1530615e-06
4.2567451e-06
4.3903021e-06
4.5545724e-06
4.7510538e-06
4.982668e-06
5.2525422e-06
5.5654694e-06
5.9262108e-06
6.34174e-06
6.7999454e-06
7.3454207e-06
7.9746853e-06
8.702083e-06
9.5459047e-06
1.0528516e-05
1.1678031e-05
1.3027994e-05
1.4619972e-05
1.6507394e-05
1.8755504e-05
2.144686e-05
2.4684339e-05
2.8593183e-05
3.3331319e-05
3.9089862e-05
4.6104398e-05
5.4665425e-05
6.5677581e-05
7.8590283e-05
9.4424502e-05
0.00011385733
0.00013772477
0.00016862732
0.00020495261
0.00024965803
0.00030469406
0.00037603961
0.00046013866
0.00056380784
0.00069163502
0.00084930179
0.0010123226
0.0010117025
0.0010110603
0.0010103827
0.0010096706
0.0010089237
0.0010081401
0.001007317
0.0010064539
0.0010055504
0.001004617
0.0010038334
0.0010032253
0.0010027431
0.0010023431
0.0010019777
0.0010015953
0.0010011865
0.0010007957
0.001000424
0.00099984306
1.2471272e-07
7.4652705e-06
3.6357411e-06
4.8000339e-06
3.569442e-06
3.9953721e-06
3.9725478e-06
3.8167161e-06
4.092049e-06
3.7234761e-06
3.6197293e-06
3.5067941e-06
3.4541671e-06
3.4372276e-06
3.4543134e-06
3.4870051e-06
3.5527631e-06
3.6473887e-06
3.7700857e-06
3.9210888e-06
4.1018644e-06
4.3144316e-06
4.5621329e-06
4.8483841e-06
5.1665018e-06
5.5413613e-06
5.9714786e-06
6.4649201e-06
7.0318326e-06
7.6843014e-06
8.4370476e-06
9.3091089e-06
1.0323774e-05
1.1510234e-05
1.2904357e-05
1.4549251e-05
1.6501215e-05
1.8828587e-05
2.1617341e-05
2.4976502e-05
2.9036367e-05
3.3962857e-05
3.9959599e-05
4.7272813e-05
5.6209488e-05
6.7146595e-05
8.1263857e-05
9.7833901e-05
0.00011817928
0.00014318706
0.00017392675
0.00021375333
0.00026063981
0.00031837945
0.000389494
0.00048162674
0.00059040604
0.00072451705
0.00088990803
0.0010119083
0.0010112507
0.0010105629
0.0010098418
0.0010090867
0.0010082982
0.0010074754
0.0010066143
0.0010057139
0.0010047899
0.0010038899
0.0010032008
0.0010026648
0.0010022436
0.0010019013
0.0010015948
0.0010012724
0.0010009213
0.0010006008
0.0010003134
0.00099980039
1.1751353e-07
7.0604152e-06
3.1931453e-06
4.1512333e-06
3.1754291e-06
3.3711487e-06
3.5201171e-06
3.2398964e-06
3.3709905e-06
3.1077475e-06
3.0248648e-06
2.9580478e-06
2.9366481e-06
2.9468178e-06
2.9714189e-06
3.0327346e-06
3.1217442e-06
3.2372617e-06
3.3793928e-06
3.5490996e-06
3.7483915e-06
3.979568e-06
4.2380906e-06
4.5412815e-06
4.8882904e-06
5.284778e-06
5.7375498e-06
6.2549622e-06
6.8473678e-06
7.5276219e-06
8.3109158e-06
9.2170997e-06
1.0270524e-05
1.1501845e-05
1.2893486e-05
1.458834e-05
1.6601381e-05
1.900455e-05
2.2019478e-05
2.5525377e-05
2.9767295e-05
3.4919122e-05
4.1198122e-05
4.8863854e-05
5.8239085e-05
6.972371e-05
8.380874e-05
0.00010109726
0.00012342378
0.00014974308
0.00018210949
0.00022193218
0.00027351557
0.00033434711
0.00040927976
0.00050649704
0.00062112733
0.0007624444
0.00093669676
0.001011478
0.0010107816
0.0010100512
0.0010092889
0.0010084929
0.0010076636
0.0010068021
0.0010059069
0.0010049741
0.0010040233
0.0010032423
0.0010026344
0.0010021647
0.0010017994
0.0010015098
0.0010012582
0.0010009945
0.0010007004
0.0010004449
0.0010002416
0.00099989925
1.1170804e-07
6.0748004e-06
2.8146616e-06
3.5619049e-06
2.8335424e-06
2.7952675e-06
3.0701066e-06
2.7179097e-06
2.7522826e-06
2.581901e-06
2.5265542e-06
2.4971465e-06
2.4963994e-06
2.5240542e-06
2.5829039e-06
2.6689093e-06
2.7801925e-06
2.9165812e-06
3.0789293e-06
3.2686387e-06
3.4829505e-06
3.7328889e-06
4.0185377e-06
4.3439342e-06
4.7139027e-06
5.1342959e-06
5.6122319e-06
6.1563916e-06
6.7774517e-06
7.4722511e-06
8.2846078e-06
9.222804e-06
1.0312191e-05
1.1584535e-05
1.3079576e-05
1.484701e-05
1.6948299e-05
1.9460411e-05
2.2478889e-05
2.6121833e-05
3.0535957e-05
3.6160763e-05
4.2761167e-05
5.082809e-05
6.0701184e-05
7.2802977e-05
8.7653557e-05
0.00010589364
0.00012948937
0.0001572754
0.00019145894
0.00023352632
0.00028808711
0.00035236383
0.00043155661
0.00052914935
0.00065558741
0.00080497981
0.00098917707
0.001011032
0.0010102962
0.0010095262
0.0010087252
0.0010078911
0.001007023
0.0010061223
0.0010051936
0.00100425
0.0010033492
0.0010026658
0.0010021344
0.0010017252
0.0010014108
0.0010011687
0.0010009661
0.0010007565
0.0010005205
0.0010003315
0.0010002049
0.00099994088
1.0685539e-07
4.2479751e-06
2.4708146e-06
3.0159092e-06
2.4043905e-06
2.3123332e-06
2.5993718e-06
2.253749e-06
2.2375968e-06
2.1392469e-06
2.1142851e-06
2.1100546e-06
2.1371417e-06
2.1950332e-06
2.2797033e-06
2.3888319e-06
2.521752e-06
2.6789702e-06
2.8591142e-06
3.0682448e-06
3.3073641e-06
3.5793096e-06
3.8875338e-06
4.2362358e-06
4.6304781e-06
5.0763601e-06
5.5812837e-06
6.1449386e-06
6.7934847e-06
7.5342176e-06
8.3842678e-06
9.3649126e-06
1.0502972e-05
1.1832132e-05
1.3394634e-05
1.524314e-05
1.7443128e-05
2.0076099e-05
2.3243498e-05
2.7071257e-05
3.1715507e-05
3.7368863e-05
4.4599111e-05
5.3107691e-05
6.3528522e-05
7.6308504e-05
9.1998191e-05
0.00011127708
0.00013498349
0.00016562391
0.00020178466
0.0002462961
0.00030110983
0.00037209237
0.00045591688
0.00055923131
0.00069319606
0.00085142661
0.0010113328
0.0010105724
0.0010097978
0.0010089911
0.0010081536
0.0010072843
0.0010063813
0.0010054446
0.0010044824
0.0010035282
0.0010027612
0.00100216
0.0010016974
0.0010013432
0.0010010758
0.0010008764
0.001000716
0.0010005532
0.0010003701
0.0010002311
0.0010001509
0.0010000269
1.0170318e-07
3.5044216e-06
2.1135669e-06
2.5138856e-06
2.0526346e-06
1.9085975e-06
2.1171663e-06
1.847261e-06
1.8192847e-06
1.7756302e-06
1.7768773e-06
1.8034023e-06
1.8620267e-06
1.9465186e-06
2.0545097e-06
2.1851226e-06
2.3385935e-06
2.5140655e-06
2.7163279e-06
2.946485e-06
3.2070568e-06
3.5010987e-06
3.8322641e-06
4.2049154e-06
4.62429e-06
5.0967084e-06
5.6235308e-06
6.2240483e-06
6.9055671e-06
7.6824378e-06
8.5727112e-06
9.5989224e-06
1.0789419e-05
1.2179845e-05
1.3815075e-05
1.5751313e-05
1.8058362e-05
2.082277e-05
2.4152221e-05
2.8179878e-05
3.3071115e-05
3.9313098e-05
4.6653515e-05
5.5634125e-05
6.6639946e-05
8.0143428e-05
9.6726972e-05
0.00011710918
0.00014349406
0.00017458104
0.00021283444
0.00025993218
0.00031794139
0.00039307555
0.00048181167
0.0005912026
0.00073311958
0.00090077245
0.001010887
0.0010101014
0.0010092915
0.0010084513
0.0010075798
0.0010066771
0.0010057429
0.0010047773
0.0010037995
0.0010029231
0.001002246
0.00100172
0.0010013173
0.0010010131
0.001000789
0.0010006286
0.0010005041
0.0010003794
0.0010002434
0.0010001539
0.0010001085
0.0010000407
9.7922059e-08
2.7983756e-06
1.804064e-06
2.0100919e-06
1.761894e-06
1.5632938e-06
1.6727325e-06
1.5032314e-06
1.4901835e-06
1.4898481e-06
1.5177295e-06
1.5771735e-06
1.6622743e-06
1.7695566e-06
1.8980993e-06
2.0481114e-06
2.219521e-06
2.4154582e-06
2.6374841e-06
2.8879119e-06
3.169508e-06
3.4855073e-06
3.8396995e-06
4.2365681e-06
4.681487e-06
5.1773887e-06
5.7375583e-06
6.3694206e-06
7.0849656e-06
7.8992374e-06
8.8313302e-06
9.905104e-06
1.1150599e-05
1.2605541e-05
1.4317386e-05
1.6345833e-05
1.8765534e-05
2.1668175e-05
2.5168294e-05
2.9406958e-05
3.4786563e-05
4.1118803e-05
4.885518e-05
5.8326511e-05
6.99386e-05
8.4191557e-05
0.00010170083
0.00012322615
0.00015105361
0.00018388323
0.00022429093
0.00027404958
0.00033534955
0.00041471236
0.00050851166
0.00062417793
0.00077425722
0.00095166931
0.0010104378
0.0010096253
0.0010087839
0.0010079141
0.001007012
0.0010060777
0.0010051148
0.0010041331
0.0010031657
0.001002404
0.0010018021
0.0010013386
0.0010009871
0.0010007267
0.0010005424
0.0010004176
0.001000324
0.0010002297
0.0010001325
0.0010000871
0.0010000758
0.0010000489
9.5716269e-08
2.182976e-06
1.534992e-06
1.5311366e-06
1.4937922e-06
1.2681881e-06
1.3113378e-06
1.2288458e-06
1.2433406e-06
1.27369e-06
1.33483e-06
1.4201514e-06
1.5266158e-06
1.6528839e-06
1.7991993e-06
1.9665615e-06
2.1558066e-06
2.3699203e-06
2.6107155e-06
2.8807282e-06
3.182869e-06
3.5204907e-06
3.8974852e-06
4.318434e-06
4.7888161e-06
5.3152924e-06
5.9060728e-06
6.5713611e-06
7.3154407e-06
8.1675794e-06
9.1421098e-06
1.0264301e-05
1.1566005e-05
1.3087219e-05
1.4878025e-05
1.7070444e-05
1.9624357e-05
2.2690926e-05
2.6392144e-05
3.0878557e-05
3.6335652e-05
4.2991612e-05
5.112844e-05
6.1093398e-05
7.3314359e-05
8.8318891e-05
0.00010675638
0.00013055803
0.00015865279
0.00019321944
0.0002357717
0.00028817916
0.00035609216
0.00043627058
0.00053511986
0.00065706121
0.00081523754
0.0010024363
0.0010099956
0.0010091547
0.0010082839
0.001007387
0.0010064598
0.0010054994
0.0010045078
0.0010035128
0.0010026446
0.0010019602
0.0010014231
0.0010010101
0.0010007001
0.0010004764
0.0010003268
0.0010002341
0.0010001692
0.0010001032
0.0010000415
0.0010000328
0.0010000506
0.0010000529
9.5868197e-08
1.6582731e-06
1.3079434e-06
1.1645727e-06
1.2245024e-06
1.0212519e-06
1.0461556e-06
1.026133e-06
1.0689871e-06
1.1286971e-06
1.2138703e-06
1.318736e-06
1.4421959e-06
1.5843779e-06
1.7463254e-06
1.9295262e-06
2.135491e-06
2.3667898e-06
2.6255825e-06
2.9145163e-06
3.2365868e-06
3.5952246e-06
3.994406e-06
4.438812e-06
4.9340473e-06
5.4869371e-06
6.1059238e-06
6.8015635e-06
7.5871442e-06
8.4794699e-06
9.4997837e-06
1.0674995e-05
1.2039023e-05
1.3634529e-05
1.5514937e-05
1.7746917e-05
2.041345e-05
2.361781e-05
2.748782e-05
3.2181748e-05
3.7895109e-05
4.4868457e-05
5.3396041e-05
6.3842438e-05
7.6655564e-05
9.3152588e-05
0.00011263001
0.00013657
0.00016601393
0.00020224803
0.00024685928
0.00030464174
0.00037285158
0.00045692472
0.00056061656
0.00069527729
0.00085446346
0.0010104315
0.0010095721
0.0010087034
0.0010078048
0.0010068802
0.0010059291
0.0010049526
0.0010039559
0.001002975
0.0010022055
0.0010015871
0.0010011026
0.0010007296
0.0010004519
0.0010002573
0.0010001352
0.0010000686
0.0010000294
0.00099999266
0.00099996707
0.00099999029
0.0010000324
0.0010000515
9.9176924e-08
1.2300576e-06
1.1199744e-06
8.9653038e-07
1.0675221e-06
8.1754486e-07
8.6412468e-07
8.8873972e-07
9.5434461e-07
1.0371284e-06
1.1396896e-06
1.2595531e-06
1.397072e-06
1.5532248e-06
1.7294687e-06
1.9275113e-06
2.1492939e-06
2.3968336e-06
2.6727579e-06
2.9796904e-06
3.3206902e-06
3.6992592e-06
4.1194603e-06
4.586083e-06
5.1048711e-06
5.6828315e-06
6.3286495e-06
7.0532561e-06
7.870455e-06
8.797779e-06
9.857417e-06
1.1077548e-05
1.2493723e-05
1.4150686e-05
1.6104476e-05
1.8425047e-05
2.1199385e-05
2.4535342e-05
2.8566336e-05
3.3457136e-05
3.9680162e-05
4.7006827e-05
5.5965437e-05
6.6937927e-05
8.0393733e-05
9.6911072e-05
0.00011720272
0.00014214763
0.00017282698
0.00021254957
0.0002593821
0.00031705202
0.00038811051
0.00047572178
0.00058951026
0.00072395145
0.00089002181
0.0010100463
0.0010091734
0.001008284
0.0010073636
0.0010064135
0.0010054343
0.0010044322
0.0010034317
0.0010025395
0.0010018361
0.001001275
0.0010008344
0.0010004945
0.001000242
0.0010000693
0.00099996666
0.00099991667
0.0009998956
0.00099988476
0.00099989549
0.00099995096
0.0010000159
0.0010000499
1.0575112e-07
9.528185e-07
9.5607075e-07
7.5798692e-07
7.6119401e-07
6.9732368e-07
7.4222794e-07
8.0188298e-07
8.8472626e-07
9.8361737e-07
1.0992351e-06
1.2314707e-06
1.3813692e-06
1.5502361e-06
1.7396537e-06
1.951388e-06
2.1874125e-06
2.4499248e-06
2.7413857e-06
3.0645638e-06
3.4226009e-06
3.8191007e-06
4.2582524e-06
4.7450072e-06
5.2853225e-06
5.8843767e-06
6.5542341e-06
7.3048501e-06
8.157862e-06
9.1200584e-06
1.0219644e-05
1.1486183e-05
1.2956939e-05
1.4678749e-05
1.6710228e-05
1.9124437e-05
2.2012144e-05
2.54858e-05
2.9684393e-05
3.4779459e-05
4.0982465e-05
4.8553916e-05
5.7814413e-05
6.9156708e-05
8.3066136e-05
0.00010013964
0.00012219106
0.00014817031
0.00018011019
0.00021940315
0.00026776971
0.00032734161
0.00040076045
0.00049597555
0.00060853432
0.00074753069
0.00091934364
0.0010096927
0.0010088065
0.0010079019
0.0010069683
0.0010060047
0.0010050107
0.0010039942
0.0010029947
0.0010021836
0.0010015309
0.0010010153
0.0010006121
0.0010003022
0.0010000723
0.00099991497
0.0009998264
0.00099978436
0.00099977122
0.00099977556
0.00099981258
0.00099989889
0.00099999802
0.0010000466
1.2026858e-07
9.5590115e-07
7.9786636e-07
5.6213184e-07
6.0494917e-07
6.0781887e-07
6.7097462e-07
7.4937062e-07
8.4570355e-07
9.5673204e-07
1.0834266e-06
1.2266017e-06
1.3875384e-06
1.567637e-06
1.7685051e-06
1.9919329e-06
2.2399213e-06
2.5147084e-06
2.8188047e-06
3.1550383e-06
3.5266156e-06
3.9372073e-06
4.3910724e-06
4.8932341e-06
5.4497308e-06
6.0679596e-06
6.7571318e-06
7.528858e-06
8.3978901e-06
9.3830087e-06
1.050809e-05
1.1803444e-05
1.3307329e-05
1.5067842e-05
1.714515e-05
1.9614215e-05
2.2568103e-05
2.6122002e-05
3.0418145e-05
3.5631863e-05
4.1979125e-05
5.008214e-05
5.9629305e-05
7.1318238e-05
8.5647876e-05
0.00010323149
0.0001248253
0.00015136227
0.00018399434
0.00022414346
0.00027357284
0.00033755381
0.00041315976
0.00050640266
0.00062150357
0.00076373223
0.00093967256
0.0010093928
0.0010084897
0.0010075677
0.0010066205
0.0010056468
0.0010046472
0.0010036326
0.0010026599
0.0010019035
0.0010012898
0.0010008066
0.0010004312
0.0010001471
0.00099994137
0.00099979604
0.00099971819
0.00099968202
0.00099967351
0.00099968547
0.00099973123
0.00099982275
0.00099993429
0.0010000117
1.1027977e-07
6.1699773e-07
6.3276245e-07
4.6555002e-07
5.0762349e-07
5.5313403e-07
6.3140847e-07
7.2340091e-07
8.3038089e-07
9.5167676e-07
1.0883518e-06
1.2414492e-06
1.4122771e-06
1.6022898e-06
1.8131278e-06
2.046627e-06
2.3048429e-06
2.5900428e-06
2.9048485e-06
3.2521369e-06
3.6351829e-06
4.0577274e-06
4.5241005e-06
5.0393999e-06
5.6097458e-06
6.2426304e-06
6.9473827e-06
7.7357712e-06
8.6298306e-06
9.6376901e-06
1.0788561e-05
1.211351e-05
1.3651697e-05
1.5452306e-05
1.7576806e-05
2.0101728e-05
2.3122022e-05
2.6755165e-05
3.1146196e-05
3.6473881e-05
4.2958273e-05
5.0869922e-05
6.0541185e-05
7.2381996e-05
8.6896264e-05
0.00010470501
0.000126574
0.00015479501
0.00018808357
0.00022902845
0.00027942725
0.00034150648
0.00041803258
0.00051244947
0.00062905462
0.00077322488
0.00095169105
0.0010091784
0.0010082588
0.0010073179
0.001006352
0.0010053609
0.0010043486
0.0010033369
0.0010024228
0.0010016998
0.0010011166
0.0010006567
0.0010002977