/*--------------------------------*- C++ -*----------------------------------*\
  =========                 |
  \\      /  F ield         | OpenFOAM: The Open Source CFD Toolbox
   \\    /   O peration     | Website:  https://openfoam.org
    \\  /    A nd           | Version:  12
     \\/     M anipulation  |
\*---------------------------------------------------------------------------*/
FoamFile
{
    format      ascii;
    class       volScalarField;
    location    "0.103";
    object      omega;
}
// * * * * * * * * * * * * * * * * * * * * * * * * * * * * * * * * * * * * * //

dimensions      [0 0 -1 0 0 0 0];

internalField   nonuniform List<scalar> 
16000
(
1090.7504
2192.4465
1071.8524
643.61285
454.20355
315.91488
239.69734
180.96273
145.79201
118.04724
100.31807
85.864616
75.160615
66.212625
58.913165
52.762024
47.569419
43.140313
39.334435
36.039775
33.172301
30.661092
28.447802
26.485905
24.737901
23.174615
21.771889
20.511063
19.376325
18.353247
17.428772
16.592596
15.836512
15.153575
14.537855
13.983844
13.48636
13.040508
12.642199
12.287987
11.973998
11.696152
11.451483
11.237293
11.050519
10.888036
10.747418
10.626363
10.522666
10.434237
10.35921
10.295952
10.242938
10.19882
10.162423
10.132844
10.109475
10.092059
10.08088
10.076572
10.07707
10.077042
10.076317
10.075146
10.073452
10.071274
10.068693
10.065832
10.062822
10.059752
10.056641
10.053405
10.049632
10.044413
10.039108
10.033672
10.027923
10.028544
10.021996
10.03638
1132.4873
2183.8379
1060.6865
644.00873
454.33977
318.74881
240.75312
182.74868
146.61758
119.07123
100.85726
86.425097
75.518757
66.523293
59.137668
52.936329
47.696837
43.232888
39.399691
36.083321
33.198975
30.675446
28.453431
26.485695
24.733698
23.167895
21.763425
20.501275
19.365715
18.34256
17.418489
16.58284
15.827264
15.144701
14.529257
13.97549
13.478326
13.032812
12.634668
12.280568
11.966933
11.689464
11.445036
11.231073
11.04469
10.882611
10.742368
10.621675
10.518353
10.430307
10.355637
10.292721
10.240032
10.196225
10.160098
10.130705
10.107401
10.089831
10.078037
10.072563
10.0726
10.072558
10.071775
10.070564
10.068852
10.066673
10.064099
10.061251
10.058255
10.055193
10.052069
10.048795
10.04505
10.039998
10.034939
10.02958
10.024538
10.022863
10.022143
10.037181
1172.6223
2185.3203
1049.6275
640.43441
450.99718
319.00372
239.66162
182.94011
146.17256
119.22695
100.70391
86.435865
75.415781
66.425225
59.006611
52.793656
47.543319
43.074176
39.239771
35.924459
33.043049
30.524461
28.308822
26.34867
24.604673
23.047201
21.650933
20.396582
19.268439
18.252677
17.33591
16.507212
15.758158
15.081598
14.471679
13.923011
13.430653
12.989699
12.595689
12.245273
11.93525
11.661206
11.419836
11.208585
11.024821
10.865164
10.727096
10.608353
10.506788
10.420337
10.347075
10.285406
10.233813
10.190975
10.155687
10.126982
10.104196
10.086952
10.075169
10.069109
10.068558
10.068412
10.067517
10.066211
10.064431
10.062203
10.059596
10.056721
10.053702
10.050618
10.047455
10.044103
10.040302
10.035371
10.030582
10.025535
10.020753
10.018236
10.020142
10.033799
1210.9679
2193.6139
1039.9213
637.00218
447.23916
319.03961
238.27
182.96595
145.58685
119.28154
100.49914
86.384751
75.271708
66.280058
58.835366
52.61252
47.354581
42.882652
39.04948
35.73752
32.861059
30.34929
28.141728
26.190818
24.456359
22.90869
21.52205
20.276861
19.157348
18.150086
17.241709
16.420999
15.679473
15.009861
14.406361
13.86361
13.376796
12.941116
12.551962
12.205821
11.899938
11.629844
11.392044
11.183905
11.00312
10.846219
10.710625
10.594084
10.494484
10.40981
10.338106
10.27781
10.227412
10.185619
10.151236
10.123277
10.101051
10.084162
10.072476
10.066114
10.064901
10.064599
10.063558
10.062124
10.060241
10.057934
10.05526
10.052321
10.049236
10.046083
10.04284
10.039371
10.035466
10.030608
10.026149
10.021481
10.016835
10.014016
10.017635
10.027899
1247.3378
2212.0203
1031.617
633.31833
442.73552
318.33665
236.19956
182.50686
144.62533
119.059
100.10694
86.157659
74.989117
66.003189
58.549571
52.327737
47.073073
42.607334
38.783407
35.481957
32.616668
30.117231
27.922596
25.985311
24.264373
22.730159
21.356544
20.123703
19.015696
18.019536
17.122
16.311583
15.579769
14.919157
14.323999
13.788949
13.309304
12.880415
12.49761
12.157055
11.856471
11.591413
11.358236
11.154088
10.977058
10.82362
10.691126
10.577334
10.480155
10.397659
10.327851
10.269213
10.220246
10.179694
10.14638
10.11931
10.097771
10.081352
10.069886
10.063387
10.061632
10.061109
10.059886
10.058285
10.056264
10.053842
10.051068
10.048031
10.044843
10.041579
10.038216
10.034594
10.030531
10.025816
10.021723
10.017466
10.013002
10.010266
10.014838
10.023073
1281.5886
2237.9591
1027.7088
630.35855
438.76147
317.00867
233.6542
181.6408
143.39271
118.59755
99.57156
85.776671
74.587395
65.611805
58.163701
51.952499
46.710296
42.258446
38.450524
35.165713
32.316936
29.834604
27.65712
25.737166
24.033247
22.515723
21.158148
19.94052
18.846635
17.863931
16.979471
16.181444
15.461344
14.811606
14.226552
13.700843
13.229859
12.80912
12.434022
12.100292
11.806048
11.54697
11.319365
11.119998
10.947393
10.798027
10.669172
10.5586
10.464223
10.384239
10.316604
10.259857
10.212512
10.173351
10.141233
10.115161
10.094405
10.078537
10.067377
10.060863
10.058696
10.057901
10.056463
10.054662
10.052469
10.049901
10.046997
10.043834
10.040511
10.037099
10.033576
10.02977
10.025484
10.02103
10.01733
10.013512
10.009333
10.006801
10.011342
10.018102
1313.68
2269.0357
1027.7586
627.55178
434.84072
315.04366
231.01912
180.40343
141.99122
117.90013
98.902039
85.240628
74.062844
65.103834
57.674582
51.483848
46.263177
41.833023
38.047741
34.785809
31.95904
29.498752
27.342928
25.443712
23.760509
22.263128
20.924819
19.725482
18.648563
17.681873
16.812913
16.029548
15.323326
14.686491
14.113439
13.598839
13.138134
12.726984
12.361004
12.035577
11.748773
11.496623
11.275559
11.081811
10.914299
10.769605
10.644916
10.538029
10.446818
10.369663
10.304461
10.249824
10.204277
10.166646
10.135837
10.110862
10.090974
10.075731
10.064943
10.058514
10.056053
10.054943
10.053259
10.051228
10.048834
10.04609
10.043028
10.039713
10.036231
10.032642
10.028922
10.024916
10.020364
10.016325
10.013028
10.009675
10.005891
10.003662
10.008004
10.013621
1343.7235
2302.6966
1029.3295
624.42379
430.98722
312.43155
228.38377
178.93591
140.47952
116.98774
98.115225
84.558063
73.416556
64.481277
57.082265
50.921176
45.730568
41.329827
37.572934
34.340029
31.540841
29.107604
26.978312
25.101337
23.442689
21.969143
20.653573
19.475885
18.419078
17.471234
16.620462
15.854272
15.164329
14.54264
13.983685
13.482138
13.033501
12.633526
12.278101
11.963209
11.684995
11.440698
11.227116
11.039938
10.878153
10.738686
10.618664
10.515892
10.428172
10.354125
10.291583
10.23924
10.195641
10.159656
10.130245
10.106444
10.087497
10.072938
10.062573
10.056299
10.053652
10.052192
10.050236
10.04795
10.045329
10.042383
10.039139
10.035648
10.031985
10.0282
10.024255
10.020042
10.015381
10.011753
10.008865
10.005997
10.002713
10.00083
10.004708
10.009514
1371.8134
2336.7376
1027.6594
620.5168
426.1988
309.11987
224.85072
177.07333
138.63834
115.8915
97.206603
83.727904
72.641417
63.739328
56.381658
50.258699
45.106726
40.7437
37.018023
33.820246
31.054555
28.653721
26.556714
24.710808
23.081126
21.635544
20.346477
19.193974
18.160565
17.234458
16.404563
15.658041
14.986738
14.382377
13.839535
13.352889
12.918003
12.530718
12.186985
11.882768
11.614464
11.379026
11.173857
10.994735
10.839305
10.705563
10.590744
10.492484
10.408546
10.337843
10.278146
10.228247
10.186717
10.152464
10.124518
10.101949
10.083996
10.07017
10.060263
10.054187
10.051439
10.049605
10.047355
10.044793
10.041922
10.038753
10.035306
10.031619
10.027755
10.023759
10.019574
10.01512
10.010595
10.007377
10.004898
10.002523
9.9998226
9.998352
10.001666
10.006004
1398.0424
2369.5299
1019.1073
615.52436
419.70459
305.36778
220.49292
174.7416
136.74969
114.61288
96.165883
82.7448
71.729354
62.869961
55.564683
49.483497
44.377704
40.061237
36.381361
33.227287
30.502695
28.140689
26.081574
24.271168
22.675146
21.261806
20.003168
18.87956
17.873036
16.97173
16.165471
15.441219
14.79103
14.206275
13.681635
13.211792
12.792361
12.419279
12.088655
11.796517
11.539179
11.313455
11.117271
10.946107
10.797743
10.670195
10.56145
10.468063
10.388218
10.321045
10.264344
10.216999
10.177623
10.145162
10.118718
10.097413
10.080489
10.067435
10.058011
10.052149
10.049356
10.047137
10.044575
10.041721
10.038583
10.035173
10.031504
10.027602
10.023516
10.019289
10.014872
10.010145
10.006054
10.003253
10.001182
9.9992951
9.9972211
9.9962213
9.99902
10.002652
1422.5247
2400.3883
1010.1578
609.46018
411.56095
301.21956
215.88752
172.21206
134.76085
113.15333
94.980278
81.601713
70.668711
61.852605
54.608741
48.590645
43.544835
39.286429
35.660985
32.559209
29.883323
27.566792
25.551686
23.782507
22.225095
20.848433
19.624366
18.533552
17.557595
16.684359
15.904277
15.204955
14.578418
14.015592
13.511266
13.060121
12.657833
12.300408
11.984129
11.705116
11.459772
11.244701
11.058211
10.895745
10.754927
10.63374
10.530733
10.442582
10.367421
10.303917
10.25037
10.205653
10.168484
10.137843
10.112911
10.092876
10.076994
10.064737
10.055816
10.050164
10.047346
10.04474
10.041855
10.038698
10.03528
10.031614
10.027708
10.023575
10.019245
10.014762
10.010136
10.005288
10.001797
9.9994333
9.997774
9.9963578
9.9949112
9.9944029
9.9968439
10.000029
1445.3867
2430.338
996.71782
601.84562
402.02986
296.66182
211.10755
169.42759
132.74708
111.51841
93.622719
80.268297
69.421687
60.680768
53.517359
47.57676
42.604332
38.415784
34.855191
31.814935
29.196104
26.932085
24.96726
23.245175
21.731733
20.396013
19.210872
18.156955
17.21543
16.373878
15.621227
14.949529
14.349247
13.810737
13.328884
12.898356
12.514908
12.174589
11.873896
11.60906
11.376612
11.173733
10.997437
10.844084
10.71126
10.596817
10.499779
10.416898
10.3461
10.286399
10.236356
10.194356
10.159421
10.130601
10.107162
10.088376
10.073526
10.062074
10.053679
10.048219
10.045355
10.042372
10.039156
10.035688
10.031981
10.028047
10.023892
10.019514
10.014926
10.010167
10.005327
10.000796
9.9978561
9.9959568
9.9947184
9.9937561
9.9929097
9.9928976
9.9951135
9.9979243
1466.9397
2458.4502
979.36219
593.3524
392.00675
291.69507
206.25803
166.44547
130.68163
109.68629
92.028069
78.727802
67.993292
59.348339
52.28395
46.437984
41.553234
37.447517
33.962831
30.993674
28.440786
26.236971
24.328534
22.659786
21.196274
19.904087
18.762368
17.749652
16.846535
16.040843
15.321466
14.68002
14.108432
13.596458
13.139018
12.730748
12.367536
12.045442
11.761213
11.511287
11.292106
11.100769
10.935178
10.791331
10.666862
10.55989
10.468816
10.391329
10.325126
10.269123
10.222198
10.183189
10.150534
10.123525
10.101534
10.083953
10.070099
10.059438
10.051591
10.046318
10.04333
10.039988
10.03644
10.032659
10.028657
10.024445
10.020028
10.015396
10.010545
10.005532
10.000453
9.9966571
9.9942643
9.9928472
9.9920444
9.9915235
9.9912306
9.9917111
9.9938995
9.9965628
1487.4177
2480.9756
957.85002
584.2923
381.53723
286.37328
201.42399
163.27224
128.49349
107.56167
90.180452
76.969284
66.370613
57.846963
50.902301
45.169467
40.388345
36.379236
32.982778
30.094466
27.61717
25.482226
23.634052
22.024997
20.618221
19.379092
18.285908
17.319046
16.458503
15.692191
15.00881
14.400168
13.859104
13.375571
12.944211
12.559551
12.217714
11.914722
11.647564
11.413032
11.207656
11.028411
10.87357
10.739299
10.623125
10.522989
10.437894
10.365758
10.304559
10.252374
10.208446
10.172013
10.141861
10.116684
10.096087
10.079641
10.06673
10.056816
10.049532
10.044477
10.04123
10.037551
10.033674
10.029582
10.025283
10.020787
10.016096
10.011204
10.006093
10.000883
9.9960284
9.9928906
9.9910415
9.9901122
9.9897593
9.9896728
9.9898763
9.9908405
9.9931569
9.9958656
1507.0788
2493.2105
932.23053
574.58734
370.6909
280.72774
196.68001
159.82866
126.06235
105.15171
88.052434
74.974859
64.541059
56.166414
49.364957
43.766046
39.106645
35.208572
31.914311
29.114118
26.722341
24.6662
22.892289
21.350709
20.007397
18.82684
17.78739
16.87043
16.056328
15.332839
14.688456
14.114909
13.604405
13.150678
12.746663
12.386584
12.066936
11.783686
11.533966
11.315063
11.123628
10.957367
10.813194
10.688401
10.580623
10.487515
10.40819
10.341024
10.284211
10.236239
10.195324
10.161265
10.133233
10.110088
10.090871
10.075474
10.063439
10.054201
10.047449
10.042697
10.039025
10.035029
10.030831
10.026431
10.021838
10.017058
10.012087
10.006933
10.001595
9.9961659
9.9920688
9.989535
9.9882005
9.9877473
9.9878505
9.9881947
9.9888265
9.9902508
9.9928122
9.9957524
1526.1433
2484.5886
902.89144
564.28144
359.51467
274.76495
192.01939
155.98731
123.31101
102.41137
85.614171
72.721705
62.488499
54.295509
47.664461
42.222135
37.705366
33.929537
30.752968
28.061404
25.768787
23.802378
22.111304
20.645207
19.371768
18.255953
17.275287
16.410141
15.645572
14.967593
14.364338
13.828135
13.35144
12.928055
12.551984
12.216841
11.919609
11.656278
11.423907
11.220508
11.042458
10.887811
10.754204
10.638663
10.539127
10.453567
10.379945
10.317564
10.264739
10.220452
10.182886
10.151124
10.124967
10.103561
10.085889
10.071479
10.060247
10.051607
10.045278
10.040789
10.036702
10.032396
10.02789
10.023191
10.018308
10.01325
10.008006
10.002578
9.997095
9.9919364
9.9885827
9.9866112
9.9857503
9.9857422
9.98629
9.9870615
9.9880634
9.9898887
9.992832
9.9959923
1544.778
2434.986
871.31477
553.40926
348.06504
268.39731
187.13178
151.72007
120.12609
99.292777
82.831862
70.185059
60.196977
52.224572
45.794173
40.528203
36.177002
32.553812
29.515125
26.947464
24.768043
22.902864
21.303839
19.921084
18.721115
17.674837
16.757686
15.950278
15.237379
14.606752
14.045863
13.547583
13.104697
12.711504
12.363034
12.052613
11.777489
11.533938
11.318671
11.130424
10.965548
10.822108
10.698508
10.591751
10.499748
10.420834
10.353313
10.295556
10.24645
10.205486
10.170856
10.141642
10.117192
10.09732
10.080988
10.067667
10.057163
10.049067
10.043042
10.038695
10.034246
10.029641
10.024843
10.019857
10.014689
10.009359
10.003869
9.9982031
9.992523
9.9883019
9.9855866
9.9841292
9.9836945
9.9840849
9.9850399
9.9862228
9.9875806
9.9897692
9.9930969
9.9965052
1562.8454
2399.742
839.46722
541.91253
336.34453
261.08351
182.09078
146.92363
116.39382
95.737828
79.67031
67.340735
57.651058
49.945278
43.741607
38.695931
34.543166
31.096881
28.217463
25.790922
23.738024
21.985238
20.483393
19.191116
18.072865
17.099773
16.24858
15.50033
14.839869
14.256769
13.738394
13.27792
12.868586
12.504781
12.181721
11.895271
11.641435
11.417103
11.219413
11.045643
10.893503
10.760703
10.646415
10.547963
10.463076
10.39021
10.32788
10.274721
10.229489
10.191529
10.159564
10.132592
10.109976
10.091433
10.076317
10.064007
10.054175
10.046604
10.040806
10.036413
10.031659
10.026764
10.021691
10.016437
10.010997
10.005389
9.9996594
9.9939221
9.9886402
9.9851885
9.9830731
9.9820811
9.9820275
9.9827638
9.9840664
9.9856161
9.9873166
9.9898039
9.9933581
9.997035
1579.8891
2357.4294
806.69801
529.4577
324.24991
252.58946
176.7029
141.48261
112.00547
91.685235
76.095811
64.167805
54.831983
47.443174
41.532222
36.747909
32.827998
29.585335
26.885462
24.616144
22.697838
21.067399
19.673508
18.475802
17.441459
16.543113
15.758461
15.069501
14.460894
13.922766
13.445822
13.021954
12.645027
12.309975
12.012474
11.748597
11.514805
11.308072
11.125833
10.9658
10.825897
10.704075
10.598395
10.507588
10.429313
10.362086
10.304544
10.25549
10.213851
10.178652
10.149099
10.124203
10.103315
10.085941
10.07186
10.060387
10.051251
10.04419
10.038647
10.033961
10.028953
10.023787
10.018449
10.012944
10.007259
10.001397
9.9954276
9.9896206
9.9853905
9.982585
9.9810056
9.9804362
9.9807272
9.9817616
9.9833414
9.9851816
9.9871939
9.9899428
9.9936129
9.9975015
1595.2466
2289.6064
772.27342
515.54972
311.01323
242.76573
170.65339
135.25699
106.86017
87.075884
72.082355
60.646971
51.757226
44.766377
39.202631
34.723155
31.069815
28.054385
25.547166
23.448325
21.678434
20.175953
18.892926
17.791455
16.841064
16.016474
15.296483
14.663485
14.105667
13.612129
13.17445
12.785287
12.438854
12.130507
11.856496
11.613525
11.39839
11.208156
11.040425
10.892948
10.763875
10.65159
10.554691
10.470803
10.398557
10.336483
10.283295
10.237874
10.199262
10.166907
10.139473
10.116391
10.097025
10.080889
10.067717
10.056957
10.048368
10.041725
10.036418
10.031391
10.026158
10.020744
10.015157
10.009407
10.003499
9.9974349
9.9913651
9.9861814
9.9826606
9.9804424
9.9793286
9.9791382
9.9797451
9.981043
9.9828419
9.9848902
9.9871428
9.9901101
9.9938453
9.997881
1607.8194
2220.5566
735.29283
499.60549
296.99384
231.41581
163.47164
128.07905
100.88076
81.879714
67.624144
56.819493
48.489061
41.974269
36.812788
32.674944
29.315159
26.541366
24.243388
22.322212
20.704001
19.331278
18.159056
17.152169
16.282887
15.528638
14.868952
14.290401
13.779977
13.327715
12.926465
12.569449
12.251326
11.96773
11.715216
11.491072
11.292827
11.117517
10.963043
10.827227
10.708205
10.605021
10.51528
10.437704
10.370853
10.313429
10.264209
10.222162
10.186431
10.156275
10.130755
10.109267
10.091254
10.076242
10.063888
10.053754
10.045596
10.039226
10.034059
10.028752
10.023312
10.017685
10.011874
10.005888
9.9997656
9.993589
9.987619
9.9833497
9.9804275
9.9786987
9.9779757
9.978113
9.9790055
9.9805404
9.9825198
9.9847199
9.9871594
9.9903069
9.9940778
9.9981462
1614.8019
2136.8833
695.51898
479.92765
281.92072
218.22044
154.68263
119.81085
94.066926
76.144469
62.805697
52.79423
45.12503
39.153873
34.437241
30.664933
27.609883
25.092896
23.007413
21.264679
19.796366
18.550094
17.484821
16.568338
15.775264
15.085491
14.482779
13.953509
13.486647
13.072001
12.703685
12.375707
12.083248
11.822273
11.589423
11.382077
11.198858
11.036751
10.893976
10.768693
10.659093
10.563441
10.480304
10.40832
10.346229
10.292894
10.247216
10.208075
10.174996
10.146826
10.122963
10.102834
10.085973
10.071989
10.060361
10.050799
10.043027
10.03681
10.031641
10.026106
10.020467
10.014656
10.008668
10.002486
9.9961413
9.9898618
9.9846726
9.9810227
9.9786237
9.9772947
9.9768852
9.9772884
9.9784237
9.9801676
9.9823109
9.9846489
9.9872482
9.9905256
9.9943148
9.9983359
1611.0184
2034.2126
652.43835
454.21893
265.61473
202.82782
144.04525
110.47701
86.570339
69.999202
57.81418
48.719865
41.785405
36.401176
32.15371
28.757345
26.007571
23.746085
21.868772
20.297828
18.971899
17.844363
16.878731
16.046265
15.324189
14.694437
14.142591
13.656848
13.227431
12.846421
12.507275
12.204899
11.935028
11.694155
11.479311
11.287947
11.117876
10.967281
10.83442
10.717737
10.615754
10.526953
10.44965
10.382662
10.324761
10.27492
10.232471
10.196054
10.164963
10.138548
10.116158
10.097196
10.081384
10.068125
10.057117
10.048052
10.040689
10.034622
10.029237
10.023536
10.017709
10.011716
10.005569
9.9992796
9.9928977
9.9867176
9.9822883
9.979151
9.9771748
9.9761732
9.9760137
9.9766188
9.9779353
9.9798386
9.9821216
9.9846084
9.9873851
9.9907717
9.994563
9.9984654
1590.3214
1902.8715
606.25983
421.8038
248.08105
185.02889
131.7824
100.40483
78.742486
63.771382
52.872061
44.76273
38.594023
33.809653
30.033905
27.008394
24.551785
22.533038
20.850956
19.438814
18.242981
17.222807
16.346553
15.589102
14.930324
14.35403
13.847372
13.40043
13.004525
12.652689
12.338904
12.058672
11.808176
11.584297
11.38441
11.206263
11.047875
10.907464
10.783404
10.674197
10.578532
10.495583
10.423336
10.360719
10.30662
10.260026
10.220025
10.185785
10.156446
10.131447
10.11038
10.092495
10.077401
10.064747
10.054219
10.045575
10.038446
10.032504
10.026937
10.021117
10.015145
10.008989
10.00266
9.9962012
9.9898078
9.9843201
9.9803877
9.9776713
9.9760218
9.975284
9.975335
9.9760981
9.9775261
9.9795171
9.9818794
9.9844897
9.98745
9.990962
9.9947698
9.9985769
1543.8645
1742.7335
558.14707
383.47529
230.22318
165.09496
118.58131
90.221232
71.042377
57.786532
48.204578
41.083074
35.667673
31.463867
28.138877
25.464743
23.282361
21.478761
19.971958
18.700634
17.619125
16.692448
15.893382
15.200384
14.596101
14.066227
13.598265
13.184244
12.816452
12.489423
12.197156
11.935709
11.701661
11.492214
11.305002
11.137997
10.989411
10.857633
10.741183
10.638683
10.548838
10.470426
10.402265
10.343066
10.291855
10.247663
10.209676
10.177342
10.1496
10.125911
10.105735
10.088624
10.074155
10.06196
10.051838
10.043399
10.036414
10.030513
10.024794
10.018881
10.012823
10.006587
10.000172
9.9936375
9.9872877
9.9824618
9.9789325
9.9765489
9.9751453
9.974602
9.9748235
9.9757379
9.9772269
9.9792427
9.9816097
9.9842653
9.987337
9.9909719
9.9949008
9.9986448
1463.5017
1580.5508
509.09077
343.98321
206.25152
145.78461
105.38459
80.616713
63.927397
52.358641
44.027124
37.835815
33.116757
29.439482
26.516861
24.153542
22.213504
20.600126
19.243585
18.092674
17.108173
16.260227
15.525453
14.885305
14.324847
13.831903
13.396451
13.010188
12.666377
12.359412
12.084645
11.838422
11.617672
11.419861
11.242841
11.084757
10.943964
10.818964
10.708363
10.610849
10.525193
10.450314
10.385501
10.329145
10.280385
10.238305
10.202095
10.171018
10.144408
10.12162
10.102172
10.085633
10.071716
10.059925
10.050006
10.041703
10.034763
10.028824
10.022943
10.016912
10.010754
10.004448
9.9980004
9.9914987
9.9853861
9.9810254
9.9778415
9.9757398
9.9745479
9.9741498
9.974464
9.9755169
9.9770574
9.9790824
9.9814394
9.9840933
9.9871554
9.9907322
9.9946349
9.9984532
1351.0695
1492.1846
462.96252
296.61825
182.39813
127.64635
93.454105
72.112675
57.770987
47.780568
40.557262
35.172016
31.044764
27.806641
25.214563
23.10385
21.359841
19.900541
18.665118
17.611238
16.705116
15.92101
15.238601
14.641644
14.116967
13.653803
13.243246
12.877966
12.552014
12.260912
11.999733
11.765284
11.554753
11.365834
11.196562
11.045242
10.910366
10.790558
10.684538
10.591088
10.509036
10.437235
10.374559
10.320076
10.272839
10.232003
10.196796
10.166555
10.140813
10.118733
10.09988
10.083809
10.07015
10.05858
10.048814
10.040596
10.033675
10.027679
10.021657
10.015488
10.009187
10.002747
9.9962012
9.989722
9.9840677
9.979971
9.9770333
9.9751373
9.9741452
9.9738628
9.974312
9.9753696
9.9769745
9.9790131
9.9813926
9.984084
9.9871627
9.990683
9.9945066
9.9983181
1218.122
1250.5041
422.78675
254.35798
160.21338
112.51875
83.582198
65.245279
52.904883
44.251806
37.948031
33.205367
29.536918
26.632703
24.287952
22.363342
20.761401
19.41227
18.264752
17.280522
16.430458
15.691892
15.046876
14.480916
13.982112
13.540565
13.148234
12.798363
12.485381
12.204687
11.952513
11.725715
11.52171
11.338333
11.173746
11.026355
10.894739
10.777599
10.673729
10.581995
10.501376
10.431142
10.369733
10.316313
10.269964
10.229865
10.195259
10.165465
10.13987
10.11794
10.099189
10.083195
10.069589
10.058051
10.048301
10.040088
10.03316
10.027146
10.021096
10.01488
10.008518
10.001998
9.9953648
9.9888404
9.983395
9.979428
9.9766018
9.9748
9.9739012
9.973673
9.9741842
9.975283
9.9769034
9.9789536
9.981357
9.9840899
9.9871888
9.990667
9.9944186
9.9982189
1098.6096
1112.7051
390.11307
223.64781
143.61775
101.3902
76.270167
60.242562
49.425574
41.775067
36.14491
31.868256
28.529472
25.863598
23.694374
21.901068
20.398623
19.125682
18.03703
17.09868
16.284588
15.574417
14.95199
14.404318
13.921258
13.49247
13.110693
12.769545
12.463786
12.189056
11.941762
11.71894
11.51814
11.337314
11.174727
11.028872
10.898407
10.782103
10.678806
10.587418
10.506884
10.436189
10.374371
10.320497
10.273695
10.233155
10.19813
10.167942
10.141981
10.119703
10.100627
10.084329
10.070438
10.058633
10.048631
10.040184
10.033046
10.026887
10.020924
10.014762
10.008479
10.002049
9.9955098
9.989046
9.9834775
9.9794532
9.9765781
9.9747442
9.973829
9.9735987
9.9741167
9.9752163
9.9768358
9.9788895
9.981315
9.9840856
9.987205
9.9906562
9.9943541
9.9981518
1043.7013
1071.5708
365.85274
206.56029
132.74479
93.83498
70.82016
56.265466
46.460562
39.516165
34.389861
30.477986
27.410787
24.951518
22.942635
21.275836
19.874591
18.683525
17.661738
16.778446
16.010047
15.338098
14.747891
14.227461
13.766902
13.35792
12.993489
12.667696
12.375569
12.112962
11.876436
11.663152
11.470762
11.297313
11.141156
11.000869
10.875194
10.762982
10.66316
10.574706
10.496635
10.427996
10.367871
10.315389
10.269723
10.230102
10.195817
10.166218
10.140721
10.118803
10.099999
10.0839
10.070149
10.058431
10.048475
10.040037
10.032878
10.026673
10.020645
10.014427
10.00809
10.001614
9.9950445
9.9886025
9.9832526
9.979325
9.9765147
9.9747044
9.9737677
9.973499
9.9740622
9.9751351
9.9767414
9.9787885
9.9812233
9.9840146
9.9871491
9.9905955
9.9942804
9.9981038
31540.404
79342.035
37147.823
10776.385
1419.9099
611.95711
434.5356
350.9298
290.71247
236.43077
192.58273
159.30192
134.70286
116.44918
102.40253
90.91791
81.19717
72.90446
65.804207
59.680574
54.355173
49.692392
45.587394
41.954809
38.729285
35.846325
33.260537
30.931913
28.828574
26.925365
25.200822
23.635815
22.213638
20.919587
19.742119
18.671523
17.699055
16.816967
16.018186
15.296273
14.645621
14.060666
13.536342
13.068086
12.65141
12.28208
11.956264
11.669923
11.41937
11.201247
11.012282
10.849364
10.709526
10.590245
10.48901
10.40363
10.333803
10.279268
10.23992
10.218435
10.21144
10.209807
10.208153
10.205614
10.202492
10.198749
10.194072
10.187019
10.177042
10.165526
10.149727
10.136758
10.108498
10.095002
10.073623
10.080229
10.044434
10.074037
10.001991
10.026996
20023.834
59642.761
24699.881
5113.1964
974.13449
529.21405
398.14272
321.73985
264.24216
212.83637
174.50579
145.68613
124.62665
108.83531
96.36863
85.907798
76.990012
69.374013
62.83026
57.157405
52.200854
47.844557
43.99638
40.580294
37.534395
34.805608
32.352505
30.137662
28.132954
26.31576
24.666276
23.166773
21.801866
20.558025
19.424927
18.393586
17.455844
16.604503
15.832929
15.135103
14.505783
13.939641
13.431921
12.978299
12.574464
12.216384
11.9004
11.622579
11.37941
11.167665
10.984175
10.825934
10.690079
10.574197
10.475859
10.392843
10.32452
10.271295
10.233145
10.212869
10.206463
10.204999
10.203343
10.200826
10.197738
10.194021
10.189509
10.183098
10.173776
10.162757
10.147655
10.135069
10.108079
10.095299
10.073843
10.080995
10.044815
10.075118
10.002147
10.026565
28326.518
35503.021
13555.679
2559.544
837.80244
499.20349
388.06443
306.40635
250.76452
201.22736
166.71908
139.58725
120.05007
105.15068
93.262009
83.210998
74.671272
67.3796
61.102659
55.651814
50.88388
46.689656
42.981193
39.685764
36.742561
34.104347
31.73098
29.585986
27.643302
25.881234
24.280679
22.824592
21.498277
20.288802
19.186541
18.182822
17.269812
16.440631
15.688883
15.008797
14.39535
13.843337
13.348209
12.905785
12.511861
12.162539
11.854273
11.583194
11.345919
11.139306
10.960256
10.805841
10.673291
10.560282
10.464312
10.383341
10.316253
10.264038
10.226804
10.207439
10.201475
10.200154
10.198515
10.196035
10.192989
10.189304
10.184784
10.178984
10.17037
10.159889
10.145526
10.133334
10.107712
10.095477
10.074002
10.081632
10.045144
10.076045
10.00245
10.026262
35887.488
24041.108
8372.6882
1549.352
755.11331
475.87244
375.63805
290.42164
239.49754
190.53278
159.67723
133.66831
115.70416
101.60736
90.294056
80.648302
72.474779
65.485666
59.458617
54.216792
49.626215
45.584015
42.006478
38.824194
35.979646
33.425007
31.126392
29.047445
27.163701
25.454172
23.900432
22.48606
21.196986
20.020821
18.948597
17.971878
17.083147
16.275806
15.543669
14.881198
14.283565
13.745669
13.263166
12.831999
12.448061
12.107588
11.807135
11.542894
11.311611
11.110224
10.935703
10.7852
10.6561
10.545941
10.45241
10.373521
10.307878
10.256695
10.220406
10.201937
10.196457
10.195282
10.193663
10.191225
10.188225
10.184579
10.180106
10.17461
10.16674
10.156833
10.143248
10.131462
10.107253
10.09549
10.074096
10.082152
10.045423
10.076836
10.002866
10.026126
40419.19
20495.754
5892.9063
1229.2027
720.60699
458.39555
365.93513
277.93175
231.29569
182.37588
154.68972
129.06818
112.42404
98.793383
87.90778
78.562109
70.674267
63.91702
58.083797
53.005922
48.556029
44.635624
41.16392
38.073903
35.31002
32.827062
30.58917
28.565914
26.732332
25.067849
23.554553
22.176486
20.920069
19.773333
18.727851
17.77531
16.908464
16.120931
15.406685
14.760377
14.177334
13.652525
13.181792
12.761165
12.386618
12.054505
11.761462
11.503731
11.278177
11.081803
10.911645
10.764937
10.639148
10.531772
10.44062
10.363768
10.299663
10.249453
10.21407
10.196343
10.191428
10.190386
10.188794
10.186406
10.183457
10.179856
10.175427
10.170036
10.162912
10.153618
10.140841
10.129483
10.106703
10.095355
10.074119
10.082548
10.045655
10.077493
10.00337
10.026153
43220.631
19128.076
4531.2308
1156.8902
700.08763
440.00788
358.40454
268.09315
225.03407
175.854
150.77515
125.1753
109.71441
96.36786
85.85242
76.752279
69.104405
62.539265
56.86905
51.93013
47.600265
43.784322
40.403845
37.393761
34.700257
32.279485
30.095639
28.121629
26.332547
24.708286
23.231296
21.885992
20.659207
19.539317
18.518373
17.588107
16.741535
15.972439
15.274924
14.643805
14.07453
13.562125
13.102596
12.69204
12.326502
12.002438
11.716554
11.46513
11.24515
11.053671
10.8878
10.744881
10.62226
10.517622
10.428823
10.353989
10.291543
10.242264
10.207768
10.190809
10.186402
10.185475
10.183915
10.181582
10.17869
10.175138
10.170763
10.165431
10.158882
10.150236
10.138295
10.127393
10.106006
10.095177
10.074068
10.082819
10.045843
10.078018
10.003946
10.02631
45442.295
17211.433
3636.3123
1105.7722
684.72847
427.36141
352.45648
260.19627
220.17896
170.66276
147.66031
121.89936
107.46811
94.276008
84.081079
75.179812
67.732662
61.326985
55.793886
50.97264
46.745137
43.018805
39.71703
36.776284
34.144133
31.777989
29.64336
27.711706
25.961974
24.37363
22.929248
21.613523
20.413627
19.318226
18.319785
17.410029
16.582221
15.830266
15.148375
14.531508
13.975208
13.474535
13.025656
12.624705
12.267791
11.951463
11.67248
11.427159
11.212595
11.025904
10.864298
10.724958
10.605462
10.503523
10.417046
10.344207
10.283506
10.235141
10.201511
10.185363
10.181378
10.180553
10.179033
10.176761
10.173929
10.170432
10.166117
10.160867
10.154658
10.146693
10.135615
10.125189
10.105134
10.095
10.073934
10.082964
10.045982
10.078407
10.004578
10.026487
47081.787
14558.471
3063.1874