/*--------------------------------*- C++ -*----------------------------------*\
  =========                 |
  \\      /  F ield         | OpenFOAM: The Open Source CFD Toolbox
   \\    /   O peration     | Website:  https://openfoam.org
    \\  /    A nd           | Version:  12
     \\/     M anipulation  |
\*---------------------------------------------------------------------------*/
FoamFile
{
    format      ascii;
    class       volScalarField;
    location    "0.103";
    object      p;
}
// * * * * * * * * * * * * * * * * * * * * * * * * * * * * * * * * * * * * * //

dimensions      [1 -1 -2 0 0 0 0];

internalField   nonuniform List<scalar> 
16000
(
89545.374
89671.961
89683.78
89818.878
89845.126
89973.093
90023.74
90140.984
90215.087
90326.616
90419.055
90530.475
90637.035
90752.776
90870.415
90993.523
91120.713
91252.59
91389.032
91530.129
91675.89
91826.322
91981.408
92141.108
92305.354
92474.054
92647.083
92824.285
93005.473
93190.425
93378.884
93570.56
93765.128
93962.23
94161.476
94362.446
94564.695
94767.756
94971.142
95174.354
95376.884
95578.223
95777.865
95975.313
96170.085
96361.72
96549.784
96733.87
96913.607
97088.661
97258.738
97423.582
97582.981
97736.762
97884.793
98026.98
98163.266
98293.626
98418.069
98536.633
98649.381
98756.397
98857.788
98953.673
99044.19
99129.484
99209.711
99285.032
99355.618
99421.638
99483.261
99540.665
99594.045
99643.567
99689.288
99731.912
99774.783
99791.439
99883.931
99802.009
89173.554
89317.112
89326.394
89473.634
89501.493
89640.435
89693.468
89822.046
89899.972
90021.658
90120.493
90240.875
90355.759
90480.372
90607.28
90739.88
90876.974
91019.049
91166.026
91317.961
91474.851
91636.677
91803.392
91974.922
92151.16
92331.97
92517.181
92706.586
92899.942
93096.97
93297.354
93500.738
93706.735
93914.92
94124.84
94336.014
94547.935
94760.081
94971.915
95182.895
95392.479
95600.13
95805.327
96007.566
96206.369
96401.291
96591.92
96777.885
96958.856
97134.547
97304.718
97469.173
97627.759
97780.365
97926.921
98067.391
98201.777
98330.107
98452.44
98568.857
98679.463
98784.373
98883.723
98977.656
99066.327
99149.894
99228.519
99302.368
99371.606
99436.397
99496.906
99553.302
99605.748
99654.365
99699.413
99741.847
99779.481
99810.955
99873.795
99821.295
88833.427
88992.519
89001.708
89162.246
89190.07
89342.802
89397.438
89538.36
89621.124
89753.327
89859.934
89989.91
90114.384
90248.887
90386.268
90529.572
90677.808
90831.338
90990.096
91154.1
91323.314
91497.685
91677.126
91861.519
92050.711
92244.515
92442.705
92645.014
92851.136
93060.724
93273.39
93488.708
93706.214
93925.412
94145.774
94366.751
94587.773
94808.26
95027.627
95245.291
95460.683
95673.248
95882.46
96087.824
96288.883
96485.22
96676.47
96862.311
97042.474
97216.741
97384.941
97546.953
97702.698
97852.14
97995.28
98132.153
98262.824
98387.383
98505.939
98618.623
98725.579
98826.96
98922.926
99013.646
99099.288
99180.021
99256.014
99327.432
99394.434
99457.18
99515.823
99570.516
99621.391
99668.596
99712.489
99753.31
99789.144
99825.345
99870.23
99841.131
88528.265
88698.198
88708.396
88884.364
88911.658
89080.687
89137.56
89292.841
89381.438
89525.74
89641.642
89782.608
89918.331
90064.216
90213.616
90369.118
90529.94
90696.32
90868.197
91045.549
91228.312
91416.395
91609.67
91807.973
92011.097
92218.796
92430.775
92646.697
92866.176
93088.783
93314.043
93541.443
93770.432
94000.429
94230.825
94460.996
94690.305
94918.118
95143.804
95366.751
95586.371
95802.109
96013.452
96219.931
96421.132
96616.693
96806.312
96989.742
97166.795
97337.337
97501.289
97658.617
97809.331
97953.481
98091.149
98222.447
98347.51
98466.489
98579.55
98686.873
98788.642
98885.044
98976.267
99062.498
99143.919
99220.708
99293.035
99361.063
99424.944
99484.826
99540.849
99593.136
99641.805
99687.038
99729.082
99767.724
99802.477
99838.734
99873.194
99860.064
88261.959
88446.884
88453.752
88648.561
88674.786
88862.332
88921.412
89092.93
89188.67
89346.521
89473.54
89626.721
89775.239
89933.77
90096.445
90265.353
90439.923
90620.306
90806.443
90998.282
91195.727
91398.641
91606.843
91820.105
92038.148
92260.644
92487.209
92717.409
92950.759
93186.725
93424.728
93664.15
93904.34
94144.621
94384.298
94622.67
94859.041
95092.725
95323.062
95549.425
95771.231
95987.948
96199.1
96404.275
96603.126
96795.374
96980.806
97159.276
97330.697
97495.043
97652.337
97802.649
97946.089
98082.801
98212.952
98336.734
98454.352
98566.02
98671.958
98772.39
98867.539
98957.621
99042.845
99123.415
99199.522
99271.347
99339.061
99402.816
99462.756
99519.016
99571.713
99620.943
99666.823
99709.532
99749.118
99785.294
99818.701
99852.723
99880.187
99879.233
88039.294
88241.905
88246.687
88462.617
88487.733
88695.797
88757.189
88946.652
89050.77
89222.94
89362.328
89528.246
89690.482
89862.494
90039.394
90222.783
90412.269
90607.919
90809.65
91017.356
91230.877
91450.002
91674.466
91903.946
92138.06
92376.366
92618.366
92863.501
93111.16
93360.684
93611.37
93862.482
94113.257
94362.92
94610.691
94855.802
95097.506
95335.088
95567.882
95795.275
96016.717
96231.732
96439.918
96640.951
96834.587
97020.659
97199.073
97369.807
97532.899
97688.445
97836.587
97977.509
98111.425
98238.575
98359.214
98473.611
98582.036
98684.763
98782.059
98874.186
98961.398
99043.935
99122.02
99195.868
99265.672
99331.613
99393.853
99452.535
99507.79
99559.735
99608.459
99654.035
99696.586
99736.236
99772.83
99806.287
99837.939
99868.589
99890.482
99899.509
87860.682
88084.265
88086.248
88326.929
88351.044
88583.426
88648.031
88857
88969.494
89155.306
89307.979
89487.247
89664.547
89851.561
90044.391
90244.129
90450.466
90663.363
90882.666
91108.182
91339.653
91576.763
91819.13
92066.304
92317.769
92572.942
92831.176
93091.765
93353.949
93616.923
93879.847
94141.858
94402.084
94659.655
94913.721
95163.466
95408.12
95646.973
95879.386
96104.802
96322.748
96532.845
96734.806
96928.438
97113.634
97290.374
97458.711
97618.768
97770.728
97914.82
98051.315
98180.511
98302.727
98418.297
98527.558
98630.845
98728.49
98820.813
98908.118
98990.697
99068.825
99142.754
99212.719
99278.932
99341.585
99400.851
99456.879
99509.799
99559.724
99606.749
99650.933
99692.334
99731.075
99767.179
99800.335
99830.84
99860.242
99886.599
99903.853
99921.848
87720.054
87968.263
87965.918
88236.439
88257.393
88516.671
88584.405
88812.496
88936.673
89138.601
89308.268
89503.751
89699.176
89904.149
90115.736
90334.604
90560.478
90793.215
91032.571
91278.241
91529.846
91786.932
92048.968
92315.345
92585.379
92858.312
93133.322
93409.527
93685.999
93961.776
94235.873
94507.307
94775.106
95038.329
95296.085
95547.547
95791.965
96028.683
96257.142
96476.893
96687.594
96889.016
97081.035
97263.629
97436.869
97600.909
97755.975
97902.353
98040.376
98170.416
98292.866
98408.138
98516.647
98618.809
98715.029
98805.699
98891.194
98971.868
99048.051
99120.051
99188.152
99252.61
99313.657
99371.498
99426.316
99478.267
99527.485
99574.082
99618.149
99659.754
99698.928
99735.723
99770.247
99802.38
99831.742
99859.115
99885.779
99907.075
99920.427
99946.766
87615.448
87892.126
87885.368
88192.906
88207.898
88495.952
88569.084
88819.217
88960.3
89180.895
89371.263
89585.921
89802.57
90028.637
90262.017
90503.027
90751.364
91006.755
91268.828
91537.128
91811.113
92090.148
92373.511
92660.391
92949.894
93241.056
93532.846
93824.185
94113.966
94401.064
94684.366
94962.783
95235.278
95500.881
95758.71
96007.986
96248.044
96478.348
96698.488
96908.19
97107.306
97295.812
97473.797
97641.452
97799.055
97946.957
98085.568
98215.343
98336.767
98450.342
98556.576
98655.978
98749.043
98836.248
98918.051
98994.88
99067.138
99135.194
99199.388
99260.03
99317.4
99371.747
99423.291
99472.221
99518.702
99562.871
99604.84
99644.696
99682.511
99718.319
99752.126
99783.987
99813.968
99841.783
99867.107
99891.234
99914.682
99930.359
99940.576
99974.66
87549.693
87859.636
87849.752
88194.347
88208.609
88529.028
88613.646
88889.213
89050.353
89291.624
89506.353
89743.404
89984.566
90235.153
90493.657
90760.085
91034.029
91315.049
91602.589
91895.996
92194.505
92497.25
92803.259
93111.47
93420.738
93729.851
94037.55
94342.551
94643.567
94939.334
95228.637
95510.333
95783.378
96046.842
96299.933
96542.002
96772.562
96991.278
97197.976
97392.628
97575.348
97746.369
97906.035
98054.775
98193.093
98321.544
98440.719
98551.229
98653.695
98748.73
98836.934
98918.888
98995.14
99066.208
99132.575
99194.686
99252.948
99307.731
99359.366
99408.151
99454.35
99498.192
99539.876
99579.569
99617.41
99653.511
99687.958
99720.816
99752.127
99781.891
99810.102
99836.816
99862.016
99885.263
99906.429
99927.252
99947.019
99956.781
99964.838
100005.98
87529.636
87879.121
87865.242
88250.549
88268.768
88625.806
88725.485
89028.372
89215.301
89480.116
89723.464
89986.884
90256.336
90535.294
90822.611
91118.01
91420.907
91730.632
92046.382
92367.228
92692.113
93019.863
93349.198
93678.748
94007.076
94332.706
94654.142
94969.908
95278.573
95578.782
95869.288
96148.98
96416.903
96672.278
96914.515
97143.213
97358.164
97559.342
97746.888
97921.097
98082.39
98231.299
98368.44
98494.491
98610.171
98716.224
98813.398
98902.436
98984.059
99058.961
99127.801
99191.196
99249.721
99303.905
99354.23
99401.133
99445.007
99486.202
99525.025
99561.749
99596.61
99629.808
99661.511
99691.857
99720.956
99748.89
99775.719
99801.48
99826.183
99849.799
99872.317
99893.784
99914.065
99932.609
99949.631
99967.126
99982.73
99986.451
99993.429
100041.2
87563.942
87960.459
87942.683
88376.223
88399.354
88796.2
88915.504
89247.57
89466.087
89757.807
90034.188
90328.516
90630.508
90942.136
91262.366
91590.605
91925.99
92267.527
92614.062
92964.288
93316.768
93669.944
94022.166
94371.72
94716.864
95055.856
95387
95708.679
96019.397
96317.815
96602.778
96873.346
97128.804
97368.675
97592.713
97800.9
97993.421
98170.648
98333.109
98481.463
98616.468
98738.953
98849.797
98949.901
99040.17
99121.493
99194.736
99260.725
99320.242
99374.017
99422.729
99466.997
99507.389
99544.414
99578.529
99610.142
99639.61
99667.248
99693.326
99718.079
99741.705
99764.367
99786.198
99807.302
99827.754
99847.606
99866.89
99885.614
99903.753
99921.256
99938.118
99954.352
99969.674
99983.515
99996.545
100010.7
100021.68
100019.53
100026.65
100080.19
87653.529
88105.965
88084.846
88573.291
88604.934
89045.466
89192.039
89555.919
89813.203
90136.649
90451.249
90781.982
91121.603
91470.878
91828.644
92193.889
92565.329
92941.511
93320.805
93701.427
94081.471
94458.937
94831.774
95197.916
95555.336
95902.09
96236.369
96556.548
96861.225
97149.258
97419.786
97672.24
97906.341
98122.087
98319.732
98499.756
98662.826
98809.767
98941.518
99059.103
99163.592
99256.079
99337.655
99409.389
99472.311
99527.4
99575.578
99617.704
99654.567
99686.891
99715.33
99740.473
99762.846
99782.915
99801.089
99817.726
99833.133
99847.575
99861.275
99874.422
99887.169
99899.638
99911.92
99924.083
99936.166
99948.193
99960.164
99972.058
99983.816
99995.379
100006.75
100017.86
100028.29
100037.57
100046.89
100057.69
100063.66
100056.22
100064.73
100122.53
87803.685
88322.504
88298.692
88849.523
88896.021
89384.199
89567.364
89966.444
90270.334
90631.889
90990.829
91364.501
91747.734
92140.229
92540.413
92946.686
93357.179
93769.84
94182.451
94592.664
94998.045
95396.126
95784.462
96160.695
96522.618
96868.246
97195.866
97504.086
97791.869
98058.544
98303.804
98527.688
98730.552
98913.024
99075.966
99220.417
99347.553
99458.639
99554.988
99637.93
99708.781
99768.818
99819.265
99861.28
99895.942
99924.251
99947.121
99965.385
99979.792
99991.014
99999.647
100006.22
100011.18
100014.94
100017.85
100020.18
100022.19
100024.1
100026.05
100028.2
100030.65
100033.47
100036.71
100040.41
100044.56
100049.17
100054.2
100059.6
100065.29
100071.21
100077.35
100083.55
100089.25
100094.28
100100.24
100107.64
100108.36
100096.69
100107.81
100167.92
88021.016
88619.226
88594.639
89216.322
89284.958
89824.863
90055.962
90495.494
90855.062
91263.286
91674.112
92098.292
92531.706
92972.999
93419.934
93870.163
94321.085
94769.929
95213.789
95649.687
96074.646
96485.775
96880.357
97255.94
97610.417
97942.088
98249.705
98532.486
98790.111
99022.698
99230.755
99415.126
99576.932
99717.502
99838.317
99940.949
100027.02
100098.14
100155.9
100201.82
100237.36
100263.88
100282.63
100294.77
100301.35
100303.31
100301.51
100296.7
100289.55
100280.65
100270.49
100259.52
100248.12
100236.6
100225.24
100214.25
100203.81
100194.07
100185.13
100177.08
100169.99
100163.87
100158.73
100154.58
100151.38
100149.1
100147.68
100147.04
100147.08
100147.74
100149.01
100150.58
100151.85
100153.05
100156.05
100159.93
100155.31
100140.92
100155.92
100215.77
88311.825
89004.881
88982.396
89684.589
89786.793
90384.365
90678.165
91166.764
91592.605
92057.855
92528.924
93011.207
93500.788
93995.227
94491.417
94986.085
95475.731
95956.724
96425.395
96878.153
97311.612
97722.713
98108.839
98467.907
98798.413
99099.466
99370.765
99612.562
99825.598
100011.02
100170.32
100305.19
100417.53
100509.29
100582.48
100639.06
100680.95
100709.97
100727.84
100736.12
100736.3
100729.68
100717.47
100700.73
100680.42
100657.38
100632.33
100605.93
100578.71
100551.16
100523.67
100496.6
100470.21
100444.73
100420.36
100397.25
100375.49
100355.18
100336.36
100319.07
100303.31
100289.08
100276.35
100265.07
100255.18
100246.64
100239.35
100233.19
100228.08
100223.98
100220.78
100218.07
100215.32
100213.23
100213.64
100213.91
100204
100188.48
100208.62
100265.33
88683.736
89490.111
89475.384
90273.291
90426.153
91091.478
91465.159
92013.713
92516.487
93049.196
93588.251
94134.922
94684.788
95234.123
95778.63
96313.831
96835.135
97338.011
97818.171
98271.75
98695.469
99086.755
99443.81
99765.64
100052.02
100303.43
100520.96
100706.19
100861.1
100987.92
101089.05
101166.96
101224.11
101262.91
101285.66
101294.53
101291.53
101278.51
101257.13
101228.91
101195.19
101157.16
101115.89
101072.28
101027.13
100981.14
100934.88
100888.87
100843.52
100799.19
100756.16
100714.66
100674.88
100636.97
100601.03
100567.13
100535.32
100505.62
100478.02
100452.52
100429.08
100407.64
100388.15
100370.53
100354.7
100340.57
100328.04
100316.97
100307.28
100298.92
100291.73
100285.16
100278.89
100274.08
100272.21
100268.87
100254.21
100238.66
100264.4
100316.96
89156.753
90102.859
90107.265
91020.55
91241.708
91985.08
92456.048
93075.812
93665.124
94274.93
94888.44
95503.478
96114.257
96715.265
97300.618
97864.496
98401.372
98906.29
99375.093
99804.587
100192.64
100538.17
100841.14
101102.4
101323.56
101506.84
101654.87
101770.59
101857.07
101917.43
101954.71
101971.85
101971.63
101956.59
101929.09
101891.27
101845.02
101792.05
101733.86
101671.76
101606.9
101540.27
101472.72
101404.97
101337.65
101271.27
101206.26
101142.97
101081.7
101022.66
100966.04
100911.96
100860.53
100811.79
100765.78
100722.51
100681.96
100644.1
100608.88
100576.24
100546.1
100518.39
100493.01
100469.86
100448.85
100429.85
100412.74
100397.39
100383.72
100371.66
100360.94
100351.01
100341.81
100334.85
100330.89
100324.1
100305.8
100291.24
100322
100370.48
89763.297
90886.821
90920.589
91967.884
92276.233
93105.711
93692.863
94397.489
95082.943
95778.369
96469.893
97151.796
97816.094
98455.212
99061.881
99629.64
100153.15
100628.44
101052.98
101425.71
101746.91
102018.03
102241.46
102420.31
102558.16
102658.87
102726.39
102764.66
102777.46
102768.35
102740.64
102697.35
102641.22
102574.67
102499.87
102418.7
102332.81
102243.63
102152.4
102060.15
101967.78
101876.05
101785.57
101696.87
101610.38
101526.44
101445.33
101367.24
101292.36
101220.77
101152.57
101087.78
101026.42
100968.47
100913.9
100862.65
100814.66
100769.86
100728.14
100689.42
100653.58
100620.52
100590.11
100562.25
100536.8
100513.65
100492.63
100473.63
100456.59
100441.39
100427.65
100414.88
100403.4
100394.78
100388.88
100378.94
100358.41
100346
100380.88
100424.8
90532.336
91869.576
91947.437
93148.718
93578.081
94505.677
95230.666
96036.813
96825.873
97609.097
98372.049
99105.43
99799.306
100445.14
101035.99
101566.86
102034.83
102438.98
102780.19
103060.85
103284.53
103455.59
103578.92
103659.63
103702.81
103713.43
103696.17
103655.35
103594.91
103518.38
103428.91
103329.25
103221.81
103108.66
102991.58
102872.11
102751.53
102630.94
102511.24
102393.18
102277.4
102164.4
102054.58
101948.26
101845.7
101747.07
101652.5
101562.08
101475.85
101393.82
101315.98
101242.27
101172.65
101107.04
101045.34
100987.45
100933.26
100882.66
100835.52
100791.71
100751.11
100713.57
100678.96
100647.15
100618
100591.37
100567.1
100545.08
100525.26
100507.44
100491.2
100476.19
100463.07
100453.27
100445.59
100432.92
100411.46
100402.48
100440.56
100479.15
91494.187
93098.482
93257.255
94629.675
95226.009
96267.782
97147.694
98065.81
98952.771
99806.603
100611.32
101355.87
102030.99
102630.4
103150.76
103591.58
103954.77
104244.2
104465.17
104623.88
104727
104781.32
104793.43
104769.59
104715.57
104636.59
104537.3
104421.81
104293.69
104156.02
104011.44
103862.19
103710.17
103556.96
103403.9
103252.09
103102.43
102955.65
102812.35
102673
102537.97
102407.53
102281.9
102161.2
102045.54
101934.95
101829.44
101728.99
101633.54
101543.01
101457.32
101376.36
101300.01
101228.14
101160.62
101097.3
101038.04
100982.69
100931.1
100883.13
100838.61
100797.4
100759.35
100724.3
100692.12
100662.65
100635.73
100611.3
100589.24
100569.32
100551.1
100534.46
100520.31
100509.73
100500.48
100485.69
100464.62
100460.1
100500.26
100532.41
92732.515
94674.235
94958.956
96523.164
97334.106
98498.733
99528.584
100543.27
101491.06
102363.25
103146.04
103831.66
104416.42
104900.67
105288.1
105584.9
105798.96
105939.14
106014.59
106034.35
106006.97
105940.32
105841.49
105716.73
105571.5
105410.51
105237.75
105056.63
104869.97
104680.15
104489.14
104298.55
104109.7
103923.67
103741.32
103563.33
103390.24
103222.46
103060.29
102903.95
102753.59
102609.3
102471.11
102339
102212.95
102092.87
101978.68
101870.25
101767.47
101670.18
101578.24
101491.48
101409.75
101332.87
101260.67
101192.99
101129.65
101070.48
101015.31
100963.97
100916.29
100872.12
100831.29
100793.65
100759.04
100727.3
100698.31
100671.99
100648.2
100626.65
100606.97
100589.3
100574.66
100563.6
100553.04
100536.95
100517.53
100517.77
100558.32
100583.69
94379.677
96738.238
97204.132
98958.347
100019.13
101291.83
102419.03
103463.54
104387.5
105184.62
105850.61
106387.6
106802.17
107104.19
107305.52
107418.84
107456.85
107431.6
107354.17
107234.47
107081.14
106901.62
106702.23
106488.28
106264.18
106033.57
105799.44
105564.24
105329.92
105098.08
104869.97
104646.59
104428.72
104216.95
104011.73
103813.36
103622.09
103438.03
103261.27
103091.81
102929.61
102774.62
102626.72
102485.79
102351.69
102224.26
102103.32
101988.69
101880.18
101777.61
101680.76
101589.45
101503.48
101422.65
101346.76
101275.61
101209.03
101146.82
101088.8
101034.78
100984.59
100938.07
100895.04
100855.34
100818.82
100785.33
100754.75
100727
100701.92
100679.18
100658.55
100640.39
100625.68
100614.33
100602.82
100586.36
100569.66
100574.31
100613.8
100633.74
96626.868
99452.231
100161.81
102056.83
103329.6
104649.73
105757.28
106703.64
107475.71
108079.22
108525.2
108829.45
109009.93
109085.09
109072.66
108988.85
108848.05
108662.64
108443.12
108198.23
107935.15
107659.76
107376.8
107090.08
106802.63
106516.86
106234.65
105957.48
105686.48
105422.51
105166.19
104917.99
104678.23
104447.1
104224.7
104011.07
103806.17
103609.93
103422.23
103242.93
103071.84
102908.8
102753.58
102605.99
102465.79
102332.77
102206.68
102087.31
101974.41
101867.76
101767.12
101672.28
101583.01
101499.08
101420.29
101346.43
101277.3
101212.69
101152.41
101096.28
101044.11
100995.73
100950.98
100909.68
100871.69
100836.86
100805.11
100776.33
100750.32
100726.79
100705.67
100687.45
100672.93
100661.44
100649.38
100633.52
100620.42
100629.29
100666.53
100679.55
99728.09
102931.25
103948.7
105910.57
107224.69
108397.44
109318.51
110012.61
110497.5
110799.89
110947.79
110968.77
110888
110727.51
110505.99
110238.9
109938.79
109615.76
109277.8
108931.22
108580.91
108230.7
107883.51
107541.58
107206.58
106879.77
106562.06
106254.09
105956.29
105668.93
105392.15
105125.98
104870.39
104625.26
104390.45
104165.77
103951.01
103745.92
103550.27
103363.78
103186.19
103017.23
102856.62
102704.08
102559.34
102422.13
102292.17
102169.2
102052.96
101943.19
101839.64
101742.06
101650.23
101563.89
101482.83
101406.83
101335.68
101269.18
101207.11
101149.31
101095.57
101045.74
100999.63
100957.09
100917.97
100882.15
100849.54
100820.02
100793.39
100769.44
100748.2
100730.23
100716.02
100704.52
100692.5
100678.27
100669.04
100680.54
100714.04
100723.15
103940.95
107358.97
108580.12
110278.32
111409.33
112244.2
112781.88
113077.18
113174.85
113118.09
112943.45
112681.28
112355.89
111986.38
111587.53
111170.68
110744.38
110315.08
109887.59
109465.45
109051.27
108646.9
108253.67
107872.45
107503.83
107148.14
106805.52
106476
106159.47
105855.78
105564.7
105285.95
105019.25
104764.28
104520.7
104288.19
104066.39
103854.97
103653.58
103461.87
103279.52
103106.2
102941.58
102785.34
102637.17
102496.76
102363.83
102238.08
102119.22
102007
101901.13
101801.38
101707.47
101619.18
101536.28
101458.53
101385.73
101317.66
101254.12
101194.93
101139.9
101088.86
101041.65
100998.1
100958.08
100921.49
100888.23
100858.17
100831.15
100807.02
100785.92
100768.32
100754.44
100743.11
100731.81
100720
100714.3
100726.62
100755.84
100764.27
109194.89
112575.64
113700.29
114833.04
115448.65
115735.61
115758.61
115591.21
115287.66
114890.5
114431.33
113933.44
113413.75
112884.42
112354.1
111828.92
111313.13
110809.65
110320.43
109846.7
109389.2
108948.3
108524.11
108116.52
107725.34
107350.24
106990.85
106646.76
106317.51
106002.66
105701.73
105414.25
105139.77
104877.83
104627.99
104389.8
104162.85
103946.71
103741
103545.31
103359.28
103182.53
103014.71
102855.48
102704.51
102561.46
102426.03
102297.92
102176.83
102062.48
101954.59
101852.91
101757.18
101667.14
101582.58
101503.25
101428.95
101359.46
101294.59
101234.14
101177.94
101125.81
101077.59
101033.14
100992.33
100955.06
100921.23
100890.74
100863.43
100839.26
100818.39
100801.16
100787.57
100776.58
100766.46
100757.46
100754.9
100766.81
100790.71
100798.81
115440.61
117962.66
118577.48
118861.56
118769.15
118441.51
117958.24
117380.07
116747.7
116088.72
115421.44
114757.9
114105.93
113470.47
112854.55
112259.93
111687.46
111137.43
110609.73
110104.01
109619.73
109156.28
108712.98
108289.1
107883.93
107496.75
107126.87
106773.6
106436.27
106114.25
105806.94
105513.74
105234.09
104967.46
104713.33
104471.21
104240.62
104021.12
103812.26
103613.64
103424.84
103245.49
103075.21
102913.64
102760.44
102615.27
102477.82
102347.77
102224.83
102108.71
101999.12
101895.81
101798.52
101707
101621.01
101540.32
101464.73
101394.01
101327.97
101266.43
101209.21
101156.13
101107.05
101061.82
101020.32
100982.47
100948.16
100917.3
100889.8
100865.64
100844.98
100828.01
100814.63
100804.05
100795.29
100788.9
100788.67
100799.4
100818.42
100827.18
122091.38
122535.25
122318.67
121770.33
121039.27
120215.6
119355.54
118490.92
117640.32
116813.99
116017.38
115253.03
114521.78
113823.43
113157.21
112522.02
111916.58
111339.56
110789.6
110265.38
109765.65
109289.18
108834.84
108401.55
107988.29
107594.11
107218.13
106859.5
106517.45
106191.22
105880.14
105583.54
105300.8
105031.34
104774.6
104530.07
104297.23
104075.62
103864.79
103664.29
103473.71
103292.66
103120.75
102957.63
102802.93
102656.32
102517.48
102386.09
102261.85
102144.47
102033.67
101929.18
101830.75
101738.13
101651.08
101569.37
101492.78
101421.12
101354.18
101291.78
101233.73
101179.89
101130.08
101084.19
101042.1
101003.71
100968.94
100937.7
100909.94
100885.68
100865.04
100848.1
100834.74
100824.47
100816.81
100812.36
100813.49
100822.75
100838
100847.9
125976.23
125350.67
124434.93
123382.2
122297.14
121223.85
120185.07
119190.11
118242.45
117342.33
116488.49
115678.87
114911.13
114182.84
113491.62
112835.19
112211.43
111618.35
111054.13
110517.08
110005.65
109518.43
109054.1
108611.45
108189.37
107786.83
107402.87
107036.61
106687.22
106353.93
106036.02
105732.81
105443.68
105168.02
104905.28
104654.91
104416.4
104189.29
103973.11
103767.43
103571.82
103385.9
103209.27
103041.57
102882.44
102731.56
102588.58
102453.2
102325.11
102204.02
102089.65
101981.74
101880.02
101784.25
101694.18
101609.58
101530.25
101455.97
101386.54
101321.78
101261.51
101205.56
101153.79
101106.07
101062.28
101022.33
100986.14
100953.63
100924.77
100899.61
100878.21
100860.62
100846.74
100836.24
100828.92
100825.28
100826.91
100835.28
100848.55
100859.1
103896.16
103869.22
103917.91
103966.64
104002.85
104013
103995.7
103966.18
103930.57
103885.66
103827.04
103755.18
103673.91
103588.1
103498.58
103405.42
103308.94
103209.62
103107.9
103004.16
102898.77
102792.07
102684.4
102576.05
102467.3
102358.4
102249.58
102141.08
102033.09
101925.82
101819.44
101714.13
101610.05
101507.36
101406.23
101306.79
101209.21
101113.61
101020.15
100928.97
100840.21
100754
100670.49
100589.82
100512.11
100437.5
100366.12
100298.1
100233.55
100172.59
100115.32
100061.84
100012.22
99966.526
99924.815
99887.114
99853.433
99823.765
99798.077
99776.317
99758.404
99744.235
99733.683
99726.587
99722.784
99722.018
99724.207
99728.728
99736.259
99744.377
99757.546
99765.587
99787.913
99788.024
99829.128
99803.581
99880.505
99812.527
99934.059
99821.389
103251.21
103245.02
103259.16
103275.61
103274.4
103266.99
103256.02
103238.31
103208.88
103173.69
103131.52
103084.19
103030.94
102972.92
102910.16
102843.34
102772.7
102698.58
102621.3
102541.17
102458.49
102373.56
102286.67
102198.09
102108.1
102016.96
101924.94
101832.27
101739.21
101646
101552.86
101460.01
101367.68
101276.07
101185.39
101095.83
101007.6
100920.89
100835.88
100752.75
100671.69
100592.87
100516.46
100442.63
100371.53
100303.34
100238.2
100176.25
100117.63
100062.46
100010.86
99962.938
99918.767
99878.422
99841.951
99809.385
99780.729
99755.968
99735.065
99717.958
99704.557
99694.747
99688.391
99685.32
99685.357
99688.248
99693.879
99701.683
99712.195
99723.28
99738.823
99749.761
99773.501
99776.589
99817.823
99796.098
99872.41
99806.853
99930.916
99814.53
102831.82
102816.15
102787.31
102757
102727.41
102699.79
102667.53
102635.97
102600.72
102564.97
102525.21
102484.08
102439.36
102392.53
102342.62
102290.17
102235.01
102177.27
102117.03
102054.37
101989.43
101922.34
101853.23
101782.28
101709.66
101635.53
101560.1
101483.55
101406.09
101327.93
101249.27
101170.33
101091.32
101012.47
100933.99
100856.1
100779.02
100702.95
100628.12
100554.73
100482.99
100413.12
100345.29
100279.72
100216.58
100156.07
100098.35
100043.58
99991.931
99943.535
99898.519
99856.995
99819.057
99784.78
99754.217
99727.398
99704.327
99684.987
99669.333
99657.297
99648.782
99643.666
99641.802
99643.013
99647.115
99653.854
99663.093
99674.308
99687.933
99702.041
99720.101
99733.876
99759.27
99765.048
99806.846
99788.459
99864.56
99801.183
99927.676
99808.028
102234.09
102211.23
102182.27
102150.38
102118.77
102090.67
102058.15
102028.58
101994.84
101963.1
101927.82
101893.33
101856.03
101818.36
101778.56
101737.46
101694.55
101649.99
101603.65
101555.52
101505.6
101453.91
101400.47
101345.35
101288.6
101230.32
101170.63
101109.63
101047.48
100984.33
100920.34
100855.7
100790.58
100725.19
100659.74
100594.43
100529.47
100465.1
100401.53
100338.98
100277.68
100217.84
100159.69
100103.43
100049.28
99997.437
99948.092
99901.429
99857.619
99816.815
99779.158
99744.769
99713.751
99686.183
99662.122
99641.599
99624.62
99611.162
99601.178
99594.594
99591.307
99591.186
99594.08
99599.808
99608.175
99618.934
99631.928
99646.671
99663.515
99680.704
99701.384
99717.969
99745.168
99753.459
99796.138
99780.692
99856.964
99795.534
99924.385
99801.874
101502.58
101486.49
101470.71
101452.08
101431.51
101415.26
101393.07
101375.3
101352.06
101332.17
101307.75
101285.2
101259.4
101234.1
101206.67
101178.43
101148.57
101117.4
101084.7
101050.48
101014.71
100977.35
100938.42
100897.92
100855.89
100812.38
100767.43
100721.13
100673.58
100624.89
100575.17
100524.57
100473.25
100421.37
100369.11
100316.67
100264.25
100212.05
100160.29
100109.2
100058.99
100009.9
99962.144
99915.95
99871.537
99829.116
99788.893
99751.062
99715.803
99683.282
99653.646
99627.024
99603.525
99583.231
99566.203
99552.471
99542.04
99534.884
99530.953
99530.166
99532.416
99537.567
99545.461
99555.914
99568.728
99583.658
99600.535
99618.907
99639.056
99659.381
99682.751
99702.132
99731.225
99741.958
99785.683
99772.942
99849.599
99789.979
99921.054
99796.039
100781.4
100775.22
100770.84
100765.54
100756.16
100752.04
100740.52
100734.97
100722.47
100714.61
100701.03
100690.3
100675.61
100662.08
100646.23
100629.88
100611.92
100592.83
100572.39
100550.61
100527.48
100502.96
100477.04
100449.71
100420.99
100390.88
100359.43
100326.67
100292.67
100257.49
100221.24
100184.01
100145.92
100107.13
100067.77
100028.02
99988.057
99948.072
99908.267
99868.852
99830.043
99792.059
99755.123
99719.458
99685.283
99652.815
99622.259
99593.814
99567.663
99543.976
99522.903
99504.577
99489.105
99476.573
99467.037
99460.528
99457.047
99456.564
99459.024
99464.341
99472.402
99483.068
99496.175
99511.537
99528.954
99548.185
99569.052
99591.137
99614.659
99638.163
99664.265
99686.419
99717.481
99730.642
99775.461
99765.299
99842.449
99784.573
99917.587
99790.578
100128.81
100128.99
100129.96
100133.12
100130.94
100135.53
100131.3
100134.79
100129.89
100131.24
100126.14
100125.37
100119.85
100115.69
100108.92
100102.2
100094.05
100085.12
100075.09
100063.99
100051.78
100038.41
100023.85
100008.09
99991.113
99972.919
99953.516
99932.927
99911.186
99888.342
99864.459
99839.617
99813.912
99787.454
99760.371
99732.806
99704.914
99676.865
99648.841
99621.032
99593.638
99566.865
99540.923
99516.024
99492.38
99470.199
99449.681
99431.02
99414.393
99399.967
99387.888
99378.283
99371.259
99366.894
99365.241
99366.324
99370.138
99376.648
99385.792
99397.478
99411.587
99427.975
99446.476
99466.902
99489.051
99512.69
99537.633
99563.494
99590.436
99617.148
99645.997
99670.896
99704
99719.601
99765.475
99757.837
99835.516
99779.368
99914.128
99785.512
99542.72
99547.899
99551.92
99560.199
99561.659
99571.958
99571.881
99581.478
99581.37