/*--------------------------------*- C++ -*----------------------------------*\
  =========                 |
  \\      /  F ield         | OpenFOAM: The Open Source CFD Toolbox
   \\    /   O peration     | Website:  https://openfoam.org
    \\  /    A nd           | Version:  12
     \\/     M anipulation  |
\*---------------------------------------------------------------------------*/
FoamFile
{
    format      ascii;
    class       volScalarField;
    location    "0.103";
    object      rho;
}
// * * * * * * * * * * * * * * * * * * * * * * * * * * * * * * * * * * * * * //

dimensions      [1 -3 0 0 0 0 0];

internalField   nonuniform List<scalar> 
16000
(
1.0569144
1.089769
1.0776178
1.0858711
1.082013
1.0854675
1.0844857
1.0863153
1.0864658
1.0876804
1.0883362
1.0893565
1.0902399
1.0912429
1.0922454
1.0933003
1.0943877
1.0955155
1.0966816
1.097887
1.0991318
1.1004159
1.1017392
1.1031012
1.1045013
1.1059386
1.1074121
1.1089204
1.1104618
1.1120343
1.1136357
1.1152636
1.116915
1.1185869
1.120276
1.1219787
1.1236911
1.1254092
1.127129
1.1288462
1.1305564
1.1322554
1.1339388
1.1356025
1.1372424
1.1388547
1.1404355
1.1419816
1.1434898
1.1449573
1.1463815
1.1477604
1.1490921
1.1503751
1.1516082
1.1527908
1.1539223
1.1550025
1.1560314
1.1570093
1.1579364
1.1588133
1.1596401
1.1604172
1.1611444
1.1618214
1.1624474
1.1630219
1.1635441
1.1640128
1.164426
1.1647807
1.1650729
1.1652986
1.1654539
1.1655448
1.1655957
1.1654048
1.1658432
1.1647123
1.053614
1.0869877
1.0742099
1.0830352
1.0789499
1.0826747
1.081592
1.0835945
1.0837387
1.0850564
1.0857648
1.086861
1.0878192
1.0888973
1.0899812
1.0911179
1.0922913
1.0935073
1.0947647
1.096064
1.0974052
1.0987879
1.1002118
1.1016761
1.1031799
1.1047219
1.1063006
1.1079142
1.1095606
1.1112373
1.1129415
1.1146702
1.1164201
1.1181875
1.1199685
1.1217589
1.1235545
1.1253509
1.1271433
1.1289273
1.1306982
1.1324515
1.1341828
1.1358878
1.1375626
1.1392032
1.1408064
1.142369
1.1438881
1.1453614
1.1467869
1.1481629
1.1494882
1.1507617
1.1519828
1.1531513
1.1542672
1.1553307
1.1563422
1.1573024
1.1582119
1.1590714
1.1598815
1.1606424
1.1613543
1.1620168
1.1626293
1.1631911
1.1637014
1.1641589
1.1645615
1.1649059
1.1651879
1.1654031
1.1655499
1.1656361
1.1656427
1.1655745
1.1657701
1.1648633
1.0506305
1.0844601
1.0712538
1.0804385
1.0762094
1.0801374
1.0790253
1.0811482
1.0813342
1.0827357
1.0835186
1.0846922
1.0857369
1.0868988
1.0880741
1.0893031
1.090573
1.0918879
1.0932471
1.0946505
1.0960979
1.0975887
1.0991221
1.1006969
1.1023119
1.1039654
1.1056553
1.1073793
1.1091348
1.1109187
1.1127278
1.1145583
1.1164062
1.1182673
1.1201371
1.1220109
1.1238838
1.1257509
1.1276073
1.1294479
1.1312681
1.1330631
1.1348285
1.13656
1.138254
1.1399068
1.1415155
1.1430773
1.14459
1.1460518
1.1474611
1.1488171
1.150119
1.1513665
1.1525597
1.1536987
1.1547842
1.1558169
1.1567976
1.1577274
1.1586073
1.1594381
1.1602206
1.1609554
1.1616425
1.1622816
1.1628723
1.1634136
1.1639047
1.1643444
1.1647302
1.1650586
1.1653253
1.1655263
1.1656616
1.1657327
1.1657251
1.1656996
1.1657412
1.1650474
1.0479704
1.0821786
1.0685879
1.0781006
1.0737359
1.0778983
1.076763
1.079025
1.0792627
1.0807616
1.0816334
1.0828965
1.0840427
1.0853018
1.0865821
1.0879167
1.0892956
1.0907217
1.0921941
1.0937127
1.0952768
1.0968855
1.0985377
1.1002319
1.1019663
1.1037388
1.1055467
1.1073871
1.1092567
1.1111518
1.1130682
1.1150017
1.1169474
1.1189004
1.1208555
1.1228074
1.1247507
1.12668
1.1285899
1.1304754
1.1323314
1.1341532
1.1359366
1.1376777
1.1393729
1.1410193
1.1426143
1.1441559
1.1456425
1.1470731
1.1484469
1.1497637
1.1510235
1.1522269
1.1533744
1.1544671
1.1555059
1.1564922
1.1574274
1.1583128
1.1591497
1.1599393
1.1606825
1.1613801
1.1620322
1.1626384
1.1631982
1.1637109
1.1641754
1.1645901
1.1649527
1.1652594
1.1655055
1.1656879
1.1658058
1.1658578
1.165843
1.1658206
1.1657748
1.1652273
1.0456789
1.0802757
1.0662834
1.0760965
1.07159
1.0760272
1.0748821
1.0772891
1.0775993
1.0792032
1.0801829
1.0815453
1.0828062
1.0841733
1.0855689
1.0870189
1.0885163
1.0900628
1.0916577
1.0933005
1.0949904
1.0967261
1.098506
1.1003281
1.1021899
1.1040886
1.1060209
1.1079829
1.1099706
1.1119792
1.1140039
1.1160394
1.1180801
1.1201202
1.1221538
1.124175
1.1261778
1.1281566
1.1301056
1.1320197
1.1338939
1.1357237
1.1375053
1.1392351
1.1409103
1.1425285
1.1440881
1.1455878
1.147027
1.1484053
1.1497232
1.1509811
1.15218
1.153321
1.1544057
1.1554355
1.1564123
1.1573377
1.1582135
1.1590416
1.1598235
1.1605606
1.1612541
1.1619046
1.1625124
1.1630771
1.1635983
1.1640748
1.1645057
1.1648893
1.1652229
1.1655024
1.1657234
1.1658829
1.1659791
1.1660104
1.1659872
1.1659492
1.1658447
1.1654166
1.043801
1.0787703
1.0644301
1.0745517
1.0699504
1.0745994
1.0734427
1.0760155
1.0764138
1.0781281
1.0792275
1.0806922
1.0820745
1.0835558
1.0850738
1.0866477
1.0882728
1.0899499
1.0916782
1.0934566
1.0952839
1.097158
1.0990767
1.101037
1.1030358
1.105069
1.1071325
1.1092215
1.1113305
1.1134541
1.1155862
1.1177206
1.1198506
1.1219698
1.1240715
1.1261493
1.1281968
1.130208
1.1321772
1.1340994
1.13597
1.137785
1.139541
1.1412354
1.1428661
1.1444319
1.145932
1.1473663
1.1487351
1.1500393
1.15128
1.1524589
1.1535778
1.1546386
1.1556435
1.1565947
1.1574946
1.1583453
1.159149
1.1599078
1.1606236
1.1612978
1.1619318
1.1625262
1.1630813
1.1635968
1.1640719
1.1645057
1.1648968
1.1652435
1.1655427
1.1657903
1.1659819
1.1661145
1.166185
1.1661946
1.1661604
1.1660978
1.1659478
1.1656218
1.0423326
1.0776696
1.0630144
1.073477
1.0687845
1.0736385
1.0725287
1.075232
1.075735
1.077535
1.0787609
1.0803322
1.0818462
1.0834547
1.0851093
1.0868231
1.0885924
1.0904171
1.0922955
1.0942261
1.0962065
1.098234
1.1003051
1.102416
1.1045622
1.1067386
1.1089397
1.1111595
1.1133914
1.1156286
1.1178639
1.1200899
1.1222993
1.1244847
1.1266389
1.128755
1.1308265
1.1328475
1.1348127
1.1367173
1.1385575
1.1403302
1.1420329
1.1436641
1.1452231
1.1467097
1.1481244
1.1494683
1.1507431
1.1519506
1.1530932
1.1541734
1.1551938
1.1561574
1.1570668
1.157925
1.1587345
1.1594982
1.1602185
1.1608975
1.1615374
1.1621398
1.162706
1.1632366
1.1637319
1.1641914
1.1646144
1.1649996
1.1653456
1.1656504
1.1659107
1.1661222
1.1662809
1.1663831
1.1664248
1.1664118
1.1663633
1.1662684
1.1660825
1.1658526
1.041211
1.0769134
1.0619683
1.0728175
1.0680252
1.0731073
1.072025
1.0749252
1.075453
1.07737
1.078757
1.0804616
1.0821344
1.0838965
1.0857124
1.08759
1.0895266
1.0915207
1.0935704
1.0956728
1.0978246
1.100022
1.1022602
1.104534
1.1068375
1.1091642
1.1115071
1.1138586
1.1162108
1.1185555
1.1208844
1.1231892
1.1254615
1.1276935
1.1298776
1.132007
1.1340752
1.136077
1.1380075
1.1398631
1.1416411
1.1433395
1.1449574
1.1464947
1.1479521
1.1493309
1.1506333
1.1518615
1.1530185
1.1541075
1.1551318
1.1560947
1.1569999
1.1578509
1.1586509
1.1594033
1.1601111
1.1607773
1.1614045
1.1619952
1.1625514
1.1630747
1.1635663
1.1640269
1.1644566
1.1648548
1.1652206
1.1655525
1.1658491
1.1661079
1.1663255
1.1664978
1.1666207
1.1666895
1.1667004
1.1666642
1.166598
1.1664645
1.1662508
1.1661136
1.0404318
1.0764883
1.0612766
1.0725939
1.0676141
1.072862
1.0718719
1.0748114
1.075654
1.0777149
1.0792937
1.0811569
1.0830138
1.0849559
1.0869582
1.089025
1.0911532
1.0933404
1.0955834
1.0978781
1.1002199
1.1026033
1.1050221
1.1074692
1.1099371
1.1124174
1.1149014
1.1173799
1.1198435
1.1222827
1.1246879
1.1270501
1.1293605
1.131611
1.133794
1.1359033
1.1379331
1.139879
1.1417378
1.1435072
1.1451861
1.1467743
1.1482727
1.1496831
1.1510078
1.15225
1.1534131
1.1545011
1.1555181
1.1564682
1.1573559
1.1581854
1.1589609
1.1596862
1.1603653
1.1610017
1.1615987
1.1621594
1.1626864
1.1631822
1.1636487
1.1640875
1.1644997
1.1648858
1.1652456
1.1655786
1.1658835
1.1661589
1.1664028
1.1666127
1.166785
1.1669157
1.1670007
1.1670341
1.167013
1.1669536
1.1668662
1.1666896
1.1664565
1.166409
1.0400315
1.0764324
1.0609811
1.0727231
1.067606
1.0731151
1.0722736
1.0754129
1.0764386
1.0786494
1.0804498
1.0824996
1.0845675
1.0867186
1.0889353
1.0912185
1.0935645
1.0959694
1.0984284
1.1009358
1.1034851
1.1060688
1.1086785
1.1113052
1.1139392
1.11657
1.119187
1.1217793
1.124336
1.1268465
1.1293004
1.1316882
1.134001
1.1362313
1.1383722
1.1404185
1.1423661
1.1442124
1.145956
1.1475968
1.1491359
1.1505753
1.1519182
1.1531682
1.1543296
1.1554073
1.1564063
1.1573317
1.1581889
1.1589829
1.159719
1.1604019
1.1610361
1.1616262
1.1621759
1.1626891
1.1631691
1.1636188
1.1640409
1.1644376
1.1648109
1.1651619
1.1654917
1.1658006
1.1660881
1.1663535
1.1665954
1.166812
1.1670014
1.1671606
1.167286
1.1673739
1.1674197
1.1674164
1.1673632
1.1672812
1.1671691
1.1669472
1.1667053
1.1667435
1.040078
1.0768166
1.0611341
1.0730667
1.0680982
1.0738973
1.0732649
1.0765633
1.0778649
1.0802526
1.0823093
1.0845803
1.0868904
1.0892827
1.0917443
1.0942734
1.0968647
1.0995126
1.10221
1.104949
1.1077205
1.1105145
1.1133201
1.1161256
1.1189187
1.121687
1.1244179
1.1270987
1.1297174
1.1322628
1.1347242
1.1370923
1.1393593
1.1415186
1.1435654
1.1454965
1.1473102
1.1490064
1.1505866
1.1520533
1.1534103
1.1546621
1.1558141
1.1568721
1.1578422
1.1587308
1.1595443
1.1602888
1.1609706
1.1615955
1.1621689
1.162696
1.1631817
1.1636303
1.1640458
1.1644318
1.1647916
1.1651278
1.165443
1.1657392
1.1660178
1.1662801
1.1665266
1.1667572
1.1669717
1.1671687
1.1673468
1.1675041
1.1676383
1.1677462
1.1678244
1.1678694
1.1678756
1.1678353
1.1677513
1.1676474
1.1675067
1.1672387
1.166999
1.1671222
1.0406517
1.0777125
1.0618354
1.0740742
1.0692687
1.0753083
1.0749355
1.0784134
1.0800296
1.0826229
1.0849706
1.0875012
1.0900883
1.0927574
1.0954976
1.0983044
1.1011701
1.1040862
1.1070428
1.1100288
1.1130318
1.1160387
1.1190353
1.1220073
1.1249397
1.1278179
1.1306275
1.1333551
1.1359879
1.1385148
1.1409262
1.1432141
1.1453727
1.1473983
1.1492887
1.1510442
1.1526663
1.1541586
1.1555254
1.1567727
1.1579068
1.158935
1.1598648
1.1607037
1.1614596
1.1621399
1.162752
1.1633028
1.1637989
1.1642465
1.1646511
1.1650181
1.165352
1.1656571
1.1659372
1.1661955
1.1664351
1.1666584
1.1668674
1.1670638
1.1672489
1.1674234
1.1675875
1.167741
1.1678832
1.1680127
1.1681279
1.1682265
1.1683061
1.1683634
1.1683952
1.168398
1.1683652
1.168289
1.1681766
1.1680515
1.1678784
1.1675665
1.167341
1.1675442
1.0417467
1.0791253
1.0630802
1.0757402
1.0710986
1.0773826
1.0773503
1.0810226
1.0830166
1.0858584
1.0885381
1.0913751
1.094281
1.0972681
1.1003252
1.1034438
1.106613
1.1098201
1.1130515
1.1162918
1.1195249
1.1227338
1.1259012
1.1290096
1.1320419
1.1349818
1.1378139
1.1405248
1.1431027
1.145538
1.1478237
1.1499552
1.1519303
1.1537492
1.1554143
1.1569298
1.1583015
1.1595367
1.1606434
1.1616303
1.1625066
1.1632817
1.1639647
1.1645648
1.1650906
1.1655505
1.1659521
1.1663028
1.1666091
1.166877
1.167112
1.1673191
1.1675025
1.1676661
1.1678132
1.1679468
1.1680693
1.1681828
1.1682889
1.1683888
1.1684834
1.168573
1.1686577
1.1687367
1.1688091
1.1688734
1.1689277
1.1689697
1.1689965
1.1690051
1.1689925
1.1689547
1.1688842
1.1687745
1.1686374
1.1684918
1.1682832
1.1679333
1.1677343
1.1680056
1.0434181
1.0811082
1.0649323
1.0780415
1.0736766
1.0802146
1.0806139
1.084506
1.0869399
1.0900858
1.0931464
1.0963445
1.0996186
1.1029698
1.1063838
1.109847
1.1133435
1.1168558
1.1203651
1.1238515
1.1272944
1.1306731
1.1339668
1.1371557
1.1402213
1.1431468
1.145918
1.1485232
1.1509539
1.1532047
1.1552732
1.15716
1.1588684
1.1604039
1.161774
1.1629877
1.1640552
1.1649872
1.165795
1.1664898
1.1670828
1.1675848
1.1680063
1.1683568
1.1686456
1.168881
1.1690708
1.1692218
1.1693403
1.1694319
1.1695016
1.1695537
1.1695921
1.1696199
1.1696399
1.1696546
1.1696658
1.1696752
1.1696838
1.1696925
1.1697016
1.1697111
1.1697206
1.1697293
1.1697358
1.1697384
1.1697352
1.1697237
1.1697008
1.1696636
1.1696093
1.1695335
1.1694277
1.1692882
1.1691309
1.168965
1.168719
1.1683418
1.1681819
1.1685021
1.045726
1.0837197
1.0675024
1.0811028
1.0771019
1.0839057
1.0848421
1.088997
1.0919427
1.095468
1.0989705
1.1025933
1.1062898
1.1100507
1.1138564
1.1176871
1.1215207
1.1253339
1.1291021
1.1328001
1.1364029
1.139886
1.1432268
1.1464044
1.1494014
1.1522035
1.1548003
1.1571857
1.1593573
1.1613162
1.1630672
1.1646177
1.1659774
1.1671577
1.1681715
1.169032
1.1697531
1.1703485
1.1708316
1.1712154
1.1715121
1.171733
1.1718889
1.1719894
1.1720433
1.1720585
1.1720422
1.1720007
1.1719394
1.1718633
1.1717766
1.1716828
1.171585
1.1714859
1.1713875
1.1712917
1.1711997
1.1711126
1.171031
1.1709553
1.1708854
1.1708209
1.170761
1.1707046
1.1706501
1.1705958
1.1705395
1.1704785
1.1704098
1.1703308
1.1702385
1.1701277
1.1699899
1.1698255
1.1696528
1.1694667
1.1691824
1.1687927
1.1686849
1.1690279
1.0487281
1.0869918
1.0709179
1.0849966
1.0814978
1.0885938
1.0902014
1.0946942
1.0982355
1.1022301
1.1062422
1.1103521
1.114519
1.1187238
1.12294
1.1271401
1.1312945
1.1353728
1.1393438
1.1431775
1.1468452
1.1503212
1.1535836
1.156615
1.1594031
1.1619407
1.1642256
1.1662604
1.1680517
1.1696097
1.170947
1.1720785
1.1730202
1.173789
1.1744016
1.1748749
1.175225
1.1754673
1.1756161
1.1756848
1.1756857
1.1756298
1.1755271
1.1753867
1.1752164
1.1750232
1.1748133
1.174592
1.1743639
1.1741328
1.1739022
1.1736747
1.1734526
1.1732378
1.1730318
1.1728357
1.1726502
1.1724757
1.1723125
1.1721605
1.1720191
1.1718876
1.1717649
1.1716496
1.1715401
1.1714343
1.1713301
1.1712245
1.1711148
1.1709985
1.1708725
1.1707303
1.1705649
1.1703813
1.1701977
1.1699913
1.1696698
1.1692826
1.1692397
1.1695756
1.0524958
1.0909336
1.075305
1.0898754
1.0870707
1.0945249
1.0969541
1.10188
1.1060979
1.1106497
1.1152321
1.1198788
1.1245477
1.1292087
1.1338252
1.1383598
1.1427737
1.1470287
1.1510885
1.1549207
1.1584978
1.1617983
1.1648075
1.1675175
1.1699268
1.1720401
1.1738671
1.1754216
1.1767206
1.1777833
1.1786301
1.179282
1.1797599
1.1800842
1.1802742
1.1803481
1.1803229
1.1802139
1.1800352
1.1797995
1.1795179
1.1792004
1.1788559
1.1784919
1.1781152
1.1777314
1.1773454
1.1769614
1.1765829
1.1762127
1.1758533
1.1755065
1.1751738
1.1748562
1.1745547
1.1742696
1.1740012
1.1737495
1.173514
1.1732944
1.1730897
1.1728989
1.1727206
1.1725533
1.1723951
1.1722439
1.1720973
1.1719527
1.1718072
1.1716588
1.1715035
1.1713344
1.1711465
1.1709497
1.1707586
1.170533
1.1701803
1.1698058
1.1698318
1.1701502
1.0572205
1.0956961
1.0809
1.0960674
1.0941536
1.102029
1.1054232
1.1108783
1.1158418
1.12103
1.126233
1.1314474
1.1366214
1.1417095
1.1466616
1.1514288
1.1559643
1.1602264
1.1641802
1.1677991
1.1710656
1.1739715
1.176517
1.17871
1.1805647
1.1821004
1.1833399
1.1843081
1.1850313
1.1855358
1.1858473
1.1859906
1.1859888
1.1858636
1.1856345
1.1853193
1.184934
1.1844927
1.184008
1.1834908
1.1829507
1.1823958
1.1818333
1.1812693
1.1807088
1.1801562
1.1796149
1.179088
1.1785778
1.1780862
1.1776146
1.177164
1.1767351
1.1763285
1.1759441
1.175582
1.1752418
1.174923
1.174625
1.1743468
1.1740873
1.1738451
1.1736187
1.1734064
1.1732061
1.1730158
1.172833
1.172655
1.1724795
1.1723042
1.1721245
1.1719334
1.1717288
1.1715242
1.1713278
1.1710852
1.1707129
1.1703615
1.1704496
1.170749
1.0631833
1.1018585
1.0880972
1.1039094
1.1030921
1.1114304
1.1159389
1.1220433
1.1278233
1.1337196
1.1395713
1.1453395
1.1509547
1.1563533
1.1614736
1.1662612
1.1706713
1.1746709
1.1782395
1.1813692
1.1840634
1.1863351
1.1882055
1.1897014
1.1908535
1.1916946
1.1922584
1.192578
1.1926851
1.1926097
1.1923795
1.1920197
1.1915531
1.1909999
1.190378
1.1897033
1.1889894
1.1882482
1.1874898
1.1867231
1.1859554
1.1851929
1.184441
1.1837038
1.182985
1.1822874
1.1816133
1.1809644
1.180342
1.179747
1.1791801
1.1786414
1.178131
1.1776487
1.1771942
1.1767667
1.1763657
1.1759901
1.175639
1.1753112
1.1750052
1.1747195
1.1744524
1.1742021
1.1739665
1.1737434
1.1735303
1.173325
1.1731252
1.1729284
1.1727292
1.1725213
1.1723061
1.1720985
1.1718979
1.1716407
1.1712634
1.1709475
1.1710895
1.1713556
1.0705704
1.1099467
1.0970977
1.1136324
1.1142586
1.1231494
1.1289417
1.1358473
1.1425009
1.1491244
1.1555674
1.1617568
1.1676074
1.1730472
1.178018
1.1824788
1.1864059
1.1897932
1.1926494
1.1949961
1.1968643
1.1982918
1.1993202
1.1999929
1.200353
1.200442
1.2002993
1.1999608
1.1994596
1.1988249
1.1980828
1.1972562
1.196365
1.1954265
1.1944554
1.1934644
1.1924641
1.1914636
1.1904705
1.1894909
1.1885302
1.1875925
1.1866812
1.1857989
1.1849478
1.1841293
1.1833446
1.1825943
1.1818788
1.1811981
1.1805521
1.1799404
1.1793625
1.1788175
1.1783047
1.1778231
1.1773715
1.1769488
1.1765537
1.1761846
1.1758401
1.1755184
1.1752177
1.1749362
1.1746716
1.1744219
1.1741846
1.1739576
1.1737391
1.1735259
1.1733123
1.1730933
1.1728737
1.1726672
1.1724635
1.1721953
1.1718245
1.1715565
1.1717433
1.1719691
1.0795177
1.1198358
1.1085113
1.1257831
1.1282987
1.1378791
1.1450796
1.1528865
1.1603596
1.1675617
1.1743396
1.1806034
1.186275
1.191303
1.1956613
1.1993478
1.2023806
1.2047943
1.2066349
1.2079556
1.2088132
1.2092648
1.2093661
1.2091692
1.2087223
1.2080688
1.2072473
1.2062917
1.2052317
1.2040926
1.2028962
1.201661
1.2004028
1.1991347
1.1978675
1.1966105
1.1953711
1.1941554
1.1929683
1.1918138
1.190695
1.1896141
1.188573
1.1875727
1.1866142
1.1856977
1.1848233
1.1839909
1.1831999
1.1824498
1.1817398
1.1810689
1.1804361
1.1798403
1.1792803
1.1787546
1.178262
1.1778009
1.1773699
1.1769674
1.1765916
1.1762408
1.1759131
1.1756066
1.1753192
1.1750485
1.1747926
1.1745495
1.1743174
1.1740926
1.1738694
1.1736451
1.1734269
1.1732251
1.1730196
1.1727452
1.1723928
1.1721825
1.1724027
1.1725775
1.0907724
1.1324391
1.1232434
1.1413118
1.1461646
1.1565153
1.1650525
1.1736354
1.181604
1.1889338
1.1954993
1.2012395
1.2061259
1.210165
1.2133909
1.2158583
1.2176354
1.2187977
1.2194229
1.2195868
1.2193609
1.2188107
1.2179948
1.2169652
1.2157668
1.2144384
1.2130128
1.211518
1.2099774
1.2084104
1.2068332
1.2052592
1.2036991
1.202162
1.2006548
1.1991834
1.1977521
1.1963644
1.1950228
1.1937293
1.1924851
1.1912909
1.190147
1.1890536
1.1880101
1.1870162
1.1860709
1.1851735
1.1843228
1.1835177
1.1827569
1.182039
1.1813627
1.1807264
1.1801286
1.1795678
1.1790425
1.1785508
1.1780913
1.1776622
1.1772616
1.1768879
1.176539
1.1762131
1.1759081
1.1756218
1.1753522
1.1750979
1.1748566
1.1746245
1.1743966
1.1741725
1.1739607
1.1737663
1.1735611
1.1732874
1.1729644
1.1728136
1.1730503
1.1731698
1.1059051
1.1488578
1.1425714
1.1612886
1.1688225
1.179826
1.1892129
1.1979978
1.2057314
1.2123914
1.2179421
1.2224077
1.2258478
1.2283491
1.2300135
1.2309488
1.2312618
1.2310532
1.2304152
1.2294295
1.2281676
1.2266905
1.2250502
1.22329
1.2214462
1.2195485
1.2176214
1.2156848
1.2137549
1.2118448
1.2099648
1.2081232
1.2063262
1.204579
1.2028852
1.2012476
1.199668
1.1981475
1.196687
1.1952865
1.1939458
1.1926644
1.1914415
1.1902762
1.1891674
1.1881136
1.1871136
1.1861659
1.1852689
1.184421
1.1836206
1.182866
1.1821556
1.1814876
1.1808603
1.180272
1.1797209
1.1792053
1.1787234
1.1782735
1.1778538
1.1774623
1.1770973
1.1767568
1.1764388
1.1761413
1.1758625
1.175601
1.1753543
1.1751186
1.1748902
1.1746711
1.1744695
1.1742844
1.1740826
1.1738182
1.1735337
1.1734379
1.1736762
1.1737528
1.1263923
1.1703899
1.1679244
1.1867299
1.1966463
1.2077624
1.2169683
1.2248614
1.2312755
1.2362776
1.2399637
1.2424721
1.2439562
1.244572
1.2444677
1.243778
1.2426215
1.2411002
1.2392999
1.237292
1.2351351
1.2328771
1.2305565
1.2282043
1.2258453
1.2234991
1.2211812
1.2189036
1.2166756
1.2145044
1.2123952
1.2103519
1.2083771
1.2064725
1.2046393
1.2028776
1.2011873
1.1995679
1.1980186
1.1965383
1.1951255
1.1937789
1.1924968
1.1912775
1.1901194
1.1890205
1.187979
1.186993
1.1860607
1.1851801
1.1843493
1.1835665
1.1828298
1.1821372
1.1814871
1.1808774
1.1803064
1.1797722
1.1792731
1.1788073
1.1783728
1.177968
1.177591
1.1772398
1.1769126
1.1766075
1.176323
1.1760575
1.1758085
1.1755724
1.1753472
1.1751366
1.1749472
1.1747724
1.1745778
1.1743317
1.1740943
1.1740514
1.1742783
1.1742914
1.154855
1.1978309
1.2003946
1.2185259
1.2288071
1.2386995
1.2463165
1.2520554
1.256045
1.2585246
1.2597313
1.2598973
1.2592318
1.2579166
1.2561046
1.2539219
1.2514707
1.2488325
1.2460723
1.2432409
1.2403781
1.2375149
1.2346748
1.2318762
1.2291328
1.2264548
1.2238499
1.2213232
1.2188786
1.2165184
1.2142437
1.212055
1.2099523
1.2079347
1.2060011
1.2041502
1.2023802
1.2006895
1.1990761
1.1975378
1.1960726
1.1946784
1.1933529
1.192094
1.1908994
1.189767
1.1886946
1.18768
1.186721
1.1858157
1.1849618
1.1841575
1.1834006
1.1826892
1.1820214
1.1813952
1.1808088
1.1802604
1.179748
1.17927
1.1788244
1.1784096
1.1780236
1.1776647
1.1773311
1.1770212
1.1767336
1.1764666
1.1762177
1.1759839
1.1757648
1.1755647
1.1753876
1.1752235
1.1750412
1.1748229
1.1746352
1.1746304
1.1748322
1.1748117
1.1938543
1.2329861
1.2387708
1.2541214
1.263273
1.2701965
1.2745861
1.2769909
1.2777727
1.277298
1.2758672
1.2737283
1.2710787
1.2680727
1.2648292
1.2614394
1.257972
1.2544787
1.2509983
1.2475593
1.2441828
1.240884
1.2376736
1.234559
1.2315451
1.2286347
1.2258293
1.2231292
1.2205339
1.2180421
1.2156523
1.2133625
1.2111704
1.2090736
1.2070696
1.2051557
1.2033294
1.2015878
1.1999284
1.1983484
1.1968451
1.1954161
1.1940586
1.1927702
1.1915484
1.1903907
1.1892947
1.1882581
1.1872786
1.1863539
1.1854819
1.1846605
1.1838876
1.1831612
1.1824792
1.1818397
1.1812409
1.1806809
1.1801579
1.17967
1.1792156
1.1787927
1.1783998
1.178035
1.1776968
1.1773838
1.1770945
1.1768274
1.17658
1.1763505
1.1761392
1.1759499
1.1757842
1.175631
1.1754658
1.1752816
1.1751397
1.1751557
1.1753284
1.1753098
1.241571
1.2741867
1.2813621
1.2911801
1.2960911
1.2984292
1.2985856
1.2972111
1.2947402
1.2915192
1.2878012
1.2837726
1.279568
1.2752843
1.2709905
1.2667354
1.2625531
1.2584671
1.2544931
1.2506415
1.2469184
1.2433271
1.2398685
1.2365425
1.2333476
1.2302814
1.2273413
1.224524
1.2218264
1.2192449
1.2167758
1.2144158
1.2121611
1.2100082
1.2079537
1.2059942
1.2041264
1.202347
1.2006528
1.1990408
1.197508
1.1960515
1.1946685
1.1933562
1.192112
1.1909332
1.1898173
1.188762
1.1877647
1.1868233
1.1859354
1.1850989
1.1843117
1.1835717
1.182877
1.1822255
1.1816154
1.1810448
1.180512
1.1800151
1.1795525
1.1791224
1.1787232
1.1783532
1.1780111
1.1776953
1.1774048
1.1771379
1.1768927
1.176668
1.1764647
1.1762853
1.1761296
1.1759874
1.1758419
1.1756936
1.1755917
1.1756144
1.1757463
1.1757341
1.2957731
1.3164784
1.3210425
1.3234134
1.322616
1.3199595
1.3160595
1.3114067
1.306323
1.3010262
1.2956609
1.2903219
1.2850712
1.2799482
1.2749773
1.2701725
1.2655413
1.2610864
1.2568074
1.2527019
1.2487662
1.2449956
1.2413853
1.2379297
1.2346235
1.2314612
1.2284376
1.2255473
1.2227854
1.2201468
1.2176271
1.2152215
1.2129257
1.2107356
1.2086471
1.2066564
1.2047598
1.2029537
1.2012347
1.1995995
1.1980449
1.1965679
1.1951656
1.1938349
1.1925733
1.1913779
1.1902463
1.189176
1.1881644
1.1872093
1.1863084
1.1854595
1.1846604
1.1839092
1.1832037
1.1825421
1.1819225
1.181343
1.180802
1.1802975
1.1798281
1.1793919
1.1789875
1.1786133
1.178268
1.1779503
1.1776589
1.1773925
1.1771496
1.1769297
1.1767335
1.1765624
1.1764149
1.1762834
1.1761577
1.1760421
1.1759711
1.1759918
1.1760846
1.176082
1.3487614
1.3520718
1.3508479
1.3463758
1.3405303
1.3339387
1.3270662
1.3201549
1.3133514
1.3067352
1.3003492
1.2942138
1.2883359
1.2827147
1.2773448
1.2722179
1.2673248
1.2626553
1.2581993
1.2539469
1.2498884
1.2460147
1.2423169
1.238787
1.2354171
1.2322
1.2291287
1.2261969
1.2233984
1.2207276
1.2181791
1.2157477
1.2134287
1.2112175
1.2091097
1.2071013
1.2051883
1.2033669
1.2016337
1.1999851
1.1984179
1.196929
1.1955152
1.1941738
1.1929017
1.1916965
1.1905553
1.1894758
1.1884554
1.1874918
1.1865828
1.185726
1.1849194
1.1841609
1.1834485
1.1827803
1.1821543
1.1815689
1.1810223
1.1805126
1.1800384
1.1795979
1.1791898
1.1788126
1.1784649
1.1781455
1.1778533
1.1775871
1.1773457
1.177129
1.1769374
1.1767714
1.1766292
1.1765057
1.1763957
1.1763038
1.1762517
1.1762649
1.1763267
1.1763349
1.3828776
1.3752858
1.3677331
1.3594514
1.3508461
1.3423325
1.3340772
1.3261549
1.318594
1.311398
1.3045583
1.2980603
1.2918869
1.2860202
1.2804424
1.2751365
1.2700866
1.2652779
1.2606964
1.2563295
1.2521654
1.2481934
1.2444034
1.2407863
1.2373335
1.2340371
1.2308898
1.2278848
1.2250158
1.2222767
1.219662
1.2171666
1.2147853
1.2125137
1.2103473
1.2082819
1.2063136
1.2044386
1.2026532
1.2009541
1.199338
1.1978016
1.1963419
1.194956
1.1936411
1.1923944
1.1912134
1.1900954
1.1890381
1.188039
1.1870959
1.1862065
1.1853687
1.1845804
1.1838397
1.1831445
1.1824929
1.1818833
1.1813138
1.1807827
1.1802884
1.1798293
1.1794039
1.1790108
1.1786488
1.1783167
1.1780132
1.1777374
1.1774884
1.1772659
1.1770701
1.1769008
1.1767566
1.1766339
1.17653
1.176449
1.1764053
1.1764135
1.1764589
1.1764723
1.1642753
1.1687745
1.1833328
1.195239
1.2007648
1.2020427
1.2021166
1.2017873
1.2018206
1.2015293
1.2012734
1.2007184
1.2001261
1.1994752
1.1987826
1.1980501
1.1972814
1.1964821
1.1956573
1.1948111
1.1939474
1.1930698
1.1921816
1.1912856
1.1903845
1.1894807
1.1885764
1.1876737
1.1867743
1.18588
1.1849924
1.1841131
1.1832433
1.1823846
1.1815382
1.1807054
1.1798874
1.1790854
1.1783005
1.1775339
1.1767868
1.1760603
1.1753555
1.1746734
1.1740151
1.1733816
1.172774
1.1721931
1.17164
1.1711153
1.1706198
1.1701542
1.1697188
1.1693143
1.1689406
1.1685979
1.1682862
1.168005
1.1677541
1.1675327
1.1673399
1.1671747
1.167036
1.1669224
1.1668328
1.1667649
1.166718
1.1666863
1.1666746
1.16666
1.16668
1.1666427
1.1667173
1.1665789
1.1667769
1.1663562
1.1667769
1.165851
1.1665011
1.1649552
1.1599794
1.1708273
1.1871458
1.1954969
1.1977714
1.1976822
1.1971535
1.196902
1.1965814
1.1962762
1.1958794
1.1954804
1.1950331
1.1945505
1.1940282
1.1934735
1.1928876
1.1922734
1.1916332
1.1909693
1.1902841
1.1895799
1.188859
1.1881236
1.1873759
1.1866181
1.1858524
1.1850808
1.1843053
1.183528
1.1827507
1.1819753
1.1812035
1.1804372
1.1796781
1.1789278
1.1781879
1.17746
1.1767456
1.1760463
1.1753635
1.1746985
1.1740528
1.1734278
1.1728247
1.1722447
1.1716891
1.1711589
1.1706551
1.1701788
1.1697306
1.1693114
1.1689217
1.1685618
1.1682321
1.1679325
1.1676629
1.1674231
1.1672126
1.1670306
1.1668762
1.1667482
1.1666455
1.1665668
1.1665106
1.1664748
1.1664583
1.1664557
1.1664705
1.1664822
1.1665232
1.1665113
1.1665979
1.1664847
1.1666821
1.1662928
1.1667041
1.1657957
1.1664651
1.1648911
1.1604667
1.173878
1.1856102
1.1920089
1.1929841
1.1925014
1.1919885
1.1917241
1.1914268
1.191141
1.1908055
1.1904665
1.1900922
1.189705
1.1892906
1.1888563
1.1883988
1.1879202
1.1874207
1.1869009
1.186362
1.185805
1.185231
1.1846413
1.1840374
1.1834206
1.1827925
1.1821547
1.1815089
1.1808567
1.1801999
1.1795404
1.1788797
1.1782198
1.1775624
1.1769094
1.1762625
1.1756234
1.174994
1.174376
1.173771
1.1731807
1.1726067
1.1720506
1.1715139
1.170998
1.1705044
1.1700342
1.1695887
1.169169
1.1687759
1.1684103
1.1680727
1.1677637
1.1674836
1.1672323
1.1670097
1.1668156
1.1666495
1.1665105
1.1663977
1.1663098
1.1662457
1.1662039
1.1661831
1.166181
1.1661963
1.1662238
1.1662661
1.1663045
1.1663675
1.1663804
1.1664808
1.1663903
1.1665903
1.166228
1.1666329
1.1657402
1.1664289
1.1648298
1.1581642
1.1725192
1.1832266
1.1879589
1.1877873
1.1873956
1.1869479
1.1867457
1.186425
1.1861706
1.1858548
1.1855685
1.1852502
1.1849356
1.1846003
1.1842564
1.1838971
1.1835248
1.183138
1.1827367
1.1823207
1.18189
1.1814448
1.1809855
1.1805126
1.1800269
1.1795291
1.1790202
1.1785014
1.1779739
1.177439
1.1768983
1.1763532
1.1758054
1.1752565
1.1747082
1.1741625
1.1736209
1.1730854
1.1725577
1.1720398
1.1715333
1.17104
1.1705617
1.1701
1.1696565
1.1692329
1.1688304
1.1684504
1.1680941
1.1677626
1.1674567
1.1671771
1.1669244
1.1666988
1.1665004
1.1663292
1.1661847
1.1660664
1.1659737
1.1659053
1.1658601
1.1658368
1.1658341
1.1658503
1.1658833
1.1659315
1.1659901
1.1660608
1.1661262
1.1662121
1.1662493
1.1663647
1.1662951
1.1665003
1.1661613
1.1665631
1.1656846
1.1663922
1.1647716
1.1524691
1.1688628
1.1787566
1.182314
1.1817638
1.1816764
1.1813117
1.1812491
1.1810037
1.1808679
1.1806434
1.1804665
1.1802462
1.1800391
1.1798095
1.1795753
1.1793264
1.179067
1.1787948
1.1785098
1.1782117
1.1779005
1.1775759
1.1772383
1.1768877
1.1765245
1.1761492
1.1757625
1.175365
1.1749577
1.1745416
1.1741178
1.1736875
1.1732522
1.1728133
1.1723723
1.1719309
1.1714909
1.1710539
1.1706219
1.1701965
1.1697797
1.1693732
1.1689789
1.1685986
1.1682339
1.1678865
1.1675578
1.1672494
1.1669624
1.166698
1.1664572
1.1662407
1.166049
1.1658824
1.1657412
1.165625
1.1655337
1.1654667
1.1654231
1.1654018
1.1654016
1.1654212
1.1654592
1.165514
1.1655834
1.1656657
1.1657561
1.1658557
1.1659485
1.1660576
1.166119
1.1662499
1.1662006
1.1664123
1.1660939
1.1664947
1.1656295
1.1663554
1.1647163
1.1463926
1.1652502
1.1737667
1.1766856
1.1759833
1.1761553
1.1758354
1.1759123
1.1757324
1.1757099
1.1755674
1.1754933
1.1753633
1.1752553
1.1751215
1.1749864
1.1748363
1.1746772
1.1745067
1.174325
1.174132
1.1739273
1.1737108
1.1734826
1.1732426
1.1729909
1.1727279
1.1724537
1.172169
1.1718742
1.1715702
1.1712576
1.1709377
1.1706114
1.1702799
1.1699448
1.1696073
1.1692692
1.168932
1.1685974
1.1682671
1.1679431
1.167627
1.1673207
1.1670259
1.1667444
1.1664778
1.1662277
1.1659955
1.1657825
1.1655898
1.1654185
1.1652693
1.1651428
1.1650392
1.1649587
1.1649011
1.1648661
1.1648531
1.1648613
1.1648895
1.1649364
1.1650007
1.165081
1.1651757
1.1652825
1.1653996
1.1655225
1.1656516
1.1657721
1.1659047
1.1659898
1.1661368
1.1661074
1.1663258
1.1660268
1.1664274
1.1655753
1.166317
1.1646643
1.1411124
1.1618209
1.1688467
1.1714599
1.1706514
1.171028
1.1707157
1.1709045
1.1707639
1.170831
1.1707515
1.1707653
1.1707108
1.1706815
1.1706221
1.1705669
1.1704981
1.1704235
1.1703396
1.1702469
1.1701448
1.1700329
1.1699112
1.1697793
1.1696371
1.1694847
1.169322
1.1691493
1.1689667
1.1687747
1.1685737
1.1683644
1.1681476
1.1679242
1.1676951
1.1674616
1.1672249
1.1669864
1.1667475
1.1665098
1.1662749
1.1660446
1.1658204
1.165604
1.1653973
1.1652019
1.1650193
1.1648511
1.1646986
1.1645632
1.164446
1.1643478
1.1642695
1.1642116
1.1641743
1.1641577
1.1641616
1.1641856
1.1642292
1.1642914
1.164371
1.1644668
1.1645774
1.1647013
1.1648369
1.1649821
1.1651348
1.1652906
1.1654494
1.1655977
1.1657538
1.1658622
1.1660259
1.1660163
1.1662409
1.1659609
1.1663615
1.1655226
1.1662783
1.1646159
1.1361996
1.1587442
1.1642373
1.1667261
1.1658065