/*--------------------------------*- C++ -*----------------------------------*\
  =========                 |
  \\      /  F ield         | OpenFOAM: The Open Source CFD Toolbox
   \\    /   O peration     | Website:  https://openfoam.org
    \\  /    A nd           | Version:  12
     \\/     M anipulation  |
\*---------------------------------------------------------------------------*/
FoamFile
{
    format      ascii;
    class       volScalarField;
    location    "700";
    object      Ma;
}
// * * * * * * * * * * * * * * * * * * * * * * * * * * * * * * * * * * * * * //

dimensions      [];

internalField   nonuniform List<scalar> 
16200
(
0.5328190233
0.6352796973
0.6930606663
0.7388270544
0.7817722339
0.8274269733
0.8778195739
0.924022042
0.9409516118
0.9414327894
0.9403152288
0.9392588573
0.9379584422
0.9365252359
0.9348421086
0.9329155126
0.9306723752
0.9280731777
0.9250497302
0.9215361445
0.9174532469
0.9127155888
0.907229884
0.9008985078
0.8936242965
0.8853187806
0.8759152345
0.8653875335
0.8537754168
0.841212975
0.8279509313
0.8143566727
0.8008790549
0.7879818014
0.7760689224
0.7654303451
0.7562220182
0.7484761447
0.7421279453
0.7370469918
0.7330661638
0.7300058364
0.7276915474
0.7259657132
0.7246933852
0.7237640336
0.7230900225
0.7226038326
0.7222544765
0.7220041275
0.7218250278
0.7216969841
0.7216053745
0.7215395071
0.7214917458
0.7214559015
0.7214291238
0.7214066921
0.7213893747
0.7213667818
0.5451373139
0.650840561
0.7104041014
0.7576598423
0.8024122658
0.8505337547
0.9027056939
0.9426666852
0.9523445203
0.9520572495
0.9508743407
0.9497321091
0.9483341261
0.9467840991
0.9449595017
0.942861712
0.9404131551
0.9375668028
0.9342480447
0.93038218
0.9258815778
0.9206512968
0.914589064
0.9075890477
0.8995483468
0.8903776516
0.8800185181
0.8684680129
0.8558099858
0.8422458185
0.8281091509
0.8138455067
0.7999508772
0.7868880727
0.7750147959
0.7645485054
0.75557044
0.7480536166
0.7418972356
0.7369565378
0.7330657364
0.7300546667
0.7277608959
0.7260376762
0.7247584167
0.7238181415
0.7231325641
0.7226358539
0.7222777247
0.7220204478
0.7218360974
0.7217042121
0.7216098672
0.7215421797
0.7214931366
0.7214566897
0.7214291703
0.7214067422
0.7213891083
0.7213651629
0.557079863
0.666038879
0.7274143116
0.7762714838
0.8230237602
0.873524728
0.9265104407
0.9573370859
0.9617604234
0.9609298083
0.9596751114
0.9584334142
0.9569101306
0.9552110721
0.9532101888
0.9509022015
0.9482055545
0.9450649626
0.9413991345
0.937123942
0.9321425599
0.9263496747
0.9196329862
0.9118778216
0.9029764068
0.8928428637
0.8814366651
0.8687943
0.8550656843
0.8405422957
0.825655226
0.8109258213
0.7968770277
0.7839407591
0.7723997948
0.7623791779
0.7538752794
0.7467988858
0.7410136539
0.7363624845
0.7326833219
0.7298184246
0.7276206028
0.7259574748
0.7247142221
0.7237945944
0.7231203397
0.7226295408
0.7222743302
0.7220183977
0.7218346185
0.7217029587
0.7216087166
0.7215411292
0.7214921831
0.7214559641
0.7214284692
0.7214063717
0.7213890456
0.7213652483
0.5681696392
0.6801005564
0.7431707566
0.7938171455
0.8429265378
0.8955712343
0.9465685442
0.9675726824
0.968854742
0.967857606
0.9665201365
0.9651647033
0.963505038
0.9616414948
0.9594457678
0.956903965
0.9539302771
0.9504600025
0.9464043311
0.9416687953
0.9361464301
0.929720881
0.9222699252
0.9136722706
0.9038211787
0.8926452619
0.8801388218
0.8663999791
0.8516685612
0.8363428669
0.8209500043
0.8060630458
0.7921929771
0.7797023301
0.7687730656
0.7594278023
0.7515800383
0.7450860928
0.7397827381
0.7355076683
0.7321077164
0.7294412611
0.7273791851
0.7258058753
0.7246203751
0.7237369945
0.723085052
0.7226077885
0.7222607143
0.7220096571
0.7218288144
0.7216989481
0.7216058399
0.7215390101
0.7214905989
0.7214548393
0.7214275618
0.7214058083
0.7213887733
0.7213647998
0.5784452586
0.6932075134
0.7579019508
0.8103683339
0.8620554638
0.9168240421
0.9613557785
0.974095067
0.9739203808
0.9728259419
0.9713810647
0.9698903679
0.9680708558
0.9660144659
0.9635919746
0.9607792339
0.9574859052
0.9536367465
0.9491342655
0.9438724199
0.9377330676
0.930588962
0.9223103084
0.9127750907
0.9018878942
0.8896071361
0.8759826426
0.8611986901
0.8456064367
0.8297171693
0.8141357064
0.7994473819
0.7861059202
0.7743697764
0.7643037956
0.7558282589
0.7487832968
0.7429828216
0.7382471792
0.7344161935
0.7313501182
0.7289261003
0.7270347932
0.7255786818
0.724471894
0.7236404761
0.7230224029
0.7225670327
0.7222340512
0.7219920633
0.7218170769
0.7216910162
0.7216004134
0.7215352587
0.7214880028
0.7214530819
0.7214263198
0.7214050236
0.7213884307
0.721364473
0.5876309212
0.7050841574
0.7713498978
0.8256918141
0.8799768513
0.9363374653
0.9714579187
0.9779265286
0.9768679499
0.9756918449
0.9741220346
0.9724782111
0.9704799007
0.9682067004
0.9655292083
0.9624111013
0.9587565094
0.9544783
0.9494691485
0.9436111448
0.9367758637
0.9288282413
0.9196366439
0.9090874056
0.8971095516
0.8837096746
0.869016972
0.8533264087
0.8371134959
0.8209908997
0.8056030234
0.7914963581
0.7790230544
0.7683129914
0.7593103692
0.751843695
0.7456958004
0.740653503
0.7365323029
0.7331815063
0.7304787709
0.7283218353
0.7266218699
0.7252998151
0.7242852044
0.7235162192
0.7229399534
0.7225123607
0.7221977497
0.721967889
0.7218009119
0.7216801527
0.721593079
0.7215302885
0.7214846473
0.7214508511
0.7214248137
0.7214040538
0.7213879685
0.7213640148
0.5955117013
0.7156210238
0.7834992617
0.8399633536
0.8968724557
0.9523834173
0.9773904247
0.980073671
0.9777374171
0.9764511364
0.9747402025
0.9729209052
0.9707185904
0.9681971256
0.9652273571
0.9617594943
0.9576916303
0.952924658
0.9473417908
0.9408147893
0.9332075066
0.9243813503
0.9142094606
0.9025969508
0.8895134198
0.8750365864
0.8594015357
0.8430331364
0.8265279869
0.8105669464
0.7957805904
0.7826240688
0.7713142707
0.7618430658
0.7540432267
0.7476696829
0.7424670463
0.7382105218
0.7347212793
0.731864133
0.729536913
0.7276587492
0.726161199
0.724983258
0.7240695375
0.7233702106
0.7228415218
0.7224461692
0.7221532894
0.7219380316
0.7217808526
0.7216666664
0.7215840092
0.721524192
0.7214805766
0.72144817
0.7214230498
0.7214029107
0.7213874115
0.7213635105
0.6019274659
0.7247384498
0.7944236822
0.8533640798
0.912931183
0.963322124
0.9797059371
0.978084936
0.9765802867
0.975166758
0.9732904275
0.9712654463
0.9688260919
0.9660179197
0.9627125472
0.9588462685
0.9543110109
0.9489961206
0.9427758465
0.9355130978
0.9270665714
0.9172991904
0.9060978655
0.8934014916
0.8792426158
0.8637977893
0.8474317508
0.8307037994
0.8143055056
0.7989332276
0.7851444315
0.7732592882
0.7633421143
0.7552527837
0.7487318241
0.7434829518
0.7392318907
0.7357561556
0.7328911534
0.7305215599
0.7285668948
0.7269675736
0.7256747198
0.7246444179
0.7238355448
0.7232097073
0.7227319864
0.7223716959
0.7221027934
0.7219038652
0.7217577757
0.7216511068
0.7215735415
0.7215171716
0.7214759065
0.7214451043
0.7214210564
0.7214016103
0.7213867574
0.7213629292
0.6068102732
0.7323634564
0.8042145494
0.8658711827
0.9275186056
0.9695255178
0.97631483
0.9752919562
0.9734968162
0.9719171693
0.969854895
0.9675977691
0.9648919428
0.9617625915
0.9580820109
0.9537721235
0.9487180232
0.9427976267
0.9358765833
0.9278111293
0.9184595676
0.9076954705
0.8954343033
0.8816701106
0.8665252946
0.850301361
0.8335041932
0.8168097853
0.8009561016
0.7865919384
0.7741484221
0.7637839093
0.7554108677
0.7487758659
0.7435521484
0.7394151777
0.7360890628
0.7333647799
0.7310980885
0.7291960848
0.7276003104
0.7262716098
0.7251793519
0.7242953753
0.7235917061
0.7230405638
0.7226153253
0.722291603
0.7220480154
0.7218665264
0.7217324048
0.7216339248
0.7215619496
0.7215093882
0.7214707269
0.721441703
0.7214188545
0.7214001643
0.7213860135
0.7213622809
0.610372203
0.7388619274
0.81319394
0.8776011631
0.9392474433
0.9714561461
0.9719958683
0.9705091454
0.9686333744
0.9668668301
0.9645954007
0.9620768749
0.9590710982
0.9555813309
0.951479864
0.9466740042
0.9410414585
0.9344496912
0.9267578219
0.9178203605
0.9075037707
0.8957058823
0.8823902726
0.8676312777
0.8516674168
0.8349416211
0.818092662
0.801872129
0.7870009487
0.7740191918
0.7631942246
0.7545157142
0.7477606134
0.7425888696
0.7386329331
0.7355608277
0.7331089479
0.7310897137
0.7293829492
0.7279191378
0.7266612195
0.7255890706
0.7246886725
0.7239460772
0.723345179
0.7228678402
0.7224950551
0.7222082937
0.7219905709
0.7218270825
0.7217054315
0.7216155585
0.7215495039
0.7215010031
0.7214651298
0.7214380166
0.7214164662
0.7213985834
0.7213851824
0.7213615617
0.6127641586
0.7444871232
0.8216237368
0.8889998675
0.9467953873
0.9662203314
0.9657243808
0.9641598832
0.9621319659
0.9601492364
0.9576399574
0.9548251748
0.9514791958
0.9475824295
0.9430064371
0.937644633
0.9313680378
0.9240365872
0.9155074298
0.9056410016
0.8943232464
0.8814926393
0.8671832169
0.8515757895
0.8350457478
0.8181776548
0.8017117044
0.786415533
0.7729263505
0.7616274388
0.7526059691
0.7456945829
0.7405617787
0.7368105667
0.7340571953
0.7319792325
0.7303353976
0.7289644822
0.7277720018
0.7267115226
0.7257660683
0.7249328115
0.7242125614
0.7236039691
0.7231014612
0.7226955154
0.722374
0.7221237355
0.7219318053
0.7217864359
0.7216774488
0.7215963884
0.7215364419
0.7214921591
0.7214591975
0.7214340904
0.7214139116
0.7213968785
0.721384268
0.7213607726
0.6140021247
0.7493813426
0.8294470138
0.8994945817
0.9501677955
0.9600463753
0.957955228
0.9562677055
0.9540689026
0.9518419805
0.9490634264
0.9459148519
0.9421854515
0.9378330693
0.9327282918
0.9267524245
0.9197714539
0.9116417368
0.9022243669
0.891395397
0.8790746818
0.8652614008
0.8500846792
0.8338551226
0.817093773
0.8005056598
0.7848790264
0.7709290727
0.7591516225
0.7497456192
0.7426227034
0.7374840144
0.7339217203
0.7315103707
0.7298705218
0.7287017788
0.7277915272
0.7270072581
0.7262801799
0.7255857331
0.7249252756
0.7243113807
0.7237578744
0.7232744131
0.722864643
0.7225266355
0.7222543782
0.7220395098
0.7218728229
0.7217453419
0.721648962
0.7215767444
0.7215229726
0.7214829843
0.721453005
0.7214299657
0.7214112098
0.721395061
0.7213832729
0.7213599126
0.6141009325
0.7537532601
0.8369005879
0.9077911933
0.946724938
0.9512075863
0.9487346163
0.9469372961
0.9445294212
0.9420261998
0.9389440918
0.9354233613
0.931267981
0.9264142284
0.9207311279
0.9140895452
0.9063522314
0.8973768251
0.887036423
0.875236007
0.861948532
0.8472582891
0.8314138962
0.8148691485
0.7982797226
0.782427089
0.7680797288
0.7558353264
0.7460094668
0.7386120614
0.733401019
0.729979247
0.7278947174
0.7267179416
0.7260892436
0.725738393
0.7254846315
0.7252244682
0.7249136584
0.7245477384
0.7241444339
0.7237297996
0.7233289299
0.7229609784
0.7226375713
0.7223634011
0.7221378434
0.7219568282
0.7218144906
0.7217044067
0.721620385
0.7215569016
0.7215092739
0.7214735891
0.7214466181
0.7214256798
0.7214083781
0.7213931417
0.7213821997
0.7213589813
0.6132174783
0.7577956866
0.8442364957
0.9129637119
0.9399347473
0.9409308652
0.9382077991
0.9362501191
0.9336092615
0.9308034375
0.927387289
0.923459617
0.9188372736
0.9134361593
0.907123431
0.8997626865
0.8912179064
0.8813564484
0.8700756645
0.8573267162
0.8431579457
0.8277637649
0.8115305688
0.7950517726
0.7790823856
0.7644179185
0.7517374204
0.7414712388
0.7337394914
0.7283786296
0.7250254975
0.7232198948
0.7224940932
0.7224335159
0.7227086647
0.7230838408
0.7234108936
0.7236142555
0.7236723616
0.7235987706
0.7234255596
0.7231904175
0.7229280803
0.7226658131
0.7224220853
0.7222073118
0.7220255718
0.7218765833
0.7217574668
0.7216641033
0.7215920488
0.7215370856
0.7214954947
0.7214640684
0.7214400945
0.7214212654
0.7214054326
0.7213911305
0.7213810504
0.7213579784
0.6117399269
0.7617040053
0.8509470737
0.9145405373
0.9302635122
0.9293859511
0.9265339208
0.9243713433
0.921465785
0.9183204071
0.9145260841
0.91014188
0.9049959724
0.89898719
0.8919829272
0.8838453791
0.8744469319
0.8636755486
0.8514678419
0.837841148
0.8229426433
0.8070965683
0.7908313325
0.7748551735
0.7599654277
0.7469012972
0.736194347
0.7280806241
0.7224922389
0.7191220727
0.7175228321
0.7172036287
0.7177038675
0.7186371239
0.7197100519
0.7207229119
0.7215591899
0.7221692547
0.7225519752
0.7227367708
0.7227681178
0.7226936266
0.7225561993
0.7223899691
0.7222192281
0.7220593012
0.7219183452
0.7217993992
0.7217022307
0.7216247878
0.7215642104
0.7215174764
0.7214817569
0.7214545018
0.7214334842
0.7214167519
0.7214023886
0.7213890361
0.721379825
0.7213569038
0.6101165499
0.7659249546
0.8559840931
0.9101927177
0.9185023228
0.9167660384
0.9137795152
0.9113521401
0.9081387159
0.9046050749
0.9003786551
0.8954818173
0.8897537406
0.883080364
0.875331973
0.8663755296
0.8561000816
0.8444274836
0.8313523809
0.8169815257
0.8015827581
0.7856183947
0.7697414702
0.7547285287
0.7413506203
0.730225973
0.7217017137
0.7158169029
0.7123405397
0.7108590737
0.7108767868
0.7118990289
0.7134889042
0.7152962245
0.7170662436
0.7186345068
0.7199140682
0.7208787706
0.7215455415
0.7219575527
0.7221698643
0.7222384614
0.7222131025
0.7221336914
0.7220294412
0.7219198645
0.7218166331
0.721725682
0.7216491134
0.7215867185
0.7215370635
0.7214982143
0.7214681591
0.7214449556
0.7214268299
0.7214121653
0.7213992607
0.7213868669
0.7213785174
0.7213557576
0.6087923478
0.7699762128
0.8583921513
0.901030269
0.905229173
0.9030111763
0.8998613876
0.897123514
0.893568591
0.8896099615
0.8849108817
0.8794596096
0.8731054054
0.8657251747
0.8571955457
0.847397015
0.8362484611
0.8237246768
0.8099011873
0.7949957188
0.7794080422
0.7637285986
0.7486955597
0.7350910594
0.7235936456
0.7146533509
0.7084200142
0.7047534327
0.7032947392
0.7035620061
0.7050419424
0.7072564375
0.7098029904
0.7123715399
0.714745822
0.7167946317
0.7184579215
0.7197303722
0.7206446382
0.7212556752
0.7216274875
0.7218230668
0.7218978825
0.7218966534
0.7218527264
0.7217891675
0.7217206646
0.7216556671
0.7215983275
0.7215500728
0.721510749
0.7214794064
0.7214547791
0.7214354842
0.7214201681
0.7214075286
0.7213960623
0.721384629
0.7213771123
0.7213545399
0.6085800573
0.7732861964
0.8576553882
0.8905156252
0.8906205896
0.888138777
0.88479449
0.8817096657
0.8777801522
0.8733589232
0.8681439038
0.8620924577
0.8550646416
0.846935303
0.8375956297
0.826953713
0.8149760294
0.8017108344
0.7873342373
0.7721867855
0.75679457
0.7418457988
0.7281091167
0.7163051517
0.7069677601
0.7003548132
0.6964276869
0.6948983963
0.6953189654
0.6971734662
0.6999552267
0.703216467
0.7065948665
0.7098212633
0.7127160584
0.7151784909
0.7171725057
0.7187110159
0.7198402205
0.7206250776
0.7211370863
0.7214450535
0.7216091696
0.7216781441
0.7216887779
0.7216671378
0.7216304899
0.7215894589
0.7215499922
0.7215149644
0.7214853649
0.7214611319
0.7214416779
0.7214261323
0.72141353
0.7214028624
0.7213928047
0.7213823242
0.7213756363
0.7213532513
0.610311323
0.7751392328
0.8538326128
0.8764906748
0.8748530803
0.8721882595
0.8685920643
0.8651117269
0.8607602305
0.8558246017
0.8500392212
0.8433365054
0.8355914562
0.8266875437
0.8165419285
0.8051054546
0.792408611
0.7785892572
0.7639357499
0.7489111075
0.7341458576
0.7203795305
0.708349581
0.6986568642
0.6916581244
0.6874182051
0.6857351601
0.6862112765
0.6883463317
0.6916184736
0.6955448709
0.6997162286
0.7038124444
0.7076039061
0.7109448642
0.7137618626
0.7160399404
0.7178077963
0.719123195
0.7200595222
0.7206945109
0.7211017572
0.7213453259
0.7214772122
0.7215370861
0.7215535383
0.7215460307
0.7215270655
0.7215041567
0.721481457
0.7214609749
0.7214434474
0.7214289021
0.7214169359
0.7214069421
0.7213981851
0.7213894983
0.7213799564
0.7213741049
0.7213518934
0.614140395
0.775011592
0.8447239102
0.8610672187
0.8578905435
0.8550183929
0.8511218434
0.8472000934
0.8423841954
0.8368931479
0.8305007763
0.8231225837
0.8146534007
0.8049961813
0.7941047569
0.781986345
0.768749945
0.7546356067
0.7400477159
0.7255578182
0.7118639716
0.6997006806
0.6897149205
0.6823471862
0.6777657051
0.6758604812
0.6763011224
0.6786185583
0.6822917848
0.6868139094
0.6917368673
0.6966935683
0.7014055417
0.7056800774
0.7094019839
0.7125219341
0.7150433236
0.7170084152
0.718484789
0.719552888
0.7202955955
0.7207904224
0.7211045875
0.7212927722
0.721397016
0.7214480232
0.7214671203
0.7214684252
0.7214608177
0.7214495761
0.721437616
0.7214263915
0.7214164866
0.721407924
0.7214004274
0.7213935131
0.7213861524
0.7213775328
0.7213725059
0.7213504691
0.6191209216
0.7729571333
0.8315579277
0.8436604315
0.8396137472
0.8365123753
0.8322804058
0.8278920634
0.8225927505
0.8165333698
0.8095287142
0.8014860533
0.7923245102
0.7819771845
0.7704461994
0.7578097925
0.7442698695
0.7301765617
0.7160428954
0.7025189011
0.6903203288
0.6801183815
0.6724223868
0.6674927909
0.6653177609
0.6656432541
0.6680484475
0.6720271597
0.6770620595
0.68267526
0.6884592638
0.6940897038
0.6993274831
0.7040134737
0.7080596365
0.7114377468
0.7141670643
0.7163014474
0.717916769
0.7190993528
0.71993631
0.7205083252
0.7208851625
0.7211236813
0.7212678657
0.7213501816
0.7213935343
0.7214134293
0.7214199347
0.7214193195
0.7214153052
0.721409989
0.7214044572
0.7213991202
0.7213940056
0.7213888611
0.7213827763
0.7213750622
0.7213708559
0.7213489809
0.6229904074
0.7688330454
0.8175177217
0.824723576
0.8200997885
0.8167299946
0.812144222
0.8072738688
0.8014811163
0.7948515794
0.7872406222
0.7785578525
0.7687531607
0.7578031932
0.7457734518
0.7328285236
0.7192731774
0.7055640818
0.6922992473
0.6801628839
0.6698326176
0.6618660334
0.6566063309
0.6541344425
0.6542825926
0.6566890497
0.660878424
0.6663351702
0.6725629553
0.6791211598
0.6856448317
0.6918507257
0.6975359307
0.7025713467
0.7068927983
0.710490391
0.713397035
0.7156764718
0.717411559
0.7186935001
0.7196128538
0.7202528543
0.7206852984
0.7209687933
0.721148908
0.7212595692
0.7213250141
0.7213619382
0.7213814416
0.7213906646
0.7213940443
0.7213942537
0.7213928326
0.7213905433
0.7213876938
0.7213842426
0.7213793792
0.721372557
0.7213691665
0.7213474296
0.626014287
0.762202842
0.8004417167
0.8044952895
0.7995121786
0.7958097818
0.7908491663
0.7854753712
0.7791703102
0.7719632201
0.7637502939
0.7544578842
0.7440772806
0.7326448716
0.7203043091
0.7073163213
0.6940868622
0.6811597982
0.6691795708
0.6588131727
0.6506487707
0.645095879
0.6423235312
0.6422503769
0.6445856218
0.6488960599
0.6546821746
0.6614396408
0.6687041315
0.6760760879
0.6832324526
0.6899282453
0.6959931505
0.7013245966
0.7058792315
0.7096630202
0.7127205938
0.7151241052
0.7169622842
0.7183303677
0.719321706
0.7200215584
0.7205033241
0.7208269942
0.7210394199
0.7211757309
0.7212612846
0.7213137941
0.7213452558
0.721363575
0.721373824
0.7213791913
0.7213816256
0.7213822086
0.7213815071
0.7213796697
0.7213759702
0.7213700327
0.7213674687
0.7213458132
0.6272504855
0.7529503182
0.7816338336
0.783168353
0.777906992
0.7737943475
0.7684276966
0.7625217571
0.7556804079
0.7478932068
0.739099467
0.7292585949
0.7184157676
0.7066800433
0.6942817018
0.6815765291
0.6690562349
0.6573192975
0.6470104039
0.6387299544
0.6329383379
0.6298817084
0.6295646977
0.6317717953
0.6361244576
0.6421502142
0.6493490462
0.6572417473
0.665401933
0.6734717118
0.6811676277
0.6882794847
0.6946659284
0.7002476388
0.7049993614
0.7089407603
0.7121265283
0.714635977
0.7165627684
0.7180054612
0.7190596467
0.7198121707
0.7203376731
0.7206972251
0.7209387016
0.7210982168
0.721202066
0.7212688309
0.721311285
0.7213380053
0.7213546275
0.7213648018
0.7213708446
0.7213741286
0.7213754591
0.7213751536
0.7213725592
0.7213675098
0.7213657821
0.7213441382
0.626100748
0.7371602206
0.7610787751
0.760645714
0.7551611081
0.7505610831
0.744764407
0.7383188478
0.7309460147
0.7226162613
0.7133154109
0.7030493854
0.6919268871
0.6801367024
0.6679958336
0.6559434715
0.6445307079
0.6343705719
0.6260619571
0.6200989254
0.6167927391
0.6162287551
0.618269606
0.6225984209
0.6287819227
0.6363345011
0.6447724539
0.6536499993
0.6625808782
0.6712473859
0.6794024758
0.6868670687
0.6935253089
0.6993181639
0.7042360832
0.7083105687
0.7116049613
0.7142046726
0.7162075053
0.7177147435
0.7188237595
0.7196226184
0.7201868981
0.7205784951
0.7208460893
0.7210265927
0.7211470826
0.7212268803
0.7212794322
0.7213139046
0.721336433
0.7213510806
0.7213604949
0.7213663134
0.7213695619
0.7213707045
0.721369157
0.721365009
0.7213639555
0.721342443
0.6222454701
0.7202389564
0.7386655779
0.7367232376
0.7310687027
0.725962133
0.71974819
0.7128052629
0.7049595523
0.6961823928
0.686510153
0.676005636
0.6648477037
0.6533064332
0.6417777574
0.6307633384
0.6208396339
0.6125922637
0.6065347739
0.6030291951
0.6022333693
0.6040879617
0.6083428487
0.6146122873
0.6224362577
0.6313355065
0.640853501
0.6505818867
0.6601741441
0.6693500443
0.677895382
0.6856586162
0.6925462198
0.6985168283
0.7035745256
0.707761063
0.7111472331
0.7138236559
0.7158916117
0.7174546105
0.7186114211
0.7194510216
0.7200496744
0.7204698874
0.720760961
0.7209604464
0.7210960686
0.7211877767
0.7212495991
0.7212912191
0.7213192153
0.7213380202
0.7213505793
0.7213587715
0.7213638261
0.7213663321
0.7213657742
0.7213625354
0.7213620875
0.7213407156
0.6154809527
0.7014348831
0.7144947825
0.7114068012
0.7056077555
0.7000278554
0.6934360965
0.6860702801
0.6778477687
0.6687582681
0.6588939384
0.6483824151
0.6374752034
0.6265181693
0.615969531
0.6063643786
0.5982668234
0.5921967845
0.5885540301
0.5875582381
0.589223704
0.5933707985
0.5996675908
0.6076883237
0.6169680761
0.627047296
0.6375026964
0.6479642917
0.6581233052
0.6677336649
0.6766104082
0.6846262034
0.6917070266
0.6978269055
0.7030017883
0.7072823297
0.7107457669
0.7134871796
0.7156107696
0.7172218556
0.7184202817
0.7192956838
0.7199247967
0.7203705607
0.7206827404
0.7208993913
0.7210487711
0.7211513599
0.7212216888
0.721269894
0.7213029471
0.7213256107
0.7213410985
0.72135151
0.7213582618
0.7213620451
0.7213624236
0.7213601019
0.7213601152
0.7213389841
0.60587877
0.6812316328
0.6888240394
0.6848461145
0.6788971208
0.6728950955
0.6659785113
0.658281377
0.6498036209
0.6405680235
0.6307263212
0.6204741929
0.6101317566
0.6001068623
0.5908954506
0.5830324983
0.5770337174
0.5733236358
0.5721732161
0.5736633471
0.5776842492
0.5839638818
0.5921173747
0.601702499
0.6122651643
0.6233737349
0.6346407005
0.6457333741
0.6563778342
0.6663586589
0.6755167101
0.6837458639
0.69098913
0.6972339751
0.7025067094
0.706865756
0.7103939495
0.713190202
0.7153611709
0.7170136345
0.7182482444
0.7191550807
0.719811174
0.7202797469
0.7206108964
0.7208430675
0.7210049519
0.721117477
0.721195607
0.7212498749
0.7212876002
0.7213138411
0.7213320518
0.7213445349
0.7213528775
0.7213578518
0.7213591179
0.7213577155
0.7213580613
0.7213372688
0.5936636321
0.6582909195
0.6618210226
0.6571327164
0.6510453525
0.644691205
0.6375288658
0.6296214293
0.6210441361
0.6118642891
0.6022943353
0.5925953481
0.5831451425
0.5743928361
0.566843022
0.5609974557
0.5572939039
0.5560432331
0.5573855769
0.5612770488
0.5675081886
0.5757421092
0.5855655658
0.5965376543
0.6082254861
0.6202296064
0.6321983624
0.6438340864
0.6548944337
0.6651912014
0.6745879452
0.682997102
0.6903765831
0.6967256308
0.7020796473
0.706503869
0.7100860167
0.7129283073
0.7151394632
0.7168274297
0.7180934419
0.7190278465
0.7197078222
0.720196748
0.7205449423
0.7207911423
0.7209643886
0.7210859833
0.7211712633
0.7212311082
0.7212731463
0.7213026992
0.7213234376
0.7213378512
0.7213476812
0.7213537603
0.7213558712
0.7213553843
0.7213559164
0.7213355831
0.5791060923
0.6331812104
0.6336099272
0.6283540225
0.6221699345
0.6155607761
0.6082624877
0.6002984873
0.5918126082
0.5829230989
0.5739003189
0.565061962
0.556826546
0.5496594593
0.5440444605
0.5404217384
0.5391310072
0.5403629309
0.5441353468
0.5502998954
0.5585728464
0.5685771766
0.5798906264
0.5920860628
0.6047578792
0.6175402279
0.6301158348
0.6422191476
0.6536360615
0.6642023885
0.6738015863
0.6823623517
0.6898556752
0.6962911655
0.701712247
0.7061901656
0.7098169299
0.7126976179
0.7149426886
0.7166610088
0.7179542099
0.7189127567
0.7196138532
0.7201209299
0.7204844329
0.7207433085
0.7209268738
0.7210567426
0.721148571
0.721213542
0.7212595568
0.721292172
0.7213152531
0.721331463
0.7213426793
0.7213497783
0.7213526977
0.7213531132
0.7213536901
0.7213339439
0.5622997943
0.6062001891
0.6043214458
0.5986456732
0.5924140027
0.585676215
0.5783833941
0.5705474421
0.562374389
0.5540339298
0.5458465458
0.5381725328
0.5314503479
0.5261358369
0.5226657297
0.5213978144
0.5225637997
0.5262376658
0.5323305943
0.5406125141
0.5507491637
0.5623438371
0.5749794747
0.5882506688
0.6017819935
0.6152407258
0.6283416083
0.6408480753
0.6525710706
0.6633675247
0.6731383531
0.6818265364
0.6894145968
0.6959213204
0.7013972532
0.7059189743
0.7095822757
0.7124947224
0.7147682331
0.7165123896
0.7178290629
0.7188087126
0.7195284656
0.7200517166
0.7204289606
0.7206992829
0.7208922145
0.7210296265
0.7211274478
0.7211971258
0.7212468032
0.7212822458
0.7213074947
0.7213253735
0.7213378775
0.7213459134
0.7213496116
0.7213509044
0.7213513857
0.7213323655
0.5433552606
0.5775531504
0.5739956784
0.56815274
0.5619583384
0.5552474264
0.5481338836
0.5406368703
0.533017892
0.5254942029
0.5184250646
0.5121963551
0.5072446933
0.5039926341
0.5028092784
0.5039576003
0.507560515
0.5135862195
0.5218585612
0.5320881054
0.5439106033
0.5569253705
0.570730271
0.58494609
0.5992282562
0.6132754995
0.6268317984
0.6396864739
0.6516725804
0.6626656019
0.6725817978
0.6813767467
0.6890431936
0.6956080992
0.7011283719
0.7056853533
0.709378192
0.7123166227
0.7146137891
0.7163798142
0.7177166773
0.7187147298
0.7194509375
0.719988586
0.7203781536
0.720658805
0.7208602319
0.7210045151
0.7211078158
0.7211818113
0.7212348578
0.7212729069
0.7213001584
0.7213195851
0.7213332801
0.7213421738
0.721346627
0.7213487559
0.7213490201
0.7213308668
0.5224063626
0.5475172852
0.5428795817
0.5371081832
0.531063338
0.5245494088
0.5178045256
0.5108664512
0.5040441854
0.4975953733
0.4919041944
0.4873634895
0.4843870029
0.4833441187
0.4845223623
0.4880855267
0.4940542
0.5023062208
0.5125983092
0.5246017942
0.5379390492
0.5522166729
0.5670535505
0.5820985793
0.5970372281
0.6115973512
0.6255492626
0.6387052409
0.6509178072
0.6620787566
0.6721178758
0.6810019073
0.6887327106
0.695344573
0.7009001232
0.70548498
0.7092012852
0.7121606726
0.7144773109
0.716261717
0.7176158682
0.718629923
0.7193806157
0.719931063
0.7203316712
0.7206216346
0.7208307593
0.7209812955
0.7210896004
0.7211675515
0.7212236928
0.7212641409
0.7212932392
0.7213140993
0.7213288905
0.7213385674
0.7213437577
0.7213466645
0.7213466148
0.7213294746
0.4996514623
0.5164927561
0.5114410768
0.505776234
0.5000097257
0.4938655764
0.4876803738
0.4815176258
0.4757238314
0.470586506
0.4664990322
0.4638425586
0.4629894171
0.4642410853
0.4677963533
0.473722234
0.4819483852
0.4922796477
0.5044247145
0.5180326261
0.5327249481
0.5481231345
0.5638704332
0.5796440195
0.5951576774
0.6101657928
0.6244621929
0.6378794362
0.6502871785
0.661591587
0.6717344248
0.6806923812
0.6884754925
0.6951246548
0.7007076711
0.7053140235
0.7090485355
0.7120245078
0.7143569631
0.7161566873
0.7175255634
0.7185534863
0.7193169026
0.71987871
0.7202891975
0.7205875468
0.7208036397
0.72095986
0.72107273
0.7211543003
0.7212132805
0.7212559325
0.7212867314
0.7213089161
0.7213247107
0.721335103
0.7213410167
0.7213446266
0.7213442031
0.7213282165
0.4750865011
0.4848499412
0.4798480663
0.4744210001
0.4690659017
0.4634656593
0.4580294674
0.4528490121
0.4482965339
0.4446771215
0.4423775284
0.4417504866
0.4431123585
0.4466875914
0.4525851623
0.460782741
0.4711331873
0.4833856808
0.497217695
0.5122694331
0.528170591
0.5445621474
0.5611130518
0.5775277613
0.5935461746
0.6089465836
0.6235436854
0.6371879206
0.6497640448
0.6611909303
0.6714209946
0.680439841
0.6882648867
0.6949430255
0.7005467673
0.7051691015
0.7089172639
0.7119060209
0.7142511021
0.7160634554
0.7174447923
0.7184846869
0.7192592512
0.7198311238
0.7202504392
0.7205563315
0.7207787248
0.7209401059
0.7210571351
0.7211420124
0.7212035925
0.7212482659
0.7212806284
0.7213040341
0.7213207415
0.7213317897
0.7213384148
0.7213426368
0.7213418268
0.7213270555
0.4492901597
0.4529823321
0.448349635
0.4432907688
0.4384919216
0.4336097213
0.4291041791
0.4250951343
0.4219689342
0.420036065
0.4196622348
0.42115801
0.4247736143
0.4306525175
0.4388176377
0.4491679979
0.4614947333
0.475507374
0.4908661387
0.5072124891
0.5241902055
0.5414622632
0.5587232467
0.575703178
0.5921657178
0.6079105103
0.6227707065
0.6366125063
0.6493339966
0.6608653225
0.6711684267
0.6802369454
0.688094997
0.6947949481
0.7004136129
0.7050471782
0.7088050574
0.7118033074
0.7141582368
0.7159808652
0.717372668
0.7184228516
0.7192071564
0.71978793
0.7202151223
0.7205277907
0.7207558735
0.7209219346
0.7210427481
0.721130643
0.7211946004
0.7212411244
0.7212749225
0.7212994505
0.7213169831
0.7213286373
0.7213359583
0.7213406876
0.7213395059
0.7213259862
0.4224556458
0.4212811778
0.4172165434
0.412655161
0.4085461783
0.4045389567
0.4011242186
0.3984473301
0.3968971796
0.3967778213
0.3984213332
0.4020854045
0.4079479546
0.4160717598
0.4264008486
0.4387679576
0.4529171678
0.4685322824
0.4852672808
0.5027720469
0.5207080898
0.5387612575
0.5566507756
0.5741301644
0.5909845334
0.6070324641
0.6221234019
0.6361374484
0.6489844945
0.66060473
0.6709686584
0.6800771947
0.6879605754
0.6946761869
0.7003047964
0.7049455172
0.7087097335
0.7117146387
0.7140770099
0.7159078605
0.7173083767
0.7183673603
0.7191601504
0.71974878
0.72018299
0.7205017375
0.7207349519
0.7209052513
0.7210295035
0.7211201478
0.7211862753
0.7212344907
0.7212696051
0.7212951607
0.7213134353
0.7213256552
0.7213336481
0.7213387758
0.7213372831
0.7213250366
0.3948956805
0.3900998021
0.3867119573
0.3827703663
0.3794673876
0.3764683545
0.3742763149
0.3730583554
0.3731955686
0.3749747937
0.3786837763
0.3845193193
0.3925843056
0.4028643985
0.4152341136
0.4294727388
0.445290724
0.4623576784
0.4803296221
0.4988696489
0.5176588763
0.5364057837
0.5548526904
0.5727744682
0.5899754211
0.6062908529
0.6215845953
0.6357490303
0.6487045327
0.6604002804
0.6708145086
0.6799547624
0.687856891
0.6945829045
0.7002172145
0.70486162
0.7086292927
0.7116384262
0.7140061692
0.7158434632
0.7172511619
0.7183176332
0.7191177944
0.719713345
0.7201537985
0.7204779934
0.7207158306
0.7208899639
0.7210173367
0.7211104824
0.7211785879
0.7212283467
0.7212646664
0.7212911588
0.7213100979
0.7213228512
0.7213314805