/*--------------------------------*- C++ -*----------------------------------*\
  =========                 |
  \\      /  F ield         | OpenFOAM: The Open Source CFD Toolbox
   \\    /   O peration     | Website:  https://openfoam.org
    \\  /    A nd           | Version:  12
     \\/     M anipulation  |
\*---------------------------------------------------------------------------*/
FoamFile
{
    format      ascii;
    class       volScalarField;
    location    "700";
    object      nut;
}
// * * * * * * * * * * * * * * * * * * * * * * * * * * * * * * * * * * * * * //

dimensions      [0 2 -1 0 0 0 0];

internalField   nonuniform List<scalar> 
16200
(
0.0005111741745
0.001741082392
0.002896104454
0.003794460449
0.004069353851
0.003575179096
0.002610854107
0.001407903067
0.000713137077
0.0001996655477
6.20384561e-06
2.684203583e-06
2.431264337e-06
2.393439159e-06
1.887528438e-06
1.624411256e-06
1.415608357e-06
1.268040706e-06
1.171740052e-06
1.1089532e-06
1.071767894e-06
1.057034174e-06
1.061556105e-06
1.083240284e-06
1.121308021e-06
1.176526194e-06
1.251568144e-06
1.351603142e-06
1.485532342e-06
1.668476455e-06
1.926353395e-06
2.30438996e-06
2.883440703e-06
3.813814118e-06
5.391347818e-06
8.229772611e-06
1.365167384e-05
2.457104238e-05
4.749843569e-05
9.715180261e-05
0.0002071884403
0.00045533979
0.001002056121
0.0010022428
0.001001774846
0.00100076526
0.0009994643461
0.000998903054
0.0009986847444
0.0009986112687
0.0009985970168
0.0009986065492
0.000998626572
0.0009986537044
0.0009986891755
0.0009987374085
0.0009988048625
0.0009989033001
0.0009990483847
0.0009992763464
0.0005043169429
0.001703249224
0.002801469625
0.003600026022
0.003702946972
0.003081387178
0.002129606026
0.001035718546
0.000566947401
4.424411217e-05
2.767704458e-06
2.260003741e-06
2.057087999e-06
2.019034004e-06
1.69256915e-06
1.45297873e-06
1.262564021e-06
1.128097142e-06
1.042013464e-06
9.870730283e-07
9.556530907e-07
9.445182711e-07
9.505124269e-07
9.71500512e-07
1.006651814e-06
1.056603452e-06
1.123818404e-06
1.213160453e-06
1.333058565e-06
1.49772239e-06
1.731100265e-06
2.074315649e-06
2.60025285e-06
3.443916306e-06
4.870556581e-06
7.429918752e-06
1.230647107e-05
2.211011974e-05
4.267055687e-05
8.716206316e-05
0.0001857022543
0.0004078464212
0.0009155953213
0.001002109421
0.001001687123
0.001000785274
0.0009994780457
0.0009989101366
0.0009986896712
0.0009986161977
0.0009986028069
0.0009986133987
0.0009986343773
0.0009986621859
0.0009986980435
0.0009987461969
0.0009988133644
0.000998911194
0.0009990563877
0.000999288041
0.0004981051962
0.00166540374
0.002705685137
0.003401040486
0.003333383757
0.002613454253
0.001645148112
0.0007591997085
0.0003834075989
1.46026079e-05
2.149443021e-06
1.904209518e-06
1.738546791e-06
1.702061825e-06
1.504356129e-06
1.288474552e-06
1.117040261e-06
9.959963465e-07
9.19994689e-07
8.724982087e-07
8.462221679e-07
8.378358673e-07
8.442250566e-07
8.632629715e-07
8.941613199e-07
9.375884636e-07
9.960218333e-07
1.074320848e-06
1.18081272e-06
1.329192407e-06
1.541832404e-06
1.856226584e-06
2.338131011e-06
3.109106214e-06
4.407943286e-06
6.72916432e-06
1.113707984e-05
1.997319341e-05
3.845564357e-05
7.834500423e-05
0.0001664525464
0.000364550503
0.0008162117356
0.001002011211
0.001001611066
0.001000795738
0.0009994929314
0.0009989211197
0.0009986985144
0.0009986242432
0.0009986108143
0.0009986217083
0.000998643073
0.0009986711835
0.0009987071817
0.0009987551753
0.0009988219917
0.0009989192588
0.0009990644346
0.0009992991111
0.0004936080843
0.001628254712
0.00260627632
0.003159182005
0.002949796015
0.002182687433
0.001171677426
0.0005621582442
0.0001915184175
5.376624979e-06
1.799055723e-06
1.617681176e-06
1.481724975e-06
1.446920887e-06
1.336373967e-06
1.141212675e-06
9.865946851e-07
8.775908928e-07
8.104805364e-07
7.694221036e-07
7.474216805e-07
7.410727833e-07
7.473553605e-07
7.642943059e-07
7.913090851e-07
8.292864534e-07
8.809276133e-07
9.513300996e-07
1.048967138e-06
1.18726345e-06
1.387396008e-06
1.684091261e-06
2.137895725e-06
2.860993993e-06
4.074343375e-06
6.235920247e-06
1.033131112e-05
1.852742947e-05
3.564711595e-05
7.254080619e-05
0.0001538986191
0.0003365091777
0.0007521709756
0.001001931677
0.001001536562
0.001000778406
0.0009994978709
0.0009989290106
0.0009987067448
0.0009986324044
0.0009986190258
0.0009986301222
0.0009986517537
0.0009986800941
0.0009987162083
0.0009987640952
0.0009988306322
0.0009989274581
0.0009990726653
0.0009993102081
0.0004893062561
0.001590908198
0.002504755564
0.002912995222
0.002570374196
0.001803044108
0.0008391981894
0.0004296297034
4.610062101e-05
2.10300341e-06
1.521040914e-06
1.375361571e-06
1.264124003e-06
1.231904996e-06
1.17966542e-06
1.004434589e-06
8.660633475e-07
7.687391393e-07
7.099930781e-07
6.747805275e-07
6.564974881e-07
6.517890821e-07
6.578577615e-07
6.730133921e-07
6.969772322e-07
7.309480605e-07
7.779645464e-07
8.434585172e-07
9.360647347e-07
1.068906848e-06
1.262064195e-06
1.547947419e-06
1.982927006e-06
2.671869063e-06
3.822068333e-06
5.863657495e-06
9.721865747e-06
1.742825103e-05
3.349542087e-05
6.805085957e-05
0.0001440813247
0.0003143318818
0.0007009601511
0.001001873001
0.001001469202
0.001000743872
0.0009994977798
0.0009989362348
0.0009987156526
0.0009986414259
0.0009986279042
0.0009986389434
0.0009986606255
0.000998689057
0.0009987252197
0.000998773015
0.0009988393217
0.0009989358061
0.0009990810693
0.0009993212115
0.0004847888186
0.001552852065
0.002399175326
0.002659178682
0.002196094048
0.00141057494
0.0006204649758
0.0002985053646
1.7458988e-05
1.579191277e-06
1.293070656e-06
1.17390629e-06
1.082562971e-06
1.05270329e-06
1.036710263e-06
8.796279565e-07
7.561720321e-07
6.697317972e-07
6.18663848e-07
5.887969222e-07
5.739700624e-07
5.709465093e-07
5.771926201e-07
5.9134486e-07
6.134742833e-07
6.451770206e-07
6.899162607e-07
7.534721605e-07
8.445790786e-07
9.76054178e-07
1.16712187e-06
1.448524163e-06
1.873674327e-06
2.542361922e-06
3.652699504e-06
5.616456172e-06
9.319007281e-06
1.67015816e-05
3.206682512e-05
6.504584951e-05
0.0001374398084
0.0002991438931
0.0006654447133
0.001001830733
0.001001408706
0.001000691954
0.0009994914543
0.0009989418376
0.0009987245629
0.0009986508573
0.0009986371599
0.0009986479918
0.0009986695813
0.0009986980107
0.0009987341853
0.0009987819173
0.0009988480586
0.0009989443056
0.0009990896758
0.0009993322047
0.0004793770758
0.001513256084
0.002288087673
0.002387974877
0.001837019746
0.001027339009
0.0004647570044
0.0001780756485
5.944694648e-06
1.308038267e-06
1.101467073e-06
1.002770623e-06
9.273092084e-07
8.998359153e-07
9.044653082e-07
7.646446244e-07
6.555272457e-07
5.798408317e-07
5.363602108e-07
5.118416945e-07
5.005818125e-07
4.995034975e-07
5.06388867e-07
5.202800772e-07
5.416897458e-07
5.724739519e-07
6.169287586e-07
6.808754199e-07
7.73037651e-07
9.059395591e-07
1.098718681e-06
1.380203027e-06
1.802137791e-06
2.460853806e-06
3.548480961e-06
5.465210926e-06
9.071190265e-06
1.624911837e-05
3.116173764e-05
6.310057574e-05
0.0001330364912
0.0002888280796
0.0006407644438
0.001001801899
0.001001355732
0.001000639221
0.0009994803004
0.0009989462093
0.0009987335315
0.0009986606687
0.0009986467589
0.0009986572496
0.0009986786196
0.0009987069638
0.0009987431194
0.0009987908145
0.0009988568548
0.0009989529638
0.0009990984927
0.0009993431877
0.0004722797808
0.001470331398
0.002168349214
0.002107270294
0.001511224128
0.0007399183054
0.0003588427904
5.799421135e-05
2.410568598e-06
1.100986985e-06
9.369985859e-07
8.551927698e-07
7.931168522e-07
7.685540993e-07
7.834531314e-07
6.603574788e-07
5.651561794e-07
5.00060315e-07
4.639782747e-07
4.44643008e-07
4.368523999e-07
4.377754316e-07
4.456009279e-07
4.598591257e-07
4.813580818e-07
5.130175366e-07
5.588185252e-07
6.249359606e-07
7.200811032e-07
8.566363946e-07
1.052917595e-06
1.338646833e-06
1.762959348e-06
2.420541643e-06
3.500291561e-06
5.396725129e-06
8.957582888e-06
1.603504464e-05
3.071387911e-05
6.20850395e-05
0.0001306050612
0.0002828213559
0.0006257018111
0.001001782781
0.00100130844
0.001000584946
0.000999464977
0.0009989493391
0.0009987423809
0.0009986706863
0.0009986565753
0.0009986666393
0.0009986877
0.0009987159003
0.000998752021
0.000998799711
0.0009988657181
0.0009989617864
0.0009991075312
0.0009993541826
0.0004636910479
0.001422131721
0.00201578208
0.001821731462
0.00120407211
0.0005438156809
0.0002713659546
3.400605926e-05
1.48974089e-06
9.29777582e-07
7.992424859e-07
7.307126919e-07
6.795581919e-07
6.577973362e-07
6.759054093e-07
5.681657903e-07
4.858017384e-07
4.30600685e-07
4.013508553e-07
3.867751066e-07
3.822049799e-07
3.851281354e-07
3.939653155e-07
4.092303857e-07
4.321315106e-07
4.655209968e-07
5.138266238e-07
5.833241509e-07
6.827499975e-07
8.244981734e-07
1.02687258e-06
1.319278824e-06
1.750490506e-06
2.414113608e-06
3.498021861e-06
5.395837636e-06
8.953316724e-06
1.601484412e-05
3.063732923e-05
6.182337735e-05
0.0001297698795
0.000280296958
0.0006183990469
0.001001770232
0.001001265248
0.00100052849
0.0009994465299
0.0009989514327
0.0009987510526
0.0009986808022
0.0009986665202
0.0009986761048
0.000998696795
0.0009987248125
0.0009987608942
0.0009988086147
0.0009988746577
0.0009989707799
0.0009991167978
0.0009993651995
0.0004535607736
0.001368871381
0.001842647261
0.001540143606
0.0008821208725
0.0004065498697
0.0001915189767
1.810573334e-05
1.147642347e-06
7.879825805e-07
6.831231555e-07
6.253999477e-07
5.83020858e-07
5.639032089e-07
5.808041451e-07
4.870539958e-07
4.164713853e-07
3.704853523e-07
3.475491525e-07
3.373750398e-07
3.358369159e-07
3.405435726e-07
3.511735572e-07
3.679524805e-07
3.926934899e-07
4.28565554e-07
4.801689504e-07
5.538725588e-07
6.585107928e-07
8.066368834e-07
1.016763929e-06
1.31832894e-06
1.76023562e-06
2.43594935e-06
3.534196256e-06
5.451800204e-06
9.041487455e-06
1.615938447e-05
3.087760584e-05
6.220679483e-05
0.0001303028369
0.0002807596139
0.0006177543578
0.001001761505
0.001001224715
0.001000469189
0.00099942586
0.0009989526603
0.0009987594834
0.0009986909093
0.000998676505
0.0009986855894
0.0009987058758
0.0009987336915
0.000998769742
0.0009988175335
0.0009988836828
0.0009989799509
0.0009991262981
0.0009993762487
0.0004418435101
0.001310633749
0.001656666082
0.001272666434
0.0006318297507
0.0003099131059
0.0001256665243
1.215943075e-05
9.36973626e-07
6.688086069e-07
5.845183978e-07
5.356346946e-07
5.003802601e-07
4.837324627e-07
4.969530517e-07
4.160360488e-07
3.56361509e-07
3.190041813e-07
3.019168568e-07
2.957951414e-07
2.967834165e-07
3.037858732e-07
3.161406537e-07
3.347411339e-07
3.617753135e-07
4.006395886e-07
4.560707634e-07
5.345553651e-07
6.451026778e-07
8.005475507e-07
1.019786858e-06
1.332573252e-06
1.788337816e-06
2.481205483e-06
3.602359721e-06
5.555345325e-06
9.207566588e-06
1.644369397e-05
3.138804017e-05
6.314198351e-05
0.0001320077712
0.000283781889
0.0006228128365
0.001001754381
0.001001185654
0.001000406461
0.0009994038208
0.000998953217
0.0009987676434
0.0009987009267
0.0009986864584
0.0009986950465
0.0009987149192
0.0009987425313
0.0009987785689
0.0009988264759
0.0009988928027
0.0009989893056
0.0009991360353
0.0009993873374
0.0004282582105
0.00124674001
0.00146570374
0.001008370467
0.0004716237105
0.0002420069476
5.988469946e-05
6.681948259e-06
7.567453834e-07
5.690550999e-07
5.006879912e-07
4.591976348e-07
4.297749372e-07
4.155048972e-07
4.239541945e-07
3.547315105e-07
3.050574344e-07
2.75629595e-07
2.638012963e-07
2.609801263e-07
2.647552975e-07
2.736928339e-07
2.878062248e-07
3.084565168e-07
3.38106923e-07
3.803145042e-07
4.399392757e-07
5.23623407e-07
6.406224245e-07
8.041504735e-07
1.033626819e-06
1.359355308e-06
1.831630432e-06
2.545936368e-06
3.697329469e-06
5.699186095e-06
9.440403076e-06
1.684904567e-05
3.213430336e-05
6.456129117e-05
0.0001347438492
0.0002890587594
0.0006328952037
0.001001747119
0.001001147113
0.001000339819
0.0009993811255
0.0009989532783
0.0009987755168
0.0009987107904
0.0009986963217
0.0009987044374
0.0009987239064
0.0009987513278
0.0009987873802
0.000998835451
0.0009989020265
0.0009989988492
0.0009991460114
0.0009993984709
0.0004125504629
0.001175010982
0.001269426187
0.0007555771548
0.0003637852184
0.0001870492258
3.042306465e-05
3.397009414e-06
6.120574432e-07
4.852195159e-07
4.295619253e-07
3.943953778e-07
3.698594668e-07
3.578357623e-07
3.612294476e-07
3.024716303e-07
2.61803495e-07
2.394875707e-07
2.322333473e-07
2.324533058e-07
2.385029866e-07
2.492056363e-07
2.651460698e-07
2.880388334e-07
3.205449967e-07
3.663432878e-07
4.304202829e-07
5.196147402e-07
6.434914133e-07
8.157211543e-07
1.056356488e-06
1.396450053e-06
1.887452429e-06
2.626829266e-06
3.814783514e-06
5.877322285e-06
9.730961059e-06
1.736050534e-05
3.308938299e-05
6.641201059e-05
0.0001384020763
0.0002963550725
0.0006474786806
0.001001738408
0.001001108365
0.001000268888
0.0009993583545
0.0009989530011
0.0009987831014
0.0009987204551
0.0009987060508
0.0009987137328
0.0009987328236
0.0009987600798
0.0009987961823
0.0009988444681
0.0009989113635
0.0009990085857
0.0009991562268
0.0009994096526
0.0003952497374
0.001094701528
0.001072355865
0.0005607213783
0.0002814805363
0.000139117418
1.839556691e-05
1.859720388e-06
5.013172978e-07
4.13876528e-07
3.697443843e-07
3.397016073e-07
3.190436118e-07
3.089273604e-07
3.074188759e-07
2.580097609e-07
2.254711826e-07
2.094975683e-07
2.058253807e-07
2.090658503e-07
2.170195498e-07
2.29418387e-07
2.472867457e-07
2.725871041e-07
3.081212375e-07
3.576762123e-07
4.263831318e-07
5.213151741e-07
6.523981691e-07
8.338215377e-07
1.086432204e-06
1.441988651e-06
1.953571503e-06
2.721121888e-06
3.951162081e-06
6.084904102e-06
1.007210482e-05
1.796655721e-05
3.423288496e-05
6.865500622e-05
0.0001429024852
0.0003054996239
0.0006661842969
0.0010017273
0.001001068871
0.001000193399
0.0009993359517
0.000998952516
0.0009987904035
0.0009987298897
0.0009987156134
0.0009987229112
0.0009987416618
0.0009987687882
0.0009988049822
0.0009988535367
0.0009989208225
0.0009990185188
0.0009991666811
0.0009994208842
0.0003775870105
0.001008861858
0.0008624169252
0.000427962007
0.0002274818725
0.0001007971553
1.282456029e-05
1.070485487e-06
4.143763331e-07
3.527429396e-07
3.174592869e-07
2.925049974e-07
2.750903134e-07
2.667673277e-07
2.610472892e-07
2.20204724e-07
1.951011858e-07
1.847441089e-07
1.844359707e-07
1.899082445e-07
1.99533911e-07
2.136236282e-07
2.335220902e-07
2.613544971e-07
3.000245377e-07
3.534321602e-07
4.268804908e-07
5.277085004e-07
6.662419055e-07
8.572391674e-07
1.122329853e-06
1.494389669e-06
2.028104175e-06
2.826499416e-06
4.103517981e-06
6.31798933e-06
1.045816765e-05
1.865828206e-05
3.554937639e-05
7.126122681e-05
0.0001481865608
0.00031636833
0.0006887389379
0.001001713142
0.001001028247
0.001000119236
0.0009993142418
0.0009989519282
0.0009987974349
0.0009987390757
0.0009987249884
0.0009987319588
0.0009987504163
0.000998777456
0.0009988137879
0.0009988626667
0.0009989304117
0.0009990286516
0.0009991773734
0.0009994321658
0.0003601935525
0.0009157756204
0.0006938709091
0.0003492305978
0.0001915484904
5.627718849e-05
8.377502326e-06
6.692474371e-07
3.453679003e-07
3.001602387e-07
2.717909598e-07
2.512481286e-07
2.370904172e-07
2.305002009e-07
2.21441232e-07
1.884122124e-07
1.700168997e-07
1.64155095e-07
1.669914755e-07
1.742787188e-07
1.854527649e-07
2.01262078e-07
2.232677388e-07
2.537022711e-07
2.955566543e-07
3.528572052e-07
4.311054528e-07
5.379304073e-07
6.840853133e-07
8.849405392e-07
1.162980348e-06
1.552313245e-06
2.109465926e-06
2.941033978e-06
4.26943306e-06
6.573412648e-06
1.088472583e-05
1.942893542e-05
3.702754906e-05
7.420996394e-05
0.0001542134822
0.0003288759129
0.0007149566231
0.001001695512
0.001000985897
0.001000048819
0.0009992934477
0.0009989513191
0.0009988042111
0.0009987480046
0.0009987341635
0.0009987408678
0.0009987590861
0.000998786088
0.0009988226077
0.0009988718673
0.0009989401389
0.0009990389872
0.0009991883027
0.0009994434959
0.0003456693839
0.000814849035
0.0005603438965
0.000290126009
0.0001596868168
3.112893186e-05
4.000867076e-06
4.549967496e-07
2.903777932e-07
2.558759623e-07
2.329339611e-07
2.158704372e-07
2.044027569e-07
1.995115211e-07
1.879400651e-07
1.61970147e-07
1.49533327e-07
1.477619476e-07
1.528076958e-07
1.616374335e-07
1.743057444e-07
1.918653006e-07
2.160160373e-07
2.490681986e-07
2.94108283e-07
3.553027807e-07
4.383682559e-07
5.512427669e-07
7.05128515e-07
9.160523611e-07
1.20739802e-06
1.614633055e-06
2.196336797e-06
3.063137896e-06
4.446948297e-06
6.848671605e-06
1.134839794e-05
2.027357018e-05
3.865946789e-05
7.748728438e-05
0.0001609567322
0.0003429683606
0.0007447214168
0.001001674182
0.001000941248
0.0009999824003
0.0009992737117
0.0009989507503
0.0009988107495
0.0009987566753
0.0009987431338
0.0009987496359
0.0009987676732
0.0009987946902
0.0009988314505
0.0009988811479
0.0009989500108
0.0009990495279
0.0009991994662
0.0009994548715
0.0003372012422
0.000709643331
0.0004607114524
0.0002420210586
0.0001294833534
1.856570026e-05
1.918175104e-06
3.309319651e-07
2.454613525e-07
2.183348094e-07
1.996211354e-07
1.854362096e-07
1.760963816e-07
1.727866541e-07
1.597304778e-07
1.402237734e-07
1.327281256e-07
1.345852602e-07
1.41361681e-07
1.515600033e-07
1.656916683e-07
1.850083095e-07
2.113006656e-07
2.469474341e-07
2.951433352e-07
3.602052889e-07
4.480729194e-07
5.67009502e-07
7.286867097e-07
9.498111942e-07
1.254753434e-06
1.680412021e-06
2.287631766e-06
3.191524214e-06
4.634506606e-06
7.141836167e-06
1.184668958e-05
2.118874943e-05
4.044000501e-05
8.108485422e-05
0.0001684015573
0.0003586172881
0.0007779746681
0.00100164907
0.001000893852
0.000999920061
0.0009992551136
0.0009989502667
0.0009988170683
0.0009987650929
0.0009987519001
0.0009987582647
0.000998776182
0.0009988032697
0.0009988403249
0.0009988905168
0.0009989600335
0.0009990602757
0.0009992108565
0.0009994662885
0.0003376287123
0.0006054772351
0.0003735623177
0.0002069112569
0.0001022617096
1.21961739e-05
9.362671209e-07
2.553323369e-07
2.077624748e-07
1.860481041e-07
1.70795577e-07
1.591439707e-07
1.517182428e-07
1.498471754e-07
1.36348006e-07
1.227310802e-07
1.1973854e-07
1.240805586e-07
1.322311343e-07
1.436798994e-07
1.592458129e-07
1.803014226e-07
2.087017096e-07
2.468998775e-07
2.982011208e-07
3.670815406e-07
4.597099826e-07
5.846890988e-07
7.541785067e-07
9.856004557e-07
1.304360828e-06
1.748884622e-06
2.38247554e-06
3.325170726e-06
4.830900398e-06
7.451468567e-06
1.237786235e-05
2.217231654e-05
4.236640666e-05
8.499907333e-05
0.0001765431493
0.0003758159758
0.0008147061505
0.0010016202
0.001000843371
0.0009998617669
0.0009992376867
0.0009989499002
0.0009988231863
0.0009987732663
0.0009987604674
0.0009987667589
0.0009987846185
0.0009988118345
0.0009988492395
0.0009988999822
0.0009989702127
0.000999071232
0.0009992224619
0.0009994777412
0.000347837865
0.0005106971892
0.0003167048924
0.0001843020399
5.959950213e-05
8.50289902e-06
4.847944374e-07
2.05103135e-07
1.761435956e-07
1.586072202e-07
1.462433543e-07
1.368152006e-07
1.310939266e-07
1.305446161e-07
1.174165846e-07
1.090132911e-07
1.096358027e-07
1.157453845e-07
1.250295466e-07
1.376550719e-07
1.546267868e-07
1.773875355e-07
2.078467594e-07
2.485398813e-07
3.028803344e-07
3.755119137e-07
4.728406819e-07
6.038209231e-07
7.811195708e-07
1.022903878e-06
1.355664415e-06
1.819440654e-06
2.480181951e-06
3.463292327e-06
5.035232158e-06
7.776562471e-06
1.294083168e-05
2.322320774e-05
4.443792358e-05
8.923030062e-05
0.0001853849607
0.0003945756222
0.0008549458373
0.001001587667
0.001000789555
0.0009998074035
0.0009992214319
0.0009989496727
0.0009988291217
0.0009987812077
0.000998768844
0.0009987751257
0.0009987929904
0.0009988203927
0.0009988582027
0.0009989095513
0.0009989805535
0.0009990823972
0.0009992342714
0.000999489223
0.0003653771114
0.0004733302756
0.0002757110602
0.000165619373
3.184801287e-05
3.511077842e-06
2.795329548e-07
1.696193401e-07
1.500710138e-07
1.357597896e-07
1.257151271e-07
1.181446416e-07
1.139271779e-07
1.144306623e-07
1.023915859e-07
9.830613886e-08
1.017626799e-07
1.091398356e-07
1.194237732e-07
1.331869956e-07
1.515347678e-07
1.75956596e-07
2.084167338e-07
2.515346563e-07
3.088362921e-07
3.851390311e-07
4.870955978e-07
6.240227766e-07
8.091136554e-07
1.061307819e-06
1.408226971e-06
1.891608808e-06
2.580231358e-06
3.60531051e-06
5.246872871e-06
8.116483783e-06
1.353507623e-05
2.43413017e-05
4.665553865e-05
9.378232591e-05
0.0001949376129
0.0004149230088
0.0008987590317
0.001001551614
0.001000732221
0.000999756807
0.0009992063271
0.0009989495987
0.0009988348925
0.0009987889311
0.0009987770405
0.0009987833736
0.0009988013056
0.0009988289524
0.0009988672222
0.0009989192305
0.0009989910595
0.0009990937688
0.000999246273
0.0009995007262
0.0003865814121
0.0004118886118
0.0002473053476
0.0001469207296
1.725179952e-05
1.338215102e-06
1.867887104e-07
1.428645791e-07
1.284916864e-07
1.16708457e-07
1.085001318e-07
1.025228951e-07
9.962887882e-08
1.000838773e-07
9.065800895e-08
9.02702679e-08
9.557276079e-08
1.039266898e-07
1.151486339e-07
1.300232989e-07
1.497098984e-07
1.757390931e-07
2.101329553e-07
2.555953023e-07
3.157728006e-07
3.9566041e-07
5.021665787e-07
6.449812341e-07
8.378411923e-07
1.100484547e-06
1.461708229e-06
1.965028943e-06
2.682235124e-06
3.750807489e-06
5.465401047e-06
8.470885516e-06
1.416051013e-05
2.552721134e-05
4.902160024e-05
9.866167798e-05
0.0002052175196
0.0004368976037
0.0009462397732
0.001001512218
0.001000671227
0.0009997097852
0.0009991923358
0.000998949687
0.0009988405155
0.0009987964513
0.0009987850685
0.0009987915125
0.000998809573
0.0009988375218
0.0009988763052
0.0009989290253
0.0009990017331
0.0009991053417
0.000999258451
0.0009995122425
0.0004123659416
0.0003781478232
0.0002337436791
0.0001263585295
1.002889972e-05
4.81638591e-07
1.430746801e-07
1.214661302e-07
1.102965464e-07
1.005802311e-07
9.396382134e-08
8.940203492e-08
8.753358737e-08
8.679194591e-08
8.167123698e-08
8.414831906e-08
9.068423353e-08
9.986738819e-08
1.1199347e-07
1.279475415e-07
1.489249187e-07
1.7649871e-07
2.127515684e-07
2.604741537e-07
3.234396442e-07
4.068252592e-07
5.178031324e-07
6.664469211e-07
8.670539285e-07
1.140185857e-06
1.515857366e-06
2.039443245e-06
2.785925049e-06
3.899513062e-06
5.690585444e-06
8.839682913e-06
1.481744291e-05
2.678221093e-05
5.153967493e-05
0.0001038773036
0.0002162461561
0.0004605497944
0.0009975041231
0.001001469673
0.001000606452
0.0009996661329
0.0009991794125
0.0009989499425
0.000998846007
0.0009988037837
0.0009987929404
0.0009987995524
0.0009988178011
0.0009988461084
0.000998885458
0.0009989389403
0.0009990125754
0.0009991171079
0.0009992707858
0.0009995237632
0.0004398969836
0.0003647215644
0.0002288332698
8.525064344e-05
5.0158888e-06
1.952148724e-07
1.18035694e-07
1.036997064e-07
9.478152608e-08
8.701214641e-08
8.164378274e-08
7.825021292e-08
7.737964694e-08
7.637733233e-08
7.493776011e-08
7.939119398e-08
8.684319348e-08
9.677995663e-08
1.097767098e-07
1.26767049e-07
1.489783284e-07
1.780284228e-07
2.160628055e-07
2.659620472e-07
3.316298408e-07
4.184307802e-07
5.338080557e-07
6.88229378e-07
8.965686261e-07
1.180235552e-06
1.570504087e-06
2.114685546e-06
2.891140274e-06
4.051287931e-06
5.922362797e-06
9.223021225e-06
1.550652817e-05
2.810814455e-05
5.421436683e-05
0.0001094401872
0.000228049221
0.0004859390337
0.001002144744
0.001001424196
0.001000537772
0.0009996256424
0.000999167507
0.0009989503672
0.0009988513817
0.0009988109437
0.0009988006691
0.0009988075034
0.0009988259984
0.0009988547193
0.0009988946858
0.0009989489788
0.0009990235858
0.0009991290574
0.0009992832593
0.0009995352769
0.0004837984804
0.0003665559425
0.0002287955913
4.148956148e-05
1.359513913e-06
1.199946979e-07
1.001278841e-07
8.907976366e-08
8.187221137e-08
7.548869269e-08
7.122335972e-08
6.893474379e-08
6.902615262e-08
6.850566728e-08
6.9965999e-08
7.571679211e-08
8.387000371e-08
9.451112486e-08
1.083378052e-07
1.263130449e-07
1.496966481e-07
1.801527053e-07
2.198916791e-07
2.718866226e-07
3.401754812e-07
4.303150615e-07
5.500267593e-07
7.101822869e-07
9.26247596e-07
1.220504659e-06
1.625527675e-06
2.19064315e-06
2.997780229e-06
4.206065233e-06
6.160762959e-06
9.621174954e-06
1.622861806e-05
2.950719938e-05
5.705094005e-05
0.000115362683
0.0002406553954
0.0005131314374
0.001002113877
0.001001376019
0.001000465041
0.0009995881105
0.0009991565671
0.0009989509608
0.0009988566535
0.000998817946
0.0009988082668
0.0009988153755
0.0009988341729
0.0009988633608
0.0009989039932
0.000998959143
0.000999034762
0.0009991411783
0.0009992958694
0.0009995467689
0.0005248799444
0.000360261745
0.0002232577924
1.941563654e-05
3.275586336e-07
9.649762319e-08
8.60998217e-08
7.706420876e-08
7.10380973e-08
6.582566887e-08
6.25660851e-08
6.131130829e-08
6.230638799e-08
6.275733376e-08
6.628290363e-08
7.287178036e-08
8.161653574e-08
9.292037861e-08
1.07531084e-07
1.264363524e-07
1.509300184e-07
1.827229123e-07
2.240927288e-07
2.781074833e-07
3.489428739e-07
4.423524304e-07
5.663426115e-07
7.321988533e-07
9.559942249e-07
1.260907078e-06
1.680852735e-06
2.267252429e-06
3.105799683e-06
4.363844081e-06
6.405899203e-06
1.003453162e-05
1.698473258e-05
3.098184249e-05
6.005517824e-05
0.0001216581914
0.0002540955901
0.0005421981174
0.00100207954
0.001001325399
0.001000388063
0.0009995533422
0.0009991465406
0.0009989517216
0.0009988618349
0.0009988248045
0.0009988157457
0.0009988231782
0.0009988423318
0.0009988720382
0.0009989133832
0.0009989694335
0.0009990460999
0.0009991534585
0.0009993086172
0.000999558223
0.0005636900323
0.0003498609279
0.0002095451712
9.632984186e-06
1.263997725e-07
8.252236531e-08
7.450367048e-08
6.708814477e-08
6.200411077e-08
5.778380734e-08
5.546053992e-08
5.517981486e-08
5.700612669e-08
5.864163982e-08
6.350568091e-08
7.067772899e-08
7.995543464e-08
9.188095368e-08
1.072280399e-07
1.270086909e-07
1.525520742e-07
1.856165746e-07
2.285490334e-07
2.8451512e-07
3.5783147e-07
4.544528027e-07
5.826769802e-07
7.54212925e-07
9.857557483e-07
1.301404485e-06
1.73645675e-06
2.34450943e-06
3.215222872e-06
4.524707679e-06
6.657990995e-06
1.046361987e-05
1.777609351e-05
3.253485589e-05
6.323340205e-05
0.0001283410979
0.0002684026312
0.000573214119
0.001002041963
0.001001272621
0.001000306575
0.0009995211533
0.0009991373763
0.0009989526466
0.0009988669371
0.0009988315325
0.0009988231168
0.0009988309203
0.0009988504817
0.0009988807558
0.0009989228578
0.00099897985
0.0009990575936
0.0009991658862
0.0009993214896
0.0009995696231
0.000582191956
0.0003388877646
0.0001855710732
5.638946341e-06
9.411841193e-08
7.130310473e-08
6.487679177e-08
5.875423239e-08
5.44514689e-08
5.111462303e-08
4.969740812e-08
5.033132967e-08
5.289687108e-08
5.568593627e-08
6.137562046e-08
6.90070735e-08
7.87770131e-08
9.128330406e-08
1.073194788e-07
1.27922825e-07
1.544584444e-07
1.887339417e-07
2.33166733e-07
2.910229608e-07
3.667629542e-07
4.665471462e-07
5.989707366e-07
7.761758738e-07
1.015494765e-06
1.341971519e-06
1.79232762e-06
2.422418132e-06
3.326080028e-06
4.688744073e-06
6.917261255e-06
1.090896809e-05
1.860391478e-05
3.416900189e-05
6.659189813e-05
0.000135425749
0.0002836093418
0.0006062546775
0.001002001359
0.001001218017
0.001000230102
0.0009994913712
0.0009991290248
0.0009989537319
0.00099887197
0.0009988381418
0.0009988303905
0.0009988386095
0.0009988586283
0.000998889517
0.0009989324177
0.0009989903903
0.0009990692352
0.0009991784482
0.0009993344708
0.000999580951
0.0005695583388
0.00033356878
0.0001532589342
2.18142566e-06
7.677411683e-08
6.20809998e-08
5.684079176e-08
5.175913962e-08
4.813276727e-08
4.562396932e-08
4.509467705e-08
4.655838073e-08
4.973809211e-08
5.351223009e-08
5.972867946e-08
6.775830182e-08
7.798504426e-08
9.103234302e-08
1.077127643e-07
1.290898938e-07
1.565650479e-07
1.919972426e-07
2.378756428e-07
2.975693688e-07
3.756850502e-07
4.785931603e-07
6.151921839e-07
7.980670478e-07
1.045202392e-06
1.382611915e-06
1.8484831e-06
2.501013604e-06
3.438434559e-06
4.856077783e-06
7.183973131e-06
1.137114744e-05
1.946945126e-05
3.588707155e-05
7.013694165e-05
0.0001429263653
0.0002997481249
0.0006413938705
0.001001957924
0.001001161566
0.001000159212
0.0009994638353
0.0009991214387
0.0009989549729
0.0009988769424
0.0009988446435
0.0009988375762
0.0009988462531
0.000998866776
0.0009988983237
0.0009989420622
0.0009990010507
0.0009990810146
0.00099919113
0.0009993475436
0.000999592186
0.0005532293842
0.0003310626222
8.207127926e-05
7.381622679e-07
6.514455855e-08
5.451096937e-08
5.015211205e-08
4.590528113e-08
4.288239356e-08
4.117238631e-08
4.148888927e-08
4.36622986e-08
4.717587374e-08
5.186847158e-08
5.846010502e-08
6.684979321e-08
7.749950954e-08
9.104963151e-08
1.083322235e-07
1.304378646e-07
1.588046186e-07
1.953449239e-07
2.426208532e-07
3.041064774e-07
3.845575585e-07
4.905584563e-07
6.313171137e-07
8.198705888e-07
1.074871414e-06
1.423327514e-06
1.90493487e-06
2.580319929e-06
3.552333087e-06
5.026808455e-06
7.458350015e-06
1.185065855e-05
2.037382363e-05
3.769158962e-05
7.387426615e-05
0.0001508560398
0.0003168489957
0.0006787006254
0.001001911855
0.001001103205
0.001000093509
0.0009994383969
0.0009991145733
0.0009989563644
0.0009988818619
0.0009988510473
0.0009988446824
0.0009988538569
0.0009988749286
0.0009989071767
0.0009989517894
0.000999011826
0.0009990929197
0.0009992039156
0.0009993606885
0.0009996033078
0.0005326553238
0.0003258535785
4.483896698e-05
2.774577779e-07
5.653899754e-08
4.827768204e-08
4.457376658e-08
4.100438538e-08
3.855048272e-08
3.762396208e-08
3.870613216e-08
4.145116489e-08
4.534691309e-08
5.05990196e-08
5.749209735e-08
6.621142257e-08
7.725207401e-08
9.12695255e-08
1.091158657e-07
1.319091254e-07
1.61125427e-07
1.987315778e-07
2.473639469e-07
3.106031832e-07
3.933572536e-07
5.024278557e-07
6.473386543e-07
8.415882611e-07
1.104512549e-06
1.464138554e-06
1.961713551e-06
2.660380817e-06
3.667842533e-06
5.201055383e-06
7.740629089e-06
1.234799636e-05
2.131809552e-05
3.958489777e-05
7.780911654e-05
0.0001592266415
0.0003349389809
0.000718236699
0.001001863348
0.001001042848
0.001000032627
0.0009994149179
0.0009991083859
0.0009989579007
0.0009988867348
0.0009988573618
0.0009988517161
0.0009988614259
0.0009988830882
0.0009989160753
0.0009989615957