/*--------------------------------*- C++ -*----------------------------------*\
  =========                 |
  \\      /  F ield         | OpenFOAM: The Open Source CFD Toolbox
   \\    /   O peration     | Website:  https://openfoam.org
    \\  /    A nd           | Version:  12
     \\/     M anipulation  |
\*---------------------------------------------------------------------------*/
FoamFile
{
    format      ascii;
    class       volScalarField;
    location    "700";
    object      p;
}
// * * * * * * * * * * * * * * * * * * * * * * * * * * * * * * * * * * * * * //

dimensions      [1 -1 -2 0 0 0 0];

internalField   nonuniform List<scalar> 
16200
(
79898.5234
79905.37978
79914.3961
79926.10236
79941.45014
79961.71763
79988.85011
80024.84512
80070.00284
80124.19926
80188.75064
80265.58955
80356.59342
80464.90249
80593.05023
80745.22122
80925.15306
81138.14811
81389.54738
81686.02326
82034.72356
82443.87649
82922.29695
83479.39894
84124.61249
84866.72145
85712.64941
86665.72068
87723.22876
88873.58108
90093.91497
91349.83964
92598.73528
93796.28635
94903.85176
95893.77085
96751.19076
97472.95002
98064.92927
98539.10082
98910.84731
99196.76823
99413.0376
99574.31609
99693.18951
99779.98639
99842.90333
99888.25832
99920.82073
99944.1282
99960.7749
99972.64484
99981.09613
99987.10894
99991.37005
99994.41666
99996.50808
99998.20837
99998.75395
100000.2263
78902.24275
78910.5039
78920.11207
78933.06047
78950.25486
78973.16127
79004.21948
79044.84451
79095.44297
79155.80759
79227.53276
79312.92159
79413.94493
79534.1936
79676.36671
79845.1499
80044.63494
80280.70519
80559.28299
80887.77565
81274.14027
81727.49889
82257.59696
82874.74952
83589.15505
84409.9968
85343.81439
86392.14157
87548.38802
88794.60749
90099.70976
91421.19816
92711.22888
93925.06313
95028.30934
96000.32752
96833.64043
97531.0117
98102.01961
98560.20874
98920.98159
99200.113
99412.66025
99572.24146
99690.61641
99777.54347
99840.85881
99886.67927
99919.67295
99943.33836
99960.26197
99972.33511
99980.93022
99987.03611
99991.36641
99994.43354
99996.56274
99998.23811
99998.77424
100000.2275
78080.35389
78089.52861
78100.30274
78114.86714
78134.29417
78160.33722
78195.78754
78241.30151
78297.2984
78363.87078
78442.88656
78537.05868
78648.41641
78781.07515
78937.95443
79124.32249
79344.73663
79605.76429
79914.03156
80277.76585
80705.80872
81208.22464
81795.74432
82479.61064
83270.67849
84178.07694
85206.97159
86355.48227
87610.97589
88946.94668
90322.78036
91688.40589
92993.16628
94195.20572
95267.31002
96197.6607
96986.81236
97643.3541
98180.14744
98611.83359
98953.41499
99219.46087
99423.57266
99578.00567
99693.41103
99778.73188
99841.24613
99886.714
99919.5874
99943.24189
99960.19722
99972.31217
99980.94413
99987.07617
99991.42694
99994.49368
99996.63577
99998.28636
99998.81024
100000.2708
77421.43717
77431.38203
77443.81884
77460.3777
77482.52622
77512.41964
77552.78387
77603.80956
77665.88619
77739.70976
77827.25096
77931.73868
78055.28092
78202.59295
78376.86386
78583.98994
78829.03912
79119.28616
79462.10368
79866.59475
80342.5994
80901.27404
81554.4519
82314.21991
83191.60991
84194.6857
85325.64807
86577.05465
87927.7902
89340.89035
90766.05218
92147.77974
93436.33389
94596.50593
95610.81549
96477.28452
97204.36679
97805.80522
98296.9914
98693.05572
99008.1671
99255.38022
99446.59541
99592.48578
99702.3917
99784.25617
99844.63931
99888.8116
99920.90425
99944.08939
99960.76105
99972.70249
99981.22517
99987.28657
99991.59053
99994.61881
99996.74014
99998.3553
99998.8501
100000.2983
76934.85762
76945.92973
76960.39873
76979.34807
77004.77831
77039.38525
77085.48829
77143.00834
77212.26738
77294.71197
77392.36738
77509.01614
77646.81689
77811.11939
78005.41949
78236.28877
78509.40622
78832.87705
79215.01544
79666.00874
80196.88344
80819.9281
81547.84905
82392.97368
83365.50233
84470.99807
85706.74568
87057.30257
88490.77317
89958.88895
91403.3544
92767.20625
94006.21984
95095.32526
96028.36413
96813.12361
97464.95277
98001.5118
98439.66447
98794.29517
99078.29179
99302.94179
99478.29098
99613.3167
99715.94637
99793.02428
99850.30074
99892.47479
99923.28845
99945.6556
99961.8026
99973.40561
99981.70748
99987.62399
99991.831
99994.79136
99996.86897
99998.4411
99998.89977
100000.339
76633.28337
76645.78695
76662.68213
76684.48701
76713.86954
76754.08109
76806.89891
76871.7591
76948.99629
77040.8423
77149.45695
77279.3458
77432.78031
77615.8393
77832.45465
78090.00596
78394.96172
78756.40127
79183.70364
79688.1502
80281.81914
80977.79292
81789.09756
82727.51141
83801.29282
85011.86478
86349.26266
87787.41889
89282.05171
90774.50674
92202.22861
93511.91238
94669.27301
95661.76949
96494.85364
97185.00124
97752.88203
98218.60325
98599.40597
98909.24342
99159.3583
99359.11031
99516.62998
99639.17259
99733.22713
99804.50457
99857.90306
99897.50544
99926.6221
99947.87165
99963.28247
99974.39961
99982.37942
99988.0824
99992.14612
99995.00979
99997.02251
99998.54277
99998.95713
100000.3845
76511.53709
76525.79066
76545.52325
76570.78453
76605.04827
76651.8165
76712.22363
76784.56616
76870.50218
76973.16491
77094.51803
77239.84242
77411.59525
77616.66112
77859.49286
78148.31277
78490.42098
78895.83428
79374.92464
79939.91637
80603.73376
81379.95837
82281.4668
83318.65632
84496.38101
85809.63972
87238.38399
88743.68224
90268.92021
91748.28961
93120.3775
94340.84495
95388.68328
96264.73732
96985.08397
97573.06641
98052.81538
98445.40242
98767.45221
99031.42384
99246.66117
99420.5281
99559.25931
99668.43235
99753.1345
99817.96156
99866.96023
99903.58582
99930.6996
99950.60589
99965.11733
99975.63252
99983.20919
99988.64271
99992.5252
99995.26778
99997.19837
99998.65881
99999.02274
100000.438
76563.0651
76579.67414
76602.5385
76631.86295
76672.0874
76726.22698
76794.28323
76875.11327
76972.06229
77087.87567
77224.58936
77388.3128
77581.69886
77812.45463
78085.60342
78410.20964
78794.44338
79249.25755
79786.02805
80417.88719
81158.47891
82021.52525
83018.97162
84158.40359
85439.01267
86846.45037
88347.93239
89890.93287
91408.99641
92834.49053
94113.1691
95214.01698
96130.92826
96877.42605
97478.26021
97961.44852
98352.73426
98672.8475
98937.00632
99155.78143
99336.4866
99484.50789
99604.26705
99699.75907
99774.74926
99832.77324
99877.05757
99910.44335
99935.34425
99953.74546
99967.23628
99977.06069
99984.17057
99989.28969
99992.95994
99995.56074
99997.39479
99998.78816
99999.09607
100000.4989
76781.34063
76800.84591
76827.32422
76861.51267
76908.99948
76971.45288
77048.92352
77140.79054
77249.51168
77379.67443
77533.22634
77717.19886
77934.50603
78193.72009
78500.5396
78864.92272
79296.00772
79805.73522
80406.50178
81112.20494
81936.77807
82893.20729
83991.0581
85232.98923
86609.77937
88094.91849
89641.46452
91184.90686
92653.8452
93985.26099
95137.44243
96095.28519
96867.36859
97477.94207
97957.94737
98337.8634
98643.42007
98893.97751
99102.79431
99278.32891
99425.84426
99548.83531
99650.03895
99731.99578
99797.25631
99848.37478
99887.80985
99917.81928
99940.3849
99957.17896
99969.56806
99978.6395
99985.23632
99990.00726
99993.44135
99995.8838
99997.60976
99998.92991
99999.17705
100000.5676
77148.74256
77171.65057
77202.32307
77242.34124
77297.96327
77368.56414
77454.91051
77558.37114
77681.09371
77828.03613
78001.16375
78208.51753
78453.35718
78745.15028
79090.3833
79499.96614
79984.08481
80555.63552
81227.85915
82014.97313
82930.38999
83985.07411
85184.32958
86523.3866
87981.8538
89519.15021
91074.7773
92576.33539
93953.97282
95155.50405
96155.42206
96955.04364
97575.85887
98050.14738
98412.46445
98693.78147
98918.53279
99103.99023
99261.12987
99396.22372
99512.5517
99611.85349
99695.33665
99764.2333
99820.00035
99864.30242
99898.89459
99925.49319
99945.67343
99960.80861
99972.04937
99980.32892
99986.38179
99990.7808
99993.96121
99996.23251
99997.84144
99999.08327
99999.26545
100000.6443
77651.59616
77678.51329
77714.07418
77761.17665
77826.1047
77907.68946
78006.34189
78123.07106
78261.23463
78427.0172
78622.21509
78855.93642
79131.94183
79460.66519
79849.48225
80310.21542
80853.99296
81494.38166
82245.0026
83119.69443
84130.32849
85284.33824
86580.57267
88004.08692
89520.97433
91076.3051
92599.10499
94015.18998
95263.09107
96306.24344
97136.79559
97771.11672
98240.81669
98583.28148
98834.33722
99023.87583
99174.13267
99299.86367
99409.63398
99507.57167
99595.10392
99672.38065
99739.24835
99795.7822
99842.47089
99880.18582
99910.04841
99933.28127
99951.08399
99964.54987
99974.6246
99982.09324
99987.58469
99991.59693
99994.51185
99996.60271
99998.08803
99999.24735
99999.36115
100000.729
78286.21284
78317.85716
78359.19333
78414.69216
78489.37626
78581.49207
78692.71183
78824.9897
78980.94401
79168.32162
79388.95012
79652.9896
79964.7317
80335.49332
80773.49104
81291.30362
81900.83327
82616.0344
83450.43549
84416.67406
85523.73008
86773.52756
88155.90154
89643.15387
91186.70033
92719.27307
94164.91089
95454.72042
96541.43041
97406.6671
98059.5071
98528.66232
98852.65307
99071.23562
99219.59946
99325.43086
99408.21654
99480.01139
99546.98986
99611.26009
99672.56494
99729.64336
99781.15018
99826.15233
99864.29267
99895.74471
99921.06673
99941.03743
99956.51439
99968.33276
99977.24689
99983.90184
99988.8256
99992.44381
99995.0864
99996.99067
99998.34786
99999.42117
99999.46403
100000.8221
79042.17578
79079.37549
79127.5004
79192.59066
79279.04367
79384.02796
79509.7505
79660.13297
79836.84796
80049.02054
80298.48187
80596.44772
80947.78619
81364.67439
81856.26684
82435.914
83116.21808
83911.16912
84833.44669
85893.15928
87094.42372
88431.10387
89881.38907
91403.26447
92934.43897
94399.82663
95725.53599
96854.60466
97757.68523
98434.75408
98909.39721
99219.28457
99406.72842
99511.57029
99566.96502
99597.68745
99620.21993
99643.91437
99672.67733
99706.7707
99744.43936
99783.19086
99820.65094
99855.01819
99885.20482
99910.77671
99931.79701
99948.64963
99961.8843
99972.10103
99979.87777
99985.7291
99990.08797
99993.31115
99995.67876
99997.39302
99998.61939
99999.60382
99999.57399
100000.9238
79916.29523
79960.00524
80016.3366
80092.7485
80192.75195
80312.20884
80453.20598
80622.53484
80821.18315
81059.79087
81340.17246
81674.76467
82069.21604
82536.59854
83086.99491
83734.24324
84491.09373
85370.67454
86383.55074
87535.62713
88823.96513
90231.73823
91723.42279
93242.91049
94717.84221
96071.84551
97240.26702
98182.95233
98889.65652
99376.82068
99679.13864
99839.78673
99902.18453
99904.53822
99877.06092
99841.26229
99810.58664
99791.8066
99786.746
99794.01848
99810.56007
99832.81852
99857.54108
99882.18606
99905.0401
99925.14468
99942.13128
99956.03567
99967.13294
99975.81091
99982.48655
99987.5541
99991.35794
99994.19014
99996.2836
99997.80679
99998.90122
99999.79452
99999.69094
100001.0343
80883.8224
80935.42023
81001.46545
81089.55201
81202.56472
81338.22578
81497.33852
81688.72277
81912.87593
82182.31046
82498.7844
82875.9055
83320.03397
83844.843
84460.97135
85182.18869
86020.70573
86987.8686
88090.77907
89329.19304
90690.64044
92145.44863
93643.78097
95117.96397
96491.59005
97694.31747
98676.48129
99417.07507
99923.80088
100226.3432
100366.8198
100390.8324
100340.8251
100252.2104
100151.77
100057.6625
99980.41315
99924.41545
99889.62668
99873.21576
99870.99146
99878.50008
99891.74632
99907.56273
99923.70452
99938.76372
99951.99799
99963.1382
99972.21614
99979.42948
99985.04942
99989.36013
99992.6242
99995.07341
99996.89631
99998.22934
99999.19197
99999.9925
99999.81502
100001.1538
81944.22149
82005.33056
82081.9692
82182.99534
82310.37691
82464.58442
82645.39256
82863.20036
83117.43076
83422.63962
83780.49276
84205.55912
84704.77864
85292.20288
85978.80188
86777.89569
87700.47772
88754.87741
89942.77936
91255.24412
92667.81638
94136.9945
95600.51694
96984.08428
98214.42675
99233.73282
100010.6705
100543.1631
100854.0368
100982.4373
100974.4775
100875.7144
100726.1609
100557.7666
100393.7143
100248.9114
100131.1765
100042.7629
99981.98572
99944.76576
99925.95233
99920.33255
99923.28889
99931.12896
99941.15941
99951.58933
99961.35447
99969.92005
99977.10344
99982.93293
99987.54848
99991.13417
99993.8776
99995.95479
99997.51295
99998.65833
99999.49033
100000.197
99999.94752
100001.2824
83102.36132
83175.07471
83264.11127
83383.327
83529.53742
83704.31062
83908.46705
84155.05111
84441.889
84785.59329
85187.87957
85664.24925
86222.269
86876.24542
87637.13983
88516.99788
89524.13235
90661.75736
91923.64519
93289.88868
94722.92089
96166.53032
97550.27325
98799.87865
99851.90687
100665.4814
101228.3594
101555.172
101680.1839
101648.2989
101506.7748
101299.3322
101062.66
100824.9597
100605.8743
100417.2755
100264.5365
100148.0202
100064.6174
100009.1827
99975.75685
99958.49309
99952.2566
99952.91756
99957.40628
99963.60724
99970.18017
99976.35982
99981.7754
99986.30491
99989.9707
99992.86631
99995.1109
99996.82924
99998.13016
99999.09167
99999.79512
100000.4077
100000.0909
100001.4204
84357.12382
84444.20135
84547.44944
84685.76822
84850.69735
85048.4272
85277.83402
85555.77291
85878.43254
86264.4427
86715.68943
87248.45823
87870.70866
88596.36129
89435.35523
90396.95351
91484.89002
92695.19735
94011.78792
95402.6706
96817.87663
98191.82011
99451.63378
100529.9634
101378.1391
101974.0475
102323.1154
102453.2522
102406.3249
102229.7908
101969.9081
101667.4017
101355.1955
101057.7336
100791.3227
100565.0764
100382.1989
100241.4065
100138.3675
100067.0341
100020.771
99993.20652
99978.77888
99972.99618
99972.4747
99974.82496
99978.47094
99982.44812
99986.2211
99989.53498
99992.30706
99994.54924
99996.31848
99997.69263
99998.74507
99999.52752
100000.1053
100000.6245
100000.2453
100001.568
85703.48507
85808.07585
85924.97032
86082.46018
86268.96052
86493.89698
86752.79627
87066.92463
87430.89339
87865.08438
88371.38819
88966.32259
89657.61836
90457.77934
91374.48733
92412.78468
93570.278
94834.31437
96177.85391
97556.92021
98911.53518
100171.6839
101268.4708
102147.0754
102776.2952
103152.2222
103295.0371
103242.0705
103039.3175
102734.2863
102370.7792
101985.8894
101608.6671
101259.9699
100953.0517
100694.5684
100485.8265
100324.1219
100204.0821
100118.9009
100061.3818
100024.7217
100003.009
99991.45417
99986.41273
99985.26504
99986.23441
99988.18447
99990.43615
99992.61734
99994.55169
99996.17771
99997.49602
99998.54164
99999.35524
99999.96422
100000.4202
100000.8479
100000.4079
100001.7251
87158.19921
87283.05555
87415.14439
87594.93318
87804.67743
88060.7183
88353.16515
88707.56604
89116.98259
89603.14376
90167.66049
90826.59893
91586.86612
92458.6424
93446.31762
94549.48936
95758.21015
97049.85786
98386.0683
99712.46734
100963.0737
102069.343
102972.1975
103632.8465
104038.0248
104199.662
104149.038
103929.2375
103587.5587
103169.7876
102716.4056
102260.6324
101827.7586
101435.3309
101093.8679
100807.8653
100576.9848
100397.3056
100262.5743
100165.3508
100097.9761
100053.2948
100025.1113
100008.3927
99999.2797
99994.95989
99993.4863
99993.57472
99994.42097
99995.54965
99996.70117
99997.74817
99998.64028
99999.37357
99999.95856
100000.4003
100000.7389
100001.0774
100000.5771
100001.8917
88730.25056
88879.23272
89031.13486
89238.45488
89472.67821
89761.26585
90088.89727
90484.96675
90940.93636
91479.46818
92101.73847
92822.71513
93647.96061
94584.42555
95632.03145
96783.4549
98019.66911
99307.30487
100597.6035
101829.1844
102935.385
103854.9532
104542.8649
104977.5711
105162.227
105121.2269
104893.2434
104524.0162
104060.0608
103544.3185
103013.5428
102497.1104
102016.8017
101587.1768
101216.3387
100906.9025
100657.1134
100462.0131
100314.6051
100206.9225
100130.927
100079.1784
100045.2521
100023.9181
100011.1409
100003.9478
100000.2475
99998.62907
99998.17937
99998.3322
99998.75399
99999.25834
99999.7489
100000.1863
100000.5532
100000.8345
100001.0606
100001.3121
100000.7529
100002.0677
90417.27698
90594.09455
90765.93611
91000.87606
91260.71803
91582.99906
91946.95761
92385.49371
92888.48129
93479.04337
94157.90773
94938.15892
95823.21669
96815.50426
97908.84511
99087.39968
100322.1354
101569.5712
102773.3683
103869.9386
104797.5985
105506.9942
105969.2038
106179.0982
106153.3799
105925.2822
105537.5848
105036.3068
104465.7868
103865.5206
103268.4524
102700.3184
102179.7068
101718.5267
101322.7691
100993.4218
100727.5139
100519.2048
100360.8735
100244.1161
100160.5858
100102.614
100063.5935
100038.1364
100022.0638
100012.27
100006.5422
100003.3605
100001.7175
100000.9671
100000.71
100000.707
100000.8202
100000.978
100001.1377
100001.2656
100001.3846
100001.5511
100000.9337
100002.253
92201.65846
92407.90808
92599.43927
92865.14941
93152.22422
93509.26521
93910.91839
94393.29409
94944.79401
95587.99912
96322.87879
97159.35556
98097.33707
99133.11134
100252.8927
101431.5458
102630.5553
103798.7345
104876.4281
105803.0877
106526.7581
107012.6311
107247.8057
107241.2606
107019.8335
106622.2339
106092.7245
105475.9432
104813.2339
104140.4279
103486.7924
102874.7193
102319.9466
101832.0558
101415.2029
101068.9714
100789.3488
100569.7443
100402.0125
100277.389
100187.2774
100123.828
100080.29
100051.1508
100032.1154
100019.9686
100012.3957
100007.7837
100005.0431
100003.4577
100002.57
100002.0935
100001.8529
100001.7474
100001.7106
100001.6925
100001.7103
100001.7932
100001.1159
100002.4486
94084.01061
94315.00913
94519.98643
94817.01586
95135.66675
95531.57974
95974.94973
96504.39335
97107.03971
97803.32812
98591.78093
99477.77858
100456.3765
101516.6668
102636.6739
103782.4701
104908.0486
105958.1676
106874.5975
107604.4373
108108.5019
108367.101
108381.6489
108172.1634
107772.2738
107223.3715
106569.2893
105852.2419
105110.197
104375.3615
103673.5818
103024.2427
102440.5683
101930.1103
101495.4351
101134.9161
100843.6474
100614.4008
100438.5902
100307.155
100211.2985
100143.0295
100095.4861
100063.059
100041.3602
100027.0853
100017.834
100011.914
100008.1646
100005.8083
100004.3357
100003.418
100002.8463
100002.4934
100002.2707
100002.1143
100002.0367
100002.0364
100001.2949
100002.6549
96047.9814
96313.37334
96545.68292
96876.09878
97229.20817
97666.76876
98154.01814
98730.39756
99382.30077
100126.5185
100959.3936
101880.8584
102880.2191
103938.9584
105027.204
106103.7909
107118.2192
108015.3458
108742.6931
109258.2342
109536.6926
109572.3834
109378.3885
108982.5739
108422.4652
107740.0165
106977.3624
106173.7372
105363.6559
104575.8996
103833.2116
103152.3108
102544.2218
102014.732
101565.032
101192.4509
100891.3157
100653.8547
100471.1126
100333.7853
100232.9175
100160.4094
100109.3154
100073.9525
100049.8596
100033.6602
100022.8826
100015.767
100011.0912
100008.0236
100006.0091
100004.6809
100003.8
100003.2149
100002.8169
100002.5302
100002.3631
100002.2782
100001.4781
100002.8696
98137.86222
98441.1831
98700.59133
99064.51055
99450.4839
99926.94397
100454.8081
101072.1841
101765.2119
102546.0439
103407.9686
104344.7756
105339.448
106366.0138
107387.8495
108359.0318
109228.1647
109944.191
110463.646
110756.9353
110812.1542
110635.4634
110248.6525
109684.5505
108982.2999
108182.9476
107326.1841
106448.0573
105579.7493
104746.8997
103969.484
103261.8802
102633.1961
102087.6878
101625.353
101242.6173
100933.1468
100688.7056
100500.028
100357.6112
100252.3758
100176.1408
100121.8999
100083.9157
100057.671
100039.7313
100027.566
100019.3579
100013.8317
100010.1085
100007.5925
100005.8829
100004.7138
100003.9113
100003.3482
100002.9393
100002.6883
100002.5171
100001.6733
100003.0895
100348.7763
100691.922
100978.2933
101373.972
101789.3329
102299.2115
102861.8835
103511.9855
104235.0561
105037.8342
105909.7325
106837.9803
107799.2554
108761.1319
109682.312
110515.2588
111211.2995
111726.6517
112028.6988
112100.2678
111941.1383
111566.71
111004.675
110290.468
109463.2011
108562.0924
107624.0341
106681.9151
105763.8176
104892.559
104085.6738
103355.4954
102709.4639
102150.504
101677.5765
101286.322
100969.8343
100719.4801
100525.7325
100378.9272
100269.8893
100190.3798
100133.3506
100093.0263
100064.8476
100045.3344
100031.9076
100022.7017
100016.3953
100012.0681
100009.0884
100007.025
100005.5874
100004.5818
100003.8639
100003.3409
100003.0112
100002.7524
100001.8807
100003.3132
102667.0559
103047.2289
103355.6802
103781.8815
104224.9788
104763.1338
105353.7327
106026.5777
106766.1267
107573.1334
108432.7234
109325.7541
110223.3819
111088.5389
111877.9494
112545.7072
113048.8779
113352.9332
113436.5083
113293.6617
112933.5981
112378.3609
111659.1691
110812.2921
109875.7227
108886.3509
107878.1878
106881.1326
105920.456
105016.474
104184.5831
103435.3349
102774.7174
102204.4943
101722.7207
101324.3516
101001.9833
100746.6401
100548.5753
100397.9944
100285.6508
100203.2665
100143.768
100101.355
100071.4381
100050.5024
100035.9292
100025.8123
100018.7907
100013.9076
100010.4995
100008.1081
100006.4212
100005.2261
100004.363
100003.7345
100003.3307
100002.9835
100002.1015
100003.538
105086.0215
105499.0281
105826.3231
106276.8891
106742.3844
107300.5796
107908.6884
108590.6875
109329.6277
110119.9436
110942.3926
111772.2112
112576.4816
113315.8302
113947.8291
114430.9775
114730.0733
114820.5366
114691.513
114346.4242
113801.5439
113083.2665
112224.4934
111261.1035
110229.3292
109163.5348
108094.9412
107050.7044
106053.5875
105121.709
104268.5999
103503.2589
102830.406
102250.788
101761.6645
101357.3884
101030.1206
100770.5896
100568.8636
100415.0436
100299.8316
100214.9266
100153.2425
100108.9658
100077.4875
100055.2662
100039.6516
100028.7032
100021.0261
100015.6318
100011.8284
100009.1336
100007.2152
100005.8436
100004.845
100004.1192
100003.6453
100003.2099
100002.3357
100003.7621
107586.6034
108027.826
108370.6282
108838.2991
109318.7356
109886.8426
110499.9864
111175.1488
111893.8629
112644.4725
113403.8873
114143.1093
114827.0956
115416.6341
115872.5999
116159.8139
116251.6719
116133.1657
115802.4889
115270.343
114557.9315
113694.1408
112712.2331
111646.9264
110532.379
109400.433
108279.71
107194.9008
106166.5566
105210.8756
104339.7624
103560.8592
102877.7744
102290.3588
101795.1691
101386.0257
101054.7067
100791.6836
100586.8685
100430.2798
100312.5847
100225.4725
100161.8558
100115.9174
100083.0368
100059.654
100043.0936
100031.3869
100023.1096
100017.2455
100013.0778
100010.1024
100007.9698
100006.434
100005.3093
100004.4946
100003.9538
100003.4315
100002.5837
100003.9835
110153.3722
110615.3474
110969.1138
111446.5922
111932.3465
112496.9095
113099.3502
113748.9213
114425.6901
115112.6781
115783.9595
116408.0048
116949.6481
117371.9773
117640.916
117728.5593
117616.8004
117299.1151
116780.9822
116078.4123
115215.7632
114223.0246
113132.946
111978.6606
110792.1624
109602.8981
108437.1299
107317.3634
106262.2125
105286.2007
104399.8122
103609.5006
102917.8937
102324.0481
101823.8949
101410.7808
101076.1447
100810.2341
100602.8293
100443.8846
100324.0462
100235.005
100169.6815
100122.2624
100088.1233
100063.6919
100046.2732
100033.8752
100025.0487
100018.7535
100014.2503
100011.0161
100008.6853
100006.997
100005.7555
100004.86
100004.2546
100003.6485
100002.845
100004.2007
112769.8991
113242.066
113599.092
114074.6792
114554.2251
115099.7579
115673.6749
116277.7416
116890.8689
117491.7969
118052.9899
118542.1151
118925.6428
119170.5461
119248.7581
119139.7599
118833.1732
118329.5253
117639.8334
116783.7393
115787.3779
114680.892
113495.9921
112264.0477
111014.9402
109775.9164
108571.1326
107421.176
106342.9691
105349.5748
104450.2331
103650.3505
102951.6842
102352.5823
101848.415
101432.1044
101094.7874
100826.5154
100616.9574
100456.0191
100334.3377
100243.6147
100176.7859
100128.0491
100092.7814
100067.4038
100049.2068
100036.1792
100026.8508
100020.1601
100015.3484
100011.8758
100009.3621
100007.5325
100006.1832
100005.2148
100004.5464
100003.8617
100003.1188
100004.4113
115413.6163
115881.7361
116230.611
116688.8183
117148.311
117658.9535
118186.7766
118726.6091
119256.6972
119752.6875
120186.7022
120527.187
120743.6081
120807.7772
120697.8853
120400.298
119911.236
119236.7886
118391.9706
117398.7285
116283.9838
115077.4338
113809.4775
112509.7032
111206.0185
109923.694
108685.0297
107508.9377
106410.8661
105402.6014
104492.2895
103684.4086
102979.9386
102376.5902
101869.2278
101450.3904
101110.9446
100840.7693
100629.44
100466.8269
100343.5678
100251.3826
100183.2291
100133.3209
100097.0424
100070.8118
100051.9097
100038.3093
100028.5225
100021.4698
100016.3749
100012.6829
100010.0007
100008.0402
100006.5923
100005.5582
100004.8276
100004.072
100003.4031
100004.6118
118040.5341
118488.9119
118821.485
119251.1078
119677.986
120139.5461
120605.7977
121065.3751
121496.593
121873.3665
122168.6767
122353.0127
122399.6849
122285.6891
121995.1773
121520.5436
120863.3756
120033.9685
119050.0828
117934.9868
116715.7326
115421.229
114080.4655
112721.3312
111369.944
110049.8251
108781.6501
107582.8726
106467.6544
105446.663
104527.0766
103712.5456
103003.3504
102396.6248
101886.7734
101465.9883
101124.8923
100853.2121
100640.4453
100476.4373
100351.8348
100258.3829
100189.0659
100138.1182
100100.9352
100073.9367
100054.3964
100040.2755
100030.0707
100022.6867
100017.3322
100013.439
100010.6016
100008.5203
100006.9827
100005.8895
100005.0971
100004.2801
100003.6948
100004.7985
120608.4716
121029.9179
121340.097
121729.9383
122112.4666
122511.963
122903.1306
123269.5087
123590.1981
123838.5809
123989.3771
124015.9154
123895.6765
123610.704
123150.4804
122512.441
121702.3834
120733.6756
119625.8712
118402.8801
117091.4858
115719.6461
114314.9548
112903.7432
111510.5383
110157.3272
108863.3712
107644.8554
106514.8165
105482.9363
104555.5323
103735.5115
103022.5208
102413.1681
101901.4381
101479.206
101136.8747
100864.0365
100650.1236
100484.9664
100359.2278
100264.6828
100194.3466
100142.478
100104.4869
100076.7977
100056.6805
100042.0871
100031.5016
100023.8151
100018.2231
100014.1454
100011.1655
100008.9729
100007.3545
100006.2077
100005.3536
100004.4873
100003.9894
100004.9723
123102.1251
123481.4682
123758.6182
124096.4946
124423.1376
124749.6421
125055.4155
125319.8327
125523.2326
125639.4022
125645.3139
125517.5046
125237.5529
124792.114
124175.2301
123388.4198
122440.7002
121347.6281
120129.8666
118811.531
117418.9216
115979.0027
114518.0582
113061.0325
111631.0536
110248.7755
108932.2313
107696.5023
106553.6382
105512.4485
104578.4805
103753.9691
103037.9838
102426.6503
101913.5676
101490.3205
101147.1124
100873.4166
100658.6113
100492.5202
100365.8281
100270.3439
100199.1174
100146.4346
100107.7226
100079.4131
100058.775
100043.7532
100032.8215
100024.8592
100019.05
100014.8037
100011.6931
100009.3984
100007.7078
100006.5119
100005.5968
100004.6947
100004.2826
100005.1379
125470.9272
125801.8678
126041.9859
126321.5542
126585.3086
126832.0805
127046.3949
127204.7041
127288.9146
127273.9118
127139.1082
126864.2909
126434.8249
125841.4089
125081.8785
124160.9963
123090.2069
121886.6019
120571.4937
119168.9474
117704.6861
116204.7164
114694.1378
113196.6838
111734.2587
110326.367
108989.9764
107739.2053
106585.2341
105536.0962
104596.6449
103768.5045
103050.2142
102437.4559
101923.4722
101499.5812
101155.8046
100881.5104
100666.0327
100499.1955
100371.71
100275.423
100203.4213
100150.0199
100110.6658
100081.8
100060.6923
100045.2826
100034.0364
100025.8229
100019.8158
100015.4156
100012.1852
100009.7971
100008.0427
100006.8009
100005.8266
100004.9034
100004.5688
100005.2968
127703.0018
127975.3454
128171.0162
128385.6376
128581.2076
128744.8727
128865.7976
128918.3893
128886.0094
128745.01
128477.2019
128065.4795
127498.5804
126770.6641
125882.6742
124841.9292
123661.7014
122360.1587
120958.9741
119482.0302
117954.4632
116401.4036
114846.9101
113313.6682
111822.5233
110391.9931
109038.1197
107774.1799
106610.585
105554.6739
104610.6718
103779.6439
103059.641
102445.9338
101931.4347
101507.2161
101163.1341
100888.4632
100672.5024
100505.0818
100376.9431
100279.9733
100207.2985
100153.2643
100113.3391
100083.9748
100062.4441
100046.6837
100035.1524
100026.7105
100020.5232
100015.9828
100012.6427
100010.1699
100008.3594
100007.0739
100006.0439
100005.1122
100004.8404
100005.4497
129756.1428
129968.5967
130120.1332
130269.7755
130397.4436
130479.8401
130509.9936
130461.2947
130318.4867
130059.6705
129668.9346
129132.0494
128440.6895
127591.9347
126589.261
125442.0057
124164.8336
122776.6839
121299.4213
119756.6941
118173.1001
116572.9975
114979.5444
113414.5243
111897.884
110447.2905
109077.9814
107802.4957
106630.5614
105568.8934
104621.1442
103787.8657
103066.6563
102452.4045
101937.7163
101513.4367
101169.2708
100894.4108
100678.128
100510.2635
100381.5929
100284.0455
100210.7875
100156.1967
100115.764
100085.9535
100064.0422
100047.9651
100036.1753
100027.526
100021.175
100016.5071
100013.0667
100010.5176
100008.6578
100007.3303
100006.2492
100005.318
100005.0928
100005.6022
131616.4676
131769.4269
131880.0521
131968.1889
132030.9706
132036.8405
131981.6727
131838.7426
131594.0216
131227.4737
130725.2539
130075.709
129273.0317
128316.7481
127212.4047
125970.9528
124608.1473
123143.5065
121598.9971
119998.0379
118364.7716
116722.8902
115094.7801
113501.4607
111962.1265
110493.7062
109110.7388
107825.1151
106645.9536
105579.4052
104628.599
103793.6128
103071.6246
102457.1672
101942.5613
101518.4414
101174.3749
100899.4813
100683.011
100514.8207
100385.722
100287.6877
100213.9254
100158.8453
100117.9617
100087.7519
100065.4983
100049.1351
100037.1113
100028.2739
100021.7743
100016.9904
100013.4585
100010.8411
100008.9383
100007.5699
100006.4425
100005.5177
100005.3334
100005.7589
133280.4616
133378.9972
133451.874
133483.5227
133485.6687
133421.2449
133287.9165
133059.4313
132722.7022
132259.5111
131657.8105
130908.1979
130007.0035
128955.8024
127761.8485
126437.4103
124999.1311
123466.991
121863.021
120210.4603
118533.0844
116854.0199
115194.9998
113576.4201
112016.835
110532.5366
109137.4575
107842.9175
106657.4898
105586.8138
104633.5381
103797.3015
103074.8903
102460.5054
101946.2015
101522.4187
101178.5986
100903.7969
100687.2488
100518.8301
100389.3903
100290.9466
100216.748
100161.2374
100119.9527
100089.3854
100066.8237
100050.2022
100037.9664
100028.9585
100022.3242
100017.4348
100013.8195
100011.1416
100009.2008
100007.7922
100006.6236
100005.7111
100005.5744
100005.9119
134758.9724
134806.4758
134842.1979
134822.7113
134769.5496
134642.1795
134438.9644
134134.4962