/*--------------------------------*- C++ -*----------------------------------*\
  =========                 |
  \\      /  F ield         | OpenFOAM: The Open Source CFD Toolbox
   \\    /   O peration     | Website:  https://openfoam.org
    \\  /    A nd           | Version:  12
     \\/     M anipulation  |
\*---------------------------------------------------------------------------*/
FoamFile
{
    format      ascii;
    class       surfaceScalarField;
    location    "700";
    object      phi;
}
// * * * * * * * * * * * * * * * * * * * * * * * * * * * * * * * * * * * * * //

dimensions      [1 0 -1 0 0 0 0];

internalField   nonuniform List<scalar> 
32120
(
-0.0006281402003
-0.04535827334
0.04598641354
-0.001411871823
-0.06446218666
0.06524591983
-0.002379354185
-0.08381139382
0.08477887724
-0.003546391127
-0.1065183724
0.1076854105
-0.004839436798
-0.1344992916
0.1357923386
-0.00605107493
-0.1701824344
0.1713940745
-0.007107116621
-0.2164188721
0.2174749169
-0.009960115201
-0.2730065894
0.2758595931
-0.01757707187
-0.3315362776
0.339153242
-0.02798976332
-0.3952883506
0.4057010529
-0.04039755941
-0.4705036571
0.4829114668
-0.05512527112
-0.5601542392
0.5748819673
-0.07263086244
-0.6668089795
0.68431459
-0.09343930871
-0.793808829
0.8146172975
-0.1181669818
-0.9449389516
0.9696666501
-0.1475516562
-1.124831986
1.15421669
-0.1824635687
-1.338900436
1.373812382
-0.223941163
-1.593637119
1.63511475
-0.2732148188
-1.896708032
1.945981727
-0.331750898
-2.257235193
2.315771315
-0.4012933581
-2.686012659
2.755555163
-0.4839234712
-3.195827947
3.278458108
-0.5821280047
-3.801788612
3.89999319
-0.6988887708
-4.521718963
4.638479776
-0.8377915219
-5.376596456
5.515499244
-1.003162309
-6.391055511
6.556426339
-1.200234226
-7.593961858
7.791033798
-1.435343737
-9.019095785
9.254205321
-1.716143576
-10.70600863
10.98680849
-2.051795107
-12.70117375
13.03682533
-2.453093275
-15.05959887
15.46089709
-2.932502633
-17.84706272
18.32647216
-3.504164013
-21.14301832
21.71467979
-4.184016079
-25.04401673
25.72386887
-4.990175649
-29.66741389
30.47357355
-5.943607724
-35.15526311
36.10869526
-7.068980138
-41.67852157
42.80389407
-8.39552196
-49.44189023
50.76843216
-9.957737985
-58.68958429
60.25180039
-11.79589634
-69.71237941
71.55053789
-13.95628106
-82.85620024
85.016585
-16.49118737
-98.53266817
101.0675746
-19.45858166
-117.231942
120.1993363
-22.9212468
-139.5383657
143.0010309
-26.94507944
-166.1494043
170.1732369
-31.59605574
-197.8985889
202.5495653
-36.9351281
-235.7832458
241.1223181
-43.01001324
-280.9981379
287.0730231
-49.84236258
-334.9763675
341.8087168
-57.40815211
-399.4393247
407.0051143
-65.60817906
-476.4579293
484.6579562
-74.22422349
-568.5280846
577.144129
-82.85446727
-678.6641383
687.2943821
-90.81908804
-810.5152481
818.4798689
-97.02301713
-968.5112732
974.7152023
-99.75724677
-1158.046719
1160.780949
-96.4125894
-1385.715796
1382.371138
-83.06692984
-1659.613702
1646.268043
-53.89474668
-1989.705278
1960.533095
-2388.367403
2334.794345
-0.0005556080525
-0.04480266457
-0.001259173798
-0.06375861936
-0.00211896004
-0.08295160633
-0.003135827764
-0.1055015033
-0.00424018982
-0.1333949276
-0.005270460888
-0.1691521604
-0.006258672987
-0.2154306552
-0.01012540516
-0.2691398499
-0.01758105367
-0.3240806185
-0.026817151
-0.3860522397
-0.03779600961
-0.4595247819
-0.05086172206
-0.5470885074
-0.06640401114
-0.651266668
-0.08489586117
-0.7753169532
-0.1068913972
-0.9229433861
-0.1330565745
-1.098666776
-0.1641761793
-1.307780795
-0.2011880914
-1.556625166
-0.2452035523
-1.852692527
-0.2975484649
-2.204890233
-0.3598026146
-2.623758461
-0.4338574618
-3.121773049
-0.5219833356
-3.713662692
-0.6269167937
-4.416785454
-0.7519693114
-5.251543901
-0.901165803
-6.241858979
-1.07941588
-7.415711754
-1.292710769
-8.80580086
-1.548319005
-10.45040032
-1.854932078
-12.39456059
-2.222705048
-14.69182578
-2.663186459
-17.40658111
-3.189236618
-20.61696803
-3.815119241
-24.41813379
-4.556905178
-28.92562788
-5.433176845
-34.27899092
-6.465888672
-40.6458097
-7.681201652
-48.22657653
-9.11016361
-57.26062232
-10.78917129
-68.03337099
-12.76020497
-80.88516656
-15.07081659
-96.222056
-17.77380512
-114.5289537
-20.9264161
-136.3857545
-24.58877529
-162.4870451
-28.8211211
-193.6662429
-33.67916679
-230.9252
-39.20664696
-275.4706576
-45.42368119
-328.7593331
-52.30898725
-392.5540186
-59.77312231
-468.993794
-67.61870139
-560.6825055
-75.48183282
-670.8010068
-82.7464248
-803.2506562
-88.41965947
-962.8380384
-90.95170699
-1155.514672
-87.97590388
-1388.691599
-75.93436043
-1671.655246
-49.54173397
-2016.097904
-2436.890594
-0.0004355336351
-0.04436712994
-0.0009700657452
-0.06322408523
-0.001607563851
-0.08231410657
-0.002313640007
-0.1047954253
-0.002973102032
-0.132735463
-0.003456849421
-0.1686684089
-0.004148080777
-0.2147394173
-0.008264214184
-0.2650237063
-0.0150389405
-0.3173058783
-0.02326811636
-0.3778230464
-0.03304752051
-0.4497453569
-0.04468367389
-0.5354523297
-0.05852412638
-0.6374261875
-0.0749909785
-0.758850069
-0.09457618698
-0.9033581414
-0.117872928
-1.075369994
-0.1455800843
-1.280073594
-0.1785353286
-1.523669873
-0.2177345528
-1.813493252
-0.2643717061
-2.158253026
-0.3198771724
-2.568252943
-0.3859732099
-3.055676958
-0.4647394881
-3.63489637
-0.5587009436
-4.322823952
-0.6709420511
-5.139302764
-0.8052546364
-6.107546361
-0.9663135075
-7.254652869
-1.159861728
-8.612252621
-1.392865528
-10.2173965
-1.673580742
-12.11384533
-2.011482917
-14.35392356
-2.417100145
-17.0009638
-2.901908915
-20.13215922
-3.47848439
-23.8415582
-4.160986917
-28.24312534
-4.965901715
-33.47407596
-5.912863903
-39.6988475
-7.025416388
-47.11402385
-8.331610844
-55.95442788
-9.864420027
-66.50056161
-11.66194932
-79.0876373
-13.76742944
-94.11657574
-16.22892136
-112.0674618
-19.09858305
-133.5160927
-22.43124701
-159.1543812
-26.28190002
-189.8155898
-30.70147864
-226.5056214
-35.73011591
-270.4420203
-41.38659911
-323.1028499
-47.65225377
-386.2883639
-54.44670258
-462.1993452
-61.59182251
-553.5373856
-68.7586547
-663.6341746
-75.38976399
-796.6195469
-80.58633893
-957.6414634
-82.94480493
-1153.156206
-80.32125605
-1391.315148
-69.49216278
-1682.484339
-45.66804083
-2039.922026
-2480.76002
-0.000327976417
-0.04403915245
-0.0007173563846
-0.06283470321
-0.001167013948
-0.08186444728
-0.00160926939
-0.1043531678
-0.001872210688
-0.1324725188
-0.001831178262
-0.1687094368
-0.002743012504
-0.2138275758
-0.006984591371
-0.2607821168
-0.01306306805
-0.3112273874
-0.02032998917
-0.3705561078
-0.02896578558
-0.44110954
-0.03924218459
-0.5251759069
-0.05146386354
-0.6252044811
-0.06600576736
-0.7443081338
-0.08330379283
-0.8860600805
-0.1038864049
-1.054787342
-0.1283776784
-1.255582277
-0.1575285107
-1.494518994
-0.1922347256
-1.778786989
-0.2335738441
-2.116913856
-0.282841988
-2.51898475
-0.3416086922
-2.996910202
-0.4117864026
-3.564718619
-0.4957266021
-4.238883709
-0.5963444307
-5.03868491
-0.717270785
-5.986619981
-0.8630202282
-7.108903413
-1.039147276
-8.436125566
-1.252339041
-10.00420472
-1.510378843
-11.85580549
-1.821964013
-14.04233835
-2.196488653
-16.62643911
-2.643994075
-19.68465376
-3.175437099
-23.3101151
-3.803264675
-27.61529773
-4.542155255
-32.73518528
-5.409767482
-38.83123525
-6.427391306
-46.0963999
-7.620457719
-54.76136145
-9.018892587
-65.10212661
-10.65731202
-77.44921787
-12.57502197
-92.19886569
-14.81576026
-109.8267236
-17.42703828
-130.9048147
-20.45885248
-156.122567
-23.96140439
-186.3130379
-27.98129604
-222.4857297
-32.55542009
-265.8678962
-37.70142404
-317.956846
-43.40313322
-380.5866547
-49.58861768
-456.0138608
-56.09757912
-547.0284241
-62.63329227
-657.0984615
-68.69236679
-790.5604723
-73.46249448
-952.8713358
-75.67458426
-1150.944116
-73.38945223
-1393.60028
-63.69074124
-1692.18305
-42.24437619
-2061.368391
-2520.334728
-0.0002254281418
-0.04381372296
-0.0004682515757
-0.06259187762
-0.000723971674
-0.08160872528
-0.000903165375
-0.1041739718
-0.0007933080106
-0.1325823728
-0.0002509375125
-0.169251802
-0.001539990644
-0.2125385143
-0.005601508846
-0.2567205868
-0.01093958136
-0.3058892997
-0.01729518857
-0.3642004823
-0.02485451189
-0.4335501952
-0.03385648149
-0.5161739125
-0.04456934157
-0.6144915927
-0.05732619376
-0.7315512496
-0.07251323824
-0.8708730003
-0.0906000633
-1.036700478
-0.1121415723
-1.234040726
-0.1378065843
-1.468853937
-0.1683956368
-1.74819789
-0.2048768418
-2.080432603
-0.2484259248
-2.475435623
-0.3004856716
-2.944850409
-0.3628434746
-3.50236078
-0.4377341199
-4.163993025
-0.5279669658
-4.948452043
-0.6370736871
-5.877513239
-0.769460034
-6.976517054
-0.9305187453
-8.275066847
-1.126634522
-9.808088924
-1.365027307
-11.61741267
-1.653486407
-13.75387921
-2.000177484
-16.27974798
-2.413719676
-19.27111153
-2.903591266
-22.82024345
-3.480763016
-27.03812594
-4.158394657
-32.05755357
-4.952475095
-38.03715478
-5.882354482
-45.16652042
-6.971161602
-53.6725543
-8.24610653
-63.82718158
-9.738658268
-75.95666612
-11.48456044
-90.45296345
-13.52361224
-107.7876718
-15.8990855
-128.5293413
-18.65656728
-153.3650853
-21.84190679
-183.1276983
-25.49778089
-218.8298556
-29.65818048
-261.7074965
-34.33979847
-313.275228
-39.52887139
-375.3975818
-45.16136209
-450.3813701
-51.09350012
-541.0962861
-57.0583787
-651.1335829
-62.60241515
-785.0164359
-66.99301906
-948.4807318
-69.08486307
-1148.852272
-67.12707952
-1395.558063
-58.48570955
-1700.82442
-39.24522122
-2080.60888
-2555.939815
-0.0001433206687
-0.04367040096
-0.0002567985729
-0.06247839771
-0.0003318793235
-0.08153364271
-0.0002481073068
-0.1042577415
0.0002243366518
-0.1330548134
0.001018667575
-0.1700461276
-0.0005423130003
-0.2109775257
-0.004119284936
-0.2531436038
-0.008781129873
-0.3012274409
-0.01432751364
-0.358654082
-0.0209253154
-0.4269523743
-0.02878431686
-0.508314889
-0.03813779417
-0.6051380902
-0.04927788103
-0.7204111342
-0.06254261083
-0.8576082389
-0.07834461907
-1.020898435
-0.0971738013
-1.215211506
-0.1196246876
-1.446403011
-0.1464165549
-1.721405983
-0.1784306585
-2.048418457
-0.2167543267
-2.437111917
-0.2627438019
-2.898860894
-0.3181060767
-3.446998476
-0.3850047095
-4.097094359
-0.466188426
-4.867268309
-0.5651327456
-5.778568903
-0.6861641461
-6.855485638
-0.8345035189
-8.126727457
-1.016154362
-9.626438059
-1.237637002
-11.39592999
-1.505706451
-13.48580972
-1.827268049
-15.95818634
-2.209618233
-18.88876131
-2.660962
-22.36889964
-3.191048455
-26.50803945
-3.811780585
-31.43682138
-4.537731407
-37.31120392
-5.386562801
-44.31768895
-6.379362236
-52.67975483
-7.5409045
-62.66563924
-8.89981695
-74.59775365
-10.48861225
-88.86416809
-12.34350869
-105.9327753
-14.50392025
-126.3689298
-17.01142825
-150.8575773
-19.90793569
-180.2311908
-23.23258048
-215.5052108
-27.01677021
-257.9233068
-31.27642852
-309.0155697
-36.00013021
-370.6738801
-41.13124801
-445.2502523
-46.54138236
-535.6861517
-51.99120583
-645.6837594
-57.07318654
-779.9344552
-61.12823989
-944.4256785
-63.12506553
-1146.855446
-61.48618812
-1397.196941
-53.83748805
-1708.47312
-36.64841686
-2097.797951
-2587.869081
-7.57126296e-05
-0.04359468711
-7.008612783e-05
-0.06248402247
3.735369161e-05
-0.08164108089
0.0004101770312
-0.1046305628
0.001298242052
-0.1339428753
0.001984356983
-0.1707322376
0.0002998858473
-0.2092930474
-0.003038003734
-0.2498057047
-0.007058416716
-0.2972070162
-0.01184114009
-0.3538713449
-0.01752896494
-0.4212645334
-0.02430475893
-0.5015390766
-0.03237002699
-0.5970728013
-0.04197990823
-0.7108012296
-0.05343071437
-0.8461574068
-0.06708694224
-1.007242179
-0.08338572724
-1.198912691
-0.1028633671
-1.426925338
-0.126177766
-1.698091552
-0.1541466267
-2.020449563
-0.1877944336
-2.403464081
-0.2284183433
-2.858236951
-0.2776753979
-3.397741398
-0.3376941514
-4.037075579
-0.4112046536
-4.79375779
-0.5016631262
-5.688110417
-0.6133209012
-6.743827844
-0.7511640371
-7.988884298
-0.9206818294
-9.456920234
-1.127546374
-11.18906541
-1.377404161
-13.23595189
-1.675958598
-15.65963185
-2.029362368
-18.53535749
-2.444786863
-21.9534751
-2.931003308
-26.02182296
-3.498878155
-30.86894649
-4.16176927
-36.64831276
-4.935848435
-43.54360973
-5.840375956
-51.77522728
-6.897929769
-61.60808537
-8.134567186
-73.36111621
-9.57987063
-87.41886461
-11.26680936
-104.2458366
-13.23129932
-124.4044398
-15.51129092
-148.5775856
-18.14512431
-177.5973574
-21.16876212
-212.481573
-24.61133513
-254.4807337
-28.48817345
-305.1387313
-32.79014841
-366.3719051
-37.46760933
-440.5727914
-42.40648692
-530.7472741
-47.39305935
-640.697187
-52.06238496
-775.2651296
-55.82326778
-940.6647957
-57.74962567
-1144.929088
-56.42376619
-1398.5228
-49.71091694
-1715.185969
-34.43496232
-2113.073905
-2616.387427
-1.724417832e-05
-0.04357744186
9.784412845e-05
-0.0625991093
0.000393064182
-0.08193629953
0.001064937572
-0.1053024343
0.002362440528
-0.1352403754
0.002748277685
-0.1711180705
0.0007752836449
-0.2073200473
-0.002180346529
-0.2468500667
-0.005577540833
-0.2938098124
-0.009628066874
-0.3498208077
-0.01445129589
-0.4164412915
-0.02020705314
-0.4957833046
-0.02707036743
-0.5902094703
-0.03526509013
-0.7026064882
-0.04505301318
-0.8363694633
-0.05675867684
-0.9955364925
-0.07077606006
-1.184895285
-0.08759405435
-1.410107319
-0.1078214244
-1.677864157
-0.1322268166
-1.996044144
-0.1617911572
-2.373899717
-0.1977803794
-2.822247703
-0.2418397971
-3.353681962
-0.2961079547
-3.982807398
-0.3633360039
-4.726529724
-0.4469727035
-5.604473704
-0.5511462629
-6.639654265
-0.6804855974
-7.859544935
-0.8398070284
-9.29759877
-1.033824928
-10.99504747
-1.267092265
-13.00268451
-1.544258785
-15.3824653
-1.870561162
-18.20905508
-2.252375492
-21.57166073
-2.697701868
-25.57649655
-3.21654125
-30.35010707
-3.821187794
-36.04366619
-4.526478062
-42.83831941
-5.350021008
-50.9516843
-6.312406457
-60.64569987
-7.437362209
-72.23616043
-8.751819158
-86.10440762
-10.2858048
-102.7118509
-12.07207113
-122.6181734
-14.14529232
-146.5043644
-16.54060596
-175.2020437
-19.29114517
-209.7310338
-22.42405312
-251.3478258
-25.95424829
-301.6085362
-29.87486765
-362.4512857
-34.142868
-436.304791
-38.65758545
-526.2325567
-43.22910509
-636.1256674
-47.53198122
-770.9622534
-51.037829
-937.1589479
-52.91774576
-1143.049172
-51.90151867
-1399.539027
-46.07506576
-1721.012422
-32.58890404
-2126.560067
-2641.733083
3.716861692e-05
-0.04361460961
0.0002639285855
-0.06282586783
0.0007557095396
-0.08242807911
0.001718737702
-0.1062654607
0.003253564916
-0.1367752
0.003319430834
-0.1711839324
0.001322964588
-0.2053235756
-0.001076035325
-0.2444510598
-0.003937742537
-0.2909480968
-0.00735471471
-0.3464038257
-0.01142535915
-0.4123706358
-0.0162882614
-0.4909203894
-0.02209497501
-0.5844027421
-0.0290416386
-0.6956598082
-0.03736055259
-0.8280505314
-0.04734267608
-0.9855543494
-0.05934692061
-1.17289102
-0.07382526857
-1.395628949
-0.09135141386
-1.660337991
-0.112664855
-1.97473068
-0.1387310008
-2.347833553
-0.1708213656
-2.790157316
-0.2106114518
-3.31389186
-0.2602867805
-3.933132051
-0.3226324026
-4.664184083
-0.4010523827
-5.526053708
-0.4994459942
-6.541260632
-0.6219294124
-7.737061487
-0.7725121447
-9.147016
-0.9549238303
-10.81263574
-1.172735811
-12.78487249
-1.429755135
-15.12544593
-1.730538573
-17.9082716
-2.080872894
-21.22132637
-2.48814576
-25.16922365
-2.961615583
-29.87663721
-3.512624946
-35.49265679
-4.154798716
-42.1961456
-4.904244499
-50.20223849
-5.779746728
-59.7701976
-6.802925529
-71.21298161
-7.998312861
-84.90902026
-9.393282351
-101.3168814
-11.01773398
-120.9937218
-12.90339997
-144.6186984
-15.08255525
-173.0228885
-17.58582867
-207.2277603
-20.43865788
-248.4949965
-23.65572499
-298.391469
-27.23242958
-358.8745811
-31.13201748
-432.4052031
-35.26640658
-522.0981676
-39.4678982
-631.9241758
-43.44772607
-766.9824256
-46.73573227
-933.8709417
-48.59293071
-1141.191973
-47.88541368
-1400.246544
-42.90284827
-1725.994987
-31.09714336
-2138.365772
-2664.119536
9.329315106e-05
-0.04370790207
0.0004436900888
-0.06317626344
0.0011477721
-0.08313215986
0.002433951227
-0.1075516382
0.003937632469
-0.1382788788
0.003418529129
-0.1706648256
0.001778474829
-0.2036835166
-0.0002163809582
-0.242456198
-0.002579011958
-0.2885854587
-0.005407261899
-0.3435755674
-0.008783908662
-0.4089939794
-0.01282937689
-0.4868749103
-0.01767598412
-0.5795561225
-0.02349632784
-0.6898394508
-0.03049808196
-0.8210487623
-0.0389448054
-0.9771076095
-0.04916900689
-1.162666801
-0.06159909881
-1.383198838
-0.07679340434
-1.645143668
-0.09548906207
-1.956035003
-0.1186673217
-2.324655277
-0.1476369619
-2.761187658
-0.1841308253
-3.277397984
-0.2303934314
-3.88686943
-0.2892188067
-4.605358689
-0.3638796922
-5.451392803
-0.4579034973
-6.447236803
-0.5747480482
-7.620216906
-0.7175522972
-9.004211718
-0.8891321189
-10.64105589
-1.092263605
-12.58174097
-1.330142516
-14.88756698
-1.6068556
-17.63155849
-1.927757346
-20.9004246
-2.299732254
-24.79724871
-2.731380827
-29.4449886
-3.233178122
-34.99085948
-3.817639717
-41.61168397
-4.499503542
-49.52037465
-5.295915938
-58.97378517
-6.226590484
-70.28230704
-7.31389719
-83.82171353
-8.582821554
-100.0479571
-10.06070648
-119.5158368
-11.77665312
-142.9027518
-13.76039622
-171.0391453
-16.04037238
-204.9477842
-18.64058019
-245.8947887
-21.57564848
-295.4564007
-24.84324986
-355.6069797
-28.41265175
-428.8358012
-32.20763664
-518.3031827
-36.08128214
-628.0505302
-39.77899758
-763.2847101
-42.88470279
-930.7652365
-44.74278291
-1139.333893
-44.34547018
-1400.643857
-40.17086211
-1730.169595
-29.94931682
-2148.587317
-2683.737347
0.0001488241326
-0.0438567254
0.0006308297672
-0.06365826765
0.001549969823
-0.0840512985
0.00316419917
-0.1091658656
0.004457656452
-0.1395723333
0.00367454771
-0.169881713
0.002314179264
-0.2023231431
0.0006916800479
-0.2408336927
-0.001236585377
-0.2866571859
-0.003551775239
-0.341260369
-0.006323065903
-0.4062226791
-0.009653908488
-0.4835440567
-0.01365945281
-0.575550566
-0.01849212991
-0.6850067602
-0.02434079015
-0.8152000875
-0.0314512929
-0.9699970912
-0.04014320743
-1.153974871
-0.05083915539
-1.372502874
-0.06410417181
-1.631878636
-0.08069805197
-1.939441106
-0.1016440779
-2.303709238
-0.1283112099
-2.734520511
-0.1625001648
-3.243209016
-0.2064986642
-3.842870919
-0.2630449745
-4.548812362
-0.3351565378
-5.379281217
-0.4258412527
-6.356552065
-0.5378060311
-7.508252099
-0.6733480351
-8.86866968
-0.8345240295
-10.47987985
-1.023535564
-12.39272939
-1.243180394
-14.66792212
-1.497236894
-17.37750195
-1.79073273
-20.60692873
-2.130118077
-24.45786334
-2.523392677
-29.05171398
-2.980231184
-34.53402095
-3.512129668
-41.07978545
-4.132577314
-48.89992698
-4.857235379
-58.24912707
-5.704099163
-69.43544324
-6.693596711
-82.83221596
-7.848574714
-98.89297904
-9.194093291
-118.1703182
-10.75691966
-141.3399254
-12.56455049
-169.2315145
-14.64352527
-202.8688094
-17.01666785
-243.5216461
-19.69873117
-292.7743374
-22.68969634
-352.6160146
-25.96463167
-425.5608659
-29.45855225
-514.8092621
-33.04405015
-624.4650323
-36.4984625
-759.8302978
-39.45604944
-927.8076495
-41.33863744
-1137.451305
-41.25546298
-1400.727032
-37.85913904
-1733.565919
-29.13768479
-2157.308772
-2700.755763
0.000195461672
-0.04405218626
0.0008145512887
-0.06427735569
0.001950236719
-0.08518698235
0.003766699836
-0.1109823267
0.004545688648
-0.1403513191
0.003819138592
-0.1691551589
0.002732949792
-0.2012369492
0.001445909298
-0.2395466459
-8.672947075e-05
-0.2851245397
-0.001932987659
-0.3394141022
-0.004152375442
-0.4040032814
-0.006835477417
-0.4808609437
-0.01008701828
-0.5722990129
-0.01404827204
-0.6810454931
-0.0189000848
-0.8103482606
-0.02488178643
-0.9640153745
-0.03231206947
-1.146544573
-0.04162048825
-1.363194439
-0.05339320167
-1.620105908
-0.06843017509
-1.924404118
-0.08781797529
-2.284321425
-0.1130027781
-2.709335694
-0.1458477509
-3.21036403
-0.1886331418
-3.800085516
-0.2439367162
-4.493508774
-0.3143814606
-5.308836456
-0.4023433598
-6.268590143
-0.5097678517
-7.400827581
-0.6382279458
-8.740209557
-0.7892236906
-10.32888408
-0.9645958012
-12.21735725
-1.166912757
-14.46560513
-1.399752618
-17.14466207
-1.667877895
-20.33880343
-1.977344482
-24.14839673
-2.335592966
-28.69346547
-2.751555201
-34.11805869
-3.235791419
-40.5955492
-3.800654866
-48.33506352
-4.460467067
-57.58931484
-5.231680012
-68.66423028
-6.132984832
-81.93091112
-7.185324497
-97.84063936
-8.411735933
-116.9439068
-9.836928172
-139.9147332
-11.48644947
-167.5819932
-13.3852272
-200.9700316
-15.5551611
-241.3517122
-18.0113141
-290.3181844
-20.75602641
-349.8713022
-23.76999311
-422.5468992
-26.99892636
-511.5803289
-30.33379803
-621.1301607
-33.5818731
-756.5822227
-36.42442619
-924.9650964
-38.35538157
-1135.52035
-38.59271911
-1400.489694
-35.95098302
-1736.207655
-28.65704182
-2164.602713
-2715.324111
0.0002467047513
-0.04429889019
0.001020384955
-0.06505103476
0.002409662673
-0.08657625883
0.004267999382
-0.1128406617
0.004607469802
-0.1406907872
0.003953524015
-0.16850121
0.003135202675
-0.200418624
0.002163364537
-0.2385748032
0.000993629187
-0.2839547991
-0.000431973966
-0.3379884929
-0.002167212904
-0.4022680355
-0.004295437524
-0.4787327112
-0.006915120884
-0.5696793208
-0.01016048963
-0.6778001147
-0.01420829444
-0.8063004456
-0.01929718051
-0.9589264775
-0.02575452345
-1.140087219
-0.03403249788
-1.354916453
-0.04475736871
-1.609381026
-0.05879028027
-1.910371195
-0.07729549457
-2.2658162
-0.1017959543
-2.684835223
-0.1341842263
-3.177975742
-0.1766461955
-3.757623531
-0.2314700595
-4.438684894
-0.3007640183
-5.239542478
-0.3862290257
-6.183125116
-0.4891273672
-7.297929216
-0.6104854858
-8.618851409
-0.7514555102
-10.18791402
-0.9136926657
-12.05512007
-1.099650864
-14.2796469
-1.312768515
-16.93154439
-1.557573208
-20.09399872
-1.839750336
-23.86621958
-2.166215305
-28.36700048
-2.545212235
-33.73906175
-2.986445769
-40.15431564
-3.501241072
-47.8202682
-4.102717605
-56.98783828
-4.805948655
-67.96099921
-5.62808388
-81.10877587
-6.588380878
-96.88034235
-7.708096779
-115.8241909
-9.010147373
-138.6126826
-10.51840692
-166.0737336
-12.25646176
-199.2319768
-14.24553656
-239.3626374
-16.50119064
-288.0625303
-19.02819413
-347.3442988
-21.81273983
-419.7623535
-24.81076962
-508.5822991
-27.93067103
-618.0102593
-31.00785754
-753.5050362
-33.76761356
-922.2053404
-35.77119817
-1133.516765
-36.33787869
-1399.923014
-34.43280091
-1738.112733
-28.50467003
-2170.530844
-2727.573129
0.0002990448491
-0.04459793409
0.001227331103
-0.06597931953
0.002849917645
-0.08819884378
0.004579853839
-0.1145705958
0.004696378587
-0.1408073091
0.004200123343
-0.1680049511
0.003588537359
-0.1998070335
0.002852758421
-0.2378390189
0.001958508426
-0.2830605428
0.0008552721178
-0.3368852495
-0.0005045160045
-0.4009082394
-0.002196434767
-0.4770407836
-0.004315033774
-0.5675607124
-0.006991466271
-0.6751236723
-0.01040691981
-0.8028849818
-0.01481415556
-0.9545192314
-0.02056836383
-1.134333
-0.02816559703
-1.34731921
-0.03829274923
-1.599253864
-0.05188517336
-1.89677876
-0.07018021323
-2.24752115
-0.09474783579
-2.660267588
-0.1274424689
-3.145281097
-0.1702461444
-3.714819843
-0.2250350412
-4.383895986
-0.2933355896
-5.171241917
-0.3762153318
-6.100245356
-0.4744007347
-7.199743792
-0.5885692963
-8.504682824
-0.7197046427
-10.05677865
-0.8693995638
-11.90542512
-1.040057881
-14.10898856
-1.235004522
-16.73659773
-1.458543981
-19.87045924
-1.716007806
-23.60875574
-2.013819394
-28.06918887
-2.359589565
-33.39329157
-2.762246652
-39.75165853
-3.232193125
-47.35032172
-3.78147522
-56.43855617
-4.423946211
-67.31852821
-5.175395368
-80.3573267
-6.053603093
-96.00213462
-7.078279527
-114.7995144
-8.270795213
-137.4201669
-9.653613886
-164.6909149
-11.24924346
-197.6363472
-13.07847778
-237.5334031
-15.15756317
-285.9834449
-17.49379025
-345.0080717
-20.07876004
-417.1773837
-22.87826409
-505.782795
-25.81726229
-615.0712611
-28.75773062
-750.5645679
-31.46634092
-919.4967301
-33.56738792
-1131.415718
-34.4747491
-1399.015652
-33.2939742
-1739.293508
-28.68023996
-2175.144578
-2737.616068
0.0003778581702
-0.04497579179
0.001486321981
-0.0670877827
0.003254170046
-0.08996669113
0.004587395541
-0.1159038203
0.004524745578
-0.1407446579
0.004161183064
-0.167641387
0.003737087129
-0.1993829357
0.003217058856
-0.2373189884
0.002575083945
-0.2824185653
0.001765644699
-0.3360758071
0.0007426592779
-0.3998852503
-0.0005673636611
-0.4757307565
-0.002263613946
-0.5658644573
-0.004486850581
-0.6729004303
-0.007435789534
-0.7999360368
-0.01139062361
-0.9505643909
-0.01674579849
-1.128977818
-0.02404979893
-1.340015202
-0.03405632592
-1.589247329
-0.04777454867
-1.883060529
-0.06650031755
-2.22879537
-0.09179443568
-2.634973459
-0.1253761371
-3.111699379
-0.1689123797
-3.671283584
-0.2237860063
-4.329022346
-0.2909493808
-5.104078528
-0.3709522179
-6.020242503
-0.4641651963
-7.106530794
-0.5710960448
-8.397751952
-0.6926911506
-9.935183517
-0.8305524991
-11.76756375
-0.9870600812
-13.95248095
-1.165430278
-16.55822751
-1.369748923
-19.66614057
-1.605009996
-23.37349465
-1.877179403
-27.79701945
-2.19329135
-33.07717961
-2.561576336
-39.38337353
-2.991615518
-46.92028252
-3.494507308
-55.93566436
-4.083034317
-66.73000119
-4.771797543
-79.66856346
-5.577299835
-95.19663232
-6.517919379
-113.8588949
-7.613724293
-136.3243619
-8.886018321
-163.4186209
-10.3564875
-196.165878
-12.04573338
-235.8441572
-13.97088898
-284.0582893
-16.14187433
-342.8370863
-18.55565081
-414.7636072
-21.18755664
-503.1508892
-23.97838274
-612.280435
-26.81533064
-747.72762
-29.50408243
-916.8079783
-31.72818272
-1129.191618
-32.99014174
-1397.753693
-32.52673367
-1739.756916
-29.18582229
-2178.485489
-2745.549719
0.0004882643407
-0.04546405544
0.001777977102
-0.06837749421
0.00356867138
-0.09175738406
0.004413258586
-0.1167484058
0.004336416056
-0.1406678131
0.004118308013
-0.1674232762
0.003867417183
-0.1991320416
0.003539894747
-0.2369914621
0.003113791264
-0.2819924574
0.002543946106
-0.3355059571
0.001779938663
-0.3991212375
0.000743226763
-0.4746940388
-0.0006751647738
-0.5644460596
-0.002630754437
-0.6709448344
-0.005344782465
-0.7972220022
-0.009129274686
-0.9467798924
-0.01442447354
-1.123682612
-0.02184093829
-1.332598731
-0.03220494265
-1.578883317
-0.04658993893
-1.868675523
-0.06631071493
-2.209074582
-0.0928420264
-2.608442136
-0.127658358
-3.07688304
-0.172025818
-3.626916116
-0.2268181059
-4.27423005
-0.2924955244
-5.0384011
-0.3692478744
-5.943490139
-0.4572635585
-7.018515093
-0.5570180835
-8.297997407
-0.6695007788
-9.8227008
-0.7963528417
-11.64071166
-0.939933052
-13.80890072
-1.103344997
-16.39481554
-1.290459207
-19.47902635
-1.505951496
-23.15800235
-1.75536875
-27.54760218
-2.045226307
-32.78732204
-2.383135144
-39.04546468
-2.777953652
-46.52546401
-3.23995401
-55.47366398
-3.780987971
-66.18896722
-4.414635658
-79.03491576
-5.156306936
-94.45496103
-6.023261581
-112.9919402
-7.034491144
-135.3131324
-8.210384721
-162.2427273
-9.572055886
-194.8042068
-11.14015396
-234.2760591
-12.93290184
-282.2655414
-14.96297846
-340.8070097
-17.23269934
-412.4938863
-19.72670368
-500.6568848
-22.40102626
-609.6061124
-25.16689119
-744.9617551
-27.86695794
-914.1079116
-30.2406232
-1126.817953
-31.87372321
-1396.120593
-32.12606596
-1739.504574
-30.02578552
-2180.58577
-2751.455304
0.0006487114939
-0.04611276671
0.002077770227
-0.06980655215
0.003785607613
-0.09346522064
0.004430018516
-0.1173928157
0.004393421902
-0.1406312152
0.004275378183
-0.1673052309
0.004135845011
-0.1989925065
0.003928351624
-0.2367839665
0.003630754177
-0.2816948573
0.003196596478
-0.3350717963
0.002569889611
-0.3984945271
0.001664915223
-0.4737890605
0.0003603477687
-0.5631414877
-0.001517893061
-0.6690665889
-0.00422108279
-0.7945188072
-0.008105157508
-0.9428958127
-0.01367015238
-1.118117612
-0.02159780876
-1.324671069
-0.03278061951
-1.567700498
-0.04832152888
-1.853134604
-0.06948286303
-2.187913233
-0.0975613251
-2.580363659
-0.1337021835
-3.040742167
-0.1787335307
-3.581884756
-0.2330749003
-4.21988867
-0.2968263053
-4.974649684
-0.3699799995
-5.870336432
-0.4526824875
-6.93581259
-0.5454656281
-8.205214248
-0.6493985385
-9.718767869
-0.7661650815
-11.5239451
-0.8980932451
-13.67697254
-1.048168245
-16.24474053
-1.220052678
-19.3071419
-1.418127965
-22.95992705
-1.647563627
-27.31816651
-1.914415618
-32.52047004
-2.225753192
-38.73412709
-2.589808208
-46.16140898
-3.016141708
-55.04733047
-3.515811693
-65.68929723
-4.101534678
-78.44919277
-4.787808097
-93.7686876
-5.590973354
-112.188775
-6.529167984
-134.3749377
-7.62210273
-161.1497926
-8.890563851
-193.5357457
-10.35548922
-232.8111337
-12.03640475
-280.5846259
-13.94889682
-338.8945176
-16.10066622
-410.3421169
-18.48549033
-498.2720607
-21.07413924
-607.0174635
-23.80086906
-742.2350252
-26.54351426
-911.3652663
-29.09437501
-1124.267092
-31.11788988
-1394.097078
-32.08958826
-1738.532875
-31.20683102
-2181.468527
-2755.39925
0.0008731157471
-0.0469858818
0.002375425998
-0.07130886121
0.00392260376
-0.09501239712
0.004337889349
-0.1178080997
0.004315466871
-0.1406087907
0.004256326179
-0.1672460878
0.004177571186
-0.1989137487
0.00403462774
-0.2366410198
0.003803018708
-0.2814632447
0.003433045238
-0.3347018189
0.002860318083
-0.3979217957
0.001986894298
-0.4729156323
0.0006703482105
-0.5618249369
-0.001293916532
-0.6671023197
-0.004200768339
-0.7916119505
-0.008463137913
-0.9386334388
-0.01464498137
-1.111935762
-0.0234865259
-1.315829518
-0.03591285749
-1.555274157
-0.05299868451
-1.836048764
-0.0758750512
-2.165036853
-0.1055795249
-2.550659172
-0.1428891014
-3.003432585
-0.1882179227
-3.536555931
-0.2416375764
-4.16646901
-0.3030348361
-4.913252417
-0.3723426996
-5.801028557
-0.4497618385
-6.858393437
-0.5359253561
-8.119050715
-0.6319889151
-9.622704292
-0.7396678226
-11.41626618
-0.8612475357
-13.55539281
-0.9995926179
-16.10639543
-1.158170178
-19.14856433
-1.341095791
-22.77700143
-1.55320608
-27.10605621
-1.800158516
-32.2735176
-2.088557099
-38.44572849
-2.426101476
-45.8238646
-2.821751922
-54.65168001
-3.285906166
-65.22514298
-3.83056651
-77.90453241
-4.469491235
-93.12976287
-5.218298937
-111.4399673
-6.09448744
-133.4987492