/*--------------------------------*- C++ -*----------------------------------*\
  =========                 |
  \\      /  F ield         | OpenFOAM: The Open Source CFD Toolbox
   \\    /   O peration     | Website:  https://openfoam.org
    \\  /    A nd           | Version:  12
     \\/     M anipulation  |
\*---------------------------------------------------------------------------*/
FoamFile
{
    format      ascii;
    class       volScalarField;
    location    "700";
    object      T;
}
// * * * * * * * * * * * * * * * * * * * * * * * * * * * * * * * * * * * * * //

dimensions      [0 0 0 1 0 0 0];

internalField   nonuniform List<scalar> 
16200
(
294.6949254
294.6981775
294.5537339
294.200829
293.4843722
292.0090003
288.8768617
283.1160905
279.7136289
279.4295079
279.532321
279.626046
279.7423067
279.8704782
280.0208567
280.19286
280.3929375
280.6245278
280.893584
281.2058019
281.5679874
281.9874075
282.4718961
283.0295048
283.6680329
284.394257
285.2127532
286.1242527
287.1235236
288.1971091
289.3217756
290.4650084
291.5884977
292.6540361
293.6296713
294.4937848
295.2361363
295.8564836
296.3620454
296.7648059
297.0791763
297.3201362
297.501935
297.6372687
297.7369067
297.8096122
297.8623012
297.9002855
297.9275669
297.9471096
297.9610862
297.9710755
297.9782196
297.9833532
297.987072
297.9898559
297.9919145
297.993604
297.9949368
297.9971215
293.9276146
293.8944394
293.694642
293.2512171
292.3619299
290.4980394
286.5714918
280.7179806
278.5621485
278.4763126
278.5825482
278.6856665
278.8112567
278.9504571
279.1141764
279.3022623
279.5215876
279.7762612
280.0728139
280.4177212
280.8185268
281.2833101
281.8206488
282.4392365
283.1472542
283.9513788
284.8552354
285.8572677
286.9481514
288.1084363
289.3077697
290.5072274
291.664995
292.7435268
293.7152372
294.5648099
295.2882317
295.8900318
296.3802315
296.7718572
297.0791337
297.316241
297.4964529
297.6316013
297.7317966
297.8053667
297.8589667
297.8977775
297.925747
297.9458325
297.9602203
297.9705103
297.9778685
297.9831446
297.9869639
297.9897957
297.9919152
297.9936066
297.9949599
297.9972628
293.2584275
293.1775847
292.9081942
292.3573209
291.2638147
288.9304737
284.0082834
278.8785122
277.6315385
277.6749257
277.7891075
277.9011909
278.0385067
278.1916127
278.3717615
278.5793874
278.8217319
279.1036388
279.4322313
279.8148101
280.2597082
280.7758768
281.3727023
282.05954
282.8448278
283.7347088
284.7309526
285.8282576
287.0113137
288.2528159
289.5142671
290.750827
291.9191622
292.985074
293.9277541
294.7397579
295.4240109
295.989941
296.450234
296.818722
297.1091942
297.334754
297.5074166
297.6378524
297.7352316
297.8071909
297.8599099
297.898262
297.926006
297.9459885
297.9603329
297.9706064
297.9779573
297.9832262
297.9870383
297.9898531
297.9919732
297.9936413
297.9949649
297.9972434
292.7152132
292.5812198
292.2294976
291.5406425
290.179379
287.2876639
281.4373766
277.5256174
276.9638887
277.04831
277.1694676
277.292178
277.4421814
277.6105334
277.8087222
278.0379428
278.3058217
278.618036
278.9823653
279.4070032
279.9011369
280.4746212
281.137606
281.8998628
282.7695072
283.7511156
284.8430777
286.0344198
287.3018846
288.6091054
289.9098991
291.155891
292.3057139
293.3317475
294.2219699
294.9774359
295.6076705
296.1262464
296.547741
296.8861777
297.1544738
297.3643468
297.5263184
297.649701
297.7425554
297.8116801
297.8626569
297.8999536
297.927064
297.9466672
297.9607835
297.9709178
297.9781809
297.9833912
297.9871618
297.9899415
297.9920468
297.9936907
297.9949875
297.9972728
292.2918435
292.1007246
291.657317
290.8033544
289.0877397
285.4374784
279.1999448
276.6879233
276.4975066
276.5972705
276.7282014
276.8633561
277.028102
277.2141908
277.4332111
277.6872663
277.9843815
278.331159
278.7361234
279.2084519
279.7582498
280.3962247
281.1330304
281.9782714
282.938767
284.0161272
285.2035421
286.4823148
287.8196102
289.1698318
290.4810821
291.7050926
292.8063425
293.7665394
294.5835456
295.2666661
295.8310781
296.293425
296.6692883
296.9722765
297.2140672
297.4047772
297.5532969
297.6674721
297.7541557
297.8192134
297.8675429
297.9031301
297.9291411
297.9480372
297.9616972
297.9715352
297.9786034
297.9836835
297.9873643
297.9900791
297.992146
297.9937569
297.9950156
297.9972912
292.0001175
291.7505396
291.2109618
290.1747072
288.0311226
283.3601798
277.6780695
276.2129781
276.2299007
276.336205
276.4785725
276.6277387
276.8088487
277.0147346
277.2570049
277.5388405
277.8687422
278.2543445
278.7049988
279.2308636
279.8428441
280.5521769
281.3694501
282.3032327
283.3578345
284.5302664
285.8065007
287.1581912
288.5421725
289.9050798
291.1929341
292.3620321
293.3862709
294.2584083
294.986152
295.5859478
296.0771819
296.4782768
296.8048786
297.0696026
297.282581
297.4521939
297.5856458
297.6892901
297.7687467
297.8289168
297.8739771
297.9073943
297.9319712
297.9499212
297.9629567
297.9723815
297.9791749
297.9840708
297.987626
297.9902534
297.9922654
297.9938372
297.9950533
297.9973203
291.8437616
291.529732
290.8817454
289.6235082
286.953599
281.2243689
276.6907834
275.9554018
276.1475413
276.2662874
276.4214978
276.5865983
276.786229
277.0146104
277.2833162
277.5967134
277.963806
278.3932477
278.8951551
279.4804928
280.1606902
280.9470737
281.8495158
282.8745688
284.022582
285.2839995
286.6354437
288.0376175
289.4378111
290.7782065
292.0075124
293.0909053
294.0141564
294.7814358
295.4092071
295.9193803
296.3339287
296.6717999
296.9478851
297.173354
297.3565967
297.5042095
297.6217307
297.7140575
297.7856047
297.8403213
297.8816609
297.912559
297.9354389
297.9522492
297.9645204
297.9734326
297.9798817
297.9845461
297.9879435
297.9904628
297.9924045
297.9939306
297.9950984
297.9973529
291.8299422
291.4434907
290.6685201
289.1129899
285.7116532
279.3747061
276.229662
276.1096068
276.2533151
276.3820039
276.5521601
276.7358043
276.9567822
277.2109385
277.5097479
277.8587904
278.2675634
278.7456745
279.3039257
279.9539112
280.707301
281.5750001
282.5653057
283.6813888
284.9176964
286.2558368
287.6613609
289.0841543
290.4647614
291.7457462
292.8834801
293.8553025
294.6597898
295.3115936
295.8340978
296.2527496
296.590539
296.8658563
297.0921992
297.2789861
297.4327748
297.5584059
297.6598284
297.7405659
297.8038955
297.8528593
297.8902129
297.918371
297.9393783
297.9549139
297.9663197
297.9746456
297.9806977
297.9850934
297.9883077
297.9907021
297.9925614
297.9940359
297.9951511
297.9973913
291.9578967
291.4984884
290.5745583
288.6435597
284.2396599
278.0989769
276.2124442
276.3654003
276.5323551
276.6760231
276.8628363
277.067249
277.3120218
277.5948071
277.9269704
278.3153269
278.7699016
279.3012109
279.9206662
280.6402417
281.4713603
282.4236289
283.5024148
284.7056355
286.0196065
287.4151414
288.8462485
290.2541402
291.5772265
292.7638669
293.7822158
294.6234316
295.2982886
295.8300273
296.2467608
296.5755965
296.8391983
297.0545714
297.2333912
297.3831671
297.5086297
297.6129522
297.6986111
297.7678685
297.8229551
297.8660725
297.899322
297.9246223
297.9436525
297.9578266
297.9682984
297.9759853
297.9816015
297.9857003
297.9887117
297.9909676
297.9927342
297.9941523
297.9952109
297.9974346
292.2061917
291.6649921
290.5562874
288.1760627
282.6519255
277.4770382
276.6963079
276.7996916
276.9727287
277.1328286
277.338213
277.5658215
277.837142
278.151763
278.5209817
278.9528443
279.4579198
280.0475022
280.7333739
281.527385
282.4398856
283.4779297
284.6422294
285.9233489
287.2974644
288.7236704
290.1457971
291.5004685
292.7295438
293.7920389
294.6703914
295.369487
295.9104823
296.3228037
296.6371068
296.8805384
297.0744067
297.2337739
297.3682601
297.4834327
297.5822745
297.6664205
297.7370148
297.795186
297.8422231
297.8795653
297.9087132
297.9311252
297.9481351
297.9609038
297.9704022
297.9774176
297.982572
297.9863542
297.9891483
297.9912553
297.9929214
297.9942789
297.9952775
297.9974832
292.565746
291.9277149
290.5655097
287.5533796
281.2093212
277.3478313
277.2165808
277.3754775
277.5602889
277.7394268
277.9657411
278.2194119
278.520563
278.8707853
279.2813476
279.7614281
280.3220364
280.9749305
281.7317979
282.6036223
283.5986283
284.7198626
285.961504
287.3047245
288.7142291
290.1380354
291.5131441
292.7769903
293.8803198
294.7961961
295.521939
296.0745995
296.4831888
296.7808345
296.9988118
297.1630503
297.2928032
297.400878
297.4947682
297.5781622
297.6524247
297.7178053
297.7742663
297.8219359
297.8612695
297.8930263
297.9181658
297.9377259
297.9527212
297.9640752
297.9725851
297.9789128
297.9835906
297.9870439
297.989611
297.9915616
297.9931214
297.994415
297.9953505
297.9975368
293.0344155
292.2874192
290.6095237
286.6946507
280.2056301
277.8123881
277.9196547
278.0883553
278.2871531
278.4876297
278.7374065
279.0201553
279.3545755
279.7442084
280.2002876
280.7329218
281.3533665
282.073435
282.9041353
283.8546756
284.9298666
286.1270499
287.4319308
288.8146911
290.2284533
291.6126844
292.9025687
294.0420841
294.9951047
295.7501877
296.3184129
296.7264766
297.0085037
297.1990798
297.3285804
297.4208486
297.4926805
297.5545178
297.6117758
297.6663921
297.7182712
297.7664403
297.8098303
297.8476991
297.8797746
297.9062176
297.9275065
297.9443008
297.9573245
297.9672817
297.9748074
297.980445
297.9846411
297.9877595
297.990094
297.9918835
297.9933328
297.9945596
297.9954298
297.9975955
293.6064058
292.7183541
290.6510616
285.6735492
279.9287932
278.5824197
278.7544245
278.9279531
279.1442302
279.3686619
279.6446035
279.9594095
280.3303438
280.7627757
281.2679216
281.8566247
282.5401733
283.3299463
284.2355068
285.263091
286.412457
287.6732894
289.021085
290.414497
291.7967559
293.1031154
294.2727756
295.261212
296.0477745
296.6360313
297.0484693
297.3185133
297.4828428
297.5756853
297.6254395
297.6533445
297.6735782
297.694252
297.7188329
297.7476721
297.7793848
297.8119365
297.8433706
297.8721973
297.8975159
297.9189671
297.9366059
297.9507553
297.9618772
297.9704759
297.977037
297.9819929
297.9857096
297.9884922
297.9905922
297.9922179
297.9935541
297.994712
297.9955151
297.9976592
294.2804481
293.1910239
290.5796466
284.6661876
279.9001795
279.4562453
279.7026495
279.8855436
280.1213286
280.3716966
280.6760623
281.0254562
281.4358539
281.9143041
282.4719928
283.1201598
283.8696746
284.7306824
285.7101954
286.8099978
288.0230023
289.3294106
290.693515
292.0634989
293.3763887
294.5687597
295.5892938
296.4082316
297.0206725
297.4432011
297.7067353
297.8485876
297.9058594
297.9110955
297.8900498
297.861126
297.8358998
297.8202855
297.8159778
297.8219227
297.8356161
297.8541142
297.8747053
297.8952631
297.9143501
297.9311578
297.9453722
297.9570196
297.9663279
297.973621
297.9792479
297.9835387
297.9867844
297.9892349
297.9911011
297.9925623
297.9937843
297.9948714
297.9956059
297.9977279
295.0448572
293.6872515
290.3299114
283.9416124
280.6072805
280.4741037
280.7470848
280.9446062
281.2025881
281.4817151
281.817858
282.2055353
282.6595447
283.188269
283.8026307
284.5136902
285.3312157
286.2631331
287.3126138
288.4753787
289.7357692
291.063344
292.411571
293.7210207
294.9277349
295.9752865
296.8258445
297.4655757
297.903846
298.1673719
298.2924518
298.3178372
298.2794473
298.2072869
298.1241345
298.045539
297.9806075
297.9332471
297.9035773
297.8893209
297.8870153
297.8929468
297.9037677
297.9168152
297.9301959
297.9427168
297.9537445
297.963045
297.9706391
297.9766892
297.98142
297.9850685
297.987856
297.9899811
297.9916168
297.9929145
297.9940221
297.9950371
297.9957014
297.9978018
295.8833743
294.1467528
289.932776
283.7991592
281.5900692
281.5994102
281.8813188
282.0988807
282.3824864
282.6940901
283.0660584
283.4960777
283.997768
284.5804202
285.2544122
286.0300327
286.9151943
287.9144586
289.0256341
290.2366396
291.5218644
292.8402354
294.1366547
295.3485353
296.4166203
297.2961312
297.9646723
298.4235402
298.6937364
298.8089509
298.8081311
298.7295635
298.6069028
298.46715
298.3300311
298.2083627
298.1089861
298.0340177
297.9822006
297.9502076
297.9337649
297.9285135
297.9305742
297.9368353
297.9450193
297.9536055
297.9616859
297.9687997
297.9747851
297.9796601
297.9835382
297.9865713
297.9889168
297.9907257
297.9921359
297.9932724
297.9942664
297.9952082
297.9958002
297.9978806
296.7817886
294.5552756
289.5187108
283.8773001
282.6837804
282.8199202
283.1103807
283.3523543
283.6639671
284.0105159
284.4209588
284.8958596
285.4477093
286.0863102
286.8211467
287.6609336
288.6105892
289.6697553
290.8291515
292.0675023
293.3489648
294.6234701
295.8313007
296.9120604
297.8160986
298.5130862
298.9959825
299.2790022
299.3916585
299.3716548
299.2583884
299.0883431
298.8922786
298.6940293
298.5103637
298.3515749
298.2224733
298.1236051
298.0525268
298.0050199
297.9761302
297.9609624
297.9551972
297.9553497
297.9588203
297.9638113
297.9691787
297.9742654
297.9787491
297.9825201
297.9855916
297.9880388
297.9899606
297.9914646
297.9926556
297.9936343
297.9945161
297.9953839
297.9959081
297.9979644
297.6794475
294.8975462
289.2487387
284.3549395
283.9236074
284.1287397
284.4307571
284.7003533
285.0421267
285.4259642
285.8775288
286.399908
287.0043654
287.7005484
288.4963025
289.3975557
290.4047866
291.5111798
292.6991031
293.9377193
295.1822057
296.3767301
297.4617634
298.3842218
299.107328
299.6159457
299.9167409
300.0338832
300.0023139
299.861274
299.6490044
299.3993564
299.1399166
298.8913994
298.6678179
298.4771915
298.3225424
298.203057
298.1152794
298.0542408
298.0144212
297.9904831
297.9777453
297.9724145
297.9716232
297.9733397
297.976219
297.9794339
297.9825219
297.9852601
297.9875725
297.9894646
297.9909827
297.9921942
297.9931735
297.9939984
297.9947704
297.9955642
297.9960243
297.9980532
298.4747296
295.192447
289.2354224
285.5917163
285.2761953
285.5203867
285.8388319
286.139852
286.5149594
286.9394039
287.4353954
288.0079504
288.6667164
289.4202274
290.2737201
291.2291198
292.28127
293.4159078
294.6066507
295.8138771
296.9863313
298.066649
299.000316
299.745412
300.2794337
300.6014277
300.7291548
300.6936177
300.5324961
300.2846894
299.9862307
299.6679154
299.3541316
299.062653
298.8049942
298.587163
298.4106261
298.2734034
298.171182
298.0983653
298.0489664
298.0172861
297.9983475
297.9881048
297.983468
297.9822095
297.9828129
297.9843046
297.9860996
297.9878752
297.9894758
297.9908445
297.9919795
297.9929116
297.9936875
297.9943634
297.9950285
297.9957492
297.9961473
297.9981468
299.1484072
295.4753486
289.6446234
286.7176154
286.7410055
287.0053168
287.3429537
287.678558
288.0894431
288.5565396
289.0983462
289.721048
290.4322514
291.2384556
292.1414556
293.1382023
294.2170181
295.3556687
296.5194095
297.6617256
298.7284522
299.665224
300.4266
300.9838896
301.32859
301.4717123
301.4391222
301.2658058
300.9900589
300.6491495
300.2763098
299.8991556
299.5390149
299.210973
298.9243223
298.6833131
298.4880709
298.3356215
298.2209296
298.1378774
298.0800947
298.0415885
298.0171426
298.0025057
297.9944046
297.9904477
297.9889735
297.9888823
297.9894825
297.9903635
297.9912987
297.9921754
297.9929481
297.9936147
297.9941958
297.994728
297.9952897
297.9959385
297.9962752
297.9982452
299.7589061
295.7635765
290.2901099
288.119333
288.3091686
288.5874042
288.9480487
289.3192234
289.766017
290.2750717
290.8610558
291.5305326
292.2887137
293.1392226
294.0795922
295.1008718
296.1841447
297.2992137
298.4043145
299.4490551
300.380488
301.1513546
301.7279319
302.0950719
302.2566725
302.2329035
302.0548462
301.7591369
301.3831645
300.9617817
300.5251743
300.0978551
299.6983258
299.3392657
299.0280172
298.7673077
298.5561133
298.3906154
298.2651729
298.1732363
298.1081234
298.0636044
298.0342715
298.0157069
298.004488
297.9980866
297.9947184
297.9931755
297.9926737
297.992725
297.9930398
297.9934553
297.9938867
297.9943016
297.9946969
297.9950911
297.9955533
297.9961316
297.9964074
297.9983481
300.399228
296.1193072
290.9903838
289.655419
289.9643905
290.2582918
290.6429251
291.049507
291.5313317
292.0804391
292.7077349
293.4192464
294.217311
295.1016937
296.064681
297.0905994
298.1530994
299.2150342
300.2301509
301.1479559
301.9207595
302.5113852
302.8987998
303.0802934
303.0697308
302.8935895
302.5856918
302.1825843
301.7197655
301.2292837
300.7382723
300.2683404
299.8354417
299.4501336
299.1180621
298.840643
298.6158693
298.4392075
298.304509
298.2048686
298.1333514
298.0835392
298.0498715
298.0277984
298.0137751
298.0051608
298.0000676
297.9971951
297.9956784
297.9949615
297.9946991
297.9946832
297.9947937
297.9949708
297.9951894
297.9954516
297.9958186
297.9963274
297.9965429
297.9984557
301.0499038
296.6184727
292.2304613
291.3070798
291.6876099
292.0014508
292.4111065
292.8531503
293.3696091
293.9570555
294.6226671
295.370762
296.2000582
297.1053822
298.0729815
299.0802557
300.0942599
301.0730907
301.9693883
302.7363603
303.3347261
303.7388363
303.9398094
303.9453282
303.7765256
303.463647
303.0413335
302.5448613
302.0072906
301.4577573
300.92049
300.4144558
299.9533492
299.545875
299.1962114
298.9046469
298.6683349
298.4821363
298.3394786
298.2331642
298.1560552
298.1015849
298.0640738
298.0388672
298.0223225
298.011706
298.0050428
298.0009534
297.998503
297.9970758
297.9962771
297.9958585
297.9956682
297.9956211
297.9956721
297.9958085
297.9960849
297.9965247
297.9966798
297.9985683
301.768873
297.2779984
293.6305568
293.046765
293.4695407
293.8084936
294.2444757
294.7222867
295.2730612
295.8964054
296.5956802
297.3722711
298.220506
299.1296223
300.0796998
301.0419681
301.9787529
302.8463405
303.5997485
304.1989844
304.614959
304.8335056
304.8562881
304.6989255
304.3872881
303.9533399
303.4311763
302.8540911
302.2524791
301.6526425
301.0761365
300.5395711
300.0546603
299.6285003
299.264003
298.9604878
298.7143907
298.5200595
298.3705667
298.2584759
298.1764875
298.1179195
298.077001
298.0489964
298.030185
298.0177573
298.0096658
298.0044633
298.0011547
297.9990716
297.9977753
297.9969815
297.9965094
297.9962516
297.9961441
297.996161
297.9963513
297.9967221
297.9968226
297.9986861
302.5904119
298.3720149
295.1429361
294.8697721
295.3137138
295.6836864
296.1461695
296.6579234
297.239977
297.8932437
298.6171638
299.4093302
300.2592783
301.1506105
302.0578555
302.9476114
303.7799464
304.5124146
305.1053501
305.5275133
305.7603931
305.8001363
305.656797
305.3515043
304.9127423
304.372679
303.7639882
303.1176259
302.461314
301.8187094
301.2089635
300.6466103
300.1416396
299.6997553
299.3227762
299.0091876
298.7548111
298.5535582
298.3982051
298.2811202
298.1948767
298.1327053
298.0887665
298.0582635
298.0374145
298.0233487
298.0139582
298.0077381
298.003641
298.0009527
297.9991953
297.9980522
297.997317
297.9968614
297.9966043
297.9965083
297.9966172
297.9969186
297.996966
297.9988081
303.4883895
299.5133109
296.8168474
296.7784957
297.230206
297.6317782
298.1175022
298.6571105
299.2629062
299.9355296
300.670428
301.4609155
302.2916831
303.1411578
303.9795148
304.770771
305.4754014
306.0549464
306.4770706
306.7200048
306.7750767
306.646939
306.351776
305.9141082
305.3634047
304.7310154
304.0477015
303.3419775
302.6390225
301.9600912
301.3222072
300.738092
300.2162393
299.7611481
299.3736919
299.0516362
298.7902736
298.5831443
298.4227761
298.3013793
298.2114283
298.1460893
298.099474
298.0667402
298.0440596
298.0285124
298.0179406
298.0107907
298.0059698
298.0027234
298.0005391
297.9990714
297.9980908
297.9974499
297.9970519
297.9968496
297.9968815
297.9971129
297.9971152
297.9989317
304.4899949
300.6306852
298.6258141
298.7605201
299.2132045
299.6418689
300.1452762
300.7041008
301.3232945
302.0019911
302.7315696
303.500881
304.2901162
305.0735154
305.8186099
306.4891576
307.0485164
307.4642145
307.7121982
307.7798218
307.6667937
307.3842619
306.9524809
306.3976778
305.7491584
305.0368364
304.2893494
303.532832
302.7901248
302.0803426
301.4186448
300.8161773
300.2801372
299.8139786
299.4177548
299.0886067
298.82137
298.609267
298.4446176
298.3195041
298.2263261
298.1582044
298.1092176
298.0744922
298.0501654
298.0332786
298.0216329
298.0136335
298.0081485
298.0043879
298.0018088
298.0000399
297.9988306
297.9980166
297.9974861
297.9971843
297.9971434
297.9973042
297.9972727
297.9990547
305.6222173
301.8476687
300.5398184
300.7928347
301.2448465
301.6942101
302.2087294
302.7770441
303.3977861
304.0676892
304.7741906
305.5019354
306.227448
306.9222602
307.5532622
308.0861819
308.4891763
308.7368543
308.8134151
308.7142463
308.4456772
308.0234405
307.4701645
306.8125474
306.0789951
305.2976695
304.4950655
303.6950937
302.9184946
302.1825002
301.5006468
300.8827132
300.3347708
299.8593644
299.4558322
299.1207699
298.8486161
298.6323201
298.4640272
298.3357171
298.2397342
298.1691698
298.1180827
298.0815797
298.0557733
298.0376754
298.0250536
298.0162785
298.0101844
298.0059505
298.0030065
298.0009584
297.9995366
297.9985609
297.9979064
297.9975117
297.9974017
297.9974918
297.9974378
297.9991731
306.8585525
303.362991
302.530785
302.8589823
303.307574
303.7697763
304.2870794
304.8534393
305.4621283
306.1069539
306.7717929
307.4377796
308.0790002
308.6660029
309.1669818
309.5514114
309.7933897
309.8748122
309.7873728
309.5330198
309.1229608
308.5758782
307.9154884
307.1681274
306.3608842
305.5200663
304.6701239
303.8329492
303.027426
302.2691434
301.5702286
300.9392735
300.3813691
299.8982652
299.488672
299.1487067
298.8724609
298.652648
298.4812665
298.350215
298.2517985
298.1790921
298.1261462
298.0880572
298.0609214
298.0417288
298.0282202
298.018737
298.0120846
298.0074153
298.0041346
298.0018279
298.0002088
297.9990824
297.9983119
297.9978312
297.9976555
297.9976751
297.9976094
297.9992907
308.1649821
305.0188814
304.5687057
304.94251
305.382952
305.8484638
306.3584706
306.9099028
307.4916163
308.094419
308.6992889
309.2848925
309.8243172
310.2888127
310.6494586
310.8805981
310.9626285
310.8842485
310.643468
310.2472523
309.7101566
309.0525228
308.2982547
307.4728169
306.6017965
305.7096799
304.8190371
303.9499636
303.1197188
302.342465
301.6291067
300.9872028
300.4209862
299.931507
299.5169209
299.172922
298.8932965
298.6705529
298.4965665
298.3631719
298.262649
298.1880672
298.1334776
298.0939741
298.0656444
298.0454628
298.0311488
298.0210197
298.013856
298.0087864
298.0051953
298.0026494
298.0008475
297.999581
297.9987023
297.9981422
297.9979037
297.9978537
297.9977873
297.9994052
309.5393206
306.7871132
306.6271038
307.023024
307.450972
307.9087874
308.4000417
308.9226766
309.4620476
310.0063294
310.5345259
311.024053
311.4483991
311.7808976
311.996552
312.0750228
312.0027387
311.7742937
311.3927004
310.8685331
310.2184593
309.4635357
308.6272736
307.7340004
306.8077679
305.8713573
304.945651
304.0491667
303.1977515
302.4043305
301.6787454
301.0276519
300.4545279
299.9598031
299.54114
299.1938557
298.9114658
298.6863005
298.510131
298.3747428
298.2724016
298.1961808
298.1401394
298.0993756
298.0699743
298.0488995
298.0338544
298.0231364
298.0155049
298.0100678
298.0061907
298.0034241
298.0014529
298.0000562
297.9990772
297.9984441
297.998145
297.9980275
297.9979711
297.999516
310.9748867
308.632854
308.6879738
309.0809581
309.4897261
309.9278655
310.3879895
310.8678889
311.3503094
311.8213998
312.2591871
312.640997
312.9418679
313.1381587
313.2092792
313.1401062
312.922427
312.5556517
312.0465477
311.4081303
310.6582459
309.8180307
308.9102673
307.9580472
306.9839496
306.0092083
305.053216
304.133117
303.2635346
302.4563207
301.7203899
301.061604
300.4827714
299.9837685
299.5618151
299.2118904
298.9272689
298.700124
298.5221397
298.3850646
298.2811599
298.2035097
298.1461879
298.1043023
298.07394
298.0520593
298.0363511
298.0250967
298.0170373
298.0112632
298.007123
298.0041529
298.0020254
298.0005079
297.999436
297.9987362
297.9983785
297.9981965
297.9981594
297.9996216
312.4510253
310.5214112
310.7216127
311.091692
311.4735837
311.8805349
312.2978299
312.7225307
313.1356519
313.5220173
313.8596183
314.1266775
314.3006035
314.3612757
314.2925277
314.0839794
313.7319133
313.239488
312.6161566
311.8764728
311.0388025
310.1239723
309.1538735
308.1503717
307.1346905
306.1266902
305.1444644
304.203968
303.3187654
302.4997755
301.7551008
301.0899005
300.5063858
300.0039352
299.5793689
299.2273608
298.940969
298.7122292
298.532752
298.3942595
298.289016
298.2101232
298.1516743
298.1087914
298.0775682
298.0549609
298.0386518
298.0269093
298.0184592
298.0123762
298.0079944
298.004837
298.0025653
298.000936
297.9997787
297.9990179
297.9986031
297.998361
297.9983507
297.99972
313.9225167
312.413063
312.6871668
313.0309033
313.3782347
313.7440129
314.1086114
314.4680918
314.8026056
315.0963923
315.3282238
315.4779522
315.5258214
315.4553326
315.2544291
314.916807
314.4423567
313.8370427
313.1121542
312.2831282
311.3684212
310.3883375
309.3638299
308.3156129
307.2636985
306.226745
305.2217213
304.2635561
303.3648963
302.5358468
301.7837942
301.1132725
300.5259552
300.0207702
299.5941739
299.240563
298.9528003
298.7227999
298.5421107
298.4024374
298.2960538
298.216084
298.1566451
298.1128771
298.0808834
298.0576218
298.0407689
298.0285826
298.0197761
298.0134105
298.008807
298.0054776
298.0030732
298.0013405
298.000105
297.9992886
297.9988177
297.9985214
297.9985422
297.9998089
315.3904203
314.2740288
314.5665073
314.8770935
315.1832689
315.4996477
315.803805
316.0908024
316.3407216
316.5378659
316.6623803
316.6961684
316.6224378
316.4281191
316.1047632
315.6494261
315.0647997
314.3588863
313.5441771
312.6365463
311.6542875
310.6170906
309.5449965
308.4576791
307.3740892
306.3118438
305.2869435
304.3134317
303.403159
302.5655165
301.807256
301.1323504
300.5419865
300.0346809
299.6065571
299.2517582
298.9629704
298.7319997
298.5503438
298.4096972
298.3023489
298.2214494
298.161143
298.1165908
298.0839087
298.0600585
298.0427138
298.0301246
298.0209934
298.0143696
298.0095631
298.0060759
298.0035494
298.0017215
298.0004149
297.9995475
297.9990215
297.9986779
297.9987307
297.9998878
316.8374056
316.064485
316.340598
316.6128297
316.8721299
317.1327915
317.3711973
317.5814896
317.7442711
317.8443595
317.863602
317.7860942
317.5978867
317.2889756
316.8539548
316.2925703
315.6096419
314.8146203
313.9207507
312.9440634
311.9025587
310.8152986
309.7014824
308.5798706
307.4684964
306.3840824
305.3417984
304.354924
303.4346163
302.5896378
301.8261732
301.1476892
300.5549285
300.0460298
299.6168105
299.2611809
298.9716661
298.7399765
298.5575672
298.4161289
298.3079704
298.2262718
298.1652075
298.1199617
298.0866653
298.0622864
298.0444976
298.0315431
298.0221164
298.015257
298.0102649
298.0066332
298.0039946
298.0020792
298.0007083
297.9997939
297.999214
297.9988313
297.9989125
297.9999629
318.2475119
317.7527325
317.9929351
318.2229679
318.4318908
318.6332861
318.8035888
318.9361674
319.0125545
319.0183587
318.9372442
318.7554434
318.4615891
318.0483183
317.5127277
316.8566818
316.0865988
315.2129496
314.2494357
313.212083
312.1185483
310.9873013
309.8367932
308.6849997
307.5491656
306.4452521
305.3877169
304.3891797
303.4601908
302.6089557
301.84115
301.1597797
300.5651799
300.0551408
299.6251963
299.269042
298.9790564
298.7468644
298.5638864
298.4218147
298.3129817
298.2305997
298.1688751
298.1230171
298.0891734
298.0643202
298.0461308
298.0328454
298.0231502
298.0160762
298.0109146
298.0071508
298.0044095
298.002414
298.0009853
298.0000269
297.9993951
297.9989818
297.9990862
298.0000348
319.6024146
319.3154146
319.5112957
319.6968196
319.8542117
319.9955674
320.0982913
320.1550986
320.148651
320.0654615
319.8909763
319.6134046
319.2236472
318.7165671
318.0912921
317.3513455
316.5043476
315.5614921
314.5367529
313.4460712
312.3067631
311.136769
309.9538946
308.7754492
307.6180075
306.4968863
305.4259326
304.4171948
303.4806903
302.6241281
301.8527236
301.1690613
300.5731001
300.062307
299.6319527
299.2755343
298.9852959
298.7527866
298.5693987
298.4268309
298.3174419
298.2344783
298.1721799
298.1257826
298.091452
298.0661737
298.0476235
298.0340387
298.0240999
298.0168306
298.0115146
298.0076303
298.0047949
298.0027263
298.0012459
298.0002461
297.9995651
297.9991287
297.9992475
298.0000996
320.8859177
320.7361181
320.8870113
321.0278211
321.1350686
321.2184484
321.2567716
321.242206
321.1586252
320.9934832
320.7339036
320.3698723
319.8942425
319.3037313
318.5991094
317.7852042
316.8705528
315.866877
314.7883165
313.6507007
312.4710422
311.2668282
310.0553173
308.853258
307.6766667
306.5403138
305.457523
304.4398468
303.4968324
302.6357442
301.8613785
301.175933
300.5790174
300.0677977
299.6372996
299.2808361
298.9905283
298.757858
298.5741954
298.431249
298.3214065
298.2379504
298.1751548
298.128283
298.0935195
298.0678605
298.0489855
298.0351302
298.0249706
298.0175237
298.0120672
298.008073
298.0051516
298.0030167
298.0014902
298.000451
297.9997242
297.9992697
297.9993936
298.0001616
322.0842342
322.0046515
322.1166772
322.2152681
322.2759243
322.3054793
322.2843926
322.2044355
322.0507285
321.8116501
321.4758485
321.0348671
320.4832155
319.8191473
319.0447663
318.1659391
317.1919225
316.1348429
315.0089515
313.829972
312.6146721
311.3801606
310.1432392
308.9201919
307.726579
306.576705
305.483446
304.457923
303.5092668
302.6443413
301.8675604
301.1807638
300.5832367
300.071864
299.6414427
299.285115
298.9948892
298.7621874
298.5783627
298.4351371
298.3249289
298.2410573
298.1778313
298.1305421
298.0953939
298.0693941
298.0502268
298.0361271
298.0257673
298.0181593
298.012575
298.0084807
298.0054806
298.0032861
298.0017182
298.0006413
297.9998724
297.9994028
297.9995302
298.0002229
323.1880933
323.1253765
323.2047148
323.2645009
323.2827979
323.2635859
323.1890025
323.0504805
322.8343083
322.5297053
322.1266522
321.6180275
320.9997327
320.2712954
319.4359114
318.5002928
317.4742831
316.3703394
315.2028024
313.9873215
312.7404814
311.4790824
310.2195504
308.9777992
307.7690143
306.607105
305.5045652
304.4721399
303.51859
302.6504172
301.8716844
301.1838997
300.5860452
300.0747432
299.6445769
299.2885299
298.9985073
298.765878
298.5819831
298.4385603
298.32806
298.2438385
298.1802398
298.1325832
298.0970927
298.0707877
298.0513571
298.0370366
298.0264954
298.018741
298.0130406
298.008855
298.0057832
298.0035351
298.0019301
298.0008167
298.0000096
297.9995281
297.999665
298.0002705
324.1592193
324.1090405
324.1588304
324.1836816
324.1642918
324.1018956
323.9801911