/*--------------------------------*- C++ -*----------------------------------*\
  =========                 |
  \\      /  F ield         | OpenFOAM: The Open Source CFD Toolbox
   \\    /   O peration     | Website:  https://openfoam.org
    \\  /    A nd           | Version:  12
     \\/     M anipulation  |
\*---------------------------------------------------------------------------*/
FoamFile
{
    format      ascii;
    class       volScalarField;
    location    "0.117";
    object      alphat;
}
// * * * * * * * * * * * * * * * * * * * * * * * * * * * * * * * * * * * * * //

dimensions      [1 -1 -1 0 0 0 0];

internalField   nonuniform List<scalar> 
16000
(
4.921845e-07
1.074871e-05
1.929821e-05
2.5738411e-05
1.9747025e-05
2.7115297e-05
1.9194969e-05
2.6256748e-05
2.0551015e-05
2.8252874e-05
2.385456e-05
2.7979933e-05
2.5560707e-05
2.624403e-05
2.538693e-05
2.5262282e-05
2.5022924e-05
2.4975345e-05
2.5013549e-05
2.5159354e-05
2.5404839e-05
2.5749686e-05
2.6191527e-05
2.6730734e-05
2.7370037e-05
2.8116292e-05
2.8978665e-05
2.9971618e-05
3.1112719e-05
3.2420914e-05
3.3917048e-05
3.5628742e-05
3.7591597e-05
3.9849484e-05
4.245638e-05
4.5476729e-05
4.8987372e-05
5.3080039e-05
5.7868334e-05
6.3493051e-05
7.0119632e-05
7.7943224e-05
8.720986e-05
9.8220977e-05
0.00011133557
0.00012698458
0.00014570241
0.00016814058
0.00019509267
0.00022752615
0.00026662536
0.00031384321
0.00037095621
0.00044014134
0.00052406713
0.00062601886
0.00075005619
0.00090121708
0.0010857829
0.001177698
0.0011785651
0.0011793281
0.0011799725
0.0011804593
0.0011807854
0.0011809454
0.0011809397
0.0011807689
0.0011804286
0.0011799037
0.001179152
0.001178071
0.0011765681
0.0011750949
0.0011739063
0.0011730133
0.0011723232
0.0011725067
0.0011703897
0.0011693142
4.4118428e-07
1.0179918e-05
2.1257909e-05
2.3168769e-05
1.778475e-05
2.4310022e-05
1.7019274e-05
2.2998884e-05
1.8134811e-05
2.4954341e-05
2.1574636e-05
2.5214167e-05
2.3355102e-05
2.3765e-05
2.3099686e-05
2.2920673e-05
2.2724553e-05
2.2671581e-05
2.2710168e-05
2.2844524e-05
2.3072055e-05
2.3392086e-05
2.3802926e-05
2.4305023e-05
2.4900583e-05
2.559603e-05
2.639935e-05
2.7323597e-05
2.8385402e-05
2.9603225e-05
3.0996475e-05
3.2590412e-05
3.4417997e-05
3.6519875e-05
3.8946564e-05
4.175869e-05
4.5029003e-05
4.8843744e-05
5.3308809e-05
5.8557573e-05
6.4749064e-05
7.2067131e-05
8.0743635e-05
9.1066159e-05
0.00010337967
0.00011809406
0.00013571944
0.00015687996
0.00018233772
0.00021302259
0.0002500735
0.00029489165
0.00034919303
0.00041508486
0.00049515283
0.00059258312
0.00071131675
0.00085623969
0.0010334296
0.0011770492
0.0011779089
0.0011786231
0.0011792286
0.0011796827
0.0011799839
0.0011801279
0.0011801138
0.0011799391
0.0011795949
0.0011790632
0.0011783094
0.0011772461
0.0011757791
0.0011743858
0.0011732668
0.0011723801
0.0011717735
0.0011715278
0.0011701254
0.0011693477
3.9864847e-07
9.7391181e-06
2.0082731e-05
2.1111772e-05
1.5907447e-05
2.1390906e-05
1.5139295e-05
1.997693e-05
1.6291006e-05
2.1881417e-05
1.9653966e-05
2.2437992e-05
2.1140138e-05
2.1271184e-05
2.0764259e-05
2.0562794e-05
2.040099e-05
2.03534e-05
2.0394619e-05
2.0522359e-05
2.0735435e-05
2.1033561e-05
2.1415395e-05
2.1881652e-05
2.2434131e-05
2.307902e-05
2.3823478e-05
2.4679351e-05
2.5662153e-05
2.6789869e-05
2.8080934e-05
2.9558741e-05
3.1254075e-05
3.3204803e-05
3.5458396e-05
3.8071977e-05
4.1114709e-05
4.4668545e-05
4.8832935e-05
5.3733876e-05
5.9525197e-05
6.6382092e-05
7.4524338e-05
8.4226689e-05
9.5823073e-05
0.00010970649
0.00012636691
0.0001464058
0.00017055941
0.00019972759
0.00023501235
0.00027777309
0.00032967677
0.00039277474
0.00046958682
0.00056322021
0.00067752169
0.00081726446
0.00098837777
0.0011765979
0.0011774391
0.001178089
0.0011786372
0.0011790408
0.0011792992
0.0011794088
0.0011793676
0.0011791706
0.0011788053
0.0011782507
0.0011774764
0.0011764127
0.0011749714
0.0011736668
0.0011726108
0.0011717751
0.001171248
0.0011710045
0.0011699508
0.0011692488
3.5238959e-07
9.405321e-06
1.9038211e-05
1.9579038e-05
1.4286661e-05
1.8873593e-05
1.3480635e-05
1.7447752e-05
1.465273e-05
1.9278248e-05
1.7929111e-05
1.9986964e-05
1.9103021e-05
1.9031026e-05
1.8641424e-05
1.843901e-05
1.8307017e-05
1.8270004e-05
1.8316692e-05
1.8441618e-05
1.8644179e-05
1.8924529e-05
1.9281692e-05
1.9716771e-05
2.0231297e-05
2.0831373e-05
2.1523606e-05
2.2318888e-05
2.3231679e-05
2.4279579e-05
2.5480386e-05
2.6855913e-05
2.8435184e-05
3.0253694e-05
3.235634e-05
3.4797244e-05
3.7642474e-05
4.0970644e-05
4.4876079e-05
4.9477923e-05
5.4926025e-05
6.1389034e-05
6.9077029e-05
7.8253369e-05
8.9244045e-05
0.00010242907
0.00011828245
0.00013738806
0.0001604622
0.00018838271
0.0002222236
0.00026331376
0.00031328431
0.00037414706
0.00044837611
0.00053902436
0.00064987366
0.0007856226
0.00095211154
0.0011565804
0.0011771797
0.0011777512
0.0011782272
0.0011785661
0.0011787673
0.0011788273
0.0011787428
0.0011785068
0.0011781048
0.0011775136
0.0011767047
0.00117563
0.001174211
0.0011729902
0.0011719934
0.0011712074
0.0011707029
0.0011704253
0.0011698089
0.0011693107
3.1857316e-07
9.1555548e-06
1.8128474e-05
1.9549698e-05
1.4209846e-05
1.6681485e-05
1.2025917e-05
1.5281898e-05
1.3246222e-05
1.7034715e-05
1.6397452e-05
1.7782616e-05
1.7206818e-05
1.6997995e-05
1.6695092e-05
1.6506792e-05
1.6399517e-05
1.6373874e-05
1.6424933e-05
1.6546586e-05
1.6738431e-05
1.700124e-05
1.7334449e-05
1.7739675e-05
1.8218326e-05
1.8776514e-05
1.9420459e-05
2.0160295e-05
2.1009447e-05
2.1985091e-05
2.3104608e-05
2.4388505e-05
2.5864356e-05
2.7565613e-05
2.9534971e-05
3.182395e-05
3.4495871e-05
3.7626654e-05
4.1306806e-05
4.5648965e-05
5.0799663e-05
5.6922692e-05
6.4220599e-05
7.2946083e-05
8.3419217e-05
9.6009992e-05
0.00011117934
0.00012949685
0.00015166243
0.00017853708
0.00021117204
0.00025087227
0.00029924028
0.00035825684
0.00043036083
0.0005185633
0.00062659624
0.00075910076
0.0009218515
0.0011220057
0.0011771143
0.0011775946
0.0011779834
0.001178243
0.0011783722
0.001178367
0.001178223
0.0011779321
0.0011774788
0.0011768383
0.001175981
0.0011748817
0.0011734981
0.0011723578
0.001171418
0.0011706706
0.0011701678
0.0011699076
0.001169564
0.001169108
2.953186e-07
9.001724e-06
1.7401932e-05
1.9287429e-05
1.3966211e-05
1.4768644e-05
1.1330251e-05
1.3494555e-05
1.2214545e-05
1.5142481e-05
1.505888e-05
1.5850877e-05
1.5480116e-05
1.5191116e-05
1.494298e-05
1.4771101e-05
1.4679767e-05
1.4661125e-05
1.4712761e-05
1.4828876e-05
1.5009025e-05
1.5254512e-05
1.5565006e-05
1.594255e-05
1.6388528e-05
1.6909038e-05
1.7509978e-05
1.8200898e-05
1.899422e-05
1.9906666e-05
2.0955399e-05
2.2159876e-05
2.3546529e-05
2.5147124e-05
2.7002564e-05
2.9162225e-05
3.168712e-05
3.4651054e-05
3.814212e-05
4.2267367e-05
4.717034e-05
5.3011718e-05
5.9989266e-05
6.8346068e-05
7.8398454e-05
9.0509856e-05
0.00010513156
0.00012282303
0.00014427207
0.00017032925
0.00020202972
0.00024066288
0.00028781232
0.00034543903
0.00041596092
0.00050236411
0.00060835099
0.00073852879
0.00089863699
0.0010957929
0.0011772317
0.0011776086
0.0011778968
0.0011780637
0.0011781072
0.0011780225
0.0011778046
0.0011774444
0.0011769263
0.0011762257
0.0011753093
0.001174168
0.0011728419
0.0011717784
0.0011708928
0.0011701713
0.0011696532
0.0011694095
0.0011693079
0.0011687869
2.6415384e-07
8.914286e-06
1.6837121e-05
1.8250858e-05
1.3843463e-05
1.3045794e-05
1.1391321e-05
1.2415754e-05
1.1821059e-05
1.3519943e-05
1.3861562e-05
1.4149013e-05
1.3884744e-05
1.3560669e-05
1.3343262e-05
1.3187696e-05
1.3107911e-05
1.3094897e-05
1.3146708e-05
1.325816e-05
1.3428464e-05
1.3659371e-05
1.3950505e-05
1.4220232e-05
1.4627869e-05
1.5107042e-05
1.5662828e-05
1.6303978e-05
1.7041713e-05
1.7891935e-05
1.8871556e-05
1.9999011e-05
2.1299688e-05
2.2803741e-05
2.4550412e-05
2.6587117e-05
2.8972708e-05
3.1778915e-05
3.5092282e-05
3.930989e-05
4.4012782e-05
4.9628145e-05
5.635176e-05
6.4418497e-05
7.4142197e-05
8.5883125e-05
0.00010008626
0.0001173048
0.00013821808
0.00016367224
0.00019469234
0.00023255983
0.00027884804
0.00033550829
0.00040494985
0.00049014909
0.00059479648
0.00072348573
0.00088194613
0.0010772901
0.0011775158
0.0011777781
0.0011779535
0.0011780157
0.0011779612
0.0011777846
0.0011774799
0.0011770381
0.0011764435
0.0011756731
0.001174692
0.00117349
0.0011722511
0.0011712598
0.0011704246
0.0011697202
0.0011691829
0.0011689466
0.0011689963
0.0011683328
2.3891688e-07
8.8648032e-06
1.635754e-05
1.6608264e-05
1.2714993e-05
1.1367621e-05
9.8740695e-06
1.1092619e-05
1.0407766e-05
1.2149368e-05
1.2661445e-05
1.2589937e-05
1.2366801e-05
1.2051094e-05
1.1858651e-05
1.1724045e-05
1.1658346e-05
1.1654035e-05
1.1638195e-05
1.173087e-05
1.1882424e-05
1.2093564e-05
1.2362109e-05
1.2688712e-05
1.3078239e-05
1.3534396e-05
1.4062567e-05
1.4671424e-05
1.5371576e-05
1.6178455e-05
1.7109193e-05
1.8181687e-05
1.9420832e-05
2.0855768e-05
2.2524781e-05
2.447406e-05
2.6761175e-05
2.9456603e-05
3.264638e-05
3.6435336e-05
4.0951344e-05
4.6356317e-05
5.2846166e-05
6.1160824e-05
7.0649113e-05
8.2129956e-05
9.6045773e-05
0.00011294726
0.00013350905
0.00015857932
0.00018917933
0.00022659066
0.0002723859
0.0003285174
0.00039739918
0.0004820141
0.00058606007
0.00071413963
0.00087199752
0.0010667766
0.0011779468
0.0011780847
0.0011781371
0.0011780845
0.0011779219
0.001177643
0.0011772413
0.0011767079
0.0011760271
0.0011751779
0.0011741326
0.0011728698
0.0011717318
0.0011708076
0.0011700191
0.0011693301
0.0011687771
0.0011685291
0.0011686151
0.0011679168
2.2032536e-07
8.8170526e-06
1.5866897e-05
1.454114e-05
1.0452164e-05
1.0103209e-05
8.1344852e-06
9.4574009e-06
9.6622401e-06
1.0934188e-05
1.1446261e-05
1.1142659e-05
1.0938279e-05
1.0656257e-05
1.0489257e-05
1.0305541e-05
1.0228797e-05
1.0218671e-05
1.0267418e-05
1.0372159e-05
1.0528745e-05
1.0739169e-05
1.1002619e-05
1.1319368e-05
1.1694324e-05
1.2132171e-05
1.2638337e-05
1.3221528e-05
1.3891942e-05
1.4664522e-05
1.5556736e-05
1.6586203e-05
1.7777653e-05
1.9159536e-05
2.0769565e-05
2.2653213e-05
2.4867307e-05
2.7481675e-05
3.0581711e-05
3.4271399e-05
3.8679062e-05
4.3964397e-05
5.0326552e-05
5.7996794e-05
6.7271599e-05
7.851992e-05
9.2999833e-05
0.0001097396
0.00013013386
0.00015503893
0.00018547909
0.00022274422
0.00026841585
0.00032445856
0.0003933047
0.00047796048
0.00058215136
0.00071051199
0.00086882812
0.0010643063
0.0011785013
0.0011785067
0.0011784282
0.0011782529
0.0011779745
0.0011775858
0.0011770796
0.0011764473
0.0011756736
0.0011747374
0.0011736288
0.0011723467
0.0011712902
0.0011704273
0.0011696829
0.0011690134
0.0011684545
0.0011681837
0.0011682318
0.0011675905
2.0220666e-07
8.7719501e-06
1.4296597e-05
1.2669545e-05
8.4523021e-06
8.9781208e-06
7.2241202e-06
8.5372909e-06
8.949931e-06
9.7851224e-06
1.0245482e-05
9.8250858e-06
9.6265546e-06
9.2930978e-06
9.1152103e-06
9.0065131e-06
8.9642636e-06
8.9794971e-06
9.0460764e-06
9.1606835e-06
9.3244844e-06
9.5348339e-06
9.7945886e-06
1.0104043e-05
1.0468325e-05
1.0892546e-05
1.1382299e-05
1.1946473e-05
1.2595007e-05
1.3342394e-05
1.420651e-05
1.520504e-05
1.6362811e-05
1.7707893e-05
1.9277795e-05
2.1117736e-05
2.3284299e-05
2.584727e-05
2.8892457e-05
3.252438e-05
3.6871547e-05
4.2093299e-05
4.8392514e-05
5.6000691e-05
6.5217105e-05
7.6413305e-05
9.0047617e-05
0.0001066588
0.00012809144
0.00015305261
0.00018359723
0.00022103157
0.00026695668
0.00032336115
0.00039271018
0.00047805127
0.00058315903
0.00071272602
0.00087260657
0.001070103
0.0011791527
0.0011790196
0.001178805
0.0011785017
0.0011781025
0.0011775994
0.0011769841
0.001176248
0.0011753781
0.001174351
0.00117317
0.0011719174
0.0011709325
0.0011701246
0.0011694231
0.0011687811
0.0011682264
0.0011679197
0.0011679276
0.001167331
1.8654841e-07
8.7251838e-06
1.1357128e-05
1.0535569e-05
6.9399407e-06
7.9972874e-06
6.5876232e-06
7.6753928e-06
8.3774574e-06
8.745002e-06
9.069372e-06
8.5358431e-06
8.2858118e-06
8.0565237e-06
7.9272619e-06
7.858596e-06
7.8458292e-06
7.8828869e-06
7.9650022e-06
8.0913202e-06
8.2591663e-06
8.4713993e-06
8.729828e-06
9.0352569e-06
9.3929181e-06
9.8084039e-06
1.0287603e-05
1.0839649e-05
1.147445e-05
1.2206133e-05
1.2986013e-05
1.395467e-05
1.5080582e-05
1.6391415e-05
1.7924468e-05
1.9724744e-05
2.1848662e-05
2.436603e-05
2.7363208e-05
3.0945575e-05
3.524298e-05
4.0733614e-05
4.7035491e-05
5.4660623e-05
6.3911272e-05
7.5162994e-05
8.8887175e-05
0.0001056353
0.00012610337
0.00015115985
0.00018353474
0.00022145941
0.00026802292
0.0003252504
0.00039565532
0.00048234585
0.00058916888
0.00072090334
0.00088350326
0.0010843981
0.0011798722
0.0011795968
0.0011792436
0.0011788098
0.0011782876
0.0011776683
0.0011769424
0.0011761006
0.001175133
0.0011740189
0.0011727548
0.0011715856
0.0011706635
0.0011699057
0.0011692477
0.0011686419
0.0011681016
0.0011677426
0.0011676863
0.0011672041
1.7278742e-07
8.6813844e-06
8.9624577e-06
8.9491246e-06
6.0990859e-06
7.0891138e-06
6.0537371e-06
6.9245713e-06
7.7968482e-06
7.7757773e-06
7.7943891e-06
7.3414577e-06
7.1383171e-06
6.971912e-06
6.8840039e-06
6.8486884e-06
6.861176e-06
6.9174337e-06
7.0136687e-06
7.1498724e-06
7.32489e-06
7.5407703e-06
7.8005673e-06
8.1055835e-06
8.4611478e-06
8.8350452e-06
9.3019138e-06
9.8410027e-06
1.0462084e-05
1.1178821e-05
1.2007679e-05
1.2970069e-05
1.4090168e-05
1.5395777e-05
1.692462e-05
1.8722251e-05
2.0845884e-05
2.336636e-05
2.6371897e-05
2.9970244e-05
3.4294477e-05
3.9510948e-05
4.5823574e-05
5.3477047e-05
6.2778875e-05
7.4756048e-05
8.8701633e-05
0.0001057417
0.00012658483
0.00015212639
0.00018346156
0.00022403274
0.00027162884
0.00033015304
0.00040218347
0.00049090996
0.00060027679
0.00073518079
0.00090171237
0.00110746
0.0011806301
0.0011802109
0.0011797195
0.0011791552
0.0011785104
0.0011777759
0.0011769408
0.0011759942
0.0011749282
0.0011737389
0.0011724278
0.0011713502
0.0011704871
0.0011697767
0.0011691634
0.0011685999
0.0011680734
0.0011676663
0.0011675243
0.0011672229
1.6054314e-07
8.6305517e-06
7.1306225e-06
7.8622307e-06
5.4392287e-06
6.2791272e-06
5.5977323e-06
6.261245e-06
7.1058024e-06
6.6746485e-06
6.6450282e-06
6.2979062e-06
6.137997e-06
6.0223844e-06
5.9699197e-06
5.9634261e-06
5.998484e-06
6.0725981e-06
6.1828612e-06
6.3299894e-06
6.5134307e-06
6.7355669e-06
6.9702175e-06
7.2721188e-06
7.6242723e-06
8.0316062e-06
8.5023288e-06
9.0452464e-06
9.6703929e-06
1.0391692e-05
1.1225816e-05
1.2193972e-05
1.3321812e-05
1.4637605e-05
1.6179793e-05
1.7994902e-05
2.0141548e-05
2.2692194e-05
2.5737726e-05
2.9389438e-05
3.3783871e-05
3.9091251e-05
4.5526064e-05
5.333931e-05
6.2848256e-05
7.4447777e-05
8.862875e-05
0.00010598509
0.00012836981
0.00015462156
0.00018684834
0.00022644963
0.00027777855
0.00033808542
0.00041232674
0.00050379728
0.00061656599
0.00075568121
0.00092741445
0.0011395501
0.0011813968
0.001180835
0.0011802082
0.0011795161
0.0011787515
0.0011779047
0.0011769642
0.0011759178
0.0011747554
0.0011734937
0.0011722134
0.0011712113
0.0011704056
0.0011697411
0.0011691726
0.0011686586
0.0011681513
0.0011676936
0.0011674771
0.0011672703
1.4969086e-07
8.5688081e-06
5.7228362e-06
6.8767225e-06
4.8544559e-06
5.5604316e-06
5.2114836e-06
5.5860937e-06
6.2344839e-06
5.7194582e-06
5.6372404e-06
5.3855699e-06
5.2664707e-06
5.1933169e-06
5.1724011e-06
5.1920001e-06
5.2482893e-06
5.3399104e-06
5.4647804e-06
5.6029937e-06
5.79035e-06
6.016377e-06
6.2838214e-06
6.5962197e-06
6.9586008e-06
7.3763276e-06
7.85754e-06
8.4117781e-06
9.0493505e-06
9.7844e-06
1.0633778e-05
1.1619004e-05
1.2708459e-05
1.4035555e-05
1.5592106e-05
1.7425576e-05
1.9596227e-05
2.2178201e-05
2.5265114e-05
2.8972398e-05
3.3441228e-05
3.9142219e-05
4.5760135e-05
5.380696e-05
6.3611024e-05
7.5578699e-05
9.0224508e-05
0.00010816876
0.0001301718
0.00015862113
0.00019201383
0.00023306654
0.0002835662
0.00034904275
0.00042609381
0.00052103416
0.00063808865
0.00078249136
0.00096074679
0.0011808878
0.0011821442
0.0011814437
0.0011806868
0.0011798718
0.0011789921
0.0011780379
0.0011769971
0.0011758586
0.0011746118
0.001173272
0.0011720991
0.0011711678
0.001170418
0.0011697985
0.001169271
0.0011687956
0.0011683054
0.0011678107
0.001167568
0.0011674643
1.4008799e-07
8.451968e-06
4.6498837e-06
6.0013541e-06
4.3331971e-06
4.9219478e-06
4.8760387e-06
4.8507291e-06
5.3548373e-06
4.8677277e-06
4.764052e-06
4.5910938e-06
4.5110231e-06
4.4747224e-06
4.4826815e-06
4.52664e-06
4.6035115e-06
4.6940085e-06
4.8281254e-06
4.9966623e-06
5.2007773e-06
5.4423716e-06
5.7249606e-06
6.0523076e-06
6.4300907e-06
6.8639772e-06
7.3621996e-06
7.9108638e-06
8.5618599e-06
9.3114275e-06
1.0176504e-05
1.1178677e-05
1.234435e-05
1.3706708e-05
1.5305359e-05
1.7189386e-05
1.9421852e-05
2.2079774e-05
2.5260579e-05
2.908565e-05
3.3702758e-05
3.9298175e-05
4.6097303e-05
5.437796e-05
6.4482667e-05
7.7478501e-05
9.2715225e-05
0.00011139668
0.00013432065
0.00016247194
0.00019891672
0.00024175025
0.000294459
0.00035934185
0.0004434505
0.00054259657
0.00066483731
0.00081562752
0.0010017573
0.0011836473
0.0011828469
0.001182015
0.0011811352
0.0011802039
0.0011792154
0.0011781603
0.0011770259
0.0011758017
0.0011744939
0.0011731531
0.0011720762
0.0011712138
0.0011705175
0.0011699415
0.0011694518
0.0011690071
0.0011685307
0.0011680162
0.0011677799
0.0011677548
1.3164753e-07
8.1319446e-06
3.9086064e-06
5.225391e-06
3.8705433e-06
4.3574893e-06
4.3420074e-06
4.1858601e-06
4.5064467e-06
4.1147502e-06
4.0160306e-06
3.9059655e-06
3.8627351e-06
3.8591822e-06
3.8938204e-06
3.9462388e-06
4.0362347e-06
4.1593422e-06
4.3148771e-06
4.5033009e-06
4.7264594e-06
4.9868258e-06
5.2883895e-06
5.6352355e-06
6.0197181e-06
6.4708042e-06
6.9869475e-06
7.5776888e-06
8.2550205e-06
9.0332313e-06
9.9297289e-06
1.0967017e-05
1.217263e-05
1.3581077e-05
1.5234764e-05
1.7184653e-05
1.9497279e-05
2.2253391e-05
2.5554554e-05
2.952952e-05
3.4332134e-05
4.0158244e-05
4.7248129e-05
5.589228e-05
6.6452793e-05
7.9374209e-05
9.604971e-05
0.00011561717
0.00013963752
0.00016915578
0.00020543182
0.00025242394
0.00030773326
0.00037583606
0.000459709
0.00056837915
0.00069670711
0.00085499154
0.0010503498
0.0011844025
0.0011834836
0.0011825306
0.0011815369
0.0011804973
0.0011794072
0.0011782587
0.0011770402
0.0011757403
0.001174374
0.0011731294
0.0011721358
0.0011713378
0.0011706903
0.0011701549
0.0011696998
0.0011692755
0.001168811
0.0011683178
0.001168112
0.0011681607
1.244491e-07
7.7148531e-06
3.445923e-06
4.5381067e-06
3.4602656e-06
3.6960453e-06
3.8712249e-06
3.576756e-06
3.7386275e-06
3.4607269e-06
3.3833827e-06
3.3231864e-06
3.3137099e-06
3.339711e-06
3.3821382e-06
3.4663594e-06
3.5824524e-06
3.7292787e-06
3.9071348e-06
4.1172764e-06
4.3621481e-06
4.6445263e-06
4.9592074e-06
5.3264286e-06
5.7453168e-06
6.222576e-06
6.7662628e-06
7.386267e-06
8.0948407e-06
8.9071996e-06
9.8413312e-06
1.0920737e-05
1.2174248e-05
1.3638162e-05
1.5291516e-05
1.7303704e-05
1.9692312e-05
2.2542432e-05
2.6116695e-05
3.0271181e-05
3.5295987e-05
4.1396498e-05
4.8829229e-05
5.7900524e-05
6.8991228e-05
8.257305e-05
9.9225005e-05
0.00011965808
0.00014603959
0.00017712737
0.00021534684
0.00026235829
0.00032324327
0.00039502598
0.00048344048
0.00059815894
0.00073344915
0.00090031508
0.0011062375
0.0011850694
0.0011840399
0.001182977
0.0011818795
0.0011807411
0.0011795576
0.0011783231
0.001177029
0.0011756763
0.0011743059
0.00117318
0.0011722631
0.001171523
0.001170918
0.0011704188
0.0011699984
0.0011695902
0.001169117
0.0011686819
0.0011685491
0.0011686391
1.1878667e-07
6.7163746e-06
3.0523105e-06
3.9147142e-06
3.1069865e-06
3.0851668e-06
3.4022631e-06
3.0251394e-06
3.0791087e-06
2.9021416e-06
2.8539554e-06
2.8344682e-06
2.8472809e-06
2.8923334e-06
2.9731079e-06
3.085264e-06
3.2268575e-06
3.3978492e-06
3.5993513e-06
3.8330916e-06
4.09591e-06
4.4007405e-06
4.7477536e-06
5.1417351e-06
5.5883982e-06
6.0946723e-06
6.6689864e-06
7.3216234e-06
8.0652353e-06
8.8959918e-06
9.8659611e-06
1.098492e-05
1.2282928e-05
1.3797648e-05
1.5576184e-05
1.7677419e-05
2.0174147e-05
2.3157493e-05
2.6740516e-05
3.1062904e-05
3.6298112e-05
4.2967337e-05
5.0789236e-05
6.0345291e-05
7.2036396e-05
8.6361111e-05
0.0001039329
0.00012550729
0.00015340911
0.00018625065
0.00022663986
0.00027632824
0.00034076098
0.00041664407
0.00051012551
0.00062532951
0.00077462174
0.00095109284
0.0011688477
0.0011856394
0.001184507
0.0011833458
0.0011821551
0.0011809283
0.0011796606
0.0011783487
0.0011769876
0.0011755896
0.0011743219
0.001173287
0.0011724394
0.0011717496
0.001171183
0.0011707141
0.0011703285
0.00116995
0.0011694891
0.0011690954
0.0011690523
0.0011691651
1.1425193e-07
4.7052572e-06
2.697417e-06
3.336659e-06
2.6577517e-06
2.5736035e-06
2.9078834e-06
2.5338812e-06
2.530084e-06
2.4318897e-06
2.4165696e-06
2.4245183e-06
2.468196e-06
2.5473274e-06
2.6575682e-06
2.7964367e-06
2.9632998e-06
3.1588461e-06
3.3815219e-06
3.6384795e-06
3.930937e-06
4.2622585e-06
4.6365305e-06
5.0587214e-06
5.5348233e-06
6.0720602e-06
6.6792049e-06
7.3557899e-06
8.133001e-06
9.0194433e-06
1.0035458e-05
1.1206312e-05
1.2563851e-05
1.4148066e-05
1.6009085e-05
1.820937e-05
2.0826549e-05
2.3957187e-05
2.7721418e-05
3.2268296e-05
3.7782519e-05
4.4491825e-05
5.3070068e-05
6.3158849e-05
7.5509516e-05
9.064956e-05
0.00010922859
0.00013204809
0.00016009662
0.0001963389
0.00023908922
0.00029169327
0.00035645231
0.00044030049
0.00053929373
0.00066130242
0.0008195434
0.0010065175
0.0011873316
0.0011861076
0.0011848819
0.0011836339
0.0011823606
0.0011810562
0.0011797139
0.0011783326
0.0011769256
0.0011755334
0.0011743889
0.0011734357
0.0011726471
0.0011719992
0.001171473
0.001171031
0.0011706742
0.0011703146
0.0011698924
0.0011695475
0.0011695809
0.0011697126
1.094591e-07
3.9086325e-06
2.3255875e-06
2.8041658e-06
2.2920445e-06
2.1465627e-06
2.3958195e-06
2.1025432e-06
2.0837749e-06
2.0459348e-06
2.0593398e-06
2.1016793e-06
2.1812076e-06
2.2909752e-06
2.4284085e-06
2.5925952e-06
2.7838815e-06
3.0012791e-06
3.2504661e-06
3.5327536e-06
3.8511193e-06
4.2091721e-06
4.6112292e-06
5.0624506e-06
5.5690381e-06
6.1384848e-06
6.7722951e-06
7.4935415e-06
8.3108425e-06
9.2412597e-06
1.030626e-05
1.1532641e-05
1.2954105e-05
1.4613018e-05
1.656269e-05
1.8869852e-05
2.1617328e-05
2.4907739e-05
2.8868693e-05
3.3657891e-05
3.9471074e-05
4.6887441e-05
5.5602858e-05
6.6260424e-05
7.9314953e-05
9.5324308e-05
0.00011497594
0.00013911781
0.00017036006
0.00020714868
0.00025239963
0.00030809173
0.00037666343
0.00046546273
0.00057030748
0.00069954921
0.00086724842
0.0010654137
0.0011877686
0.0011864725
0.0011851669
0.0011838435
0.0011824975
0.0011811253
0.001179721
0.001178279
0.0011768256
0.0011755472
0.0011744906
0.0011736119
0.0011728764
0.0011722616
0.0011717776
0.0011713667
0.001171039
0.0011707035
0.0011703135
0.0011700335
0.0011701257
0.001170256
1.0623258e-07
3.1481952e-06
2.0053267e-06
2.2660967e-06
1.9920064e-06
1.7810898e-06
1.919652e-06
1.7366364e-06
1.7333289e-06
1.7439874e-06
1.7872774e-06
1.8673814e-06
1.9776951e-06
2.1142855e-06
2.2761485e-06
2.4635663e-06
2.6764478e-06
2.9185129e-06
3.1915961e-06
3.4984229e-06
3.8422547e-06
4.2269095e-06
4.6568656e-06
5.1374286e-06
5.674968e-06
6.272876e-06
6.9470657e-06
7.7063169e-06
8.5648992e-06
9.5407245e-06
1.0656534e-05
1.1940737e-05
1.3429091e-05
1.5166482e-05
1.7209339e-05
1.9628604e-05
2.2512929e-05
2.5971098e-05
3.0138925e-05
3.5183562e-05
4.1584226e-05
4.9112672e-05
5.8305614e-05
6.9554194e-05
8.3337991e-05
0.00010024781
0.00012101046
0.00014652289
0.00017949433
0.00021836906
0.00026619716
0.00032507059
0.00039757444
0.0004914252
0.00060231227
0.0007390357
0.00091645579
0.0011262202
0.0011881025
0.0011867411
0.0011853678
0.0011839811
0.0011825728
0.0011811392
0.0011796827
0.0011782145
0.0011767732
0.0011756005
0.0011746193
0.0011738035
0.0011731213
0.0011725539
0.0011720773
0.0011717148
0.0011714084
0.0011710926
0.0011707453
0.0011705398
0.001170675
0.0011707736
1.0487788e-07
2.4818877e-06
1.7284537e-06
1.7493966e-06
1.7155174e-06
1.468398e-06
1.5308063e-06
1.4450571e-06
1.4723869e-06
1.5179001e-06
1.5996965e-06
1.7101744e-06
1.845859e-06
2.0051942e-06
2.1884724e-06
2.3968675e-06
2.6313345e-06
2.8954235e-06
3.1912542e-06
3.5218132e-06
3.8905328e-06
4.3013716e-06
4.7589312e-06
5.2686374e-06
5.8369894e-06
6.4719015e-06
7.1831423e-06
7.9828657e-06
8.8759827e-06
9.8977058e-06
1.106499e-05
1.2407959e-05
1.3964568e-05
1.5782447e-05
1.7921197e-05
2.053887e-05
2.3585739e-05
2.7242266e-05
3.1653186e-05
3.6996976e-05
4.349339e-05
5.1412606e-05
6.1088359e-05
7.2931423e-05
8.7447721e-05
0.00010526084
0.00012713812
0.00015537098
0.0001886745
0.00022963136
0.00028002889
0.00034207466
0.0004224596
0.00051732269
0.0006342498
0.00077847198
0.00096555713
0.0011869746
0.0011883481
0.0011869263
0.0011854943
0.0011840542
0.001182597
0.001181114
0.0011796034
0.001178101
0.0011767876
0.0011756886
0.001174771
0.0011740036
0.0011733612
0.0011728467
0.001172397
0.0011720628
0.0011717741
0.0011714751
0.0011711751
0.0011710454
0.0011712062
0.0011712431
1.0644934e-07
1.9113373e-06
1.4976587e-06
1.3534022e-06
1.4337141e-06
1.2061836e-06
1.2461732e-06
1.2314558e-06
1.2913522e-06
1.3711265e-06
1.4813867e-06
1.6152595e-06
1.7714311e-06
1.9500227e-06
2.1522479e-06
2.3798494e-06
2.6345858e-06
2.9195052e-06
3.2371419e-06
3.5906156e-06
3.9834605e-06
4.4197286e-06
4.9041244e-06
5.4421948e-06
6.0405937e-06
6.7074385e-06
7.4527851e-06
8.2892221e-06
9.2326076e-06
1.0303002e-05
1.1525765e-05
1.293301e-05
1.4565189e-05
1.6473151e-05
1.8720515e-05
2.138661e-05
2.4570088e-05
2.839363e-05
3.3008962e-05
3.860381e-05
4.540993e-05
5.3712293e-05
6.3859279e-05
7.6282374e-05
9.1511489e-05
0.00011111233
0.00013423748
0.00016264674
0.00019757098
0.00024053024
0.00029339982
0.00036186225
0.00044264118
0.00054217799
0.00066491398
0.00082429544
0.0010126721
0.001190015
0.001188523
0.0011870472
0.0011855636
0.0011840735
0.0011825738
0.0011810622
0.0011795419
0.0011780531
0.0011768374
0.0011758075
0.001174945
0.0011742206
0.0011736121
0.0011731409
0.0011727121
0.0011723994
0.0011721245
0.0011718415
0.001171585
0.0011715201
0.0011717051
0.0011716958
1.1210098e-07
1.4429464e-06
1.310318e-06
1.0642781e-06
1.2795221e-06
9.8845019e-07
1.0529667e-06
1.0901199e-06
1.1768111e-06
1.2841302e-06
1.4153369e-06
1.5673595e-06
1.740575e-06
1.9361101e-06
2.1556718e-06
2.4012661e-06
2.6751772e-06
2.9797706e-06
3.3181545e-06
3.6934167e-06
4.1091671e-06
4.5695437e-06
5.0793554e-06
5.6442816e-06
6.271147e-06
6.9682921e-06
7.7460724e-06
8.6175381e-06
9.5991804e-06
1.0711953e-05
1.1982369e-05
1.3444087e-05
1.5139542e-05
1.71221e-05
1.9458542e-05
2.2232155e-05
2.5546407e-05
2.9529481e-05
3.4339816e-05
4.0172938e-05
4.7592889e-05
5.6321198e-05
6.6987397e-05
8.0043762e-05
9.6045999e-05
0.00011567842
0.00013978442
0.00016940385
0.00020581566
0.0002529479
0.00030848559
0.00037685093
0.00046106128
0.0005648598
0.00069965537
0.00085887308
0.0010555263
0.0011901656
0.0011886389
0.0011871229
0.0011855995
0.0011840668
0.0011825218
0.0011809683
0.0011794358
0.0011780642
0.0011769151
0.001175946
0.0011751311
0.0011744457
0.0011738741
0.0011733966
0.0011730215
0.0011727178
0.0011724538
0.0011721876
0.0011719663
0.0011719397
0.001172138
0.0011721279
1.2247523e-07
1.1403808e-06
1.1490517e-06
9.2413078e-07
9.3611126e-07
8.6438501e-07
9.2592758e-07
1.0050182e-06
1.1124367e-06
1.2392552e-06
1.3862849e-06
1.5533048e-06
1.7415257e-06
1.9524711e-06
2.1879989e-06
2.4501848e-06
2.7413498e-06
3.0640806e-06
3.421276e-06
3.816201e-06
4.2525654e-06
4.7346308e-06
5.26736e-06
5.8566304e-06
6.5095281e-06
7.2321407e-06
8.0389898e-06
8.9419209e-06
9.9670167e-06
1.1122054e-05
1.2440914e-05
1.3958933e-05
1.5720622e-05
1.7781874e-05
2.0212576e-05
2.3099754e-05
2.6551427e-05
3.07013e-05
3.5714499e-05
4.1794671e-05
4.9192706e-05
5.8217508e-05
6.9249063e-05
8.2752688e-05
9.9303259e-05
0.0001196077
0.00014582393
0.00017668869
0.00021461824
0.00026126094
0.00031865333
0.00038931872
0.00047638402
0.00058928002
0.0007226968
0.00088742134
0.0010910062
0.0011902735
0.0011887149
0.0011871662
0.001185615
0.001184058
0.0011824918
0.0011809218
0.0011793911
0.0011781075
0.0011770155
0.0011760943
0.0011753176
0.0011746631
0.0011741277
0.0011736713
0.0011733094
0.0011730188
0.0011727612
0.0011725148
0.0011723267
0.0011723145
0.001172485
0.0011724793
1.4387023e-07
1.1786528e-06
9.8911533e-07
7.0495893e-07
7.6452103e-07
7.7239509e-07
8.5572643e-07
9.5756158e-07
1.0813715e-06
1.222943e-06
1.3834147e-06
1.5637047e-06
1.7653127e-06
1.9898762e-06
2.2392821e-06
2.5156333e-06
2.8212834e-06
3.1588678e-06
3.5313461e-06
3.9420561e-06
4.3947865e-06
4.8938816e-06
5.4443899e-06
6.0522778e-06
6.7247319e-06
7.4705734e-06
8.3008052e-06
9.2293131e-06
1.0273753e-05
1.1456604e-05
1.280644e-05
1.4359515e-05
1.6161552e-05
1.8269979e-05
2.075657e-05
2.3710657e-05
2.724304e-05
3.1490737e-05
3.6622795e-05
4.2847445e-05
5.0421019e-05
6.0086589e-05
7.146484e-05
8.5387472e-05
0.00010244576
0.00012336634
0.00014904513
0.00018058734
0.00021935751
0.00026703995
0.00032572308
0.00040166751
0.0004913734
0.00060197805
0.00073848121
0.00090712352
0.0011156967
0.001190381
0.0011887893
0.0011872066
0.0011856256
0.0011840435
0.0011824598
0.001180888
0.0011794043
0.0011781787
0.0011771324
0.0011762484
0.0011755004
0.0011748652
0.0011743542
0.0011739244
0.0011735732
0.0011732949
0.0011730465
0.0011728219
0.0011726631
0.0011726551
0.0011727895
0.0011727874
1.3714517e-07
7.8482444e-07
8.1090975e-07
6.0092669e-07
6.5799362e-07
7.1833843e-07
8.20172e-07
9.387337e-07
1.0755825e-06
1.2297229e-06
1.402397e-06
1.5948065e-06
1.808481e-06
2.0451243e-06
2.3066629e-06
2.5952568e-06
2.9133275e-06
3.2635466e-06
3.6490129e-06
4.0731244e-06
4.5397551e-06
5.0533354e-06
5.6190024e-06
6.2428146e-06
6.9320603e-06
7.6956793e-06
8.5448219e-06
9.4935712e-06
1.0568524e-05
1.1779068e-05
1.3160335e-05
1.4749502e-05
1.6593394e-05
1.8750763e-05
2.1294966e-05
2.4317246e-05
2.7930694e-05
3.2275108e-05
3.7522944e-05
4.3886606e-05
5.162739e-05
6.1066377e-05
7.2597836e-05
8.670792e-05
0.00010399409
0.00012519257
0.00015121108
0.00018477747
0.00022434698
0.0002729987
0.00033286313
0.00040657903
0.00049742505
0.00060948256
0.00074784358
0.00091887588
0.0011305413
0.0011905359
0.0011889159
0.0011873023
0.0011856903
0.0011840785
0.0011824706
0.0011808931
0.001179469
0.0011782763
0.0011772604
0.001176401
0.0011756752
0.0011750648
0.0011745841
0.0011741448
0.0011737978
0.0011735376
0.0011732995