/*--------------------------------*- C++ -*----------------------------------*\
  =========                 |
  \\      /  F ield         | OpenFOAM: The Open Source CFD Toolbox
   \\    /   O peration     | Website:  https://openfoam.org
    \\  /    A nd           | Version:  12
     \\/     M anipulation  |
\*---------------------------------------------------------------------------*/
FoamFile
{
    format      ascii;
    class       volScalarField;
    location    "0.117";
    object      nut;
}
// * * * * * * * * * * * * * * * * * * * * * * * * * * * * * * * * * * * * * //

dimensions      [0 2 -1 0 0 0 0];

internalField   nonuniform List<scalar> 
16000
(
4.646743e-07
9.8607655e-06
1.7839757e-05
2.372941e-05
1.8245928e-05
2.4974984e-05
1.7695126e-05
2.4166336e-05
1.8911059e-05
2.5971999e-05
2.1914233e-05
2.5681206e-05
2.3441188e-05
2.4046006e-05
2.3239298e-05
2.3103e-05
2.286147e-05
2.2794665e-05
2.2805438e-05
2.2913395e-05
2.3110999e-05
2.3397639e-05
2.3770828e-05
2.4230565e-05
2.4778965e-05
2.5421859e-05
2.616712e-05
2.7027346e-05
2.8017857e-05
2.9155118e-05
3.0457204e-05
3.1948153e-05
3.365901e-05
3.562803e-05
3.7902268e-05
4.0537841e-05
4.3601578e-05
4.7173167e-05
5.1351267e-05
5.6258097e-05
6.203703e-05
6.8856948e-05
7.6930781e-05
8.6519229e-05
9.7932404e-05
0.00011154221
0.00012780972
0.00014729666
0.00017068684
0.00019881337
0.00023269565
0.00027358369
0.00032300521
0.00038283155
0.0004553557
0.00054339975
0.00065045002
0.00078083212
0.00093993834
0.0010185796
0.0010185449
0.001018466
0.0010183304
0.0010181043
0.0010177851
0.001017368
0.0010168529
0.0010162398
0.0010155239
0.0010146915
0.0010137058
0.0010124773
0.0010109249
0.0010094382
0.0010082359
0.0010073251
0.0010065231
0.0010069196
0.0010042585
0.0010046152
4.1913137e-07
9.3633997e-06
1.9784114e-05
2.1376745e-05
1.6477918e-05
2.2449325e-05
1.5731046e-05
2.1220495e-05
1.6729184e-05
2.2993313e-05
1.9865623e-05
2.3194198e-05
2.1465177e-05
2.1820692e-05
2.1188956e-05
2.1003136e-05
2.0801319e-05
2.0730025e-05
2.0741733e-05
2.0839993e-05
2.1022128e-05
2.1287207e-05
2.1633361e-05
2.2060664e-05
2.2570769e-05
2.316913e-05
2.3862571e-05
2.4662449e-05
2.5583267e-05
2.6641089e-05
2.7852726e-05
2.9240139e-05
3.0832053e-05
3.2663891e-05
3.4779686e-05
3.7232219e-05
4.0084761e-05
4.3412211e-05
4.7306492e-05
5.188337e-05
5.728069e-05
6.3657503e-05
7.1214416e-05
8.0200142e-05
9.0912689e-05
0.00010370574
0.00011901935
0.00013739165
0.00015947926
0.00018608294
0.00021818298
0.0002569849
0.0003039644
0.00036093286
0.00043011213
0.00051423914
0.00061669836
0.00074168477
0.00089441546
0.0010178064
0.0010177811
0.0010176758
0.0010175216
0.0010172817
0.0010169545
0.0010165359
0.0010160248
0.0010154182
0.0010147076
0.0010138772
0.0010128966
0.0010116896
0.0010101735
0.0010087615
0.0010076229
0.0010066992
0.0010060606
0.0010058786
0.0010041386
0.0010044896
3.787504e-07
8.9787493e-06
1.874056e-05
1.9535927e-05
1.4777047e-05
1.9799108e-05
1.4027057e-05
1.8473103e-05
1.5062203e-05
2.0204903e-05
1.8135194e-05
2.0681967e-05
1.9467155e-05
1.9567165e-05
1.9080454e-05
1.887426e-05
1.8704187e-05
1.8638338e-05
1.8653128e-05
1.8746166e-05
1.8916069e-05
1.9162268e-05
1.9483219e-05
1.9879245e-05
2.0351644e-05
2.090567e-05
2.1547418e-05
2.2287175e-05
2.3138466e-05
2.4116954e-05
2.5238606e-05
2.6523741e-05
2.7999168e-05
2.9697874e-05
3.1661214e-05
3.3938906e-05
3.6591086e-05
3.9688913e-05
4.3318662e-05
4.7589656e-05
5.2635239e-05
5.8606928e-05
6.5694799e-05
7.4136407e-05
8.4220219e-05
9.6285268e-05
0.00011075415
0.00012814537
0.00014909323
0.00017437257
0.00020493182
0.0002419405
0.00028683204
0.00034136977
0.00040771886
0.00048854835
0.00058716164
0.0007076568
0.00085512329
0.0010170906
0.0010170757
0.0010169403
0.0010167611
0.0010165006
0.0010161581
0.0010157299
0.0010152135
0.001014604
0.0010138901
0.0010130532
0.0010120668
0.0010108699
0.0010093859
0.0010080587
0.0010069769
0.0010061036
0.001005561
0.0010052826
0.0010040291
0.0010042815
3.3547262e-07
8.6892408e-06
1.7810537e-05
1.815641e-05
1.3302066e-05
1.7505796e-05
1.2516695e-05
1.6166546e-05
1.3573743e-05
1.783426e-05
1.6572843e-05
1.845382e-05
1.7619183e-05
1.7532658e-05
1.71537e-05
1.6946852e-05
1.680447e-05
1.6748806e-05
1.6769218e-05
1.6860405e-05
1.7021525e-05
1.7252418e-05
1.755188e-05
1.79206e-05
1.835964e-05
1.8874191e-05
1.9469866e-05
2.0156104e-05
2.0945502e-05
2.1853399e-05
2.2895211e-05
2.4089862e-05
2.5462611e-05
2.7044348e-05
2.8874163e-05
3.099913e-05
3.3476672e-05
3.6375016e-05
3.977594e-05
4.3782738e-05
4.852529e-05
5.4149396e-05
6.0836643e-05
6.8814623e-05
7.8364907e-05
8.9815221e-05
0.00010357427
0.00012014527
0.00014014522
0.00016432989
0.00019362346
0.00022916905
0.00027236914
0.00032495289
0.00038904603
0.00046727075
0.00056287449
0.00067989101
0.00082333323
0.00099941407
0.0010164248
0.001016258
0.0010160509
0.0010157671
0.0010154056
0.0010149626
0.0010144347
0.0010138153
0.0010130913
0.0010122423
0.0010112435
0.0010100531
0.001008603
0.0010073601
0.0010063373
0.0010055213
0.0010050072
0.0010046651
0.0010039041
0.0010042236
3.0565312e-07
8.4736393e-06
1.6996214e-05
1.8163203e-05
1.3256689e-05
1.5499768e-05
1.1185676e-05
1.4182824e-05
1.2289933e-05
1.5781792e-05
1.5177685e-05
1.6439393e-05
1.5888739e-05
1.5676354e-05
1.5377419e-05
1.5183922e-05
1.5064718e-05
1.5020056e-05
1.5045122e-05
1.5134031e-05
1.5286132e-05
1.5501841e-05
1.5780341e-05
1.6122796e-05
1.6530171e-05
1.7007678e-05
1.7560588e-05
1.8197673e-05
1.8930609e-05
1.977437e-05
2.0744014e-05
2.1857307e-05
2.3138223e-05
2.4615843e-05
2.6327308e-05
2.8317388e-05
3.0641075e-05
3.3364224e-05
3.6565239e-05
4.034167e-05
4.4820477e-05
5.014319e-05
5.6484771e-05
6.4063448e-05
7.31556e-05
8.4080183e-05
9.7234471e-05
0.00011310917
0.00013230702
0.0001555691
0.00018379977
0.00021812133
0.00025991142
0.00031087227
0.00037309905
0.00044917769
0.00054231246
0.00065648738
0.00079665852
0.00096896739
0.0010158285
0.0010156287
0.0010153899
0.0010150785
0.0010146931
0.0010142293
0.0010136828
0.001013046
0.0010123051
0.0010114386
0.0010104208
0.0010092295
0.0010078289
0.0010066706
0.00100571
0.0010049443
0.0010044377
0.0010041025
0.0010036658
0.0010039217
2.8306839e-07
8.3430423e-06
1.6344084e-05
1.7945941e-05
1.3050018e-05
1.3740937e-05
1.0552784e-05
1.2539126e-05
1.1345105e-05
1.404303e-05
1.3951416e-05
1.4665538e-05
1.4304388e-05
1.4018362e-05
1.3770295e-05
1.3592403e-05
1.3488403e-05
1.3450771e-05
1.3477008e-05
1.3561521e-05
1.3703629e-05
1.390424e-05
1.4162764e-05
1.4480762e-05
1.4859186e-05
1.5303244e-05
1.5817928e-05
1.6411491e-05
1.7094711e-05
1.7882162e-05
1.8788716e-05
1.9831202e-05
2.103258e-05
2.2420425e-05
2.4030278e-05
2.5904996e-05
2.8097517e-05
3.0671805e-05
3.3704112e-05
3.7287028e-05
4.1544837e-05
4.66163e-05
5.2672128e-05
5.9922055e-05
6.8639103e-05
7.9136424e-05
9.1802772e-05
0.00010711993
0.00012567996
0.00014821472
0.00017561447
0.0002089878
0.00024969573
0.00029942314
0.00036024677
0.00043473073
0.00052605332
0.00063816891
0.00077600279
0.00094566158
0.0010152815
0.0010150473
0.0010147732
0.0010144305
0.0010140163
0.0010135261
0.0010129547
0.001012294
0.0010115302
0.001010642
0.0010096004
0.0010083977
0.0010070692
0.001005996
0.0010050998
0.0010043754
0.0010038638
0.0010035478
0.0010033914
0.0010035019
2.5247852e-07
8.2708159e-06
1.5834932e-05
1.6998994e-05
1.2949839e-05
1.2149168e-05
1.0619144e-05
1.1545385e-05
1.0987303e-05
1.2545606e-05
1.28481e-05
1.3095704e-05
1.2833307e-05
1.2515369e-05
1.2296142e-05
1.2133829e-05
1.2041031e-05
1.2009167e-05
1.2036176e-05
1.2117036e-05
1.2250759e-05
1.243867e-05
1.2680147e-05
1.290085e-05
1.324518e-05
1.3652478e-05
1.412699e-05
1.4676252e-05
1.5309962e-05
1.6041957e-05
1.6886885e-05
1.7860664e-05
1.8985316e-05
2.028697e-05
2.179968e-05
2.3564546e-05
2.5632562e-05
2.806583e-05
3.0939196e-05
3.4600486e-05
3.8678341e-05
4.3546423e-05
4.937361e-05
5.6362329e-05
6.4783281e-05
7.4946715e-05
8.723572e-05
0.00010212643
0.0001202033
0.00014219412
0.00016898008
0.00020166257
0.00024159338
0.00029044855
0.00035029695
0.00042369368
0.00051380619
0.00062457647
0.00076092023
0.000928939
0.0010147808
0.00101451
0.0010141974
0.0010138194
0.0010133722
0.0010128504
0.0010122485
0.0010115583
0.0010107661
0.001009852
0.0010087861
0.0010075595
0.0010063316
0.0010053428
0.0010045112
0.0010038226
0.0010033058
0.0010030135
0.0010030453
0.0010029432
2.2943551e-07
8.2308241e-06
1.539941e-05
1.5479059e-05
1.1903196e-05
1.0591894e-05
9.2094861e-06
1.0318327e-05
9.6766289e-06
1.1275848e-05
1.1736168e-05
1.1651695e-05
1.1427684e-05
1.1118045e-05
1.0922403e-05
1.0779985e-05
1.0700733e-05
1.0677449e-05
1.0643174e-05
1.0707571e-05
1.0824886e-05
1.0995478e-05
1.1217081e-05
1.1490007e-05
1.1818379e-05
1.2205243e-05
1.2655138e-05
1.3175527e-05
1.3775564e-05
1.4468658e-05
1.526965e-05
1.6193972e-05
1.7263189e-05
1.8502511e-05
1.9945109e-05
2.163096e-05
2.3609875e-05
2.594279e-05
2.8704035e-05
3.1984106e-05
3.5893321e-05
4.0571358e-05
4.6187087e-05
5.3383629e-05
6.1588556e-05
7.1512782e-05
8.3536933e-05
9.8134689e-05
0.00011588613
0.00013752041
0.00016391508
0.00019617118
0.00023563931
0.00028399588
0.00034331316
0.00041615113
0.00050568282
0.00061585685
0.00075160116
0.00091904228
0.001014321
0.0010140115
0.0010136573
0.0010132407
0.0010127566
0.001012199
0.0010115621
0.0010108378
0.0010100127
0.0010090686
0.0010079821
0.0010067349
0.0010056214
0.0010047153
0.0010039485
0.0010032954
0.001002779
0.0010025035
0.0010026133
0.0010023966
2.1184244e-07
8.1898707e-06
1.494762e-05
1.3555718e-05
9.7888714e-06
9.4161511e-06
7.5882763e-06
8.7983776e-06
8.9819824e-06
1.014518e-05
1.0604934e-05
1.030606e-05
1.0099867e-05
9.8220412e-06
9.650499e-06
9.4636775e-06
9.3750853e-06
9.3472772e-06
9.3728534e-06
9.4489003e-06
9.5713649e-06
9.7417952e-06
9.9591854e-06
1.0223521e-05
1.0538972e-05
1.0909477e-05
1.1339619e-05
1.1836895e-05
1.2410083e-05
1.3072144e-05
1.3838205e-05
1.4723435e-05
1.5749228e-05
1.6940149e-05
1.8328817e-05
1.9954521e-05
2.1866351e-05
2.412459e-05
2.6802907e-05
2.9990948e-05
3.3799297e-05
3.8365532e-05
4.386117e-05
5.048516e-05
5.8492607e-05
6.8200895e-05
8.069814e-05
9.5135909e-05
0.00011271927
0.00013418402
0.00016040978
0.00019250421
0.00023182503
0.00028005845
0.00033929173
0.00041210408
0.0005016912
0.00061202817
0.00074807686
0.00091601701
0.0010138963
0.0010135457
0.0010131474
0.0010126893
0.0010121653
0.0010115688
0.0010108936
0.0010101319
0.0010092708
0.0010082924
0.0010071884
0.0010059583
0.0010049447
0.0010041187
0.0010034166
0.0010028033
0.0010022982
0.001002037
0.0010021517
0.0010019003
1.9432279e-07
8.1486898e-06
1.3472695e-05
1.1809838e-05
7.9162346e-06
8.3658771e-06
6.7367154e-06
7.9382975e-06
8.3141125e-06
9.0715577e-06
9.4826963e-06
9.0765703e-06
8.8763917e-06
8.552144e-06
8.3715504e-06
8.2546043e-06
8.1984523e-06
8.1945663e-06
8.2370498e-06
8.3226236e-06
8.4520936e-06
8.6228074e-06
8.8371093e-06
9.0950199e-06
9.4009097e-06
9.759107e-06
1.0174347e-05
1.0654279e-05
1.1207447e-05
1.1846389e-05
1.2586569e-05
1.3443198e-05
1.4437714e-05
1.5594307e-05
1.6945357e-05
1.8529862e-05
2.0396614e-05
2.2605758e-05
2.5231211e-05
2.8362953e-05
3.2111575e-05
3.6614164e-05
4.2045264e-05
4.8603811e-05
5.6547069e-05
6.6194355e-05
7.7939457e-05
9.2244998e-05
0.00011070139
0.00013218566
0.00015846826
0.00019067032
0.00023016564
0.00027866029
0.00033826889
0.00041160509
0.00050190569
0.00061319419
0.00075048982
0.0009200528
0.0010134996
0.0010131057
0.0010126613
0.0010121594
0.0010115934
0.0010109563
0.0010102406
0.0010094393
0.0010085412
0.0010075266
0.0010063989
0.0010052291
0.0010043083
0.0010035588
0.0010029216
0.001002355
0.0010018733
0.0010016202
0.0010017266
0.001001431
1.7930994e-07
8.1026649e-06
1.0701485e-05
9.8178908e-06
6.4970357e-06
7.4468235e-06
6.1377622e-06
7.1295608e-06
7.772394e-06
8.0956631e-06
8.3801706e-06
7.8708498e-06
7.6242338e-06
7.3971492e-06
7.2622345e-06
7.182873e-06
7.1544494e-06
7.1711247e-06
7.228292e-06
7.3249315e-06
7.458387e-06
7.6310191e-06
7.8442273e-06
8.0985082e-06
8.3983254e-06
8.7484382e-06
9.1538444e-06
9.6224011e-06
1.0162608e-05
1.0786657e-05
1.1451283e-05
1.2280182e-05
1.3244954e-05
1.4369386e-05
1.5685609e-05
1.7232357e-05
1.905819e-05
2.1223164e-05
2.3801554e-05
2.6883944e-05
3.0581928e-05
3.5308786e-05
4.0731544e-05
4.7292316e-05
5.5250648e-05
6.4928979e-05
7.6731991e-05
9.1132907e-05
0.00010872896
0.00013026531
0.00015808978
0.00019067343
0.00023067157
0.00027982077
0.00034027612
0.00041470224
0.0005063967
0.00061945566
0.00075898221
0.00093134373
0.0010131233
0.0010126837
0.001012192
0.001011645
0.001011036
0.0010103572
0.0010096006
0.0010087585
0.0010078227
0.0010067761
0.0010056161
0.0010045533
0.0010037184
0.0010030421
0.0010024704
0.0010019571
0.0010015108
0.0010012548
0.001001322
0.0010010422
1.659941e-07
8.0556386e-06
8.4398363e-06
8.3320727e-06
5.7038305e-06
6.5928175e-06
5.6318552e-06
6.4214346e-06
7.219625e-06
7.183056e-06
7.1848417e-06
6.7517515e-06
6.5495155e-06
6.3813813e-06
6.2853295e-06
6.237281e-06
6.2325721e-06
6.2672642e-06
6.337675e-06
6.4435698e-06
6.5836927e-06
6.7596809e-06
6.9740637e-06
7.2277976e-06
7.5254284e-06
7.8381713e-06
8.2321126e-06
8.6885101e-06
9.2157266e-06
9.8255133e-06
1.0532026e-05
1.1353694e-05
1.2311286e-05
1.3428659e-05
1.4738242e-05
1.6279166e-05
1.810058e-05
2.0263321e-05
2.2843135e-05
2.5932507e-05
2.9645641e-05
3.4125288e-05
3.9546403e-05
4.6118864e-05
5.4106441e-05
6.4392352e-05
7.6365577e-05
9.0994122e-05
0.00010888554
0.00013080755
0.00015769907
0.0001925154
0.00023335235
0.00028355981
0.00034534726
0.00042144818
0.00051524228
0.00063092524
0.00077371526
0.0009501139
0.0010127593
0.0010122722
0.0010117326
0.0010111399
0.0010104874
0.0010097672
0.0010089703
0.0010080876
0.0010071132
0.0010060442
0.0010048827
0.0010039335
0.0010031812
0.0010025757
0.0010020692
0.0010016134
0.0010012041
0.0010009489
0.0010009495
0.0010007468
1.5407607e-07
7.9983542e-06
6.7072474e-06
7.3091199e-06
5.0783006e-06
5.8286001e-06
5.1962533e-06
5.7926286e-06
6.5620066e-06
6.1478888e-06
6.1057026e-06
5.7718711e-06
5.6105401e-06
5.4900385e-06
5.4272553e-06
5.406198e-06
5.4225791e-06
5.4738911e-06
5.5572858e-06
5.6732012e-06
5.8209455e-06
6.0024624e-06
6.1943071e-06
6.4450235e-06
6.7392471e-06
7.0811383e-06
7.477733e-06
7.9365608e-06
8.4661996e-06
9.0785991e-06
9.7880621e-06
1.0612792e-05
1.1574794e-05
1.2698284e-05
1.4016233e-05
1.5568531e-05
1.7405438e-05
1.958907e-05
2.2197336e-05
2.5325619e-05
2.9090928e-05
3.3639138e-05
3.915406e-05
4.5850744e-05
5.4001046e-05
6.3943321e-05
7.6098185e-05
9.0974505e-05
0.00011016147
0.00013266094
0.00016028055
0.00019421924
0.00023820851
0.00028988808
0.00035350613
0.00043188477
0.00052850909
0.00064770297
0.00079483778
0.00097658074
0.0010123998
0.0010118636
0.0010112765
0.0010106382
0.0010099425
0.0010091815
0.0010083457
0.0010074253
0.0010064124
0.0010053222
0.0010042244
0.0010033739
0.0010027023
0.0010021652
0.0010017214
0.0010013279
0.001000962
0.0010007017
0.0010006354
0.0010004431
1.4343852e-07
7.9269783e-06
5.3739595e-06
6.3796537e-06
4.5217189e-06
5.1482484e-06
4.8234093e-06
5.1517513e-06
5.7369964e-06
5.2480361e-06
5.1582685e-06
4.9137579e-06
4.790938e-06
4.7101899e-06
4.6769009e-06
4.6801334e-06
4.7161798e-06
4.7835898e-06
4.8802899e-06
4.9883759e-06
5.1396182e-06
5.3244742e-06
5.5452018e-06
5.8047547e-06
6.107394e-06
6.4576627e-06
6.8625215e-06
7.3301285e-06
7.8692856e-06
8.4921028e-06
9.2130047e-06
1.0050419e-05
1.0976833e-05
1.2107309e-05
1.3434413e-05
1.4998759e-05
1.6851922e-05
1.9057349e-05
2.1695155e-05
2.4864123e-05
2.8685068e-05
3.3561219e-05
3.9221852e-05
4.6105639e-05
5.4493623e-05
6.4733672e-05
7.7266262e-05
9.2622447e-05
0.00011145318
0.00013580253
0.00016438375
0.00019952278
0.00024274955
0.00029879824
0.00036475651
0.00044603049
0.00054623726
0.00066985793
0.00082246139
0.0010109252
0.0010120376
0.0010114518
0.0010108179
0.0010101347
0.0010093968
0.0010085961
0.0010077231
0.0010067689
0.0010057254
0.0010046067
0.0010036362
0.0010028785
0.0010022847
0.0010018131
0.0010014255
0.0010010831
0.0010007603
0.0010005025
0.0010003997
0.001000229
1.3394815e-07
7.8005001e-06
4.3561566e-06
5.5521351e-06
4.0236178e-06
4.5418799e-06
4.4956814e-06
4.4554498e-06
4.9053586e-06
4.4449332e-06
4.3365444e-06
4.1655197e-06
4.0793405e-06
4.0329504e-06
4.0264685e-06
4.0521696e-06
4.107052e-06
4.1737577e-06
4.2788448e-06
4.4139176e-06
4.5798314e-06
4.7781086e-06
5.0116952e-06
5.2837517e-06
5.5991069e-06
5.9625694e-06
6.3811675e-06
6.842774e-06
7.3921929e-06
8.0259886e-06
8.7586281e-06
9.6085553e-06
1.0598325e-05
1.1756285e-05
1.3116266e-05
1.4720193e-05
1.6621941e-05
1.8887308e-05
2.159954e-05
2.486236e-05
2.8802057e-05
3.3577847e-05
3.9382423e-05
4.6453319e-05
5.5083435e-05
6.6184728e-05
7.9202334e-05
9.5165386e-05
0.00011475638
0.00013881787
0.00016997122
0.00020659077
0.00025165777
0.00030713938
0.00037906608
0.00046386131
0.00056841638
0.0006973995
0.00085662179
0.0010122689
0.001011666
0.0010110318
0.0010103526
0.0010096257
0.0010088466
0.0010080081
0.0010070999
0.0010061141
0.0010050569
0.0010039728
0.0010031166
0.0010024475
0.001001927
0.0010015164
0.001001179
0.0010008799
0.0010005966
0.0010003476
0.0010002274
0.0010000694
1.2552524e-07
7.4830257e-06
3.6502557e-06
4.8172329e-06
3.5796758e-06
4.0039951e-06
3.9839583e-06
3.8250774e-06
4.1048982e-06
3.7346576e-06
3.6319745e-06
3.5194958e-06
3.4676664e-06
3.4515932e-06
3.4696371e-06
3.5033843e-06
3.5702662e-06
3.666093e-06
3.7900772e-06
3.9424705e-06
4.1247581e-06
4.3389833e-06
4.588514e-06
4.8767996e-06
5.1971646e-06
5.5745685e-06
6.0075658e-06
6.5042878e-06
7.0749602e-06
7.7317651e-06
8.4895437e-06
9.3674844e-06
1.0389063e-05
1.1583701e-05
1.2987554e-05
1.4644079e-05
1.6610021e-05
1.8954259e-05
2.1763444e-05
2.5147443e-05
2.9237572e-05
3.4201028e-05
4.0242993e-05
4.7611592e-05
5.6616166e-05
6.7636567e-05
8.1861458e-05
9.8557908e-05
0.00011905832
0.00014425612
0.00017522862
0.00021535594
0.00026259591
0.0003207722
0.00039243076
0.00048528463
0.00059495394
0.00073024039
0.00089723275
0.0010119224
0.0010112801
0.0010106004
0.0010098779
0.0010091089
0.0010082902
0.0010074156
0.0010064761
0.0010054632
0.0010043908
0.0010034206
0.0010026643
0.0010020767
0.0010016222
0.0010012663
0.0010009732
0.001000708
0.0010004601
0.0010002426
0.0010001189
0.00099999425
1.1824513e-07
7.0740273e-06
3.2052661e-06
4.1652292e-06
3.1840953e-06
3.3780998e-06
3.5304652e-06
3.2474737e-06
3.3816343e-06
3.1175688e-06
3.035498e-06
2.969247e-06
2.9486147e-06
2.9596137e-06
2.9851383e-06
3.0474176e-06
3.1374477e-06
3.2540541e-06
3.3973566e-06
3.5683364e-06
3.7690224e-06
4.0017394e-06
4.2619641e-06
4.5670616e-06
4.9162143e-06
5.3151257e-06
5.7706533e-06
6.2912167e-06
6.8872459e-06
7.5716917e-06
8.3598632e-06
9.2717595e-06
1.0331916e-05
1.157122e-05
1.2972015e-05
1.467817e-05
1.6704817e-05
1.9124432e-05
2.2160228e-05
2.5690619e-05
2.99624e-05
3.5150718e-05
4.1474379e-05
4.9194806e-05
5.8637076e-05
7.0203906e-05
8.4389745e-05
0.00010180186
0.0001242876
0.00015079382
0.00018338908
0.00022349226
0.00027543876
0.00033670052
0.00041217167
0.00051010894
0.00062563605
0.00076814981
0.00094404738
0.0010115604
0.0010108786
0.0010101563
0.0010093931
0.0010085845
0.0010077276
0.0010068183
0.0010058504
0.0010048256
0.0010037801
0.0010029388
0.001002273
0.0010017577
0.0010013599
0.0010010508
0.0010007996
0.0010005647
0.001000331
0.0010001633
0.0010000674
0.00099997664
1.1236974e-07
6.1322871e-06
2.824698e-06
3.5730773e-06
2.8407789e-06
2.800846e-06
3.0793389e-06
2.7246907e-06
2.7610885e-06
2.5904737e-06
2.535812e-06
2.5070081e-06
2.5069946e-06
2.5354318e-06
2.5951018e-06
2.6819675e-06
2.7941654e-06
2.9315389e-06
3.0949583e-06
3.2858454e-06
3.5014608e-06
3.7528486e-06
4.0401202e-06
4.3673426e-06
4.7393751e-06
5.1621118e-06
5.6427213e-06
6.189946e-06
6.8145389e-06
7.5133447e-06
8.3304396e-06
9.2741917e-06
1.0370135e-05
1.1650264e-05
1.3154601e-05
1.4933194e-05
1.7047939e-05
1.9576342e-05
2.2614607e-05
2.6281647e-05
3.072518e-05
3.6387673e-05
4.303245e-05
5.1153719e-05
6.1093397e-05
7.3276797e-05
8.8227397e-05
0.00010659004
0.00013034379
0.00015831501
0.0001927253
0.0002350707
0.00028999215
0.00035469655
0.00043442654
0.00053270649
0.00066008643
0.00081069709
0.0009965773
0.0010111841
0.0010104621
0.0010097004
0.0010088992
0.0010080539
0.0010071613
0.0010062195
0.0010052254
0.0010041907
0.0010032589
0.0010025187
0.001001933
0.0010014798
0.0010011309
0.0010008591
0.0010006474
0.0010004543
0.0010002489
0.0010001069
0.0010000494
0.0009999963
1.0748363e-07
4.2724119e-06
2.4800039e-06
3.024129e-06
2.4106039e-06
2.3169201e-06
2.6073943e-06
2.2597939e-06
2.2449578e-06
2.1467163e-06
2.1223476e-06
2.1187122e-06
2.1464645e-06
2.2050447e-06
2.2904361e-06
2.4003307e-06
2.534078e-06
2.692202e-06
2.8733501e-06
3.0835942e-06
3.3239586e-06
3.5973023e-06
3.9071025e-06
4.2575864e-06
4.65385e-06
5.102033e-06
5.6095867e-06
6.1762172e-06
6.8282263e-06
7.5729751e-06
8.4277109e-06
9.4138571e-06
1.0558418e-05
1.1895308e-05
1.3467056e-05
1.5326676e-05
1.7540083e-05
2.0189316e-05
2.3376484e-05
2.7228337e-05
3.1902009e-05
3.7591344e-05
4.4867756e-05
5.3430722e-05
6.3918179e-05
7.6779802e-05
9.2569531e-05
0.000111971
0.0001358276
0.00016666141
0.0002030494
0.00024783988
0.0003029977
0.00037442971
0.00045879641
0.00056280603
0.00069772665
0.00085719667
0.0010115355
0.0010107946
0.0010100336
0.0010092356
0.0010083993
0.0010075206
0.0010065949
0.0010056223
0.0010046153
0.0010036094
0.0010028045
0.0010021534
0.0010016355
0.0010012335
0.0010009309
0.0010006893
0.0010005094
0.0010003468
0.0010001879
0.0010000718
0.0010000411
0.0010000165
1.0227404e-07
3.5235451e-06
2.1208296e-06
2.5196067e-06
2.0583258e-06
1.91255e-06
2.1237914e-06
1.8525871e-06
1.8254602e-06
1.7820792e-06
1.7838513e-06
1.8109228e-06
1.8701246e-06
1.9552194e-06
2.063854e-06
2.1951662e-06
2.3494087e-06
2.525744e-06
2.7289702e-06
2.9602108e-06
3.2220044e-06
3.5174265e-06
3.8501537e-06
4.2245756e-06
4.6459619e-06
5.1206728e-06
5.6500888e-06
6.2536027e-06
6.9385785e-06
7.7194606e-06
8.614418e-06
9.6461339e-06
1.0843142e-05
1.2241318e-05
1.3885829e-05
1.5833235e-05
1.8153783e-05
2.0934564e-05
2.4283932e-05
2.8335873e-05
3.3256775e-05
3.9536783e-05
4.6921998e-05
5.5957479e-05
6.7030545e-05
8.061646e-05
9.7301077e-05
0.00011780724
0.00014435221
0.00017562726
0.00021411171
0.00026149394
0.00031985492
0.00039544936
0.00048474142
0.00059484457
0.00073773837
0.00090665203
0.0010111596
0.0010103934
0.0010095978
0.001008767
0.0010078979
0.0010069886
0.0010060353
0.0010050343
0.0010040092
0.0010031201
0.0010024076
0.0010018357
0.0010013772
0.0010010153
0.0010007566
0.0010005452
0.0010003954
0.0010002646
0.0010001381
0.0010000546
0.0010000419
0.0010000291
9.8447401e-08
2.8132804e-06
1.8101665e-06
2.0144208e-06
1.7668748e-06
1.5666065e-06
1.6779671e-06
1.5078067e-06
1.495333e-06
1.4953337e-06
1.5236899e-06
1.5836138e-06
1.6692222e-06
1.7770491e-06
1.9061896e-06
2.0568676e-06
2.2290278e-06
2.4258107e-06
2.648793e-06
2.9003037e-06
3.1831264e-06
3.5005153e-06
3.8562825e-06
4.254938e-06
4.7018877e-06
5.2000877e-06
5.7628934e-06
6.3977807e-06
7.1168156e-06
7.9351373e-06
8.8719612e-06
9.9512986e-06
1.1203379e-05
1.2666166e-05
1.438741e-05
1.6427176e-05
1.8860571e-05
2.1779831e-05
2.530018e-05
2.956352e-05
3.4974633e-05
4.1344066e-05
4.9125991e-05
5.8653154e-05
7.033373e-05
8.4670751e-05
0.00010228326
0.00012393547
0.00015192693
0.00018495014
0.00022559652
0.0002756502
0.0003373163
0.00041715894
0.00051153877
0.00062794688
0.000779037
0.00095774058
0.0010107783
0.0010099858
0.0010091599
0.0010083008
0.0010074024
0.0010064628
0.0010054854
0.0010044808
0.0010034833
0.0010026997
0.0010020652
0.0010015593
0.0010011572
0.0010008441
0.0010005958
0.0010004272
0.0010002996
0.0010001929
0.0010000971
0.0010000468
0.0010000508
0.0010000441
9.6201612e-08
2.1934567e-06
1.540006e-06
1.5341774e-06
1.4981644e-06
1.2709718e-06
1.3153683e-06
1.2326857e-06
1.2476039e-06
1.2783102e-06
1.3398636e-06
1.4256143e-06
1.5325457e-06
1.6593315e-06
1.8062298e-06
1.9742532e-06
2.1642515e-06
2.3792206e-06
2.6209884e-06
2.8921056e-06
3.1954993e-06
3.5345415e-06
3.9131461e-06
4.3359208e-06
4.8083767e-06
5.337214e-06
5.9306919e-06
6.5990765e-06
7.3466828e-06
8.2029494e-06
9.1823025e-06
1.0310167e-05
1.161859e-05
1.3147812e-05
1.4948217e-05
1.7152605e-05
1.9720622e-05
2.2804313e-05
2.6526378e-05
3.1038229e-05
3.6526419e-05
4.3220443e-05
5.1403927e-05
6.1426142e-05
7.371745e-05
8.8808514e-05
0.00010735257
0.00013129213
0.00015955033
0.00019431906
0.00023712163
0.00028983996
0.0003581599
0.00043882731
0.0005382937
0.00066102185
0.00082026143
0.0010088008
0.0010104012
0.0010095808
0.0010087268
0.0010078425
0.0010069213
0.0010059572
0.0010049498
0.001003931
0.0010030558
0.0010023467
0.0010017768
0.0010013213
0.001000961
0.0010006984
0.0010004745
0.0010003303
0.0010002211
0.0010001314
0.0010000616
0.0010000433
0.0010000638
0.0010000536
9.6322484e-08
1.6653248e-06
1.3120343e-06
1.1666865e-06
1.2280272e-06
1.0235792e-06
1.0492377e-06
1.029306e-06
1.0725051e-06
1.1325574e-06
1.2181043e-06
1.323375e-06
1.4472901e-06
1.5899898e-06
1.7525291e-06
1.9364073e-06
2.1431467e-06
2.3753284e-06
2.6351263e-06
2.9252019e-06
3.2485676e-06
3.6086729e-06
4.0095163e-06
4.4558052e-06
4.9531768e-06
5.508496e-06
6.1302556e-06
6.8290751e-06
7.6183234e-06
8.5149067e-06
9.5401972e-06
1.0721267e-05
1.2092238e-05
1.3696026e-05
1.5586367e-05
1.7830318e-05
2.0511341e-05
2.3733296e-05
2.7624735e-05
3.2344824e-05
3.8090184e-05
4.5102743e-05
5.3678445e-05
6.418399e-05
7.7069944e-05
9.366111e-05
0.00011325038
0.00013732884
0.00016694455
0.00020339218
0.00024826938
0.00030640035
0.00037502909
0.00045962886
0.0005639867
0.00069953691
0.00085982074
0.0010108725
0.0010100383
0.0010091905
0.0010083098
0.0010073989
0.0010064563
0.0010054815
0.0010044784
0.0010034825
0.0010027005
0.0010020592
0.0010015438
0.0010011315
0.0010008051
0.0010005817
0.0010003757
0.0010002498
0.001000155
0.001000078
0.0010000283
0.0010000368
0.001000079
0.0010000639
9.9610161e-08
1.2343091e-06
1.1232244e-06
8.9795693e-07
1.0706936e-06
8.1957054e-07
8.6651107e-07
8.9134961e-07
9.5726103e-07
1.0403665e-06
1.1432868e-06
1.2635556e-06
1.40154e-06
1.5582284e-06
1.7350882e-06
1.9338373e-06
2.1564279e-06
2.4048892e-06
2.6818618e-06
2.9899843e-06
3.3323325e-06
3.7124277e-06
4.1343555e-06
4.6029323e-06
5.123935e-06
5.7044113e-06
6.3530981e-06
7.0809921e-06
7.9019803e-06
8.8337016e-06
9.8984785e-06
1.1124659e-05
1.2548004e-05
1.4213519e-05
1.6177569e-05
1.8510511e-05
2.1299822e-05
2.4653969e-05
2.8707124e-05
3.3624989e-05
3.9882647e-05
4.7250261e-05
5.625918e-05
6.7293616e-05
8.0825876e-05
9.7437818e-05
0.00011784684
0.00014293777
0.00017379923
0.00021376081
0.00026088071
0.00031891132
0.00039042362
0.00047860769
0.00059315733
0.0007285297
0.00089579033
0.0010105419
0.0010096937
0.0010088261
0.001007925
0.0010069903
0.0010060207
0.0010050207
0.0010040168
0.0010031291
0.0010024113
0.001001828
0.0010013586
0.0010009839
0.0010006915
0.001000463
0.0010003018
0.0010001836
0.0010000994
0.001000032
0.00099999389
0.0010000137
0.0010000699
0.0010000663
1.061709e-07
9.5332965e-07
9.5855318e-07
7.5952659e-07
7.629831e-07
6.9893591e-07
7.4415717e-07
8.0404718e-07
8.8718103e-07
9.8638983e-07
1.102373e-06
1.2350299e-06
1.3854159e-06
1.5548453e-06
1.7449097e-06
1.9573855e-06
2.1942569e-06
2.457734e-06
2.7502909e-06
3.0747117e-06
3.4341554e-06
3.8322458e-06
4.2731954e-06
4.7619837e-06
5.3046024e-06
5.9062613e-06
6.5790945e-06
7.3331186e-06
8.1901e-06
9.1568713e-06
1.0261806e-05
1.1534642e-05
1.3012866e-05
1.4743585e-05
1.6785755e-05
1.9212855e-05
2.2116168e-05
2.5608783e-05
2.9830479e-05
3.4953771e-05
4.1191344e-05
4.8805229e-05
5.8117943e-05
6.952466e-05
8.3513802e-05
0.00010068625
0.00012286697
0.00014900135
0.00018113554
0.00022067257
0.00026934635
0.00032930576
0.00040321436
0.00049907904
0.00061243118
0.00075243673
0.00092553412
0.00101024
0.0010093769
0.0010084928
0.0010075786
0.0010066329
0.0010056541
0.0010046482
0.0010036529
0.0010028466
0.0010021827
0.0010016448
0.0010012117
0.001000866
0.0010006052
0.001000394
0.0010002425
0.0010001358
0.0010000562
0.00099999602
0.00099996562
0.00099998574
0.0010000382
0.0010000452
1.2067444e-07
9.5744293e-07
7.9974978e-07
5.6306166e-07
6.062425e-07
6.0917093e-07
6.7258552e-07
7.5122046e-07
8.478383e-07
9.5919334e-07
1.0862692e-06
1.229887e-06
1.3913361e-06
1.5720251e-06
1.773571e-06
1.9977738e-06
2.2466458e-06
2.5224373e-06
2.8276728e-06
3.165196e-06
3.5382307e-06
3.9504684e-06
4.4061918e-06
4.9104529e-06
5.4693252e-06
6.0902493e-06
6.7824919e-06
7.5577338e-06
8.4308163e-06
9.4206336e-06
1.0551205e-05
1.1853021e-05
1.3364566e-05
1.5134215e-05
1.7222485e-05
1.9704764e-05
2.2674651e-05
2.6247988e-05
3.0567821e-05
3.581049e-05
4.219322e-05
5.0341781e-05
5.9943015e-05
7.1698724e-05
8.6111108e-05
0.00010379762
0.00012551988
0.00015221774
0.00018505198
0.00022545586
0.00027520697
0.00033961394
0.00041573959
0.0005096418
0.00062558008
0.00076887207
0.00094615832
0.0010099929
0.0010091116
0.0010082079
0.0010072769
0.0010063177
0.0010053313
0.0010043303
0.0010033809
0.0010026288
0.0010020081
0.0010015054
0.0010010998
0.0010007724
0.0010005327
0.0010003427
0.0010001994
0.0010001031
0.0010000288
0.00099997602
0.00099995207
0.00099997052
0.0010000158
0.0010000283
1.1064161e-07
6.1704508e-07
6.3400435e-07
4.6627938e-07
5.0863873e-07
5.5429411e-07
6.3279883e-07
7.2503972e-07
8.3231468e-07
9.5395455e-07
1.0910311e-06
1.2445943e-06
1.4159598e-06
1.6065905e-06
1.8181359e-06
2.0524423e-06
2.3115765e-06
2.5978185e-06
2.9138043e-06
3.2624268e-06
3.6469792e-06
4.0712232e-06
4.5395137e-06
5.0569778e-06
5.6297719e-06
6.265433e-06
6.9733468e-06
7.7653538e-06
8.663622e-06
9.6763325e-06
1.0832872e-05
1.2164494e-05
1.3710591e-05
1.5520636e-05
1.7656455e-05
2.0195025e-05
2.3231844e-05
2.6885071e-05
3.1300587e-05
3.6658212e-05
4.3179314e-05
5.1136096e-05
6.086301e-05
7.2772665e-05
8.7372397e-05
0.00010528764
0.00012728983
0.0001556859
0.00018918658
0.00023039924
0.00028113685
0.00034364555
0.00042071677
0.00051582613
0.00063331081
0.0007785956
0.00095846454
0.0010098305
0.0010089343
0.0010080129
0.0010070634
0.0010060863
0.0010050859
0.001004086
0.0010031926
0.001002473
0.0010018822
0.0010014038
0.0010010196
0.0010007148
0.0010005012