/*--------------------------------*- C++ -*----------------------------------*\
  =========                 |
  \\      /  F ield         | OpenFOAM: The Open Source CFD Toolbox
   \\    /   O peration     | Website:  https://openfoam.org
    \\  /    A nd           | Version:  12
     \\/     M anipulation  |
\*---------------------------------------------------------------------------*/
FoamFile
{
    format      ascii;
    class       volVectorField;
    location    "0.117";
    object      U;
}
// * * * * * * * * * * * * * * * * * * * * * * * * * * * * * * * * * * * * * //

dimensions      [0 1 -1 0 0 0 0];

internalField   nonuniform List<vector> 
16000
(
(215.21061 -3.1413271e-17 -8.3596385)
(252.07914 0 5.3711287)
(238.20937 0 -7.5501394)
(245.85574 4.9719196e-17 3.7735545)
(241.18168 -4.9074812e-17 -5.936335)
(243.37981 0 1.7488518)
(241.59232 0 -4.308181)
(242.09489 8.399901e-17 -0.026253407)
(241.25801 -7.980504e-17 -3.1413405)
(241.13584 0 -1.257747)
(240.62355 7.2108728e-17 -2.546865)
(240.27669 -2.0543713e-16 -1.9678056)
(239.83408 1.3002855e-16 -2.4025037)
(239.40625 -1.2368586e-16 -2.338048)
(238.95045 1.1735358e-16 -2.4963791)
(238.48082 -3.4810799e-18 -2.5658012)
(237.99262 -3.3068657e-18 -2.6665112)
(237.48677 -9.758076e-17 -2.7564093)
(236.96271 1.9118114e-16 -2.8479445)
(236.42033 -9.0707908e-17 -2.9371479)
(235.85945 1.7253662e-16 -3.0243999)
(235.28002 -1.6355066e-16 -3.1089988)
(234.68204 0 -3.1904445)
(234.06561 1.5223686e-16 -3.2681533)
(233.43091 -4.1213793e-18 -3.3415343)
(232.77824 -2.6569919e-16 -3.4099649)
(232.10801 1.2593206e-16 -3.4728163)
(231.42076 0 -3.5294469)
(230.71715 0 -3.5792186)
(229.99796 2.1869645e-16 -3.6215022)
(229.26412 -2.0376773e-16 -3.6556901)
(228.5167 0 -3.6812057)
(227.7569 0 -3.6975143)
(226.98604 0 -3.7041371)
(226.20559 5.1405799e-18 -3.7006613)
(225.41712 1.5600685e-16 -3.686752)
(224.62233 -1.4281222e-16 -3.6621637)
(223.82298 -1.3987099e-16 -3.6267482)
(223.02093 1.2384829e-16 -3.5804639)
(222.2181 0 -3.5233832)
(221.41644 -1.1853055e-16 -3.4556933)
(220.61791 1.118805e-16 -3.3777007)
(219.82446 -2.1203033e-16 -3.2898273)
(219.03804 2.0004692e-16 -3.1926079)
(218.2605 -1.9537156e-16 -3.0866827)
(217.49365 3.576953e-16 -2.9727868)
(216.73919 5.6016841e-18 -2.8517401)
(215.99869 2.9517379e-19 -2.7244323)
(215.27362 -1.5055739e-16 -2.5918071)
(214.56527 1.4239146e-16 -2.4548456)
(213.8748 -1.2577698e-16 -2.3145485)
(213.20317 0 -2.1719174)
(212.55119 7.4751495e-18 -2.0279386)
(211.91948 0 -1.8835658)
(211.30848 6.651913e-18 -1.7397051)
(210.71846 2.0713049e-16 -1.5972027)
(210.14948 -3.7858499e-16 -1.4568316)
(209.60147 1.093331e-17 -1.3192806)
(209.07417 1.6823079e-16 -1.1851422)
(208.56709 -1.4890666e-16 -1.0549194)
(208.07953 1.4026209e-16 -0.92900088)
(207.61063 -8.8257288e-18 -0.80770727)
(207.15938 0 -0.69125735)
(206.72455 0 -0.57977692)
(206.30472 -1.1122241e-16 -0.47332779)
(205.89838 1.119022e-16 -0.37191112)
(205.5039 -9.9155707e-17 -0.27548484)
(205.11952 1.9354781e-16 -0.18398115)
(204.74324 -1.8888685e-16 -0.097329817)
(204.37289 8.3737266e-17 -0.015465305)
(204.00624 5.287713e-18 0.061654157)
(203.64132 0 0.13393235)
(203.27646 4.7540455e-18 0.20125746)
(202.91025 -4.5157278e-18 0.26398322)
(202.54097 0 0.32311861)
(202.17627 -3.3770175e-17 0.37504723)
(201.74061 6.2496952e-17 0.40647979)
(201.54185 -3.1760259e-17 0.55059013)
(200.75818 0 0.24740218)
(200.99829 0 1.1282118)
(216.52116 0 -11.175638)
(253.71306 -3.7282699e-18 3.3255725)
(239.15924 -1.1981132e-16 -10.470779)
(247.31721 1.1047217e-16 1.6960125)
(242.28698 0 -8.791785)
(244.71772 1.0163887e-16 -0.40321794)
(242.72477 -1.8768639e-16 -7.04916)
(243.31704 -1.0192409e-19 -2.3015179)
(242.38817 8.4582596e-17 -5.7285405)
(242.26721 0 -3.6516764)
(241.71402 -1.5278403e-16 -5.0196933)
(241.33839 1.4945126e-16 -4.4078014)
(240.86383 1.4214126e-16 -4.8294107)
(240.40175 -2.6166167e-16 -4.7656884)
(239.91157 1.2028709e-16 -4.9041401)
(239.40571 1.1058389e-17 -4.9662927)
(238.88031 1.1563626e-16 -5.0515276)
(238.33598 -1.0298749e-16 -5.1277582)
(237.77231 0 -5.2032975)
(237.1892 0 -5.27545)
(236.58659 5.6827444e-18 -5.344099)
(235.96448 -1.7827442e-16 -5.4085367)
(235.323 3.3804155e-16 -5.4681319)
(234.66237 -3.1587362e-16 -5.5222035)
(233.98293 1.4277232e-16 -5.5700562)
(233.28513 0 -5.6109808)
(232.56957 1.2452073e-16 -5.6442594)
(231.83696 -1.3352398e-16 -5.6691814)
(231.08819 0 -5.6850499)
(230.32426 3.5283575e-18 -5.6911941)
(229.54632 -1.3383637e-17 -5.6869802)
(228.7557 0 -5.6718276)
(227.95382 0 -5.6452159)
(227.14227 -1.7077981e-16 -5.6067056)
(226.32274 3.3911059e-16 -5.5559458)
(225.49706 -1.6283839e-16 -5.4926884)
(224.66713 -1.5923669e-16 -5.4168005)
(223.83493 1.4574395e-16 -5.3282707)
(223.0025 -1.1225366e-16 -5.227219)
(222.17192 -2.8431687e-19 -5.1139005)
(221.34525 -2.6593857e-19 -4.9887073)
(220.52456 2.3299486e-16 -4.8521667)
(219.71184 -1.0993032e-16 -4.7049369)
(218.90906 0 -4.5477981)
(218.11804 2.0255003e-16 -4.3816433)
(217.34053 1.1944635e-17 -4.207463)
(216.57812 -5.1246266e-18 -4.0263297)
(215.83225 -1.6467968e-16 -3.8393795)
(215.10422 0 -3.6477926)
(214.39513 -1.4667962e-16 -3.4527729)
(213.70592 -8.8650192e-18 -3.2555282)
(213.03735 2.6033216e-16 -3.0572487)
(212.38997 -1.3019837e-16 -2.8590891)
(211.76418 0 -2.6621513)
(211.16019 -2.0399502e-17 -2.4674676)
(210.57801 -2.1138111e-16 -2.2759891)
(210.01751 3.6156879e-16 -2.0885724)
(209.4784 -2.1544865e-16 -1.9059691)
(208.96023 0 -1.7288171)
(208.46236 -1.7093173e-16 -1.5576468)
(207.98395 1.7962249e-16 -1.3928567)
(207.52402 2.6706161e-17 -1.2347553)
(207.08146 0 -1.0835514)
(206.65496 -1.4199382e-16 -0.93934127)
(206.24305 7.3266289e-18 -0.80214904)
(205.84417 1.1178832e-16 -0.67192945)
(205.45666 -1.9750361e-17 -0.54858573)
(205.07875 9.3064263e-17 -0.43199172)
(204.70846 -1.0519379e-16 -0.32201391)
(204.34363 5.5122555e-18 -0.21851669)
(203.98199 -5.2010963e-18 -0.12140945)
(203.62141 0 -0.030777762)
(203.26018 -4.6405601e-18 0.053417653)
(202.89735 4.3891904e-18 0.13211095)
(202.53125 8.3124603e-18 0.20489959)
(202.154 9.8493509e-19 0.26430412)
(201.76857 0 0.33080427)
(201.44919 3.0241565e-17 0.43000329)
(200.85591 -5.7581468e-17 0.21425056)
(200.89092 2.586562e-17 1.0059815)
(217.69945 0 -14.065554)
(255.19765 -1.2263336e-16 1.0846734)
(240.10615 2.5006846e-16 -13.478005)
(248.57843 -2.2333486e-16 -0.55525615)
(243.28681 1.102976e-16 -11.726912)
(245.85357 -3.2660751e-18 -2.7496254)
(243.733 9.9407259e-17 -9.8399279)
(244.35077 -9.4147989e-17 -4.7763805)
(243.36505 -5.5887723e-18 -8.3808362)
(243.22062 -5.3064999e-18 -6.2127593)
(242.63211 -1.0080395e-17 -7.5916681)
(242.22047 1.3907694e-16 -6.9851461)
(241.71048 -1.409745e-16 -7.3755528)
(241.20996 1.3835649e-16 -7.3186411)
(240.68076 -1.1885622e-16 -7.4357155)
(240.13424 -1.5577638e-17 -7.4897246)
(239.56694 0 -7.5592985)
(238.97943 -1.2555216e-20 -7.6206225)
(238.37142 -2.2656772e-16 -7.6790342)
(237.7429 -3.6555403e-19 -7.7325058)
(237.0939 1.7365812e-16 -7.7806049)
(236.42458 1.7057736e-17 -7.8225382)
(235.7352 -2.1575748e-17 -7.8575529)
(235.02615 0 -7.8848625)
(234.29796 7.6152954e-21 -7.9036749)
(233.55126 -1.6562292e-16 -7.9131949)
(232.78689 1.479666e-16 -7.9126358)
(232.0058 8.2584312e-18 -7.9012278)
(231.20911 0 -7.8782362)
(230.3981 -7.4088318e-18 -7.8429691)
(229.57421 -7.5405623e-22 -7.7947964)
(228.73903 -1.9942701e-16 -7.7331632)
(227.89429 2.0084898e-16 -7.657604)
(227.04186 1.1900591e-17 -7.5677621)
(226.18371 -1.8016755e-16 -7.4633981)
(225.32194 1.4869444e-16 -7.3444069)
(224.45869 -1.8117893e-16 -7.2108266)
(223.59616 1.5186156e-16 -7.0628471)
(222.73659 -1.4378722e-16 -6.9008131)
(221.88219 1.3551281e-16 -6.7252288)
(221.03514 1.6022373e-17 -6.5367542)
(220.19757 0 -6.3361973)
(219.37149 1.9986743e-16 -6.1245068)
(218.55881 -2.4191896e-16 -5.9027575)
(217.7613 0 -5.6721337)
(216.98055 1.7954607e-16 -5.4339116)
(216.218 -1.5755799e-16 -5.1894358)
(215.47489 1.6999337e-16 -4.9400983)
(214.75226 -1.7980713e-16 -4.6873144)
(214.05097 0 -4.4325)
(213.37167 1.7729906e-16 -4.1770497)
(212.71482 -1.3324747e-16 -3.9223139)
(212.08071 0 -3.6695811)
(211.46941 0 -3.4200609)
(210.88086 1.2484447e-16 -3.1748674)
(210.3148 -2.084958e-16 -2.93501)
(209.77084 1.2239099e-16 -2.7013813)
(209.24845 1.8419133e-16 -2.4747503)
(208.74695 1.9767674e-19 -2.2557546)
(208.26553 1.7589973e-19 -2.0449078)
(207.8032 -3.2419548e-16 -1.8425838)
(207.35883 8.947038e-17 -1.6490436)
(206.93121 0 -1.4644545)
(206.51895 1.4219602e-16 -1.2888602)
(206.12053 -1.6311032e-16 -1.1222258)
(205.73434 1.1148452e-16 -0.96444526)
(205.3587 1.315844e-17 -0.81535719)
(204.99184 -8.602278e-17 -0.67476847)
(204.63183 1.1551906e-17 -0.54247095)
(204.27655 2.1723459e-17 -0.41825564)
(203.92372 -1.0215731e-16 -0.30199428)
(203.57114 9.6076787e-17 -0.19371493)
(203.21721 -7.2388311e-17 -0.093111607)
(202.86101 1.3635265e-16 0.00073112777)
(202.49943 -5.6225092e-17 0.085784876)
(202.12621 -6.0660392e-17 0.15856255)
(201.75954 5.0117039e-17 0.24367322)
(201.39474 0 0.31622847)
(200.89526 3.2069287e-18 0.18177795)
(200.82874 -1.2161799e-17 0.87362683)
(218.71823 0 -17.024374)
(256.53279 0 -1.2916692)
(240.87047 0 -16.619708)
(249.66069 1.0673045e-16 -2.9117826)
(244.10069 -1.239261e-16 -14.790415)
(246.8231 -2.2071602e-16 -5.2127237)
(244.56041 2.0991787e-16 -12.748017)
(245.20686 -1.2432945e-17 -7.3775137)
(244.15695 5.9204216e-18 -11.143047)
(243.98526 -1.7409526e-16 -8.9045969)
(243.35691 1.7043783e-16 -10.274532)
(242.90391 1.0129218e-17 -9.6873455)
(242.35369 -1.5380945e-16 -10.038617)
(241.80948 1.3663259e-16 -9.9901006)
(241.2362 -1.4037001e-20 -10.084531)
(240.64393 -8.1936949e-18 -10.128437)
(240.02975 0 -10.180745)
(239.39422 -7.3971028e-18 -10.224716)
(238.73716 -2.1055683e-16 -10.263353)
(238.05869 2.1260565e-16 -10.295076)
(237.35898 1.2620123e-17 -10.319224)
(236.63834 -1.1964917e-17 -10.334915)
(235.89721 2.1560288e-16 -10.341295)
(235.13616 -1.7173953e-16 -10.337487)
(234.35594 1.0184727e-17 -10.322608)
(233.55746 1.9311284e-16 -10.295792)
(232.74178 -1.2774531e-16 -10.256187)
(231.91016 0 -10.202987)
(231.06403 1.4760438e-16 -10.135431)
(230.20499 -1.2389697e-16 -10.052836)
(229.33481 2.496951e-16 -9.9546032)
(228.45541 -1.3340172e-17 -9.8402455)
(227.56887 -2.0973826e-16 -9.7093977)
(226.67736 1.7395667e-16 -9.5618373)
(225.78319 -1.8739728e-16 -9.3974954)
(224.8887 -2.8818482e-20 -9.2164723)
(223.9963 2.0948889e-16 -9.0190429)
(223.10841 -3.1615253e-16 -8.8056624)
(222.2274 9.3050107e-17 -8.5769672)
(221.3556 3.5227346e-17 -8.3337704)
(220.49525 -4.9813202e-17 -8.0770559)
(219.64845 0 -7.8079624)
(218.81718 -8.8634509e-17 -7.52777)
(218.00322 1.3882076e-16 -7.2378775)
(217.20816 -2.0960258e-16 -6.9397814)
(216.43339 1.9694262e-16 -6.6350518)
(215.68009 -2.0888515e-16 -6.3253035)
(214.94919 3.927701e-16 -6.0121715)
(214.24142 -3.0780187e-16 -5.697285)
(213.55732 3.0865424e-16 -5.3822413)
(212.89718 -1.4487305e-16 -5.0685843)
(212.26111 1.3636758e-16 -4.7577828)
(211.64905 -9.5864501e-17 -4.451212)
(211.06076 3.0059001e-17 -4.1501403)
(210.49584 0 -3.8557141)
(209.95376 0 -3.5689515)
(209.43383 0 -3.2907339)
(208.93528 2.3268184e-17 -3.021802)
(208.45722 0 -2.762752)
(207.99864 -1.6376002e-16 -2.5140435)
(207.55841 1.9170404e-16 -2.2759937)
(207.13528 -1.0790048e-16 -2.0487908)
(206.72794 -1.1680151e-19 -1.8325343)
(206.33493 2.5243779e-16 -1.627199)
(205.95468 2.9648809e-17 -1.4326774)
(205.58557 -1.3845211e-16 -1.2487925)
(205.2259 5.1921795e-17 -1.0753124)
(204.87392 -1.4586036e-16 -0.91197128)
(204.52775 -4.5575743e-17 -0.75848306)
(204.18532 -6.4066302e-17 -0.61457002)
(203.84436 -6.0077623e-17 -0.48005843)
(203.50269 5.6299124e-17 -0.3548625)
(203.15874 0 -0.23846814)
(202.81133 0 -0.130344)
(202.45685 -1.5517331e-17 -0.033009184)
(202.09296 0 0.054318021)
(201.73341 6.854081e-18 0.14971581)
(201.35634 5.1613345e-17 0.21034349)
(200.91968 -7.288673e-17 0.1466304)
(200.76399 -1.4540037e-20 0.7393531)
(219.56057 0 -20.180839)
(257.69627 -8.8233436e-18 -3.7458797)
(241.49544 2.6686259e-16 -19.897159)
(250.52175 -2.4927134e-16 -5.3924689)
(244.68069 2.5435601e-16 -17.968102)
(247.59114 -2.3271419e-16 -7.8283122)
(245.18913 -2.2183418e-16 -15.761259)
(245.85291 2.099952e-16 -10.136368)
(244.74151 0 -14.008034)
(244.53188 0 -11.746099)
(243.86144 1.799662e-16 -13.07148)
(243.36028 -1.7049254e-16 -12.522126)
(242.76508 -1.012858e-17 -12.824538)
(242.17198 2.8808054e-17 -12.783707)
(241.54966 -9.1168254e-18 -12.853447)
(240.90678 3.4577008e-17 -12.88353)
(240.24097 0 -12.915642)
(239.55274 0 -12.938518)
(238.84205 -2.3613397e-16 -12.95356)
(238.10914 2.0941837e-16 -12.959412)
(237.35432 0 -12.955225)
(236.57811 0 -12.940016)
(235.78117 -1.9054051e-16 -12.912802)
(234.96432 3.6059111e-16 -12.872599)
(234.12861 -1.7054737e-16 -12.818426)
(233.27525 -2.0205042e-17 -12.749335)
(232.40566 -3.8267118e-17 -12.664421)
(231.52147 -1.4499836e-16 -12.562849)
(230.6245 1.1971847e-16 -12.443868)
(229.71673 0 -12.306836)
(228.80035 -3.0660978e-17 -12.151241)
(227.87766 0 -11.976721)
(226.95113 0 -11.78308)
(226.02329 2.0698488e-16 -11.570307)
(225.09676 -2.1938803e-16 -11.338586)
(224.17416 2.3014323e-17 -11.088305)
(223.25814 -2.1715234e-17 -10.820061)
(222.35127 -4.1051168e-17 -10.534659)
(221.45603 -8.3374389e-20 -10.233103)
(220.5748 7.9202182e-20 -9.9165858)
(219.70977 -7.4742374e-20 -9.5864769)
(218.86296 0 -9.2442933)
(218.03617 -1.2186166e-16 -8.8916835)
(217.23097 1.1443406e-16 -8.5303936)
(216.44866 0 -8.1622398)
(215.69031 -5.0718034e-17 -7.7890823)
(214.95673 1.9062741e-16 -7.4127878)
(214.24849 -2.2347095e-16 -7.0352059)
(213.56592 -2.1023922e-16 -6.6581399)
(212.90911 1.5762561e-16 -6.283322)
(212.27797 1.1116848e-16 -5.9123916)
(211.67222 -1.3876572e-16 -5.546878)
(211.09139 -3.2534185e-17 -5.1881831)
(210.53489 -2.1372313e-16 -4.8375728)
(210.00199 1.1430712e-16 -4.4961655)
(209.49184 -1.0720768e-16 -4.16493)
(209.00349 1.0027602e-16 -3.8446819)
(208.53592 2.3494669e-16 -3.5360827)
(208.08802 -1.7571982e-16 -3.2396411)
(207.65862 0 -2.9557232)
(207.24644 -3.8453774e-17 -2.6845513)
(206.85013 -7.197981e-17 -2.4262166)
(206.4683 1.344939e-16 -2.1807224)
(206.09944 1.2583204e-16 -1.9479576)
(205.74198 -2.3514848e-16 -1.7277279)
(205.39426 8.2356929e-17 -1.5197764)
(205.05459 5.1338695e-17 -1.3237942)
(204.72127 9.5976604e-17 -1.1394389)
(204.39247 1.3455237e-16 -0.96634648)
(204.0662 2.4485912e-20 -0.80417308)
(203.74024 0 -0.65268047)
(203.41245 0 -0.51164172)
(203.08125 -3.4241117e-17 -0.38045581)
(202.74513 9.6070587e-17 -0.25900724)
(202.40105 -8.985016e-17 -0.1494097)
(202.04918 -8.4105628e-17 -0.048304632)
(201.69602 5.2481779e-17 0.05412282)
(201.31816 0 0.1109186)
(200.92275 4.6081963e-17 0.10813897)
(200.7162 2.6345744e-20 0.60696017)
(220.20593 0 -23.509537)
(258.66218 1.9287694e-20 -6.2768101)
(241.92867 9.0812668e-18 -23.271288)
(251.21664 2.8871069e-16 -8.0120755)
(245.10415 3.3251279e-19 -21.249982)
(248.12905 -5.0639474e-16 -10.594988)
(245.57424 -3.2275239e-19 -18.870066)
(246.25949 4.5672602e-16 -13.057766)
(245.08785 -2.1013744e-16 -16.974041)
(244.83314 -1.2464474e-17 -14.736916)
(244.11909 1.1838712e-17 -15.981644)
(243.56465 -1.7976035e-16 -15.482866)
(242.92071 1.9151261e-16 -15.72846)
(242.27446 -1.8196785e-16 -15.69129)
(241.59874 3.065275e-16 -15.734035)
(240.90067 -3.088361e-16 -15.745802)
(240.17847 1.3764469e-16 -15.754278)
(239.43262 0 -15.752022)
(238.66327 0 -15.739305)
(237.87085 1.4662105e-17 -15.71478)
(237.05595 -2.7799846e-17 -15.677386)
(236.21934 0 -15.625978)
(235.36202 1.9963067e-16 -15.559423)
(234.48518 4.7071995e-19 -15.476611)
(233.59026 -3.5727447e-16 -15.376467)
(232.67891 1.688138e-16 -15.257977)
(231.753 1.9974223e-17 -15.120219)
(230.81463 0 -14.962373)
(229.86608 -1.789249e-16 -14.783759)
(228.90983 1.3492122e-16 -14.583851)
(227.94852 -2.2373266e-16 -14.362305)
(226.9849 2.1059049e-16 -14.11898)
(226.02185 -2.2791186e-16 -13.853947)
(225.06225 2.1452979e-16 -13.567513)
(224.10904 7.6048127e-17 -13.26022)
(223.16508 0 -12.932848)
(222.23317 0 -12.586419)
(221.31599 4.2385936e-17 -12.222174)
(220.41602 3.9921848e-17 -11.841569)
(219.53556 -3.7585454e-17 -11.446245)
(218.67665 3.537094e-17 -11.038007)
(217.84107 6.6728986e-17 -10.618785)
(217.03033 -6.2677048e-17 -10.190615)
(216.24563 3.5337094e-16 -9.7555901)
(215.48789 -2.7641697e-16 -9.3158328)
(214.75772 5.188231e-17 -8.8734608)
(214.05546 -4.88156e-17 -8.4305515)
(213.38121 0 -7.9891147)
(212.73481 2.1456107e-16 -7.551065)
(212.11588 -1.6070879e-16 -7.1182019)
(211.52386 0 -6.6921883)
(210.95805 0 -6.2745405)
(210.41757 1.3223457e-16 -5.8666147)
(209.90146 -6.1804683e-17 -5.4696035)
(209.40866 0 -5.0845315)
(208.93801 -1.6239061e-16 -4.7122559)
(208.48832 1.0108485e-16 -4.35347)
(208.05833 1.4188429e-16 -4.0087058)
(207.64676 -1.7649224e-16 -3.6783399)
(207.25229 1.6496784e-16 -3.3626076)
(206.87353 -1.5387881e-16 -3.061603)
(206.50904 6.3302025e-20 -2.7752956)
(206.15739 0 -2.503572)
(205.81706 6.2547629e-17 -2.246219)
(205.48647 -2.9161353e-16 -2.0029457)
(205.16397 1.6309283e-16 -1.773408)
(204.84792 0 -1.5572175)
(204.53664 -1.4180311e-16 -1.353954)
(204.22838 8.8084587e-17 -1.1631793)
(203.92125 1.2322528e-16 -0.98448314)
(203.61312 3.4641146e-20 -0.81754248)
(203.3019 -7.1319507e-17 -0.66199584)
(202.98595 9.9742996e-17 -0.51725965)
(202.66356 -1.5494292e-16 -0.38349316)
(202.3327 8.6657501e-17 -0.26201824)
(201.99476 2.6920887e-17 -0.14853812)
(201.65032 5.0245258e-17 -0.040447163)
(201.27972 0 0.018324849)
(200.91639 -4.3750113e-17 0.064531407)
(200.66866 2.0386713e-17 0.47813442)
(220.63723 0 -27.007023)
(259.42226 9.8185555e-18 -8.9127781)
(242.16234 -3.0616049e-16 -26.769307)
(251.72702 2.4999314e-16 -10.773743)
(245.33199 2.5678077e-16 -24.630945)
(248.42549 -5.0082738e-16 -13.516311)
(245.75693 2.3036625e-16 -22.061606)
(246.40924 2.3322746e-16 -16.141435)
(245.1942 -2.2103155e-16 -20.026013)
(244.87757 3.9342918e-17 -17.864298)
(244.11909 0 -18.993262)
(243.50594 0 -18.554191)
(242.80835 -2.2376333e-17 -18.739275)
(242.10316 -1.6988033e-16 -18.701518)
(241.36773 1.4058953e-16 -18.716522)
(240.60788 1.9071011e-17 -18.706423)
(239.82244 -3.6150817e-17 -18.688258)
(239.01203 3.0843904e-16 -18.656961)
(238.17714 -2.266616e-16 -18.612003)
(237.31852 2.4601412e-16 -18.551927)
(236.43712 -2.0329785e-16 -18.475464)
(235.53414 2.756296e-17 -18.381314)
(234.61102 1.5659531e-16 -18.268212)
(233.66947 -1.9695796e-16 -18.13496)
(232.71142 0 -17.980434)
(231.73908 0 -17.80362)
(230.75488 0 -17.603647)
(229.76149 -1.9725921e-16 -17.379808)
(228.76174 1.8582142e-16 -17.131588)
(227.75868 -3.5208564e-17 -16.858689)
(226.75542 0 -16.561061)
(225.75521 -2.8224587e-16 -16.238907)
(224.7613 2.3590097e-16 -15.892701)
(223.77692 -5.5794527e-17 -15.523194)
(222.80523 1.5778897e-16 -15.131419)
(221.84926 -4.9033318e-17 -14.718666)
(220.91186 -1.8598887e-16 -14.286484)
(219.99566 2.1940466e-16 -13.836649)
(219.103 -1.6471717e-16 -13.371135)
(218.23594 7.769405e-17 -12.892085)
(217.39621 -7.2906916e-17 -12.401768)
(216.58518 1.3704337e-16 -11.902542)
(215.80391 -6.4218411e-17 -11.396815)
(215.05309 -2.4169039e-16 -10.886997)
(214.33308 5.0963767e-16 -10.37547)
(213.64394 -2.1225689e-16 -9.8645454)
(212.98544 -1.4957352e-16 -9.3564389)
(212.3571 9.2998282e-17 -8.8532374)
(211.75822 8.7475683e-17 -8.3568813)
(211.1879 -1.636472e-16 -7.869146)
(210.64511 1.5289918e-16 -7.3916305)
(210.12868 0 -6.9257513)
(209.63736 1.3382867e-16 -6.4727376)
(209.16981 -1.8744876e-16 -6.0336331)
(208.72466 5.8413863e-17 -5.6092992)
(208.30052 5.4441668e-17 -5.2004205)
(207.89594 0 -4.8075137)
(207.50951 0 -4.4309346)
(207.13978 0 -4.0708882)
(206.78533 0 -3.7274459)
(206.44469 0 -3.4005473)
(206.11641 -7.1525413e-17 -3.0900195)
(205.79902 0 -2.7956175)
(205.49102 -5.1612991e-20 -2.5170139)
(205.19086 2.3095418e-16 -2.2538151)
(204.89695 -2.1484702e-16 -2.0055866)
(204.60766 -1.0001096e-16 -1.7718592)
(204.32141 -1.8595616e-16 -1.552138)
(204.03652 2.5920646e-16 -1.3459156)
(203.75121 3.9537969e-20 -1.1527133)
(203.46346 7.4655935e-17 -0.9721105)
(203.17127 0 -0.80364256)
(202.87286 0 -0.6468063)
(202.56654 0 -0.50184119)
(202.25142 -1.1142295e-16 -0.36923491)
(201.92926 0 -0.24506567)
(201.59647 -9.6260944e-17 -0.13193987)
(201.23797 1.3418806e-16 -0.066632714)
(200.89926 8.3164716e-17 0.01229766)
(200.62359 -1.9292274e-17 0.35452407)
(220.85827 0 -30.681282)
(259.98267 0 -11.657321)
(242.20242 3.2211489e-16 -30.398906)
(252.05643 1.9325307e-17 -13.693355)
(245.3752 -2.6955157e-16 -28.121409)
(248.53894 0 -16.614746)
(245.74174 1.6150739e-17 -25.331831)
(246.43258 -3.0613822e-17 -19.379143)
(245.05509 0 -23.143351)
(244.66754 1.9297704e-16 -21.111253)
(243.85771 -4.1779277e-16 -22.10208)
(243.17545 1.9783137e-16 -21.7304)
(242.41449 2.3480463e-17 -21.856972)
(241.64055 0 -21.8141)
(240.83558 2.1069701e-17 -21.800497)
(240.00429 -3.3986191e-16 -21.764181)
(239.14618 7.4926395e-17 -21.714844)
(238.26214 2.5046291e-16 -21.648825)
(237.35306 2.3785862e-16 -21.565097)
(236.42015 -2.5656397e-16 -21.462088)
(235.46485 0 -21.338362)
(234.4889 -2.8787329e-16 -21.192511)
(233.49435 2.4442381e-16 -21.02319)
(232.4835 -2.060165e-16 -20.829178)
(231.45895 1.9417519e-16 -20.609387)
(230.42357 -1.8401686e-16 -20.362895)
(229.38047 3.4714e-16 -20.089002)
(228.33294 -1.6381348e-16 -19.787231)
(227.28448 1.5492753e-16 -19.457381)
(226.23867 -2.9208453e-16 -19.099538)
(225.19918 1.3747374e-16 -18.714096)
(224.16966 1.2983248e-16 -18.301772)
(223.1537 -2.4495929e-16 -17.863599)
(222.15478 5.6874017e-17 -17.400928)
(221.17615 -5.7228755e-19 -16.915416)
(220.22085 2.5485114e-16 -16.408984)
(219.2916 0 -15.883807)
(218.39078 1.9115315e-19 -15.342269)
(217.5204 0 -14.78691)
(216.68206 -7.9549947e-17 -14.220391)
(215.87697 -1.494994e-16 -13.645446)
(215.10592 7.0188542e-17 -13.064823)
(214.36929 0 -12.481248)
(213.66713 -6.1849849e-17 -11.897378)
(212.9991 2.8949475e-16 -11.315761)
(212.36461 -3.2501007e-16 -10.738805)
(211.76275 -3.0452833e-16 -10.168753)
(211.19242 2.8433867e-16 -9.6076607)
(210.65235 -1.7744345e-16 -9.0573809)
(210.14111 0 -8.5195596)
(209.65718 0 -7.9956304)
(209.19899 7.2418095e-17 -7.4868164)
(208.7649 6.7583019e-17 -6.994136)
(208.35329 1.2595407e-16 -6.5184094)
(207.96252 -5.8732138e-17 -6.0602696)
(207.59097 -1.0940673e-16 -5.6201734)
(207.23707 -2.0402205e-16 -5.1984144)
(206.89924 -9.5178782e-17 -4.7951341)
(206.57596 1.7670917e-16 -4.4103352)
(206.26575 0 -4.0439013)
(205.96713 -7.6537445e-17 -3.6955987)
(205.67863 -1.4227066e-16 -3.3650998)
(205.39882 1.3217962e-16 -3.0520199)
(205.12625 6.1310941e-17 -2.7559114)
(204.85944 5.702163e-17 -2.4762762)
(204.59684 0 -2.2125897)
(204.33694 1.9658759e-16 -1.9643043)
(204.0782 1.8241675e-16 -1.7308564)
(203.81905 -2.5384064e-16 -1.511676)
(203.55782 7.8499714e-17 -1.3062134)
(203.29265 -7.2770619e-17 -1.1139501)
(203.0216 -4.5854065e-20 -0.9343646)
(202.74279 2.5010385e-16 -0.76705152)
(202.45471 -2.3179105e-16 -0.61215425)
(202.15745 5.3661551e-17 -0.46951724)
(201.85259 1.4926067e-16 -0.33647464)
(201.53416 -4.6104969e-17 -0.21833214)
(201.19282 -4.2706782e-17 -0.14097791)
(200.87439 0 -0.042643533)
(200.57563 3.6595428e-17 0.23712192)
(220.8794 3.9174278e-16 -34.542311)
(260.34842 5.4123337e-19 -14.517676)
(242.02759 -3.5903607e-16 -34.175797)
(252.19888 0 -16.776668)
(245.15779 0 -31.688503)
(248.31719 -2.6787218e-16 -19.886474)
(245.42141 2.7098587e-16 -28.657075)
(245.94444 6.427088e-17 -22.777383)
(244.64457 -2.439429e-16 -26.360417)
(244.17896 2.3073747e-16 -24.503403)
(243.3073 -2.4660397e-16 -25.334948)
(242.54313 2.0727273e-16 -25.026363)
(241.70673 -4.9172127e-17 -25.093983)
(240.85237 -4.6628114e-17 -25.036478)
(239.96639 -1.7669372e-16 -24.989275)
(239.05261 1.6689143e-16 -24.919027)
(238.11123 -3.5640182e-16 -24.830588)
(237.14354 5.9908859e-16 -24.720994)
(236.15099 -2.830618e-16 -24.588827)
(235.13537 -2.6857703e-16 -24.432379)
(234.09877 2.5327232e-16 -24.250081)
(233.04364 -3.0159352e-17 -24.040455)
(231.97277 -2.2703858e-16 -23.802156)
(230.88925 2.1387327e-16 -23.534034)
(229.79646 2.5335339e-16 -23.235152)
(228.69806 -1.4286083e-16 -22.904829)
(227.59792 0 -22.542689)
(226.50007 2.5548438e-16 -22.148674)
(225.40863 -3.2089648e-16 -21.723085)
(224.32777 1.129135e-16 -21.266588)
(223.26159 -2.8546642e-16 -20.780226)
(222.21409 2.0112358e-16 -20.265417)
(221.18903 -6.3371694e-17 -19.723935)
(220.18994 2.3815275e-16 -19.157884)
(219.22 -2.2339285e-16 -18.569676)
(218.28197 -2.1054199e-16 -17.961969)
(217.37821 1.9733642e-16 -17.337632)
(216.51059 -4.6284557e-17 -16.699685)
(215.68051 0 -16.051242)
(214.88887 8.1900434e-17 -15.395449)
(214.13611 -7.6445507e-17 -14.735435)
(213.42221 0 -14.074256)
(212.74676 1.3460501e-16 -13.414845)
(212.10897 -6.2964902e-17 -12.759976)
(211.50773 -1.7655656e-16 -12.11223)
(210.94166 5.5071236e-16 -11.473972)
(210.4092 -2.0618734e-16 -10.847331)
(209.90859 9.6171627e-17 -10.234195)
(209.43798 -2.6965552e-16 -9.6362046)
(208.99547 -1.8356232e-19 -9.0547594)
(208.57911 1.563499e-16 -8.4910232)
(208.18695 -1.4585617e-16 -7.9459351)
(207.81708 -6.7879755e-17 -7.4202235)
(207.46762 -6.3229071e-17 -6.9144203)
(207.13677 -1.1805659e-16 -6.4288761)
(206.82278 2.1924495e-16 -5.9637771)
(206.52395 0 -5.5191599)
(206.23868 9.4747355e-17 -5.0949261)
(205.96541 -3.525505e-16 -4.6908578)
(205.70265 2.4536548e-16 -4.3066385)
(205.44896 7.593612e-17 -3.9418528)
(205.20291 1.4106601e-16 -3.5960145)
(204.96316 1.3106499e-16 -3.2686)
(204.72833 -1.2127016e-16 -2.959041)
(204.49703 -1.1238223e-16 -2.6667391)
(204.26784 -3.1262671e-16 -2.3910831)
(204.03931 -4.1577836e-20 -2.1314538)
(203.81001 -8.9345857e-17 -1.8872268)
(203.57847 0 -1.6577766)
(203.34315 -2.2968231e-16 -1.442483)
(203.10235 7.0821474e-17 -1.2407452)
(202.85418 0 -1.0520319)
(202.59675 1.2116622e-16 -0.87600782)
(202.32884 0 -0.7126059)
(202.05125 1.035119e-16 -0.56140326)
(201.76482 -1.4344126e-16 -0.42143221)
(201.46305 1.3254636e-16 -0.29817579)
(201.14292 -8.1627404e-17 -0.20505321)
(200.84242 7.5382131e-17 -0.094180232)
(200.52453 0 0.12689857)
(220.68874 -4.1154378e-16 -38.597015)
(260.50732 3.6358172e-16 -17.511483)
(241.6025 -3.3308888e-16 -38.129597)
(252.08943 3.3122739e-16 -20.035979)
(244.65642 3.1718259e-16 -35.314708)
(247.86553 -1.8031783e-17 -23.343342)
(244.85759 -2.8400216e-16 -32.064555)
(245.32601 -2.6959901e-16 -26.367409)
(243.94052 2.8695181e-16 -29.696955)
(243.36734 0 -28.042477)
(242.42339 2.8632605e-17 -28.699317)
(241.56472 0 -28.441704)
(240.64023 -1.2877915e-16 -28.449859)
(239.69318 2.431534e-16 -28.366117)
(238.714 0 -28.277523)
(237.70606 0 -28.163077)
(236.67036 0 -28.024598)
(235.60881 3.9158861e-17 -27.859401)
(234.5236 0 -27.665776)
(233.4173 -2.4491704e-16 -27.44192)
(232.2929 3.2998553e-16 -27.186199)
(231.15374 1.2486136e-16 -26.89718)
(230.00356 1.7704841e-16 -26.573642)
(228.84639 -2.7809321e-16 -26.214666)
(227.68656 -5.2406416e-17 -25.819655)
(226.52863 -2.4800714e-16 -25.388384)
(225.37728 1.8665747e-16 -24.921032)
(224.23726 -2.2046225e-16 -24.41821)
(223.11332 8.2487208e-17 -23.880968)
(222.01006 7.7986574e-17 -23.310799)
(220.93189 0 -22.709626)
(219.88292 2.774337e-16 -22.07977)
(218.86686 -2.6056634e-16 -21.423922)
(217.88698 0 -20.745081)
(216.94604 -2.3035559e-16 -20.046512)
(216.04625 2.1576345e-16 -19.331663)
(215.18922 -1.0167795e-16 -18.604108)
(214.37601 1.9036766e-16 -17.867473)
(213.60708 -2.674821e-16 -17.125367)
(212.88237 1.2736612e-19 -16.381314)
(212.20131 -1.5628467e-16 -15.638703)
(211.56291 -7.3142322e-17 -14.900731)
(210.96578 -1.3727477e-16 -14.170368)
(210.40822 2.5590749e-16 -13.450324)
(209.88828 -1.1942281e-16 -12.743035)
(209.40383 0 -12.050647)
(208.95261 -3.7636197e-19 -11.375016)
(208.5323 9.7152094e-17 -10.717716)
(208.14055 0 -10.080046)
(207.77502 8.4502697e-17 -9.4630454)
(207.43344 7.9008854e-17 -8.8675143)
(207.11362 -7.3358612e-17 -8.2940306)
(206.81343 2.7312479e-16 -7.7429706)
(206.53087 -2.5390594e-16 -7.2145295)
(206.26403 -1.1808642e-16 -6.7087401)
(206.01113 -1.0970131e-16 -6.2254922)
(205.77046 1.018618e-16 -5.7645486)
(205.54041 1.8895686e-16 -5.3255619)
(205.3195 -3.5050514e-16 -4.9080894)
(205.10627 4.0621258e-16 -4.5116149)
(204.89936 -1.5051712e-16 -4.1355442)
(204.69746 1.3951396e-16 -3.779239)
(204.49931 -1.2915035e-16 -3.4420445)
(204.30368 2.3918648e-16 -3.1232792)
(204.10929 -3.3203435e-16 -2.8222523)
(203.91484 2.0468115e-16 -2.5382747)
(203.71902 -7.6052563e-20 -2.2706649)
(203.52048 8.7487135e-17 -2.0187486)
(203.31788 0 -1.7818512)
(203.10979 0 -1.5592896)
(202.89468 0 -1.3504124)
(202.67075 -1.271448e-16 -1.1547106)
(202.43617 1.1528685e-20 -0.97185112)
(202.19011 0 -0.80152803)
(201.93355 0 -0.64352377)
(201.66643 9.1946027e-17 -0.49855906)
(201.38355 -1.6942815e-16 -0.37005022)
(201.08784 0 -0.26113292)
(200.80342 0 -0.14500512)
(200.47015 -1.3197895e-16 0.024596981)
(220.25327 2.7776361e-17 -42.85477)
(260.42313 -7.8719629e-16 -20.660929)
(240.8995 3.4848229e-16 -42.22574)
(251.45819 -2.1771717e-17 -23.477499)
(243.84087 3.7385467e-16 -39.06069)
(247.08089 -3.5256036e-16 -27.023685)
(243.98595 0 -35.5884)
(244.32264 -3.1757575e-16 -30.149568)
(242.88554 2.3346176e-16 -33.148596)
(242.18847 2.2174128e-16 -31.720816)
(241.15872 -2.3935221e-16 -32.197725)
(240.19146 0 -31.972244)
(239.16444 1.885689e-19 -31.918758)
(238.11112 0 -31.79493)
(237.02554 3.8553612e-16 -31.653533)
(235.91109 -7.2831207e-16 -31.481208)
(234.76974 3.4384034e-16 -31.277947)
(233.60428 -4.0617674e-17 -31.04117)
(232.41791 -3.8594451e-17 -30.768991)
(231.21427 3.6679545e-17 -30.4596)
(229.99748 -6.850118e-17 -30.111458)
(228.77205 -3.2449832e-16 -29.723332)
(227.54285 3.0541076e-16 -29.294359)
(226.31505 5.7574681e-17 -28.824109)
(225.09403 -2.7284202e-16 -28.312605)
(223.88526 -6.9603045e-19 -27.760393)
(222.69423 2.8978792e-16 -27.168528)
(221.52633 -1.8188217e-16 -26.538597)
(220.38672 -6.088934e-19 -25.872704)
(219.28023 0 -25.173439)
(218.21124 0 -24.443837)
(217.18364 -7.156779e-17 -23.687319)
(216.20066 1.3398759e-16 -22.907629)
(215.26492 0 -22.108749)
(214.3783 -1.1842321e-16 -21.294815)
(213.54201 2.2159079e-16 -20.470038)
(212.75654 -1.0381236e-16 -19.638604)