/*--------------------------------*- C++ -*----------------------------------*\
  =========                 |
  \\      /  F ield         | OpenFOAM: The Open Source CFD Toolbox
   \\    /   O peration     | Website:  https://openfoam.org
    \\  /    A nd           | Version:  12
     \\/     M anipulation  |
\*---------------------------------------------------------------------------*/
FoamFile
{
    format      ascii;
    class       volScalarField;
    location    "0.122";
    object      alphat;
}
// * * * * * * * * * * * * * * * * * * * * * * * * * * * * * * * * * * * * * //

dimensions      [1 -1 -1 0 0 0 0];

internalField   nonuniform List<scalar> 
16000
(
4.9410267e-07
1.078574e-05
2.0252019e-05
2.570141e-05
1.9832018e-05
2.7282545e-05
1.9270488e-05
2.6396367e-05
2.0609096e-05
2.8378674e-05
2.3918467e-05
2.8099595e-05
2.564851e-05
2.6349905e-05
2.5483961e-05
2.5361956e-05
2.5121246e-05
2.5074309e-05
2.5113037e-05
2.5259674e-05
2.5506646e-05
2.5853397e-05
2.6297598e-05
2.6839659e-05
2.7482352e-05
2.8232561e-05
2.9099498e-05
3.0097686e-05
3.1244781e-05
3.2559843e-05
3.4063842e-05
3.5784554e-05
3.7757778e-05
4.0027638e-05
4.2648435e-05
4.5685025e-05
4.9214761e-05
5.3330008e-05
5.8145157e-05
6.3802017e-05
7.0467295e-05
7.8337675e-05
8.7661153e-05
9.8741704e-05
0.00011194154
0.00012769563
0.00014654355
0.00016914341
0.00019629718
0.00022898299
0.00026839885
0.00031601553
0.00037363303
0.00044345991
0.00052820832
0.00063122586
0.00075666436
0.00090970325
0.0010968429
0.0011793748
0.0011801181
0.0011807801
0.0011813339
0.0011817531
0.0011820378
0.0011821799
0.0011821681
0.0011819835
0.001181595
0.0011809587
0.0011800029
0.0011785452
0.001176471
0.0011748252
0.0011734642
0.0011724551
0.00117182
0.0011719307
0.0011704526
0.0011698863
4.4410384e-07
1.0216224e-05
2.1314055e-05
2.3321526e-05
1.7872184e-05
2.4449411e-05
1.709148e-05
2.3113742e-05
1.8197249e-05
2.5066478e-05
2.1644611e-05
2.5326656e-05
2.3443532e-05
2.3864864e-05
2.3192614e-05
2.3014136e-05
2.2816642e-05
2.2763721e-05
2.2802673e-05
2.2937641e-05
2.316651e-05
2.3488347e-05
2.3901469e-05
2.4406341e-05
2.5005199e-05
2.5704492e-05
2.6512241e-05
2.7441557e-05
2.850915e-05
2.9733587e-05
3.1134395e-05
3.2736979e-05
3.457449e-05
3.6687805e-05
3.912775e-05
4.195533e-05
4.5243778e-05
4.9079927e-05
5.35704e-05
5.8849497e-05
6.5077414e-05
7.2439396e-05
8.116908e-05
9.1556341e-05
0.00010394908
0.00011876082
0.00013650638
0.00015781583
0.0001834588
0.00021437469
0.00025171462
0.00029689573
0.00035165501
0.00041812792
0.00049893916
0.0005973308
0.00071732684
0.00086394073
0.0010434508
0.0011788393
0.0011795793
0.0011802018
0.0011807239
0.0011811128
0.001181368
0.0011814821
0.0011814441
0.0011812349
0.0011808225
0.0011801556
0.001179163
0.0011777172
0.0011757345
0.0011741584
0.0011728648
0.0011718767
0.0011712982
0.0011712489
0.0011702838
0.0011699798
3.9741079e-07
9.7743451e-06
2.0142466e-05
2.1236905e-05
1.5984072e-05
2.1516779e-05
1.5203551e-05
2.0079824e-05
1.634673e-05
2.198053e-05
1.9718329e-05
2.2538019e-05
2.1222088e-05
2.1360769e-05
2.0848855e-05
2.0647264e-05
2.0484437e-05
2.0436869e-05
2.0478558e-05
2.0606919e-05
2.0821288e-05
2.1121147e-05
2.1505153e-05
2.1974032e-05
2.2529608e-05
2.31781e-05
2.3926698e-05
2.4787301e-05
2.5775492e-05
2.6909353e-05
2.8207433e-05
2.9693256e-05
3.1397779e-05
3.3359083e-05
3.5624913e-05
3.8252739e-05
4.1312153e-05
4.4885646e-05
4.9073314e-05
5.4001975e-05
5.9826497e-05
6.6723316e-05
7.4913773e-05
8.4674634e-05
9.6342419e-05
0.00011031333
0.00012708141
0.00014725331
0.00017157181
0.00020094497
0.00023648531
0.00027956599
0.00033187221
0.00039547992
0.00047294313
0.00056741848
0.00068282708
0.00082405739
0.00099722082
0.0011784772
0.0011792025
0.0011797681
0.0011802391
0.0011805794
0.0011807878
0.0011808569
0.001180776
0.0011805263
0.0011800758
0.0011793685
0.0011783207
0.0011768425
0.0011749737
0.0011734806
0.0011722605
0.0011713322
0.0011708052
0.0011706944
0.0011701465
0.0011700092
3.5405097e-07
9.4406553e-06
1.9091427e-05
1.9713511e-05
1.4356357e-05
1.8983162e-05
1.3537714e-05
1.7535125e-05
1.470318e-05
1.9361966e-05
1.7988699e-05
2.0073508e-05
1.9177878e-05
1.9110335e-05
1.8717611e-05
1.8514876e-05
1.8382296e-05
1.8345427e-05
1.8392768e-05
1.8518407e-05
1.8722272e-05
1.9004326e-05
1.9363586e-05
1.9801175e-05
2.0318637e-05
2.0922116e-05
2.161825e-05
2.2417981e-05
2.3335833e-05
2.4389495e-05
2.5596873e-05
2.6979902e-05
2.8567765e-05
3.0396152e-05
3.2510212e-05
3.496438e-05
3.7825119e-05
4.1171527e-05
4.509852e-05
4.9725979e-05
5.5204696e-05
6.1704447e-05
6.9436719e-05
7.8666666e-05
8.9722613e-05
0.00010298744
0.00011893878
0.0001381651
0.0001613885
0.00018949411
0.0002235652
0.00026494288
0.00031527454
0.00037659403
0.00045140627
0.00054280891
0.00065465164
0.00079173909
0.00096007997
0.0011671795
0.0011790178
0.0011795101
0.0011799127
0.0011801882
0.0011803343
0.0011803437
0.001180206
0.0011799021
0.0011794011
0.0011786465
0.0011775431
0.001176016
0.0011742609
0.001172849
0.0011717008
0.0011708302
0.0011703202
0.001170172
0.0011699749
0.0011699472
3.2515905e-07
9.1915755e-06
1.8183246e-05
1.9685571e-05
1.4303092e-05
1.6776985e-05
1.2077521e-05
1.5356341e-05
1.3292734e-05
1.7107422e-05
1.6453928e-05
1.7858674e-05
1.7275653e-05
1.7068843e-05
1.6763937e-05
1.6575196e-05
1.6467552e-05
1.6442081e-05
1.6493866e-05
1.6616274e-05
1.6809389e-05
1.7073839e-05
1.7409051e-05
1.7816664e-05
1.8298091e-05
1.8859491e-05
1.9507111e-05
2.0251133e-05
2.1105042e-05
2.2086096e-05
2.3211775e-05
2.4502703e-05
2.5986598e-05
2.7697093e-05
2.9677113e-05
3.1978464e-05
3.4664824e-05
3.781256e-05
4.1512718e-05
4.58786e-05
5.1057603e-05
5.7214543e-05
6.4553245e-05
7.3328016e-05
8.3861035e-05
9.6524867e-05
0.00011178369
0.00013021118
0.0001525124
0.00017955485
0.00021239801
0.00025235769
0.000301051
0.00036047865
0.00043310754
0.00052198969
0.00063091954
0.00076463644
0.00092907209
0.0011316321
0.0011790067
0.0011794108
0.0011797285
0.0011799237
0.0011799928
0.0011799284
0.0011797202
0.0011793493
0.0011787849
0.0011779744
0.0011768177
0.0011752394
0.0011735945
0.001172264
0.0011711883
0.0011703726
0.0011698702
0.0011697095
0.001169707
0.0011695834
2.957873e-07
9.0379608e-06
1.7459289e-05
1.9416965e-05
1.4046198e-05
1.4852174e-05
1.1395872e-05
1.3559396e-05
1.2288827e-05
1.5209017e-05
1.5112947e-05
1.5918221e-05
1.5543236e-05
1.5254609e-05
1.5005128e-05
1.4832786e-05
1.4741221e-05
1.4722758e-05
1.4775151e-05
1.4892064e-05
1.5073453e-05
1.5320527e-05
1.5632939e-05
1.6012764e-05
1.646138e-05
1.6984932e-05
1.7589349e-05
1.8284224e-05
1.9082035e-05
1.999958e-05
2.1054116e-05
2.2265206e-05
2.3659422e-05
2.5268693e-05
2.7134138e-05
2.9305392e-05
3.18438e-05
3.4823577e-05
3.8333314e-05
4.2480669e-05
4.7409983e-05
5.3282877e-05
6.0298288e-05
6.8700755e-05
7.8808527e-05
9.098737e-05
0.00010569151
0.00012348409
0.00014505757
0.00017126837
0.0002031591
0.00024202895
0.0002894748
0.00034747602
0.00041847649
0.00050550058
0.0006123091
0.00074360137
0.00090526408
0.0011046477
0.0011791579
0.0011794601
0.0011796779
0.0011797791
0.0011797581
0.0011796072
0.0011793165
0.0011788674
0.0011782283
0.0011773518
0.0011761449
0.0011745235
0.0011729852
0.0011717359
0.0011707319
0.0011699661
0.001169467
0.0011693094
0.00116946
0.0011690348
2.6212417e-07
8.9518402e-06
1.6894278e-05
1.8367909e-05
1.3922687e-05
1.3118078e-05
1.1445755e-05
1.2478532e-05
1.1864668e-05
1.3575804e-05
1.3913334e-05
1.4208835e-05
1.3942093e-05
1.361748e-05
1.339912e-05
1.324316e-05
1.3163278e-05
1.3150479e-05
1.3203065e-05
1.3315379e-05
1.348691e-05
1.3719371e-05
1.401235e-05
1.4284069e-05
1.4694196e-05
1.5176235e-05
1.5735289e-05
1.6380155e-05
1.7122102e-05
1.7977106e-05
1.8962164e-05
2.0095813e-05
2.1403569e-05
2.2915739e-05
2.4671763e-05
2.6719299e-05
2.9117502e-05
3.1938481e-05
3.5269246e-05
3.950868e-05
4.4236236e-05
4.9881076e-05
5.6640072e-05
6.4749417e-05
7.4524715e-05
8.6328374e-05
0.00010060805
0.00011792032
0.00013894873
0.0001645448
0.00019574037
0.0002338259
0.00028038699
0.00033739214
0.00040727521
0.00049304885
0.00059845916
0.00072818738
0.00088810229
0.0010855368
0.0011794551
0.001179643
0.0011797478
0.0011797429
0.0011796207
0.0011793728
0.0011789892
0.0011784524
0.0011777297
0.0011767762
0.0011755197
0.0011738789
0.0011724431
0.0011712737
0.001170339
0.00116962
0.0011691251
0.0011689492
0.0011691367
0.0011686475
2.4186881e-07
8.9019712e-06
1.6415615e-05
1.6710561e-05
1.2777866e-05
1.1429413e-05
9.9147924e-06
1.114376e-05
1.0442404e-05
1.2199867e-05
1.2710198e-05
1.2642852e-05
1.2418255e-05
1.2101699e-05
1.19086e-05
1.1773741e-05
1.1708096e-05
1.1704074e-05
1.1688853e-05
1.1782436e-05
1.1935191e-05
1.2147855e-05
1.2418161e-05
1.2746846e-05
1.3138771e-05
1.3597667e-05
1.4128952e-05
1.474134e-05
1.5445492e-05
1.6256905e-05
1.7192793e-05
1.8271151e-05
1.9516994e-05
2.0959608e-05
2.2637462e-05
2.4596972e-05
2.6895993e-05
2.9605355e-05
3.2811531e-05
3.6619886e-05
4.1158951e-05
4.6591465e-05
5.3114358e-05
6.1471113e-05
7.1007836e-05
8.2547487e-05
9.6534964e-05
0.00011352407
0.00013419335
0.00015939594
0.0001901594
0.00022777371
0.00027382296
0.0003302759
0.0003995702
0.00048472388
0.00058948874
0.00071855185
0.00087779188
0.0010745624
0.0011798788
0.0011799419
0.0011799231
0.0011798021
0.0011795699
0.0011792167
0.0011787322
0.0011781002
0.0011772875
0.0011762471
0.0011749359
0.0011733148
0.0011719763
0.0011708847
0.0011700156
0.0011693409
0.0011688526
0.0011686488
0.0011687846
0.0011683405
2.2199257e-07
8.8548652e-06
1.5924345e-05
1.4628417e-05
1.0505246e-05
1.0157181e-05
8.1698065e-06
9.4999429e-06
9.6975149e-06
1.0978971e-05
1.1491779e-05
1.1189383e-05
1.0984121e-05
1.0701246e-05
1.0533808e-05
1.0349799e-05
1.0273188e-05
1.0263417e-05
1.0312881e-05
1.0418662e-05
1.0576489e-05
1.0788401e-05
1.1053598e-05
1.1372361e-05
1.1749624e-05
1.2190095e-05
1.2699236e-05
1.3285796e-05
1.396002e-05
1.4736915e-05
1.5634029e-05
1.6669072e-05
1.7866889e-05
1.9256068e-05
2.0874495e-05
2.2767857e-05
2.4993249e-05
2.7620832e-05
3.0736412e-05
3.4444476e-05
3.8873973e-05
4.418537e-05
5.0578784e-05
5.8286634e-05
6.7606868e-05
7.8910313e-05
9.3461145e-05
0.00011028349
0.00013077893
0.00015580848
0.00018640232
0.00022385827
0.00026976889
0.00032611455
0.00039535081
0.00048051852
0.00058539623
0.00071470155
0.0008743507
0.0010717539
0.001180407
0.0011803366
0.0011801862
0.0011799417
0.001179593
0.0011791289
0.0011785379
0.0011778051
0.0011768989
0.001175766
0.0011743853
0.0011728379
0.001171592
0.0011705753
0.0011697671
0.0011691343
0.0011686519
0.0011684091
0.0011684882
0.0011680419
2.0310833e-07
8.8100932e-06
1.4374944e-05
1.2743855e-05
8.496486e-06
9.0252585e-06
7.2552979e-06
8.5749059e-06
8.9831097e-06
9.8250982e-06
1.0287395e-05
9.8663876e-06
9.6672159e-06
9.3327861e-06
9.1545478e-06
9.0458357e-06
9.0038812e-06
9.0196176e-06
9.0867188e-06
9.2029734e-06
9.3676966e-06
9.5795198e-06
9.8409792e-06
1.0152389e-05
1.0518897e-05
1.0945641e-05
1.1438249e-05
1.2005647e-05
1.2657827e-05
1.3409341e-05
1.4278137e-05
1.5281993e-05
1.6445843e-05
1.779789e-05
1.9375808e-05
2.1225018e-05
2.3402357e-05
2.5977927e-05
2.9037929e-05
3.2687362e-05
3.7055325e-05
4.2301889e-05
4.8630856e-05
5.6274806e-05
6.5534409e-05
7.6782969e-05
9.048103e-05
0.00010717002
0.00012870326
0.00015378246
0.0001844728
0.00022208819
0.00026824031
0.00032493326
0.00039465524
0.00048048837
0.00058626032
0.00071674617
0.00087792902
0.0010773105
0.001181015
0.0011808051
0.001180518
0.0011801452
0.0011796759
0.0011790979
0.0011783979
0.0011775602
0.0011765583
0.0011753374
0.0011738704
0.0011724511
0.0011712948
0.0011703496
0.0011695972
0.0011690051
0.00116853
0.0011682298
0.0011682278
0.0011677923
1.8761349e-07
8.763567e-06
1.1421871e-05
1.0596349e-05
6.9761429e-06
8.0381776e-06
6.6156615e-06
7.7084492e-06
8.4092209e-06
8.780779e-06
9.1071936e-06
8.5719765e-06
8.3212812e-06
8.0914107e-06
7.9620219e-06
7.8935137e-06
7.8811638e-06
7.9188869e-06
8.0019034e-06
8.1291244e-06
8.298295e-06
8.5119792e-06
8.7720777e-06
9.0794091e-06
9.439226e-06
9.8571473e-06
1.0339096e-05
1.0894244e-05
1.1532549e-05
1.2268195e-05
1.305239e-05
1.4026113e-05
1.5157806e-05
1.647526e-05
1.8015931e-05
1.9825014e-05
2.1959171e-05
2.4488507e-05
2.7499754e-05
3.1098748e-05
3.5415903e-05
4.0931403e-05
4.7261755e-05
5.4921115e-05
6.4213063e-05
7.5514812e-05
8.9299868e-05
0.00010612227
0.00012668129
0.0001518496
0.00018437006
0.00022246781
0.00026924871
0.0003267532
0.00039751777
0.00048468541
0.00059215649
0.00072479282
0.00088867669
0.0010914341
0.0011816771
0.0011813242
0.0011808981
0.0011803947
0.0011798033
0.0011791109
0.001178302
0.0011773583
0.0011762574
0.0011749631
0.0011734521
0.0011721547
0.0011710867
0.0011702096
0.0011695078
0.0011689545
0.0011684896
0.0011681255
0.0011680185
0.0011676737
1.737372e-07
8.7199999e-06
9.0144136e-06
8.9987292e-06
6.1289012e-06
7.1244647e-06
6.0791336e-06
6.9536696e-06
7.827242e-06
7.8077001e-06
7.827419e-06
7.3728487e-06
7.1692607e-06
7.0025475e-06
6.9146962e-06
6.8796811e-06
6.8926871e-06
6.9496482e-06
7.0467715e-06
7.1840784e-06
7.3603311e-06
7.5776521e-06
7.8390883e-06
8.1459624e-06
8.5036234e-06
8.8798214e-06
9.3493309e-06
9.8913945e-06
1.0515831e-05
1.1236359e-05
1.2069511e-05
1.3036781e-05
1.4162447e-05
1.547443e-05
1.7010606e-05
1.8816714e-05
2.0950196e-05
2.3482182e-05
2.6501247e-05
3.0115577e-05
3.4458789e-05
3.9697907e-05
4.6037672e-05
5.3723771e-05
6.306496e-05
7.5092454e-05
8.9096457e-05
0.00010620778
0.00012713811
0.00015278692
0.00018425472
0.00022499994
0.00027280545
0.00033159724
0.00040397643
0.00049316798
0.00060317004
0.0007389628
0.00090676489
0.0011143591
0.0011823671
0.0011818701
0.0011813057
0.0011806723
0.0011799595
0.0011791537
0.0011782385
0.0011771921
0.0011759904
0.0011746266
0.0011731424
0.0011719489
0.0011709669
0.0011701547
0.0011694995
0.0011689819
0.0011685273
0.0011681061
0.0011679085
0.0011676716
1.6143238e-07
8.6692959e-06
7.1720317e-06
7.9051651e-06
5.4653242e-06
6.3094508e-06
5.6208825e-06
6.2870357e-06
7.1343902e-06
6.7023699e-06
6.6735123e-06
6.3251367e-06
6.1649628e-06
6.0492639e-06
5.9970037e-06
5.9909222e-06
6.0265803e-06
6.1014642e-06
6.2126567e-06
6.3608666e-06
6.5455665e-06
6.7691314e-06
7.0053674e-06
7.3090809e-06
7.6632717e-06
8.0728945e-06
8.5461881e-06
9.0919968e-06
9.7204009e-06
1.0445377e-05
1.1283664e-05
1.2256547e-05
1.3389777e-05
1.4711741e-05
1.6261024e-05
1.808433e-05
2.0240499e-05
2.2802265e-05
2.5860861e-05
2.9528002e-05
3.3940748e-05
3.9269968e-05
4.5730952e-05
5.3575649e-05
6.3122523e-05
7.4767952e-05
8.9004716e-05
0.0001064291
0.00012890156
0.00015525649
0.00018761093
0.00022737147
0.00027891182
0.00033947779
0.00041405789
0.00050598192
0.0006193727
0.00075936166
0.00093234778
0.0011463066
0.0011830591
0.0011824199
0.0011817205
0.00118096
0.0011801286
0.0011792124
0.0011781945
0.001177053
0.0011757583
0.0011743142
0.001172933
0.0011718328
0.0011709319
0.0011701824
0.0011695712
0.0011690852
0.0011686374
0.0011681715
0.0011679164
0.0011677815
1.5052089e-07
8.6074879e-06
5.755683e-06
6.9135208e-06
4.8773357e-06
5.5864399e-06
5.2327469e-06
5.6087882e-06
6.2603995e-06
5.7434927e-06
5.6616378e-06
5.4091426e-06
5.2899399e-06
5.2168748e-06
5.1962826e-06
5.2163838e-06
5.2733374e-06
5.3657709e-06
5.4916006e-06
5.630906e-06
5.8195173e-06
6.0469636e-06
6.3160038e-06
6.6301917e-06
6.9945772e-06
7.4145509e-06
7.8982828e-06
8.45535e-06
9.0961069e-06
9.8347478e-06
1.0688188e-05
1.1678022e-05
1.2772578e-05
1.4105632e-05
1.5669025e-05
1.7510393e-05
1.9690207e-05
2.2282875e-05
2.5382338e-05
2.9104435e-05
3.3590843e-05
3.9313849e-05
4.5957073e-05
5.4034298e-05
6.3874998e-05
7.5886969e-05
9.0586562e-05
0.00010859637
0.00013067963
0.00015923297
0.0001927486
0.00023395476
0.0002846482
0.00035038599
0.00042776494
0.00052314505
0.00064080397
0.00078605687
0.00096553251
0.0011844878
0.001183729
0.0011829522
0.0011821237
0.0011812411
0.001180296
0.0011792743
0.0011781579
0.0011769285
0.0011755654
0.001174073
0.0011728195
0.0011718029
0.0011709758
0.0011702873
0.0011697194
0.0011692612
0.0011688157
0.0011683234
0.0011680519
0.0011679965
1.408635e-07
8.4913607e-06
4.6758075e-06
6.0327433e-06
4.3531892e-06
4.9441868e-06
4.895781e-06
4.870357e-06
5.3776442e-06
4.8884229e-06
4.7848584e-06
4.6114418e-06
4.5314144e-06
4.4953445e-06
4.5037277e-06
4.5482648e-06
4.6258572e-06
4.7171981e-06
4.8523017e-06
5.0219622e-06
5.2273446e-06
5.4703604e-06
5.7545397e-06
6.0836648e-06
6.4634349e-06
6.8995451e-06
7.4002575e-06
7.9516855e-06
8.6058043e-06
9.3588857e-06
1.0227927e-05
1.1234588e-05
1.2405361e-05
1.3773539e-05
1.5378864e-05
1.7270585e-05
1.9511968e-05
2.2180281e-05
2.5373271e-05
2.9212713e-05
3.3846859e-05
3.9462581e-05
4.6286005e-05
5.4595835e-05
6.4735682e-05
7.7776212e-05
9.30648e-05
0.00011180937
0.00013481048
0.00016305654
0.00019962488
0.00024260563
0.00029550024
0.00036062143
0.000445057
0.00054462389
0.00066744223
0.00081904331
0.0010063336
0.0011852321
0.0011843544
0.0011834483
0.0011824985
0.0011815009
0.0011804483
0.0011793279
0.0011781206
0.0011768078
0.0011753952
0.0011739501
0.0011727949
0.0011718544
0.0011710909
0.0011704621
0.0011699376
0.0011695042
0.0011690567
0.0011685618
0.001168311
0.0011683376
1.3237399e-07
8.171966e-06
3.9282768e-06
5.2519707e-06
3.8880274e-06
4.3764953e-06
4.3597288e-06
4.2028484e-06
4.5258858e-06
4.1324213e-06
4.0337182e-06
3.9234839e-06
3.8804343e-06
3.8772323e-06
3.9123809e-06
3.9654353e-06
4.0562013e-06
4.1802019e-06
4.3367523e-06
4.5263192e-06
4.7507581e-06
5.0125555e-06
5.3157162e-06
5.6643447e-06
6.0508144e-06
6.5041178e-06
7.0227375e-06
7.616248e-06
8.2966811e-06
9.0783731e-06
9.9787887e-06
1.10205e-05
1.2231127e-05
1.3645284e-05
1.5305504e-05
1.7262911e-05
1.9584235e-05
2.2350473e-05
2.5663492e-05
2.9652426e-05
3.4471581e-05
4.0317379e-05
4.7430804e-05
5.6103186e-05
6.6697658e-05
7.9660038e-05
9.6387825e-05
0.00011601591
0.00014011013
0.00016971891
0.00020610657
0.00025324509
0.00030873047
0.00037705827
0.00046122425
0.00057030264
0.00069916712
0.00085819966
0.0010546204
0.0011859093
0.0011849165
0.0011838925
0.0011828313
0.0011817274
0.0011805751
0.0011793637
0.0011780767
0.0011766935
0.0011752232
0.0011739199
0.0011728542
0.0011719816
0.0011712687
0.0011706983
0.0011702165
0.0011698061
0.0011693527
0.001168884
0.0011686989
0.0011687788
1.2513079e-07
7.7525226e-06
3.4629521e-06
4.5605573e-06
3.4755168e-06
3.7117007e-06
3.8872062e-06
3.5913562e-06
3.7548055e-06
3.4757094e-06
3.3984068e-06
3.3382638e-06
3.3290898e-06
3.3555392e-06
3.3985409e-06
3.4834635e-06
3.6003701e-06
3.7481208e-06
3.9270174e-06
4.1383244e-06
4.3844981e-06
4.6683293e-06
4.9846366e-06
5.3536631e-06
5.7745609e-06
6.2540574e-06
6.8002363e-06
7.4230189e-06
8.1346944e-06
8.9505229e-06
9.8885465e-06
1.0972332e-05
1.2230792e-05
1.3700324e-05
1.5359942e-05
1.737944e-05
1.9776488e-05
2.2636414e-05
2.6222573e-05
3.0390656e-05
3.5431542e-05
4.1551162e-05
4.9006707e-05
5.8105312e-05
6.9228793e-05
8.2850047e-05
9.9549547e-05
0.00012004009
0.00014649511
0.00017766852
0.00021599297
0.00026313416
0.00032418993
0.00039617958
0.00048486081
0.00059994734
0.00073571341
0.0009032334
0.0011100708
0.0011865018
0.0011854028
0.001184273
0.0011831116
0.0011819122
0.0011806695
0.0011793752
0.0011780176
0.0011765958
0.0011751514
0.0011739664
0.0011729861
0.0011721772
0.001171507
0.001170986
0.0011705461
0.0011701581
0.001169698
0.0011692693
0.0011691846
0.001169296
1.1943071e-07
6.7658763e-06
3.0670703e-06
3.9335008e-06
3.1202921e-06
3.0978902e-06
3.4165e-06
3.0375586e-06
3.0924319e-06
2.9148084e-06
2.8667465e-06
2.8474756e-06
2.860683e-06
2.9062606e-06
2.9876773e-06
3.1005783e-06
3.2430192e-06
3.4149655e-06
3.6175377e-06
3.8524751e-06
4.1166385e-06
4.4229612e-06
4.7716349e-06
5.1674617e-06
5.6161743e-06
6.1247234e-06
6.701563e-06
7.3570051e-06
8.1037362e-06
8.937953e-06
9.911791e-06
1.1035082e-05
1.2337963e-05
1.3858192e-05
1.5642992e-05
1.7751396e-05
2.0256384e-05
2.324931e-05
2.6843519e-05
3.1179045e-05
3.6429769e-05
4.3118246e-05
5.0962256e-05
6.0544715e-05
7.2267402e-05
8.662995e-05
0.00010424712
0.00012587601
0.0001538472
0.00018676857
0.00022725458
0.0002770611
0.00034164763
0.00041771318
0.00051142503
0.00062692498
0.00077662337
0.00095361576
0.0011720781
0.0011870019
0.0011858052
0.0011845822
0.0011833325
0.0011820497
0.0011807282
0.0011793625
0.0011779433
0.0011764821
0.0011751656
0.0011740784
0.0011731764
0.0011724301
0.0011718079
0.0011713156
0.0011709167
0.0011705478
0.0011700862
0.0011697026
0.0011697247
0.0011698687
1.1487136e-07
4.7357585e-06
2.7104223e-06
3.3520288e-06
2.6689457e-06
2.583972e-06
2.9202067e-06
2.5443601e-06
2.541047e-06
2.4426014e-06
2.4275024e-06
2.4357815e-06
2.4799397e-06
2.5596607e-06
2.6705888e-06
2.8102392e-06
2.9779844e-06
3.1745215e-06
3.3983138e-06
3.6565149e-06
3.9503584e-06
4.2832219e-06
4.6592067e-06
5.0832968e-06
5.5615016e-06
6.1010648e-06
6.7107817e-06
7.3902147e-06
8.1705709e-06
9.0604979e-06
1.0080384e-05
1.1255554e-05
1.2617928e-05
1.4207589e-05
1.6074781e-05
1.8282112e-05
2.0907391e-05
2.4047408e-05
2.7822571e-05
3.2382271e-05
3.7911611e-05
4.4638818e-05
5.3239339e-05
6.3353634e-05
7.5734677e-05
9.0910887e-05
0.00010953296
0.00013240366
0.00016051307
0.00019683194
0.00023966905
0.0002923766
0.00035725954
0.00044126566
0.00054044081
0.00066267154
0.00082120184
0.0010085193
0.0011886914
0.0011874053
0.0011861211
0.0011848173
0.0011834913
0.0011821377
0.0011807494
0.0011793241
0.0011778719
0.0011764304
0.0011752413
0.0011742449
0.0011734111
0.0011727171
0.001172155
0.0011716883
0.0011713203
0.0011709627
0.0011705235
0.0011701818
0.0011702855
0.0011704564
1.100455e-07
3.9336367e-06
2.3364883e-06
2.8164791e-06
2.3016504e-06
2.1550822e-06
2.4060135e-06
2.1113089e-06
2.092827e-06
2.0550137e-06
2.0687331e-06
2.1115044e-06
2.1915806e-06
2.3019866e-06
2.4401474e-06
2.605155e-06
2.7973644e-06
3.0158039e-06
3.2661523e-06
3.5497352e-06
3.869543e-06
4.2291973e-06
4.6330292e-06
5.086213e-06
5.5949664e-06
6.1668e-06
6.8032467e-06
7.527386e-06
8.3478722e-06
9.2818019e-06
1.0350686e-05
1.1581378e-05
1.3007651e-05
1.467196e-05
1.662773e-05
1.8941834e-05
2.1697274e-05
2.499689e-05
2.8968558e-05
3.3770303e-05
3.9598251e-05
4.7032864e-05
5.5769106e-05
6.6451331e-05
7.953504e-05
9.5578854e-05
0.00011527105
0.00013946049
0.00017076175
0.00020761529
0.00025294107
0.00030871879
0.00037738752
0.00046630308
0.00057126764
0.00070063646
0.00086847484
0.0010667559
0.0011890638
0.0011877109
0.0011863526
0.0011849802
0.0011835893
0.0011821768
0.0011807368
0.0011792626
0.001177778
0.0011764577
0.0011753639
0.0011744513
0.0011736828
0.0011730284
0.0011725121
0.0011720988
0.0011717521
0.0011714038
0.0011709849
0.0011707067
0.0011708717
0.0011710376
1.0679411e-07
3.1683529e-06
2.0145275e-06
2.2756888e-06
2.0002907e-06
1.7880671e-06
1.9277652e-06
1.7439142e-06
1.7408611e-06
1.7517378e-06
1.795437e-06
1.8760501e-06
1.9869623e-06
2.1242337e-06
2.2868653e-06
2.4751476e-06
2.6890039e-06
2.9321581e-06
3.2064573e-06
3.5146385e-06
3.859975e-06
4.2462972e-06
4.6780959e-06
5.1606904e-06
5.7004643e-06
6.3008337e-06
6.9777149e-06
7.7399147e-06
8.6017286e-06
9.5811012e-06
1.0700814e-05
1.1989332e-05
1.348248e-05
1.5225231e-05
1.7274127e-05
1.9700251e-05
2.259243e-05
2.6059665e-05
3.0238032e-05
3.5294993e-05
4.1710737e-05
4.9256379e-05
5.8469593e-05
6.9742048e-05
8.3553883e-05
0.00010049647
0.00012129715
0.00014685331
0.00017987766
0.00021880834
0.0002666976
0.0003256358
0.00039820485
0.00049212174
0.00060305318
0.00073978775
0.00091716347
0.0011267665
0.0011893387
0.0011879257
0.0011865057
0.0011850773
0.0011836329
0.00118217
0.0011806907
0.0011792029
0.0011777397
0.0011765354
0.0011755238
0.0011746801
0.0011739727
0.0011733701
0.0011728874
0.0011725103
0.0011721857
0.0011718545
0.0011714725
0.0011712617
0.0011714607
0.0011715904
1.05422e-07
2.497486e-06
1.736168e-06
1.7565096e-06
1.722632e-06
1.4740882e-06
1.537181e-06
1.4511142e-06
1.4787535e-06
1.524621e-06
1.6069031e-06
1.717943e-06
1.8542678e-06
2.0143249e-06
2.1984155e-06
2.4077228e-06
2.643216e-06
2.9084493e-06
3.2055553e-06
3.5375318e-06
3.9078223e-06
4.3203972e-06
4.77987e-06
5.2916787e-06
5.8623359e-06
6.4997696e-06
7.2137648e-06
8.0164943e-06
8.9129015e-06
9.9382106e-06
1.1109424e-05
1.2456719e-05
1.4018116e-05
1.5841333e-05
1.7986082e-05
2.0610682e-05
2.3665381e-05
2.7330939e-05
3.1752351e-05
3.7108399e-05
4.3619187e-05
5.1555288e-05
6.1250864e-05
7.3117135e-05
8.7660451e-05
0.00010550476
0.00012741761
0.00015569295
0.00018904045
0.00023004379
0.00028048779
0.00034257556
0.00042299531
0.00051786334
0.00063474921
0.00077884974
0.00096567947
0.0011866162
0.0011895316
0.0011880636
0.0011865912
0.0011851171
0.0011836332
0.001182132
0.0011806128
0.0011791074
0.0011777701
0.001176652
0.0011757137
0.001174925
0.0011742629
0.0011737149
0.001173266
0.0011729126
0.0011726218
0.0011722994
0.0011719652
0.0011718205
0.0011720275
0.0011720919
1.069881e-07
1.9231136e-06
1.5041239e-06
1.3586705e-06
1.439558e-06
1.2108151e-06
1.2512637e-06
1.2365863e-06
1.296866e-06
1.3770877e-06
1.4878815e-06
1.6223564e-06
1.7792074e-06
1.9585635e-06
2.161648e-06
2.3902133e-06
2.6460296e-06
2.9321517e-06
3.2511254e-06
3.606081e-06
4.0005636e-06
4.4386364e-06
4.925015e-06
5.465258e-06
6.0660312e-06
6.7354646e-06
7.4836287e-06
8.3231291e-06
9.2698459e-06
1.0343869e-05
1.1570595e-05
1.298219e-05
1.4619174e-05
1.6532484e-05
1.8785854e-05
2.1458753e-05
2.4650012e-05
2.8482524e-05
3.310827e-05
3.8715276e-05
4.5535638e-05
5.3854695e-05
6.4021207e-05
7.6467029e-05
9.1722371e-05
0.00011135488
0.00013451371
0.00016295963
0.00019792214
0.00024091881
0.00029382046
0.00036230619
0.00044307911
0.00054256435
0.00066517043
0.00082429113
0.0010121897
0.001191201
0.0011896608
0.0011881445
0.0011866275
0.0011851122
0.001183596
0.0011820765
0.0011805544
0.0011790653
0.0011778356
0.0011767951
0.0011759221
0.0011751854
0.0011745586
0.0011740517
0.0011736392
0.0011732986
0.0011730285
0.001172725
0.00117244
0.0011723537
0.0011725583
0.0011725654
1.1265106e-07
1.4516231e-06
1.3157309e-06
1.0682176e-06
1.2846643e-06
9.9226388e-07
1.0571849e-06
1.0945983e-06
1.1817277e-06
1.2895471e-06
1.4213226e-06
1.5739846e-06
1.7479208e-06
1.9442663e-06
2.1647374e-06
2.411349e-06
2.6863943e-06
2.9922498e-06
3.3320316e-06
3.7088384e-06
4.1262906e-06
4.588537e-06
5.1003974e-06
5.6675621e-06
6.2968668e-06
6.9966636e-06
7.7773212e-06
8.6519051e-06
9.6369272e-06
1.0753368e-05
1.2027779e-05
1.3493868e-05
1.5194141e-05
1.7182052e-05
1.9524498e-05
2.2304911e-05
2.5626937e-05
2.9618978e-05
3.4439727e-05
4.0285007e-05
4.7719816e-05
5.6464929e-05
6.7150724e-05
8.0229784e-05
9.6258012e-05
0.00011591969
0.00014005783
0.00016971123
0.00020615677
0.00025332218
0.00030887968
0.00037724425
0.00046141639
0.000565112
0.00069969648
0.00085852078
0.0010544905
0.0011913109
0.0011897399
0.0011881885
0.0011866388
0.0011850898
0.0011835392
0.0011819914
0.0011804702
0.0011790857
0.0011779296
0.0011769536
0.0011761323
0.0011754404
0.0011748557
0.0011743739
0.0011739961
0.0011736743
0.0011734068
0.0011731222
0.0011728792
0.0011728408
0.001173051
0.0011730243
1.2305332e-07
1.1463619e-06
1.1535499e-06
9.2760447e-07
9.396432e-07
8.6766033e-07
9.295833e-07
1.0090552e-06
1.1169478e-06
1.2442995e-06
1.3919322e-06
1.5596309e-06
1.7486162e-06
1.9604191e-06
2.1969061e-06
2.4601609e-06
2.7525135e-06
3.0765596e-06
3.4352076e-06
3.8317326e-06
4.2698547e-06
4.7538459e-06
5.2886797e-06
5.8802437e-06
6.5356345e-06
7.2609586e-06
8.070736e-06
8.9768329e-06
1.000534e-05
1.1164084e-05
1.2486974e-05
1.4009399e-05
1.5775939e-05
1.7842583e-05
2.0279333e-05
2.317337e-05
2.6632894e-05
3.0791834e-05
3.5815578e-05
4.1908071e-05
4.9320533e-05
5.8362213e-05
6.941343e-05
8.2939763e-05
9.9516211e-05
0.00011984955
0.00014609932
0.00017699663
0.00021495707
0.00026162438
0.00031902735
0.00038967661
0.00047667849
0.00058943204
0.00072256896
0.00088679421
0.0010895275
0.0011913894
0.0011897897
0.0011882102
0.001186639
0.0011850732
0.0011835086
0.0011819487
0.0011804316
0.0011791437
0.0011780502
0.0011771272
0.0011763478
0.0011756908
0.0011751396
0.0011746843
0.0011743281
0.0011740218
0.0011737578
0.0011734972
0.0011732892
0.0011732634
0.0011734347
0.0011734032
1.445113e-07
1.1858036e-06
9.9279927e-07
7.0742992e-07
7.6732906e-07
7.7530094e-07
8.5903993e-07
9.6130622e-07
1.0856194e-06
1.2277562e-06
1.3888676e-06
1.5698769e-06
1.7722915e-06
1.9977561e-06
2.248165e-06
2.5256291e-06
2.8325107e-06
3.171454e-06
3.5454283e-06
3.9577813e-06
4.4123119e-06
4.9133749e-06
5.4660292e-06
6.0762511e-06
6.7512375e-06
7.4998196e-06
8.3330119e-06
9.264714e-06
1.03126e-05
1.1499177e-05
1.2853056e-05
1.4410542e-05
1.6217431e-05
1.8331247e-05
2.0823883e-05
2.3784826e-05
2.7325066e-05
3.1581845e-05
3.6724479e-05
4.2961499e-05
5.0549566e-05
6.023291e-05
7.1631071e-05
8.5576653e-05
0.000102661
0.00012361051
0.00014932033
0.00018089401
0.00021969305
0.00026739646
0.00032608388
0.00040200454
0.00049162856
0.00060205899
0.00073823562
0.00090630424
0.0011139084
0.0011914798
0.0011898498
0.0011882394
0.0011866427
0.001185059
0.0011834876
0.0011819355
0.0011804504
0.0011792289
0.0011781872
0.0011773074
0.001176563
0.0011759331
0.0011754085
0.0011749717
0.0011746206
0.0011743312
0.0011740761
0.0011738403
0.0011736676
0.0011736457
0.0011737598
0.0011737095
1.3774095e-07
7.8965588e-07
8.1373906e-07
6.029702e-07
6.6037506e-07
7.2100926e-07
8.2327162e-07
9.4230283e-07
1.079687e-06
1.2344298e-06
1.4077813e-06
1.6009489e-06
1.8154688e-06
2.0530514e-06
2.3156308e-06
2.6053747e-06
2.9247131e-06
3.276327e-06
3.6633244e-06
4.0891133e-06
4.5575782e-06
5.07316e-06
5.6410058e-06
6.2671842e-06
6.9589933e-06
7.7253829e-06
8.5775142e-06
9.5294838e-06
1.0607895e-05
1.1822188e-05
1.3207519e-05
1.4801122e-05
1.6649894e-05
1.8812687e-05
2.1362983e-05
2.4392183e-05
2.8013576e-05
3.2367194e-05
3.7625768e-05
4.4002015e-05
5.1757572e-05
6.1213874e-05
7.2765515e-05
8.68989e-05
0.00010421156
0.00012543948
0.00015148954
0.0001850905
0.0002246894
0.00027336209
0.00033322971
0.00040691571
0.00049767395
0.00060954595
0.00074756037
0.00091798509
0.0011286264
0.001191626
0.0011899711
0.0011883321
0.0011867059
0.0011850929
0.0011834978
0.0011819418
0.001180522
0.0011793386
0.0011783331
0.0011774836
0.0011767655
0.0011761595
0.001175652
0.0011752322
0.0011748885
0.0011746039