/*--------------------------------*- C++ -*----------------------------------*\
  =========                 |
  \\      /  F ield         | OpenFOAM: The Open Source CFD Toolbox
   \\    /   O peration     | Website:  https://openfoam.org
    \\  /    A nd           | Version:  12
     \\/     M anipulation  |
\*---------------------------------------------------------------------------*/
FoamFile
{
    format      ascii;
    class       surfaceScalarField;
    location    "0.122";
    object      phi;
}
// * * * * * * * * * * * * * * * * * * * * * * * * * * * * * * * * * * * * * //

dimensions      [1 0 -1 0 0 0 0];

internalField   nonuniform List<scalar> 
31760
(
-0.00063891629
-0.050779181
0.051417397
-0.0016010311
-0.064171145
0.065132509
-0.0025790729
-0.062819296
0.063796528
-0.0035984609
-0.068469878
0.069488609
-0.0046720919
-0.070144207
0.071217199
-0.0057737022
-0.074396933
0.075497852
-0.0069454562
-0.077320581
0.078491687
-0.0081557127
-0.081317022
0.082526606
-0.0094263091
-0.084932843
0.086202755
-0.010755403
-0.089041064
0.090369452
-0.012140005
-0.093166358
0.094550232
-0.01359179
-0.097568206
0.099019231
-0.015105451
-0.10213406
0.10364693
-0.016689243
-0.10692576
0.10850872
-0.018342766
-0.11193214
0.1135848
-0.020070776
-0.11716979
0.11889689
-0.021875946
-0.12264676
0.12445097
-0.023761487
-0.12837443
0.13025896
-0.025730641
-0.13436378
0.13633188
-0.027786812
-0.14062605
0.14268112
-0.029933434
-0.1471736
0.14931907
-0.032174268
-0.15401838
0.15625799
-0.034512905
-0.16117391
0.16351127
-0.036953249
-0.16865388
0.17109289
-0.039498266
-0.17647278
0.17901639
-0.042152529
-0.18464467
0.18729746
-0.044919923
-0.19318576
0.19595161
-0.047803862
-0.20211262
0.20499492
-0.050807829
-0.21144212
0.21444437
-0.053935855
-0.22119229
0.22431851
-0.05719123
-0.23138204
0.23463551
-0.060577265
-0.24203113
0.24541516
-0.064096753
-0.25316102
0.25667839
-0.067752716
-0.26479279
0.26844651
-0.071547119
-0.27695049
0.28074253
-0.075481593
-0.28965837
0.29359034
-0.079557435
-0.30294212
0.30701532
-0.083775084
-0.31682942
0.32104428
-0.088134316
-0.33134824
0.33570453
-0.092633773
-0.34653003
0.35102638
-0.097271412
-0.36240653
0.36704089
-0.10204377
-0.37901152
0.3837804
-0.10694619
-0.39638106
0.40127981
-0.11197284
-0.41455301
0.41957577
-0.11711596
-0.43356776
0.43870676
-0.12236638
-0.45346698
0.45871303
-0.12771255
-0.4742956
0.47963711
-0.13314153
-0.49610004
0.50152407
-0.13863784
-0.5189304
0.52442144
-0.14418321
-0.54283849
0.54837823
-0.14975665
-0.56787873
0.57344616
-0.15533472
-0.59410914
0.59968077
-0.16089011
-0.62158999
0.62713849
-0.16639196
-0.6503848
0.65587926
-0.1718059
-0.68055995
0.68596594
-0.17709213
-0.71218593
0.7174636
-0.18220674
-0.74533571
0.75044109
-0.18710052
-0.78008602
0.78496983
-0.19171731
-0.81651772
0.82112372
-0.19599519
-0.85471502
0.85898119
-0.1998643
-0.89476602
0.89862239
-0.20324697
-0.93676252
0.9401313
-0.20605595
-0.9808007
0.98359449
-0.20819395
-1.0269803
1.0291017
-0.2095523
-1.0754036
1.0767436
-0.21001041
-1.1261775
1.1266154
-0.20943267
-1.1794126
1.1788126
-0.20767428
-1.2352236
1.2334406
-0.20456884
-1.2937366
1.2906041
-0.19992917
-1.3550818
1.3504121
-0.19355217
-1.4193928
1.4129827
-0.1852172
-1.4868045
1.478433
-0.1746709
-1.5574592
1.546873
-0.16164736
-1.6314984
1.6184322
-0.14581342
-1.7090873
1.6932087
-0.12700528
-1.7903364
1.7714832
-0.10424936
-1.8753544
1.8525552
-0.078662687
-1.9649104
1.9392773
-0.047172379
-2.056709
2.0251921
-2.156822
2.1220289
-0.00063368864
-0.050145832
-0.0015007651
-0.063304417
-0.0023927502
-0.061929693
-0.0033507565
-0.067512165
-0.004319764
-0.06917559
-0.0053659458
-0.073351183
-0.0064273891
-0.076259613
-0.007568744
-0.08017618
-0.0087360127
-0.083766141
-0.0099775999
-0.087800087
-0.011262221
-0.091882395
-0.012614272
-0.096216858
-0.01402381
-0.10072528
-0.015499901
-0.10545047
-0.017042748
-0.11039014
-0.018656508
-0.11555693
-0.020343381
-0.12096083
-0.022107145
-0.12661166
-0.023951027
-0.13252095
-0.025878616
-0.13869957
-0.027893577
-0.14515981
-0.029999174
-0.151914
-0.032199514
-0.15897486
-0.034498295
-0.16635646
-0.036900314
-0.17407218
-0.039408391
-0.18213809
-0.042027222
-0.19056851
-0.044760546
-0.19938095
-0.047612645
-0.20859177
-0.050587094
-0.21821969
-0.053687971
-0.22828311
-0.056918608
-0.23880255
-0.060282305
-0.24979949
-0.063782047
-0.26129534
-0.067420253
-0.27331471
-0.071199242
-0.28588194
-0.075120175
-0.29902388
-0.079184551
-0.3127679
-0.08339171
-0.3271441
-0.087741242
-0.34218369
-0.09223154
-0.35791961
-0.096859508
-0.37438712
-0.10162079
-0.39162356
-0.10651031
-0.4096675
-0.11152101
-0.42856131
-0.11664435
-0.44834816
-0.12187014
-0.46907463
-0.12718576
-0.49078953
-0.13257699
-0.51354462
-0.13802731
-0.53739399
-0.14351741
-0.56239486
-0.14902531
-0.58860791
-0.15452588
-0.61609659
-0.15999088
-0.64492749
-0.16538833
-0.67517079
-0.17068203
-0.70690115
-0.17583166
-0.74019572
-0.18079185
-0.77513627
-0.1855115
-0.81180939
-0.18993397
-0.85030484
-0.19399548
-0.8907179
-0.19762487
-0.93314777
-0.20074213
-0.97769946
-0.20325913
-1.0244809
-0.20507628
-1.0736058
-0.20608439
-1.1251907
-0.20615822
-1.1793623
-0.20516312
-1.2362447
-0.20294878
-1.2959796
-0.1993465
-1.3587158
-0.19417145
-1.424603
-0.18721626
-1.4937984
-0.17825446
-1.5664632
-0.16703184
-1.6427664
-0.1532846
-1.7228819
-0.13671297
-1.8069554
-0.11686068
-1.8952534
-0.093857196
-1.9879615
-0.066105943
-2.0844936
-2.1879839
-0.00057215752
-0.049574139
-0.0013810469
-0.062495917
-0.002190476
-0.061119871
-0.0030917184
-0.066611422
-0.0039823837
-0.068285472
-0.0049592685
-0.072374873
-0.0059377742
-0.075281699
-0.0069996668
-0.079114905
-0.0080808207
-0.082685638
-0.0092347414
-0.086646847
-0.010428507
-0.090689344
-0.011686198
-0.094959918
-0.012998829
-0.099413433
-0.01437467
-0.10407545
-0.015814397
-0.10895128
-0.017321605
-0.11405063
-0.01889964
-0.11938375
-0.020551455
-0.12496085
-0.02228132
-0.13079214
-0.024092061
-0.13688994
-0.025988164
-0.14326487
-0.027973154
-0.14993024
-0.030050911
-0.1568984
-0.032226217
-0.16418252
-0.034502343
-0.17179749
-0.036884497
-0.17975745
-0.039376127
-0.18807847
-0.041982294
-0.19677647
-0.04470655
-0.20586928
-0.047554034
-0.21537408
-0.050527847
-0.22531127
-0.053632306
-0.23570018
-0.056871201
-0.2465628
-0.060247207
-0.25792166
-0.063763895
-0.26980048
-0.067423418
-0.28222501
-0.071227996
-0.29522205
-0.075178132
-0.30882067
-0.079274828
-0.32305047
-0.083517562
-0.3379442
-0.087904543
-0.35353606
-0.092433657
-0.36986165
-0.097101539
-0.38695954
-0.10190275
-0.40487039
-0.10683133
-0.4236371
-0.11187933
-0.44330479
-0.11703761
-0.46392129
-0.12229431
-0.48553809
-0.12763699
-0.50820756
-0.13305011
-0.53198689
-0.13851561
-0.55693579
-0.14401424
-0.58311618
-0.14952284
-0.6105954
-0.15501566
-0.63944265
-0.16046369
-0.66973136
-0.1658342
-0.70153992
-0.17109082
-0.73494914
-0.17619162
-0.77004635
-0.1810914
-0.80692144
-0.18573797
-0.84567115
-0.19007417
-0.88639576
-0.19403519
-0.92920213
-0.19754957
-0.97420198
-0.20053645
-1.0215126
-0.20290589
-1.0712568
-0.20455685
-1.1235624
-0.2053814
-1.1785627
-0.20525404
-1.2363996
-0.20403579
-1.2972283
-0.20157872
-1.3612065
-0.19770918
-1.4285097
-0.19224478
-1.4993038
-0.18497384
-1.573779
-0.17567166
-1.6521166
-0.1640919
-1.7345119
-0.14993979
-1.8211578
-0.13292413
-1.9123189
-0.11283383
-2.0081006
-0.088771697
-2.1085931
-2.2153979
-0.00051644714
-0.049058185
-0.0012651441
-0.061747693
-0.0019990098
-0.060386546
-0.0028482228
-0.065762721
-0.0036734866
-0.067460744
-0.0045842748
-0.071464648
-0.005486479
-0.074380077
-0.0064755218
-0.078126474
-0.0074770602
-0.08168474
-0.008550666
-0.085573915
-0.0096609837
-0.089579732
-0.010832328
-0.093789316
-0.012056719
-0.098189819
-0.013341442
-0.10279155
-0.014688179
-0.1076054
-0.016100707
-0.11263901
-0.01758233
-0.11790308
-0.019136437
-0.12340775
-0.020766509
-0.12916312
-0.022476903
-0.13518066
-0.024270799
-0.14147215
-0.026153264
-0.14804901
-0.028128216
-0.15492474
-0.03019965
-0.16211245
-0.032372724
-0.16962585
-0.034651397
-0.1774803
-0.037040707
-0.18569076
-0.039544995
-0.19427387
-0.042169708
-0.20324635
-0.044918199
-0.21262747
-0.047795586
-0.22243587
-0.050806218
-0.23269164
-0.05395377
-0.24341746
-0.057242103
-0.25463567
-0.0606746
-0.26637046
-0.06425369
-0.27864854
-0.067981561
-0.29149695
-0.071860101
-0.30494506
-0.075889638
-0.31902404
-0.080070197
-0.33376693
-0.084401162
-0.34920859
-0.088879857
-0.36538666
-0.093503483
-0.38233985
-0.098267696
-0.40011035
-0.1031666
-0.41874263
-0.10819376
-0.43828236
-0.11333955
-0.45878055
-0.11859512
-0.4802879
-0.12394781
-0.50286064
-0.12938408
-0.52655678
-0.13488844
-0.55143805
-0.14044241
-0.57756932
-0.1460259
-0.60501956
-0.15161622
-0.63386057
-0.15718645
-0.66417003
-0.1627084
-0.6960276
-0.16814879
-0.72951919
-0.17347095
-0.76473551
-0.17863397
-0.80177075
-0.18359165
-0.84072692
-0.18829259
-0.88170954
-0.19267914
-0.92483173
-0.19668723
-0.97021166
-0.20024457
-1.0179749
-0.20327067
-1.0682524
-0.20567763
-1.1211793
-0.20736036
-1.1769064
-0.20821345
-1.2355757
-0.20810918
-1.2973649
-0.20691565
-1.3624357
-0.20447982
-1.4309849
-0.20062525
-1.5032018
-0.19517447
-1.5792772
-0.18791644
-1.6594256
-0.1786308
-1.7438506
-0.16705603
-1.832786
-0.15293915
-1.9264892
-0.13599685
-2.0250943
-0.11565176
-2.1289805
-2.2389185
-0.00046114693
-0.048597495
-0.0011626133
-0.061046664
-0.0018195756
-0.059730118
-0.0026128505
-0.06496993
-0.0033644247
-0.066709672
-0.0042175342
-0.07061205
-0.005053165
-0.073545006
-0.0059769538
-0.077203277
-0.0069073984
-0.08075492
-0.0079082432
-0.084573727
-0.0089445843
-0.088544083
-0.010039448
-0.09269518
-0.011187006
-0.097043029
-0.012393444
-0.10158592
-0.013661165
-0.10633853
-0.014993283
-0.11130779
-0.016393564
-0.11650374
-0.017865796
-0.12193651
-0.019413684
-0.12761628
-0.021041268
-0.13355417
-0.02275327
-0.1397613
-0.024553051
-0.14625045
-0.02644613
-0.15303295
-0.028437103
-0.16012283
-0.030530496
-0.16753389
-0.032731594
-0.17528071
-0.035045608
-0.18337834
-0.03747748
-0.19184368
-0.04003214
-0.20069347
-0.042714791
-0.2099467
-0.045530307
-0.21962234
-0.048483163
-0.22974089
-0.051577714
-0.24032513
-0.054818314
-0.25139742
-0.058208123
-0.26298314
-0.061750227
-0.27510907
-0.065447131
-0.28780283
-0.06930074
-0.3010944
-0.073311816
-0.31501609
-0.07748076
-0.32960131
-0.081806542
-0.34488632
-0.086288007
-0.36090893
-0.090921899
-0.37770993
-0.095704568
-0.39533192
-0.10063159
-0.41382012
-0.10569604
-0.43322272
-0.11089075
-0.45359098
-0.11620667
-0.47497748
-0.12163315
-0.49744004
-0.12715873
-0.52103751
-0.13276903
-0.54583454
-0.13844867
-0.57189698
-0.14417972
-0.59929638
-0.14994192
-0.62810687
-0.15571299
-0.65840814
-0.16146722
-0.69028333
-0.16717549
-0.72382174
-0.17280652
-0.75911624
-0.17832379
-0.79626631
-0.18368747
-0.83537727
-0.18885195
-0.87656045
-0.19376687
-0.91993374
-0.19837538
-0.96562181
-0.20261429
-1.0137566
-0.20641263
-1.0644769
-0.20968977
-1.1179275
-0.21236059
-1.1742636
-0.2143198
-1.2336475
-0.21546757
-1.2962514
-0.21567135
-1.3622698
-0.21480349
-1.4318946
-0.21271016
-1.5053412
-0.20922445
-1.5828132
-0.204164
-1.66454
-0.19732539
-1.7507455
-0.1884786
-1.8416898
-0.17740207
-1.9376228
-0.1638072
-2.0387436
-0.14728391
-2.1455515
-2.2583585
-0.00041136391
-0.048186578
-0.0010719476
-0.060386509
-0.0016665428
-0.059135968
-0.0024019418
-0.064235006
-0.0030777685
-0.066034339
-0.0038795241
-0.069810777
-0.0046487009
-0.072776383
-0.0055131749
-0.076339389
-0.0063805139
-0.079888196
-0.007319693
-0.083635198
-0.0082958026
-0.087568655
-0.0093284252
-0.091663276
-0.010413994
-0.095958216
-0.011557176
-0.10044353
-0.012760812
-0.10513573
-0.014028765
-0.11004072
-0.015364541
-0.11516889
-0.016772021
-0.12053001
-0.018255707
-0.12613363
-0.019819592
-0.13199137
-0.021468773
-0.13811327
-0.023208064
-0.14451236
-0.025042604
-0.15119968
-0.026977496
-0.15818928
-0.029018349
-0.16549446
-0.031170964
-0.17312959
-0.033440069
-0.18111082
-0.035831954
-0.18945347
-0.038351904
-0.19817529
-0.041005279
-0.20729519
-0.043797648
-0.21683194
-0.046733567
-0.22680706
-0.049818408
-0.2372425
-0.05305545
-0.24816272
-0.056449179
-0.25959188
-0.060002915
-0.27155796
-0.063718851
-0.28408968
-0.067598972
-0.29721723
-0.071644833
-0.31097336
-0.075856519
-0.32539295
-0.08023395
-0.34051243
-0.084775167
-0.35637148
-0.089478488
-0.37301061
-0.094340727
-0.39047395
-0.099356895
-0.40880851
-0.10452199
-0.4280625
-0.10983035
-0.44828783
-0.11527322
-0.46954019
-0.12084277
-0.49187649
-0.12652771
-0.51535901
-0.13231754
-0.54005165
-0.13819838
-0.56602361
-0.14415532
-0.59334753
-0.15017137
-0.62209956
-0.1562273
-0.65236169
-0.16230145
-0.68421946
-0.1683702
-0.71776418
-0.17440561
-0.75309303
-0.18037735
-0.7903079
-0.18625057
-0.82951867
-0.19198727
-0.87083981
-0.19754372
-0.914395
-0.20287133
-0.96031379
-0.20791513
-1.0087345
-0.21261347
-1.0598026
-0.21689707
-1.1136705
-0.22068871
-1.1705015
-0.22390463
-1.2304643
-0.22644363
-1.2937487
-0.22820579
-1.3605478
-0.22906745
-1.4310773
-0.22889754
-1.5055599
-0.22754899
-1.5842149
-0.22485815
-1.6672879
-0.22064505
-1.7550182
-0.21471231
-1.8476832
-0.20684839
-1.9455479
-0.1967986
-2.0488513
-0.18425731
-2.1581463
-2.2734914
-0.00036893928
-0.047818068
-0.00099870068
-0.059757166
-0.0015385238
-0.058596598
-0.0022266994
-0.063547296
-0.0028431549
-0.065418367
-0.0035974007
-0.069056995
-0.0043104813
-0.072063849
-0.0051138249
-0.075536617
-0.0059393421
-0.079063279
-0.0068323925
-0.082742779
-0.0077625433
-0.086639168
-0.0087456784
-0.09068084
-0.0097814472
-0.094923182
-0.010873883
-0.099351871
-0.012027047
-0.10398338
-0.013244426
-0.1088242
-0.014530882
-0.11388334
-0.015890511
-0.11917133
-0.017328116
-0.12469703
-0.018849093
-0.13047146
-0.020458046
-0.13650543
-0.022161176
-0.14281042
-0.023963694
-0.14939841
-0.025871288
-0.15628301
-0.027890302
-0.16347684
-0.030026364
-0.170995
-0.032286349
-0.1788524
-0.034675798
-0.18706566
-0.037200428
-0.1956524
-0.039866822
-0.20463064
-0.042679967
-0.21402075
-0.045645432
-0.22384366
-0.048767873
-0.23412225
-0.05205239
-0.24488052
-0.055502026
-0.2561447
-0.059120439
-0.26794215
-0.062910736
-0.28030215
-0.066874599
-0.2932563
-0.071013157
-0.30683793
-0.075327067
-0.32108235
-0.079816305
-0.33602672
-0.084479643
-0.3517119
-0.089315557
-0.36817872
-0.094320932
-0.38547286
-0.099492901
-0.40364113
-0.10482698
-0.42273333
-0.11031779
-0.44280229
-0.11595989
-0.46390375
-0.12174541
-0.48609706
-0.127667
-0.50944398
-0.13371474
-0.534011
-0.13987836
-0.55986765
-0.14614626
-0.58708791
-0.1525044
-0.61575041
-0.15893771
-0.64593813
-0.16542844
-0.67773934
-0.1719574
-0.71124679
-0.17850223
-0.74656084
-0.18503771
-0.78378627
-0.19153598
-0.82303561
-0.19796458
-0.86442797
-0.20428791
-0.9080902
-0.21046498
-0.95415725
-0.21645005
-1.0027722
-0.22219133
-1.0540866
-0.22762977
-1.1082602
-0.23269985
-1.1654627
-0.23732916
-1.2258697
-0.2414332
-1.2896831
-0.24492087
-1.3571027
-0.24769396
-1.4283512
-0.24963472
-1.5036708
-0.25061351
-1.5832924
-0.25049469
-1.6674672
-0.24911519
-1.7564609
-0.24630413
-1.8505589
-0.24187992
-1.9500377
-0.23560188
-2.0551915
-0.2272437
-2.1665641
-2.2840708
-0.0003259156
-0.047492568
-0.00093016042
-0.059153326
-0.0014207538
-0.058106441
-0.002063195
-0.062905306
-0.0026352449
-0.064846789
-0.0033611967
-0.06833151
-0.0040411649
-0.071384404
-0.0048288994
-0.074749437
-0.0056151883
-0.07827757
-0.0064623439
-0.081896235
-0.0073504278
-0.085751728
-0.0082908485
-0.089741098
-0.0092861454
-0.0939286
-0.010339745
-0.098299025
-0.011456097
-0.10286783
-0.012639782
-0.10764135
-0.01389476
-0.11262925
-0.015227011
-0.11784001
-0.016641362
-0.12328366
-0.018143486
-0.12897037
-0.019739218
-0.1349108
-0.021434553
-0.14111624
-0.023235788
-0.1475984
-0.02515015
-0.15436994
-0.027183096
-0.16144526
-0.029342089
-0.16883746
-0.031633247
-0.17656277
-0.034063373
-0.18463716
-0.036638945
-0.19307854
-0.039365991
-0.20190541
-0.042250207
-0.21113845
-0.045297299
-0.2207986
-0.048512358
-0.23090935
-0.051899405
-0.24149576
-0.055462648
-0.25258389
-0.059205566
-0.26420181
-0.063130325
-0.27638013
-0.067239178
-0.28915036
-0.071533467
-0.30254674
-0.076013783
-0.31660534
-0.08068
-0.33136403
-0.085532156
-0.34686351
-0.090568229
-0.36314666
-0.095786723
-0.38025867
-0.10118523
-0.39824723
-0.1067605
-0.417163
-0.11250905
-0.43705907
-0.11842666
-0.45799187
-0.12450823
-0.48002167
-0.13074806
-0.50321082
-0.13713986
-0.52762641
-0.14367562
-0.55333972
-0.15034699
-0.58042502
-0.15714397
-0.60896266
-0.1640555
-0.63903664
-0.17106885
-0.67073693
-0.17816884
-0.70415876
-0.18533882
-0.73940396
-0.19255971
-0.77657976
-0.19980953
-0.81580163
-0.20706333
-0.85719166
-0.21429273
-0.90088017
-0.22146512
-0.94700637
-0.22854402
-0.99571723
-0.23548686
-1.0471704
-0.2422465
-1.1015302
-0.24876847
-1.1589737
-0.25499077
-1.2196841
-0.26084702
-1.2838675
-0.26626442
-1.3517303
-0.2711489
-1.4235165
-0.27541276
-1.4994616
-0.2789414
-1.5798234
-0.28161768
-1.6648549
-0.28330725
-1.7548383
-0.28386753
-1.8500675
-0.2831377
-1.9508377
-0.28090318
-2.0574926
-0.27698982
-2.1705438
-2.289833
-0.0002840755
-0.047208889
-0.00086921163
-0.058568579
-0.0013189137
-0.057657157
-0.0019375044
-0.06228715
-0.0024866641
-0.064298085
-0.0031909763
-0.067627658
-0.0038437601
-0.070732125
-0.0046073243
-0.073986399
-0.0053636754
-0.077521779
-0.0061785882
-0.081081913
-0.0070397849
-0.084891153
-0.0079539351
-0.088827604
-0.0089259345
-0.092957292
-0.0099591948
-0.097266495
-0.011058791
-0.101769
-0.012229551
-0.1064714
-0.013477136
-0.11138252
-0.014806954
-0.1165111
-0.01622501
-0.12186656
-0.017738066
-0.12745833
-0.019352148
-0.13329778
-0.021074768
-0.13939475
-0.022912279
-0.14576208
-0.024872047
-0.15241144
-0.02696162
-0.15935702
-0.029187747
-0.16661274
-0.031557919
-0.17419409
-0.034078954
-0.18211771
-0.036757242
-0.19040193
-0.039599535
-0.19906489
-0.042611837
-0.20812803
-0.04579915
-0.21761328
-0.0491663
-0.22754431
-0.052718043
-0.23794626
-0.056458013
-0.2488463
-0.060388943
-0.26027342
-0.064513701
-0.27225807
-0.068834159
-0.28483278
-0.073351375
-0.29803259
-0.078066459
-0.31189353
-0.082979458
-0.32645453
-0.088090104
-0.3417566
-0.093398187
-0.35784259
-0.098903128
-0.37475803
-0.10460333
-0.39255166
-0.11049745
-0.41127386
-0.11658351
-0.43097837
-0.12285942
-0.45172175
-0.12932277
-0.47356458
-0.13597014
-0.49657023
-0.14279832
-0.52080558
-0.14980313
-0.54634289
-0.15697941
-0.57325743
-0.16432172
-0.60162981
-0.17182294
-0.63154574
-0.17947519
-0.66309597
-0.18726836
-0.69637795
-0.19519204
-0.73149385
-0.20323265
-0.76855409
-0.21137484
-0.80767593
-0.21960124
-0.84898352
-0.22789119
-0.89261048
-0.23622098
-0.93869913
-0.24456248
-0.98740085
-0.25288472
-1.0388762
-0.26115038
-1.0932958
-0.26931849
-1.1508404
-0.27733888
-1.2117024
-0.28515994
-1.2760894
-0.29271772
-1.3442202
-0.29994839
-1.4163384
-0.30677308
-1.4926948
-0.31310414
-1.5735554
-0.31883832
-1.6591884
-0.32386736
-1.7498804
-0.32807577
-1.8459327
-0.3313254
-1.9476631
-0.3334405
-2.0554492
-0.33427315
-2.1697846
-2.2904555
-0.00024608626
-0.046963181
-0.00082022543
-0.057994813
-0.0012401763
-0.057237608
-0.001882932
-0.061644811
-0.0024175388
-0.063763918
-0.0030972528
-0.066948412
-0.003727381
-0.070102484
-0.0044496109
-0.073264687
-0.0051925834
-0.076779348
-0.0059920521
-0.080283015
-0.0068435786
-0.084040228
-0.0077499419
-0.087921876
-0.008718296
-0.091989607
-0.0097525641
-0.096232933
-0.010858504
-0.1006638
-0.012041874
-0.10528882
-0.013308906
-0.11011632
-0.014666278
-0.11515461
-0.01612077
-0.120413
-0.017679078
-0.125901
-0.019349801
-0.1316281
-0.021139364
-0.13760628
-0.023056595
-0.14384601
-0.025108734
-0.15036052
-0.027303561
-0.15716349
-0.02964911
-0.16426857
-0.032152716
-0.17169194
-0.03482128
-0.17945068
-0.037662125
-0.18756272
-0.040681152
-0.19604759
-0.043883871
-0.20492715
-0.047275861
-0.21422324
-0.050861476
-0.22396076
-0.054644852
-0.23416508
-0.058629218
-0.24486428
-0.062817345
-0.25608778
-0.067211438
-0.26786663
-0.071813183
-0.28023386
-0.076624318
-0.29322448
-0.081645524
-0.30687556
-0.086877719
-0.3212258
-0.092321686
-0.33631636
-0.097977911
-0.35219036
-0.10384642
-0.36889382
-0.10992806
-0.38647465
-0.11622335
-0.40498356
-0.12273229
-0.42447483
-0.12945533
-0.44500456
-0.1363927
-0.46663356
-0.14354463
-0.48942518
-0.15091043
-0.51344726
-0.15849037
-0.53877111
-0.16628303
-0.56547366
-0.17428699
-0.59363557
-0.18250028
-0.62334307
-0.19091971
-0.65468819
-0.1995415
-0.68776895
-0.2083601
-0.72268932
-0.21736912
-0.7595606
-0.22656036
-0.79850186
-0.23592308
-0.83963987
-0.24544534
-0.88310942
-0.25511208
-0.92905603
-0.2649057
-0.97763361
-0.27480446
-1.0290068
-0.28478306
-1.08335
-0.29481142
-1.1408487
-0.30485598
-1.2016986
-0.31487543
-1.2661154
-0.32482645
-1.3343195
-0.33466123
-1.4065593
-0.34431462
-1.4831025
-0.35372379
-1.5642129
-0.36280904
-1.6501748
-0.37148553
-1.7412794
-0.37965674
-1.8378402
-0.38722104
-1.9401794
-0.39402869
-2.048719
-0.39997095
-2.1639234
-2.2855854
-0.00021221227
-0.04675133
-0.00078688636
-0.057420497
-0.0011840253
-0.056840854
-0.0018447083
-0.060984522
-0.0023577745
-0.063251274
-0.0030285233
-0.066278109
-0.0036520063
-0.069479469
-0.004369265
-0.072547921
-0.0051149797
-0.076034153
-0.005914871
-0.079483673
-0.0067742273
-0.083181451
-0.0076931355
-0.087003579
-0.0086800883
-0.091003299
-0.0097398945
-0.095173808
-0.010879219
-0.099525199
-0.012104769
-0.10406403
-0.013423706
-0.10879818
-0.014843347
-0.11373581
-0.016372097
-0.11888514
-0.018017848
-0.1242562
-0.019788831
-0.12985812
-0.021693912
-0.13570226
-0.023741179
-0.14179986
-0.02593928
-0.14816361
-0.028296865
-0.15480716
-0.030821264
-0.1617455
-0.033520238
-0.16899437
-0.036401002
-0.17657141
-0.039470236
-0.18449506
-0.042733099
-0.19278641
-0.046195947
-0.20146608
-0.049862566
-0.21055851
-0.05373767
-0.22008767
-0.057823981
-0.23008092
-0.062124267
-0.24056627
-0.066641421
-0.25157306
-0.07137733
-0.26313332
-0.0763335
-0.27528048
-0.081511648
-0.28804931
-0.086913566
-0.30147684
-0.092540758
-0.31560204
-0.09839501
-0.3304658
-0.10447799
-0.34611136
-0.11079227
-0.36258383
-0.11734022
-0.37993134
-0.12412419
-0.39820461
-0.13114784
-0.41745663
-0.13841365
-0.43774466
-0.14592563
-0.459128
-0.15368711
-0.48167069
-0.16170196
-0.50544005
-0.16997307
-0.53050832
-0.17850431
-0.55695153
-0.18729901
-0.58485085
-0.19635973
-0.61429329
-0.20568894
-0.64537101
-0.21528873
-0.6781824
-0.22515984
-0.71283281
-0.23530239
-0.74943421
-0.24571509
-0.78810708
-0.25639644
-0.82897844
-0.26734179
-0.87218628
-0.2785457
-0.91787692
-0.29000035
-0.96620666
-0.30169519
-1.017343
-0.31361672
-1.0714631
-0.32574813
-1.1287559
-0.33806686
-1.1894229
-0.35055133
-1.2536788
-0.36317196
-1.321752
-0.37589219
-1.3938978
-0.38868195
-1.4703774
-0.40148699
-1.5514783
-0.41425167
-1.6374859
-0.42691176
-1.7286996
-0.43940937
-1.8254267
-0.45165827
-1.928017
-0.46355638
-2.0369049
-0.47502002
-2.1525499
-2.2748135
-0.00019089277
-0.046560783
-0.00078476797
-0.056826966
-0.0011779531
-0.056448038
-0.0018311699
-0.060331688
-0.0023370897
-0.06274576
-0.0030136545
-0.065601967
-0.0036521784
-0.068841394
-0.0043762181
-0.071824355
-0.0051436511
-0.07526722
-0.0059649668
-0.078662885
-0.0068538745
-0.082293099
-0.0078095465
-0.086048495
-0.0088415545
-0.089971911
-0.0099559539
-0.094060064
-0.01116045
-0.098321394
-0.012462913
-0.1027623
-0.013871763
-0.1073901
-0.015395804
-0.11221259
-0.017043627
-0.11723818
-0.018825133
-0.1224756
-0.020749073
-0.12793514
-0.022825048
-0.1336273
-0.02506181
-0.13956418
-0.027468379
-0.14575818
-0.030053185
-0.15222356
-0.032824199
-0.15897576
-0.035788338
-0.16603159
-0.038952636
-0.17340854
-0.042322454
-0.18112677
-0.045903695
-0.18920678
-0.04970008
-0.19767142
-0.053715673
-0.20654475
-0.057953714
-0.21585158
-0.062416721
-0.22561999
-0.067107112
-0.23587811
-0.072027077
-0.24665548
-0.077178269
-0.25798468
-0.082563118
-0.26989836
-0.088183542
-0.28243182
-0.094042246
-0.29562129
-0.10014211
-0.30950558
-0.10648649
-0.32412508
-0.11307955
-0.33952227
-0.11992552
-0.35574214
-0.12702925
-0.37283225
-0.13439669
-0.39084221
-0.14203365
-0.40982516
-0.14994677
-0.4298375
-0.15814279
-0.4509385
-0.1666292
-0.47319139
-0.17541354
-0.49666348
-0.1845043
-0.52142608
-0.1939092
-0.54755598
-0.2036366
-0.5751337
-0.2136943
-0.60424687
-0.22409113
-0.63498659
-0.23483434
-0.6674529
-0.24593168
-0.70175064
-0.25739042
-0.73799229
-0.26921738
-0.77629882
-0.28141814
-0.81679852
-0.29399794
-0.85962975
-0.30696068
-0.90494019
-0.32030885
-0.9528876
-0.3340435
-1.0036409
-0.3481632
-1.0573798
-0.36266378
-1.114296
-0.37753818
-1.1745939
-0.39278056
-1.2384869
-0.40837336
-1.3062153
-0.42430773
-1.3780255
-0.44056027
-1.4541931
-0.45710943
-1.5350036
-0.47392425
-1.6207512
-0.49096081
-1.7117483
-0.50817925
-1.8082983
-0.5255302
-1.910759
-0.5429612
-2.0195647
-0.56040714
-2.1352032
-2.2576732
-0.00017252203
-0.046388589
-0.00079509299
-0.056204722
-0.0011950542
-0.056048427
-0.0018591331
-0.059667973
-0.0023776908
-0.062227588
-0.0030689077
-0.064911158
-0.0037379347
-0.068172796
-0.0044856014
-0.071077141
-0.0052931527
-0.074460145
-0.0061584032
-0.077798138
-0.0071010296
-0.081351004
-0.0081209547
-0.085029131
-0.0092284954
-0.088864962
-0.010431352
-0.092857833
-0.011738553
-0.097014852
-0.013159401
-0.10134215
-0.014703616
-0.10584663
-0.016381268
-0.11053571
-0.018202585
-0.11541768
-0.020177454
-0.1205016
-0.02231623
-0.12579728
-0.024628454
-0.13131605
-0.027123255
-0.1370704
-0.029809745
-0.14307278
-0.032695627
-0.14933883
-0.035788111
-0.1558845
-0.039094321
-0.16272667
-0.04261904
-0.1698852
-0.046367416
-0.17737986
-0.050343298
-0.18523246
-0.05455004
-0.19346634
-0.058990632
-0.20210593
-0.063666397
-0.21117771
-0.068580544
-0.22070787
-0.073734494
-0.23072633
-0.079130197
-0.2412621
-0.084770555
-0.25234681
-0.090657868
-0.26401373
-0.096796347
-0.27629623
-0.1031898
-0.28923095
-0.10984292
-0.30285583
-0.11676128
-0.31721037
-0.12395163
-0.33233587
-0.13142092
-0.34827714
-0.13917726
-0.36508058
-0.14722963
-0.38279491
-0.15558742
-0.40147291
-0.16426081
-0.42117016
-0.17326103
-0.44194489
-0.18259932
-0.46386034
-0.19228811
-0.48698262
-0.20233934
-0.51138358
-0.21276695
-0.53713795
-0.22358385
-0.56432735
-0.23480445
-0.5930379
-0.24644225
-0.62336164
-0.25851224
-0.65539714
-0.27102862
-0.68925004
-0.28400583
-0.7250326
-0.29745919
-0.76286499
-0.31140252
-0.80287699
-0.32585045
-0.84520621
-0.34081716
-0.89000078
-0.3563161
-0.93741925
-0.3723595
-0.98763174
-0.38895915
-1.0408185
-0.40612524
-1.0971728
-0.42386697
-1.1569
-0.44218836
-1.2202188
-0.46109657
-1.2873663
-0.48059541
-1.3585921
-0.50068933
-1.4341712
-0.52137562
-1.5143958
-0.5426419
-1.5995695
-0.56448127
-1.6899993
-0.58686809
-1.7860075
-0.60979134
-1.8879353
-0.63323143
-1.9962233
-0.65716925
-2.111375
-2.233621
-0.00015854631
-0.046230353
-0.00082295011
-0.055540628
-0.001236696
-0.055635015
-0.0019308546
-0.058974161
-0.0024796581
-0.061679152
-0.0031995303
-0.064191671
-0.0039193827
-0.067453351
-0.0047117443
-0.070285209
-0.0055822784
-0.073590064
-0.0065185411
-0.076862354
-0.0075441402
-0.080325909
-0.0086611843
-0.08391262
-0.0098810492
-0.087645658
-0.011213498
-0.091525978
-0.012669085
-0.095559892
-0.014258855
-0.099753041
-0.015993908
-0.10411227
-0.017885435
-0.10864493
-0.019944506
-0.11335939
-0.022181865
-0.11826507
-0.024607548
-0.12337247
-0.027231407
-0.12869312
-0.030062543
-0.13424025
-0.033108394
-0.14002796
-0.036376395
-0.14607193
-0.039872425
-0.15238964
-0.043601276
-0.15899906
-0.047567213
-0.16592059
-0.051773321
-0.17317516
-0.056221912
-0.18078537
-0.060914727
-0.18877512
-0.065853849
-0.19716852
-0.071040742
-0.20599265
-0.076477181
-0.2152734
-0.082165679
-0.22503994
-0.088108941
-0.23532111
-0.094310473
-0.24614773
-0.1007754
-0.25755144
-0.10750816
-0.26956632
-0.11451586
-0.28222634
-0.12180544
-0.29556959
-0.12938628
-0.30963316
-0.13726686
-0.32445923
-0.14545806
-0.34009024
-0.1539719
-0.35657143
-0.16282008
-0.37395184
-0.17201635
-0.39228224
-0.18157521
-0.41161743
-0.19151143
-0.43201539
-0.20184142
-0.45353772
-0.21258155
-0.47625061
-0.22375018
-0.50022388
-0.23536487
-0.5255331
-0.24744489
-0.55225819
-0.26001047
-0.58048433
-0.2730819
-0.61030351
-0.28668009
-0.64181371
-0.30082761
-0.67511892
-0.3155467
-0.7103318
-0.33085994
-0.74757216
-0.34679124
-0.78696851
-0.36336505
-0.82865798
-0.38060579
-0.87278869
-0.39853785
-0.91951932
-0.41718723
-0.96901837
-0.4365785
-1.0214676
-0.45673599
-1.0770604
-0.47768358
-1.1360028
-0.4994435
-1.1985151
-0.52204192
-1.2648303
-0.54550123
-1.3352018
-0.56984401
-1.4099043
-0.59509369
-1.4892289
-0.6212715
-1.5734812
-0.64838504
-1.6629817
-0.67644157
-1.7580534
-0.70544641
-1.8590372
-0.73543479
-1.9663425
-0.76641974
-2.0805115
-2.2020316
-0.00015058303
-0.046080063
-0.00087566832
-0.054815835
-0.0013085511
-0.055202446
-0.0020464307
-0.058236608
-0.0026461259
-0.061079803
-0.003412649
-0.063425513
-0.0042063611
-0.066660023
-0.0050682561
-0.069423721
-0.0060274368
-0.07263131
-0.0070660293
-0.075824214
-0.0082097158
-0.079182698
-0.0094641673
-0.082658672
-0.010842253
-0.086268103
-0.012355772
-0.09001302
-0.014017068
-0.093899186
-0.01583845
-0.097932285
-0.017832178
-0.1021192
-0.020010079
-0.10646772
-0.022383599
-0.11098661
-0.024963404
-0.11568604
-0.027759453
-0.12057725
-0.030780332
-0.12567311
-0.034033566
-0.13098794
-0.037525864
-0.13653665
-0.041261855
-0.14233699
-0.045245823
-0.14840678
-0.049479927
-0.15476614
-0.053966305
-0.16143547
-0.058706366
-0.16843644
-0.06370082
-0.17579236
-0.06895094
-0.18352654
-0.074457602
-0.19166352
-0.080222988
-0.20022904
-0.08624932
-0.20924897
-0.092540476
-0.21875084
-0.099100422
-0.22876338
-0.10593542
-0.23931513
-0.11305169
-0.25043777
-0.12045826
-0.26216258
-0.12816362
-0.27452404
-0.13617949
-0.28755705
-0.14451651
-0.30129976
-0.15318843
-0.31579126
-0.1622097
-0.33107329
-0.17159515
-0.34719069
-0.1813614
-0.36419076
-0.19152606
-0.38212325
-0.20210767
-0.40104204
-0.21312616
-0.42100373