/*--------------------------------*- C++ -*----------------------------------*\
  =========                 |
  \\      /  F ield         | OpenFOAM: The Open Source CFD Toolbox
   \\    /   O peration     | Website:  https://openfoam.org
    \\  /    A nd           | Version:  12
     \\/     M anipulation  |
\*---------------------------------------------------------------------------*/
FoamFile
{
    format      ascii;
    class       volScalarField;
    location    "0.145";
    object      nut;
}
// * * * * * * * * * * * * * * * * * * * * * * * * * * * * * * * * * * * * * //

dimensions      [0 2 -1 0 0 0 0];

internalField   nonuniform List<scalar> 
16000
(
4.7012125e-07
9.8868703e-06
1.9943458e-05
2.3543279e-05
1.823551e-05
2.5021515e-05
1.768726e-05
2.4210185e-05
1.889016e-05
2.600865e-05
2.1898639e-05
2.5712234e-05
2.3445946e-05
2.4065193e-05
2.32513e-05
2.3116515e-05
2.287278e-05
2.2804739e-05
2.2813861e-05
2.291996e-05
2.3115871e-05
2.3400729e-05
2.3772065e-05
2.4229872e-05
2.4776263e-05
2.541699e-05
2.6159868e-05
2.7017409e-05
2.8004857e-05
2.9138599e-05
3.0436594e-05
3.1922735e-05
3.3627892e-05
3.5590117e-05
3.7856242e-05
4.0482128e-05
4.3534309e-05
4.7092109e-05
5.1253729e-05
5.614086e-05
6.1896255e-05
6.8687972e-05
7.6727956e-05
8.6275839e-05
9.7640536e-05
0.00011119246
0.00012739094
0.00014679567
0.00017008815
0.000198099
0.00023184511
0.00027257421
0.00032181207
0.00038142872
0.00045371676
0.00054149822
0.00064825709
0.00077831334
0.00093706037
0.0010201409
0.001019956
0.0010197162
0.0010194248
0.0010190479
0.0010185853
0.0010180277
0.0010173665
0.0010165954
0.0010157154
0.0010147338
0.0010136481
0.0010124182
0.0010110183
0.0010097574
0.0010087676
0.0010079009
0.0010069736
0.0010065534
0.0010055833
0.0010064386
4.1432735e-07
9.386217e-06
1.9787484e-05
2.1350097e-05
1.6484658e-05
2.2459747e-05
1.5731996e-05
2.1232649e-05
1.6726969e-05
2.3013694e-05
1.9865636e-05
2.3220366e-05
2.1475597e-05
2.1839036e-05
2.1202158e-05
2.1016373e-05
2.0812576e-05
2.0739793e-05
2.0749946e-05
2.0846396e-05
2.1026957e-05
2.1290432e-05
2.163494e-05
2.2060531e-05
2.2568859e-05
2.3165296e-05
2.385661e-05
2.4654073e-05
2.5572111e-05
2.6626712e-05
2.7834588e-05
2.9217567e-05
3.0804217e-05
3.2629775e-05
3.4738062e-05
3.7181613e-05
4.0023415e-05
4.3338014e-05
4.7216878e-05
5.1775232e-05
5.7150295e-05
6.3500303e-05
7.1024856e-05
7.9971545e-05
9.0637147e-05
0.00010337379
0.00011861966
0.00013691055
0.00015890032
0.00018538644
0.00021734555
0.00025597938
0.00030275951
0.00035949292
0.00042839683
0.00051220323
0.00061428888
0.00073883578
0.00089104888
0.0010194614
0.0010193061
0.0010190545
0.0010187586
0.0010183779
0.0010179123
0.0010173532
0.0010166933
0.0010159272
0.0010150559
0.0010140852
0.0010130145
0.0010118085
0.0010104346
0.0010092145
0.0010082604
0.0010074099
0.0010065588
0.0010058944
0.0010053003
0.0010062226
3.724606e-07
8.9996183e-06
1.8743273e-05
1.9579902e-05
1.4785903e-05
1.981081e-05
1.4029738e-05
1.8488816e-05
1.506215e-05
2.0229325e-05
1.8138886e-05
2.0709731e-05
1.9480355e-05
1.9585477e-05
1.9093932e-05
1.8886792e-05
1.8714617e-05
1.8647004e-05
1.8660187e-05
1.8751365e-05
1.891968e-05
1.9164294e-05
1.9483627e-05
1.9877958e-05
2.0348588e-05
2.0900687e-05
2.1540293e-05
2.2277612e-05
2.3126087e-05
2.4101302e-05
2.5219132e-05
2.6499763e-05
2.7969854e-05
2.9662199e-05
3.1617937e-05
3.3886523e-05
3.6527786e-05
3.9612505e-05
4.3226469e-05
4.7478398e-05
5.2500939e-05
5.8444725e-05
6.5498716e-05
7.389916e-05
8.393306e-05
9.59376e-05
0.00011033304
0.00012763494
0.00014847393
0.00017362028
0.00020401699
0.0002408273
0.00028547721
0.00033972093
0.00040571259
0.00048610805
0.0005841933
0.00070404126
0.00085071152
0.0010188173
0.0010186911
0.0010184213
0.0010181119
0.0010177194
0.0010172434
0.0010166763
0.0010160113
0.0010152447
0.0010143771
0.0010134119
0.0010123477
0.0010111556
0.0010098045
0.0010086377
0.0010077248
0.0010069122
0.0010060877
0.0010053308
0.0010048815
0.0010055217
3.421711e-07
8.7101949e-06
1.7816167e-05
1.8194007e-05
1.3308794e-05
1.7517462e-05
1.2518454e-05
1.6180946e-05
1.3573499e-05
1.7854521e-05
1.6575775e-05
1.8476018e-05
1.7630486e-05
1.7547329e-05
1.7164915e-05
1.6957083e-05
1.6813068e-05
1.6755837e-05
1.6774896e-05
1.6864383e-05
1.7024023e-05
1.7253413e-05
1.7551312e-05
1.7918358e-05
1.8355624e-05
1.8868229e-05
1.9461733e-05
2.0145503e-05
2.0932052e-05
2.1836642e-05
2.2874597e-05
2.4064715e-05
2.5432106e-05
2.7007465e-05
2.8829663e-05
3.0945499e-05
3.3412071e-05
3.629721e-05
3.968219e-05
4.366967e-05
4.8388785e-05
5.3984406e-05
6.0636944e-05
6.8572555e-05
7.807117e-05
8.9458455e-05
0.00010314047
0.00011961706
0.0001395009
0.00016354233
0.00019265877
0.00022798522
0.00027091423
0.00032316237
0.00038683957
0.00046454863
0.00055951246
0.00067573094
0.00081817348
0.00099301681
0.0010181159
0.001017824
0.0010174953
0.0010170863
0.001016596
0.0010160175
0.0010153447
0.0010145742
0.0010137067
0.0010127428
0.001011679
0.0010104947
0.0010091582
0.0010080476
0.0010071792
0.0010064062
0.0010055913
0.0010047891
0.0010044441
0.0010047162
3.0692651e-07
8.4953492e-06
1.7001708e-05
1.8206319e-05
1.3283885e-05
1.5509781e-05
1.1187957e-05
1.4194011e-05
1.229052e-05
1.5799478e-05
1.5181531e-05
1.6457829e-05
1.5899458e-05
1.5688928e-05
1.5387445e-05
1.5192851e-05
1.5072231e-05
1.5026031e-05
1.5049826e-05
1.5137054e-05
1.5287659e-05
1.5501839e-05
1.5778745e-05
1.6119479e-05
1.6525025e-05
1.7000527e-05
1.7551207e-05
1.818577e-05
1.8915809e-05
1.9756215e-05
2.0721956e-05
2.1830673e-05
2.3106191e-05
2.4577395e-05
2.6281198e-05
2.8262087e-05
3.0574715e-05
3.3284522e-05
3.6469395e-05
4.0226224e-05
4.4681175e-05
4.9974804e-05
5.628084e-05
6.381596e-05
7.2854727e-05
8.3713832e-05
9.6787631e-05
0.00011256306
0.00013163798
0.00015474724
0.00018278728
0.00021687059
0.00025836259
0.0003089498
0.00037070721
0.00044619548
0.00053858741
0.0006518248
0.00079080715
0.00096161727
0.0010175762
0.0010172586
0.0010169049
0.0010164744
0.0010159658
0.0010153724
0.0010146881
0.0010139097
0.0010130379
0.0010120708
0.0010110009
0.0010098183
0.0010085031
0.0010074518
0.00100663
0.0010058951
0.0010050896
0.0010042771
0.0010039551
0.001003932
2.7523059e-07
8.3655527e-06
1.6348285e-05
1.7983825e-05
1.3074343e-05
1.3750066e-05
1.0581312e-05
1.2549269e-05
1.1398395e-05
1.4063998e-05
1.3957569e-05
1.4682099e-05
1.4315346e-05
1.4029841e-05
1.3779596e-05
1.3600361e-05
1.3494946e-05
1.3455684e-05
1.3480632e-05
1.3563433e-05
1.3704001e-05
1.3903045e-05
1.415995e-05
1.44762e-05
1.4852759e-05
1.5294782e-05
1.5807208e-05
1.6398224e-05
1.7078528e-05
1.7862609e-05
1.8765245e-05
1.9803142e-05
2.0999111e-05
2.238053e-05
2.3982707e-05
2.5848213e-05
2.8029632e-05
3.0590501e-05
3.360654e-05
3.7169663e-05
4.1403322e-05
4.6445258e-05
5.2464901e-05
5.9670342e-05
6.833263e-05
7.8762477e-05
9.1345488e-05
0.00010655935
0.00012499078
0.00014736476
0.00017456261
0.00020768172
0.00024806891
0.00029739076
0.00035770014
0.00043153083
0.00052202341
0.00063308296
0.00076956776
0.00093750625
0.0010170665
0.00101672
0.0010163366
0.0010158807
0.0010153503
0.0010147388
0.0010140399
0.0010132499
0.001012369
0.0010113942
0.0010103125
0.0010091243
0.0010078428
0.0010068532
0.0010060793
0.0010053807
0.0010045902
0.0010037836
0.0010034268
0.0010032277
2.5092441e-07
8.2948939e-06
1.5839459e-05
1.7022209e-05
1.2970941e-05
1.2155771e-05
1.0633173e-05
1.1565647e-05
1.0989643e-05
1.2560248e-05
1.2855679e-05
1.3110303e-05
1.284345e-05
1.2525163e-05
1.2303968e-05
1.2140187e-05
1.2046022e-05
1.2012524e-05
1.2038288e-05
1.211749e-05
1.2249702e-05
1.2436068e-05
1.267596e-05
1.2894959e-05
1.3237454e-05
1.3642756e-05
1.4115051e-05
1.4661814e-05
1.5292664e-05
1.6021352e-05
1.686243e-05
1.7831697e-05
1.8951024e-05
2.0246349e-05
2.175149e-05
2.3507255e-05
2.5564284e-05
2.7984237e-05
3.084142e-05
3.4481851e-05
3.8535374e-05
4.337362e-05
4.916414e-05
5.6107648e-05
6.4472731e-05
7.4567036e-05
8.6770302e-05
0.00010155429
0.00011949772
0.00014132091
0.00016789531
0.00020030983
0.00023990038
0.0002883225
0.00034761808
0.00042030744
0.00050951463
0.00061912612
0.00075398217
0.00092008958
0.0010165827
0.0010162043
0.0010157873
0.0010153024
0.001014747
0.0010141147
0.0010133983
0.0010125929
0.0010116979
0.0010107105
0.0010096127
0.0010084088
0.0010071845
0.0010062583
0.0010055318
0.0010048689
0.0010041006
0.0010033138
0.0010029217
0.0010025796
2.3218854e-07
8.253392e-06
1.5403646e-05
1.548986e-05
1.1884932e-05
1.0597088e-05
9.1924597e-06
1.0326639e-05
9.6528396e-06
1.1292482e-05
1.1742867e-05
1.1663247e-05
1.1435759e-05
1.1125444e-05
1.0928155e-05
1.0784345e-05
1.0703884e-05
1.0679072e-05
1.0643581e-05
1.0706468e-05
1.0822367e-05
1.0991478e-05
1.1211607e-05
1.1482898e-05
1.1809509e-05
1.2194431e-05
1.2642157e-05
1.3160098e-05
1.3757329e-05
1.4447175e-05
1.524438e-05
1.6164255e-05
1.7228219e-05
1.846129e-05
1.9896403e-05
2.1573242e-05
2.3541257e-05
2.5860933e-05
2.8606045e-05
3.186639e-05
3.5751408e-05
4.0399674e-05
4.5978684e-05
5.312732e-05
6.127549e-05
7.1129212e-05
8.3065586e-05
9.755367e-05
0.00011516747
0.0001366282
0.0001628029
0.00019477909
0.00023389004
0.00028178974
0.00034052095
0.0004126051
0.0005011667
0.0006100934
0.00074423124
0.00090959892
0.0010161196
0.0010157066
0.0010152527
0.0010147359
0.0010141528
0.0010134968
0.0010127602
0.0010119361
0.0010110223
0.0010100168
0.0010089013
0.0010076713
0.0010065325
0.001005671
0.0010049913
0.0010043648
0.0010036293
0.0010028647
0.0010024411
0.0010020306
2.1039329e-07
8.2129792e-06
1.4949551e-05
1.3561053e-05
9.7713302e-06
9.4213669e-06
7.5783786e-06
8.8082082e-06
8.9851662e-06
1.0156482e-05
1.0610667e-05
1.0314652e-05
1.0105924e-05
9.8273031e-06
9.6544051e-06
9.4662075e-06
9.3765165e-06
9.3473208e-06
9.3717169e-06
9.4465308e-06
9.5676506e-06
9.7367692e-06
9.9527026e-06
1.0215484e-05
1.0529238e-05
1.0897866e-05
1.1325905e-05
1.18208e-05
1.2391257e-05
1.3050151e-05
1.3812512e-05
1.469339e-05
1.5714034e-05
1.6898818e-05
1.8280124e-05
1.9896949e-05
2.1798014e-05
2.4043143e-05
2.670544e-05
2.9873834e-05
3.3658009e-05
3.8194407e-05
4.3653119e-05
5.0231279e-05
5.8181684e-05
6.781882e-05
8.022258e-05
9.454803e-05
0.00011198997
0.0001332758
0.00015927406
0.00019107794
0.00023002653
0.00027778201
0.00033640003
0.00040841813
0.00049697895
0.00060599161
0.00074033138
0.0009060608
0.0010156721
0.001015222
0.0010147288
0.0010141775
0.0010135641
0.0010128819
0.0010121222
0.0010112768
0.0010103399
0.0010093102
0.0010081785
0.0010069325
0.0010058915
0.001005096
0.0010044626
0.001003874
0.0010031862
0.0010024559
0.0010020005
0.0010014542
1.9376228e-07
8.1717924e-06
1.3437563e-05
1.1810535e-05
7.9017639e-06
8.3737877e-06
6.7396414e-06
7.946479e-06
8.316554e-06
9.0812131e-06
9.4877985e-06
9.0831017e-06
8.8810031e-06
8.5557404e-06
8.3739222e-06
8.2557534e-06
8.1985189e-06
8.1934931e-06
8.234287e-06
8.31976e-06
8.4475576e-06
8.6169848e-06
8.8299235e-06
9.0863549e-06
9.3906248e-06
9.7470219e-06
1.0160239e-05
1.0637874e-05
1.1188403e-05
1.1824283e-05
1.2560876e-05
1.3413275e-05
1.4402776e-05
1.5553378e-05
1.6897225e-05
1.8473017e-05
2.0329172e-05
2.2525371e-05
2.5134948e-05
2.8247152e-05
3.1971652e-05
3.6444368e-05
4.1838369e-05
4.8350725e-05
5.6236302e-05
6.5811385e-05
7.7465918e-05
9.1657511e-05
0.00010996286
0.00013126318
0.00015731126
0.00018921296
0.00022832233
0.00027631997
0.00033528714
0.00040779333
0.00049701831
0.00060691488
0.00074241216
0.00090964765
0.0010152348
0.0010147452
0.0010142108
0.0010136228
0.0010129768
0.001012266
0.0010114809
0.0010106114
0.0010096489
0.001008589
0.0010074398
0.0010062156
0.0010052658
0.0010045376
0.0010039508
0.0010034017
0.0010027742
0.0010020914
0.0010015892
0.0010009713
1.7891521e-07
8.1256744e-06
1.0674455e-05
9.7989316e-06
6.4897973e-06
7.4537957e-06
6.141021e-06
7.1367975e-06
7.775333e-06
8.1037462e-06
8.3847644e-06
7.8757412e-06
7.6275141e-06
7.3994591e-06
7.2634654e-06
7.1830027e-06
7.1531408e-06
7.1693028e-06
7.2254942e-06
7.3208381e-06
7.4532619e-06
7.6246947e-06
7.8366216e-06
8.0895099e-06
8.387795e-06
8.7361985e-06
9.1396773e-06
9.6060392e-06
1.0143721e-05
1.0764833e-05
1.1426212e-05
1.2251085e-05
1.3211062e-05
1.4329745e-05
1.5639027e-05
1.7177344e-05
1.8992877e-05
2.1145209e-05
2.3708024e-05
2.6771163e-05
3.0445279e-05
3.5140837e-05
4.0526298e-05
4.7040481e-05
5.494046e-05
6.4545517e-05
7.6256317e-05
9.0540879e-05
0.00010798958
0.0001293385
0.00015691231
0.0001891863
0.00022878567
0.00027742022
0.00033721023
0.00041077415
0.0005013492
0.00061295614
0.00075060474
0.00092053773
0.0010148021
0.0010142711
0.001013694
0.0010130676
0.001012387
0.0010116452
0.0010108323
0.0010099365
0.0010089468
0.0010078539
0.0010066774
0.0010055239
0.0010046608
0.001004
0.0010034613
0.0010029536
0.0010023905
0.0010017662
0.001001227
0.0010006065
1.6560412e-07
8.0785497e-06
8.4204112e-06
8.3341098e-06
5.7065407e-06
6.5986231e-06
5.6350951e-06
6.4283048e-06
7.2226734e-06
7.189821e-06
7.1885331e-06
6.7552237e-06
6.551694e-06
6.3826374e-06
6.2856217e-06
6.2366703e-06
6.2311051e-06
6.2647496e-06
6.3341995e-06
6.4391505e-06
6.5782179e-06
6.7531061e-06
6.9663039e-06
7.2187426e-06
7.5149423e-06
7.826159e-06
8.2183168e-06
8.6726761e-06
9.1975397e-06
9.804581e-06
1.0507858e-05
1.1325674e-05
1.2278654e-05
1.3390469e-05
1.4693304e-05
1.6225989e-05
1.8037288e-05
2.0187556e-05
2.2751933e-05
2.5822143e-05
2.9511426e-05
3.396131e-05
3.9345203e-05
4.5871008e-05
5.3799956e-05
6.4008294e-05
7.5887569e-05
9.0397263e-05
0.00010813784
0.00012986765
0.00015651316
0.00019099861
0.00023142466
0.00028110102
0.00034220103
0.00041741052
0.00051004612
0.00062422341
0.00076506329
0.00093894324
0.0010143689
0.0010137945
0.0010131739
0.0010125074
0.0010117904
0.0010110157
0.0010101729
0.0010092487
0.0010082304
0.0010071086
0.0010058959
0.0010048628
0.0010040814
0.0010034873
0.0010029992
0.0010025345
0.0010020354
0.001001481
0.0010009308
0.0010003043
1.5375555e-07
8.0208107e-06
6.6947062e-06
7.3104185e-06
5.0816303e-06
5.8342665e-06
5.1993129e-06
5.7990451e-06
6.5647977e-06
6.152928e-06
6.1084272e-06
5.7741421e-06
5.6117642e-06
5.4904271e-06
5.4267992e-06
5.4049145e-06
5.420462e-06
5.4709705e-06
5.5535154e-06
5.6685409e-06
5.8153589e-06
5.9958785e-06
6.1866839e-06
6.4362372e-06
6.729171e-06
7.0696129e-06
7.464559e-06
7.9214919e-06
8.4489307e-06
9.0587471e-06
9.7651456e-06
1.0586204e-05
1.1543774e-05
1.2661884e-05
1.3973261e-05
1.5517486e-05
1.7344428e-05
1.951571e-05
2.2108622e-05
2.5217767e-05
2.895917e-05
3.3477452e-05
3.8954826e-05
4.5604316e-05
5.3695164e-05
6.3562363e-05
7.5622212e-05
9.0378023e-05
0.00010940466
0.00013170713
0.00015907438
0.00019268846
0.00023623949
0.0002873728
0.00035028325
0.0004277441
0.00052317543
0.00064081648
0.00078593558
0.00096507629
0.00101393
0.0010133104
0.001012646
0.0010119383
0.0010111832
0.0010103737
0.0010094996
0.0010085458
0.0010074966
0.0010063561
0.0010051675
0.0010042367
0.001003533
0.001003003
0.0010025677
0.0010021482
0.0010017095
0.0010012336
0.0010007078
0.0010000717
1.4316639e-07
7.9495983e-06
5.3658739e-06
6.3813314e-06
4.5247627e-06
5.1534384e-06
4.8263404e-06
5.157412e-06
5.7393036e-06
5.2516237e-06
5.1601333e-06
4.9150771e-06
4.7914025e-06
4.709921e-06
4.6759064e-06
4.6784312e-06
4.7137677e-06
4.7804514e-06
4.8764088e-06
4.9837308e-06
5.1341638e-06
5.3181535e-06
5.5379397e-06
5.7964546e-06
6.0979347e-06
6.4468925e-06
6.8502486e-06
7.3161121e-06
7.8532263e-06
8.4736225e-06
9.1916257e-06
1.0025536e-05
1.094794e-05
1.2073258e-05
1.339401e-05
1.4950501e-05
1.6793908e-05
1.8987181e-05
2.1609805e-05
2.4759768e-05
2.8556884e-05
3.3401552e-05
3.9024211e-05
4.5860159e-05
5.4187755e-05
6.4351407e-05
7.678713e-05
9.2020244e-05
0.00011069425
0.00013483411
0.0001631569
0.00019796356
0.00024076132
0.00029622974
0.00036146296
0.00044179649
0.00054078113
0.00066280979
0.0008133406
0.00099912335
0.0010134807
0.0010128148
0.0010121066
0.0010113569
0.0010105623
0.0010097165
0.0010088095
0.001007827
0.0010067485
0.0010055845
0.0010044912
0.0010036527
0.0010030204
0.0010025502
0.0010021689
0.0010017966
0.0010014108
0.0010010163
0.0010005568
0.0009999227
1.3371961e-07
7.818774e-06
4.3517434e-06
5.5540555e-06
4.0265495e-06
4.5467673e-06
4.4983747e-06
4.46015e-06
4.9071482e-06
4.4473512e-06
4.3377097e-06
4.166136e-06
4.0792591e-06
4.0322413e-06
4.0251435e-06
4.0502393e-06
4.1045139e-06
4.1706037e-06
4.2750641e-06
4.4094845e-06
4.5747084e-06
4.7722419e-06
5.0050145e-06
5.2761661e-06
5.5904997e-06
5.9527938e-06
6.3700358e-06
6.8301423e-06
7.3777003e-06
8.0092621e-06
8.7391951e-06
9.5858156e-06
1.0571518e-05
1.1724449e-05
1.3078189e-05
1.4674349e-05
1.65664e-05
1.8819633e-05
2.1516649e-05
2.4760361e-05
2.8676033e-05
3.3421573e-05
3.9188017e-05
4.6210772e-05
5.4780006e-05
6.5800512e-05
7.8719419e-05
9.455694e-05
0.00011398795
0.0001378451
0.0001687245
0.00020500505
0.00024963494
0.00030455122
0.000375713
0.00045955072
0.00056286203
0.00069022484
0.00084733201
0.0010137067
0.0010130165
0.0010123043
0.0010115528
0.0010107607
0.0010099259
0.0010090427
0.0010081012
0.0010070896
0.0010059945
0.0010048268
0.0010038687
0.0010031157
0.0010025483
0.0010021317
0.0010018032
0.0010014813
0.0010011413
0.0010008191
0.0010004585
0.00099983398
1.2533516e-07
7.494353e-06
3.6512338e-06
4.8195339e-06
3.5823769e-06
4.0085845e-06
3.986062e-06
3.8287597e-06
4.1062641e-06
3.7362135e-06
3.6326281e-06
3.5196389e-06
3.4672361e-06
3.4506321e-06
3.46816e-06
3.5013955e-06
3.5677778e-06
3.6631042e-06
3.7865778e-06
3.9384381e-06
4.1201581e-06
4.333766e-06
4.5826126e-06
4.8701261e-06
5.1896543e-06
5.5660471e-06
5.9978503e-06
6.4931449e-06
7.0620922e-06
7.7167951e-06
8.4719945e-06
9.346748e-06
1.0364368e-05
1.1554069e-05
1.2951749e-05
1.4600549e-05
1.6556798e-05
1.8888862e-05
2.1682739e-05
2.5047464e-05
2.9113316e-05
3.4046159e-05
4.0049482e-05
4.7369248e-05
5.6312013e-05
6.7254049e-05
8.1374632e-05
9.7943442e-05
0.00011828119
0.00014327131
0.00017397805
0.00021374873
0.00026054647
0.00031815188
0.00038907145
0.00048092574
0.00058934102
0.00072299425
0.00088785221
0.0010132597
0.0010125336
0.0010117767
0.0010109829
0.001010149
0.0010092732
0.0010083523
0.0010073763
0.0010063334
0.0010052318
0.0010041501
0.0010032994
0.0010026285
0.0010021202
0.0010017506
0.0010014708
0.0010012021
0.0010009059
0.0010006335
0.0010003579
0.00099981413
1.1809228e-07
7.0871776e-06
3.2064395e-06
4.1676602e-06
3.1866501e-06
3.3820607e-06
3.5321169e-06
3.2502332e-06
3.3826929e-06
3.1185383e-06
3.0357951e-06
2.9690872e-06
2.9479848e-06
2.9585479e-06
2.9836479e-06
3.0455314e-06
3.1351771e-06
3.2513999e-06
3.3943092e-06
3.5648749e-06
3.7651133e-06
3.9973345e-06
4.2570305e-06
4.5614944e-06
4.909902e-06
5.3079241e-06
5.7623779e-06
6.2816318e-06
6.8760505e-06
7.5585022e-06
8.3441951e-06
9.2529943e-06
1.0309268e-05
1.1543693e-05
1.2938689e-05
1.4637203e-05
1.6654218e-05
1.9061694e-05
2.2081397e-05
2.5592312e-05
2.983954e-05
3.499688e-05
4.1281421e-05
4.8952411e-05
5.8332118e-05
6.9819652e-05
8.3904821e-05
0.00010118893
0.00012350426
0.000149801
0.0001821287
0.00022188945
0.00027337678
0.00033406871
0.00040880413
0.00050574607
0.00062002652
0.00076091641
0.00093468942
0.0010127952
0.0010120306
0.0010112312
0.0010103965
0.0010095222
0.0010086059
0.0010076464
0.0010066382
0.0010055702
0.0010044615
0.001003537
0.0010027852
0.0010021912
0.0010017385
0.0010014109
0.0010011724
0.0010009537
0.0010007058
0.0010004794
0.0010002747
0.00099989194
1.1225008e-07
6.1169479e-06
2.8260804e-06
3.5755916e-06
2.8432563e-06
2.8041536e-06
3.0806074e-06
2.7266935e-06
2.7618651e-06
2.5910241e-06
2.5358532e-06
2.5066679e-06
2.5062825e-06
2.5343872e-06
2.5937565e-06
2.6803426e-06
2.7922703e-06
2.9293721e-06
3.0925085e-06
3.2830902e-06
3.4983851e-06
3.7493947e-06
4.0362233e-06
4.3629167e-06
4.7343077e-06
5.1562579e-06
5.6358942e-06
6.1819068e-06
6.8049825e-06
7.5019933e-06
8.3167223e-06
9.2574851e-06
1.0349646e-05
1.1624988e-05
1.3123266e-05
1.4894192e-05
1.6999244e-05
1.9515403e-05
2.2538213e-05
2.6185756e-05
3.0604698e-05
3.6234658e-05
4.283997e-05
5.0911412e-05
6.0788122e-05
7.289183e-05
8.7741426e-05
0.00010597587
0.00012955905
0.00015732138
0.00019146563
0.00023347175
0.00028793953
0.00035208437
0.00043109516
0.00052844667
0.0006545705
0.00080360051
0.00098741089
0.0010123133
0.0010115089
0.001010669
0.0010097949
0.0010088826
0.0010079281
0.0010069295
0.0010058883
0.0010048147
0.0010037911
0.0010029813
0.0010023242
0.0010018019
0.0010014034
0.0010011158
0.0010009107
0.0010007316
0.0010005309
0.0010003534
0.0010002117
0.00099993066
1.0737518e-07
4.2722818e-06
2.480888e-06
3.0269604e-06
2.4125702e-06
2.3195944e-06
2.6083139e-06
2.2611642e-06
2.2454676e-06
2.1469731e-06
2.1222397e-06
2.118316e-06
2.1458159e-06
2.2041841e-06
2.2893886e-06
2.3991101e-06
2.5326881e-06
2.6906368e-06
2.8716038e-06
3.0816396e-06
3.3217602e-06
3.5948113e-06
3.9042534e-06
4.2542931e-06
4.6499998e-06
5.0974799e-06
5.6041421e-06
6.169709e-06
6.820301e-06
7.5632412e-06
8.4156682e-06
9.3988691e-06
1.0539675e-05
1.1871785e-05
1.3437455e-05
1.5289362e-05
1.7493001e-05
2.0129887e-05
2.330147e-05
2.7133673e-05
3.1782592e-05
3.7440757e-05
4.4676034e-05
5.3189163e-05
6.3613809e-05
7.6396174e-05
9.2085768e-05
0.00011136057
0.00013505674
0.00016567795
0.00020180611
0.00024626687
0.00030100585
0.00037188072
0.00045556199
0.0005586924
0.00069242682
0.00085040786
0.0010126472
0.0010118163
0.0010109716
0.0010100934
0.0010091817
0.0010082338
0.0010072453
0.0010062125
0.0010051412
0.0010040693
0.001003194
0.0010024845
0.0010019135
0.0010014583
0.0010011124
0.0010008652
0.0010006883
0.001000537
0.0010003758
0.0010002432
0.0010001538
0.0010000247
1.0219108e-07
3.5241595e-06
2.1219002e-06
2.522612e-06
2.0596845e-06
1.9145858e-06
2.1244724e-06
1.853475e-06
1.8257868e-06
1.7821948e-06
1.7837314e-06
1.8106281e-06
1.8696944e-06
1.9546815e-06
2.0632231e-06
2.1944474e-06
2.348599e-06
2.5248402e-06
2.7279518e-06
2.9590512e-06
3.2206668e-06
3.5158617e-06
3.8482966e-06
4.2223405e-06
4.6432366e-06
5.1173109e-06
5.6459533e-06
6.2484173e-06
6.9320326e-06
7.7111551e-06
8.6038423e-06
9.6326378e-06
1.08259e-05
1.2219287e-05
1.3857691e-05
1.5797334e-05
1.8108045e-05
2.0876396e-05
2.4210098e-05
2.8242331e-05
3.3138474e-05
3.9385846e-05
4.6731757e-05
5.5717946e-05
6.6729161e-05
8.0237408e-05
9.6824398e-05
0.00011720773
0.00014359048
0.00017466915
0.00021290617
0.00025997665
0.00031794483
0.00039302102
0.00048168295
0.0005909865
0.00073281017
0.00090039224
0.0010121639
0.0010113065
0.0010104242
0.0010095106
0.0010085634
0.0010075815
0.0010065625
0.0010055036
0.0010044208
0.0010034401
0.0010026641
0.0010020439
0.0010015507
0.0010011588
0.0010008605
0.0010006541
0.0010005037
0.0010003746
0.0010002481
0.0010001648
0.0010001134
0.0010000399
9.8385617e-08
2.8141748e-06
1.8110734e-06
2.0169139e-06
1.7679161e-06
1.5681792e-06
1.6785105e-06
1.5084047e-06
1.4956047e-06
1.4954689e-06
1.5237047e-06
1.5835581e-06
1.6691216e-06
1.7769178e-06
1.9060326e-06
2.0566828e-06
2.2288121e-06
2.4255492e-06
2.6484657e-06
2.899883e-06
3.1825755e-06
3.4997855e-06
3.8553094e-06
4.253637e-06
4.7001474e-06
5.1977959e-06
5.7598416e-06
6.3937252e-06
7.1114411e-06
7.9280382e-06
8.8626165e-06
9.9390453e-06
1.1187378e-05
1.2645358e-05
1.4360468e-05
1.6392435e-05
1.8815952e-05
2.1722758e-05
2.5227451e-05
2.9471168e-05
3.4856505e-05
4.1195044e-05
4.8938446e-05
5.8417592e-05
7.0038325e-05
8.4300742e-05
0.00010182021
0.00012335632
0.00015119578
0.00018403675
0.0002244558
0.00027422618
0.00033553969
0.000414923
0.00050875406
0.00062447804
0.00077466677
0.00095226969
0.0010116763
0.0010107903
0.0010098739
0.0010089283
0.0010079496
0.001006936
0.0010058891
0.0010048182
0.0010037573
0.0010029021
0.0010022078
0.0010016585
0.0010012316
0.001000903
0.0010006437
0.0010004753
0.0010003497
0.0010002382
0.0010001375
0.0010000951
0.0010000839
0.0010000509
9.6161594e-08
2.195011e-06
1.5408255e-06
1.5361874e-06
1.4989132e-06
1.2721612e-06
1.3158685e-06
1.2331696e-06
1.2479386e-06
1.2785884e-06
1.3401181e-06
1.4258724e-06
1.5328187e-06
1.6596236e-06
1.8065393e-06
1.9745739e-06
2.1645772e-06
2.3795343e-06
2.6212693e-06
2.8923261e-06
3.1956231e-06
3.5345204e-06
3.9129169e-06
4.3354e-06
4.8074542e-06
5.3357446e-06
5.9284848e-06
6.5958817e-06
7.3422547e-06
8.1968199e-06
9.1739426e-06
1.0298904e-05
1.1603574e-05
1.3127975e-05
1.4922229e-05
1.7118373e-05
1.9676434e-05
2.2747624e-05
2.6454051e-05
3.0946413e-05
3.6410386e-05
4.3074397e-05
5.1220755e-05
6.1197106e-05
7.3431815e-05
8.8453078e-05
0.00010691109
0.0001307393
0.00015886606
0.0001934732
0.00023607747
0.00028855317
0.00035656187
0.00043686778
0.00053589718
0.00065809784
0.0008166644
0.0010044172
0.0010111937
0.0010102785
0.001009331
0.0010083563
0.0010073511
0.0010063119
0.0010052387
0.0010041585
0.0010032121
0.001002447
0.0010018281
0.0010013343
0.0010009521
0.0010006847
0.0010004599
0.0010003217
0.0010002192
0.0010001262
0.0010000496
0.001000038
0.0010000602
0.001000055
9.6305006e-08
1.6672183e-06
1.3127844e-06
1.1682957e-06
1.2286609e-06
1.0244844e-06
1.0497766e-06
1.0298149e-06
1.0729849e-06
1.1330537e-06
1.2186368e-06
1.3239546e-06
1.4479192e-06
1.5906669e-06
1.7532496e-06
1.9371634e-06
2.1439295e-06
2.3761212e-06
2.6359081e-06
2.9259453e-06
3.2492364e-06
3.6092196e-06
4.0098785e-06
4.4559006e-06
4.9528962e-06
5.5076953e-06
6.1287442e-06
6.8266027e-06
7.6145636e-06
8.5094378e-06
9.5324796e-06
1.0710616e-05
1.2077793e-05
1.3676711e-05
1.556085e-05
1.7796957e-05
2.0468121e-05
2.3677757e-05
2.7553883e-05
3.2255022e-05
3.7977031e-05
4.4960922e-05
5.3501552e-05
6.3964313e-05
7.6798214e-05
9.332286e-05
0.0001128351
0.00013682056
0.00016632435
0.00020263785
0.00024735522
0.00030528636
0.00037369252
0.00045803541
0.00056210132
0.00069730358
0.00085722768
0.0010116585
0.0010107273
0.0010097844
0.0010088099
0.0010078075
0.0010067777
0.0010057223
0.0010046482
0.0010035917
0.0010027533
0.0010020671
0.0010015171
0.0010010798
0.0010007382
0.0010004822
0.001000308
0.0010001897
0.0010001058
0.0010000317
0.0009999804
0.00099999458
0.0010000437
0.0010000549
9.9617716e-08
1.2365086e-06
1.1239685e-06
8.9928707e-07
1.0711722e-06
8.2022196e-07
8.6713557e-07
8.9197108e-07
9.5792021e-07
1.0410888e-06
1.1440766e-06
1.2644149e-06
1.4024677e-06
1.5592213e-06
1.7361406e-06
1.9349408e-06
2.1575707e-06
2.4060567e-06
2.6830319e-06
2.9911291e-06
3.3334157e-06
3.7134021e-06
4.135159e-06
4.6034832e-06
5.1241253e-06
5.7040976e-06
6.3520906e-06
7.0790403e-06
7.8987568e-06
8.828783e-06
9.8913236e-06
1.1114583e-05
1.2534149e-05
1.4194822e-05
1.615272e-05
1.847791e-05
2.1257529e-05
2.4599643e-05
2.8637956e-05
3.3537626e-05
3.9771821e-05
4.7112344e-05
5.6088625e-05
6.7083944e-05
8.0569582e-05
9.712628e-05
0.00011747027
0.00014248522
0.00017325879
0.00021311345
0.00026012006
0.00031802696
0.0003894093
0.00047746502
0.00059188823
0.00072718179
0.00089442975
0.0010112304
0.0010102838
0.0010093199
0.0010083257
0.0010073018
0.0010062474
0.0010051678
0.0010040912
0.001003142
0.0010023736
0.001001751
0.0010012539
0.001000861
0.0010005649
0.0010003314
0.0010001806
0.001000079
0.0010000086
0.00099995161
0.00099992326
0.00099995641
0.0010000229
0.0010000506
1.062077e-07
9.570774e-07
9.5932489e-07
7.6041923e-07
7.6366993e-07
6.996339e-07
7.4485208e-07
8.0480654e-07
8.8801016e-07
9.8730083e-07
1.1033665e-06
1.2361057e-06
1.3865721e-06
1.5560781e-06
1.746213e-06
1.95875e-06
2.1956699e-06
2.4591783e-06
2.7517441e-06
3.0761448e-06
3.4355312e-06
3.8335159e-06
4.2742971e-06
4.7628341e-06
5.3050922e-06
5.9062718e-06
6.5784191e-06
7.3315076e-06
8.1871497e-06
9.1522093e-06
1.0254888e-05
1.1524782e-05
1.2999211e-05
1.4725087e-05
1.6761133e-05
1.9180563e-05
2.2074356e-05
2.555525e-05
2.9762632e-05
3.4868583e-05
4.1085312e-05
4.8674348e-05
5.7957696e-05
6.9330044e-05
8.3279395e-05
0.00010040637
0.00012253237
0.00014861005
0.00018068368
0.00022015895
0.0002687745
0.00032868712
0.00040257296
0.00049845201
0.00061189875
0.00075211557
0.00092560418
0.0010108389
0.0010098759
0.001008894
0.0010078859
0.0010068515
0.0010057905
0.0010047093
0.0010036466
0.0010027852
0.0010020743
0.0010014998
0.0010010415
0.001000684
0.0010004333
0.0010002083
0.0010000763
0.00099998683
0.00099992813
0.00099988801
0.00099988085
0.00099992893
0.0010000065
0.0010000433
1.2076522e-07
9.6086753e-07
8.0047964e-07
5.6383166e-07
6.0692004e-07
6.0988516e-07
6.7336267e-07
7.5208533e-07
8.4879352e-07
9.6024118e-07
1.0874105e-06
1.2311209e-06
1.3926599e-06
1.5734342e-06
1.7750579e-06
1.9993282e-06
2.2482536e-06
2.5240803e-06
2.8293277e-06
3.1668333e-06
3.539813e-06
3.951948e-06
4.4075071e-06
4.9115231e-06
5.4700437e-06
6.0904744e-06
6.782035e-06
7.556346e-06
8.4281722e-06
9.4163133e-06
1.0544675e-05
1.1843611e-05
1.3351448e-05
1.5116378e-05
1.7198705e-05
1.9673582e-05
2.2634343e-05
2.6196542e-05
3.0502918e-05
3.5729494e-05
4.2093193e-05
5.021806e-05
5.9793486e-05
7.1519969e-05
8.589994e-05
0.0001035515
0.00012523755
0.00015190023
0.00018470414
0.00022508867
0.000274841
0.00033928084
0.00041550104
0.00050958806
0.00062584894
0.00076967035
0.00094779268
0.0010105115
0.0010095302
0.001008528
0.001007502
0.001006453
0.0010053839
0.0010043107
0.0010033097
0.0010025084
0.0010018472
0.0010013134
0.0010008869
0.0010005567
0.0010003016
0.0010001185
0.00099999131
0.0009999121
0.00099986118
0.00099983548
0.0009998463
0.00099990688
0.00099999105
0.00100003
1.1072813e-07
6.2021228e-07
6.3473604e-07
4.6694523e-07
5.0930136e-07
5.5504341e-07
6.3364407e-07
7.2598611e-07
8.3336294e-07
9.5510573e-07
1.092285e-06
1.2459493e-06
1.4174121e-06
1.608134e-06
1.8197619e-06
2.054139e-06
2.3133284e-06
2.5996067e-06
2.9156043e-06
3.2642085e-06
3.6487049e-06
4.0728453e-06
4.5409713e-06
5.0581916e-06
5.6306372e-06
6.2658107e-06
6.9730522e-06
7.7641427e-06
8.6610987e-06
9.6721368e-06
1.0826477e-05
1.2155244e-05
1.3697678e-05
1.5503083e-05
1.7633092e-05
2.0164473e-05
2.3192499e-05
2.6835095e-05
3.1237913e-05
3.6580569e-05
4.308428e-05
5.1021206e-05
6.0725929e-05
7.2611463e-05
8.7185982e-05
0.00010507641
0.00012705667
0.00015543489
0.00018893363
0.00023016709
0.0002809626
0.00034358766
0.00042086504
0.00051631597
0.00063434354
0.00078046775
0.00096161024
0.0010102797
0.0010092834
0.0010082635
0.0010072195
0.0010061532
0.0010050712
0.0010040018
0.0010030645
0.0010023027
0.001001678
0.0010011747
0.0010007757
0.0010004751
0.0010002303