/*--------------------------------*- C++ -*----------------------------------*\
  =========                 |
  \\      /  F ield         | OpenFOAM: The Open Source CFD Toolbox
   \\    /   O peration     | Website:  https://openfoam.org
    \\  /    A nd           | Version:  12
     \\/     M anipulation  |
\*---------------------------------------------------------------------------*/
FoamFile
{
    format      ascii;
    class       volScalarField;
    location    "0.145";
    object      T;
}
// * * * * * * * * * * * * * * * * * * * * * * * * * * * * * * * * * * * * * //

dimensions      [0 0 0 1 0 0 0];

internalField   nonuniform List<scalar> 
16000
(
294.52551
286.06762
289.33254
287.5578
288.66459
288.15698
288.57901
288.46827
288.66494
288.69885
288.81971
288.90447
289.00977
289.11246
289.22111
289.33307
289.44915
289.56921
289.69331
289.82149
289.95374
290.09006
290.23041
290.37474
290.52297
290.67501
290.83073
290.98997
291.15256
291.31827
291.48687
291.65809
291.83163
292.00715
292.18431
292.36274
292.54203
292.72178
292.90156
293.08093
293.25948
293.43676
293.61235
293.78584
293.95684
294.12499
294.28992
294.45134
294.60897
294.76255
294.91189
295.0568
295.19716
295.33287
295.46388
295.59017
295.71178
295.82877
295.94123
296.04933
296.15327
296.25325
296.34954
296.44242
296.53224
296.61941
296.70434
296.7875
296.86935
296.95046
297.03147
297.11311
297.19601
297.28062
297.36729
297.45673
297.55486
297.63759
297.79574
297.83774
294.21952
285.66358
289.09493
287.20226
288.37622
287.83174
288.28891
288.16891
288.37995
288.4194
288.54724
288.64093
288.7534
288.86494
288.98202
289.10299
289.22826
289.35781
289.49166
289.62983
289.7723
289.91904
290.06998
290.22505
290.38412
290.54708
290.71373
290.88388
291.05731
291.23373
291.41287
291.59439
291.77794
291.96314
292.14957
292.33681
292.52442
292.71194
292.89891
293.08486
293.26934
293.45189
293.63209
293.80953
293.98381
294.1546
294.32158
294.48445
294.64299
294.79699
294.94629
295.09078
295.23036
295.36501
295.49472
295.61953
295.73952
295.85478
295.96547
296.07177
296.17391
296.27214
296.36671
296.45794
296.54619
296.63184
296.71534
296.79714
296.87773
296.95767
297.03762
297.11831
297.20043
297.28444
297.37077
297.46067
297.5546
297.65124
297.7836
297.85741
293.92804
285.28762
288.81532
286.89041
288.10417
287.54953
288.02053
287.90827
288.12423
288.1755
288.30887
288.41314
288.53374
288.65505
288.78173
288.91276
289.04835
289.18853
289.33327
289.48257
289.63637
289.79462
289.95722
290.12404
290.29492
290.46969
290.64811
290.82993
291.01486
291.20257
291.3927
291.58486
291.77863
291.97356
292.16919
292.36502
292.56056
292.75531
292.94876
293.14043
293.32983
293.51651
293.70003
293.88
294.05606
294.22789
294.3952
294.55778
294.71543
294.86801
295.01543
295.15763
295.2946
295.42636
295.55298
295.67455
295.7912
295.90309
296.01042
296.11341
296.21231
296.3074
296.39896
296.48733
296.57284
296.65592
296.73698
296.81649
296.89494
296.97289
297.051
297.13002
297.21064
297.29336
297.37869
297.46745
297.55989
297.66082
297.77975
297.86943
293.66067
284.94398
288.59086
286.61579
287.86571
287.30091
287.78597
287.68311
287.9045
287.96914
288.10906
288.22512
288.35517
288.48745
288.62501
288.76733
288.91448
289.06645
289.22322
289.38474
289.55093
289.72168
289.89686
290.07629
290.25977
290.44705
290.63785
290.83183
291.02864
291.22788
291.42911
291.63187
291.83565
292.03994
292.2442
292.44789
292.65046
292.85136
293.05006
293.24604
293.43883
293.62796
293.81304
293.99368
294.16958
294.34046
294.5061
294.66635
294.82109
294.97025
295.11382
295.25181
295.3843
295.51137
295.63317
295.74985
295.86159
295.96862
296.07118
296.16951
296.26391
296.35469
296.44214
296.5266
296.60842
296.68801
296.76579
296.84223
296.91781
296.99309
297.06873
297.14546
297.22402
297.30496
297.38873
297.47578
297.56722
297.66858
297.77939
297.87932
293.41743
284.63657
288.38295
286.38705
287.67264
287.09422
287.58962
287.50074
287.72613
287.80676
287.954
288.0832
288.22406
288.36846
288.51813
288.67289
288.83272
288.99762
289.16751
289.34233
289.52195
289.70622
289.89495
290.08791
290.28482
290.48535
290.68915
290.8958
291.10484
291.3158
291.52813
291.7413
291.95471
292.16777
292.37987
292.59041
292.7988
293.00445
293.20682
293.40539
293.59969
293.78928
293.97381
294.15296
294.32647
294.49416
294.65588
294.81157
294.96119
295.10477
295.24239
295.37416
295.50022
295.62076
295.73596
295.84607
295.95133
296.05201
296.14838
296.24074
296.32941
296.41471
296.49696
296.5765
296.65368
296.7289
296.80258
296.87517
296.94716
297.0191
297.09161
297.16545
297.24137
297.31996
297.40156
297.48646
297.57649
297.67629
297.78171
297.88762
293.20223
284.37249
288.20714
286.19656
287.50481
286.93594
287.44223
287.36746
287.59638
287.69416
287.84959
287.99269
288.14552
288.30294
288.4658
288.63409
288.80775
288.98674
289.17096
289.36028
289.55451
289.75345
289.95682
290.1643
290.37551
290.59005
290.80743
291.02714
291.24862
291.47126
291.69445
291.91753
292.13982
292.36065
292.57936
292.79529
293.00781
293.21633
293.4203
293.61924
293.81271
294.00034
294.18183
294.35695
294.52555
294.68752
294.84284
294.99155
295.13372
295.26948
295.39902
295.52253
295.64025
295.75243
295.85936
295.96131
296.05861
296.15154
296.24045
296.32564
296.40747
296.48626
296.56234
296.63606
296.70777
296.77783
296.84668
296.91474
296.98249
297.05047
297.11929
297.18968
297.26242
297.33813
297.41701
297.49937
297.5874
297.68441
297.78541
297.89513
293.01803
284.15363
288.06544
286.04294
287.3732
286.82776
287.3324
287.28608
287.51434
287.6331
287.79772
287.95551
288.12171
288.29345
288.47101
288.6544
288.8435
289.03822
289.23838
289.44379
289.65415
289.86917
290.08845
290.31157
290.53803
290.76729
290.99875
291.23175
291.46561
291.69962
291.93303
292.16508
292.39503
292.62213
292.84566
293.06494
293.27934
293.48828
293.69126
293.88784
294.07766
294.26046
294.43603
294.60427
294.76514
294.91867
295.06495
295.20415
295.33647
295.46215
295.58148
295.69474
295.80227
295.9044
296.00146
296.09381
296.18179
296.26576
296.34605
296.42303
296.49703
296.56841
296.63749
296.70461
296.77011
296.83435
296.89772
296.96065
297.02359
297.08707
297.15166
297.2181
297.28718
297.3595
297.43516
297.5146
297.60005
297.69337
297.79019
297.90229
292.86268
283.97785
287.9542
285.92481
287.27154
286.75291
287.26006
287.22341
287.48224
287.62203
287.79844
287.97279
288.15485
288.34318
288.53774
288.7385
288.94527
289.15787
289.37602
289.59941
289.82765
290.06031
290.29685
290.53671
290.77924
291.02374
291.26946
291.51561
291.76136
292.00587
292.24828
292.48775
292.72345
292.9546
293.18046
293.40036
293.61369
293.81996
294.01872
294.20966
294.39254
294.56721
294.73364
294.89186
295.04197
295.18418
295.31871
295.44585
295.56595
295.67936
295.78645
295.88763
295.98329
296.07382
296.15964
296.24111
296.31864
296.39259
296.46333
296.53121
296.5966
296.65983
296.72123
296.78112
296.83982
296.89768
296.95505
297.01235
297.07001
297.12852
297.18846
297.25051
297.31549
297.38394
297.45596
297.53211
297.61443
297.70327
297.79594
297.90944
292.73117
283.84322
287.87686
285.84248
287.21978
286.74982
287.25005
287.27298
287.50379
287.66502
287.85679
288.0503
288.25119
288.45888
288.67317
288.89392
289.12086
289.3537
289.59203
289.83541
290.08329
290.33507
290.59006
290.84749
291.10656
291.36637
291.62602
291.88454
292.14098
292.39436
292.64373
292.88818
293.12686
293.35898
293.58381
293.80077
294.00934
294.20912
294.39983
294.58131
294.75348
294.91639
295.07018
295.21506
295.35132
295.47931
295.59941
295.71207
295.81772
295.91685
296.00991
296.09739
296.17973
296.2574
296.33082
296.40041
296.46657
296.5297
296.59015
296.64829
296.70447
296.75901
296.81223
296.86442
296.91589
296.96695
297.01793
297.06922
297.12123
297.17442
297.22933
297.28665
297.34715
297.41133
297.47932
297.55189
297.63052
297.71418
297.80271
297.91675
292.6228
283.75201
287.83908
285.81116
287.22275
286.78769
287.2856
287.33823
287.58346
287.77103
287.98174
288.19701
288.41978
288.64974
288.88661
289.1301
289.37983
289.63532
289.89602
290.16129
290.43038
290.70249
290.97669
291.25203
291.52747
291.80193
292.07432
292.34351
292.60842
292.86799
293.12119
293.36712
293.60492
293.83387
294.05336
294.26293
294.46222
294.65103
294.82928
294.99703
295.15442
295.30173
295.43929
295.56752
295.6869
295.79792
295.90115
295.99712
296.0864
296.16955
296.2471
296.31958
296.3875
296.45133
296.51152
296.56851
296.6227
296.67446
296.72416
296.77214
296.81873
296.86425
296.90897
296.95318
296.99714
297.04114
297.08548
297.1305
297.17661
297.22422
297.27385
297.32617
297.38188
297.44144
297.50512
297.57384
297.64828
297.72625
297.81064
297.92427
292.54129
283.71232
287.84682
285.8985
287.28453
286.89043
287.38089
287.47799
287.73313
287.94866
288.18236
288.42252
288.67051
288.92597
289.18852
289.45768
289.73288
290.01344
290.29856
290.58736
290.87883
291.17191
291.46542
291.75815
292.04882
292.33616
292.61889
292.89577
293.16561
293.42731
293.67988
293.92244
294.15428
294.37481
294.58362
294.78047
294.96527
295.13808
295.29908
295.4486
295.58704
295.71493
295.83281
295.9413
296.04106
296.13274
296.21701
296.29452
296.36591
296.4318
296.49278
296.54939
296.60215
296.65156
296.69805
296.74205
296.78394
296.82409
296.86284
296.90049
296.93736
296.97372
297.00983
297.04595
297.0823
297.11913
297.15671
297.19535
297.23541
297.2773
297.32149
297.36862
297.41931
297.47398
297.53314
297.59781
297.66761
297.73958
297.81993
297.93207
292.49308
283.73711
287.90852
286.0368
287.39318
287.06289
287.5469
287.6896
287.96158
288.20777
288.46889
288.73763
289.01454
289.29907
289.59063
289.88852
290.19187
290.49973
290.81097
291.12441
291.43871
291.75247
292.06425
292.37254
292.67586
292.97274
293.26178
293.54166
293.8112
294.06935
294.31524
294.54817
294.76767
294.97342
295.16534
295.34349
295.50813
295.65963
295.79851
295.92538
296.04094
296.14591
296.24109
296.32725
296.40518
296.47567
296.53947
296.59728
296.64981
296.69768
296.7415
296.78181
296.81913
296.85392
296.8866
296.91757
296.94718
296.97575
297.0036
297.03101
297.05823
297.08552
297.11311
297.1412
297.16999
297.1997
297.23055
297.26282
297.29682
297.33294
297.37164
297.41349
297.459
297.50862
297.56312
297.62353
297.68829
297.75418
297.83079
297.94023
292.48299
283.83248
288.03437
286.22814
287.56744
287.3124
287.79259
287.98451
288.27926
288.55947
288.85287
289.15455
289.46459
289.78212
290.10624
290.43591
290.76987
291.10677
291.44509
291.78323
292.1195
292.45214
292.77941
293.09955
293.4109
293.71187
294.00105
294.27717
294.53917
294.78624
295.01778
295.23346
295.43315
295.61697
295.78524
295.93844
296.07721
296.20231
296.31456
296.41488
296.5042
296.58346
296.65361
296.71555
296.77019
296.81835
296.86083
296.89837
296.93165
296.9613
296.98791
297.01198
297.03399
297.05437
297.07349
297.09172
297.10935
297.12667
297.14394
297.1614
297.17927
297.19777
297.21708
297.23738
297.25882
297.28159
297.30587
297.33189
297.35994
297.39037
297.42361
297.46018
297.50046
297.54493
297.59473
297.65069
297.71006
297.76996
297.84334
297.94853
292.51302
284.00604
288.22944
286.50578
287.81742
287.64687
288.12849
288.37293
288.69815
289.01701
289.34827
289.688
290.03588
290.39057
290.75072
291.11479
291.48102
291.84756
292.21241
292.57353
292.92881
293.27619
293.61363
293.93924
294.2513
294.54826
294.82886
295.09211
295.33731
295.56406
295.77226
295.96207
296.13392
296.28842
296.42638
296.54874
296.65653
296.75084
296.83282
296.9036
296.96429
297.01599
297.05973
297.09649
297.1272
297.15269
297.17376
297.19111
297.20539
297.21719
297.22702
297.23536
297.24262
297.24916
297.25532
297.26139
297.26762
297.27424
297.28146
297.28949
297.2985
297.30865
297.32009
297.33297
297.34741
297.36354
297.38153
297.40155
297.42385
297.44875
297.47668
297.50803
297.54311
297.58249
297.62757
297.67885
297.7326
297.78687
297.85746
297.95686
292.58808
284.27099
288.4971
286.87143
288.155
288.07798
288.56848
288.86968
289.23403
289.59758
289.97298
290.35638
290.74687
291.14252
291.54132
291.94111
292.33953
292.73415
293.12244
293.5019
293.87009
294.22468
294.56356
294.88486
295.18705
295.46892
295.72964
295.96879
296.18628
296.38237
296.55762
296.71285
296.84908
296.96749
297.06937
297.15606
297.22893
297.28937
297.33869
297.3782
297.40909
297.43253
297.44956
297.46115
297.4682
297.4715
297.47178
297.46968
297.46578
297.46059
297.45455
297.44806
297.44147
297.43507
297.42913
297.42386
297.41949
297.41617
297.41407
297.41333
297.41409
297.41648
297.42059
297.42654
297.43442
297.44434
297.4564
297.47075
297.48759
297.50724
297.53006
297.55636
297.58636
297.62079
297.66119
297.70751
297.7555
297.80475
297.87287
297.96536
292.7125
284.6458
288.83353
287.33942
288.59414
288.62106
289.13086
289.4947
289.90791
290.32334
290.74937
291.18176
291.61876
292.05767
292.49573
292.93
293.35745
293.77502
294.1797
294.56864
294.93922
295.28915
295.61654
295.91995
296.19841
296.45145
296.67906
296.88163
297.05995
297.21509
297.34838
297.46131
297.55548
297.63256
297.69422
297.74212
297.77786
297.80294
297.81879
297.82673
297.82797
297.82363
297.8147
297.80208
297.78656
297.76887
297.74962
297.72936
297.70858
297.68768
297.66704
297.64695
297.62768
297.60946
297.59249
297.57691
297.56289
297.55053
297.53994
297.53123
297.52449
297.51978
297.5172
297.5168
297.51865
297.52283
297.52941
297.5385
297.55027
297.56498
297.58297
297.60443
297.62959
297.65933
297.69509
297.73615
297.77828
297.82333
297.88928
297.97367
292.89093
285.16017
289.24617
287.9277
289.15614
289.29944
289.8415
290.27509
290.74689
291.22125
291.70342
292.18848
292.67361
293.15515
293.62941
294.09261
294.541
294.97102
295.37938
295.76326
296.1203
296.44879
296.7476
297.01625
297.25484
297.46401
297.64482
297.79874
297.92749
298.03297
298.11721
298.18227
298.2302
298.26299
298.28254
298.29063
298.28893
298.27895
298.26208
298.23957
298.21254
298.18199
298.14878
298.11369
298.0774
298.04049
298.00347
297.96676
297.93074
297.89573
297.86198
297.82973
297.79914
297.77039
297.74359
297.71884
297.69622
297.67581
297.65767
297.64184
297.62838
297.61733
297.60873
297.60262
297.59903
297.59801
297.59961
297.60389
297.611
297.62118
297.63466
297.65156
297.67218
297.69753
297.72875
297.76431
297.8005
297.842
297.90606
297.98148
293.13492
285.86094
289.77813
288.66746
289.87188
290.14439
290.73295
291.24318
291.78197
292.32093
292.86247
293.40074
293.93147
294.44985
294.95114
295.43082
295.88472
296.30925
296.70153
297.05946
297.38176
297.668
297.91848
298.13417
298.31662
298.46778
298.58991
298.68548
298.75704
298.80716
298.83834
298.85297
298.85332
298.8415
298.81941
298.7888
298.75124
298.70813
298.66071
298.61006
298.55714
298.50278
298.44768
298.39247
298.33767
298.28372
298.23099
298.17981
298.13042
298.08304
298.03785
297.99498
297.95453
297.91659
297.88123
297.84848
297.81838
297.79094
297.7662
297.74414
297.72479
297.70816
297.69425
297.68307
297.67465
297.669
297.66613
297.6661
297.66902
297.67507
297.68439
297.69707
297.7135
297.73481
297.76162
297.79165
297.82201
297.86017
297.92236
297.98888
293.47127
286.73207
290.4564
289.59587
290.77909
291.19068
291.84144
292.43498
293.04718
293.65358
294.25332
294.83922
295.40538
295.94587
296.45533
296.92918
297.36379
297.75663
298.10629
298.41244
298.67575
298.89772
299.08054
299.22687
299.33972
299.42228
299.47778
299.50941
299.52024
299.51317
299.49085
299.45576
299.4101
299.35585
299.29477
299.2284
299.15812
299.08508
299.01032
298.9347
298.85896
298.78375
298.70959
298.63693
298.56614
298.49752
298.43132
298.36774
298.30692
298.24899
298.19404
298.14211
298.09326
298.04749
298.00482
297.96525
297.92874
297.89529
297.86488
297.83747
297.81304
297.79158
297.77306
297.75749
297.74483
297.7351
297.72829
297.72444
297.72363
297.72598
297.73153
297.74036
297.75301
297.77057
297.79314
297.81786
297.84284
297.87764
297.93734
297.99728
293.9402
287.71598
291.32321
290.74867
291.92178
292.48023
293.20991
293.89247
294.5797
295.24907
295.89605
296.51215
297.09047
297.62501
298.11119
298.54597
298.92781
299.25668
299.53383
299.76155
299.94296
300.08173
300.18188
300.24754
300.28283
300.29171
300.27795
300.245
300.19603
300.13387
300.06107
299.97984
299.89214
299.79966
299.70386
299.606
299.50714
299.4082
299.30992
299.21295
299.11782
299.02496
298.93473
298.8474
298.76321
298.68232
298.60487
298.53094
298.46059
298.39387
298.33077
298.2713
298.21543
298.16312
298.11435
298.06905
298.02717
297.98866
297.95346
297.92153
297.89279
297.86722
297.84477
297.82541
297.80911
297.79584
297.7856
297.7784
297.77431
297.77337
297.77555
297.78095
297.79023
297.80433
297.82278
297.84258
297.86304
297.89497
297.95152
298.00492
294.59747
288.98488
292.42649
292.17793
293.36079
294.07133
294.89104
295.66023
296.41102
297.12263
297.78784
298.39837
298.94845
299.43437
299.85462
300.20969
300.50175
300.73432
300.91188
301.03951
301.12257
301.16647
301.17645
301.15745
301.11405
301.05039
300.97017
300.87666
300.77273
300.66085
300.54316
300.42148
300.29735
300.1721
300.0468
299.92239
299.79961
299.67909
299.56133
299.44676
299.33568
299.22836
299.12498
299.02568
298.93056
298.83967
298.75305
298.6707
298.59259
298.51869
298.44895
298.38331
298.3217
298.26403
298.21023
298.16022
298.11391
298.07121
298.03204
297.99633
297.96399
297.93497
297.9092
297.88663
297.86722
297.85092
297.83771
297.82762
297.82066
297.81682
297.81602
297.81843
297.82474
297.83564
297.85016
297.86543
297.88223
297.91196
297.96475
298.01057
295.49988
290.59946
293.8519
293.9632
295.17499
296.03133
296.93234
297.76385
298.54185
299.24946
299.88038
300.42993
300.89687
301.2826
301.59082
301.82689
301.99728
302.10904
302.16941
302.18546
302.16388
302.11081
302.03181
301.9318
301.81509
301.6854
301.54593
301.39938
301.24806
301.09388
300.93846
300.78311
300.62894
300.47684
300.32755
300.18164
300.0396
299.90177
299.76844
299.63981
299.51603
299.3972
299.28337
299.17456
299.07076
298.97192
298.87801
298.78894
298.70464
298.62501
298.54996
298.47936
298.41313
298.35113
298.29327
298.23943
298.18951
298.14338
298.10096
298.06213
298.02682
297.99493
297.96639
297.94113
297.91908
297.90021
297.88448
297.87189
297.86243
297.85604
297.85263
297.85246
297.85617
297.86412
297.87494
297.88623
297.90009
297.92774
297.97592
298.0139
296.62939
292.68419
295.70499
296.18813
297.4307
298.40388
299.3408
300.17426
300.91075
301.54158
302.0668
302.48933
302.81533
303.05299
303.21173
303.30144
303.33192
303.31246
303.25161
303.157
303.03535
302.89246
302.73328
302.56198
302.38209
302.19651
302.00764
301.81747
301.62761
301.43937
301.2538
301.07176
300.89391
300.72076
300.55272
300.39009
300.23308
300.08183
299.93644
299.79694
299.66334
299.53561
299.41368
299.2975
299.18695
299.08194
298.98234
298.88803
298.79887
298.71474
298.63548
298.56097
298.49107
298.42563
298.36451
298.3076
298.25475
298.20585
298.16077
298.1194
298.08164
298.04739
298.01655
297.98904
297.9648
297.94375
297.92587
297.91114
297.89952
297.89089
297.88522
297.88282
297.88423
297.88945
297.89691
297.90481
297.91627
297.94155
297.98428
298.01515
298.16315
295.35154
298.081
298.90576
300.12316
301.15755
302.04076
302.77829
303.37926
303.84762
304.19389
304.4306
304.57165
304.63107
304.62229
304.55758
304.44788
304.30264
304.12994
303.93654
303.72804
303.50906
303.28336
303.05399
302.82339
302.59353
302.36596
302.14193
301.92239
301.70809
301.49959
301.29732
301.10158
300.91258
300.73045
300.55525
300.38701
300.22569
300.07123
299.92356
299.78256
299.6481
299.52005
299.39827
299.28258
299.17284
299.06888
298.97053
298.87762
298.78998
298.70745
298.62986
298.55706
298.48889
298.42518
298.3658
298.31061
298.25946
298.21223
298.16878
298.12901
298.0928
298.06005
298.03068
298.00458
297.98171
297.96201
297.94545
297.93194
297.92137
297.91376
297.90942
297.90876
297.91145
297.91591
297.92103
297.9305
297.95322
297.99027
298.01524
300.14267
298.67137
300.97543
302.09037
303.27749
304.14443
304.85292
305.3815
305.75275
305.98524
306.10028
306.11814
306.05751
305.93478
305.76399
305.55682
305.32288
305.06993
304.8042
304.53064
304.25314
303.97477
303.69793
303.42444
303.15574
302.89289
302.6367
302.38777
302.14651
301.91319
301.68801
301.47105
301.26233
301.06183
300.86946
300.68513
300.50871
300.34003
300.17895
300.02526
299.8788
299.73936
299.60675
299.48077
299.36122
299.2479
299.14061
299.03915
298.94334
298.85297
298.76788
298.68787
298.61277
298.54242
298.47663
298.41527
298.35817
298.30518
298.25618
298.21102
298.16958
298.13174
298.0974
298.06645
298.0388
298.01438
297.99313
297.97498
297.95983
297.9476
297.93832
297.93228
297.92971
297.93008
297.93198
297.93497
297.94287
297.96278
297.99356
298.01173
302.59652
302.62766
304.63712
305.61283
306.50909
307.12184
307.52975
307.75423
307.83178
307.79219
307.66234
307.46444
307.2166
306.93317
306.62543
306.30208
305.96982
305.63373
305.29767
304.96454
304.6365
304.31513
304.00159
303.69671
303.40105
303.11497
302.8387
302.57232
302.31586
302.06925
301.83239
301.60513
301.38729
301.17868
300.97907
300.78824
300.60596
300.43199
300.26609
300.10802
299.95753
299.81439
299.67837
299.54921
299.42671
299.31063
299.20075
299.09686
298.99874
298.9062
298.81904
298.73706
298.66008
298.58792
298.52041
298.45738
298.39867
298.34414
298.29363
298.24701
298.20414
298.16491
298.12919
298.09688
298.06788
298.04211
298.01951
297.99998
297.98341
297.96974
297.95902
297.95148
297.94716
297.94546
297.94528
297.94671
297.9532
297.96993
297.99468
298.00863
305.66755
307.0623
308.39138
309.09444
309.57353
309.78414
309.80872
309.68915
309.4662
309.17024
308.82476
308.44721
308.05047
307.64396
307.23449
306.82697
306.42489
306.03073
305.64618
305.2724
304.91013
304.55982
304.2217
303.89583
303.58216
303.28057
302.99086
302.71279
302.4461
302.1905
301.94569
301.71137
301.48723
301.27295
301.06823
300.87277
300.68627
300.50843
300.33897
300.1776
300.02406
299.87806
299.73935
299.60768
299.4828
299.36447
299.25245
299.14652
299.04646
298.95206
298.86311
298.77941
298.70078
298.62702
298.55797
298.49346
298.43331
298.37738
298.32551
298.27757
298.23341
298.19292
298.15596
298.12243
298.09222
298.06525
298.04143
298.02067
298.00286
297.98794
297.97598
297.96708
297.9612
297.95777
297.95608
297.95649
297.96165
297.97482
297.99361
298.00476
309.62503
311.41146
311.95271
312.13997
312.0859
311.85217
311.50118
311.07536
310.60488
310.11046
309.60616
309.10144
308.60261
308.11378
307.63763
307.17579
306.72921
306.29836
305.88339
305.48424
305.10067
304.73237
304.37897
304.04003
303.71513
303.4038
303.10561
302.8201
302.54684
302.28541
302.03538
301.79636
301.56796
301.3498
301.14152
300.94278
300.75323
300.57255
300.40042
300.23655
300.08063
299.93238
299.79152
299.6578
299.53096
299.41074
299.2969
299.18922
299.08746
298.99142
298.90088
298.81565
298.73552
298.66032
298.58986
298.52398
298.46251
298.40529
298.35217
298.30301
298.25766
298.21601
298.17791
298.14327
298.11198
298.08393
298.05903
298.03719
298.0183
298.00233
297.98928
297.97919
297.97194
297.96713
297.96436
297.96403
297.96787
297.9776
297.99133
298.00095
314.58991
314.96089
314.69026
314.32124
313.79795
313.20411
312.57531
311.93713
311.30377
310.68382
310.08207
309.5011
308.94208
308.40535
307.89074
307.39777
306.9258
306.47408
306.04181
305.62821
305.2325
304.8539
304.49169
304.14518
303.8137
303.49662
303.19335
302.90332
302.62602
302.36092
302.10756
301.86548
301.63425
301.41345
301.2027
301.00163
300.80987
300.62709
300.45295
300.28714
300.12936
299.97931
299.83671
299.7013
299.5728
299.45097
299.33557
299.22636
299.12311
299.0256
298.93364
298.847
298.76551
298.68897
298.61721
298.55005
298.48732
298.42888
298.37457
298.32424
298.27776
298.23499
298.19581
298.16011
298.12778
298.09871
298.07281
298.04998
298.03013
298.01322
297.99922
297.9881
297.97973
297.97385
297.97031
297.96941
297.97205
297.97893
297.98887
297.99774
316.589
316.75609
316.18029
315.41697
314.63653
313.85508
313.0929
312.3576
311.65264
310.97901
310.3364
309.72385
309.14011
308.58376
308.05339
307.54759
307.06504
306.60448
306.16474
305.74474
305.34346
304.95997
304.5934
304.24295
303.90786
303.58745
303.28108
302.98812
302.70803
302.44027
302.18433
301.93976
301.70611
301.48295
301.26989
301.06655
300.87256
300.68758
300.51128
300.34334
300.18345
300.03134
299.8867
299.74928
299.6188
299.49503
299.37771
299.26661
299.16151
299.06219
298.96844
298.88006
298.79685
298.71863
298.64522
298.57646
298.51217
298.45219
298.39638
298.3446
298.29669
298.25254
298.21202
298.17501
298.14141
298.11112
298.08404
298.06008
298.03915
298.02121
298.00622
297.99412
297.98479
297.97807
297.97391
297.97248
297.97421
297.97934
297.98722
297.99582
310.38255
309.05931
305.37077
302.45697
301.16799
300.8783
300.81016
300.80741
300.69546
300.63876
300.53545
300.46416
300.37756
300.29073
300.20435
300.11756
300.03011
299.94196
299.85313
299.76368
299.6737
299.58329
299.49258
299.40169
299.31077
299.21996
299.12938
299.03918
298.9495
298.86047
298.77221
298.68487
298.59856
298.51341
298.42955
298.3471
298.26618
298.18693
298.10945
298.03389
297.96035
297.88898
297.81989
297.75321
297.68908
297.62761
297.56894
297.5132
297.4605
297.41099
297.36477
297.32196
297.28268
297.24701
297.21504
297.18684
297.16246
297.14193
297.12525
297.11245
297.10358
297.09866
297.09771
297.10076
297.10792
297.11932
297.13528
297.15573
297.18155
297.21126
297.24848
297.28633
297.33955
297.38273
297.46122
297.49736
297.61707
297.63729
297.81081
297.84099
309.57923
306.65585
302.45331
300.37706
299.80194
299.80317
299.9049
299.91616
299.91055
299.88441
299.8606
299.82321
299.78042
299.73279
299.68124
299.62589
299.56718
299.50541
299.4409
299.37396
299.30487
299.23391
299.16133
299.08737
299.01227
298.93626
298.85954
298.78232
298.70481
298.6272
298.54967
298.47241
298.39559
298.3194
298.244
298.16956
298.09624
298.02421
297.95363
297.88465
297.81744
297.75214
297.68891
297.6279
297.56926
297.51314
297.45969
297.40904
297.36133
297.3167
297.27528
297.23719
297.20253
297.17141
297.14391
297.1201
297.10001
297.08368
297.0711
297.06229
297.0573
297.05614
297.05881
297.06535
297.07586
297.09047
297.10946
297.13281
297.16127
297.1936
297.23296
297.27335
297.32797
297.37364
297.45249
297.49144
297.61083
297.63293
297.80894
297.83564
308.16886
304.57309
301.44801
299.73895
299.40719
299.44783
299.482
299.45615
299.42776
299.39527
299.36366
299.32879
299.29226
299.25282
299.21121
299.16721
299.12103
299.07263
299.02212
298.96959
298.91514
298.8589
298.80099
298.74154
298.68072
298.61866
298.55553
298.4915
298.42673
298.36141
298.2957
298.22978
298.16385
298.09807
298.03264
297.96774
297.90355
297.84025
297.77803
297.71707
297.65754
297.59963
297.54352
297.48936
297.43734
297.38763
297.34038
297.29575
297.25389
297.21497
297.1791
297.14642
297.11704
297.09107
297.0686
297.04967
297.03434
297.02263
297.01454
297.01007
297.00927
297.01214
297.01868
297.02893
297.04297
297.06093
297.08309
297.10944
297.14066
297.17564
297.21727
297.26013
297.31636
297.36428
297.44389
297.48539
297.60486
297.62859
297.80689
297.83077
306.97346
303.11604
300.27552
298.98328
298.93153
298.94792
298.96512
298.92941
298.91102
298.8821
298.85818
298.8292
298.79999
298.76884
298.73658
298.7027
298.66735
298.6304
298.59186
298.55173
298.51001
298.46674
298.42196
298.37574
298.32813
298.27924
298.22916
298.178
298.12588
298.07295
298.01935
297.96522
297.91074
297.85607
297.80139
297.74687
297.69271
297.63908
297.58618
297.53421
297.48334
297.43378
297.38572
297.33934
297.29484
297.25239
297.21217
297.17435
297.13911
297.10659
297.07695
297.05031
297.02681
297.00655
296.9896
296.97604
296.96591
296.95922
296.95597
296.95618
296.95986
296.96703
296.97767
296.99182
297.00957
297.03105
297.0565
297.08594
297.12
297.15769
297.20167
297.24699
297.30494
297.35496
297.43558
297.47932
297.59914
297.6243
297.8048
297.8262
306.26958
301.89965
299.31024
298.35415
298.43096
298.40553
298.43159
298.39495
298.38812
298.36382
298.34846
298.32666
298.30618
298.28391
298.26106
298.23697
298.21182
298.18545
298.15783
298.12892
298.09871
298.06718
298.03432
298.00015
297.96471
297.92803
297.89016
297.85118
297.81117
297.77022
297.72845
297.68599
297.64295
297.59949
297.55577
297.51195
297.46819
297.4247
297.38164
297.33921
297.2976
297.25702
297.21766
297.17971
297.14338
297.10885
297.07631
297.04594
297.01791
296.9924
296.96955
296.94951
296.9324
296.91832
296.90736
296.89959
296.89505
296.89374
296.89567
296.90083
296.90926
296.92096
296.93591
296.95415
296.97576
297.00087
297.02972
297.06235
297.09932
297.13977
297.18616
297.23392
297.29369
297.34573
297.42749
297.47327
297.59366
297.6201
297.8027
297.82193
305.70108
300.70922
298.50606
297.75016
297.89893
297.8435
297.88945
297.85339
297.86144
297.84382
297.83944
297.82633
297.81558
297.80276
297.7896
297.77532
297.76008
297.74376
297.72636
297.70784
297.68818
297.66735
297.64535
297.62218
297.59783
297.57234
297.54574
297.51805
297.48935
297.45969
297.42916
297.39785
297.36587
297.33335
297.3004
297.26719
297.23386
297.20059
297.16754
297.1349
297.10285
297.0716
297.04133
297.01225
296.98454
296.9584
296.93402
296.91159
296.89128
296.87325
296.85768
296.84468
296.8344
296.82693
296.82236
296.82075
296.82214
296.82654
296.83393
296.84432
296.85774
296.87418
296.89362
296.91611
296.94171
296.97057
297.00291
297.03879
297.07874
297.12197
297.17081
297.22101
297.28263
297.33668
297.41963
297.46735
297.58839
297.61605
297.80063
297.81804
305.12199
299.65672
297.8544
297.19921
297.39579
297.31428
297.37983
297.34218
297.36263
297.34958
297.3542
297.34826
297.34543
297.34031
297.3351
297.32898
297.32208
297.31432
297.30568
297.29612
297.28561
297.27413
297.26166
297.24819
297.2337
297.21821
297.20172
297.18426
297.16585
297.14656
297.12643
297.10553
297.08396
297.06181
297.03919
297.01623
296.99306
296.96984
296.94671
296.92385
296.90143
296.87964
296.85866
296.83867
296.81986
296.80243
296.78655
296.77242
296.76019
296.75004
296.74211
296.73654
296.73346
296.73295
296.73511
296.73998
296.74761
296.75799
296.7711
296.78694
296.80555
296.82691
296.85101
296.87787
296.90758
296.94028
296.97618
297.01537
297.05832
297.10437
297.15567
297.2083
297.27181
297.32788
297.41199
297.4616
297.58332
297.6122
297.79867
297.8144
304.64153
298.70722