/*--------------------------------*- C++ -*----------------------------------*\
  =========                 |
  \\      /  F ield         | OpenFOAM: The Open Source CFD Toolbox
   \\    /   O peration     | Website:  https://openfoam.org
    \\  /    A nd           | Version:  12
     \\/     M anipulation  |
\*---------------------------------------------------------------------------*/
FoamFile
{
    format      ascii;
    class       volVectorField;
    location    "0.145";
    object      U;
}
// * * * * * * * * * * * * * * * * * * * * * * * * * * * * * * * * * * * * * //

dimensions      [0 1 -1 0 0 0 0];

internalField   nonuniform List<vector> 
16000
(
(215.76741 -3.1371571e-17 -8.3910278)
(252.7261 0 5.3882608)
(238.76887 0 -7.5776765)
(246.48913 4.9640788e-17 3.7961678)
(241.79671 -4.8999686e-17 -5.9566326)
(244.00455 0 1.7597335)
(242.20913 0 -4.3263681)
(242.71488 8.3871261e-17 -0.024626916)
(241.87474 -7.968411e-17 -3.1577079)
(241.75262 0 -1.2647421)
(241.23857 7.2000741e-17 -2.5625688)
(240.89084 -2.0512993e-16 -1.9813576)
(240.44695 1.2983422e-16 -2.4197663)
(240.01793 -1.2350267e-16 -2.3562464)
(239.56086 1.1717947e-16 -2.5167301)
(239.08991 -3.4759648e-18 -2.5879194)
(238.60034 -3.3020276e-18 -2.69059)
(238.09305 -9.7438601e-17 -2.7824813)
(237.56749 1.9090296e-16 -2.8760921)
(237.02352 -9.0576076e-17 -2.9674545)
(236.46099 1.7228883e-16 -3.0569558)
(235.87982 -1.6331524e-16 -3.1439009)
(235.28002 0 -3.2277941)
(234.66168 1.5202178e-16 -3.3080561)
(234.02498 -4.1139352e-18 -3.384099)
(233.37023 -2.653267e-16 -3.4553026)
(232.69782 1.2575582e-16 -3.5210398)
(232.0083 0 -3.5806702)
(231.30231 0 -3.6335563)
(230.58065 2.1839942e-16 -3.6790691)
(229.84425 -2.0349013e-16 -3.716601)
(229.09416 0 -3.7455748)
(228.33159 0 -3.765455)
(227.55787 0 -3.7757615)
(226.77446 5.1339008e-18 -3.77608)
(225.98293 1.5580492e-16 -3.7660731)
(225.18497 -1.4262661e-16 -3.7454922)
(224.38237 -1.3969316e-16 -3.714185)
(223.57698 1.2369004e-16 -3.6721048)
(222.77071 0 -3.6193178)
(221.96552 -1.1838408e-16 -3.5560045)
(221.16339 1.1174171e-16 -3.4824639)
(220.36626 -2.117735e-16 -3.3991105)
(219.57607 1.9980366e-16 -3.3064713)
(218.7947 -1.9513981e-16 -3.2051789)
(218.02393 3.5727236e-16 -3.0959603)
(217.26546 5.5981033e-18 -2.9796263)
(216.52087 2.9753551e-19 -2.8570562)
(215.79162 -1.5038393e-16 -2.7291815)
(215.07899 1.4223167e-16 -2.5969692)
(214.38412 -1.2563521e-16 -2.4614048)
(213.708 0 -2.3234732)
(213.05142 7.4671365e-18 -2.1841429)
(212.41499 0 -2.0443481)
(211.79917 6.6449655e-18 -1.904973)
(211.2042 2.0691509e-16 -1.7668401)
(210.63015 -3.7819374e-16 -1.6306971)
(210.07689 1.0919749e-17 -1.497207)
(209.54414 1.6806072e-16 -1.366938)
(209.03137 -1.4876038e-16 -1.2403723)
(208.53789 1.4012447e-16 -1.1178834)
(208.06288 -8.8174188e-18 -0.99978412)
(207.60543 0 -0.88629474)
(207.16435 0 -0.77754901)
(206.7382 -1.1112203e-16 -0.67362226)
(206.32515 1.1180195e-16 -0.57453316)
(205.92311 -9.906967e-17 -0.48025934)
(205.52981 1.9338258e-16 -0.39074284)
(205.14305 -1.8872951e-16 -0.30589029)
(204.76075 8.3668838e-17 -0.22557007)
(204.38071 5.2836009e-18 -0.14961559)
(204.00015 0 -0.077876266)
(203.61576 4.7506196e-18 -0.010247174)
(203.22478 -4.5126464e-18 0.053550938)
(202.82647 0 0.11384461)
(202.42197 -3.3749359e-17 0.1674271)
(201.98953 6.2467373e-17 0.21589235)
(201.65344 -3.1745318e-17 0.31132409)
(200.9704 0 0.15328678)
(200.96514 0 0.7382822)
(217.08456 0 -11.21602)
(254.36587 -3.7222921e-18 3.3431124)
(239.75072 -1.1964245e-16 -10.509197)
(247.95254 1.1029968e-16 1.7040112)
(242.90448 0 -8.8269316)
(245.34423 1.0148233e-16 -0.40296546)
(243.344 -1.8739993e-16 -7.0784819)
(243.93853 -1.0238084e-19 -2.3099666)
(243.00688 8.4453235e-17 -5.7534184)
(242.8855 0 -3.667425)
(242.33058 -1.5255228e-16 -5.0427861)
(241.95388 1.4922392e-16 -4.4288176)
(241.47795 1.4192687e-16 -4.853383)
(241.01453 -2.612672e-16 -4.7904687)
(240.52293 1.2010583e-16 -4.9306995)
(240.0156 1.1041868e-17 -4.9944404)
(239.48867 1.1546448e-16 -5.0814356)
(238.94273 -1.028341e-16 -5.1595104)
(238.37739 0 -5.2369937)
(237.79252 0 -5.3111908)
(237.18806 5.6744836e-18 -5.381985)
(236.56403 -1.7801629e-16 -5.4486703)
(235.92053 3.3755297e-16 -5.5106161)
(235.25779 -3.1541967e-16 -5.5671422)
(234.57613 1.4256734e-16 -5.617554)
(233.87603 0 -5.6611429)
(233.15805 1.2434606e-16 -5.6971913)
(232.42294 -1.3333632e-16 -5.7249885)
(231.67156 0 -5.7438372)
(230.90491 3.5236234e-18 -5.7530662)
(230.12415 -1.336551e-17 -5.7520407)
(229.3306 0 -5.7401785)
(228.52569 0 -5.7169573)
(227.711 -1.7055312e-16 -5.6819351)
(226.88824 3.3866186e-16 -5.634758)
(226.05922 -1.6262343e-16 -5.5751741)
(225.22585 -1.5903097e-16 -5.503046)
(224.39013 1.4555504e-16 -5.4183569)
(223.55409 -1.1211151e-16 -5.3212209)
(222.7198 -2.8623696e-19 -5.2118868)
(221.88936 -2.6776962e-19 -5.0907398)
(221.06482 2.3270647e-16 -4.9583004)
(220.24818 -1.0979468e-16 -4.8152201)
(219.44141 0 -4.6622722)
(218.64634 2.0230874e-16 -4.5003429)
(217.86471 1.1933914e-17 -4.3304154)
(217.0981 -5.1155094e-18 -4.1535539)
(216.34797 -1.6448729e-16 -3.9708851)
(215.61559 0 -3.7835783)
(214.90207 -1.4651468e-16 -3.5928254)
(214.20833 -8.8572134e-18 -3.3998207)
(213.53513 2.6004442e-16 -3.2057393)
(212.88303 -1.3005518e-16 -3.0117199)
(212.2524 0 -2.8188459)
(211.64345 -2.0377961e-17 -2.6281293)
(211.05622 -2.1116093e-16 -2.4404992)
(210.49054 3.6119464e-16 -2.2567892)
(209.94609 -2.1522814e-16 -2.0777289)
(209.4224 0 -1.9039355)
(208.91879 -1.7076377e-16 -1.7359231)
(208.43443 1.7944711e-16 -1.5740806)
(207.96837 2.6680791e-17 -1.4187127)
(207.51961 0 -1.2700342)
(207.08691 -1.4186376e-16 -1.1281527)
(206.66881 7.3190682e-18 -0.99311009)
(206.26348 1.1168845e-16 -0.86488478)
(205.86882 -1.9733262e-17 -0.74340699)
(205.48247 9.2985229e-17 -0.62856435)
(205.10216 -1.051061e-16 -0.52019953)
(204.72573 5.5077333e-18 -0.41810951)
(204.35097 -5.1969553e-18 -0.32205998)
(203.97511 0 -0.23184411)
(203.59485 -4.6371472e-18 -0.14727133)
(203.20733 4.3861375e-18 -0.06794751)
(202.81106 8.3072067e-18 0.0058137387)
(202.40435 9.8436479e-19 0.071398426)
(201.99279 0 0.14009333)
(201.59272 3.0226595e-17 0.21230652)
(201.05018 -5.7569983e-17 0.12733197)
(200.86304 2.5859643e-17 0.63347771)
(218.26335 0 -14.113581)
(255.85167 -1.2243228e-16 1.0961415)
(240.72339 2.496837e-16 -13.523901)
(249.21188 -2.2297994e-16 -0.55123796)
(243.90262 1.1012656e-16 -11.768195)
(246.4792 -3.2609448e-18 -2.7542334)
(244.35137 9.9253081e-17 -9.875313)
(244.9718 -9.4000653e-17 -4.7903304)
(243.98337 -5.5801113e-18 -8.4116647)
(243.83872 -5.2982937e-18 -6.2344665)
(243.2485 -1.0064861e-17 -7.620645)
(242.83582 1.3886319e-16 -7.0122935)
(242.32443 -1.4075725e-16 -7.4054977)
(241.82252 1.3814542e-16 -7.3495214)
(241.29182 -1.1867438e-16 -7.4683201)
(240.74372 -1.5554017e-17 -7.5239294)
(240.17475 0 -7.5952393)
(239.5855 -1.2431814e-20 -7.6583809)
(238.97564 -2.2623022e-16 -7.7186998)
(238.34518 -3.6743963e-19 -7.7741705)
(237.69415 1.7339998e-16 -7.8243607)
(237.02269 1.7032731e-17 -7.8684789)
(236.33108 -2.1544247e-17 -7.9057729)
(235.6197 0 -7.9354575)
(234.88906 7.3852745e-21 -7.9567411)
(234.13982 -1.6538702e-16 -7.9688287)
(233.3728 1.4775507e-16 -7.9709336)
(232.58894 8.2466816e-18 -7.9622853)
(231.78937 0 -7.9421483)
(230.97538 -7.3984465e-18 -7.9098285)
(230.14839 -1.1680476e-21 -7.8646942)
(229.31 -1.9915614e-16 -7.8061873)
(228.46194 2.0057531e-16 -7.733839)
(227.60608 1.188523e-17 -7.6472887)
(226.74441 -1.7992958e-16 -7.5462922)
(225.87901 1.4849668e-16 -7.4307395)
(225.01204 -1.8094443e-16 -7.3006628)
(224.14571 1.5166403e-16 -7.1562461)
(223.28226 -1.4360397e-16 -6.9978276)
(222.4239 1.3534004e-16 -6.8259053)
(221.57283 1.600264e-17 -6.6411328)
(220.73117 0 -6.4443119)
(219.90095 1.9962376e-16 -6.2363857)
(219.08408 -2.4162415e-16 -6.0184231)
(218.28232 0 -5.7916024)
(217.49728 1.7933497e-16 -5.5571938)
(216.73038 -1.5737115e-16 -5.3165348)
(215.98287 1.6979775e-16 -5.0710096)
(215.25577 -1.7960025e-16 -4.8220244)
(214.54994 0 -4.5709849)
(213.86601 1.7710276e-16 -4.3192743)
(213.20445 -1.3309934e-16 -4.0682299)
(212.56552 0 -3.8191254)
(211.94931 0 -3.5731534)
(211.35574 1.2471262e-16 -3.3314094)
(210.78455 -2.0827773e-16 -3.0948826)
(210.23534 1.2226371e-16 -2.8644447)
(209.70756 1.8400466e-16 -2.6408449)
(209.20051 1.9970113e-19 -2.4247031)
(208.71334 1.7773191e-19 -2.2165194)
(208.24506 -3.238812e-16 -2.016663)
(207.79458 8.9384079e-17 -1.8253944)
(207.36079 0 -1.6428907)
(206.94241 1.4206582e-16 -1.4692104)
(206.53791 -1.6296295e-16 -1.304338)
(206.14552 1.1138643e-16 -1.1481927)
(205.76308 1.3147729e-17 -1.0006412)
(205.38825 -8.5949635e-17 -0.86150662)
(205.01868 1.154221e-17 -0.7305664)
(204.65215 2.1706207e-17 -0.60755269)
(204.28646 -1.0207786e-16 -0.49216381)
(203.91894 9.6004209e-17 -0.38411021)
(203.54633 -7.233627e-17 -0.28311723)
(203.16555 1.3625971e-16 -0.18889561)
(202.77461 -5.6189181e-17 -0.10202369)
(202.37361 -6.0625902e-17 -0.022896762)
(201.96941 5.0091431e-17 0.057952883)
(201.5473 0 0.12062423)
(201.06609 3.2058325e-18 0.099382114)
(200.79878 -1.2158874e-17 0.52279484)
(219.28325 0 -17.080691)
(257.18714 0 -1.2866894)
(241.47576 0 -16.672968)
(250.2938 1.0655768e-16 -2.9123994)
(244.71705 -1.2372997e-16 -14.838012)
(247.44917 -2.2036334e-16 -5.2233496)
(245.179 2.095849e-16 -12.789637)
(245.82786 -1.2413309e-17 -7.3979153)
(244.77508 5.9110517e-18 -11.180121)
(244.60298 -1.7382184e-16 -8.9329749)
(243.97276 1.7016961e-16 -10.309811)
(243.51851 1.0113333e-17 -9.7211885)
(242.96671 -1.5357066e-16 -10.075032)
(242.42092 1.3641992e-16 -10.027585)
(241.84595 -1.3874239e-20 -10.123674)
(241.2519 -8.1813366e-18 -10.169177)
(240.63586 0 -10.223183)
(239.99838 -7.3857995e-18 -10.268928)
(239.33928 -2.1024015e-16 -10.309419)
(238.65866 2.1228481e-16 -10.343081)
(237.95671 1.2601153e-17 -10.369252)
(237.23372 -1.194704e-17 -10.387054)
(236.49012 2.1528661e-16 -10.395633)
(235.7265 -1.714869e-16 -10.394114)
(234.9436 1.0169806e-17 -10.381612)
(234.14232 1.9283562e-16 -10.357263)
(233.32372 -1.2756103e-16 -10.320212)
(232.48907 0 -10.269651)
(231.63978 1.47398e-16 -10.204818)
(230.77746 -1.2372299e-16 -10.125026)
(229.90389 2.4935153e-16 -10.029672)
(229.02098 -1.3317696e-17 -9.918265)
(228.13082 -2.0945152e-16 -9.7904338)
(227.23559 1.7372493e-16 -9.6459509)
(226.33759 -1.8714592e-16 -9.4847417)
(225.43919 -2.9667384e-20 -9.3069001)
(224.54279 2.0921706e-16 -9.1126948)
(223.65082 -3.1574404e-16 -8.9025746)
(222.76567 9.2929229e-17 -8.6771698)
(221.88967 3.5183601e-17 -8.4372876)
(221.02507 -4.9751311e-17 -8.1839064)
(220.17399 0 -7.9181601)
(219.33839 -8.8527678e-17 -7.641324)
(218.52007 1.3865113e-16 -7.3547928)
(217.72062 -2.0935356e-16 -7.0600584)
(216.94143 1.9670786e-16 -6.7586865)
(216.18367 -2.0864197e-16 -6.4522866)
(215.44829 3.9231719e-16 -6.1424879)
(214.73599 -3.0745082e-16 -5.8309126)
(214.0473 3.0830611e-16 -5.5191503)
(213.38249 -1.4470902e-16 -5.2087349)
(212.74169 1.3621866e-16 -4.9011241)
(212.1248 -9.5758824e-17 -4.5976797)
(211.53158 3.0027448e-17 -4.2996549)
(210.96162 0 -4.0081789)
(210.4144 0 -3.7242514)
(209.88922 0 -3.448735)
(209.38528 2.3244252e-17 -3.1823527)
(208.90168 0 -2.9256852)
(208.4374 -1.636006e-16 -2.6791809)
(207.99127 1.9151924e-16 -2.4431545)
(207.5621 -1.0779965e-16 -2.2177965)
(207.14866 -1.1799548e-19 -2.0032165)
(206.74961 2.5220736e-16 -1.7994056)
(206.36345 2.9622813e-17 -1.6062746)
(205.98837 -1.3833043e-16 -1.4236708)
(205.62228 5.1876712e-17 -1.2513887)
(205.26281 -1.4573781e-16 -1.0891807)
(204.90757 -4.553884e-17 -0.93675894)
(204.55431 -6.4015248e-17 -0.79379397)
(204.20082 -6.0031309e-17 -0.65991211)
(203.84455 5.6256925e-17 -0.53473617)
(203.48231 0 -0.41796438)
(203.11075 0 -0.30944178)
(202.72786 -1.5507522e-17 -0.20947744)
(202.33527 0 -0.11710565)
(201.93587 6.8506878e-18 -0.02764539)
(201.51162 5.1590137e-17 0.036474302)
(201.06989 -7.2873044e-17 0.063085883)
(200.74458 -1.4059277e-20 0.40899617)
(220.12556 0 -20.246242)
(258.35061 -8.8084521e-18 -3.746111)
(242.10209 2.6644268e-16 -19.958606)
(251.15465 -2.4886042e-16 -5.4002914)
(245.29525 2.5394987e-16 -18.023766)
(248.21603 -2.3233561e-16 -7.8461758)
(245.80619 -2.2147959e-16 -15.81047)
(246.4724 2.0965654e-16 -10.164235)
(245.35772 0 -14.052223)
(245.14771 0 -11.78199)
(244.47526 1.7968136e-16 -13.11373)
(243.97265 -1.7022209e-16 -12.563281)
(243.37572 -1.0112559e-17 -12.867976)
(242.78086 2.8763066e-17 -12.828271)
(242.15669 -9.1025337e-18 -12.899564)
(241.51186 3.4523443e-17 -12.931192)
(240.84402 0 -12.964934)
(240.15366 0 -12.989519)
(239.44073 -2.3577575e-16 -13.00635)
(238.70546 2.0909947e-16 -13.014074)
(237.94819 0 -13.011844)
(237.1694 0 -12.998676)
(236.36975 -1.9025872e-16 -12.973586)
(235.55008 3.6006038e-16 -12.935592)
(234.71141 -1.7029691e-16 -12.88371)
(233.85497 -2.0175471e-17 -12.816989)
(232.98217 -3.8212226e-17 -12.734522)
(232.09465 -1.4479319e-16 -12.635469)
(231.19421 1.1954857e-16 -12.519075)
(230.28285 0 -12.384694)
(229.36276 -3.0619189e-17 -12.231806)
(228.43625 0 -12.060045)
(227.50579 0 -11.869207)
(226.57392 2.0670862e-16 -11.659276)
(225.64326 -2.190948e-16 -11.430429)
(224.71647 2.2983545e-17 -11.183046)
(223.79617 -2.1686488e-17 -10.917719)
(222.88496 -4.0999307e-17 -10.635246)
(221.98535 -8.5098902e-20 -10.336626)
(221.0997 8.0843125e-20 -10.023048)
(220.23023 -7.6299413e-20 -9.6958759)
(219.37896 0 -9.3566244)
(218.5477 -1.2171426e-16 -9.0069388)
(217.73801 1.1429514e-16 -8.6485627)
(216.95122 0 -8.2833103)
(216.18839 -5.0659619e-17 -7.913039)
(215.45032 1.9040727e-16 -7.5396128)
(214.73757 -2.2321165e-16 -7.1648778)
(214.05046 -2.1000288e-16 -6.7906323)
(213.38908 1.5744763e-16 -6.4186027)
(212.75331 1.1104728e-16 -6.0504207)
(212.14285 -1.3861304e-16 -5.6876059)
(211.55723 -3.2498421e-17 -5.3315481)
(210.99585 -2.1349725e-16 -4.9834999)
(210.45796 1.1418642e-16 -4.644564)
(209.94271 -1.0709744e-16 -4.3156924)
(209.44915 1.001732e-16 -3.9976841)
(208.97625 2.3471283e-16 -3.6911843)
(208.52287 -1.7554521e-16 -3.3966884)
(208.08783 0 -3.1145533)
(207.66985 -3.8416355e-17 -2.8449999)
(207.2676 -7.191159e-17 -2.5881229)
(206.87977 1.3436924e-16 -2.3439352)
(206.505 1.257186e-16 -2.1123409)
(206.14177 -2.3493952e-16 -1.8931608)
(205.78832 8.2283551e-17 -1.6861572)
(205.44259 5.1294133e-17 -1.4910419)
(205.10226 9.5896417e-17 -1.3074918)
(204.7649 1.3444217e-16 -1.1351539)
(204.42825 2.4660786e-20 -0.97363903)
(204.09012 0 -0.82249725)
(203.74811 0 -0.68127846)
(203.39905 -3.4217163e-17 -0.54970093)
(203.03946 9.6006692e-17 -0.42762946)
(202.66767 -8.9794986e-17 -0.31487732)
(202.28563 -8.4059665e-17 -0.21041346)
(201.89271 5.245637e-17 -0.11354787)
(201.47525 0 -0.042220289)
(201.05773 4.6077264e-17 0.017687021)
(200.69693 2.4993464e-20 0.2967863)
(220.76862 0 -23.584318)
(259.31501 1.912369e-20 -6.2817456)
(242.53304 9.0665995e-18 -23.339818)
(251.84789 2.8823051e-16 -8.0268531)
(245.71664 3.3409147e-19 -21.313111)
(248.75102 -5.0556317e-16 -10.619878)
(246.18763 -3.2430248e-19 -18.9264)
(246.87604 4.5598356e-16 -13.093225)
(245.69971 -2.097975e-16 -17.025256)
(245.44561 -1.244455e-17 -14.780566)
(244.72947 1.1819623e-17 -16.030967)
(244.17347 -1.7947452e-16 -15.531431)
(243.52768 1.912077e-16 -15.779011)
(242.87955 -1.8168107e-16 -15.743003)
(242.20182 3.0604568e-16 -15.787216)
(241.50165 -3.0835316e-16 -15.800488)
(240.77724 1.3742987e-16 -15.810553)
(240.02905 0 -15.809967)
(239.25724 0 -15.799001)
(238.46224 1.4639571e-17 -15.776308)
(237.64463 -2.7758307e-17 -15.740826)
(236.80517 0 -15.691409)
(235.94487 1.9933603e-16 -15.62692)
(235.06491 4.7331432e-19 -15.546248)
(234.16673 -3.5675141e-16 -15.448313)
(233.25198 1.6856728e-16 -15.332098)
(232.32253 1.9945135e-17 -15.196674)
(231.38048 0 -15.041218)
(230.42813 -1.7867472e-16 -14.865042)
(229.46795 1.3473141e-16 -14.667614)
(228.50259 -2.234265e-16 -14.448582)
(227.53482 2.1029907e-16 -14.207799)
(226.56751 -2.2760554e-16 -13.945327)
(225.60357 2.1424018e-16 -13.661467)
(224.64594 7.5948152e-17 -13.356754)
(223.69751 0 -13.031962)
(222.76107 0 -12.688105)
(221.83933 4.2330595e-17 -12.326423)
(220.93478 3.9870292e-17 -11.948365)
(220.04972 -3.753745e-17 -11.55557)
(219.18622 3.5326266e-17 -11.149841)
(218.34607 6.6649161e-17 -10.733108)
(217.53077 -6.2600594e-17 -10.307405)
(216.74154 3.5294931e-16 -9.8748255)
(215.97929 -2.760898e-16 -9.4374925)
(215.24464 5.1820451e-17 -8.9975237)
(214.53793 -4.8760546e-17 -8.5569956)
(213.85922 0 -8.1179171)
(213.20834 2.1431967e-16 -7.6822002)
(212.58492 -1.6052882e-16 -7.25164)
(211.98837 0 -6.8278933)
(211.41795 0 -6.4124683)
(210.87279 1.3209394e-16 -6.0067105)
(210.3519 -6.1739985e-17 -5.6118004)
(209.8542 0 -5.2287483)
(209.37856 -1.622258e-16 -4.8583967)
(208.92375 1.0098213e-16 -4.5014236)
(208.48853 1.4174496e-16 -4.158347)
(208.07158 -1.7631849e-16 -3.8295319)
(207.67159 1.6480967e-16 -3.5152058)
(207.28714 -1.5373235e-16 -3.2154629)
(206.91684 6.5753902e-20 -2.9302758)
(206.55933 0 -2.6595392)
(206.21322 6.2490916e-17 -2.4030522)
(205.877 -2.913579e-16 -2.1605336)
(205.549 1.6295098e-16 -1.9316506)
(205.22722 0 -1.7160266)
(204.90939 -1.4168527e-16 -1.5132598)
(204.59311 8.8013226e-17 -1.3229329)
(204.27608 1.2312997e-16 -1.1445945)
(203.95619 3.4753703e-20 -0.97772053)
(203.63115 -7.1266954e-17 -0.82182058)
(203.29786 9.9672646e-17 -0.67664644)
(202.95287 -1.5484026e-16 -0.54192523)
(202.59483 8.660524e-17 -0.4170147)
(202.22521 2.6905463e-17 -0.3017521)
(201.84141 5.0221631e-17 -0.19778387)
(201.43629 0 -0.11474372)
(201.03806 -4.3746212e-17 -0.033837208)
(200.65083 2.0378752e-17 0.18762319)
(221.19666 0 -27.091102)
(260.07279 9.8013695e-18 -8.9236831)
(242.76345 -3.0566379e-16 -26.846084)
(252.35598 2.4956888e-16 -10.795324)
(245.94151 2.5635974e-16 -24.701677)
(249.04368 -4.9999502e-16 -13.548614)
(246.36806 2.2998677e-16 -22.125062)
(247.02283 2.3284524e-16 -16.184696)
(245.80344 -2.2066993e-16 -20.083986)
(245.48583 3.9279129e-17 -17.915509)
(244.72523 0 -19.049448)
(244.11035 0 -18.610016)
(243.41076 -2.234022e-17 -18.796889)
(242.7035 -1.6961084e-16 -18.760378)
(241.96587 1.4036544e-16 -18.776841)
(241.20369 1.9041318e-17 -18.768259)
(240.41578 -3.6094942e-17 -18.751686)
(239.60278 3.0796309e-16 -18.722057)
(238.76515 -2.2630963e-16 -18.678839)
(237.90365 2.4564008e-16 -18.620575)
(237.01922 -2.0298799e-16 -18.545993)
(236.11307 2.7522106e-17 -18.453789)
(235.18663 1.5636366e-16 -18.342696)
(234.2416 -1.9666507e-16 -18.21151)
(233.27993 0 -18.059101)
(232.30383 0 -17.884451)
(231.31572 0 -17.686682)
(230.31828 -1.9698157e-16 -17.465078)
(229.31437 1.855577e-16 -17.219118)
(228.30701 -3.5160562e-17 -16.948497)
(227.29936 0 -16.653153)
(226.29466 -2.8186687e-16 -16.333284)
(225.29617 2.3558085e-16 -15.989356)
(224.30714 -5.5721935e-17 -15.622113)
(223.33076 1.5758488e-16 -15.23258)
(222.37007 -4.8966903e-17 -14.822043)
(221.42792 -1.8574776e-16 -14.392048)
(220.50697 2.191289e-16 -13.944367)
(219.60958 -1.6450858e-16 -13.480972)
(218.73782 7.7599947e-17 -13.004005)
(217.89342 -7.2816607e-17 -12.515739)
(217.07778 1.3687975e-16 -12.018531)
(216.29195 -6.4139729e-17 -11.514791)
(215.53662 -2.4140615e-16 -11.006934)
(214.81216 5.0903954e-16 -10.497344)
(214.11862 -2.1200963e-16 -9.9883344)
(213.45576 -1.4940533e-16 -9.4821233)
(212.82309 9.2889347e-17 -8.9807982)
(212.21988 8.7380416e-17 -8.4862985)
(211.64523 -1.6346802e-16 -8.0003969)
(211.09806 1.5273187e-16 -7.5246875)
(210.57719 0 -7.0605795)
(210.08134 1.3368767e-16 -6.6092926)
(209.60917 -1.872536e-16 -6.1718593)
(209.15929 5.8354987e-17 -5.7491282)
(208.73029 5.4385241e-17 -5.3417705)
(208.32073 0 -4.9502897)
(207.92919 0 -4.5750294)
(207.55423 0 -4.216185)
(207.19439 0 -3.8738217)
(206.84823 0 -3.5478802)
(206.51428 -7.145831e-17 -3.2381904)
(206.19118 0 -2.9445131)
(205.87753 -5.3646787e-20 -2.6665295)
(205.5719 2.3075365e-16 -2.4038489)
(205.27267 -2.1466378e-16 -2.1560374)
(204.97796 -9.9929287e-17 -1.922627)
(204.6856 -1.8580583e-16 -1.7031378)
(204.39322 2.5900036e-16 -1.497088)
(204.09852 4.2734182e-20 -1.3039609)
(203.79946 7.4599566e-17 -1.1231695)
(203.49386 0 -0.95422023)
(203.17872 0 -0.79687314)
(202.85083 0 -0.650578)
(202.509 -1.1135641e-16 -0.51446364)
(202.1536 0 -0.38979494)
(201.78145 -9.6215924e-17 -0.27870659)
(201.39256 1.3414286e-16 -0.18057547)
(201.01168 8.3157873e-17 -0.083263664)
(200.60436 -1.9278561e-17 0.082607958)
(221.41388 0 -30.775255)
(260.63047 0 -11.674258)
(242.79993 3.2158573e-16 -30.484268)
(252.68268 1.9295385e-17 -13.72237)
(245.98082 -2.691022e-16 -28.200117)
(249.15567 0 -16.655068)
(246.34758 1.6123741e-17 -25.402168)
(247.04317 -3.0563333e-17 -19.430173)
(245.65878 0 -23.207814)
(245.27106 1.9266176e-16 -21.170008)
(244.4589 -4.1711049e-16 -22.16527)
(243.77463 1.9750871e-16 -21.793683)
(243.01141 2.3442969e-17 -21.921931)
(242.2351 0 -21.880403)
(241.42763 2.1035833e-17 -21.868276)
(240.59369 -3.3932686e-16 -21.833494)
(239.73279 7.4803874e-17 -21.785755)
(238.84581 2.500711e-16 -21.721396)
(237.93365 2.3749442e-16 -21.63939)
(236.99749 -2.5616881e-16 -21.53816)
(236.03879 0 -21.416268)
(235.05928 -2.8744292e-16 -21.2723)
(234.06101 2.4405708e-16 -21.104908)
(233.04629 -2.0571487e-16 -20.912863)
(232.01772 1.9388975e-16 -20.69507)
(230.97817 -1.8375305e-16 -20.4506)
(229.93075 3.4664396e-16 -20.178742)
(228.87879 -1.6358244e-16 -19.879014)
(227.82577 1.5471271e-16 -19.551203)
(226.7753 -2.9168303e-16 -19.195386)
(225.73106 1.372844e-16 -18.811949)
(224.69672 1.2965751e-16 -18.401602)
(223.67589 -2.4463511e-16 -17.96537)
(222.67205 5.6792329e-17 -17.504598)
(221.68849 -5.7623344e-19 -17.020938)
(220.72827 2.5451931e-16 -16.516308)
(219.79412 0 -15.992883)
(218.88844 1.9372541e-19 -15.453045)
(218.01326 0 -14.899337)
(217.17019 -7.9449975e-17 -14.334424)
(216.36044 -1.4931483e-16 -13.761042)
(215.58482 7.0105127e-17 -13.181944)
(214.84371 0 -12.599864)
(214.13716 -6.1779305e-17 -12.017462)
(213.46483 2.8916328e-16 -11.437294)
(212.8261 -3.2463992e-16 -10.861771)
(212.22008 -3.0418855e-16 -10.293141)
(211.64562 2.8401748e-16 -9.7334609)
(211.10144 -1.772479e-16 -9.1845841)
(210.58609 0 -8.6481545)
(210.09801 0 -8.1256013)
(209.6356 7.2343011e-17 -7.6181408)
(209.19721 6.751385e-17 -7.1267825)
(208.78118 1.2582398e-16 -6.6523362)
(208.38587 -5.8673129e-17 -6.1954232)
(208.00965 -1.0929638e-16 -5.7564882)
(207.65093 -2.0382114e-16 -5.3358134)
(207.30816 -9.5089616e-17 -4.9335302)
(206.97981 1.7653924e-16 -4.549634)
(206.66439 0 -4.1840041)
(206.3604 -7.646803e-17 -3.836409)
(206.06641 -1.421417e-16 -3.5065236)
(205.78104 1.3206334e-16 -3.193967)
(205.50296 6.1255667e-17 -2.8982959)
(205.2308 5.6973383e-17 -2.6190078)
(204.96305 0 -2.3555675)
(204.69798 1.9642555e-16 -2.1074174)
(204.43352 1.8226957e-16 -1.8740025)
(204.16739 -2.5363939e-16 -1.6547755)
(203.89733 7.8442698e-17 -1.4491527)
(203.62134 -7.2715421e-17 -1.2565048)
(203.33731 -4.5732755e-20 -1.0763672)
(203.04244 2.4993317e-16 -0.90844626)
(202.7339 -2.3164272e-16 -0.75182819)
(202.41045 5.3629766e-17 -0.60575812)
(202.07095 1.491838e-16 -0.47314451)
(201.71288 -4.6085447e-17 -0.35479528)
(201.34355 -4.2691945e-17 -0.24082584)
(200.97932 0 -0.13416367)
(200.55612 3.6579107e-17 -0.017682572)
(221.43083 3.9113698e-16 -34.64654)
(260.99314 5.4366003e-19 -14.540842)
(242.62051 -3.584362e-16 -34.270409)
(252.82167 0 -16.813532)
(245.75775 0 -31.774323)
(248.92639 -2.6741899e-16 -19.934871)
(246.02157 2.7053031e-16 -28.734187)
(246.54683 6.4163475e-17 -22.836702)
(245.24377 -2.4353882e-16 -26.432222)
(244.77655 2.3035396e-16 -24.57046)
(243.9023 -2.462008e-16 -25.405791)
(243.13575 2.0693263e-16 -25.097646)
(242.29677 -4.9092502e-17 -25.166806)
(241.43969 -4.6554055e-17 -25.110672)
(240.55085 -1.7641305e-16 -25.064926)
(239.63405 1.6662549e-16 -24.996194)
(238.6895 -3.5584406e-16 -24.909324)
(237.71849 5.9815559e-16 -24.801354)
(236.72244 -2.8262217e-16 -24.670861)
(235.70315 -2.6816922e-16 -24.516131)
(234.66273 2.528863e-16 -24.33559)
(233.60361 -3.0116647e-17 -24.127753)
(232.52859 -2.2670444e-16 -23.891269)
(231.44075 2.1355717e-16 -23.624977)
(230.3435 2.529898e-16 -23.32793)
(229.2405 -1.4265215e-16 -22.999439)
(228.13562 0 -22.639117)
(227.03293 2.551286e-16 -22.246894)
(225.93655 -3.2045214e-16 -21.823063)
(224.85066 1.1275344e-16 -21.368281)
(223.77941 -2.8508391e-16 -20.883582)
(222.72678 2.0085403e-16 -20.370377)
(221.6966 -6.3290413e-17 -19.830435)
(220.69239 2.3784515e-16 -19.265856)
(219.71736 -2.2310293e-16 -18.679051)
(218.77429 -2.1027657e-16 -18.072679)
(217.86557 1.9708656e-16 -17.44961)
(216.99307 -4.6225675e-17 -16.812869)
(216.15822 0 -16.165574)
(215.36192 8.1804013e-17 -15.51088)
(214.60463 -7.635166e-17 -14.851924)
(213.88632 0 -14.191769)
(213.20658 1.344487e-16 -13.533357)
(212.56462 -6.2893e-17 -12.879471)
(211.95931 -1.7635134e-16 -12.2327)
(211.38927 5.5008763e-16 -11.595414)
(210.85291 -2.0596175e-16 -10.969747)
(210.34845 9.6064112e-17 -10.357591)
(209.87403 -2.6936419e-16 -9.7605858)
(209.42768 -1.8521293e-19 -9.180129)
(209.00745 1.5618301e-16 -8.6173801)
(208.61135 -1.457033e-16 -8.0732713)
(208.23743 -6.7807935e-17 -7.5485223)
(207.8838 -6.3163102e-17 -7.0436546)
(207.54864 -1.1794139e-16 -6.5590082)
(207.23018 2.1902671e-16 -6.0947584)
(206.92674 0 -5.650932)
(206.63672 9.465435e-17 -5.2274234)
(206.35855 -3.5221827e-16 -4.8240096)
(206.09075 2.4513484e-16 -4.4403719)
(205.83188 7.5865319e-17 -4.0760988)
(205.58052 1.4093981e-16 -3.7307069)
(205.33537 1.3095516e-16 -3.4036746)
(205.09516 -1.2116677e-16 -3.0944344)
(204.85862 -1.1228666e-16 -2.8023762)
(204.62439 -3.1236768e-16 -2.5268682)
(204.39089 -4.1756844e-20 -2.2672702)
(204.15621 -8.927349e-17 -2.0229568)
(203.91817 0 -1.7933144)
(203.67459 -2.2950756e-16 -1.5776951)
(203.42348 7.0770706e-17 -1.375456)
(203.16278 0 -1.1861755)
(202.89 1.2108669e-16 -1.0094176)
(202.6028 0 -0.8438982)
(202.29953 1.0345279e-16 -0.68937275)
(201.97742 -1.433682e-16 -0.55024265)
(201.63587 1.3249132e-16 -0.42430205)
(201.28892 -8.1599801e-17 -0.29419413)
(200.94077 7.5366285e-17 -0.18359698)
(200.50552 0 -0.11271708)
(221.23501 -4.1089822e-16 -38.711458)
(261.14795 3.6292195e-16 -17.541199)
(242.18948 -3.3253015e-16 -38.234339)
(252.70495 3.3064742e-16 -20.081487)
(245.24948 3.1664626e-16 -35.407134)
(248.46902 -1.7996201e-17 -23.400428)
(245.45256 -2.8352041e-16 -32.149235)
(245.92202 -2.6914576e-16 -26.435673)
(244.53233 2.8647087e-16 -29.776554)
(243.95735 0 -28.118206)
(243.01052 2.8584861e-17 -28.778191)
(242.14912 0 -28.521285)
(241.22168 -1.2857103e-16 -28.530861)
(240.27155 2.4275873e-16 -28.448478)
(239.28912 0 -28.361305)
(238.27776 0 -28.248335)
(237.23846 0 -28.111378)
(236.17315 3.9099177e-17 -27.947744)
(235.08399 0 -27.755719)
(233.97357 -2.4454635e-16 -27.53349)
(232.84487 3.2948791e-16 -27.279415)
(231.70125 1.2467586e-16 -26.992052)
(230.54643 1.7678861e-16 -26.670168)
(229.38448 -2.7768802e-16 -26.312833)
(228.21973 -5.2329506e-17 -25.919438)
(227.05674 -2.4765593e-16 -25.489746)
(225.90023 1.8639343e-16 -25.023924)
(224.75498 -2.2015769e-16 -24.522575)
(223.62573 8.2369151e-17 -23.986737)
(222.51713 7.7878662e-17 -23.417895)
(221.4336 0 -22.817967)
(220.37929 2.7707174e-16 -22.189269)
(219.35793 -2.6022946e-16 -21.53449)
(218.37282 0 -20.856631)
(217.42674 -2.3006605e-16 -20.158958)
(216.52191 2.1549106e-16 -19.444925)
(215.65998 -1.0155598e-16 -18.718112)
(214.842 1.9013684e-16 -17.982157)
(214.06846 -2.671607e-16 -17.240675)
(213.33929 1.2842278e-19 -16.497204)
(212.65395 -1.5609907e-16 -15.755143)
(212.01141 -7.305575e-17 -15.017701)
(211.41029 -1.3711957e-16 -14.287859)
(210.84888 2.556142e-16 -13.568338)
(210.32521 -1.1928485e-16 -12.861581)
(209.83713 0 -12.169742)
(209.38236 -3.8180353e-19 -11.49468)
(208.95855 9.7043836e-17 -10.837972)
(208.56331 0 -10.200918)
(208.19428 8.4411617e-17 -9.5845521)
(207.84916 7.892944e-17 -8.9896707)
(207.52569 -7.3283851e-17 -8.4168438)
(207.22175 2.7284969e-16 -7.8664385)
(206.93528 -2.5365268e-16 -7.3386398)
(206.66438 -1.1797182e-16 -6.8334704)
(206.40724 -1.0959638e-16 -6.3508104)
(206.16216 1.0176584e-16 -5.8904151)
(205.92756 1.8877827e-16 -5.4519319)
(205.70194 -3.5017837e-16 -5.0349161)
(205.48385 4.0583878e-16 -4.6388519)
(205.27195 -1.503787e-16 -4.2631509)
(205.06491 1.393904e-16 -3.9071786)
(204.86152 -1.290361e-16 -3.5702816)
(204.66063 2.3898135e-16 -3.2517762)
(204.46108 -3.3175808e-16 -2.9509543)
(204.26168 2.0451411e-16 -2.6670981)
(204.06101 -7.9084917e-20 -2.3994957)
(203.85736 8.7420215e-17 -2.1474576)
(203.64869 0 -1.910303)
(203.43292 0 -1.6873299)
(203.20803 0 -1.4779153)
(202.97204 -1.2705682e-16 -1.2816659)
(202.72281 1.3301015e-20 -1.0979065)
(202.45855 0 -0.92507759)
(202.17689 0 -0.76381526)
(201.87346 9.190116e-17 -0.61949412)
(201.55066 -1.6935844e-16 -0.48558279)
(201.22808 0 -0.33994491)
(200.89555 0 -0.22938875)
(200.45282 -1.3194817e-16 -0.20089894)
(220.7926 2.7737768e-17 -42.979473)
(261.05764 -7.8576008e-16 -20.697644)
(241.47906 3.4788693e-16 -42.338627)
(252.06066 -2.17342e-17 -23.531191)
(244.42575 3.7322007e-16 -39.161619)
(247.67608 -3.5195303e-16 -27.090096)
(244.57241 0 -35.681042)
(244.9098 -3.1704066e-16 -30.227086)
(243.46856 2.3306882e-16 -33.235992)
(242.76921 2.2137353e-16 -31.805376)
(241.73629 -2.389546e-16 -32.284816)
(240.7659 0 -32.060234)
(239.73555 1.9096753e-19 -32.008081)
(238.67872 0 -31.885588)
(237.58944 3.8492568e-16 -31.74557)
(236.47111 -7.2716265e-16 -31.574669)
(235.32569 3.4329941e-16 -31.372863)
(234.15597 -4.0553793e-17 -31.137566)
(232.96514 -3.8536839e-17 -30.866882)
(231.75687 3.6627873e-17 -30.558988)
(230.53526 -6.8396847e-17 -30.212335)
(229.30484 -3.2402121e-16 -29.825675)
(228.0705 3.04961e-16 -29.398133)
(226.83743 5.7489987e-17 -28.929264)
(225.61101 -2.7245993e-16 -28.41908)
(224.39676 -7.0037335e-19 -27.868112)
(223.20018 2.8938329e-16 -27.277405)
(222.02668 -1.8163174e-16 -26.648539)
(220.88147 -6.1484991e-19 -25.983607)
(219.76939 0 -25.285196)
(218.69488 0 -24.556338)
(217.66182 -7.1478145e-17 -23.800456)
(216.67351 1.3381668e-16 -23.021296)
(215.73255 0 -22.222847)
(214.84089 -1.1828037e-16 -21.409253)
(213.99971 2.2132018e-16 -20.584736)
(213.20956 -1.0368782e-16 -19.753494)