/*--------------------------------*- C++ -*----------------------------------*\
  =========                 |
  \\      /  F ield         | OpenFOAM: The Open Source CFD Toolbox
   \\    /   O peration     | Website:  https://openfoam.org
    \\  /    A nd           | Version:  12
     \\/     M anipulation  |
\*---------------------------------------------------------------------------*/
FoamFile
{
    format      ascii;
    class       volScalarField;
    location    "0.079";
    object      alphat;
}
// * * * * * * * * * * * * * * * * * * * * * * * * * * * * * * * * * * * * * //

dimensions      [1 -1 -1 0 0 0 0];

internalField   nonuniform List<scalar> 
16000
(
5.0146297e-07
1.0748477e-05
2.0650748e-05
2.5716398e-05
1.9857011e-05
2.7298041e-05
1.9294985e-05
2.6416799e-05
2.0646842e-05
2.8378205e-05
2.3965358e-05
2.8114052e-05
2.5683625e-05
2.637439e-05
2.5515909e-05
2.5393617e-05
2.5155777e-05
2.5110612e-05
2.51513e-05
2.5299715e-05
2.5548443e-05
2.5896751e-05
2.6342361e-05
2.6885684e-05
2.7529452e-05
2.8280533e-05
2.9148133e-05
3.0146755e-05
3.1294008e-05
3.2608863e-05
3.4112199e-05
3.5831688e-05
3.7802984e-05
4.0069997e-05
4.268672e-05
4.5717578e-05
4.9239328e-05
5.3343548e-05
5.8143601e-05
6.3779891e-05
7.0417195e-05
7.8249658e-05
8.7521854e-05
9.8532958e-05
0.00011163853
0.00012726455
0.00014593839
0.00016830151
0.0001951334
0.00022738194
0.00026620431
0.00031301533
0.00036953809
0.00043787593
0.00052059753
0.00062085245
0.00074251169
0.00089034996
0.0010702993
0.0011767082
0.0011774688
0.0011781118
0.0011786837
0.0011791292
0.0011794433
0.0011795996
0.0011795605
0.0011792713
0.001178654
0.0011776057
0.0011760152
0.0011737697
0.0011709113
0.0011689099
0.0011676688
0.0011672276
0.001167265
0.0011677361
0.0011665048
0.0011656065
4.4900019e-07
1.0192599e-05
2.1248802e-05
2.3357312e-05
1.7902317e-05
2.4471946e-05
1.7114693e-05
2.3135378e-05
1.8227988e-05
2.5068538e-05
2.1682756e-05
2.5338382e-05
2.3471253e-05
2.3884058e-05
2.3217072e-05
2.3038497e-05
2.2842959e-05
2.2791401e-05
2.2831808e-05
2.2968114e-05
2.3198345e-05
2.3521372e-05
2.3935534e-05
2.4441292e-05
2.5040836e-05
2.5740573e-05
2.6548501e-05
2.7477701e-05
2.8544821e-05
2.9768326e-05
3.1167628e-05
3.2768002e-05
3.4602428e-05
3.671155e-05
3.9145859e-05
4.1965905e-05
4.5244293e-05
4.9067017e-05
5.3539609e-05
5.8794901e-05
6.499105e-05
7.2310598e-05
8.0983583e-05
9.1294906e-05
0.00010358555
0.00011825978
0.00013581981
0.00015687862
0.00018218261
0.0002126399
0.00024935939
0.0002937007
0.00034732215
0.00041225189
0.0004909691
0.00058651714
0.00070264218
0.0008439619
0.0010161983
0.0011762021
0.0011769774
0.0011775721
0.0011781037
0.0011785092
0.0011787834
0.0011789001
0.0011788216
0.0011784944
0.0011778435
0.0011767643
0.0011751455
0.0011729321
0.0011702546
0.0011683947
0.0011672758
0.0011668842
0.0011670164
0.0011675013
0.0011661347
0.0011652266
4.0476171e-07
9.7644498e-06
2.0084235e-05
2.1283997e-05
1.6017077e-05
2.1541867e-05
1.5224339e-05
2.0100437e-05
1.6374849e-05
2.1984074e-05
1.974988e-05
2.2546124e-05
2.1242106e-05
2.1374015e-05
2.0865828e-05
2.0664381e-05
2.0503109e-05
2.0456793e-05
2.0499807e-05
2.0629375e-05
2.0844987e-05
2.1145907e-05
2.153079e-05
2.2000359e-05
2.2556395e-05
2.3205064e-05
2.395353e-05
2.4813653e-05
2.5800961e-05
2.6933434e-05
2.82295e-05
2.9712546e-05
3.1413351e-05
3.3369757e-05
3.5629165e-05
3.8248586e-05
4.1296978e-05
4.4855976e-05
4.9024555e-05
5.3928036e-05
5.9719211e-05
6.6571735e-05
7.4703257e-05
8.4385506e-05
9.5948004e-05
0.00010977753
0.00012635541
0.00014627096
0.00017024336
0.00019914876
0.00023405669
0.00027628201
0.00032743047
0.00038946981
0.00046480757
0.00055640203
0.00066790041
0.00080380545
0.00096969176
0.0011724875
0.0011766597
0.001177192
0.0011776651
0.0011780134
0.0011782308
0.0011782911
0.0011781562
0.001177773
0.0011770703
0.0011759465
0.0011742809
0.0011720516
0.0011695927
0.0011678928
0.0011668888
0.0011666131
0.0011667951
0.0011672699
0.0011660486
0.0011651388
3.5835692e-07
9.437348e-06
1.9048747e-05
1.9939168e-05
1.439797e-05
1.9006994e-05
1.3556495e-05
1.7553123e-05
1.4728894e-05
1.9365438e-05
1.8012632e-05
2.0077544e-05
1.9190585e-05
1.9118589e-05
1.8728906e-05
1.8526918e-05
1.8395916e-05
1.8360407e-05
1.8409073e-05
1.8535808e-05
1.8740755e-05
1.9023657e-05
1.9383532e-05
1.9821509e-05
2.033911e-05
2.0942427e-05
2.1638076e-05
2.2436958e-05
2.335355e-05
2.4405443e-05
2.561042e-05
2.6990276e-05
2.857401e-05
3.0397068e-05
3.2504255e-05
3.4949543e-05
3.7798765e-05
4.1130156e-05
4.5037495e-05
4.963915e-05
5.5083832e-05
6.1538498e-05
6.9210897e-05
7.8361133e-05
8.9310522e-05
0.00010243246
0.00011819178
0.00013715951
0.00016003394
0.00018766791
0.00022110125
0.00026161626
0.00031078052
0.00037051915
0.00044318998
0.00053169258
0.00063960672
0.00077136033
0.00093243819
0.0011296624
0.0011765449
0.0011770002
0.0011773985
0.0011776741
0.00117782
0.0011778104
0.0011776071
0.0011771568
0.0011763918
0.00117522
0.0011735176
0.0011712683
0.0011690226
0.0011674704
0.0011665676
0.0011663963
0.0011666145
0.0011671301
0.0011661145
0.0011651529
3.2417837e-07
9.1981566e-06
1.8167816e-05
1.9908622e-05
1.4541548e-05
1.680271e-05
1.2097163e-05
1.5373107e-05
1.33168e-05
1.7116874e-05
1.647345e-05
1.7862143e-05
1.7286077e-05
1.7076729e-05
1.6774322e-05
1.6586439e-05
1.6480039e-05
1.6455594e-05
1.6508318e-05
1.6631355e-05
1.6825107e-05
1.7089982e-05
1.7425406e-05
1.7833032e-05
1.8314259e-05
1.8875196e-05
1.9522061e-05
2.0264998e-05
2.111744e-05
2.2096551e-05
2.3219688e-05
2.450733e-05
2.5987009e-05
2.7692114e-05
2.966523e-05
3.1957703e-05
3.463259e-05
3.7765405e-05
4.1446053e-05
4.5786328e-05
5.0931568e-05
5.7043773e-05
6.4323019e-05
7.3018587e-05
8.3445684e-05
9.5967387e-05
0.00011103505
0.00012920489
0.00015115812
0.00017772976
0.00020993557
0.00024903238
0.00029655728
0.00035440211
0.00042488633
0.00051086412
0.0006158633
0.00074425541
0.00090145941
0.001094199
0.0011766135
0.0011769791
0.001177287
0.0011774757
0.0011775365
0.0011774439
0.0011771605
0.0011766328
0.0011757944
0.0011745665
0.0011728375
0.0011705799
0.0011685349
0.0011671241
0.0011663231
0.0011662272
0.0011664547
0.0011670537
0.0011663337
0.0011652304
3.0018042e-07
9.0515905e-06
1.7464222e-05
1.9568153e-05
1.4207269e-05
1.4878307e-05
1.1598759e-05
1.3577502e-05
1.2672605e-05
1.5248567e-05
1.5135135e-05
1.5925768e-05
1.5556033e-05
1.5265113e-05
1.5016799e-05
1.484464e-05
1.4753528e-05
1.4735453e-05
1.4788269e-05
1.4905308e-05
1.5086938e-05
1.5334122e-05
1.5646492e-05
1.602614e-05
1.6474402e-05
1.6997394e-05
1.7601003e-05
1.8294778e-05
1.9091144e-05
2.0006812e-05
2.1058917e-05
2.2266878e-05
2.3657082e-05
2.526122e-05
2.7120076e-05
2.9282841e-05
3.181025e-05
3.4775687e-05
3.8266619e-05
4.2389205e-05
4.7285769e-05
5.3115153e-05
6.0072556e-05
6.839753e-05
7.8401422e-05
9.0440551e-05
0.00010495633
0.00012249451
0.00014372372
0.0001694679
0.00020072585
0.00023873765
0.00028502017
0.00034144405
0.00041030572
0.00049443194
0.0005973195
0.000723308
0.00087778587
0.0010674404
0.0011768543
0.0011771173
0.0011773213
0.0011774103
0.0011773741
0.0011771874
0.0011768138
0.001176201
0.0011752818
0.0011739891
0.0011722407
0.0011699997
0.0011681427
0.0011668666
0.0011661708
0.0011661117
0.0011663302
0.0011670108
0.0011665954
0.0011653465
2.6807127e-07
8.968578e-06
1.6916108e-05
1.8439348e-05
1.4090823e-05
1.3137161e-05
1.1560171e-05
1.256647e-05
1.1878906e-05
1.3584875e-05
1.3935114e-05
1.4218712e-05
1.3954082e-05
1.3627607e-05
1.3409463e-05
1.3253409e-05
1.3173683e-05
1.316109e-05
1.3214037e-05
1.3326386e-05
1.3498118e-05
1.3730689e-05
1.4023653e-05
1.4295389e-05
1.4705209e-05
1.5186792e-05
1.5745171e-05
1.6389099e-05
1.71298e-05
1.7983168e-05
1.8966089e-05
2.0096963e-05
2.1401128e-05
2.2908665e-05
2.4658695e-05
2.6698447e-05
2.9086492e-05
3.1894139e-05
3.520731e-05
3.9422866e-05
4.4119194e-05
4.9722335e-05
5.642546e-05
6.4459809e-05
7.413418e-05
8.5801595e-05
9.9896955e-05
0.0001169595
0.00013764909
0.00016278482
0.00019335473
0.0002305901
0.00027599666
0.00033143441
0.00039919012
0.00048207915
0.00058358556
0.0007080383
0.00086082223
0.0010486253
0.0011772493
0.0011773989
0.0011774873
0.001177466
0.0011773228
0.0011770327
0.0011765606
0.0011758567
0.0011748533
0.0011734874
0.001171719
0.0011695357
0.0011678521
0.0011667039
0.0011660941
0.0011660434
0.0011662133
0.0011669546
0.0011668312
0.001165523
2.4251522e-07
8.9215317e-06
1.6443861e-05
1.6729714e-05
1.2713207e-05
1.1446837e-05
9.8482007e-06
1.1159018e-05
1.0340073e-05
1.2225997e-05
1.2722501e-05
1.264911e-05
1.2425552e-05
1.210843e-05
1.1915782e-05
1.1781254e-05
1.1716056e-05
1.1712471e-05
1.1698016e-05
1.179186e-05
1.1944982e-05
1.2157909e-05
1.2428346e-05
1.2757103e-05
1.3148936e-05
1.3607576e-05
1.4138416e-05
1.4750129e-05
1.5453331e-05
1.6263451e-05
1.7197601e-05
1.8273646e-05
1.9516431e-05
2.0955025e-05
2.2627594e-05
2.4580141e-05
2.6869957e-05
2.9567103e-05
3.2757002e-05
3.6543591e-05
4.1053461e-05
4.6446712e-05
5.2916648e-05
6.11997e-05
7.0638888e-05
8.2046275e-05
9.5854059e-05
0.00011259881
0.00013293548
0.00015768494
0.00018783096
0.00022460432
0.00026950933
0.00032440664
0.00039158736
0.00047387267
0.00057475379
0.00069857227
0.00085073832
0.0010379811
0.0011777786
0.0011778055
0.001177769
0.001177629
0.0011773712
0.0011769708
0.0011763938
0.0011755944
0.001174507
0.0011730637
0.0011712625
0.0011691939
0.0011676662
0.0011666345
0.0011660949
0.0011660267
0.0011661489
0.0011668926
0.0011669757
0.0011657885
2.2380747e-07
8.8752152e-06
1.5942783e-05
1.4645274e-05
1.0449203e-05
1.0176292e-05
8.1322473e-06
9.5195404e-06
9.7174371e-06
1.0984256e-05
1.1498804e-05
1.119256e-05
1.0988595e-05
1.0705951e-05
1.0539257e-05
1.0356078e-05
1.028022e-05
1.0271091e-05
1.0321307e-05
1.0427624e-05
1.0585808e-05
1.0798209e-05
1.1063712e-05
1.1382677e-05
1.1760033e-05
1.2200468e-05
1.2709415e-05
1.3295588e-05
1.3969192e-05
1.4745171e-05
1.5640981e-05
1.667421e-05
1.7869541e-05
1.9255353e-05
2.0869242e-05
2.2756502e-05
2.4973686e-05
2.7590212e-05
3.069087e-05
3.4378759e-05
3.8780934e-05
4.4055272e-05
5.0398332e-05
5.8037691e-05
6.7264674e-05
7.8440977e-05
9.281263e-05
0.00010939606
0.00012956518
0.00015414886
0.0001841335
0.00022075775
0.00026553438
0.00032033607
0.00038747252
0.00046978839
0.00057080284
0.00069489382
0.00084752529
0.0010355073
0.0011784193
0.0011783165
0.0011781482
0.0011778832
0.0011775058
0.0011769908
0.0011763052
0.001175407
0.0011742379
0.0011727225
0.0011708659
0.001168975
0.0011675858
0.0011666557
0.0011661718
0.0011660616
0.001166148
0.0011668301
0.0011671387
0.0011660898
2.0517661e-07
8.8304882e-06
1.4320175e-05
1.2777884e-05
8.4537064e-06
9.0455929e-06
7.268288e-06
8.5883453e-06
8.995765e-06
9.8302431e-06
1.0292534e-05
9.8694512e-06
9.671351e-06
9.3376038e-06
9.1602309e-06
9.0523112e-06
9.0111381e-06
9.0275462e-06
9.0950238e-06
9.2127898e-06
9.3775528e-06
9.5898749e-06
9.8517637e-06
1.0163534e-05
1.0530313e-05
1.0957229e-05
1.1449887e-05
1.2017181e-05
1.2669062e-05
1.3420026e-05
1.4287939e-05
1.5290459e-05
1.6452369e-05
1.7801669e-05
1.9375759e-05
2.121968e-05
2.3389751e-05
2.5955362e-05
2.9001727e-05
3.2632497e-05
3.6974919e-05
4.2186521e-05
4.846761e-05
5.6045971e-05
6.5215712e-05
7.6341106e-05
8.987022e-05
0.00010632745
0.00012753235
0.00015217248
0.00018226132
0.00021905357
0.00026408111
0.00031924066
0.00038687538
0.00046987222
0.00057180066
0.00069710111
0.00085132106
0.0010413906
0.0011791461
0.0011789088
0.0011786048
0.0011782114
0.0011777114
0.0011770803
0.0011762852
0.0011752866
0.0011740374
0.0011724691
0.0011705676
0.0011688744
0.0011676096
0.0011667615
0.0011663216
0.0011661388
0.0011662115
0.0011667783
0.001167157
0.0011663788
1.8927229e-07
8.784654e-06
1.1381115e-05
1.0560884e-05
6.9609833e-06
8.0530451e-06
6.629043e-06
7.7187938e-06
8.4209693e-06
8.7848124e-06
9.1120099e-06
8.5759194e-06
8.3262811e-06
8.0970652e-06
7.9684821e-06
7.9007486e-06
7.8891714e-06
7.9276466e-06
8.0114007e-06
8.139136e-06
8.3090494e-06
8.5233233e-06
8.7839613e-06
9.0917859e-06
9.452036e-06
9.87032e-06
1.0352541e-05
1.0907838e-05
1.1546131e-05
1.228155e-05
1.3065226e-05
1.403802e-05
1.5168238e-05
1.6483482e-05
1.8020948e-05
1.9825474e-05
2.1953227e-05
2.4473636e-05
2.7472488e-05
3.1054316e-05
3.534774e-05
4.0829724e-05
4.7114489e-05
5.4710961e-05
6.3916209e-05
7.5098491e-05
8.8718934e-05
0.0001053146
0.00012556157
0.00015030078
0.00018221208
0.00021949466
0.00026515971
0.00032114052
0.00038982949
0.00047417601
0.00057782404
0.00070530497
0.00086228169
0.0010558429
0.0011799327
0.0011795585
0.0011791178
0.0011785948
0.0011779719
0.0011772252
0.001176323
0.0011752261
0.0011738953
0.0011722942
0.001170415
0.0011688852
0.0011677343
0.0011669455
0.0011665322
0.0011662788
0.0011663281
0.0011667837
0.00116707
0.0011664047
1.7526997e-07
8.7417351e-06
8.9947475e-06
9.0284927e-06
6.1415277e-06
7.1380178e-06
6.0912184e-06
6.9623567e-06
7.8373154e-06
7.8118817e-06
7.8327971e-06
7.3779054e-06
7.1751818e-06
7.0091297e-06
6.9220443e-06
6.8877941e-06
6.9015714e-06
6.9592815e-06
7.0571414e-06
7.1951846e-06
7.3721088e-06
7.5901019e-06
7.8521782e-06
8.1596663e-06
8.5179014e-06
8.8946734e-06
9.3646323e-06
9.9070404e-06
1.0531682e-05
1.1252223e-05
1.2085128e-05
1.3051792e-05
1.4176357e-05
1.5486565e-05
1.7020045e-05
1.8822198e-05
2.0949994e-05
2.3473911e-05
2.6481614e-05
3.0080026e-05
3.4401016e-05
3.9609181e-05
4.5905895e-05
5.3532198e-05
6.279044e-05
7.4699672e-05
8.8543305e-05
0.00010543284
0.00012605687
0.00015128323
0.00018216919
0.00022208691
0.00026878596
0.0003260647
0.00039638129
0.00048276941
0.00058897381
0.00071964852
0.00088060735
0.0010791347
0.0011807525
0.0011802413
0.0011796655
0.0011790146
0.0011782708
0.0011774109
0.0011764059
0.0011752176
0.0011738056
0.0011721689
0.0011703861
0.0011689998
0.0011679517
0.0011672061
0.0011667655
0.0011665062
0.0011664772
0.0011668223
0.0011669993
0.0011662291
1.6280851e-07
8.6904921e-06
7.1695196e-06
7.9289605e-06
5.4789316e-06
6.3220209e-06
5.6316251e-06
6.2947357e-06
7.1428305e-06
6.7070845e-06
6.6793324e-06
6.3309923e-06
6.1716014e-06
6.0566018e-06
6.0051107e-06
5.9998066e-06
6.0362518e-06
6.1119119e-06
6.2238745e-06
6.3728377e-06
6.5582937e-06
6.7826007e-06
7.0196385e-06
7.3240651e-06
7.6789334e-06
8.0891918e-06
8.5630578e-06
9.1093494e-06
9.738115e-06
1.0463283e-05
1.1301529e-05
1.227405e-05
1.3406472e-05
1.4727013e-05
1.6274027e-05
1.8093899e-05
2.0245018e-05
2.2799497e-05
2.5847695e-05
2.9500104e-05
3.3892086e-05
3.9192142e-05
4.5612276e-05
5.3399865e-05
6.2867054e-05
7.4401505e-05
8.8483929e-05
0.00010569395
0.00012786004
0.00015380041
0.00018558243
0.00022455404
0.00027497216
0.00033404021
0.00040657658
0.00049572305
0.00060535395
0.00074028026
0.00090650818
0.0011115548
0.0011815796
0.0011809336
0.001180227
0.0011794523
0.0011785919
0.0011776233
0.00117652
0.0011752495
0.0011737684
0.0011720799
0.0011704699
0.0011692065
0.0011682431
0.0011675434
0.0011670775
0.0011667755
0.001166668
0.0011668809
0.0011669765
0.0011664411
1.5176531e-07
8.6277132e-06
5.7604501e-06
6.9352513e-06
4.8889869e-06
5.5970604e-06
5.242267e-06
5.6149531e-06
6.2678048e-06
5.7485447e-06
5.667772e-06
5.4155532e-06
5.2971126e-06
5.2247841e-06
5.2049735e-06
5.2258672e-06
5.2836249e-06
5.3768576e-06
5.5034885e-06
5.6436722e-06
5.8330966e-06
6.061343e-06
6.3311658e-06
6.6461167e-06
7.011236e-06
7.4319082e-06
7.9162857e-06
8.473922e-06
9.1151437e-06
9.854102e-06
1.0707656e-05
1.1697323e-05
1.279129e-05
1.4123224e-05
1.5684738e-05
1.752317e-05
1.9698574e-05
2.2284773e-05
2.5374887e-05
2.90836e-05
3.3550966e-05
3.9246501e-05
4.5851377e-05
5.3874626e-05
6.3639537e-05
7.5545355e-05
9.0096607e-05
0.0001078995
0.00012969472
0.00015783513
0.00019079199
0.00023122612
0.00028085578
0.00034508231
0.00042044957
0.00051309506
0.00062705525
0.00076733389
0.00094017786
0.0011533797
0.00118239
0.0011816135
0.0011807827
0.0011798902
0.0011789197
0.0011778491
0.0011766525
0.0011753062
0.0011737834
0.0011720852
0.0011706479
0.0011694941
0.0011685929
0.0011679175
0.001167442
0.0011671296
0.001166918
0.0011670044
0.0011670345
0.0011666588
1.4199229e-07
8.5105259e-06
4.6850138e-06
6.0516086e-06
4.3635925e-06
4.9531621e-06
4.9042634e-06
4.8756511e-06
5.3844917e-06
4.8938407e-06
4.7912109e-06
4.6182216e-06
4.538943e-06
4.5036322e-06
4.5128064e-06
4.5581467e-06
4.6365542e-06
4.7287968e-06
4.864744e-06
5.0352344e-06
5.2414338e-06
5.4852565e-06
5.7702288e-06
6.1001329e-06
6.4806593e-06
6.9174985e-06
7.418899e-06
7.9709774e-06
8.6256352e-06
9.3791332e-06
1.0248422e-05
1.1255091e-05
1.2425538e-05
1.3792918e-05
1.5396783e-05
1.728611e-05
1.9523786e-05
2.2186537e-05
2.5371346e-05
2.9198911e-05
3.381596e-05
3.9407222e-05
4.6195802e-05
5.4456186e-05
6.452608e-05
7.7465331e-05
9.2614044e-05
0.00011116246
0.00013388917
0.00016175236
0.00019777057
0.0002400065
0.00029187185
0.00035557631
0.00043800459
0.0005349096
0.00065412857
0.0008008952
0.0009817488
0.0011840454
0.0011831618
0.0011822616
0.0011813151
0.0011803127
0.0011792397
0.0011780757
0.0011767945
0.0011753745
0.0011738232
0.0011722031
0.0011709022
0.0011698475
0.0011690038
0.0011683414
0.0011678462
0.0011675005
0.0011672317
0.001167187
0.0011671931
0.0011669612
1.3340003e-07
8.1898166e-06
3.943207e-06
5.268241e-06
3.8970024e-06
4.3839242e-06
4.3671932e-06
4.2075485e-06
4.5322565e-06
4.1380042e-06
4.040117e-06
3.9304278e-06
3.8881327e-06
3.8857075e-06
3.9216515e-06
3.9755851e-06
4.0672006e-06
4.1920316e-06
4.3493959e-06
4.539766e-06
4.7649995e-06
5.0275876e-06
5.3315321e-06
5.6809397e-06
6.0682157e-06
6.5222761e-06
7.0416263e-06
7.6358282e-06
8.3168935e-06
9.0991305e-06
9.9999666e-06
1.1041917e-05
1.2252523e-05
1.3666282e-05
1.5325566e-05
1.7281265e-05
1.9599778e-05
2.2361622e-05
2.5667986e-05
2.9647036e-05
3.4451694e-05
4.0276426e-05
4.7359433e-05
5.5988127e-05
6.6520138e-05
7.9393555e-05
9.5991573e-05
0.0001154397
0.00013928038
0.00016853306
0.00020442222
0.00025084282
0.00030535497
0.00037233797
0.00045465608
0.00056112636
0.00068654837
0.00084095849
0.0010312337
0.0011848645
0.0011838757
0.0011828618
0.0011818092
0.0011807064
0.0011795393
0.0011782908
0.0011769379
0.0011754554
0.0011738599
0.0011724048
0.0011712179
0.0011702471
0.0011694524
0.0011688053
0.0011682969
0.0011679172
0.0011675972
0.0011674356
0.0011674248
0.0011673171
1.2606619e-07
7.7679891e-06
3.4762201e-06
4.5740854e-06
3.4831532e-06
3.7175065e-06
3.8939021e-06
3.5957285e-06
3.7607221e-06
3.481306e-06
3.4047465e-06
3.3452284e-06
3.3368095e-06
3.3640309e-06
3.4079097e-06
3.4936451e-06
3.6113421e-06
3.7598669e-06
3.9395278e-06
4.151597e-06
4.3985346e-06
4.683138e-06
5.0002689e-06
5.3700932e-06
5.7917952e-06
6.2720996e-06
6.8190857e-06
7.4426669e-06
8.1551197e-06
8.9716843e-06
9.910378e-06
1.0994727e-05
1.2253586e-05
1.3723268e-05
1.5382645e-05
1.7401361e-05
1.9796814e-05
2.2653951e-05
2.6235583e-05
3.0396544e-05
3.5426563e-05
4.1529889e-05
4.8961292e-05
5.8024447e-05
6.909627e-05
8.2642727e-05
9.9234506e-05
0.00011957066
0.00014579925
0.00017665728
0.00021453575
0.00026104933
0.00032119854
0.00039195593
0.00047893399
0.00059160322
0.0007241654
0.00088737146
0.0010884665
0.0011856064
0.0011845173
0.0011834014
0.0011822531
0.0011810604
0.0011798092
0.0011784837
0.001177069
0.0011755568
0.0011739806
0.0011726695
0.0011715808
0.0011706804
0.0011699291
0.0011693012
0.0011687884
0.0011683732
0.0011680193
0.0011677575
0.0011677245
0.0011676927
1.202868e-07
6.7986519e-06
3.0785456e-06
3.9443817e-06
3.1267688e-06
3.1024115e-06
3.4225934e-06
3.0417428e-06
3.0979045e-06
2.9203057e-06
2.8729433e-06
2.8543316e-06
2.86832e-06
2.9146927e-06
2.9968707e-06
3.110503e-06
3.2536599e-06
3.4263177e-06
3.6296059e-06
3.8652737e-06
4.1302272e-06
4.4373371e-06
4.7868262e-06
5.1834994e-06
5.6330914e-06
6.1425537e-06
6.7203397e-06
7.3767598e-06
8.1244971e-06
8.9597643e-06
9.9346364e-06
1.1058952e-05
1.2362821e-05
1.3883958e-05
1.5669515e-05
1.7778421e-05
2.0283492e-05
2.3275831e-05
2.68684e-05
3.1200655e-05
3.6445609e-05
4.3124489e-05
5.0953184e-05
6.0511847e-05
7.2198247e-05
8.6506247e-05
0.00010404233
0.00012555176
0.00015334364
0.00018600935
0.00022612682
0.00027540582
0.00033921961
0.00041422036
0.00050644396
0.00061988105
0.00076665311
0.00093976722
0.0011530327
0.0011862591
0.0011850779
0.0011838717
0.001182638
0.0011813658
0.0011800421
0.0011786512
0.0011771799
0.0011756431
0.001174184
0.0011729827
0.0011719783
0.0011711376
0.0011704261
0.0011698206
0.00116931
0.0011688695
0.0011684625
0.0011681526
0.0011681125
0.001168081
1.1565392e-07
4.7615807e-06
2.7200098e-06
3.3601944e-06
2.6743992e-06
2.5876513e-06
2.9256647e-06
2.5483684e-06
2.5460842e-06
2.4478969e-06
2.4334527e-06
2.4424279e-06
2.4873242e-06
2.5677423e-06
2.6793367e-06
2.8196373e-06
2.9880343e-06
3.185239e-06
3.4097534e-06
3.6686961e-06
3.9633236e-06
4.297021e-06
4.6738964e-06
5.0989391e-06
5.5781635e-06
6.1188182e-06
6.7297044e-06
7.4104235e-06
8.192129e-06
9.0835051e-06
1.010495e-05
1.1281802e-05
1.2645993e-05
1.4237617e-05
1.6106923e-05
1.831651e-05
2.0944153e-05
2.408657e-05
2.7864021e-05
3.2425631e-05
3.7956052e-05
4.4682769e-05
5.3280258e-05
6.3386768e-05
7.5752721e-05
9.0902412e-05
0.00010948038
0.00013228028
0.00016027881
0.00019642367
0.00023900147
0.0002913232
0.00035563992
0.00043880253
0.00053679303
0.00065734595
0.00081345135
0.00099748574
0.0011880903
0.001186818
0.0011855531
0.0011842685
0.0011829596
0.0011816176
0.0011802314
0.0011787892
0.0011772843
0.0011757485
0.0011744404
0.0011733318
0.0011723982
0.0011716083
0.0011709338
0.0011703531
0.0011698462
0.0011693789
0.0011689304
0.0011685994
0.0011685891
0.00116858
1.1075993e-07
3.9545881e-06
2.3443092e-06
2.8222735e-06
2.3065286e-06
2.1581475e-06
2.4107159e-06
2.115079e-06
2.097407e-06
2.0599857e-06
2.0743429e-06
2.1177765e-06
2.1984845e-06
2.3094904e-06
2.4482392e-06
2.6138414e-06
2.8066709e-06
3.0257957e-06
3.2768664e-06
3.5612323e-06
3.8818949e-06
4.2424855e-06
4.6473441e-06
5.1016544e-06
5.6116436e-06
6.1848339e-06
6.8228056e-06
7.5485958e-06
8.3709079e-06
9.3068688e-06
1.0378028e-05
1.1611289e-05
1.3040491e-05
1.470817e-05
1.6667851e-05
1.8986527e-05
2.1747342e-05
2.5053292e-05
2.9032415e-05
3.384288e-05
3.9680913e-05
4.7127497e-05
5.5876473e-05
6.6572096e-05
7.9668827e-05
9.5723377e-05
0.00011542073
0.00013960431
0.00017088101
0.00020767561
0.00025288929
0.00030847266
0.00037682296
0.00046522643
0.00056941549
0.00069762242
0.00086370544
0.0010594904
0.0011886143
0.0011872807
0.001185943
0.0011845913
0.0011832182
0.0011818161
0.0011803758
0.0011788905
0.0011773726
0.0011759311
0.0011747289
0.001173703
0.0011728285
0.0011720803
0.0011714374
0.0011708805
0.0011703808
0.0011698932
0.0011694144
0.0011690926
0.0011691018
0.0011690909
1.0744979e-07
3.1844057e-06
2.0210236e-06
2.2799634e-06
2.0044348e-06
1.7905198e-06
1.9316501e-06
1.7473574e-06
1.7449508e-06
1.7562732e-06
1.8005957e-06
1.8817729e-06
1.9932237e-06
2.131025e-06
2.2942017e-06
2.4830633e-06
2.6975673e-06
2.9414276e-06
3.2165108e-06
3.5255673e-06
3.8718834e-06
4.259302e-06
4.6923278e-06
5.1762946e-06
5.7176028e-06
6.3197155e-06
6.9985277e-06
7.7628981e-06
8.6271646e-06
9.6093281e-06
1.0732244e-05
1.2024475e-05
1.3521978e-05
1.5269896e-05
1.7324991e-05
1.9758629e-05
2.2659997e-05
2.6138544e-05
3.0330898e-05
3.540519e-05
4.1843088e-05
4.941549e-05
5.8661633e-05
6.9974339e-05
8.3834882e-05
0.00010083557
0.00012170412
0.00014733728
0.0001804502
0.00021946642
0.00026743276
0.00032642328
0.00039899358
0.00049282586
0.00060350865
0.00073974254
0.00091621524
0.0011243128
0.0011890417
0.001187651
0.0011862522
0.0011848437
0.0011834168
0.0011819649
0.0011804819
0.0011789674
0.0011774533
0.0011761543
0.0011750388
0.0011740823
0.0011732571
0.0011725424
0.0011719232
0.0011713847
0.0011708947
0.0011704036
0.0011699174
0.0011696036
0.0011696237
0.0011695894
1.0602795e-07
2.5091012e-06
1.7414471e-06
1.7593731e-06
1.7261881e-06
1.4760824e-06
1.5402722e-06
1.4541667e-06
1.4823454e-06
1.5287046e-06
1.6115052e-06
1.7230257e-06
1.8598291e-06
2.0203864e-06
2.2050215e-06
2.4149355e-06
2.6511268e-06
2.9171436e-06
3.2151411e-06
3.5481326e-06
3.9195779e-06
4.3334651e-06
4.7944275e-06
5.3079254e-06
5.8804972e-06
6.5201025e-06
7.2365651e-06
8.0421084e-06
8.9417809e-06
9.9708215e-06
1.1146383e-05
1.2498798e-05
1.4066297e-05
1.5896877e-05
1.8050614e-05
2.0686432e-05
2.3755036e-05
2.7438057e-05
3.188152e-05
3.7265518e-05
4.3811813e-05
5.1793057e-05
6.1546005e-05
7.3485044e-05
8.8120325e-05
0.0001060802
0.00012813712
0.00015659793
0.00019016379
0.00023142923
0.00028218211
0.00034462509
0.0004254623
0.00052074824
0.0006380342
0.00078244755
0.00096941932
0.0011900592
0.0011893834
0.0011879405
0.00118649
0.0011850333
0.0011835621
0.0011820694
0.0011805523
0.0011790279
0.0011776007
0.001176397
0.0011753576
0.0011744581
0.0011736739
0.0011729864
0.0011723845
0.0011718564
0.0011713729
0.0011708902
0.0011704192
0.0011701116
0.0011701026
0.0011700371
1.0755461e-07
1.9310166e-06
1.5083117e-06
1.3604841e-06
1.4423345e-06
1.2124479e-06
1.2536895e-06
1.2392386e-06
1.2999842e-06
1.3806658e-06
1.4918977e-06
1.6268044e-06
1.7841158e-06
1.9639839e-06
2.1676518e-06
2.3968881e-06
2.6534863e-06
2.9405064e-06
3.2605165e-06
3.616666e-06
4.0125218e-06
4.4521711e-06
4.9403568e-06
5.4826691e-06
6.0858107e-06
6.7579563e-06
7.5092319e-06
8.3523145e-06
9.3031783e-06
1.0382038e-05
1.161446e-05
1.3032834e-05
1.4677987e-05
1.6601258e-05
1.886692e-05
2.1555154e-05
2.476572e-05
2.8622728e-05
3.327974e-05
3.8926831e-05
4.5798749e-05
5.4184249e-05
6.4436457e-05
7.699275e-05
9.2390231e-05
0.0001122118
0.00013560503
0.00016434826
0.00019968543
0.00024315062
0.0002966329
0.00036586275
0.00044749974
0.00054800445
0.0006717774
0.00083225079
0.0010214525
0.001191163
0.001189654
0.0011881642
0.0011866705
0.0011851722
0.0011836638
0.0011821407
0.0011806037
0.0011790858
0.001177782
0.0011766525
0.0011756746
0.0011748209
0.0011740701
0.0011734057
0.0011728173
0.001172293
0.0011718074
0.0011713308
0.0011708833
0.0011705817
0.0011705158
0.0011704201
1.1318832e-07
1.456467e-06
1.3188918e-06
1.0692574e-06
1.2870975e-06
9.9370284e-07
1.0591245e-06
1.0968835e-06
1.1844146e-06
1.2926321e-06
1.4248019e-06
1.5778878e-06
1.7523051e-06
1.9492081e-06
2.1703304e-06
2.4177036e-06
2.6936386e-06
3.0005348e-06
3.3415245e-06
3.7197333e-06
4.1388093e-06
4.6029331e-06
5.1169609e-06
5.6866249e-06
6.3188103e-06
7.0219292e-06
7.8064244e-06
8.6854565e-06
9.6756619e-06
1.0798188e-05
1.2079809e-05
1.3554536e-05
1.526528e-05
1.7266039e-05
1.9624435e-05
2.2424862e-05
2.5772236e-05
2.9796628e-05
3.4658922e-05
4.0557811e-05
4.806408e-05
5.6900028e-05
6.7703898e-05
8.0936458e-05
9.7164001e-05
0.00011708388
0.00014155541
0.00017163761
0.00020863225
0.00025652661
0.0003129765
0.00038246095
0.00046802286
0.00057341754
0.0007101383
0.00087135133
0.0010699886
0.0011914021
0.0011898638
0.0011883384
0.0011868105
0.0011852772
0.0011837349
0.0011821841
0.0011806421
0.0011792016
0.0011779784
0.0011769124
0.0011759819
0.0011751633
0.0011744376
0.0011737906
0.0011732113
0.0011726866
0.0011721942
0.0011717147
0.0011712758
0.001170978
0.0011708741
0.001170717
1.2356567e-07
1.1473919e-06
1.1557535e-06
9.2864803e-07
9.4086758e-07
8.6882879e-07
9.3121437e-07
1.0110138e-06
1.1192536e-06
1.2469617e-06
1.3949861e-06
1.5631342e-06
1.7526474e-06
1.9650738e-06
2.2022968e-06
2.4664185e-06
2.7597892e-06
3.0850281e-06
3.4450699e-06
3.8432201e-06
4.2832337e-06
4.7694225e-06
5.3068061e-06
5.9013254e-06
6.5601402e-06
7.2894573e-06
8.1038508e-06
9.0153254e-06
1.0050089e-05
1.1216261e-05
1.2547999e-05
1.4081079e-05
1.58606e-05
1.7943245e-05
2.0399947e-05
2.3319118e-05
2.6810592e-05
3.1010453e-05
3.6086931e-05
4.2247721e-05
4.9748972e-05
5.8906396e-05
7.0108734e-05
8.3832454e-05
0.00010066653
0.00012133554
0.00014803844
0.00017950579
0.00021820247
0.00026581697
0.00032443226
0.00039662238
0.0004855643
0.00060083727
0.00073694643
0.00090472537
0.0011115737
0.0011915976
0.0011900321
0.0011884774
0.0011869238
0.0011853662
0.0011838002
0.001182229
0.001180688
0.0011793497
0.0011781853
0.0011771688
0.001176274
0.0011754804
0.0011747709
0.0011741324
0.0011735542
0.0011730242
0.0011725259
0.0011720481
0.0011716119
0.0011712797
0.0011710787
0.0011708663
1.4500135e-07
1.1873977e-06
9.9423297e-07
7.0785235e-07
7.6817949e-07
7.7632998e-07
8.6043655e-07
9.6299333e-07
1.0876214e-06
1.230109e-06
1.3916348e-06
1.573136e-06
1.7761364e-06
2.0022973e-06
2.2535313e-06
2.53197e-06
2.8399994e-06
3.1802912e-06
3.5558461e-06
3.9700483e-06
4.4267391e-06
4.9303214e-06
5.4859104e-06
6.0995477e-06
6.7785072e-06
7.5317131e-06
8.3702951e-06
9.3083e-06
1.0363594e-05
1.1558941e-05
1.2923293e-05
1.4493422e-05
1.6315745e-05
1.8448621e-05
2.096506e-05
2.3956031e-05
2.7534489e-05
3.184028e-05
3.7046158e-05
4.3365203e-05
5.1060074e-05
6.0887166e-05
7.246911e-05
8.6655159e-05
0.00010405401
0.00012541434
0.00015165991
0.00018393081
0.00022363498
0.0002725097
0.00033270613
0.00041063747
0.00050273256
0.00061626415
0.00075627661
0.00092899834
0.0011420931
0.0011917914
0.0011901953
0.0011886087
0.0011870279
0.0011854483
0.0011838678
0.0011822946
0.0011807873
0.0011795153
0.0011783976
0.0011774167
0.0011765469
0.0011757692
0.0011750675
0.001174429
0.0011738428
0.0011732996
0.0011727905
0.0011723113
0.0011718709
0.0011714935
0.0011711858
0.0011708756
1.3814682e-07
7.8952946e-07
8.1444846e-07
6.0320094e-07
6.6104186e-07
7.2192059e-07
8.2447006e-07
9.4377348e-07
1.0814717e-06
1.2365858e-06
1.4103836e-06
1.6040866e-06
1.8192467e-06
2.0575918e-06
2.3210755e-06
2.6118889e-06
2.9324888e-06
3.2855883e-06
3.6743302e-06
4.1021652e-06
4.5730267e-06
5.091412e-06
5.662534e-06
6.2925379e-06
6.9888122e-06
7.7604158e-06
8.6186448e-06
9.5777676e-06
1.0664571e-05
1.1888873e-05
1.3286197e-05
1.4894315e-05
1.6760851e-05
1.8945628e-05
2.1523426e-05
2.4587371e-05
2.8253038e-05
3.2663492e-05
3.799548e-05
4.4467034e-05
5.234681e-05
6.1965481e-05
7.3729727e-05
8.8141692e-05
0.00010581932
0.00012752498
0.00015419973
0.00018864686
0.0002293167
0.00027938092
0.00034104975
0.00041705448
0.00051077529
0.00062639509
0.00076908959
0.00094525805
0.0011627777
0.0011920342
0.0011904099
0.0011887898
0.0011871739
0.0011855597
0.0011839506
0.0011823709
0.0011809337
0.001179698
0.0011786122
0.0011776532
0.0011767975
0.0011760268
0.0011753252
0.0011746796
0.0011740792