/*--------------------------------*- C++ -*----------------------------------*\
  =========                 |
  \\      /  F ield         | OpenFOAM: The Open Source CFD Toolbox
   \\    /   O peration     | Website:  https://openfoam.org
    \\  /    A nd           | Version:  12
     \\/     M anipulation  |
\*---------------------------------------------------------------------------*/
FoamFile
{
    format      ascii;
    class       volScalarField;
    location    "0.079";
    object      k;
}
// * * * * * * * * * * * * * * * * * * * * * * * * * * * * * * * * * * * * * //

dimensions      [0 2 -2 0 0 0 0];

internalField   nonuniform List<scalar> 
16000
(
0.049650026
0.021508796
0.0223916
0.016592463
0.014064726
0.012728082
0.011935125
0.011460982
0.011139715
0.010923668
0.0107641
0.010645394
0.010552744
0.010479451
0.010420418
0.010372482
0.010333378
0.010301506
0.010275342
0.01025371
0.010236029
0.010221555
0.0102099
0.010200511
0.010193159
0.010187466
0.01018326
0.010180368
0.010178647
0.010177966
0.010178197
0.010179237
0.010181001
0.010183418
0.010186426
0.010189965
0.010193976
0.010198398
0.010203175
0.010208249
0.010213557
0.010219029
0.010224596
0.010230183
0.010235705
0.01024107
0.010246198
0.010251027
0.01025551
0.01025962
0.010263343
0.010266664
0.010269557
0.01027199
0.010273931
0.010275368
0.010276308
0.010276767
0.010276751
0.010276238
0.01027517
0.010273453
0.010270975
0.010267571
0.010262977
0.010256793
0.010248416
0.010236962
0.010221168
0.010199367
0.010169775
0.01013063
0.010082636
0.010048065
0.010025779
0.010017181
0.010014474
0.010031544
0.0099948589
0.010025577
0.045970561
0.020385037
0.020953797
0.016040661
0.013719157
0.012525712
0.011772648
0.0113447
0.011039245
0.010840482
0.010691262
0.010581343
0.010495126
0.010427334
0.010372836
0.010328775
0.010292963
0.010263985
0.010240448
0.010221129
0.010205558
0.010192981
0.010183108
0.01017535
0.010169545
0.010165298
0.010162444
0.01016082
0.010160288
0.010160724
0.010162006
0.01016403
0.010166709
0.010169972
0.010173755
0.010178
0.010182647
0.010187639
0.010192918
0.010198428
0.01020411
0.010209895
0.010215718
0.010221509
0.010227187
0.010232665
0.010237864
0.01024272
0.010247189
0.010251244
0.010254872
0.010258065
0.010260805
0.010263064
0.010264814
0.010266041
0.010266752
0.010266964
0.010266682
0.010265884
0.010264511
0.010262469
0.010259648
0.010255887
0.010250922
0.010244349
0.01023556
0.010223695
0.010207541
0.010185411
0.010155521
0.010116988
0.010071905
0.010039629
0.010019388
0.010010611
0.01001289
0.010025293
0.009993604
0.010019113
0.042590982
0.019599082
0.019631396
0.015474542
0.013365269
0.012298273
0.01160424
0.011218367
0.010936495
0.010755965
0.010617976
0.010517299
0.010438003
0.010376
0.010326333
0.010286397
0.010254115
0.010228213
0.010207471
0.010190619
0.0101773
0.010166741
0.010158762
0.010152732
0.010148556
0.010145833
0.010144405
0.010144114
0.01014483
0.010146434
0.01014881
0.010151852
0.010155475
0.010159604
0.010164176
0.010169131
0.010174412
0.010179959
0.010185716
0.010191628
0.010197638
0.010203682
0.010209695
0.01021561
0.010221356
0.010226849
0.010232012
0.010236786
0.010241127
0.010245012
0.010248429
0.010251377
0.010253845
0.010255811
0.010257251
0.010258154
0.010258525
0.01025838
0.010257727
0.01025654
0.01025476
0.010252292
0.010249025
0.010244799
0.010239348
0.010232261
0.010222923
0.010210481
0.010193787
0.010171213
0.010140824
0.010102234
0.010060691
0.010031118
0.010012901
0.010005573
0.010009964
0.010019335
0.0099962716
0.010014616
0.038724038
0.019069221
0.018501809
0.014967072
0.013045012
0.012092879
0.011450057
0.011103106
0.010842159
0.010678177
0.010550921
0.010458791
0.010386102
0.010329572
0.010284519
0.010248537
0.010219659
0.010196716
0.010178686
0.010164229
0.010153115
0.010144524
0.010138401
0.010134067
0.010131487
0.010130261
0.010130232
0.010131249
0.010133184
0.010135925
0.010139359
0.01014338
0.010147901
0.010152845
0.010158147
0.010163746
0.010169585
0.010175607
0.010181753
0.010187971
0.010194207
0.010200399
0.010206488
0.010212412
0.010218104
0.010223488
0.010228493
0.010233061
0.010237152
0.010240746
0.010243836
0.010246424
0.010248507
0.01025007
0.010251096
0.010251572
0.010251504
0.010250908
0.01024979
0.010248125
0.010245854
0.010242884
0.010239099
0.010234337
0.010228334
0.010220674
0.010210742
0.010197685
0.010180414
0.01015746
0.010126845
0.010088251
0.01005025
0.010023302
0.010006978
0.010001186
0.010006906
0.010016017
0.0099998091
0.010012802
0.036102677
0.018784544
0.017559162
0.014496956
0.012746702
0.011898535
0.011305421
0.010994377
0.010754074
0.010605603
0.010488871
0.010404898
0.010338677
0.010287462
0.010246921
0.010214816
0.010189297
0.010169265
0.01015392
0.010141836
0.010132923
0.010126298
0.010122024
0.010119403
0.010118404
0.010118674
0.010120042
0.010122362
0.010125507
0.010129368
0.010133835
0.010138802
0.010144179
0.010149887
0.01015586
0.010162034
0.010168352
0.010174758
0.010181196
0.010187613
0.01019396
0.010200181
0.01020622
0.01021202
0.010217525
0.010222665
0.010227375
0.010231601
0.010235309
0.010238482
0.010241118
0.010243224
0.010244803
0.01024585
0.010246351
0.010246295
0.010245689
0.010244544
0.010242866
0.010240633
0.010237786
0.010234234
0.010229858
0.010224491
0.010217863
0.010209562
0.01019898
0.010185265
0.010167355
0.010143995
0.010113402
0.010075073
0.010040491
0.010016127
0.010001777
0.0099973167
0.010003493
0.010013525
0.010004102
0.010011932
0.034118913
0.018735114
0.016860184
0.014066315
0.012472125
0.0117177
0.011171686
0.010893602
0.010673137
0.010538972
0.010432441
0.010356161
0.010296197
0.010250101
0.010213932
0.010185599
0.010163378
0.010146195
0.010133501
0.010123766
0.010117043
0.010112409
0.010109952
0.010109109
0.010109634
0.010111394
0.010114149
0.010117757
0.010122089
0.010127038
0.010132494
0.010138353
0.010144522
0.010150918
0.010157472
0.010164121
0.010170808
0.010177479
0.010184079
0.010190559
0.010196875
0.010202977
0.010208815
0.01021434
0.010219503
0.010224247
0.010228512
0.010232252
0.010235437
0.010238055
0.010240108
0.010241609
0.010242569
0.010242988
0.010242859
0.010242173
0.010240934
0.010239151
0.01023683
0.010233947
0.010230448
0.010226244
0.010221213
0.010215182
0.010207873
0.010198876
0.010187604
0.010173219
0.010154659
0.010130849
0.010100474
0.010062884
0.010031596
0.01000973
0.0099973391
0.0099937957
0.010000046
0.010011672
0.010008791
0.010012455
0.031023721
0.01884541
0.01636767
0.013671579
0.012218959
0.011549694
0.01104861
0.010800608
0.010599238
0.010478186
0.010381513
0.010312529
0.01025863
0.010217503
0.010185608
0.010160982
0.010142034
0.010127679
0.010117619
0.010110245
0.010105705
0.010103206
0.010102452
0.010103664
0.010105485
0.010108727
0.010112858
0.010117732
0.010123217
0.010129205
0.01013559
0.010142264
0.010149133
0.010156111
0.010163129
0.010170124
0.010177039
0.010183822
0.010190426
0.010196805
0.01020292
0.01020873
0.010214196
0.010219275
0.01022393
0.010228113
0.010231775
0.010234877
0.010237394
0.010239321
0.010240663
0.010241441
0.010241669
0.010241355
0.010240497
0.010239088
0.01023713
0.01023463
0.010231589
0.010227985
0.010223766
0.010218849
0.010213109
0.010206364
0.010198329
0.010188596
0.010176601
0.01016155
0.010142372
0.010118063
0.010087965
0.010051832
0.010023681
0.010004195
0.0099935345
0.0099906527
0.0099966309
0.010009419
0.01001301
0.01001451
0.028780125
0.019040585
0.015958965
0.013310155
0.011985724
0.01139426
0.010935567
0.010715197
0.010531977
0.010423118
0.010336008
0.010274031
0.010226063
0.01018982
0.010162148
0.010141202
0.010125538
0.010114026
0.010106557
0.010101605
0.010099184
0.010099349
0.010099852
0.010102493
0.010106324
0.010111028
0.010116506
0.010122602
0.010129181
0.010136133
0.01014335
0.010150726
0.010158166
0.010165583
0.010172907
0.010180077
0.010187039
0.010193748
0.010200161
0.010206241
0.010211958
0.010217281
0.010222182
0.010226629
0.010230594
0.010234044
0.010236941
0.010239252
0.010240959
0.010242062
0.010242574
0.010242515
0.010241909
0.010240767
0.010239093
0.01023688
0.010234129
0.010230842
0.010227017
0.010222634
0.010217643
0.010211961
0.010205467
0.01019797
0.01018918
0.010178688
0.010165951
0.010150243
0.010130525
0.010105716
0.010075751
0.010042021
0.010016814
0.0099995398
0.0099903733
0.0099879765
0.0099935633
0.010006812
0.010015671
0.010017141
0.02710735
0.019231003
0.015456212
0.012978769
0.011770866
0.011250526
0.01083197
0.010636586
0.010471504
0.010374035
0.010296181
0.010240986
0.010198828
0.01016741
0.010143931
0.010126657
0.010114296
0.010105678
0.010100563
0.010098188
0.010097196
0.010099629
0.010102875
0.0101072
0.010112526
0.010118669
0.010125437
0.010132678
0.010140254
0.010148049
0.010155958
0.010163877
0.01017171
0.010179373
0.010186797
0.010193925
0.010200711
0.010207117
0.01021311
0.010218664
0.010223759
0.010228379
0.010232507
0.010236124
0.010239215
0.010241759
0.01024373
0.010245103
0.010245867
0.010246026
0.010245597
0.010244604
0.010243074
0.010241025
0.010238461
0.010235377
0.010231771
0.010227642
0.010222986
0.01021778
0.010211975
0.010205493
0.010198211
0.010189936
0.010180375
0.01016912
0.010155644
0.010139285
0.01011912
0.010093949
0.010063812
0.010033486
0.010011024
0.0099957742
0.0099878451
0.0099858457
0.0099910062
0.010003838
0.010016961
0.010019208
0.025309155
0.019405374
0.01478193
0.012674666
0.01157445
0.011119271
0.010738715
0.010566034
0.010418388
0.010331384
0.010262459
0.010213854
0.010177392
0.010150752
0.010131447
0.010117848
0.010108798
0.010103203
0.01009939
0.0101
0.01010321
0.010106646
0.010111604
0.010117644
0.010124514
0.010132013
0.010139969
0.010148227
0.010156646
0.010165108
0.010173509
0.01018175
0.010189738
0.010197394
0.010204657
0.010211477
0.010217818
0.010223654
0.010228965
0.01023374
0.010237972
0.01024166
0.010244801
0.010247391
0.010249426
0.010250899
0.010251796
0.0102521
0.010251803
0.010250915
0.010249453
0.010247447
0.010244924
0.010241905
0.010238395
0.010234391
0.010229886
0.010224877
0.010219355
0.010213298
0.010206656
0.010199351
0.010191263
0.010182196
0.010171859
0.010159856
0.010145668
0.010128671
0.010108117
0.010082921
0.010052832
0.010026197
0.010006304
0.0099928854
0.009985953
0.0099842428
0.0099889697
0.010000787
0.010015356
0.010019869
0.023784255
0.019551439
0.014237955
0.012395689
0.011396944
0.011000327
0.010656258
0.010504129
0.010372749
0.010295551
0.010235252
0.01019311
0.010162257
0.010140374
0.010125245
0.010115346
0.010109598
0.010107278
0.010107858
0.010110168
0.010114175
0.010119902
0.010126709
0.010134367
0.010142656
0.010151375
0.010160351
0.010169427
0.010178462
0.010187339
0.010195956
0.010204224
0.01021206
0.010219395
0.010226178
0.010232373
0.01023796
0.010242927
0.010247272
0.010251
0.010254122
0.01025665
0.010258599
0.010259976
0.010260792
0.010261049
0.010260745
0.01025987
0.010258421
0.010256406
0.010253845
0.010250769
0.010247205
0.010243174
0.010238685
0.01023373
0.010228301
0.010222389
0.010215985
0.010209064
0.010201577
0.010193442
0.010184542
0.010174683
0.010163581
0.010150852
0.010136003
0.010118415
0.010097466
0.010072572
0.010043589
0.010020127
0.010002625
0.0099908445
0.0099846811
0.0099831182
0.0099873511
0.0099981814
0.010011734
0.010016678
0.022407411
0.019685549
0.013766555
0.01214228
0.011238256
0.010893523
0.01058439
0.010450529
0.010334946
0.010267003
0.010215051
0.010179298
0.010153999
0.010136881
0.010125948
0.010119788
0.010117393
0.01011799
0.010120955
0.010125944
0.010132447
0.010140067
0.010148585
0.010157721
0.010167249
0.010176966
0.010186702
0.010196303
0.010205633
0.010214579
0.01022305
0.01023097
0.010238273
0.010244907
0.010250841
0.010256057
0.010260553
0.010264337
0.010267427
0.010269847
0.010271622
0.010272783
0.010273355
0.010273362
0.010272824
0.010271752
0.010270151
0.010268019
0.010265354
0.010262163
0.010258466
0.01025429
0.010249661
0.010244602
0.010239118
0.010233204
0.010226845
0.010220028
0.010212742
0.01020496
0.010196633
0.010187677
0.010177973
0.010167337
0.010155489
0.010142065
0.010126613
0.010108537
0.010087198
0.010062566
0.01003584
0.010015263
0.0099999313
0.0099895872
0.0099840095
0.009982492
0.0099859534
0.0099958156
0.010007703
0.010010103
0.021163798
0.019774055
0.013334395
0.01191428
0.011097931
0.010799183
0.010523233
0.010405887
0.0103053
0.010246254
0.010202425
0.010173046
0.010153291
0.010140967
0.010134268
0.010131881
0.010132865
0.01013652
0.010142256
0.010149581
0.010158126
0.010167566
0.010177598
0.010187962
0.010198433
0.010208809
0.010218927
0.010228643
0.010237832
0.010246399
0.010254268
0.010261386
0.010267712
0.010273221
0.010277905
0.010281769
0.010284836
0.010287134
0.010288701
0.010289577
0.010289804
0.010289425
0.01028848
0.010287
0.010285013
0.010282538
0.010279585
0.010276155
0.010272246
0.010267864
0.010263021
0.010257742
0.010252052
0.010245969
0.0102395
0.010232637
0.01022536
0.010217654
0.010209501
0.010200877
0.01019173
0.010181973
0.010171489
0.0101601
0.010147541
0.01013346
0.01011745
0.010099008
0.01007745
0.010052817
0.010029506
0.010011532
0.009998136
0.0099890053
0.0099838437
0.0099822318
0.0099848592
0.0099935018
0.010004125
0.010007504
0.020044905
0.019779128
0.012942348
0.011709516
0.010975171
0.010717
0.010472891
0.010370497
0.010284284
0.010233953
0.010198101
0.010175126
0.010160944
0.010153465
0.010151043
0.010152453
0.010156804
0.010163422
0.010171744
0.010181319
0.010191754
0.010202715
0.010213922
0.010225117
0.010236083
0.01024663
0.010256609
0.010265896
0.010274393
0.01028203
0.010288762
0.010294567
0.010299437
0.010303381
0.010306417
0.010308579
0.01030991
0.010310459
0.010310282
0.010309433
0.010307966
0.010305933
0.010303381
0.010300349
0.010296868
0.010292961
0.010288641
0.010283911
0.010278767
0.010273208
0.010267242
0.010260886
0.010254161
0.010247082
0.010239656
0.010231872
0.01022371
0.010215146
0.010206159
0.010196722
0.010186785
0.010176262
0.010165032
0.010152926
0.010139702
0.01012502
0.010108486
0.010089738
0.010068358
0.010044353
0.010024403
0.010008813
0.0099971195
0.0099889737
0.0099841864
0.0099826233
0.009984282
0.009991603
0.010001057
0.010004935
0.019036698
0.019565911
0.012588531
0.011527106
0.010869778
0.010647336
0.010433671
0.010345035
0.010272613
0.010230991
0.010203033
0.010186529
0.010177968
0.010175375
0.010177234
0.010182398
0.010190018
0.010199442
0.010210126
0.010221616
0.010233535
0.010245557
0.010257406
0.010268843
0.010279671
0.010289728
0.010298894
0.010307083
0.010314238
0.010320329
0.010325352
0.010329323
0.010332273
0.010334244
0.010335285
0.010335452
0.010334809
0.010333421
0.010331353
0.01032867
0.010325433
0.010321697
0.010317511
0.010312918
0.01030795
0.01030263
0.010296971
0.010290974
0.010284634
0.010277945
0.010270905
0.010263522
0.010255811
0.010247784
0.010239445
0.010230786
0.010221782
0.010212406
0.010202629
0.010192422
0.010181736
0.010170489
0.010158559
0.010145783
0.010131941
0.01011673
0.010099751
0.01008068
0.010059634
0.010037563
0.010020378
0.010006944
0.0099967573
0.0099894532
0.0099849329
0.0099832438
0.0099843094
0.0099901136
0.0099985007
0.010003058
0.018124282
0.01871947
0.01227015
0.011366257
0.010781989
0.010590548
0.010406111
0.010330451
0.010271348
0.010238535
0.010218443
0.01020847
0.010205542
0.010207805
0.010213849
0.010222592
0.010233217
0.010245086
0.010257673
0.010270532
0.010283298
0.010295663
0.010307382
0.010318249
0.010328113
0.010336861
0.010344424
0.01035077
0.010355897
0.010359825
0.010362597
0.010364269
0.010364908
0.010364587
0.01036338
0.010361359
0.010358602
0.010355181
0.010351166
0.010346625
0.010341616
0.010336197
0.010330414
0.010324306
0.010317906
0.010311233
0.010304298
0.0102971
0.010289632
0.010281882
0.010273838
0.010265499
0.010256869
0.010247957
0.010238766
0.010229287
0.010219498
0.010209364
0.010198853
0.010187927
0.01017654
0.010164617
0.010152042
0.010138653
0.010124245
0.010108566
0.010091277
0.010071998
0.010050986
0.010032122
0.010017314
0.010005768
0.0099969162
0.0099903985
0.009986166
0.0099843512
0.0099848809
0.0099892082
0.0099964202
0.010001523
0.017299358
0.017356074
0.011989223
0.011226733
0.010710884
0.010547577
0.010391261
0.010328159
0.010281931
0.010258049
0.010245775
0.010242311
0.010244922
0.010251861
0.010261803
0.010273722
0.010286821
0.010300481
0.010314195
0.010327546
0.010340204
0.010351911
0.010362478
0.010371769
0.010379701
0.010386236
0.010391375
0.01039515
0.010397618
0.010398854
0.010398941
0.010397972
0.010396041
0.01039324
0.010389658
0.010385378
0.010380478
0.010375032
0.010369108
0.010362766
0.010356061
0.010349043
0.010341753
0.010334226
0.010326487
0.010318554
0.010310436
0.010302128
0.01029362
0.010284894
0.010275931
0.01026672
0.010257253
0.010247533
0.01023756
0.010227326
0.010216812
0.010205982
0.010194796
0.010183211
0.010171179
0.010158633
0.010145469
0.010131533
0.010116626
0.010100518
0.010082995
0.010063941
0.010043878
0.010027819
0.01001509
0.010005178
0.0099975199
0.009991763
0.0099878541
0.0099858874
0.0099860603
0.0099889513
0.0099947929
0.010000007
0.016557771
0.01648533
0.011751875
0.011108915
0.010657355
0.010519807
0.010390612
0.010339831
0.010306049
0.010291159
0.010286573
0.010289445
0.010297292
0.010308459
0.010321687
0.010335997
0.010350625
0.010364991
0.010378644
0.010391235
0.010402514
0.010412315
0.010420542
0.010427159
0.010432177
0.010435642
0.01043763
0.010438239
0.010437578
0.010435763
0.010432909
0.010429129
0.010424532
0.010419217
0.010413276
0.010406789
0.01039983
0.010392463
0.010384748
0.010376735
0.010368468
0.010359988
0.010351326
0.010342509
0.010333558
0.010324485
0.010315294
0.01030598
0.010296531
0.010286924
0.010277136
0.010267143
0.01025693
0.010246488
0.010235811
0.010224893
0.010213717
0.010202253
0.010190456
0.010178276
0.010165661
0.010152549
0.010138848
0.010124428
0.010109107
0.010092661
0.010074905
0.010056075
0.010038377
0.010024531
0.010013605
0.010005104
0.0099985205
0.0099934982
0.0099899261
0.0099878427
0.0099874316
0.0099893784
0.0099940996
0.0099987413
0.015891604
0.015476081
0.011549073
0.011013312
0.01062235
0.010508926
0.010405792
0.010367364
0.010345611
0.010339638
0.010342421
0.010351146
0.01036352
0.010377975
0.010393328
0.010408673
0.010423333
0.010436824
0.010448816
0.010459088
0.010467521
0.01047408
0.010478792
0.010481732
0.010483006
0.010482743
0.010481081
0.010478165
0.010474139
0.010469141
0.010463299
0.01045673
0.010449541
0.010441826
0.010433667
0.010425135
0.01041629
0.010407183
0.01039786
0.010388357
0.010378706
0.010368935
0.010359065
0.010349114
0.010339094
0.010329014
0.010318873
0.010308666
0.010298378
0.010287987
0.010277465
0.010266782
0.010255913
0.010244837
0.010233542
0.010222016
0.010210246
0.010198206
0.010185857
0.010173146
0.010160015
0.010146399
0.010132216
0.01011736
0.010101685
0.010085031
0.010067311
0.010049022
0.010034116
0.010022152
0.010012756
0.010005458
0.0099998296
0.0099955044
0.0099922431
0.0099899737
0.0099890117
0.0099903045
0.0099945468
0.0099988386
0.015295082
0.01478992
0.011383209
0.010940583
0.010606921
0.010517127
0.01043898
0.010413105
0.01040284
0.010405329
0.010414648
0.010428085
0.010443537
0.010459562
0.010475123
0.010489484
0.010502142
0.010512796
0.010521305
0.010527627
0.010531808
0.010533956
0.010534218
0.010532768
0.010529787
0.010525458
0.010519956
0.010513446
0.010506082
0.010498
0.010489323
0.010480156
0.010470592
0.010460707
0.010450569
0.010440231
0.010429736
0.01041912
0.01040841
0.010397629
0.010386796
0.010375924
0.010365025
0.010354105
0.01034317
0.010332222
0.010321258
0.01031027
0.010299245
0.010288161
0.01027699
0.010265701
0.01025426
0.010242638
0.010230808
0.010218754
0.01020646
0.010193906
0.010181059
0.010167873
0.010154288
0.010140234
0.010125635
0.010110396
0.010094407
0.01007758
0.010060127
0.010043724
0.010030849
0.010020541
0.010012426
0.010006124
0.010001289
0.0099975799
0.0099946421
0.0099922479
0.0099907983
0.0099916398
0.0099953194
0.0099991425
0.014762503
0.01403185
0.011250918
0.01089336
0.010612946
0.010547741
0.010493219
0.010479764
0.010479832
0.010489394
0.010503386
0.010519315
0.01053536
0.01055034
0.010563496
0.010574376
0.010582753
0.010588572
0.010591915
0.010592932
0.01059182
0.010588806
0.010584122
0.010577998
0.010570653
0.010562284
0.010553071
0.010543173
0.010532727
0.010521851
0.010510646
0.010499196
0.010487569
0.010475822
0.010464
0.010452137
0.010440259
0.010428384
0.010416525
0.010404689
0.010392881
0.010381103
0.010369355
0.010357634
0.010345938
0.010334262
0.010322601
0.010310944
0.010299279
0.010287587
0.010275843
0.010264018
0.010252075
0.010239979
0.010227695
0.010215194
0.010202451
0.010189446
0.010176154
0.01016254
0.010148552
0.010134121
0.01011917
0.010103618
0.010087403
0.010070539
0.010053535
0.01003967
0.010028465
0.010019547
0.010012501
0.010007
0.010002775
0.0099995498
0.0099969486
0.0099946337
0.009992942
0.0099933256
0.0099964772
0.0099997377
0.014293438
0.013444149
0.011156851
0.010876307
0.010644369
0.010604822
0.010571619
0.010569197
0.010577064
0.010590778
0.010606158
0.010621137
0.010634367
0.010645097
0.010652976
0.010657915
0.010659999
0.010659427
0.010656468
0.010651415
0.010644566
0.010636202
0.010626587
0.010615958
0.010604523
0.010592462
0.01057993
0.010567055
0.010553944
0.010540685
0.010527351
0.010513997
0.010500667
0.010487393
0.0104742
0.010461103
0.010448111
0.010435227
0.010422449
0.010409774
0.010397192
0.010384694
0.010372271
0.010359911
0.010347604
0.010335339
0.010323105
0.010310889
0.01029868
0.01028646
0.01027421
0.010261904
0.010249511
0.010236996
0.010224318
0.01021144
0.010198325
0.010184943
0.010171267
0.010157271
0.010142918
0.010128155
0.01011291
0.010097103
0.010080717
0.010064039
0.010048683
0.010036575
0.01002682
0.01001905
0.010012892
0.010008048
0.010004291
0.010001407
0.0099990812
0.0099969864
0.0099953309
0.0099953046
0.0099976469
0.010000225
0.013893216
0.012977504
0.011103503
0.010894506
0.010725047
0.010691424
0.01067527
0.010680243
0.010691422
0.010704686
0.010716945
0.010726801
0.010733553
0.010736989
0.010737191
0.010734411
0.010728989
0.010721294
0.010711699
0.010700551
0.010688164
0.010674814
0.010660737
0.010646131
0.010631165
0.010615974
0.010600671
0.010585344
0.010570063
0.010554884
0.010539846
0.010524979
0.010510303
0.010495831
0.010481566
0.010467508
0.010453652
0.010439988
0.010426503
0.010413182
0.010400008
0.010386962
0.010374025
0.010361179
0.010348404
0.010335683
0.010322999
0.010310338
0.010297682
0.010285017
0.010272326
0.010259589
0.010246784
0.010233879
0.010220842
0.01020763
0.010194203
0.010180516
0.010166532
0.010152215
0.010137538
0.010122468
0.010106966
0.010090993
0.010074591
0.010058291
0.010045077
0.010034355
0.010025782
0.01001895
0.010013531
0.010009249
0.01000589
0.01000325
0.01000107
0.0099991338
0.0099976369
0.0099973784
0.0099987771
0.010000386
0.013570976
0.012601215
0.011094997
0.010948136
0.010826264
0.010806839
0.010800528
0.010806761
0.0108151
0.010822389
0.010826778
0.010827682
0.010825061
0.01081918
0.010810446
0.010799318
0.010786247
0.010771648
0.010755884
0.010739269
0.010722065
0.010704486
0.010686705
0.010668861
0.010651062
0.010633393
0.010615919
0.010598689
0.010581736
0.010565084
0.010548746
0.010532729
0.010517034
0.010501654
0.010486581
0.010471801
0.010457297
0.01044305
0.010429039
0.010415241
0.010401632
0.010388185
0.010374876
0.010361678
0.010348567
0.010335518
0.010322508
0.010309516
0.010296521
0.010283506
0.010270453
0.010257346
0.010244167
0.010230896
0.010217507
0.010203971
0.01019025
0.010176299
0.01016207
0.010147514
0.010132585
0.010117246
0.010101479
0.010085328
0.010069087
0.010054194
0.010042429
0.01003289
0.010025256
0.010019172
0.010014345
0.010010527
0.01000751
0.010005079
0.010002992
0.010001094
0.0099996162
0.0099992173
0.010000104
0.010000932
0.013343393
0.012327405
0.011134244
0.01104362
0.010957645
0.01094265
0.010937331
0.010937501
0.010936668
0.010933055
0.010926
0.010915625
0.010902351
0.010886697
0.010869182
0.010850279
0.010830395
0.010809869
0.010788976
0.010767933
0.010746911
0.010726041
0.01070542
0.010685123
0.0106652
0.010645688
0.01062661
0.010607978
0.010589798
0.010572068
0.010554779
0.010537922
0.01052148
0.010505437
0.010489772
0.010474463
0.010459485
0.010444814
0.010430421
0.010416279
0.01040236
0.010388632
0.010375066
0.010361632
0.010348299
0.010335038
0.010321819
0.010308614
0.010295398
0.010282146
0.010268836
0.01025545
0.010241969
0.010228377
0.010214657
0.010200791
0.010186754
0.010172517
0.01015804
0.010143278
0.010128176
0.01011268
0.01009676
0.010080502
0.010064474
0.010051327
0.010040646
0.010032054
0.010025161
0.010019659
0.010015282
0.010011805
0.010009034
0.010006768
0.010004802
0.010003005
0.010001512
0.010000732
0.01000081
0.010001037
0.013211984
0.012154868
0.011225229
0.011169994
0.011104161
0.011085447
0.011071386
0.011058834
0.011044175
0.0110269
0.011007128
0.010985316
0.010961991
0.01093764
0.010912677
0.010887435
0.010862176
0.010837098
0.01081235
0.010788039
0.010764239
0.010741
0.010718354
0.010696318
0.010674897
0.010654089
0.010633884
0.010614268
0.010595224
0.010576732
0.01055877
0.010541313
0.010524337
0.010507816
0.010491722
0.010476027
0.010460703
0.01044572
0.010431048
0.010416656
0.010402513
0.010388588
0.010374847
0.010361259
0.010347789
0.010334406
0.010321075
0.010307764
0.010294441
0.010281076
0.010267638
0.010254103
0.010240444
0.010226641
0.010212674
0.010198526
0.010184181
0.010169621
0.010154826
0.010139774
0.010124437
0.010108786
0.010092822
0.010076709
0.010061365
0.010049395
0.010039597
0.010031726
0.010025406
0.01002035
0.010016309
0.010013067
0.01001044
0.010008259
0.010006375
0.010004685
0.01000321
0.010002092
0.010001365
0.010000629
0.013141879
0.012080333
0.011380218
0.011310761
0.011249364
0.011216557
0.011186898
0.011158095
0.011128433
0.011097904
0.011066765
0.011035375
0.011004055
0.010973067
0.010942605
0.010912808
0.010883769
0.010855544
0.010828166
0.010801648
0.010775986
0.010751168
0.010727176
0.010703984
0.010681565
0.01065989
0.010638927
0.010618644
0.01059901
0.010579992
0.010561558
0.010543676
0.010526316
0.010509445
0.010493032
0.010477047
0.010461457
0.010446232
0.010431341
0.010416751
0.01040243
0.010388348
0.010374471
0.010360766
0.010347202
0.010333743
0.010320355
0.010307006
0.010293658
0.010280279
0.010266833
0.010253288
0.010239609
0.010225766
0.010211728
0.010197467
0.010182957
0.010168173
0.010153094
0.010137706
0.010121998
0.010105982
0.010089746
0.01007369
0.010059571
0.010048315
0.01003917
0.010031812
0.010025902
0.010021165
0.010017359
0.010014271
0.010011721
0.010009571
0.01000771
0.010006039
0.010004451
0.010002896
0.010001471
0.010000403
0.013146141
0.012037473
0.01153412
0.011442201
0.01136958
0.011318475
0.01127183
0.011228087
0.011185936
0.011145177
0.011105749
0.011067673
0.011030962
0.010995617
0.010961622
0.010928944
0.010897544
0.010867373
0.010838379
0.010810509
0.01078371
0.010757928
0.010733111
0.010709208
0.010686171
0.010663953
0.01064251
0.010621798
0.010601777
0.010582408
0.010563653
0.010545475
0.010527839
0.010510712
0.010494058
0.010477847
0.010462044
0.010446619
0.01043154
0.010416776
0.010402295
0.010388065
0.010374056
0.010360237
0.010346574
0.010333038
0.010319594
0.01030621
0.010292854
0.010279491
0.010266088
0.010252608
0.010239018
0.010225279
0.010211355
0.010197207
0.010182798
0.010168087
0.010153037
0.010137614
0.010121792
0.010105568
0.010089054
0.010072813
0.010059286
0.01004839
0.010039555
0.010032442
0.010026726
0.010022134
0.010018426
0.010015389
0.01001285
0.010010689
0.010008815
0.010007103
0.010005343
0.010003367
0.010001365
0.010000128
0.013234585
0.012060523
0.011649116
0.011537928
0.011450048
0.011383154
0.011323699
0.011269703
0.011219522
0.011172492
0.011128164
0.01108624
0.01104649
0.011008728
0.010972795
0.010938551
0.010905874
0.010874653
0.010844789
0.010816191
0.010788777
0.01076247
0.010737201
0.010712904
0.01068952
0.010666993
0.01064527
0.010624303
0.010604047
0.010584457
0.010565494
0.010547118
0.010529293
0.010511981
0.010495149
0.010478763
0.01046279
0.010447198
0.010431954
0.010417029
0.01040239
0.010388008
0.010373852
0.010359891
0.010346096
0.010332436
0.010318881
0.010305402
0.010291966
0.010278545
0.010265107
0.010251621
0.010238053
0.010224372
0.010210541
0.010196527
0.010182295
0.010167809
0.010153038
0.01013795
0.01012252
0.010106739
0.01009068
0.010074781
0.010061012
0.010050018
0.010041074
0.01003387
0.010028069
0.010023397
0.010019606
0.010016482
0.010013863
0.010011642
0.010009729
0.010007946
0.01000599
0.010003636
0.010001221
0.009999927
0.013358277
0.012116929
0.011708926
0.011586338
0.011488252
0.011413118
0.011347618
0.011289154
0.011235663
0.011186152
0.011139943
0.011096577
0.011055707
0.011017063
0.010980425
0.010945611
0.010912465
0.010880851
0.010850652
0.010821764
0.010794092
0.010767554
0.010742072
0.010717577
0.010694006
0.010671299
0.010649402
0.010628265
0.010607841
0.010588084
0.010568954
0.01055041
0.010532415
0.010514933
0.010497928
0.010481367
0.010465216
0.010449444
0.010434018
0.010418906
0.010404079
0.010389506
0.010375155
0.010360997
0.010347002
0.01033314
0.010319381
0.010305694
0.01029205
0.010278419
0.01026477
0.01025107
0.010237288
0.010223389
0.010209339
0.010195103
0.010180646
0.010165937
0.010150946
0.010135646
0.010120016
0.01010406
0.010087894
0.010072123
0.010059404
0.01004902
0.010040596
0.010033773
0.010028255
0.01002378
0.010020114
0.010017058
0.010014459
0.010012235
0.010010315
0.010008508
0.010006436
0.010003815
0.010001118
0.0099998362
65.777442
358.70918
121.21101
14.819595
0.41200637
0.021327568
0.020043716
0.019750614
0.019495114
0.018444892
0.017120377
0.015932442
0.015030716
0.014461728
0.014057285
0.013676664
0.013308237
0.012980504
0.012703619
0.012471324
0.012273933
0.012103846
0.011955823
0.011826036
0.011711451
0.011609597
0.011518502
0.011436588
0.011362617
0.011295606
0.01123474
0.01117931
0.011128699
0.011082387
0.011039967
0.01100111
0.010965532
0.010932983
0.010903231
0.010876068
0.010851315
0.010828794
0.010808329
0.010789753
0.010772904
0.010757614
0.010743704
0.010730998
0.010719336
0.010708576
0.010698594
0.010689277
0.010680515
0.010672189
0.010664159
0.01065628
0.010648427
0.010640519
0.010632531
0.01062453
0.01061645