/*--------------------------------*- C++ -*----------------------------------*\
  =========                 |
  \\      /  F ield         | OpenFOAM: The Open Source CFD Toolbox
   \\    /   O peration     | Website:  https://openfoam.org
    \\  /    A nd           | Version:  12
     \\/     M anipulation  |
\*---------------------------------------------------------------------------*/
FoamFile
{
    format      ascii;
    class       volScalarField;
    location    "0.079";
    object      omega;
}
// * * * * * * * * * * * * * * * * * * * * * * * * * * * * * * * * * * * * * //

dimensions      [0 0 -1 0 0 0 0];

internalField   nonuniform List<scalar> 
16000
(
1090.9915
2178.8004
1065.8283
643.90594
454.28726
315.8634
239.57623
180.85328
145.64884
117.97257
100.22364
85.785746
75.081467
66.141721
58.847517
52.702855
47.516371
43.093529
39.293609
36.004655
33.14256
30.63634
28.427651
26.469979
24.725823
23.166033
21.766479
20.508527
19.376372
18.355585
17.433137
16.598758
15.844267
15.162743
14.548266
13.995338
13.498779
13.053708
12.656044
12.302344
11.988735
11.711149
11.466633
11.252484
11.065631
10.902954
10.762035
10.640574
10.536371
10.447347
10.371647
10.307648
10.253827
10.208842
10.171526
10.140988
10.11662
10.098151
10.085889
10.080601
10.080577
10.080463
10.079758
10.078782
10.077329
10.075247
10.072284
10.068064
10.062044
10.053504
10.041679
10.025816
10.006203
9.9924925
9.9844823
9.9829152
9.9843267
9.994784
9.9826481
10.002567
1132.6407
2172.1778
1058.6774
644.01393
454.43178
318.78198
240.64022
182.67164
146.47171
118.9972
100.76345
86.346255
75.439802
66.452373
59.072182
52.877311
47.64395
43.186271
39.359066
36.048433
33.16951
30.651016
28.433648
26.470185
24.722084
23.159819
21.758559
20.499318
19.366377
18.345549
17.423534
16.589705
15.835738
15.1546
14.540409
13.987733
13.491502
13.046772
12.649275
12.29569
11.982435
11.705221
11.46094
11.247015
11.060549
10.898273
10.757722
10.636618
10.532783
10.444131
10.368776
10.305107
10.251602
10.206915
10.169856
10.139495
10.115192
10.096578
10.083701
10.077186
10.076576
10.076399
10.075552
10.074424
10.072815
10.070566
10.067424
10.063025
10.056846
10.048158
10.036195
10.020586
10.002225
9.9895218
9.9824106
9.9805686
9.9846962
9.993085
9.9824352
10.001572
1172.6982
2175.1042
1046.5521
640.47665
451.08248
319.03597
239.54873
182.86695
146.02513
119.15271
100.61069
86.357009
75.336986
66.354185
58.941112
52.734622
47.490435
43.027572
39.199202
35.889671
33.013741
30.500244
28.289306
26.333483
24.593433
23.039549
21.646532
20.395124
19.269635
18.256234
17.341551
16.514694
15.767265
15.09214
14.483481
13.935908
13.444487
13.004318
12.610953
12.26105
11.951405
11.677611
11.436377
11.225157
11.041306
10.881443
10.743062
10.623901
10.521817
10.434752
10.360795
10.298365
10.245948
10.202224
10.165995
10.136316
10.112532
10.094256
10.081407
10.07432
10.073005
10.072691
10.071663
10.07034
10.068527
10.066061
10.062683
10.058034
10.051621
10.042739
10.030554
10.014907
9.9980755
9.9865979
9.9804769
9.9789756
9.9842686
9.9909678
9.9848943
9.9996214
1210.9543
2185.2311
1037.406
637.08453
447.34032
319.10216
238.16003
182.90595
145.43754
119.20679
100.40531
86.304937
75.192123
66.208034
58.769047
52.552743
47.301053
42.835476
39.008437
35.702352
32.83147
30.324888
28.122114
26.175617
24.445184
22.901173
21.517846
20.275653
19.158844
18.153991
17.24774
16.428906
15.68903
15.020874
14.418649
13.877006
13.39114
12.956254
12.567747
12.222121
11.916619
11.646774
11.409105
11.200993
11.020119
10.863012
10.727101
10.610141
10.51002
10.424731
10.352329
10.291266
10.240043
10.197365
10.162041
10.133105
10.109888
10.091985
10.079246
10.071902
10.069812
10.069305
10.068069
10.066521
10.064476
10.061767
10.058136
10.053221
10.046558
10.037513
10.025226
10.009564
9.9942714
9.9840074
9.9788109
9.9777313
9.9838264
9.9904555
9.9875934
9.9989243
1247.2333
2204.8512
1030.2317
633.51949
442.87404
318.41848
236.0901
182.45435
144.47538
118.98144
100.01088
86.075353
74.907626
65.929233
58.481644
52.266559
47.018357
42.559118
38.741485
35.44605
32.586478
30.092355
27.902619
25.969852
24.253034
22.722565
21.35234
20.12256
19.017318
18.023622
17.128262
16.319762
15.589633
14.930503
14.336641
13.802715
13.324032
12.895947
12.513796
12.17376
11.873559
11.608752
11.375704
11.17158
10.994461
10.840818
10.708008
10.593799
10.496103
10.412995
10.342491
10.283088
10.233298
10.191866
10.157618
10.129575
10.107054
10.089646
10.077153
10.069609
10.067005
10.066242
10.06477
10.062968
10.060662
10.057682
10.053773
10.048575
10.041637
10.032418
10.020142
10.004583
9.9907767
9.9817059
9.9774198
9.9767947
9.9831253
9.9901838
9.9901459
9.9985354
1281.3963
2231.7044
1027.348
630.64703
439.0473
317.10512
233.55736
181.59295
143.25391
118.51655
99.472332
85.690846
74.503275
65.535292
58.093621
51.889446
46.653986
42.208829
38.407399
35.128774
32.285877
29.809009
27.636553
25.721239
24.021552
22.507872
21.153777
19.939286
18.848234
17.868059
16.985831
16.18977
15.471393
14.823169
14.239435
13.714869
13.244862
12.824939
12.450503
12.117296
11.82344
11.564615
11.337138
11.137794
10.9651
10.815533
10.686366
10.575381
10.480495
10.399906
10.331582
10.274076
10.225916
10.185887
10.152848
10.125815
10.104087
10.087253
10.075103
10.067575
10.064526
10.063462
10.061728
10.059647
10.057055
10.053782
10.04958
10.044096
10.036878
10.027466
10.015287
10.000046
9.9876719
9.9797237
9.9762819
9.9759844
9.9823091
9.9903021
9.9930065
9.9990861
1313.4146
2263.3727
1028.3412
627.88767
435.18552
315.1538
230.99636
180.36017
141.91711
117.81698
98.799223
85.150615
73.975593
65.024312
57.601921
51.418528
46.204936
41.781702
38.003143
34.747595
31.926894
29.472244
27.321599
25.427163
23.748316
22.254893
20.920163
19.724049
18.650038
17.685946
16.819279
16.037932
15.333475
14.698186
14.12648
13.613041
13.153327
12.743004
12.377693
12.052792
11.766377
11.514483
11.293547
11.099818
10.932219
10.787329
10.662334
10.555041
10.463332
10.385584
10.319706
10.264321
10.21797
10.179488
10.147777
10.121858
10.101016
10.084832
10.073095
10.065686
10.062346
10.060939
10.058919
10.056539
10.053643
10.050059
10.045552
10.039785
10.032303
10.022676
10.01062
9.9960177
9.9850126
9.9780924
9.9753883
9.9753744
9.9816364
9.9901708
9.9959054
10.000672
1343.3986
2297.3778
1030.489
624.77599
431.38345
312.54736
228.36541
178.90457
140.37648
116.89865
98.008349
84.463285
73.325562
64.398229
57.006547
50.853175
45.670058
41.27652
37.526638
34.300359
31.507459
29.080058
26.95612
25.08409
23.429938
21.960469
20.648588
19.474212
18.42039
17.475212
16.626793
15.862672
15.174533
14.55442
13.996832
13.496462
13.048824
12.649681
12.294929
11.980562
11.702736
11.458694
11.245238
11.058076
10.896206
10.756548
10.636227
10.53306
10.444854
10.370232
10.30703
10.253955
10.20957
10.172754
10.142467
10.117749
10.097868
10.082396
10.071129
10.063925
10.060417
10.058636
10.056311
10.053615
10.050403
10.0465
10.041681
10.035638
10.027926
10.018082
10.006084
9.9925395
9.9828322
9.9768379
9.9747184
9.9750065
9.9810465
9.989827
9.9982381
10.002344
1371.44
2331.6263
1028.7518
620.8657
426.52912
309.23932
224.78391
177.03504
138.50911
115.79732
97.09439
83.627413
72.54586
63.652141
56.302398
50.187642
45.043681
40.688225
36.969924
33.779064
31.019916
28.625139
26.533681
24.69288
23.067836
21.626455
20.341183
19.192083
18.161733
17.238355
16.410866
15.666457
14.99699
14.394229
13.852767
13.367305
12.933419
12.546965
12.2039
11.900202
11.632278
11.397091
11.192044
11.012934
10.857417
10.72349
10.608383
10.50974
10.425332
10.354075
10.29374
10.243131
10.200836
10.165777
10.136986
10.113533
10.094676
10.079967
10.069207
10.062266
10.058693
10.056516
10.053872
10.05085
10.047314
10.043092
10.037963
10.031648
10.02375
10.013749
10.001672
9.9896207
9.9811361
9.9759793
9.9742746
9.974973
9.9806358
9.9892114
9.999207
10.003586
1397.638
2364.5916
1020.113
615.88193
419.98945
305.49491
220.39647
174.69818
136.61728
114.50877
96.047413
82.637737
71.628578
62.7782
55.481587
49.40922
44.312057
40.003623
36.331512
33.184681
30.466904
28.111196
26.057818
24.252684
22.661439
21.252416
19.997674
18.87755
17.874146
16.975618
16.171806
15.449699
14.801364
14.218218
13.69496
13.226294
12.807853
12.435588
12.105618
11.813985
11.557014
11.331529
11.135459
10.964303
10.81585
10.688122
10.579102
10.485348
10.405052
10.337348
10.280038
10.23201
10.191896
10.158659
10.131407
10.109259
10.091468
10.077564
10.067337
10.060685
10.057122
10.054543
10.051568
10.048215
10.044355
10.03982
10.034395
10.027813
10.019754
10.009746
9.9976852
9.987245
9.9799055
9.9755334
9.9740847
9.9753411
9.9804312
9.9885384
9.9987708
10.00412
1422.1013
2395.6917
1011.13
609.82908
411.78891
301.34211
215.77714
172.15783
134.61763
113.03898
94.854833
81.487621
70.562347
61.756129
54.521822
48.513235
43.476695
39.226882
35.609626
32.515448
29.846653
27.536652
25.52747
23.763716
22.211202
20.838956
19.618865
18.531593
17.558799
16.688366
15.910749
15.213581
14.588897
14.027669
13.524706
13.074716
12.673392
12.316757
12.001107
11.722575
11.477578
11.26273
11.076345
10.91388
10.772971
10.651609
10.548341
10.459842
10.384253
10.320248
10.266124
10.220759
10.182885
10.151502
10.125803
10.104974
10.088274
10.075204
10.065529
10.059167
10.055653
10.052676
10.049367
10.045683
10.041503
10.036667
10.030967
10.024139
10.015916
10.006045
9.9944666
9.9854037
9.9791095
9.9755038
9.9742302
9.9758775
9.9804188
9.9879792
9.9975521
10.003536
1444.9652
2425.9643
997.64046
602.19174
402.21189
296.77159
210.97711
169.35943
132.59411
111.39243
93.489707
80.146932
69.309674
60.57971
53.426874
47.496585
42.534018
38.354744
34.802788
31.77047
29.158998
26.901723
24.942982
23.226446
21.717992
20.386755
19.205634
18.155283
17.216928
16.378172
15.62798
14.95841
14.359949
13.823
13.342469
12.913052
12.530524
12.190956
11.890854
11.626467
11.39434
11.191664
11.015461
10.862104
10.72919
10.614578
10.517295
10.434089
10.36289
10.30272
10.252141
10.209534
10.173935
10.144413
10.120251
10.100728
10.085118
10.072901
10.063795
10.057705
10.054237
10.050878
10.047237
10.043228
10.038738
10.033613
10.027662
10.020631
10.012245
10.002495
9.9919093
9.9841046
9.9787235
9.9758076
9.974975
9.9764004
9.9805564
9.9875874
9.9961953
10.001493
1466.5474
2454.3908
980.25926
593.72144
392.1539
291.79325
206.10606
166.36014
130.51811
109.54816
91.887223
78.599329
67.875922
59.243184
52.190485
46.355741
41.481616
37.385677
33.910065
30.949169
28.403867
26.206965
24.304731
22.641605
21.183116
19.895446
18.757738
17.748558
16.848568
16.045616
15.32863
14.68925
14.119417
13.608938
13.152755
12.745535
12.383185
12.061787
11.778105
11.52859
11.3097
11.118545
10.953037
10.809183
10.684626
10.577497
10.486198
10.408416
10.341845
10.285408
10.237989
10.198425
10.165156
10.137491
10.114827
10.096567
10.082023
10.07066
10.062146
10.056308
10.052826
10.049113
10.045146
10.040824
10.036038
10.030639
10.024457
10.017275
10.008799
9.9990533
9.9899708
9.9833231
9.9787772
9.9763041
9.9757442
9.9771321
9.9808233
9.9872907
9.9952643
10.000355
1487.0815
2477.3263
958.72473
584.66408
381.64361
286.45412
201.24943
163.16769
128.31947
107.41134
90.03188
76.834281
66.248606
57.738594
50.806818
45.086124
40.316342
36.317563
32.930563
30.050785
27.581235
25.453295
23.611398
22.00796
20.606161
19.371473
18.282213
17.318789
16.461268
15.697585
15.016486
14.409802
13.870398
13.388267
12.958078
12.57439
12.233346
11.930992
11.664331
11.430172
11.22506
11.045978
10.891211
10.756935
10.640682
10.540403
10.455107
10.382709
10.321186
10.26861
10.224236
10.187301
10.156596
10.130819
10.109604
10.092539
10.079014
10.068477
10.060578
10.055
10.051379
10.047345
10.043067
10.038447
10.033384
10.027735
10.021335
10.014028
10.005637
9.9961695
9.9885632
9.9829785
9.979232
9.977169
9.9767315
9.9779747
9.9812596
9.9870727
9.9945299
9.999534
1506.828
2490.2218
933.08679
574.96249
370.75142
280.78695
196.48218
159.70245
125.87806
104.98969
87.896726
74.834409
64.415634
56.056168
49.268823
43.682965
39.03557
35.148294
31.863779
29.072338
26.688361
24.639196
22.871463
21.335377
19.996888
18.820602
17.784902
16.871207
16.059955
15.338931
14.696674
14.124946
13.615983
13.163547
12.760603
12.40141
12.082482
11.79981
11.55054
11.331975
11.14078
10.974671
10.83057
10.70578
10.597941
10.504712
10.425214
10.357823
10.300731
10.252423
10.211115
10.176612
10.148092
10.124416
10.104644
10.088691
10.076116
10.066345
10.059057
10.053807
10.04987
10.045549
10.040978
10.036079
10.03076
10.024892
10.018308
10.010869
10.00263
9.9940138
9.9876219
9.9829799
9.9798906
9.9782107
9.9779012
9.979037
9.981898
9.9869698
9.9938005
9.9989646
1526.0085
2483.0794
903.72133
564.65303
359.52529
274.79771
191.79909
155.83817
123.11716
102.23899
85.452606
72.57751
62.361444
54.185217
47.569468
42.141029
37.636802
33.872171
30.705478
28.022633
25.737682
23.778051
22.09291
20.632042
19.363156
18.251336
17.274156
16.412047
15.650101
14.974376
14.37306
13.838511
13.363213
12.941
12.565899
12.231559
11.934981
11.672175
11.440216
11.237128
11.059303
10.904804
10.771276
10.655752
10.55618
10.470532
10.396772
10.334209
10.281155
10.236589
10.198693
10.166553
10.139976
10.118114
10.09996
10.085062
10.07336
10.064276
10.05752
10.052628
10.048289
10.043701
10.038862
10.033709
10.028156
10.022096
10.015386
10.007865
9.999648
9.9924407
9.9870946
9.9832804
9.980771
9.9794282
9.9792444
9.9802963
9.9827716
9.9871046
9.993248
9.9985671
1544.7947
2435.8246
872.08228
553.77139
348.0224
268.39906
186.89104
151.54816
119.92372
99.112101
82.666492
70.039514
60.070711
52.116583
45.702544
40.451192
36.112846
32.500876
29.47191
26.912695
24.740579
22.881779
21.288277
19.910346
18.714569
17.671923
16.757924
15.953247
15.242708
14.614103
14.054955
13.558158
13.116531
12.724395
12.376804
12.067115
11.792591
11.549525
11.334644
11.146695
10.982041
10.838757
10.715251
10.608535
10.516526
10.437562
10.369949
10.312058
10.262776
10.221595
10.186703
10.157183
10.132386
10.112137
10.095403
10.081672
10.070769
10.062306
10.055948
10.051295
10.046634
10.041793
10.036711
10.031333
10.025575
10.019341
10.012539
10.005123
9.9973269
9.991353
9.9869215
9.983824
9.9818299
9.9808036
9.9807452
9.9817237
9.9838564
9.9874957
9.9928449
9.998169
1563.0591
2399.3893
840.15594
542.26053
336.24653
261.04892
181.83303
146.73057
116.18471
95.551937
79.504214
67.197095
57.528707
49.842457
43.656019
38.625157
34.485094
31.049668
28.179471
25.760813
23.714631
21.967639
20.470792
19.182823
18.068291
17.098415
16.250006
15.504168
14.845798
14.264494
13.747669
13.288523
12.880323
12.517479
12.195227
11.909453
11.656178
11.432308
11.234994
11.061524
10.909616
10.77699
10.662823
10.564445
10.479589
10.406715
10.344341
10.291102
10.245754
10.207641
10.175485
10.148282
10.125399
10.106561
10.091129
10.078492
10.068338
10.060472
10.054422
10.049823
10.044902
10.039828
10.034526
10.028951
10.023026
10.016655
10.009762
10.002451
9.9956929
9.9906917
9.9870521
9.9845706
9.98304
9.982319
9.9823769
9.9832554
9.9850742
9.9881865
9.9928246
9.9978443
1580.3482
2358.2281
807.32025
529.78343
324.09775
252.51372
176.4328
141.27181
111.7929
91.498653
75.933319
64.030226
54.717358
47.348814
41.455055
36.685108
32.777194
29.544587
26.853107
24.590858
22.678531
21.053174
19.663634
18.469672
17.438559
16.543008
15.760782
15.073931
14.467167
13.930641
13.455081
13.032411
12.656516
12.322349
12.025604
11.762369
11.529119
11.322842
11.140984
10.981266
10.84162
10.720002
10.614479
10.523786
10.445587
10.3784
10.320865
10.271788
10.230094
10.194808
10.165137
10.140088
10.119015
10.101429
10.087118
10.075406
10.066035
10.058754
10.053024
10.048221
10.043101
10.037819
10.032322
10.02657
10.020502
10.014052
10.007182
10.000113
9.9945812
9.9904067
9.987437
9.985479
9.984356
9.9839217
9.9840861
9.9848353
9.9863412
9.9890963
9.9933613
9.9980148
1595.992
2290.6012
772.82185
515.83368
310.82106
242.64751
170.37722
135.03458
106.6496
86.89475
71.928866
60.520231
51.653981
44.682927
39.135437
34.669173
31.026618
28.020096
25.520243
23.427518
21.662754
20.164616
18.8853
17.787028
16.839408
16.01723
15.29935
14.66821
14.112024
13.619919
13.183496
12.795431
12.449958
12.142447
11.869163
11.62682
11.412227
11.222461
11.055131
10.907997
10.779215
10.667175
10.570477
10.486752
10.414631
10.35265
10.299524
10.254136
10.215531
10.183156
10.155675
10.132518
10.113051
10.096788
10.083472
10.072559
10.063823
10.057052
10.05164
10.046533
10.041248
10.035786
10.03012
10.024214
10.01802
10.011503
10.004756
9.9985159
9.9938772
9.9904298
9.9880202
9.9864922
9.985704
9.9855184
9.9857939
9.9864466
9.9876736
9.9900974
9.9940081
9.9982627
1608.9083
2222.1302
735.76174
499.84714
296.74975
231.25879
163.19723
127.8541
100.67961
81.71105
67.485318
56.70756
48.399455
41.902771
36.75578
32.629493
29.278993
26.512831
24.221103
22.3051
20.691216
19.322157
18.153076
17.148913
16.282015
15.529862
14.872035
14.295133
13.786177
13.335224
12.935137
12.579153
12.261945
11.979159
11.727362
11.503853
11.306166
11.131348
10.977309
10.841875
10.723189
10.620297
10.530809
10.453449
10.386779
10.329505
10.280404
10.23845
10.202786
10.172673
10.147174
10.125685
10.107652
10.092599
10.080188
10.069986
10.06176
10.055338
10.050145
10.044808
10.039367
10.033752
10.027945
10.021912
10.015628
10.009101
10.002556
9.9974314
9.9935273
9.9906899
9.9887455
9.9875599
9.9870238
9.987027
9.9874178
9.9880614
9.9891208
9.9912554
9.9948058
9.9986183
1616.3127
2139.0135
695.91104
480.12255
281.63856
218.02917
154.41939
119.59452
93.883239
75.994526
62.68549
52.698706
45.049181
39.093605
34.389297
30.626758
27.579518
25.06893
22.988703
21.250319
19.785657
18.542489
17.479896
16.565757
15.774759
15.08684
14.485791
13.958018
13.492505
13.079081
12.711867
12.384882
12.093315
11.833144
11.601019
11.394327
11.211695
11.050117
10.907819
10.782966
10.673753
10.578448
10.495622
10.423913
10.362064
10.308939
10.26344
10.224452
10.1915
10.163434
10.139656
10.119594
10.102785
10.088842
10.077243
10.067701
10.059943
10.05374
10.048597
10.043088
10.0375
10.031752
10.025826
10.01969
10.013338
10.006898
10.001079
9.9967279
9.9934618
9.9911269
9.9895675
9.9886594
9.9883114
9.9884393
9.9889184
9.9896196
9.9906428
9.9925159
9.995577
9.9988778
1613.0584
2036.9851
652.75634
454.35573
265.30991
202.61374
143.8032
110.28064
86.410436
69.87171
57.71299
48.639534
41.721419
36.350106
32.11291
28.724743
25.981544
23.725444
21.852582
20.28534
18.962534
17.837672
16.874367
16.043957
15.323724
14.695641
14.145315
13.660961
13.232817
12.852972
12.514891
12.213489
11.944508
11.704447
11.490346
11.299662
11.130215
10.980193
10.847859
10.731661
10.630123
10.54173
10.4648
10.39815
10.340556
10.29099
10.248784
10.212582
10.181679
10.15543
10.133185
10.114353
10.098657
10.085507
10.074603
10.065641
10.05838
10.052406
10.047046
10.04143
10.035706
10.029834
10.023804
10.017602
10.011249
10.004979
10.000102
9.9963622
9.9936158
9.9916905
9.9904487
9.9897758
9.9895843
9.9897939
9.9903041
9.991035
9.9920783
9.9937723
9.9962831
9.9989594
1592.9766
1906.2308
606.51234
421.87367
247.76558
184.8095
131.56931
100.23602
78.608143
63.664932
52.786976
44.694447
38.539078
33.765412
29.9983
26.979773
24.528823
22.514685
20.836443
19.427511
18.234404
17.216581
16.342391
15.586783
14.929675
14.354914
13.849671
13.404041
13.009353
12.658644
12.345906
12.066643
11.817044
11.593997
11.39488
11.217449
11.059727
10.919937
10.796457
10.687792
10.592634
10.510155
10.438347
10.376136
10.322411
10.27616
10.236471
10.202514
10.17343
10.148662
10.127801
10.110104
10.095185
10.082699
10.072333
10.063851
10.056885
10.051091
10.04558
10.039878
10.034051
10.02807
10.021932
10.015659
10.009381
10.003731
9.9994914
9.9962731
9.9939387
9.992339
9.99135
9.9908691
9.99081
9.9910868
9.9916035
9.9923057
9.9933019
9.9948746
9.9970839
9.9992501
1547.2287
1746.2746
558.34358
383.46586
229.97105
164.89594
118.40046
90.080298
70.930006
57.696297
48.131348
41.023579
35.61936
31.42465
28.107059
25.438953
23.261506
21.461969
19.958537
18.690051
17.610965
16.686395
15.889195
15.197879
14.595136
14.066689
13.600063
13.187296
12.820681
12.494756
12.203525
11.943049
11.709911
11.501317
11.314906
11.148654
11.000776
10.869668
10.753851
10.65195
10.562672
10.484794
10.417138
10.358415
10.30765
10.263874
10.226274
10.194294
10.16688
10.14349
10.123591
10.106733
10.092501
10.08053
10.070623
10.062395
10.055617
10.049899
10.04425
10.038473
10.032577
10.026535
10.020338
10.014023
10.007844
10.002961
9.9991982
9.9963957
9.9943859
9.9930386
9.9922403
9.9918978
9.99193
9.9922566
9.9927938
9.9934945
9.9944277
9.9957732
9.9975613
9.9993294
1467.5307
1582.8624
509.21716
343.97252
206.0227
145.60732
105.23487
80.497104
63.830293
52.279503
43.962447
37.783022
33.073678
29.404287
26.488067
24.129972
22.194233
20.584429
19.23089
18.082522
17.100211
16.254183
15.521121
14.88253
14.323509
13.83191
13.397726
13.012664
12.669994
12.364111
12.090371
11.845121
11.625293
11.428356
11.252165
11.094869
10.954826
10.830541
10.720623
10.623762
10.538732
10.464451
10.400206
10.344392
10.296146
10.254555
10.218805
10.188161
10.161956
10.139548
10.120454
10.104245
10.090635
10.079133
10.069487
10.061444
10.05475
10.04902
10.043213
10.037321
10.031328
10.025226
10.019017
10.012771
10.006894
10.002528
9.9991528
9.9966662
9.9949067
9.9937522
9.9930953
9.9928459
9.9929269
9.9932698
9.9938132
9.994517
9.995394
9.9965126
9.997892
9.9993425
1355.5917
1495.5997
463.04935
296.52391
182.21225
127.49515
93.327341
72.007196
57.683836
47.709269
40.499183
35.124649
31.005995
27.774783
25.188298
23.082155
21.341915
19.885763
18.653027
17.601438
16.697304
15.91495
15.234117
14.638602
14.115268
13.653372
13.244021
12.879895
12.555049
12.265003
12.004836
11.771355
11.561751
11.373717
11.205295
11.054789
10.920694
10.801639
10.696342
10.60359
10.52221
10.451057
10.389006
10.335125
10.288467
10.248187
10.213512
10.18378
10.15852
10.1369
10.118483
10.102826
10.08956
10.078362
10.068946
10.061058
10.054439
10.048691
10.042751
10.03672
10.030571
10.024315
10.017991
10.011774
10.006435
10.002383
9.9992942
9.9970315
9.9954504
9.9944328
9.9938743
9.9936843
9.9937873
9.9941259
9.9946565
9.9953394
9.9961336
9.9970216
9.9980441
9.9992801
1222.8956
1251.9914
422.84022
254.21423
160.06318
112.38592
83.468751
65.148985
52.825472
44.186975
37.895161
33.162044
29.501233
26.603172
24.263435
22.342954
20.744448
19.398201
18.253129
17.271001
16.422765
15.685817
15.042261
14.477645
13.980098
13.539745
13.148557
12.799787
12.487868
12.2082
11.957015
11.731171
11.528087
11.345598
11.181869
11.035307
10.904494
10.788134
10.68502
10.594021
10.514115
10.444567
10.383826
10.331054
10.285332
10.24584
10.211821
10.182594
10.157547
10.136145
10.117903
10.102401
10.08927
10.078189
10.068878
10.061085
10.054548
10.048863
10.04294
10.036898
10.030702
10.024357
10.017911
10.011613
10.006534
10.002642
9.9996917
9.9975374
9.9960393
9.9950821
9.9945621
9.9943885
9.9944875
9.9948088
9.9953172
9.9959637
9.996662
9.9973392
9.998076
9.9991794
1103.4583
1114.5533
390.17152
223.47201
143.48503
101.26351
76.163282
60.153011
49.352403
41.715267
36.095966
31.827895
28.495999
25.835713
23.67108
21.881588
20.38234
19.112102
18.025753
17.089385
16.277021
15.568378
14.94733
14.400927
13.91905
13.491393
13.110703
12.770608
12.46587
12.192132
11.9458
11.723912
11.524016
11.344069
11.182335
11.03731
10.907653
10.792135
10.689606
10.598967
10.519164
10.449182
10.388058
10.33486
10.288715
10.248813
10.214407
10.184819
10.159441
10.137728
10.119199
10.103433
10.09006
10.078759
10.069248
10.061277
10.054593
10.048833
10.043076
10.037175
10.031151
10.024993
10.018739
10.012584
10.007398
10.003467
10.000475
9.9982838
9.9967478
9.9957507
9.9951892
9.9949735
9.9950329
9.9953209
9.9958011
9.9964057
9.9970116
9.9975189
9.9980602
9.9991043
1048.6068
1072.9395
365.9147
206.3836
132.61103
93.704185
70.713605
56.17972
46.392174
39.460902
34.344715
30.44074
27.379844
24.925696
22.921039
21.257773
19.859508
18.670977
17.651361
16.76994
16.00317
15.332656
14.743737
14.224484
13.765023
13.357083
12.993653
12.66883
12.377646
12.115957
11.880326
11.667913
11.476372
11.303749
11.148398
11.008897
10.88399
10.77253
10.673446
10.585715
10.508353
10.440408
10.380964
10.329147
10.284132
10.245146
10.211479
10.182483
10.157572
10.136224
10.117975
10.102416
10.089191
10.077987
10.068532
10.060578
10.05388
10.04807
10.042211
10.036221
10.030106
10.023861
10.017546
10.011436
10.006701
10.003037
10.000277
9.9982572
9.9968453
9.995931
9.9954203
9.9952307
9.9952978
9.9955832
9.9960562
9.9966423
9.9971963
9.9976038
9.9980358
9.999059
31253.848
78839.905
36857.449
10709.802
1413.5218
608.30121
432.02625
348.67007
288.75019
234.85145
191.43747
158.41184
133.95987
115.78713
101.79068
90.372443
80.729307
72.497598
65.438602
59.347299
54.051251
49.415467
45.334798
41.723973
38.517923
35.652466
33.082493
30.768245
28.678069
26.78697
25.073576
23.518819
22.106076
20.820753
19.651418
18.588428
17.623081
16.747655
15.955098
15.23901
14.593817
14.013962
13.494402
13.030601
12.618092
12.252637
11.930397
11.647346
11.399818
11.184471
10.998042
10.837426
10.699651
10.582188
10.482517
10.398596
10.330312
10.277039
10.238802
10.217696
10.210235
10.20758
10.204798
10.201427
10.19795
10.194511
10.189932
10.184684
10.176965
10.1726
10.159724
10.156472
10.132898
10.132632
10.046644
10.04252
9.9741332
9.9944656
9.9542147
9.9874844
20036.621
59001.319
24438.828
5071.4685
965.52623
526.04374
395.87153
319.61432
262.51409
211.48245
173.55776
144.89674
123.95464
108.22169
95.802254
85.415013
76.570856
69.003937
62.493607
56.849923
51.920651
47.589152
43.763185
40.366989
37.338943
34.626247
32.187721
29.986167
27.993658
26.187702
24.548565
23.058575
21.702432
20.466714
19.341197
18.316948
17.385844
16.540711
15.774937
15.082538
14.458301
13.896905
13.393612
12.944131
12.544165
12.189675
11.876997
11.602213
11.361833
11.15264
10.971476
10.815338
10.68136
10.567115
10.470176
10.388324
10.321392
10.269289
10.232125
10.212037
10.205165
10.202653
10.199918
10.196658
10.193342
10.190154
10.186454
10.181858
10.174916
10.170727
10.158656
10.155298
10.131095
10.129765
10.043249
10.039414
9.9733634
9.9942835
9.9547799
9.9878435
28452.306
34908.891
13365.626
2532.539
830.80639
496.41702
385.9165
304.3731
249.20576
199.99687
165.87503
138.83732
119.42594
104.57007
92.731618
82.757195
74.284064
67.033787
60.787435
55.364493
50.622261
46.451192
42.763487
39.486674
36.560198
33.93707
31.57738
29.444867
27.513647
25.762138
24.171297
22.724135
21.406045
20.204195
19.109051
18.111986
17.205202
16.381837
15.635517
14.960509
14.351814
13.804229
13.31323
12.874663
12.484337
12.138347
11.833141
11.564869
11.330165
11.1259
10.948981
10.796485
10.665635
10.554096
10.459366
10.379366
10.313444
10.262222
10.225862
10.206571
10.200115
10.197731
10.195071
10.191945
10.188799
10.185781
10.182788
10.17887
10.172712
10.168674
10.15731
10.153766
10.129109
10.126423
10.039868
10.036349
9.9726107
9.9941211
9.9553231
9.9882146
35960.277
23833.991
8291.0921
1530.0988
749.24685
473.31927
373.62457
288.48479
238.12671
189.42588
158.93192
132.95677
115.13282
101.05753
89.8006
80.231822
72.117272
65.163372
59.164613
53.949125
49.38257
45.36196
41.803796
38.638895
35.809977
33.269457
30.983649
28.916403
27.043411
25.343782
23.799144
22.393129
21.111757
19.942735
18.877178
17.906689
17.023782
16.221875
15.494807
14.837073
14.243867
13.710091
13.231425
12.803837
12.423233
12.08584
11.788208
11.526549
11.297626
11.098385
10.925806
10.777041
10.649468
10.540617
10.448173
10.370126
10.305368
10.255065
10.219546
10.201095
10.195053
10.192812
10.190241
10.187259
10.184292
10.181467
10.178863
10.175635
10.170271
10.166361
10.155603
10.152024
10.126709
10.12279
10.036531
10.033374
9.9719468
9.994071
9.9558771
9.9886947
40413.639
20398.731
5837.2821
1214.1571
715.6078
455.96325
363.98928
276.11431
230.0968
181.35936
154.02473
128.38939
111.90314
98.270772
87.450563
78.179048
70.34269
63.616104
57.80952
52.756458
48.328995
44.428756
40.975169
37.901421
35.152179
32.682455
30.456588
28.444323
26.62084
24.965652
23.460893
22.090662
20.841464
19.701424
18.662189
17.71548
16.854081
16.071625
15.362108
14.720217
14.141294
13.620313
13.153138
12.735828
12.364364
12.03509
11.744642
11.489278
11.265881
11.071462
10.903064
10.757921
10.633492
10.527268
10.437055
10.360907
10.297431
10.248003
10.213294
10.195636
10.189997
10.187906
10.185438
10.182613
10.17983
10.177191
10.174745
10.172168
10.167596
10.163796
10.153553
10.150011
10.123792
10.118783
10.033215
10.030466
9.9713479
9.9940656
9.9564164
9.9891803
43187.75
19052.746
4487.2655
1143.2461
695.63064
437.75804
356.57789
266.42305
223.99977
174.93537
150.1806
124.52874
109.24046
95.870211
85.430132
76.399146
68.796264
62.258393
56.613333
51.697676
47.388751
43.59167
40.22816
37.23332
34.553547
32.145197
29.97265
28.008969
26.229379
24.61385
23.144871
21.806913
20.586895
19.473282
18.458188
17.53338
16.6919
15.927542
15.234435
14.607427
14.041982
13.533126
13.076893
12.669403
12.306709
11.985255
11.701748
11.452488
11.234472
11.044765
10.880479
10.738956
10.617537
10.513902
10.425901
10.35164
10.289578
10.240994
10.207085
10.190121
10.184956
10.183021
10.180669
10.178009
10.17541
10.172952
10.170663
10.168454
10.164661
10.160964
10.151227
10.147715
10.120369
10.114314
10.029938
10.027636
9.9708422
9.9940405
9.9569446
9.9896796
45378.245
17139.926
3603.5404
1093.7131
680.73736
425.29831
350.75424
258.67804
219.28245
169.83263
147.12385
121.28605
107.03593
93.801282
83.691588
74.853194
67.445664
61.064732
55.555439
50.755992
46.54808
42.839432
39.553574
36.627137
34.007883
31.653414
29.529405
27.607471
25.866666
24.286526
22.849663
21.540827
20.347275
19.257757
18.264794
17.360143
16.537091
15.789555
15.111771
14.498728
13.945982
13.448597
13.002763
12.604642
12.250345
11.93641
11.659599
11.416248
11.203465
11.01837
10.85818
10.720078
10.601632
10.500553
10.41474
10.34235
10.281826
10.234054
10.200932
10.184663
10.179948
10.178165
10.175938
10.173448
10.17103
10.168743
10.166589
10.164512
10.161455
10.157862
10.148673
10.145031
10.116512
10.109399
10.026707
10.024895
9.970413
9.9938911
9.9574836
9.9901652
46992.794
14495.956
3035.8966
1063.1311
669.42501
415.24472