/*--------------------------------*- C++ -*----------------------------------*\
  =========                 |
  \\      /  F ield         | OpenFOAM: The Open Source CFD Toolbox
   \\    /   O peration     | Website:  https://openfoam.org
    \\  /    A nd           | Version:  12
     \\/     M anipulation  |
\*---------------------------------------------------------------------------*/
FoamFile
{
    format      ascii;
    class       volVectorField;
    location    "0.079";
    object      U;
}
// * * * * * * * * * * * * * * * * * * * * * * * * * * * * * * * * * * * * * //

dimensions      [0 1 -1 0 0 0 0];

internalField   nonuniform List<vector> 
16000
(
(214.71239 -3.1440029e-17 -8.3209109)
(251.30093 0 5.3435017)
(237.47927 0 -7.5141267)
(245.12183 4.978662e-17 3.7529761)
(240.47941 -4.9138771e-17 -5.9064841)
(242.65886 0 1.7369138)
(240.88225 0 -4.2875421)
(241.37856 8.4112124e-17 -0.028730336)
(240.54715 -7.9912382e-17 -3.1279352)
(240.42221 0 -1.2537263)
(239.91089 7.2205875e-17 -2.5368814)
(239.56427 -2.0571473e-16 -1.9603421)
(239.12238 1.3020487e-16 -2.3931605)
(238.6953 -1.2385252e-16 -2.3287797)
(238.24042 1.175125e-16 -2.4862881)
(237.77187 -3.4859889e-18 -2.5551348)
(237.28489 -3.3115178e-18 -2.6551062)
(236.7804 -9.7710953e-17 -2.7442282)
(236.25784 1.914367e-16 -2.8349129)
(235.71707 -9.0829175e-17 -2.9231982)
(235.15794 1.7276462e-16 -3.0094595)
(234.58036 -1.6376752e-16 -3.0929928)
(233.98434 0 -3.1732938)
(233.36995 1.5243539e-16 -3.2497749)
(232.7374 -4.1285768e-18 -3.3218407)
(232.08696 -2.6604274e-16 -3.3888647)
(231.41904 1.2609465e-16 -3.4502139)
(230.73417 0 -3.505243)
(230.033 0 -3.5533109)
(229.31632 2.1897085e-16 -3.5937853)
(228.58504 -2.0402403e-16 -3.626056)
(227.84023 0 -3.6495442)
(227.08308 0 -3.6637129)
(226.31491 0 -3.6680814)
(225.53718 5.1470848e-18 -3.6622353)
(224.75145 1.561939e-16 -3.6458379)
(223.9594 -1.429839e-16 -3.6186419)
(223.16278 -1.4003614e-16 -3.5804964)
(222.36345 1.2399478e-16 -3.5313566)
(221.56328 0 -3.4712899)
(220.76421 -1.1866745e-16 -3.4004765)
(219.96819 1.1201029e-16 -3.319213)
(219.17714 -2.1227195e-16 -3.2279092)
(218.39295 2.0027595e-16 -3.1270841)
(217.61747 -1.9559187e-16 -3.0173591)
(216.85245 3.5809813e-16 -2.8994477)
(216.09954 5.6063572e-18 -2.7741437)
(215.36028 2.9388387e-19 -2.6423063)
(214.63605 -1.5072572e-16 -2.5048426)
(213.9281 1.4254905e-16 -2.3626902)
(213.2375 -1.259168e-16 -2.2167993)
(212.56516 0 -2.0681144)
(211.91182 7.4837465e-18 -1.9175591)
(211.27802 0 -1.7660194)
(210.66413 6.6596127e-18 -1.6143286)
(210.07035 2.0736387e-16 -1.4632552)
(209.49669 -3.7901517e-16 -1.3134923)
(208.94303 1.0946612e-17 -1.1656509)
(208.40906 1.6842609e-16 -1.020256)
(207.89429 -1.4908121e-16 -0.87775994)
(207.39802 1.404289e-16 -0.73852573)
(206.91947 -8.8366951e-18 -0.60287964)
(206.45776 0 -0.47109691)
(206.01188 0 -0.34341715)
(205.58075 -1.1136419e-16 -0.22009939)
(205.1633 1.1204687e-16 -0.10145534)
(204.75862 -9.9286231e-17 0.01208779)
(204.36607 1.9380476e-16 0.11990183)
(203.98562 -1.8913864e-16 0.22106652)
(203.61829 8.384738e-17 0.31434305)
(203.26635 5.2946241e-18 0.39819934)
(202.9333 0 0.47086862)
(202.62273 4.7594013e-18 0.53111211)
(202.33647 -4.5200858e-18 0.57945027)
(202.06788 0 0.61768106)
(201.82782 -3.3789063e-17 0.64455184)
(201.45822 6.2513851e-17 0.64278038)
(201.46655 -3.1765363e-17 0.83257127)
(200.63027 0 0.34720263)
(201.20179 0 1.6800866)
(215.98494 0 -11.127967)
(252.90625 -3.7342243e-18 3.3050338)
(238.45534 -1.1997749e-16 -10.425791)
(246.54871 1.1063696e-16 1.6772325)
(241.55162 0 -8.7552497)
(243.96395 1.0178741e-16 -0.4104743)
(241.98262 -1.8795634e-16 -7.0215467)
(242.56854 -1.0135929e-19 -2.2982467)
(241.64584 8.4705103e-17 -5.707893)
(241.5224 0 -3.6409237)
(240.97033 -1.5300496e-16 -5.0024995)
(240.59517 1.4966892e-16 -4.3930228)
(240.1215 1.4234686e-16 -4.8126965)
(239.66032 -2.6204033e-16 -4.748901)
(239.17119 1.204612e-16 -4.8865176)
(238.66651 1.107457e-17 -4.9480361)
(238.14242 1.1580177e-16 -5.0325221)
(237.59953 -1.0313507e-16 -5.1079685)
(237.03744 0 -5.1826616)
(236.45603 0 -5.2539041)
(235.85524 5.6911383e-18 -5.321572)
(235.23509 -1.785252e-16 -5.384952)
(234.59568 3.3851654e-16 -5.4434071)
(233.93724 -3.1631422e-16 -5.4962516)
(233.26009 1.4297058e-16 -5.5427858)
(232.56469 0 -5.582297)
(231.85163 1.2469004e-16 -5.6140647)
(231.12162 -1.3370702e-16 -5.6373759)
(230.37552 0 -5.651532)
(229.61435 3.5336529e-18 -5.6558611)
(228.83925 -1.3402166e-17 -5.6497287)
(228.05152 0 -5.6325535)
(227.2526 0 -5.603815)
(226.44405 -1.7100015e-16 -5.5630736)
(225.62756 3.3954868e-16 -5.5099783)
(224.80494 -1.630482e-16 -5.4442805)
(223.97807 -1.594376e-16 -5.3658466)
(223.14892 1.4592876e-16 -5.2746633)
(222.31952 -1.1239259e-16 -5.1708475)
(221.4919 -2.8271417e-19 -5.0546496)
(220.66813 -2.6444631e-19 -4.9264544)
(219.85023 2.3327966e-16 -4.7867797)
(219.04017 -1.1006452e-16 -4.6362713)
(218.23988 0 -4.4756942)
(217.45114 2.0279121e-16 -4.3059228)
(216.67566 1.1957011e-17 -4.1279257)
(215.91498 -5.1325638e-18 -3.9427489)
(215.17049 -1.6487505e-16 -3.7514966)
(214.44342 0 -3.5553112)
(213.73483 -1.4685109e-16 -3.3553517)
(213.04558 -8.8738563e-18 -3.1527748)
(212.37635 2.6063723e-16 -2.9487135)
(211.72765 -1.3035124e-16 -2.744261)
(211.0998 0 -2.5404523)
(210.49293 -2.0423827e-17 -2.3382485)
(209.90703 -2.1163112e-16 -2.1385249)
(209.3419 3.6199967e-16 -1.9420612)
(208.79722 -2.1570878e-16 -1.7495367)
(208.27252 0 -1.5615276)
(207.76717 -1.7114124e-16 -1.3785201)
(207.28036 1.7984634e-16 -1.2008976)
(206.81119 2.6740126e-17 -1.0289811)
(206.35869 0 -0.86304635)
(205.92182 -1.4217853e-16 -0.70331572)
(205.49946 7.3367122e-18 -0.55002513)
(205.09056 1.1193716e-16 -0.40346191)
(204.69422 -1.9777152e-17 -0.26403065)
(204.30988 9.3190195e-17 -0.13233868)
(203.93759 -1.0533623e-16 -0.0092664772)
(203.57836 5.5195066e-18 0.10402183)
(203.23442 -5.2077347e-18 0.20609628)
(202.90891 0 0.29530427)
(202.60515 -4.6456176e-18 0.37064442)
(202.32514 4.3932584e-18 0.43339827)
(202.06508 8.318632e-18 0.48465825)
(201.8054 9.8541113e-19 0.51541629)
(201.52431 0 0.55819479)
(201.32698 3.0249579e-17 0.67702609)
(200.74899 -5.7572587e-17 0.3160259)
(201.06444 2.5866596e-17 1.5305045)
(217.12548 0 -14.00662)
(254.36041 -1.2283406e-16 1.0683004)
(239.36969 2.504247e-16 -13.420889)
(247.77699 -2.2368791e-16 -0.5651551)
(242.52075 1.1046416e-16 -11.677639)
(245.06876 -3.2709487e-18 -2.7480203)
(242.96046 9.9559079e-17 -9.8013371)
(243.57153 -9.4294355e-17 -4.7639644)
(242.59226 -5.5977435e-18 -8.3505381)
(242.44554 -5.3150443e-18 -6.1926971)
(241.85815 -1.0096623e-17 -7.5654385)
(241.44707 1.3929089e-16 -6.961309)
(240.938 -1.4119199e-16 -7.3500161)
(240.43842 1.385692e-16 -7.2930325)
(239.91031 -1.1903957e-16 -7.4093878)
(239.365 -1.5601587e-17 -7.4628006)
(238.79905 0 -7.5316686)
(238.21305 -1.1736506e-20 -7.5922283)
(237.60668 -2.2691195e-16 -7.6497986)
(236.97995 -3.6372478e-19 -7.7023494)
(236.3329 1.7392078e-16 -7.7494431)
(235.66566 1.7083663e-17 -7.7902835)
(234.97852 -2.160795e-17 -7.8241147)
(234.27184 0 -7.8501485)
(233.54615 6.5600857e-21 -7.8675916)
(232.80209 -1.658654e-16 -7.8756477)
(232.04048 1.4818235e-16 -7.8735301)
(231.26225 8.2699212e-18 -7.8604687)
(230.46854 0 -7.8357294)
(229.6606 -7.4189899e-18 -7.7986208)
(228.83987 -2.1533976e-21 -7.7485139)
(228.00792 -1.9970371e-16 -7.6848549)
(227.16648 2.0112942e-16 -7.6071796)
(226.3174 1.1918648e-17 -7.5151327)
(225.46264 -1.8041193e-16 -7.4084756)
(224.60428 1.4889616e-16 -7.287104)
(223.74443 -1.8142157e-16 -7.1510555)
(222.8853 1.520649e-16 -7.0005188)
(222.02908 -1.4397421e-16 -6.8358355)
(221.17796 1.3569129e-16 -6.6575047)
(220.3341 1.6043833e-17 -6.466179)
(219.49959 0 -6.2626566)
(218.67641 2.0012021e-16 -6.0478734)
(217.86644 -2.4222892e-16 -5.8228884)
(217.07139 0 -5.5888666)
(216.29282 1.7977055e-16 -5.347061)
(215.53212 -1.5775497e-16 -5.0987878)
(214.79046 1.7020361e-16 -4.8454052)
(214.06884 -1.8003142e-16 -4.5882883)
(213.36805 0 -4.3288067)
(212.68869 1.7751827e-16 -4.0683028)
(212.03114 -1.3341219e-16 -3.8080701)
(211.39563 0 -3.5493354)
(210.78218 0 -3.2932421)
(210.19065 1.2499824e-16 -3.0408344)
(209.62077 -2.0875517e-16 -2.7930484)
(209.07211 1.2254348e-16 -2.5507039)
(208.54411 1.8442141e-16 -2.3145034)
(208.03611 1.9726445e-19 -2.0850303)
(207.54731 1.7557154e-19 -1.8627623)
(207.07679 -3.2461488e-16 -1.648071)
(206.62351 8.9587179e-17 -1.4412413)
(206.18644 0 -1.2425203)
(205.76447 1.4238622e-16 -1.0520952)
(205.35648 -1.6333212e-16 -0.87016156)
(204.96143 1.1163727e-16 -0.69696981)
(204.57849 1.3176348e-17 -0.5328902)
(204.2072 -8.6141918e-17 -0.37849806)
(203.84771 1.1567497e-17 -0.23462648)
(203.50113 2.17533e-17 -0.10236936)
(203.16961 -1.0229086e-16 0.016905626)
(202.85607 9.6194019e-17 0.12167905)
(202.56362 -7.2467794e-17 0.21140505)
(202.29398 1.3647852e-16 0.28757944)
(202.04123 -5.626438e-17 0.34903371)
(201.78523 -6.0689812e-17 0.39252764)
(201.53044 5.0130874e-17 0.4607466)
(201.26578 0 0.53442023)
(200.80479 3.2072544e-18 0.27999908)
(200.97491 -1.2163789e-17 1.3621324)
(218.10858 0 -16.95378)
(255.66655 0 -1.3016329)
(240.10236 0 -16.55014)
(248.82322 1.0691085e-16 -2.9149073)
(243.3045 -1.2412725e-16 -14.730775)
(246.00835 -2.210815e-16 -5.2035463)
(243.75817 2.1026177e-16 -12.699666)
(244.39759 -1.2454301e-17 -7.3566703)
(243.35391 5.9297912e-18 -11.103536)
(243.18026 -1.7438162e-16 -8.8752771)
(242.55295 1.7071775e-16 -10.239177)
(242.10049 1.0145269e-17 -9.6542109)
(241.55118 -1.5406025e-16 -10.003923)
(241.00793 1.3685692e-16 -9.9552181)
(240.43578 -1.3013377e-20 -10.04893)
(239.8448 -8.2085493e-18 -10.09217)
(239.23208 0 -10.143703)
(238.59818 -7.4086645e-18 -10.186822)
(237.94293 -2.1089605e-16 -10.224523)
(237.26644 2.1294858e-16 -10.255226)
(236.56889 1.2639584e-17 -10.278268)
(235.85058 -1.1983269e-17 -10.292769)
(235.11194 2.1594265e-16 -10.297875)
(234.35355 -1.7201033e-16 -10.292707)
(233.57614 1.0200063e-17 -10.276384)
(232.78061 1.9341037e-16 -10.24804)
(231.96803 -1.279418e-16 -10.206824)
(231.13963 0 -10.15193)
(230.29684 1.4782715e-16 -10.082599)
(229.44124 -1.2408381e-16 -9.9981499)
(228.5746 2.5006348e-16 -9.8979862)
(227.69882 -1.3363225e-17 -9.7816224)
(226.81596 -2.1004659e-16 -9.6486963)
(225.92819 1.7420783e-16 -9.4989878)
(225.03779 -1.8766796e-16 -9.3324301)
(224.14708 -3.0716641e-20 -9.1491245)
(223.25846 2.0978261e-16 -8.9493466)
(222.3743 -3.1659432e-16 -8.7335499)
(221.49697 9.3179707e-17 -8.5023676)
(220.62875 3.5277052e-17 -8.2566075)
(219.77186 -4.9881624e-17 -7.9972453)
(218.92837 0 -7.725409)
(218.10021 -8.8753584e-17 -7.442365)
(217.28912 1.3900545e-16 -7.1494947)
(216.49665 -2.0987833e-16 -6.8482736)
(215.72415 1.9720302e-16 -6.5402462)
(214.97273 -2.0915629e-16 -6.2269967)
(214.24329 3.9328307e-16 -5.9101236)
(213.53651 -3.0820192e-16 -5.5912138)
(212.85284 3.0905348e-16 -5.2718169)
(212.19253 -1.4505816e-16 -4.9534237)
(211.55563 1.3654287e-16 -4.6374459)
(210.94202 -9.5987552e-17 -4.3251969)
(210.35141 3.0098904e-17 -4.01788)
(209.78336 0 -3.7165731)
(209.23729 0 -3.4222243)
(208.71252 0 -3.1356468)
(208.20827 2.329794e-17 -2.857521)
(207.72368 0 -2.588397)
(207.25779 -1.639783e-16 -2.3287083)
(206.80953 1.9196377e-16 -2.0787809)
(206.37779 -1.0804803e-16 -1.8388425)
(205.96144 -1.1646903e-19 -1.6090845)
(205.55937 2.5278739e-16 -1.3896448)
(205.17043 2.9688963e-17 -1.180666)
(204.79363 -1.3864772e-16 -0.98235229)
(204.42819 5.1993422e-17 -0.79503091)
(204.07376 -1.4606713e-16 -0.61923052)
(203.73061 -4.5640484e-17 -0.45572356)
(203.39991 -6.4154127e-17 -0.30553384)
(203.08374 -6.0156577e-17 -0.16996562)
(202.78486 5.6367922e-17 -0.050344644)
(202.5062 0 0.053200435)
(202.24877 0 0.14180813)
(202.0051 -1.5527875e-17 0.21354662)
(201.76085 0 0.2723753)
(201.51717 6.8558296e-18 0.35400317)
(201.21953 5.1624651e-17 0.40338247)
(200.82679 -7.2882474e-17 0.23663019)
(200.89882 -1.8181881e-20 1.190656)
(218.91361 0 -20.0966)
(256.79998 -8.8401986e-18 -3.7479118)
(240.69908 2.6729864e-16 -19.813786)
(249.6592 -2.4972074e-16 -5.3873618)
(243.84932 2.5479575e-16 -17.896991)
(246.74504 -2.3312763e-16 -7.8109802)
(244.35541 -2.2222072e-16 -15.702491)
(245.01318 2.1036444e-16 -10.10625)
(243.90636 0 -13.958725)
(243.69648 0 -11.706765)
(243.02714 1.8027875e-16 -13.026252)
(242.52668 -1.7079142e-16 -12.478789)
(241.93257 -1.014564e-17 -12.77971)
(241.34065 2.8858722e-17 -12.738447)
(240.71972 -9.1321054e-18 -12.807338)
(240.0784 3.4636731e-17 -12.836577)
(239.41435 0 -12.867754)
(238.72807 0 -12.889629)
(238.01951 -2.3653471e-16 -12.903601)
(237.2889 2.0977432e-16 -12.908314)
(236.53659 0 -12.90292)
(235.76306 0 -12.886434)
(234.96897 -1.9085344e-16 -12.857871)
(234.15514 3.6118655e-16 -12.816246)
(233.32262 -1.7082841e-16 -12.760581)
(232.4726 -2.0236925e-17 -12.689924)
(231.6065 -3.8328783e-17 -12.603374)
(230.72594 -1.4522894e-16 -12.500096)
(229.83271 1.1991044e-16 -12.379344)
(228.92881 0 -12.240477)
(228.01639 -3.0709952e-17 -12.082987)
(227.09775 0 -11.906518)
(226.17533 0 -11.710876)
(225.25164 2.0729637e-16 -11.496056)
(224.32928 -2.1972015e-16 -11.262244)
(223.41085 2.3047637e-17 -11.009829)
(222.49897 -2.1746385e-17 -10.739411)
(221.59617 -4.1112459e-17 -10.45179)
(220.70491 -8.6206402e-20 -10.147969)
(219.82753 8.1834134e-20 -9.8291333)
(218.96619 -7.7192068e-20 -9.4966424)
(218.12287 0 -9.152001)
(217.29933 -1.2203119e-16 -8.7968418)
(216.49708 1.14594e-16 -8.432891)
(215.7174 0 -8.061941)
(214.96131 -5.0789219e-17 -7.6858234)
(214.22956 1.9088629e-16 -7.306371)
(213.52268 -2.2377408e-16 -6.9253945)
(212.84094 -2.1052414e-16 -6.5446526)
(212.18438 1.5783914e-16 -6.1658282)
(211.55286 1.113188e-16 -5.7905071)
(210.94603 -1.3895301e-16 -5.4201608)
(210.3634 -3.2576805e-17 -5.0561301)
(209.8043 -2.1401159e-16 -4.6996171)
(209.26799 1.1446179e-16 -4.3516739)
(208.7536 -1.0735259e-16 -4.0132033)
(208.26018 1.0041271e-16 -3.6849582)
(207.78673 2.3526921e-16 -3.3675471)
(207.33219 -1.7596212e-16 -3.0614415)
(206.89546 0 -2.7669932)
(206.47535 -3.8506089e-17 -2.4844454)
(206.07067 -7.207817e-17 -2.2139445)
(205.68025 1.3468481e-16 -1.9556016)
(205.30294 1.2601131e-16 -1.7094885)
(204.93764 -2.3548603e-16 -1.4756831)
(204.58341 8.2473227e-17 -1.2543346)
(204.23955 5.1411112e-17 -1.0457189)
(203.90583 9.6114123e-17 -0.85030788)
(203.58263 1.3474102e-16 -0.66880228)
(203.27121 2.4390027e-20 -0.50215636)
(202.97358 0 -0.35159343)
(202.69239 0 -0.21820264)
(202.4303 -3.4278606e-17 -0.10184094)
(202.18735 9.6157037e-17 -0.0018885229)
(201.95576 -8.9911381e-17 0.08023566)
(201.72502 -8.4143511e-17 0.15378731)
(201.48899 5.2495138e-17 0.24406404)
(201.18574 0 0.28097075)
(200.8318 4.6076914e-17 0.18811531)
(200.84004 3.3053517e-20 1.0220548)
(219.52043 0 -23.410063)
(257.73519 1.8148845e-20 -6.2706629)
(241.10207 9.0965043e-18 -23.173663)
(250.32798 2.8925417e-16 -7.9961591)
(244.25032 3.3079084e-19 -21.164078)
(247.25205 -5.0734343e-16 -10.566051)
(244.70636 -3.2123631e-19 -18.79801)
(245.39094 4.5757486e-16 -13.01593)
(244.21578 -2.1053036e-16 -16.913223)
(243.968 -1.2488294e-17 -14.686174)
(243.25549 1.1859936e-17 -15.925007)
(242.70224 -1.8009109e-16 -15.427456)
(242.05983 1.9186732e-16 -15.671488)
(241.41521 -1.8229923e-16 -15.633593)
(240.74129 3.0708726e-16 -15.675355)
(240.0452 -3.0939657e-16 -15.686153)
(239.32515 1.3789478e-16 -15.693612)
(238.58162 0 -15.690293)
(237.81478 0 -15.676459)
(237.02505 1.4687457e-17 -15.650759)
(236.21303 -2.7850184e-17 -15.612129)
(235.37948 0 -15.55942)
(234.52541 1.9997866e-16 -15.491495)
(233.652 4.6788598e-19 -15.407248)
(232.76068 -3.5788694e-16 -15.305601)
(231.8531 1.6910248e-16 -15.185545)
(230.93112 2.0007041e-17 -15.046161)
(229.99682 0 -14.886634)
(229.05248 -1.7922068e-16 -14.706288)
(228.10056 1.3514384e-16 -14.504606)
(227.14368 -2.2409431e-16 -14.281248)
(226.18457 2.1093078e-16 -14.03608)
(225.22606 -2.282722e-16 -13.769179)
(224.27105 2.1487035e-16 -13.480858)
(223.32242 7.6167418e-17 -13.171662)
(222.38301 0 -12.842373)
(221.45558 0 -12.494013)
(220.54277 4.2448829e-17 -12.127821)
(219.64704 3.9980549e-17 -11.745246)
(218.77063 -3.7640233e-17 -11.347922)
(217.91556 3.5422052e-17 -10.93764)
(217.08357 6.6828471e-17 -10.516316)
(216.27611 -6.2765426e-17 -10.085965)
(215.49435 3.5387995e-16 -9.648658)
(214.73915 -2.7681644e-16 -9.2064897)
(214.0111 5.1954618e-17 -8.7615456)
(213.31049 -4.8886166e-17 -8.3158657)
(212.63736 0 -7.8714182)
(211.99151 2.1486051e-16 -7.4300712)
(211.37251 -1.6093496e-16 -6.9935735)
(210.77977 0 -6.5635335)
(210.21251 0 -6.1414103)
(209.66984 1.3241905e-16 -5.7285)
(209.15075 -6.1893703e-17 -5.3259335)
(208.65415 0 -4.9346726)
(208.17891 -1.6262061e-16 -4.5555134)
(207.72383 1.0122788e-16 -4.1890932)
(207.2877 1.4208682e-16 -3.8358994)
(206.86931 -1.7674452e-16 -3.496282)
(206.46742 1.6520418e-16 -3.1704743)
(206.08076 -1.5410131e-16 -2.8586067)
(205.7081 6.8359286e-20 -2.560719)
(205.34823 0 -2.2768236)
(205.00003 6.2636961e-17 -2.0069111)
(204.66244 -2.9204509e-16 -1.7509856)
(204.3346 1.6333193e-16 -1.5091341)
(204.01593 0 -1.2815755)
(203.70632 -1.4200795e-16 -1.0687162)
(203.40629 8.8210866e-17 -0.87118094)
(203.11713 1.2339903e-16 -0.68984921)
(202.84086 3.413999e-20 -0.52583647)
(202.57999 -7.1406154e-17 -0.37998237)
(202.33682 9.9848492e-17 -0.25201447)
(202.1105 -1.5507896e-16 -0.14174506)
(201.89353 8.6715545e-17 -0.049409316)
(201.67753 2.6932979e-17 0.037438879)
(201.45052 5.0257766e-17 0.13352104)
(201.15323 0 0.16667666)
(200.82405 -4.3745371e-17 0.13786386)
(200.78726 2.0392854e-17 0.85920645)
(219.9157 0 -26.891803)
(258.46712 9.838137e-18 -8.896928)
(241.30764 -3.0672346e-16 -26.656566)
(250.81459 2.5048884e-16 -10.746995)
(244.45288 2.5726995e-16 -24.529928)
(247.52159 -5.0181113e-16 -13.47448)
(244.87118 2.3081455e-16 -21.975841)
(245.52056 2.3367873e-16 -16.085665)
(244.30419 -2.2146383e-16 -19.950805)
(243.98632 3.9419924e-17 -17.798481)
(243.22995 0 -18.922033)
(242.61844 0 -18.48385)
(241.92274 -2.2418311e-17 -18.667668)
(241.21954 -1.7020475e-16 -18.629233)
(240.48625 1.4085843e-16 -18.643374)
(239.72868 1.9108054e-17 -18.632387)
(238.9457 -3.6220644e-17 -18.613271)
(238.13795 3.0901765e-16 -18.580957)
(237.3059 -2.2708615e-16 -18.534911)
(236.45032 2.4646825e-16 -18.473675)
(235.57217 -2.0367596e-16 -18.39598)
(234.67265 2.7614338e-17 -18.300527)
(233.7532 1.5687736e-16 -18.186054)
(232.81551 -1.9731441e-16 -18.051368)
(231.86153 0 -17.895349)
(230.89344 0 -17.716991)
(229.91367 0 -17.515431)
(228.92485 -1.9760049e-16 -17.28997)
(227.92983 1.8614096e-16 -17.040101)
(226.9316 -3.5269295e-17 -16.765538)
(225.93327 0 -16.466238)
(224.93804 -2.8271529e-16 -16.142412)
(223.94914 2.3629259e-16 -15.794543)
(222.96977 -5.5886741e-17 -15.423387)
(222.00305 1.5804279e-16 -15.029978)
(221.05198 -4.9117228e-17 -14.61561)
(220.11935 -1.8628535e-16 -14.181828)
(219.20775 2.1974758e-16 -13.730403)
(218.3195 -1.6497473e-16 -13.263301)
(217.45661 7.7815171e-17 -12.782651)
(216.62075 -7.3015357e-17 -12.290708)
(215.81328 1.3725527e-16 -11.789808)
(215.03519 -6.4313207e-17 -11.282335)
(214.28713 -2.4204917e-16 -10.770674)
(213.56944 5.1039186e-16 -10.257171)
(212.88212 -2.1257127e-16 -9.7441052)
(212.22492 -1.4979319e-16 -9.2336494)
(211.59731 9.3132879e-17 -8.727847)
(210.99854 8.7605304e-17 -8.22859)
(210.42769 -1.6388423e-16 -7.7376026)
(209.88367 1.5312149e-16 -7.2564293)
(209.36529 0 -6.7864304)
(208.87125 1.3402225e-16 -6.3287773)
(208.4002 -1.8772292e-16 -5.8844551)
(207.95077 5.8500598e-17 -5.4542673)
(207.52157 5.4519197e-17 -5.0388432)
(207.11119 0 -4.6386518)
(206.71827 0 -4.2540142)
(206.34146 0 -3.8851211)
(205.97944 0 -3.5320561)
(205.6309 0 -3.1948106)
(205.29458 -7.163e-17 -2.8732997)
(204.96931 0 -2.5674227)
(204.65399 -5.5896698e-20 -2.2770778)
(204.34766 2.313025e-16 -2.0021895)
(204.04955 -2.1517094e-16 -1.7427771)
(203.75923 -1.0016317e-16 -1.4989962)
(203.47672 -1.8623298e-16 -1.271183)
(203.20267 2.5958513e-16 -1.0598847)
(202.93847 4.6641745e-20 -0.86590312)
(202.6861 7.4754883e-17 -0.69022221)
(202.44796 0 -0.53344706)
(202.22589 0 -0.39528582)
(202.01827 0 -0.2758027)
(201.81816 -1.1149563e-16 -0.17378584)
(201.61831 0 -0.075290162)
(201.40237 -9.6285167e-17 0.025072253)
(201.11743 1.34203e-16 0.060013417)
(200.80878 8.3154733e-17 0.088837843)
(200.73517 -1.9307758e-17 0.70412967)
(220.10637 0 -30.549118)
(259.00368 0 -11.631569)
(241.32279 3.227412e-16 -30.271079)
(251.12387 1.936052e-17 -13.655108)
(244.47139 -2.7009689e-16 -28.006257)
(247.62444 0 -16.559506)
(244.8263 1.6182887e-17 -25.230757)
(245.52546 -3.0676744e-17 -19.306765)
(244.13817 0 -23.051673)
(243.75533 1.9336688e-16 -21.02859)
(242.94756 -4.1863557e-16 -22.015335)
(242.26703 1.9823104e-16 -21.64443)
(241.50808 2.3528451e-17 -21.770088)
(240.73627 0 -21.726614)
(239.93364 2.1110724e-17 -21.712225)
(239.10487 -3.4053027e-16 -21.675046)
(238.2495 7.5079437e-17 -21.624756)
(237.36843 2.5095664e-16 -21.5577)
(236.46256 2.3831874e-16 -21.472855)
(235.53308 -2.5706111e-16 -21.368653)
(234.58147 0 -21.243663)
(233.60945 -2.8841631e-16 -21.096484)
(232.61906 2.4488493e-16 -20.925779)
(231.6126 -2.0639776e-16 -20.730336)
(230.59266 1.9453586e-16 -20.509076)
(229.56209 -1.8435076e-16 -20.26109)
(228.52397 3.4776786e-16 -19.985687)
(227.4816 -1.6411067e-16 -19.682404)
(226.43841 1.5519995e-16 -19.351051)
(225.39799 -2.9259787e-16 -18.991726)
(224.36395 1.3771386e-16 -18.604833)
(223.3399 1.3005457e-16 -18.191098)
(222.32941 -2.4537182e-16 -17.751561)
(221.33589 5.6974019e-17 -17.287577)
(220.36257 -5.6794595e-19 -16.800804)
(219.41243 2.5527156e-16 -16.29316)
(218.48815 0 -15.766817)
(217.59207 1.9290124e-19 -15.224144)
(216.72614 0 -14.667671)
(215.89192 -7.9674312e-17 -14.100042)
(215.09058 -1.4973026e-16 -13.523965)
(214.32287 7.0300557e-17 -12.942166)
(213.58914 0 -12.357341)
(212.88939 -6.1945896e-17 -11.772113)
(212.22326 2.8993656e-16 -11.188994)
(211.59011 -3.2550731e-16 -10.610354)
(210.98902 -3.049901e-16 -10.038391)
(210.41884 2.8476582e-16 -9.4751152)
(209.87828 -1.7770986e-16 -8.9223305)
(209.36587 0 -8.3816315)
(208.88006 0 -7.8543988)
(208.41926 7.2528424e-17 -7.3418014)
(207.98181 6.7686101e-17 -6.8448032)
(207.56607 1.2614284e-16 -6.3641707)
(207.17041 -5.8822204e-17 -5.9004846)
(206.79325 -1.0957169e-16 -5.4541541)
(206.43304 -2.0433009e-16 -5.0254344)
(206.08831 -9.5325619e-17 -4.6144442)
(205.75763 1.769787e-16 -4.2211858)
(205.43965 0 -3.8455706)
(205.13307 -7.6657515e-17 -3.4874335)
(204.83663 -1.4248936e-16 -3.1465535)
(204.54924 1.3238926e-16 -2.8227102)
(204.26987 6.1404687e-17 -2.5157031)
(203.99769 5.711221e-17 -2.2253744)
(203.73205 0 -1.9516722)
(203.47266 1.9688772e-16 -1.6946845)
(203.21972 1.8269095e-16 -1.4546747)
(202.97402 -2.5420899e-16 -1.2321148)
(202.737 7.861795e-17 -1.0277254)
(202.51067 -7.286399e-17 -0.84234495)
(202.2973 -4.3580142e-20 -0.67638483)
(202.0982 2.5036735e-16 -0.5296041)
(201.91115 -2.3199089e-16 -0.40207744)
(201.72992 5.3697111e-17 -0.29107885)
(201.54783 1.4932569e-16 -0.18260596)
(201.34476 -4.6116146e-17 -0.07899224)
(201.07492 -4.2711614e-17 -0.039384299)
(200.79116 0 0.039271933)
(200.67828 3.6618887e-17 0.55939888)
(220.10245 3.924166e-16 -34.391631)
(259.34844 5.3899195e-19 -14.481377)
(241.12429 -3.5977502e-16 -34.031278)
(251.24812 0 -16.723767)
(244.22983 0 -31.554952)
(247.37143 -2.6844372e-16 -19.814269)
(244.48557 2.7156153e-16 -28.540139)
(245.00714 6.4407382e-17 -22.688932)
(243.71428 -2.4445585e-16 -26.255131)
(243.24843 2.3122584e-16 -24.40557)
(242.37894 -2.4712111e-16 -25.233553)
(241.61669 2.0770851e-16 -24.925194)
(240.78252 -4.92745e-17 -24.991843)
(239.93058 -4.672624e-17 -24.93355)
(239.04725 -1.7705651e-16 -24.885429)
(238.13636 1.6723549e-16 -24.814191)
(237.19814 -3.5712326e-16 -24.724684)
(236.23389 6.0030061e-16 -24.613952)
(235.24504 -2.8363344e-16 -24.480582)
(234.23338 -2.6910857e-16 -24.322871)
(233.20104 2.5377548e-16 -24.139259)
(232.15043 -3.0220123e-17 -23.92828)
(231.08434 -2.2747545e-16 -23.688599)
(230.00585 2.1428639e-16 -23.41908)
(228.91832 2.5383217e-16 -23.118798)
(227.82538 -1.4313132e-16 -22.78709)
(226.73087 0 -22.42359)
(225.6388 2.5595097e-16 -22.028258)
(224.55325 -3.2147953e-16 -21.601408)
(223.47834 1.1311748e-16 -21.143716)
(222.41813 -2.8596957e-16 -20.656238)
(221.37656 2.0148147e-16 -20.140397)
(220.35736 -6.3481994e-17 -19.597972)
(219.364 2.3855892e-16 -19.031067)
(218.3996 -2.2377546e-16 -18.442091)
(217.46688 -2.1089377e-16 -17.833694)
(216.56814 1.9766746e-16 -17.208732)
(215.7052 -4.636036e-17 -16.570211)
(214.87942 0 -15.921221)
(214.09167 8.2033754e-17 -15.264885)
(213.34233 -7.6567436e-17 -14.604305)
(212.63136 0 -13.942501)
(211.95831 1.3481768e-16 -13.282375)
(211.32236 -6.3066047e-17 -12.626663)
(210.72237 -1.7682979e-16 -11.977905)
(210.15697 5.5157046e-16 -11.338423)
(209.62453 -2.0651267e-16 -10.710303)
(209.12331 9.6318503e-17 -10.095385)
(208.65143 -2.7007485e-16 -9.4952621)
(208.20695 -1.8319471e-19 -8.9112834)
(207.7879 1.5659149e-16 -8.3445627)
(207.39234 -1.4608115e-16 -7.7959887)
(207.01834 -6.7982736e-17 -7.26624)
(206.66401 -6.3325058e-17 -6.7558004)
(206.32758 -1.1824295e-16 -6.2649754)
(206.00733 2.1958572e-16 -5.7939123)
(205.70164 0 -5.3426201)
(205.40898 9.489248e-17 -4.9109915)
(205.12794 -3.5310337e-16 -4.4988233)
(204.85717 2.4574985e-16 -4.1058435)
(204.59542 7.6053461e-17 -3.7317233)
(204.34153 1.4128888e-16 -3.3761029)
(204.09447 1.3128026e-16 -3.038643)
(203.85336 -1.2146856e-16 -2.7190442)
(203.61749 -1.1256156e-16 -2.4170674)
(203.38637 -3.1311751e-16 -2.1325887)
(203.15989 -4.0455084e-20 -1.8656263)
(202.93841 -8.9479392e-17 -1.6163712)
(202.72286 0 -1.3852246)
(202.51478 -2.3000482e-16 -1.1728223)
(202.31621 7.0918974e-17 -0.97985699)
(202.12922 0 -0.80660734)
(201.95461 1.2129573e-16 -0.65290203)
(201.78975 0 -0.51854095)
(201.62919 1.035764e-16 -0.39939714)
(201.46604 -1.4350316e-16 -0.28271159)
(201.27722 1.325786e-16 -0.17630666)
(201.02525 -8.1638691e-17 -0.12754474)
(200.77275 7.5389323e-17 -0.011426101)
(200.61659 0 0.42653167)
(219.89024 -4.1229411e-16 -38.426923)
(259.48899 3.6443934e-16 -17.464549)
(240.67997 -3.3380348e-16 -37.965946)
(251.1121 3.3197811e-16 -19.966076)
(243.70881 3.1787631e-16 -35.165214)
(246.90569 -1.8075132e-17 -23.255064)
(243.91011 -2.8462879e-16 -31.933083)
(244.37474 -2.7018748e-16 -26.262653)
(242.99269 2.8758503e-16 -29.577332)
(242.42097 0 -27.928381)
(241.47952 2.8694112e-17 -28.582264)
(240.62323 0 -28.32443)
(239.70143 -1.2905456e-16 -28.331542)
(238.75731 2.4367606e-16 -28.246837)
(237.78132 0 -28.157185)
(236.77686 0 -28.041618)
(235.74492 0 -27.901957)
(234.68745 3.9240993e-17 -27.735527)
(233.6066 0 -27.540627)
(232.50499 -2.454142e-16 -27.315464)
(231.38556 3.3065872e-16 -27.058419)
(230.25167 1.2511123e-16 -26.768073)
(229.10702 1.7739624e-16 -26.443221)
(227.95564 -2.7864279e-16 -26.08296)
(226.80182 -5.2507567e-17 -25.686713)
(225.65008 -2.4847968e-16 -25.25427)
(224.50506 1.870145e-16 -24.785827)
(223.37149 -2.2087261e-16 -24.282012)
(222.25404 8.2642993e-17 -23.743885)
(221.15728 7.8128931e-17 -23.172952)
(220.08554 0 -22.571143)
(219.04287 2.7792621e-16 -21.940781)
(218.03295 -2.6103077e-16 -21.284555)
(217.05897 0 -20.605461)
(216.12363 -2.3075165e-16 -19.906748)
(215.22909 2.1613585e-16 -19.191853)
(214.37691 -1.0185016e-16 -18.464325)
(213.5681 1.9068605e-16 -17.727768)
(212.80308 -2.6792983e-16 -16.985761)
(212.08176 1.2679735e-19 -16.241795)
(211.40354 -1.5654264e-16 -15.499224)
(210.7674 -7.3260545e-17 -14.761208)
(210.17192 -1.3749528e-16 -14.030676)
(209.61539 2.5632184e-16 -13.3103)
(209.09586 -1.1961314e-16 -12.602472)
(208.61117 0 -11.909295)
(208.15905 -3.8004305e-19 -11.232581)
(207.73718 9.7305038e-17 -10.573858)
(207.3432 0 -9.9343786)
(206.97475 8.4635256e-17 -9.3151358)
(206.62956 7.913595e-17 -8.7168834)
(206.30543 -7.3476839e-17 -8.1401542)
(206.00023 2.7356242e-16 -7.5852806)
(205.71197 -2.5431344e-16 -7.0524162)
(205.43878 -1.1827808e-16 -6.5415566)
(205.17891 -1.0987996e-16 -6.0525627)
(204.93076 1.020283e-16 -5.5851825)
(204.69282 1.8926102e-16 -5.1390735)
(204.46373 -3.5107116e-16 -4.7138246)
(204.24223 4.0686776e-16 -4.3089815)
(204.02716 -1.507563e-16 -3.9240555)
(203.81749 1.39741e-16 -3.5585546)
(203.61233 -1.2935587e-16 -3.2120295)
(203.41094 2.3957003e-16 -2.8840866)
(203.21277 -3.3257031e-16 -2.5744112)
(203.01752 2.0501049e-16 -2.282809)
(202.82526 -8.2341477e-20 -2.0092304)
(202.63651 8.7625404e-17 -1.7537983)
(202.45235 0 -1.5168467)
(202.27444 0 -1.2989223)
(202.10482 0 -1.1005901)
(201.94539 -1.2729682e-16 -0.92205691)
(201.7964 1.5764285e-20 -0.76317163)
(201.65507 0 -0.6232065)
(201.51651 0 -0.49701909)
(201.37276 9.1983415e-17 -0.37412843)
(201.19957 -1.6947137e-16 -0.2649044)
(200.97048 0 -0.20074179)
(200.7473 0 -0.060193979)
(200.54923 -1.3202116e-16 0.30529303)
(219.43554 2.7824441e-17 -42.663547)
(259.38682 -7.8911877e-16 -20.600779)
(239.96131 3.4926567e-16 -42.040817)
(250.45069 -2.1823988e-17 -23.392069)
(242.87817 3.7471304e-16 -38.897677)
(246.10596 -3.5338329e-16 -26.919464)
(243.02308 0 -35.44251)
(243.35737 -3.1829841e-16 -30.027243)
(241.92495 2.339963e-16 -33.013126)
(241.22973 2.222403e-16 -31.589586)
(240.20304 -2.3989427e-16 -32.06394)
(239.2388 0 -31.837857)
(238.21513 1.9081711e-19 -31.783233)
(237.16543 0 -31.658291)
(236.08377 3.8637645e-16 -31.515716)
(234.97356 -7.2989614e-16 -31.342171)
(233.83678 3.4458659e-16 -31.137657)
(232.67621 -4.0703899e-17 -30.899604)
(231.49506 -3.8676021e-17 -30.626143)
(230.29697 3.6756395e-17 -30.315479)
(229.08604 -6.8642468e-17 -29.966092)
(227.86675 -3.2515782e-16 -29.576768)
(226.64396 3.0603238e-16 -29.146667)
(225.4228 5.7689634e-17 -28.675377)
(224.2086 -2.7337644e-16 -28.162943)
(223.0068 -6.9053134e-19 -27.609929)
(221.82282 2.9034762e-16 -27.017406)
(220.66199 -1.8223119e-16 -26.386976)
(219.52942 -6.0828172e-19 -25.720752)
(218.42985 0 -25.02133)
(217.36762 0 -24.291745)
(216.34652 -7.1696401e-17 -23.535413)
(215.36975 1.3422716e-16 -22.75607)
(214.43983 0 -21.957678)
(213.55861 -1.1862956e-16 -21.144354)
(212.72724 2.2197387e-16 -20.32028)
(211.94616 -1.0399309e-16 -19.489614)
(211.21519 -1.9488159e-16 -18.656416)