/*--------------------------------*- C++ -*----------------------------------*\
  =========                 |
  \\      /  F ield         | OpenFOAM: The Open Source CFD Toolbox
   \\    /   O peration     | Website:  https://openfoam.org
    \\  /    A nd           | Version:  12
     \\/     M anipulation  |
\*---------------------------------------------------------------------------*/
FoamFile
{
    format      ascii;
    class       volScalarField;
    location    "1200";
    object      alphat;
}
// * * * * * * * * * * * * * * * * * * * * * * * * * * * * * * * * * * * * * //

dimensions      [1 -1 -1 0 0 0 0];

internalField   nonuniform List<scalar> 
16200
(
0.0004811561953
0.001646003568
0.002738640392
0.003589983404
0.003848495908
0.003388940925
0.002495718022
0.001366868412
0.0007059756053
0.0001821266193
5.705436592e-06
2.619891132e-06
2.374927351e-06
2.336487537e-06
1.856949386e-06
1.600543932e-06
1.397947787e-06
1.255118135e-06
1.162567995e-06
1.103036979e-06
1.06894363e-06
1.057492592e-06
1.065927252e-06
1.092580123e-06
1.137112556e-06
1.200769182e-06
1.286795229e-06
1.401061096e-06
1.553371247e-06
1.760206255e-06
2.049894822e-06
2.472214629e-06
3.116558882e-06
4.149347339e-06
5.898211746e-06
9.043056077e-06
1.505033923e-05
2.715505911e-05
5.259270041e-05
0.0001077342039
0.0002300343701
0.0005060336584
0.001137320261
0.001165254481
0.001165815996
0.001165489948
0.001164492311
0.001164185646
0.001164197244
0.001164309323
0.001164437067
0.001164552422
0.001164650468
0.001164735296
0.001164814212
0.001164896764
0.001164993374
0.001165121433
0.001165294176
0.00116556618
0.0004696557839
0.001592548627
0.002620342028
0.003368437885
0.003463031223
0.002890243029
0.002018550871
0.0009991127192
0.0005521169804
4.013568737e-05
2.649815806e-06
2.181299769e-06
1.987768057e-06
1.950435963e-06
1.652017704e-06
1.420612107e-06
1.237423169e-06
1.108382085e-06
1.026384522e-06
9.74857588e-07
9.46542193e-07
9.385785333e-07
9.482382674e-07
9.737915762e-07
1.014806962e-06
1.072318737e-06
1.149203246e-06
1.25078318e-06
1.386127538e-06
1.570614507e-06
1.830478344e-06
2.211122978e-06
2.793147697e-06
3.725683447e-06
5.301543049e-06
8.127800246e-06
1.351393766e-05
2.43495621e-05
4.709790881e-05
9.63807671e-05
0.0002056507302
0.0004522200527
0.001016263997
0.001165086464
0.001165687538
0.001165482258
0.001164493413
0.001164182013
0.001164194068
0.001164308742
0.001164439569
0.00116455773
0.001164658025
0.001164744433
0.001164824346
0.001164907109
0.001165003528
0.001165130925
0.001165303475
0.00116557931
0.0004599767582
0.001542196212
0.002506566723
0.003148089393
0.003088329623
0.0024318701
0.001541530359
0.000726067521
0.0003634424931
1.380589694e-05
2.059244261e-06
1.825481894e-06
1.668968014e-06
1.634016019e-06
1.462498249e-06
1.25482252e-06
1.090395175e-06
9.745506623e-07
9.022730114e-07
8.577789296e-07
8.341381545e-07
8.284010789e-07
8.378584881e-07
8.607476653e-07
8.965963266e-07
9.463364567e-07
1.012692956e-06
1.100851067e-06
1.21975074e-06
1.384323029e-06
1.619235112e-06
1.965967455e-06
2.497138392e-06
3.346650106e-06
4.777284356e-06
7.333492558e-06
1.218853554e-05
2.192757198e-05
4.23199573e-05
8.638264519e-05
0.0001838166157
0.0004031016895
0.0009035161564
0.001165016249
0.001165610721
0.001165482884
0.001164509738
0.00116419192
0.001164201132
0.001164315283
0.001164446748
0.00116456596
0.001164667307
0.00116475454
0.00116483497
0.001164917769
0.001165013896
0.001165140695
0.001165313106
0.001165592803
0.0004530386385
0.00149567198
0.00239539408
0.00290144804
0.002714176356
0.002022004248
0.001092185878
0.0005361919769
0.0001755874297
4.813116459e-06
1.718692702e-06
1.545102153e-06
1.417216212e-06
1.384436938e-06
1.296808393e-06
1.109331279e-06
9.6105029e-07
8.566594681e-07
7.926695468e-07
7.540129371e-07
7.340543847e-07
7.297701193e-07
7.385050039e-07
7.58575251e-07
7.896193775e-07
8.32704435e-07
8.907582787e-07
9.692791763e-07
1.077495252e-06
1.230171797e-06
1.450717347e-06
1.777527765e-06
2.27739105e-06
3.073758208e-06
4.409565017e-06
6.788587048e-06
1.129633246e-05
2.032300422e-05
3.91957054e-05
7.991181664e-05
0.0001697939294
0.0003717294017
0.0008317763277
0.001165058114
0.00116560148
0.001165490316
0.001164543812
0.001164219062
0.001164221984
0.00116433189
0.001164460866
0.001164578764
0.001164679479
0.001164766405
0.001164846613
0.001164929056
0.001165024648
0.001165150798
0.00116532295
0.001165605935
0.0004473170435
0.001452672327
0.002288702562
0.002661741124
0.002354946709
0.001666554825
0.0007861188617
0.0004060798375
4.175135912e-05
1.981443932e-06
1.452130222e-06
1.311334999e-06
1.206916357e-06
1.176960453e-06
1.143601311e-06
9.753401528e-07
8.42522563e-07
7.491545674e-07
6.929449981e-07
6.596167161e-07
6.429191249e-07
6.398485035e-07
6.479045662e-07
6.656215738e-07
6.929082012e-07
7.31173072e-07
7.837709393e-07
8.566517165e-07
9.592884945e-07
1.106131333e-06
1.319348932e-06
1.634749593e-06
2.114534296e-06
2.874188926e-06
4.141784606e-06
6.390698649e-06
1.064025482e-05
1.913157568e-05
3.684855579e-05
7.49860342e-05
0.0001589699369
0.0003471744605
0.0007748730623
0.001165182077
0.001165644464
0.001165508836
0.001164591077
0.00116425896
0.001164253016
0.00116435589
0.001164480036
0.001164594853
0.001164693686
0.001164779471
0.001164858934
0.001164940754
0.001165035694
0.001165161205
0.001165333106
0.001165619145
0.0004422555852
0.001412731874
0.002184667257
0.002423370147
0.002009172373
0.001298528636
0.0005816727067
0.0002786733481
1.642967053e-05
1.499967409e-06
1.231257455e-06
1.11876863e-06
1.032863747e-06
1.005138061e-06
1.003889072e-06
8.530964594e-07
7.345596317e-07
6.515982034e-07
6.027055446e-07
5.744355097e-07
5.609570271e-07
5.593466058e-07
5.67334111e-07
5.837829785e-07
6.089949957e-07
6.448407537e-07
6.951593803e-07
7.662875878e-07
8.678015936e-07
1.013803292e-06
1.225520059e-06
1.536962667e-06
2.007200848e-06
2.746397566e-06
3.973001527e-06
6.141032804e-06
1.022746741e-05
1.837662859e-05
3.534558739e-05
7.178935824e-05
0.0001518371004
0.0003307316615
0.0007361651495
0.00116537229
0.001165732774
0.001165552524
0.001164648102
0.001164309388
0.00116429288
0.001164386512
0.00116450384
0.001164614018
0.001164709838
0.00116479371
0.001164871939
0.001164952876
0.001165047048
0.001165171923
0.001165343564
0.001165632349
0.0004371784693
0.00137458877
0.00208097022
0.002175170473
0.001683658855
0.0009503137348
0.0004372028612
0.0001646303899
5.085293536e-06
1.242327564e-06
1.047459725e-06
9.54399259e-07
8.835109502e-07
8.583175824e-07
8.742686247e-07
7.404489258e-07
6.35926177e-07
5.634472404e-07
5.21939099e-07
4.988578379e-07
4.888460942e-07
4.891508829e-07
4.978319325e-07
5.141792251e-07
5.389541288e-07
5.742639871e-07
6.248403785e-07
6.970364794e-07
8.004245241e-07
9.488172006e-07
1.16342546e-06
1.476199662e-06
1.94457333e-06
2.675255008e-06
3.88077148e-06
6.003630414e-06
9.995351715e-06
1.79401624e-05
3.444914898e-05
6.981824795e-05
0.0001472892357
0.0003199098208
0.0007099462618
0.001165608189
0.001165853348
0.001165613534
0.001164711767
0.001164367541
0.00116433946
0.001164422291
0.001164531318
0.001164635654
0.001164727572
0.001164808916
0.00116488552
0.001164965366
0.001165058694
0.001165182951
0.001165354348
0.001165645619
0.0004313869602
0.001336347127
0.001973814492
0.00192434277
0.001392671519
0.000687169266
0.0003391122551
6.942028576e-05
2.420003212e-06
1.047104332e-06
8.914344668e-07
8.144603324e-07
7.562837484e-07
7.339322569e-07
7.572698101e-07
6.395845188e-07
5.484390486e-07
4.861249369e-07
4.517560958e-07
4.337381177e-07
4.272395616e-07
4.297579925e-07
4.397442563e-07
4.569451087e-07
4.823563997e-07
5.192194694e-07
5.718792869e-07
6.471035547e-07
7.545008776e-07
9.077950983e-07
1.127346034e-06
1.446271624e-06
1.919257172e-06
2.651623579e-06
3.853122569e-06
5.961520974e-06
9.917598864e-06
1.777764249e-05
3.407788709e-05
6.891488502e-05
0.0001450061841
0.0003140382475
0.000694779513
0.001165872943
0.001165995371
0.001165685252
0.001164779283
0.001164430976
0.001164390941
0.001164461986
0.001164561667
0.001164659271
0.0011647466
0.001164824931
0.0011648996
0.00116497819
0.001165070625
0.001165194289
0.001165365463
0.00116565896
0.0004249231636
0.001295899077
0.001839758628
0.001671560724
0.001114008023
0.000514222077
0.0002580176164
3.035752814e-05
1.431096736e-06
8.878891279e-07
7.633804397e-07
6.986377921e-07
6.50482212e-07
6.306409456e-07
6.548032952e-07
5.51588702e-07
4.725881467e-07
4.19717794e-07
3.920119125e-07
3.787985275e-07
3.757590316e-07
3.806673738e-07
3.921340244e-07
4.108881609e-07
4.383166074e-07
4.775543786e-07
5.334699948e-07
6.129979322e-07
7.258384378e-07
8.85796999e-07
1.113299183e-06
1.44122191e-06
1.924056612e-06
2.666351923e-06
3.877588008e-06
5.996240303e-06
9.96423471e-06
1.783584856e-05
3.412968706e-05
6.887112041e-05
0.0001445445831
0.0003121430596
0.0006884798285
0.001166151893
0.001166149151
0.001165761518
0.001164848506
0.001164497563
0.001164445638
0.001164504396
0.001164594088
0.00116468436
0.00116476662
0.001164841587
0.001164914094
0.001164991311
0.00116508283
0.001165205938
0.001165376915
0.001165672396
0.0004176147527
0.001253077428
0.001690602728
0.001423350003
0.0008249696384
0.0003896332734
0.0001839423282
1.766513028e-05
1.122215922e-06
7.565010151e-07
6.559482627e-07
6.012715556e-07
5.612185342e-07
5.438321461e-07
5.651075844e-07
4.750743962e-07
4.072602673e-07
3.632678886e-07
3.418358149e-07
3.331790005e-07
3.334686698e-07
3.405190651e-07
3.542177092e-07
3.749411901e-07
4.047147863e-07
4.470402119e-07
5.070236446e-07
5.917614658e-07
7.111205706e-07
8.791422736e-07
1.11655669e-06
1.456380547e-06
1.953453876e-06
2.712597779e-06
3.945135984e-06
6.094897566e-06
1.011512716e-05
1.808030363e-05
3.454040179e-05
6.955936886e-05
0.000145637714
0.0003136464631
0.0006897640139
0.001166433525
0.001166306918
0.001165837224
0.001164917764
0.001164565552
0.001164502126
0.001164548486
0.001164627879
0.001164710475
0.001164787361
0.001164858733
0.001164928927
0.001165004696
0.001165095299
0.001165217897
0.001165388707
0.001165685939
0.0004092088301
0.00120735785
0.001531276692
0.001186746299
0.0006008641436
0.0002994693949
0.0001218251554
1.209592485e-05
9.230868026e-07
6.473613379e-07
5.658085386e-07
5.192640728e-07
4.858108663e-07
4.707553608e-07
4.872403381e-07
4.091829823e-07
3.51645531e-07
3.159208488e-07
3.002765288e-07
2.957886777e-07
2.98818287e-07
3.084746387e-07
3.242294478e-07
3.471511779e-07
3.796912738e-07
4.256361147e-07
4.90285402e-07
5.80914643e-07
7.076355228e-07
8.848547202e-07
1.133796124e-06
1.487929545e-06
2.002881701e-06
2.784632314e-06
4.048148909e-06
6.246590022e-06
1.035324438e-05
1.848183201e-05
3.525565503e-05
7.08711256e-05
0.0001480577499
0.0003180523783
0.0006975240722
0.001166709071
0.001166462623
0.001165908249
0.001164985845
0.001164633558
0.001164559231
0.001164593379
0.001164662434
0.00116473722
0.001164808581
0.00116487623
0.001164944027
0.001165018314
0.001165108025
0.001165230166
0.001165400843
0.001165699602
0.0003992464221
0.001157273788
0.001367056878
0.0009509899368
0.0004559699861
0.0002365118112
5.880770048e-05
6.715389285e-06
7.474046615e-07
5.562969586e-07
4.895998481e-07
4.49949354e-07
4.219821129e-07
4.092156955e-07
4.201934332e-07
3.52925594e-07
3.047248012e-07
2.765588566e-07
2.660989344e-07
2.649841144e-07
2.710054911e-07
2.828546935e-07
3.006708619e-07
3.260219756e-07
3.616882612e-07
4.116705862e-07
4.814421318e-07
5.784906411e-07
7.132463869e-07
9.005876215e-07
1.162383751e-06
1.532819398e-06
2.068679787e-06
2.877877643e-06
4.180607654e-06
6.442862911e-06
1.066567529e-05
1.901880463e-05
3.623588706e-05
7.272856612e-05
0.0001516428732
0.0003250105718
0.0007109801763
0.001166972263
0.001166611831
0.001165971457
0.001165051891
0.00116470053
0.001164616028
0.001164638365
0.00116469725
0.001164764262
0.001164830074
0.001164893962
0.001164959335
0.001165032141
0.001165121002
0.001165242744
0.001165413321
0.001165713394
0.0003874585233
0.001100398384
0.001196532002
0.0007225289407
0.0003589012683
0.0001856141874
3.041962111e-05
3.490103615e-06
6.095015856e-07
4.799746552e-07
4.253733673e-07
3.91464114e-07
3.68022098e-07
3.573117716e-07
3.626201432e-07
3.049575049e-07
2.651894812e-07
2.438723348e-07
2.379851257e-07
2.400310966e-07
2.485354305e-07
2.62404461e-07
2.823710967e-07
3.103926036e-07
3.494895214e-07
4.038316712e-07
4.790686083e-07
5.829403831e-07
7.262596007e-07
9.244612638e-07
1.200183481e-06
1.588546743e-06
2.147820118e-06
2.988538552e-06
4.337546437e-06
6.676820106e-06
1.104204676e-05
1.967410599e-05
3.745019033e-05
7.507146026e-05
0.0001562686405
0.0003342526854
0.0007295357178
0.00116721888
0.001166751464
0.001166024581
0.001165115327
0.001164765696
0.00116467181
0.001164682885
0.001164731923
0.001164791328
0.001164851668
0.001164911827
0.001164974798
0.001165046154
0.001165134223
0.001165255628
0.001165426141
0.001165727322
0.0003742766726
0.001035556421
0.001023060074
0.0005466407425
0.000279583246
0.000138979164
1.846659308e-05
1.914515954e-06
5.034024052e-07
4.143686487e-07
3.710085359e-07
3.417298978e-07
3.218427928e-07
3.128759919e-07
3.127840712e-07
2.638147989e-07
2.317943062e-07
2.167131814e-07
2.144725158e-07
2.197418446e-07
2.303793353e-07
2.462204769e-07
2.684763638e-07
2.993881757e-07
3.421509197e-07
4.010841405e-07
4.820310792e-07
5.930225781e-07
7.453050072e-07
9.549384268e-07
1.245517209e-06
1.65303365e-06
2.237787483e-06
3.113477873e-06
4.514908498e-06
6.942932452e-06
1.147423353e-05
2.043464761e-05
3.887542797e-05
7.785547797e-05
0.0001618445779
0.0003455851727
0.000752762389
0.001167446334
0.001166879545
0.001166066088
0.001165175789
0.00116482852
0.001164726062
0.001164726518
0.00116476614
0.001164818202
0.001164873221
0.001164929742
0.001164990375
0.001165060336
0.001165147685
0.001165268817
0.001165439296
0.001165741391
0.0003607438566
0.0009648487553
0.000834090675
0.0004241795076
0.0002285925942
0.0001019063814
1.297713626e-05
1.10795936e-06
4.200785944e-07
3.574933262e-07
3.22438686e-07
2.98195696e-07
2.813831631e-07
2.74128305e-07
2.693960326e-07
2.285218536e-07
2.037171337e-07
1.942700231e-07
1.955430243e-07
2.032638236e-07
2.158271677e-07
2.336687233e-07
2.583561809e-07
2.923278968e-07
3.389150704e-07
4.025870397e-07
4.89402478e-07
6.077148953e-07
7.692445967e-07
9.907327699e-07
1.296713222e-06
1.724532451e-06
2.336472605e-06
3.250082644e-06
4.709356083e-06
7.23673474e-06
1.19558272e-05
2.129036472e-05
4.049422225e-05
8.104796824e-05
0.0001683050224
0.000358868963
0.0007803543028
0.001167653281
0.001166994948
0.001166095043
0.001165233074
0.001164888651
0.001164778424
0.001164768957
0.001164799665
0.001164844715
0.001164894625
0.001164947643
0.00116500603
0.001165074673
0.001165161384
0.001165282306
0.001165452782
0.001165755603
0.0003474293564
0.0008864347634
0.0006813099656
0.0003523700729
0.0001949993614
5.77937187e-05
8.773805429e-06
6.979407865e-07
3.542740731e-07
3.08277917e-07
2.79888081e-07
2.596603612e-07
2.461164041e-07
2.404910685e-07
2.319630315e-07
1.985735886e-07
1.804076867e-07
1.755565028e-07
1.802119905e-07
1.899876345e-07
2.043732417e-07
2.242739226e-07
2.515045738e-07
2.886427337e-07
3.391409869e-07
4.076277094e-07
5.003963922e-07
6.261477465e-07
7.971080605e-07
1.030747636e-06
1.352623906e-06
1.801568032e-06
2.442110168e-06
3.396189816e-06
4.918168975e-06
7.554668568e-06
1.248186696e-05
2.22337177e-05
4.229397103e-05
8.462591895e-05
0.0001756047278
0.0003740097388
0.0008121060848
0.001167839285
0.001167097188
0.00116611681
0.001165287098
0.001164945887
0.001164828665
0.001164809991
0.001164832328
0.001164870742
0.001164915794
0.001164965476
0.001165021735
0.001165089152
0.001165175317
0.001165296092
0.001165466599
0.001165769959
0.0003368440205
0.0007991747967
0.0005597891216
0.0002960672335
0.0001640963375
3.22533898e-05
4.217510075e-06
4.764318798e-07
3.016211791e-07
2.663994723e-07
2.432459585e-07
2.263016411e-07
2.152334557e-07
2.113684095e-07
1.999000249e-07
1.734364324e-07
1.61326574e-07
1.607911462e-07
1.678976789e-07
1.79464332e-07
1.956308689e-07
2.176431779e-07
2.474821307e-07
2.878335445e-07
3.422697635e-07
4.155886321e-07
5.143334338e-07
6.475712494e-07
8.280615802e-07
1.074054817e-06
1.412182533e-06
1.882905261e-06
2.553238379e-06
3.550030839e-06
5.139161378e-06
7.893946702e-06
1.304860134e-05
2.325924506e-05
4.42659596e-05
8.857410552e-05
0.0001837148586
0.0003909490174
0.0008478926135
0.001168004556
0.001167185936
0.001166136858
0.001165337864
0.001165000133
0.001164876649
0.001164849484
0.001164864012
0.001164896195
0.001164936665
0.001164983202
0.001165037469
0.001165103765
0.001165189481
0.001165310171
0.001165480769
0.00116578446
0.0003322900086
0.0007059727652
0.000467972793
0.0002505230422
0.0001346203458
1.943216269e-05
2.039027546e-06
3.491325254e-07
2.582185459e-07
2.3037939e-07
2.113655286e-07
1.971990422e-07
1.88206937e-07
1.85870474e-07
1.726188065e-07
1.526565358e-07
1.456792842e-07
1.490771356e-07
1.581506949e-07
1.713333449e-07
1.892623555e-07
2.134136257e-07
2.45880854e-07
2.894443286e-07
3.477988977e-07
4.259205734e-07
5.306142533e-07
6.713297216e-07
8.613854289e-07
1.119837244e-06
1.474493535e-06
1.967522674e-06
2.668665726e-06
3.71018643e-06
5.370615656e-06
8.252447949e-06
1.36533078e-05
2.436323077e-05
4.640470611e-05
9.288373258e-05
0.0001926200553
0.0004096576211
0.0008876541972
0.001168149747
0.001167260962
0.001166155304
0.001165385436
0.001165051378
0.00116492232
0.001164887361
0.001164894644
0.001164921011
0.001164957194
0.001165000792
0.001165053215
0.001165118503
0.001165203873
0.001165324543
0.001165495314
0.001165799105
0.0003368548074
0.0006115572142
0.0003858532993
0.0002168368062
0.0001076952179
1.290450461e-05
1.006415687e-06
2.722502699e-07
2.215534089e-07
1.991089656e-07
1.835176608e-07
1.718269219e-07
1.647241851e-07
1.63809133e-07
1.498305813e-07
1.359260826e-07
1.337533704e-07
1.399126653e-07
1.505880285e-07
1.65273783e-07
1.849533601e-07
2.112454795e-07
2.463257225e-07
2.930640091e-07
3.552815393e-07
4.381399656e-07
5.487163245e-07
6.968582715e-07
8.964648829e-07
1.167439115e-06
1.538820641e-06
2.054593557e-06
2.787442349e-06
3.875544625e-06
5.61122061e-06
8.628622602e-06
1.429413852e-05
2.554343417e-05
4.870745458e-05
9.755142239e-05
0.0002023163109
0.000430131049
0.0009313862127
0.001168275807
0.00116732233
0.001166172253
0.001165429921
0.00116509967
0.001164965674
0.001164923592
0.001164924185
0.001164945153
0.00116497735
0.001165018224
0.001165068959
0.001165133361
0.001165218489
0.001165339209
0.001165510248
0.001165813889
0.000351889118
0.0005243001598
0.0003324706869
0.0001958017914
6.377293688e-05
9.203224367e-06
5.263625789e-07
2.214727359e-07
1.905943595e-07
1.723065355e-07
1.595845414e-07
1.500819111e-07
1.446721854e-07
1.45091462e-07
1.312466997e-07
1.228424093e-07
1.246310642e-07
1.328167664e-07
1.448539748e-07
1.609830677e-07
1.824021404e-07
2.108154662e-07
2.48466518e-07
2.983150505e-07
3.643133706e-07
4.518159809e-07
5.681822356e-07
7.236723441e-07
9.327878959e-07
1.216312841e-06
1.604573381e-06
2.143468556e-06
2.908836797e-06
4.045268792e-06
5.860025465e-06
9.021421496e-06
1.497000165e-05
2.679887354e-05
5.117374939e-05
0.0001025783251
0.0002128090373
0.0004523851838
0.0009791297025
0.001168383853
0.0011673703
0.0011661878
0.001165471452
0.001165145097
0.001165006749
0.00116495818
0.001164952621
0.001164968601
0.001164997114
0.001165035483
0.001165084694
0.001165148333
0.001165233326
0.001165354172
0.001165525522
0.001165828806
0.0003753563058
0.0004938759437
0.0002939012879
0.000178296349
3.451570856e-05
3.844884237e-06
3.063719061e-07
1.857223034e-07
1.648330518e-07
1.497618288e-07
1.393551624e-07
1.316989445e-07
1.277894189e-07
1.293394367e-07
1.164181903e-07
1.126930895e-07
1.176859709e-07
1.273783824e-07
1.406486985e-07
1.581955478e-07
1.813353095e-07
2.118299351e-07
2.519876239e-07
3.048609838e-07
3.745388912e-07
4.665759532e-07
5.886238596e-07
7.51369393e-07
9.699376485e-07
1.266024799e-06
1.671295215e-06
2.233657086e-06
3.032309455e-06
4.218761199e-06
6.116390014e-06
9.430225111e-06
1.568045335e-05
2.812964753e-05
5.380511381e-05
0.0001079694981
0.0002241117876
0.0004764535797
0.001030965789
0.001168475081
0.001167405263
0.001166202036
0.001165510183
0.001165187774
0.001165045612
0.001164991153
0.001164979956
0.001164991349
0.001165016476
0.001165052562
0.001165100411
0.001165163415
0.001165248381
0.001165369426
0.001165541094
0.001165843843
0.0004037744296
0.0004378968294
0.0002680452036
0.000160398964
1.894695233e-05
1.483766405e-06
2.070948546e-07
1.587196678e-07
1.432796685e-07
1.307482114e-07
1.22187977e-07
1.161303817e-07
1.136104486e-07
1.148410353e-07
1.048358916e-07
1.052466961e-07
1.123959379e-07
1.232879128e-07
1.37734682e-07
1.566801275e-07
1.815057273e-07
2.140225546e-07
2.566052864e-07
3.124035145e-07
3.85648249e-07
4.821013671e-07
6.097165399e-07
7.79620578e-07
1.007581431e-06
1.316237112e-06
1.738638887e-06
2.324794907e-06
3.157470492e-06
4.395608475e-06
6.379912193e-06
9.854742811e-06
1.642554719e-05
2.953669097e-05
5.66046215e-05
0.0001137330994
0.0002362446553
0.00050238411
0.001087008207
0.001168550709
0.001167427677
0.001166215047
0.001165546272
0.001165227833
0.001165082345
0.001165022556
0.001165006208
0.0011650134
0.001165035433
0.001165069453
0.001165116104
0.001165178601
0.001165263647
0.001165384964
0.001165556965
0.001165858984
0.0004382369026
0.0004091957459
0.0002572850922
0.0001399732624
1.116919171e-05
5.416076626e-07
1.608161264e-07
1.369847711e-07
1.248978151e-07
1.144644879e-07
1.075215665e-07
1.029416566e-07
1.014912803e-07
1.012828415e-07
9.604257854e-08
9.975460804e-08
1.083931819e-07
1.203262147e-07
1.359177607e-07
1.562301487e-07
1.826886387e-07
2.171529962e-07
2.62067422e-07
3.206827169e-07
3.973773547e-07
4.981273833e-07
6.311975902e-07
8.081674287e-07
1.045465972e-06
1.366701227e-06
1.806358184e-06
2.416633876e-06
3.28406719e-06
4.5755656e-06
6.650406965e-06
1.029498261e-05
1.720578599e-05
3.102168809e-05
5.957672291e-05
0.0001198800124
0.0002492334234
0.0005302368906
0.001147395853
0.001168611937
0.001167438015
0.001166226917
0.001165579881
0.001165265412
0.001165117044
0.001165052443
0.001165031405
0.001165034765
0.001165053987
0.001165086155
0.00116513177
0.001165193887
0.001165279119
0.001165400779
0.001165573089
0.001165874216
0.0004758300971
0.0004017232314
0.0002558065754
9.609945273e-05
5.686500063e-06
2.224598751e-07
1.346557278e-07
1.187721152e-07
1.09041475e-07
1.006286279e-07
9.497460627e-08
9.161519827e-08
9.123487525e-08
9.064073014e-08
8.959566497e-08
9.565251709e-08
1.054296324e-07
1.1832138e-07
1.350226084e-07
1.5665382e-07
1.846781319e-07
2.210056404e-07
2.681531246e-07
3.294765881e-07
4.095069977e-07
5.144410448e-07
6.528631692e-07
8.368173171e-07
1.083411113e-06
1.417249782e-06
1.874297834e-06
2.509029478e-06
3.411968372e-06
4.758535897e-06
6.927879593e-06
1.075121267e-05
1.802206087e-05
3.258696475e-05
6.272703363e-05
0.0001264234015
0.0002631085871
0.0005600820702
0.001169785938
0.001168659923
0.001167436726
0.001166237725
0.00116561117
0.001165300653
0.001165149807
0.001165080876
0.001165055581
0.00116505546
0.001165072142
0.001165102667
0.001165147404
0.001165209266
0.001165294792
0.001165416856
0.001165589373
0.001165889537
0.000532756662
0.0004107912321
0.0002599143573
4.74490302e-05
1.563591404e-06
1.386390936e-07
1.160313589e-07
1.036679255e-07
9.574213419e-08
8.876253479e-08
8.425407752e-08
8.207827923e-08
8.275938018e-08
8.265715369e-08
8.501382481e-08
9.265804897e-08
1.033276822e-07
1.171236871e-07
1.348886899e-07
1.57778321e-07
1.872928566e-07
2.253946542e-07
2.74675968e-07
3.386017414e-07
4.218601122e-07
5.30874388e-07
6.745566066e-07
8.654264357e-07
1.121286901e-06
1.467767189e-06
1.942356644e-06
2.601895308e-06
3.541108334e-06
4.94450147e-06
7.212436704e-06
1.122384186e-05
1.887547898e-05
3.423522013e-05
6.606188783e-05
0.000133377923
0.0002779038859
0.0005919970243
0.001169866739
0.001168695785
0.001167424201
0.00116624755
0.001165640294
0.001165333694
0.001165180736
0.00116510792
0.001165078774
0.001165075502
0.001165089905
0.001165118988
0.001165163001
0.001165224734
0.001165310659
0.001165433159
0.001165605706
0.00116590495
0.0005888164021
0.0004111455465
0.0002578503062
2.254775098e-05
3.822259147e-07
1.132408283e-07
1.01411288e-07
9.117512192e-08
8.44723194e-08
7.871580483e-08
7.527289111e-08
7.423475513e-08
7.594356928e-08
7.695063123e-08
8.180127816e-08
9.050300246e-08
1.019375805e-07
1.165905159e-07
1.353653109e-07
1.594466681e-07
1.903728943e-07
2.301606377e-07
2.814803895e-07
3.479094918e-07
4.342975186e-07
5.472998638e-07
6.961635937e-07
8.938948951e-07
1.159008735e-06
1.518184856e-06
2.010482745e-06
2.695198084e-06
3.671481137e-06
5.133515665e-06
7.504274996e-06
1.171340087e-05
1.976732805e-05
3.596945398e-05
6.958817668e-05
0.0001407593519
0.0002936554329
0.000626064401
0.001169932577
0.001168720591
0.001167400739
0.001166256464
0.001165667398
0.001165364669
0.00116520993
0.001165133641
0.001165101021
0.001165094913
0.001165107286
0.001165135119
0.001165178558
0.001165240284
0.001165326707
0.00116544964
0.001165622148
0.001165920434
0.00064478189
0.0004070270249
0.0002461566035
1.137639368e-05
1.502028748e-07
9.84391594e-08
8.921995369e-08
8.071193918e-08
7.498431866e-08
7.027610423e-08
6.78511603e-08
6.791850395e-08
7.060344017e-08
7.302533433e-08
7.954063212e-08
8.89975778e-08
1.011281617e-07
1.165895165e-07
1.363162604e-07
1.615211816e-07
1.937820809e-07
2.351720174e-07
2.884423392e-07
3.572859636e-07
4.467177895e-07
5.636303859e-07
7.176129396e-07
9.221687613e-07
1.19654129e-06
1.568487583e-06
2.078683056e-06
2.788970611e-06
3.803157607e-06
5.325724617e-06
7.803708124e-06
1.222057534e-05
2.069911619e-05
3.779300788e-05
7.331336957e-05
0.0001485845134
0.0003104013588
0.0006623709596
0.001169984726
0.00116873538
0.001167366521
0.001166264537
0.00116569262
0.001165393708
0.001165237485
0.001165158101
0.001165122362
0.001165113714
0.001165124293
0.001165151062
0.00116519407
0.001165255909
0.001165342921
0.001165466255
0.001165638826
0.001165935931
0.00067919499
0.0004018243065
0.000221731076
6.776469585e-06
1.137359927e-07
8.648130104e-08
7.90042667e-08
7.188538178e-08
6.697007532e-08
6.321382374e-08
6.180619653e-08
6.294604151e-08
6.652715685e-08
7.037223004e-08
7.794482646e-08
8.800686409e-08
1.007845589e-07
1.170043992e-07
1.376242352e-07
1.638857915e-07
1.974079927e-07
2.403223747e-07
2.954635414e-07
3.666428522e-07
4.590440912e-07
5.798017951e-07
7.388541539e-07
9.502121151e-07
1.23386421e-06
1.618671813e-06
2.14697259e-06
2.883250296e-06
3.936210179e-06
5.521273737e-06
8.111045799e-06
1.274603973e-05
2.167232611e-05
3.970917311e-05
7.724484513e-05
0.0001568700827
0.0003281795621
0.0007010031745
0.001170024342
0.001168741174
0.001167329702
0.001166271834
0.00116571609
0.001165420929
0.001165263493
0.001165181365
0.001165142836
0.001165131926
0.001165140936
0.001165166817
0.001165209532
0.001165271602
0.001165359282
0.001165482978
0.001165655743
0.001165951392
0.0006773816048
0.0004028708761
0.000186303631
2.667278842e-06
9.4334915e-08
7.656564063e-08
7.039108355e-08
6.439811815e-08
6.019356553e-08
5.735472995e-08
5.697942396e-08
5.912386718e-08
6.345708445e-08
6.856638686e-08
7.683132681e-08
8.742282009e-08
1.008039982e-07
1.177326568e-07
1.391888203e-07
1.664443821e-07
2.011609704e-07
2.455304676e-07
3.024728541e-07
3.759204788e-07
4.712292948e-07
5.957803583e-07
7.598676282e-07
9.780201898e-07
1.270988458e-06
1.668765463e-06
2.215398137e-06
2.978107085e-06
4.070745482e-06
5.720345414e-06
8.426637484e-06
1.329050852e-05
2.26884733e-05
4.172124944e-05
8.13899223e-05
0.0001656324944
0.0003470272466
0.0007420456968
0.001170052469
0.001168738663
0.001167295071
0.001166278415
0.001165737925
0.001165446446
0.001165288042
0.001165203492
0.001165162481
0.00116514957
0.001165157223
0.001165182384
0.001165224937
0.001165287352
0.001165375767
0.001165499787
0.001165672898
0.001165966785
0.0006707689953
0.0004072056895
0.0001016654392
9.190341032e-07
8.138641836e-08
6.835624181e-08
6.315211494e-08
5.806827291e-08
5.450854814e-08
5.258378586e-08
5.322555355e-08
5.625544767e-08
6.101826107e-08
6.73179631e-08
7.608535103e-08
8.715856235e-08
1.011007378e-07
1.186898169e-07
1.409285619e-07
1.69120242e-07
2.049706184e-07
2.507335441e-07
3.094162398e-07
3.850743376e-07
4.832390316e-07
6.11542274e-07
7.806404764e-07
1.005591352e-06
1.307924096e-06
1.718790956e-06
2.283995685e-06
3.073593911e-06
4.206845767e-06
5.923087392e-06
8.75077926e-06
1.385460444e-05
2.374890251e-05
4.383220219e-05
8.57552438e-05
0.0001748867767
0.0003669786327
0.0007855767128
0.001170070061
0.001168728297
0.001167262478
0.001166284335
0.001165758235
0.001165470364
0.001165311212
0.001165224539
0.001165181332
0.001165166667
0.001165173164
0.001165197762
0.001165240279
0.00116530315
0.001165392351
0.001165516665
0.001165690277
0.00116598205
0.0006583044173
0.0004080400915
5.647856042e-05
3.516456453e-07
7.182187572e-08
6.154225035e-08
5.705402456e-08
5.271406992e-08
4.977941386e-08
4.878244893e-08
5.037420037e-08
5.413762225e-08
5.940370417e-08
6.644678622e-08
7.562244848e-08
8.71388325e-08
1.016012802e-07
1.198054684e-07
1.427776969e-07
1.718536857e-07
2.087845721e-07
2.558875633e-07
3.162587759e-07
3.940792352e-07
4.95058287e-07
6.270830558e-07
8.011790522e-07
1.032943173e-06
1.344700402e-06
1.76879006e-06
2.352820734e-06
3.169783457e-06
4.344613145e-06
6.129665601e-06
9.083777201e-06
1.443893527e-05
2.485487975e-05
4.604476353e-05
9.03468477e-05
0.0001846464628
0.0003880643105
0.0008316657047
0.001170078
0.00116871045
0.001167231787
0.001166289647
0.001165777124
0.00116549278
0.00116533308
0.001165244561
0.001165199424
0.001165183236
0.001165188765
0.00116521295
0.001165255551
0.001165318982
0.001165409003
0.001165533596
0.001165707855
0.001165997142
0.0006396526105
0.0003989776536
2.786974414e-05
1.588032557e-07
6.42378825e-08
5.591372804e-08
5.194805324e-08
4.821175909e-08
4.590673081e-08
4.583028846e-08
4.824828013e-08
5.258731569e-08
5.83189893e-08
6.584496627e-08
7.537715861e-08
8.73020209e-08
1.022468595e-07
1.210250182e-07
1.44687106e-07
1.746022423e-07
2.12568007e-07
2.609661728e-07
3.229832563e-07
4.029276576e-07