/*--------------------------------*- C++ -*----------------------------------*\
  =========                 |
  \\      /  F ield         | OpenFOAM: The Open Source CFD Toolbox
   \\    /   O peration     | Website:  https://openfoam.org
    \\  /    A nd           | Version:  12
     \\/     M anipulation  |
\*---------------------------------------------------------------------------*/
FoamFile
{
    format      ascii;
    class       volScalarField;
    location    "1200";
    object      k;
}
// * * * * * * * * * * * * * * * * * * * * * * * * * * * * * * * * * * * * * //

dimensions      [0 2 -2 0 0 0 0];

internalField   nonuniform List<scalar> 
16200
(
445.5149245
511.6222694
467.2219841
423.9589645
367.3672293
280.9433368
158.3952324
46.87138314
5.479962976
0.191626208
0.002090907431
0.001015269273
0.0009692477143
0.0009439349088
0.0009298467213
0.0009215295997
0.0009161391977
0.0009129288456
0.0009113058276
0.0009107926742
0.0009111430376
0.0009122122043
0.0009139086181
0.0009161805876
0.000919004202
0.0009223725762
0.0009262858032
0.0009307395825
0.0009357121695
0.0009411496524
0.000946951051
0.000952959843
0.0009589717099
0.000964762748
0.0009701282017
0.0009749133098
0.0009790260989
0.0009824330403
0.0009851453995
0.0009872029221
0.0009886579108
0.0009895598261
0.000989940475
0.0009897948795
0.0009890340214
0.0009873580723
0.0009849898928
0.0009839048305
0.0009834782915
0.0009833397616
0.0009833348424
0.0009834076181
0.0009835487786
0.0009837743175
0.0009841186356
0.0009846362024
0.0009854088184
0.0009865652907
0.0009883196771
0.0009910930583
466.9815052
529.8714979
476.1661798
423.4841931
354.8755675
253.0686786
120.7616284
27.40243832
2.252916351
0.05118785289
0.001162703887
0.0009978193082
0.0009566182264
0.0009335631011
0.0009207754206
0.0009133447058
0.0009086162239
0.000905925497
0.0009047406285
0.000904618273
0.0009053363389
0.000906769071
0.0009088401242
0.0009115101909
0.0009147650435
0.0009186041671
0.0009230292698
0.0009280306857
0.0009335715652
0.0009395709208
0.0009458899065
0.0009523312065
0.0009586600454
0.0009646436732
0.0009700921147
0.0009748812346
0.0009789537284
0.0009823052266
0.0009849661268
0.0009869855039
0.0009884180991
0.00098931261
0.0009897006406
0.000989584137
0.0009889017419
0.0009874172605
0.0009850663565
0.0009839767714
0.0009835536009
0.000983422216
0.0009834256857
0.0009835065621
0.0009836545004
0.0009838846169
0.0009842305818
0.0009847461666
0.0009855134252
0.000986663078
0.0009884177109
0.0009912323686
487.9652242
546.1304809
482.409231
419.3623395
336.9901166
219.5422234
84.74605201
14.20132292
0.783205044
0.01163856179
0.001061759972
0.0009826658955
0.000945325022
0.0009243731369
0.0009128213573
0.0009062304576
0.0009021424217
0.000899964895
0.000899221666
0.0008995022492
0.0009006081254
0.0009024319497
0.0009049124377
0.0009080224666
0.000911756684
0.0009161187808
0.0009211077651
0.0009267013446
0.0009328368243
0.0009393930635
0.0009461823835
0.0009529639087
0.0009594805971
0.0009655066455
0.0009708836363
0.0009755307294
0.0009794323435
0.0009826158334
0.0009851306545
0.000987033878
0.0009883807836
0.0009892169483
0.0009895704423
0.0009894444101
0.0009887960334
0.0009874546692
0.0009851427743
0.0009840533002
0.0009836329935
0.0009835068044
0.0009835166823
0.0009836041382
0.0009837579287
0.0009839923297
0.0009843402269
0.0009848547006
0.0009856178075
0.0009867619409
0.0009885170865
0.0009913693133
507.4286432
559.0010177
485.1041643
410.6389672
312.9716756
180.7578243
54.05924653
6.496646584
0.2337405333
0.002663485441
0.001031376691
0.0009692662853
0.0009354758042
0.0009165108377
0.0009061413
0.0009003474449
0.0008968782983
0.000895205829
0.0008949054125
0.0008955986465
0.0008971101273
0.0008993501922
0.0009022718581
0.0009058587587
0.000910111681
0.0009150338514
0.000920614337
0.0009268078441
0.0009335129486
0.0009405568696
0.0009476997923
0.0009546666894
0.000961197702
0.0009670952098
0.0009722478319
0.0009766250733
0.0009802533556
0.0009831884425
0.0009854945769
0.0009872329412
0.0009884562446
0.0009892044173
0.0009894993824
0.0009893411909
0.0009886963223
0.0009874332827
0.0009851966243
0.0009841203985
0.0009837075156
0.0009835877156
0.0009836040466
0.0009836979011
0.0009838575159
0.0009840964938
0.0009844470014
0.0009849614676
0.0009857218433
0.000986861951
0.0009886182969
0.0009915054085
524.9705311
568.8100923
484.3839261
397.8262192
284.3800768
140.1269012
31.50235656
2.735013091
0.06413209593
0.00127027859
0.001012523023
0.0009576967033
0.000927190928
0.000910099018
0.0009008620452
0.0008958304461
0.0008929651314
0.0008917950901
0.0008919430876
0.0008930622789
0.0008950000185
0.0008976834538
0.0009010785057
0.0009051769922
0.0009099815417
0.00091548828
0.0009216665945
0.0009284353131
0.000935641187
0.0009430532218
0.000950385924
0.0009573494364
0.0009637054282
0.0009693042597
0.0009740917416
0.0009780888495
0.0009813597352
0.0009839825678
0.0009860309172
0.0009875659822
0.0009886351102
0.0009892706978
0.00098948686
0.0009892778411
0.0009886138478
0.0009873838281
0.0009852379753
0.0009841831891
0.0009837800609
0.0009836667812
0.0009836890584
0.0009837888063
0.0009839539995
0.0009841976772
0.0009845513316
0.0009850667631
0.0009858257284
0.0009869632581
0.0009887215373
0.0009916407264
540.0564645
575.6710721
480.2100583
379.960559
249.8751006
100.8117861
17.74491091
1.101422526
0.01776607417
0.001116936208
0.0009971284028
0.000947993072
0.0009205346851
0.0009052073439
0.0008970523769
0.0008927492631
0.0008904727722
0.0008898028351
0.0008904055725
0.0008919650382
0.0008943502495
0.000897503238
0.000901400128
0.0009060368687
0.0009114118197
0.0009175049891
0.0009242537501
0.0009315273369
0.0009391116306
0.0009467207359
0.0009540416652
0.0009607963682
0.0009667922552
0.000971941778
0.0009762508213
0.0009797869972
0.0009826442039
0.0009849152236
0.0009866769329
0.0009879865464
0.0009888836648
0.0009893918371
0.0009895164832
0.0009892444517
0.0009885467632
0.0009873326648
0.0009852645602
0.0009842399586
0.0009838495288
0.0009837433888
0.0009837714499
0.0009838768122
0.0009840474736
0.0009842960391
0.0009846533931
0.0009851707401
0.0009859295907
0.0009870659832
0.0009888270285
0.0009917756538
552.5045634
579.9486604
472.8136355
356.1239313
209.148987
67.21387489
9.426140275
0.4339012125
0.005246459732
0.001072879654
0.0009840745873
0.0009400681834
0.0009154443653
0.0009017845244
0.000894668806
0.000891071439
0.0008893784787
0.0008892150468
0.0008902860474
0.0008923052296
0.0008951616015
0.0008988097005
0.0009032324348
0.0009084244998
0.0009143717311
0.0009210264423
0.0009282802909
0.0009359419325
0.0009437359876
0.0009513368868
0.0009584311341
0.0009647802269
0.0009702557588
0.0009748380576
0.0009785889415
0.0009816136514
0.000984026212
0.000985926142
0.0009873882026
0.0009884623933
0.0009891788997
0.0009895517385
0.0009895773947
0.0009892344745
0.000988492251
0.0009872794926
0.00098527949
0.000984291757
0.0009839163115
0.0009838177787
0.0009838514673
0.000983962201
0.0009841382426
0.0009843918807
0.0009847534579
0.0009852736187
0.0009860335934
0.0009871702491
0.0009889349218
0.0009919103845
562.107348
581.5929412
461.8736092
327.1156876
165.5142316
40.32008484
4.725687308
0.1796612162
0.00222893732
0.001049357156
0.0009731867122
0.000933842695
0.0009118501104
0.0008997658197
0.0008936495422
0.0008907406226
0.0008896291214
0.0008899801831
0.0008915331676
0.0008940305574
0.0008973795022
0.0009015439076
0.0009065083627
0.0009122585111
0.0009187568157
0.0009259146951
0.0009335659828
0.0009414548532
0.0009492557896
0.0009566290835
0.0009632909529
0.0009690654206
0.0009738978379
0.0009778338907
0.0009809819233
0.0009834736601
0.0009854335647
0.0009869608921
0.000988123946
0.0009889632244
0.0009894985535
0.0009897342755
0.0009896581995
0.0009892404707
0.0009884464568
0.0009872228689
0.0009852843462
0.0009843388068
0.0009839803113
0.0009838898806
0.0009839291525
0.0009840451184
0.0009842265215
0.0009844854472
0.0009848517667
0.0009853756049
0.0009861378942
0.00098727617
0.0009890453449
0.0009920451163
568.7446982
580.2534391
445.3608452
291.4649795
122.5343944
23.74925123
2.300961199
0.07829148748
0.001606684254
0.001031631912
0.0009642986013
0.0009292135729
0.0009096659189
0.0008990690988
0.0008939106883
0.0008916731073
0.000891140325
0.0008920132745
0.0008940616189
0.0008970550211
0.0009009154607
0.0009056110981
0.000911120879
0.0009174115994
0.000924410237
0.0009319749684
0.0009398749207
0.000947796174
0.0009553853427
0.0009623196063
0.0009683720216
0.00097344328
0.0009775525972
0.0009808019557
0.000983333929
0.000985295374
0.0009868126396
0.0009879791909
0.0009888538325
0.0009894662454
0.0009898256118
0.0009899268847
0.0009897498053
0.0009892563218
0.0009884061758
0.0009871615433
0.0009852814998
0.0009843817737
0.0009840416696
0.0009839597503
0.0009840046115
0.0009841257427
0.000984312542
0.0009845769943
0.0009849485683
0.0009854769132
0.0009862426564
0.0009873838557
0.0009891583925
0.0009921799935
572.794288
576.2202777
422.9366447
248.6673428
83.41710076
13.5679482
1.107702684
0.03662450457
0.001426664329
0.001016997123
0.0009572127884
0.0009260318696
0.0009087619123
0.0008995736258
0.0008953364223
0.0008937597139
0.0008938081352
0.0008952142317
0.0008977732303
0.0009012791992
0.0009056641961
0.0009108943018
0.0009169344354
0.0009237218677
0.0009311360784
0.000938972902
0.0009469383754
0.0009546781573
0.0009618410292
0.0009681514288
0.0009734583592
0.0009777430572
0.0009810908124
0.0009836468898
0.0009855751479
0.0009870274023
0.0009881250942
0.0009889520048
0.000989555638
0.0009899543772
0.0009901469943
0.0009901196374
0.0009898447935
0.0009892768226
0.0009883685802
0.0009870942196
0.0009852729881
0.0009844212345
0.0009841005052
0.0009840274319
0.0009840779377
0.0009842042373
0.000984396522
0.0009846667668
0.0009850441051
0.000985577756
0.0009863480424
0.0009874934101
0.0009892741358
0.0009923151343
574.4655978
569.5418631
394.7792431
201.4429144
51.98947948
7.38632223
0.5326352441
0.01862085196
0.001347040984
0.00100484659
0.0009517815029
0.0009241772456
0.0009090290701
0.0009011761824
0.0008978267661
0.0008969046531
0.0008975386534
0.000899488413
0.0009025696408
0.0009065974198
0.0009115085068
0.0009172598567
0.0009237929086
0.0009310037315
0.0009387136724
0.0009466535678
0.0009544788261
0.0009618220775
0.0009683665383
0.0009739079024
0.0009783796844
0.0009818382633
0.0009844219658
0.0009863049733
0.0009876605355
0.0009886372207
0.000989346717
0.0009898607588
0.0009902147926
0.0009904160713
0.0009904535567
0.0009903053553
0.0009899376058
0.0009892979038
0.0009883314372
0.0009870197863
0.0009852607144
0.0009844577989
0.0009841569933
0.0009840930109
0.0009841492465
0.0009842807739
0.0009844786792
0.0009847550059
0.0009851386162
0.0009856783441
0.0009864542128
0.0009876049307
0.0009893926229
0.0009924506255
573.8339581
559.5742858
360.1696952
153.7647755
32.35241964
4.002456325
0.2634393007
0.01008171725
0.001252185741
0.0009948616975
0.0009478555071
0.0009235370038
0.0009103693407
0.0009037845076
0.0009012908799
0.0009010173768
0.0009022388425
0.0009047379806
0.0009083463411
0.0009128961506
0.0009183223646
0.0009245641256
0.0009315280824
0.0009390574988
0.0009469095172
0.0009547573016
0.0009622292033
0.0009689774072
0.0009747477945
0.0009794211387
0.0009830135794
0.0009856444927
0.0009874898672
0.0009887391541
0.0009895651751
0.0009901072745
0.0009904643623
0.0009906950347
0.0009908227189
0.000990844152
0.0009907393106
0.0009904791065
0.0009900242429
0.0009893164797
0.0009882930417
0.0009869373295
0.0009852462565
0.0009844920159
0.0009842113219
0.0009841565943
0.0009842186663
0.000984355527
0.0009845592279
0.0009848419473
0.0009852323347
0.0009857788835
0.0009865613249
0.0009877185082
0.000989513882
0.000992586529
571.0532173
545.4578788
317.0016853
109.0496228
20.52574156
2.222882853
0.1376506007
0.00608196011
0.001174976935
0.0009868113097
0.0009453171468
0.0009240138316
0.0009126916844
0.0009073078919
0.0009056363098
0.0009060037381
0.0009078121363
0.0009108631778
0.000914999036
0.0009200633811
0.0009259807298
0.0009326615362
0.0009399657442
0.0009476754615
0.0009554864081
0.0009630330905
0.0009699481316
0.0009759345717
0.00098082007
0.0009845730454
0.0009872820617
0.0009891137331
0.0009902664783
0.000990933428
0.0009912796374
0.0009914313701
0.0009914732527
0.0009914506157
0.0009913754512
0.0009912348675
0.0009910007923
0.0009906378001
0.0009901020232
0.0009893303318
0.0009882521707
0.0009868461672
0.0009852308895
0.0009845243766
0.0009842636924
0.0009842183124
0.0009842863406
0.0009844286769
0.0009846383808
0.0009849278207
0.0009853254872
0.0009858795749
0.0009866695303
0.0009878342252
0.0009896379224
0.0009927228831
566.4665549
526.0579878
267.0575641
73.65620381
12.03990071
1.210582089
0.07305285245
0.003851764738
0.001113652839
0.0009799187305
0.0009440330009
0.0009254985524
0.000915896107
0.0009116506147
0.0009107714002
0.0009117760789
0.0009141733397
0.0009177783108
0.0009224373331
0.0009279979732
0.0009343638765
0.0009414051721
0.0009489253737
0.0009566445775
0.0009642114041
0.0009712503341
0.0009774310879
0.0009825314525
0.0009864684626
0.0009892909561
0.0009911446075
0.0009922267913
0.0009927449858
0.0009928870857
0.0009928054709
0.000992611262
0.0009923744531
0.0009921276452
0.0009918723121
0.000991586955
0.0009912364132
0.0009907797456
0.0009901692966
0.0009893379445
0.000988207996
0.000986745836
0.0009852155887
0.000984555301
0.0009843143077
0.0009842783112
0.0009843524245
0.0009845004067
0.0009847163475
0.0009850128493
0.0009854182926
0.0009859806117
0.0009867789742
0.0009879521555
0.000989764736
0.0009928597046
560.6988752
500.1377121
215.3507726
48.60385996
7.280971827
0.6788321628
0.03968999597
0.002581988159
0.001069806354
0.0009746206342
0.0009437789079
0.0009278937797
0.0009199014932
0.0009167428779
0.0009166351479
0.000918277659
0.0009212649848
0.0009254198253
0.0009305860028
0.0009366059968
0.0009433509547
0.0009506402807
0.0009582173504
0.0009657501005
0.0009728650598
0.0009792093679
0.0009845174117
0.0009886545011
0.0009916236902
0.000993540287
0.0009945899073
0.0009949856439
0.0009949334265
0.0009946097295
0.0009941514483
0.0009936538811
0.0009931728442
0.0009927291542
0.0009923148511
0.0009919008813
0.0009914459248
0.0009909042815
0.0009902251961
0.0009893383581
0.0009881600026
0.0009866360638
0.000985201072
0.0009845851422
0.0009843633686
0.0009843367485
0.0009844170815
0.0009845709019
0.0009847933337
0.0009850972491
0.0009855109612
0.0009860821788
0.0009868897936
0.0009880723633
0.0009898942984
0.0009929969906
554.3011473
464.4168282
167.5933611
34.4915839
4.633555658
0.3915651878
0.02213354258
0.001887367053
0.001040994973
0.0009710040766
0.0009446056781
0.0009311344881
0.0009246856732
0.0009225631293
0.0009232036178
0.0009254779962
0.0009290469017
0.0009337340379
0.000939372602
0.0009457885079
0.0009528092035
0.0009601977855
0.0009676435431
0.0009747830728
0.0009812518608
0.000986749551
0.0009910927203
0.0009942353468
0.000996254887
0.0009973159534
0.0009976276853
0.0009974065528
0.0009968493047
0.0009961172394
0.0009953306072
0.0009945691794
0.0009938755529
0.0009932599166
0.0009927060073
0.000992178235
0.0009916299815
0.0009910114647
0.0009902694215
0.0009893310337
0.0009881079146
0.0009865255539
0.0009851878443
0.0009846141936
0.0009844110694
0.0009843937886
0.0009844804803
0.0009846403475
0.0009848695403
0.000985181228
0.000985603694
0.0009861844518
0.0009870021164
0.0009881949021
0.0009900265716
0.0009931347203
548.2072887
417.3402569
126.4109769
23.76993337
2.92010835
0.2261039633
0.01246243534
0.001493206969
0.001021961215
0.0009689762696
0.0009464975218
0.0009352363009
0.0009302206437
0.000929092905
0.0009304546361
0.0009333480471
0.0009374793126
0.000942664031
0.0009487149857
0.000955430035
0.0009625863001
0.0009698937777
0.0009770043772
0.0009835515126
0.000989210115
0.0009937537834
0.0009970871478
0.000999244438
0.001000361206
0.001000634027
0.001000281566
0.0009995144774
0.0009985154418
0.000997428772
0.0009963580965
0.0009953685792
0.0009944908244
0.0009937256195
0.0009930494976
0.0009924212743
0.0009917898084
0.0009911018295
0.0009903020686
0.0009893157432
0.0009880511769
0.0009864227772
0.0009851762435
0.0009846426974
0.0009844575965
0.0009844495992
0.0009845427917
0.0009847089266
0.0009849451616
0.0009852649847
0.0009856966814
0.0009862875954
0.0009871160595
0.0009883198143
0.0009901615093
0.0009932728562
543.8808339
360.7217656
92.73166383
15.90675084
1.814074701
0.1282759297
0.007003628738
0.001267102962
0.001009665187
0.0009684136077
0.0009494049706
0.0009401719413
0.0009364935141
0.0009363109974
0.0009383689808
0.0009418607713
0.0009465184277
0.0009521400856
0.0009585097756
0.0009653903227
0.0009725094008
0.0009795365673
0.0009861107774
0.000991891927
0.0009966185151
0.001000148505
0.001002470019
0.001003682968
0.001003963367
0.00100352434
0.001002583262
0.001001338801
0.0009999569417
0.0009985646325
0.0009972496784
0.0009960639012
0.0009950272406
0.0009941322841
0.000993349381
0.0009926325986
0.0009919269555
0.0009911762048
0.0009903234941
0.0009892925012
0.0009879890253
0.0009863278311
0.0009851664814
0.0009846708543
0.0009845031269
0.0009845043473
0.0009846041859
0.0009847768179
0.0009850203847
0.000985348708
0.0009857901027
0.000986391763
0.0009872317284
0.000988447131
0.0009902990551
0.0009934113452
542.3223101
299.3002055
65.94526982
10.79342083
1.128253554
0.07145940564
0.004017373528
0.001145685198
0.001002400609
0.0009692443348
0.0009533128429
0.0009459404634
0.0009435094415
0.0009442174371
0.0009469332516
0.0009509814146
0.0009561003797
0.0009620641613
0.0009686234727
0.0009755042569
0.0009823932745
0.0009889398023
0.0009947974036
0.0009996780703
0.001003398226
0.001005899821
0.001007242459
0.00100757454
0.001007096128
0.001006024521
0.00100456822
0.001002910302
0.001001199133
0.0009995448767
0.0009980207613
0.0009966666779
0.0009954932166
0.0009944858855
0.0009936097671
0.0009928149235
0.000992043125
0.0009912355831
0.0009903342165
0.0009892615079
0.0009879209071
0.0009862405992
0.0009851586782
0.0009846988312
0.000984547828
0.0009845581976
0.0009846648299
0.000984844195
0.0009850953883
0.0009854325764
0.0009858841254
0.0009864970955
0.0009873492159
0.0009885768714
0.0009904391361
0.0009935501196
542.9593184
238.0561543
50.31551972
7.645981072
0.6955729466
0.03825897013
0.002437225641
0.001083428902
0.0009986709634
0.0009714163326
0.0009582265804
0.0009525522702
0.0009512707507
0.000952794689
0.0009561069202
0.000960640283
0.000966124268
0.000972303769
0.0009788955394
0.0009855917981
0.0009920541881
0.0009979364929
0.00100293277
0.00100682464
0.001009510258
0.001011006697
0.001011429076
0.001010957389
0.00100980203
0.00100817544
0.001006272513
0.001004259115
0.001002266246
0.001000388441
0.0009986858108
0.0009971877351
0.0009958966895
0.0009947921131
0.0009938346271
0.0009929709303
0.0009921400512
0.0009912810259
0.0009903348409
0.0009892230834
0.0009878464377
0.0009861608276
0.0009851528897
0.0009847267689
0.0009845918572
0.0009846113095
0.000984724886
0.0009849112241
0.0009851703419
0.000985516757
0.0009859789044
0.0009866037207
0.0009874686012
0.0009887090409
0.0009905816489
0.0009936890971
543.5389642
182.3373382
39.1473297
5.425249568
0.4133219059
0.01905094784
0.001638303271
0.001053018455
0.0009975277888
0.0009748690497
0.0009641196262
0.0009599768727
0.0009597322274
0.0009619755588
0.0009658048752
0.0009707287213
0.0009764570131
0.0009827025849
0.0009891516381
0.0009954729131
0.001001324709
0.001006390614
0.001010424922
0.001013286478
0.00101494984
0.001015493133
0.001015070228
0.001013877993
0.001012126738
0.001010018087
0.001007730865
0.001005413521
0.001003180675
0.001001112687
0.0009992580499
0.0009976369805
0.0009962449577
0.0009950562406
0.000994027685
0.0009931031747
0.0009922194261
0.0009913136043
0.0009903260108
0.0009891776237
0.0009877653582
0.0009860881822
0.000985149128
0.0009847547874
0.000984635362
0.0009846638366
0.00098478451
0.0009849780636
0.0009852454049
0.0009856014052
0.0009860745817
0.0009867117524
0.0009875899488
0.000988843629
0.0009907264659
0.0009938281814
544.1176565
144.1401771
30.43122038
3.749508664
0.2269057931
0.008641776197
0.001272915924
0.001039264466
0.0009983637428
0.0009794876944
0.0009709044597
0.0009681303303
0.0009687976456
0.000971660966
0.0009759157687
0.0009811171853
0.0009869489628
0.0009930937635
0.0009992169624
0.001004981167
0.001010065357
0.001014203846
0.00101722191
0.001019053802
0.001019738854
0.001019400233
0.001018215275
0.001016386094
0.001014115712
0.001011591515
0.001008975458
0.001006399285
0.001003962619
0.001001733195
0.000999749335
0.0009980233168
0.0009965446098
0.000995283063
0.0009941923601
0.0009932140346
0.0009922828523
0.0009913343578
0.0009903083734
0.0009891255694
0.0009876774911
0.0009860222879
0.0009851473771
0.0009847829899
0.0009846784802
0.0009847159247
0.0009848438498
0.0009850448628
0.0009853207257
0.0009856866641
0.0009861712856
0.0009868212897
0.000987713308
0.0009889806078
0.0009908734577
0.0009939672631
542.6086584
123.94228
24.75717714
2.509294887
0.1104466041
0.003667667367
0.001134130584
0.001033792453
0.001000794118
0.0009851456942
0.0009784838033
0.0009769118117
0.0009783669317
0.0009817479274
0.0009863214725
0.000991666714
0.000997441746
0.001003308457
0.001008926899
0.00101397445
0.001018171847
0.001021317106
0.0010233079
0.001024144977
0.001023917765
0.001022779106
0.001020917231
0.001018531113
0.001015812036
0.001012931639
0.001010035329
0.00100723938
0.001004629973
0.001002263737
0.001000170149
0.0009983546365
0.0009968015147
0.0009954768792
0.0009943317445
0.0009933056842
0.0009923318175
0.0009913442718
0.0009902825589
0.0009890673879
0.0009875826974
0.0009859627562
0.0009851476034
0.0009848114668
0.0009847213397
0.0009847677112
0.0009849030451
0.0009851117613
0.0009853964419
0.0009857726639
0.00098626913
0.0009869324163
0.0009878387117
0.0009891199332
0.0009910224782
0.0009941062227
537.2824944
115.3400474
20.40480399
1.559922918
0.04378135875
0.00174137296
0.001092592838
0.001032242966
0.001004599194
0.0009917750347
0.0009867663
0.0009862323491
0.0009883551381
0.0009921331827
0.0009968945272
0.00100222711
0.001007771795
0.001013184401
0.001018137766
0.001022343522
0.001025578408
0.00102770822
0.001028696903
0.001028598799
0.001027538486
0.001025685331
0.001023229024
0.001020359912
0.001017255237
0.001014070716
0.001010936203
0.001007954002
0.001005198408
0.001002716361
0.001000529676
0.0009986378763
0.0009970208543
0.0009956415081
0.000994448606
0.0009933800897
0.0009923676853
0.0009913442661
0.000990249169
0.0009890035655
0.0009874808359
0.0009859092028
0.0009851497634
0.000984840297
0.0009847640587
0.0009848193248
0.0009849622259
0.000985178888
0.0009854726788
0.0009858595214
0.000986368214
0.0009870451998
0.0009879661761
0.0009892615422
0.0009911733452
0.0009942449342
527.1025459
114.444786
16.62425999
0.8953423197
0.01394256106
0.001249122706
0.001081648502
0.001033053472
0.001009711258
0.00099924867
0.0009956717676
0.0009960181222
0.0009986652066
0.001002695078
0.001007488702
0.001012637472
0.00101777818
0.001022576907
0.00102673631
0.001030016568
0.001032256522
0.001033386242
0.001033425108
0.001032467018
0.001030658367
0.001028174791
0.001025200963
0.001021915454
0.001018480706
0.001015037185
0.001011700555
0.001008560702
0.001005681517
0.001003101521
0.001000835903
0.000998879091
0.0009972071732
0.0009957803186
0.0009945454039
0.0009934390143
0.0009923916951
0.0009913351919
0.0009902087721
0.0009889346094
0.0009873717241
0.0009858612593
0.0009851538085
0.0009848695504
0.0009848067459
0.0009848708841
0.0009850215122
0.0009852463608
0.0009855495494
0.0009859473392
0.0009864686207
0.0009871596902
0.0009880956986
0.0009894053476
0.0009913258482
0.0009943832661
512.0487919
107.0592746
12.68603742
0.4642019993
0.003851111577
0.001171423915
0.001077422902
0.001035612596
0.001015890242
0.001007472278
0.001005108018
0.001006158065
0.001009165329
0.001013284198
0.001017942024
0.001022736434
0.001027314923
0.001031369349
0.001034645289
0.001036958877
0.001038209858
0.001038383925
0.001037543158
0.001035807916
0.00103333562
0.001030300836
0.001026879222
0.001023236163
0.001019519561
0.001015855787
0.001012347812
0.001009074609
0.001006091012
0.001003428239
0.001001095742
0.0009990835398
0.0009973644377
0.0009958962674
0.0009946243116
0.0009934840306
0.0009924049661
0.0009913178322
0.0009901619001
0.0009888610542
0.0009872550963
0.0009858185778
0.0009851596883
0.0009848992882
0.0009848495001
0.0009849224982
0.0009850810134
0.0009853142862
0.0009856271536
0.0009860362052
0.000986570417
0.0009872759202
0.0009882272568
0.0009895512372
0.0009914797997
0.0009945210741
492.3360019
95.59585974
9.000233235
0.2084007486
0.001693286111
0.001155373179
0.00107559406
0.001039592902
0.001022985623
0.001016307859
0.001014934332
0.001016502094
0.00101969586
0.001023735639
0.001028091745
0.001032376643
0.00103626264
0.001039479812
0.001041824195
0.001043168587
0.001043467126
0.001042749976
0.001041109449
0.001038681378
0.001035626197
0.001032112601
0.00102830514
0.001024355796
0.001020398811
0.001016547838
0.001012894649
0.001009508696
0.001006436944
0.001003704274
0.001001315157
0.0009992557799
0.0009974961007
0.000995991943
0.0009946872448
0.0009935165373
0.0009924085081
0.0009912929079
0.0009901090476
0.0009887834781
0.000987130562
0.0009857808343
0.0009851673519
0.0009849295643
0.0009848924108
0.0009849742657
0.0009851408282
0.0009853827584
0.0009857055777
0.000986126192
0.0009866736526
0.0009873939033
0.0009883608073
0.0009896990788
0.0009916350485
0.0009946581929
468.5418714
81.89951394
5.958085245
0.09044856709
0.001427773354
0.001144691781
0.001075798708
0.00104477065
0.001030817897
0.001025590222
0.001024987584
0.001026884529
0.001030090431
0.00103388835
0.001037791573
0.001041438379
0.00104453717
0.001046863872
0.001048266785
0.001048670815
0.001048075043
0.001046542612
0.001044185222
0.001041145722
0.001037582067
0.001033654311
0.001029515147
0.001025303688
0.001021141718
0.001017131607
0.001013355328
0.001009874059
0.001006727923
0.001003936294
0.001001499291
0.0009993997571
0.000997605167
0.0009960696104
0.0009947358916
0.0009935377788
0.0009924032331
0.0009912610852
0.0009900506722
0.0009887025278
0.0009870098243
0.0009857477293
0.0009851767491
0.0009849604254
0.0009849355581
0.0009850262752
0.0009852010438
0.0009854518593
0.0009857848942
0.0009862173566
0.0009867783596
0.0009875136339
0.0009884962848
0.0009898487258
0.0009917914092
0.0009947944447
440.8705859
68.38302562
3.809416918
0.04015692623
0.001319841903
0.001137524409
0.001077710142
0.00105091715
0.001039198226
0.001035144131
0.001035096508
0.001037136884
0.001040188184
0.001043596734
0.001046920993
0.001049834894
0.001052089949
0.001053510374
0.001053993686
0.001053509135
0.001052090441
0.001049823342
0.001046830292
0.001043255134
0.001039249943
0.001034964829
0.001030540772
0.001026104983
0.001021768111
0.001017622626
0.001013741973
0.00101018014
0.001006971299
0.001004130005
0.001001652567
0.0009995188808
0.0009976942458
0.0009961312483
0.000994771737
0.0009935488615
0.0009923899658
0.0009912229829
0.0009899871919
0.0009886184325
0.0009868995567
0.0009857189862
0.0009851878305
0.0009849919111
0.0009849790123
0.0009850786043
0.0009852617359
0.0009855216577
0.0009858651608
0.0009863097392
0.0009868845513
0.0009876350856
0.0009886336019
0.0009900000143
0.0009919486555
0.0009949296527
409.0931391
55.42644542
2.432062568
0.01538779389
0.001269826768
0.001133259372
0.001081036442
0.001057813325
0.001047937584
0.0010447921
0.001045090421
0.001047098119
0.001049844573
0.001052740438
0.001055391716
0.001057514416
0.001058905549
0.001059435596
0.001059045026
0.001057738409
0.001055574433
0.001052652894
0.001049100632
0.00104505854
0.001040670978
0.001036077831
0.001031409044
0.001026781095
0.001022294823
0.001018034069
0.001014064875
0.001010434977
0.001007173347
0.001004290306
0.001001778794
0.000999616103
0.0009977656091
0.0009961785902
0.0009947960931
0.0009935507742
0.0009923694585
0.0009911791853
0.0009899190056
0.0009885311334
0.0009867990215
0.0009856943508
0.0009852005475
0.0009850240542
0.0009850228342
0.0009851313197
0.0009853229679
0.0009855922091
0.00098594642
0.0009864033625
0.0009869922218
0.0009877582103
0.0009887726476
0.0009901527616
0.0009921065476
0.0009950636305
373.2091014
43.62202669
1.49360197
0.006520409698
0.001244388772
0.001131338825
0.001085470568
0.001065230719
0.001056842848
0.001054358441
0.001054808235
0.001056626044
0.001058942535
0.001061233027
0.001063152078
0.001064460111
0.001064998078
0.001064677657
0.001063474522
0.001061419777
0.001058588876
0.001055089162
0.001051047508
0.001046599531
0.001041881152
0.001037022386
0.001032143106
0.001027350278
0.001022736174
0.001018377146
0.001014332809
0.001010645443
0.001007339452
0.001004421412
0.00100188127
0.0009996939904
0.0009978212424
0.000996213161
0.0009948101227
0.000993544404
0.0009923424003
0.0009911302487
0.0009898465079
0.0009884405288
0.0009867075476
0.000985673588
0.0009852148519
0.0009850568808
0.0009850670752
0.0009851844774
0.0009853847913
0.0009856635549
0.0009860286984
0.0009864982315
0.0009871013451
0.0009878829378
0.000988913287
0.0009903067652
0.0009922648275
0.0009951961847
334.239275
32.83619808
0.8558895587
0.003227359237
0.001229155107
0.001131307307
0.001090731746
0.001072951097
0.001065728521
0.001063679055
0.001064108072
0.001065605566
0.001067397971
0.001069023403
0.001070184319
0.001070684155
0.001070403526
0.001069288698
0.001067342728
0.001064615571
0.001061193011
0.001057185319
0.001052716659
0.00104791622
0.001042911491
0.001037823334
0.001032762628
0.001027828007
0.001023104302
0.001018661373
0.001014553242
0.001010817407
0.001007474233
0.001004526961
0.001001962851
0.0009997547793
0.0009978628867
0.0009962363068
0.0009948148627
0.0009935305532
0.0009923094307
0.0009910767144
0.0009897701022
0.0009883464429
0.0009866245257
0.0009856564804
0.0009852306953
0.0009850904098
0.0009851117764
0.0009852381212
0.0009854472438
0.0009857357217
0.0009861120056
0.0009865943313
0.0009872118729
0.0009880091732
0.0009890553596
0.0009904618001
0.0009924232202