/*--------------------------------*- C++ -*----------------------------------*\
  =========                 |
  \\      /  F ield         | OpenFOAM: The Open Source CFD Toolbox
   \\    /   O peration     | Website:  https://openfoam.org
    \\  /    A nd           | Version:  12
     \\/     M anipulation  |
\*---------------------------------------------------------------------------*/
FoamFile
{
    format      ascii;
    class       volScalarField;
    location    "1200";
    object      omega;
}
// * * * * * * * * * * * * * * * * * * * * * * * * * * * * * * * * * * * * * //

dimensions      [0 0 -1 0 0 0 0];

internalField   nonuniform List<scalar> 
16200
(
714000.761
282898.228
160304.6329
111114.5555
86422.43092
70291.6968
55347.0275
33591.30508
7700.029018
778.501629
318.9900673
200.2066653
129.7824673
87.07416701
62.20448726
46.65250118
35.14750535
26.72466198
20.59564776
16.00523961
12.52878201
9.890861674
7.880999187
6.340529725
5.151388896
4.225603595
3.498840974
2.924353904
2.468425648
2.107192396
1.823221118
1.602225856
1.431138871
1.298797345
1.197471305
1.122162807
1.068979251
1.033824139
1.012176973
0.9997116601
0.9929659682
0.9895612002
0.9880448302
0.9876191879
0.987268434
0.9865155805
0.9854588959
0.984968404
0.9847724217
0.9847111418
0.9847210665
0.9847839149
0.9849045562
0.9851027392
0.9854117474
0.9858818562
0.9865882535
0.9876487615
0.9892607724
0.991811041
750353.8317
298452.9193
168965.6904
117095.841
90823.67365
72838.19452
54804.13878
26743.22642
4011.613037
597.2161797
322.9025477
204.0385292
132.2697238
88.53539446
62.87788669
47.08236712
35.37892014
26.81475815
20.61154585
15.98163692
12.48394815
9.837363886
7.826586309
6.289523742
5.106026747
4.186727709
3.466454066
2.897945056
2.447130517
2.090061121
1.809549109
1.591732132
1.423726716
1.29413387
1.194934533
1.121017747
1.068593216
1.033772814
1.012232291
0.9997746619
0.9930033842
0.9895655024
0.9880133913
0.9875493383
0.987235751
0.98656998
0.9855241241
0.9850351293
0.9848442877
0.9847898713
0.9848071096
0.9848768299
0.985003164
0.9852051332
0.9855153305
0.9859834228
0.9866847216
0.9877388754
0.9893510249
0.9919388354
785345.0911
313596.9327
177417.2826
122932.711
94789.02605
74812.41138
52370.67062
18987.07888
2102.514048
547.1140595
327.7458162
207.4443222
134.4475791
89.79861478
63.44192145
47.42364492
35.53897639
26.84721335
20.58052125
15.92084481
12.41002485
9.761229047
7.754491178
6.224523128
5.049395248
4.138617104
3.426398651
2.86514274
2.420538053
2.068590752
1.792351902
1.578393359
1.414065775
1.287763931
1.191179306
1.119068553
1.06772633
1.033468684
1.012178542
0.9998089456
0.9930515485
0.9895972638
0.9880148524
0.9875089872
0.9872128994
0.9866128229
0.9855871863
0.9851015732
0.9849155147
0.9848670039
0.9848906402
0.9849666006
0.9850983675
0.9853042801
0.9856162418
0.9860833203
0.9867808005
0.9878298973
0.9894425632
0.9920648942
817972.1665
327698.1372
185443.4308
128535.9795
98169.65903
76218.03973
47167.87777
11714.8497
1290.695589
536.9070977
331.5665076
210.1151768
136.1554641
90.77968423
63.85651022
47.64956132
35.60988747
26.80937551
20.49461438
15.81698293
12.30248741
9.658776807
7.6615529
6.142700701
4.978907355
4.078892686
3.376510453
2.824033678
2.387041045
2.041527456
1.770733139
1.5616159
1.401776424
1.279437212
1.186025456
1.116173202
1.06626132
1.032814909
1.011937624
0.9997532687
0.9930635021
0.9896210016
0.988023174
0.9874831495
0.9871910155
0.9866280151
0.9856383619
0.9851617653
0.9849823701
0.9849401946
0.9849702037
0.9850523533
0.9851896707
0.9853999156
0.9857143568
0.9861814919
0.986876503
0.9879219333
0.9895357507
0.9921900772
847768.0497
340756.4178
192941.8851
133804.4729
101243.706
75713.75252
38255.1277
6491.391439
1010.715883
537.5201764
334.3843174
212.0861804
137.4028776
91.4748607
64.12118192
47.7570125
35.58798389
26.69815481
20.35140415
15.66796857
12.15957235
9.528477695
7.546407922
6.042836883
4.893495559
4.006669575
3.316129005
2.774222245
2.346530155
2.009030467
1.745055059
1.541864662
1.38732657
1.269556615
1.179782307
1.112548445
1.064338617
1.031896377
1.011557909
0.9996339591
0.9930530801
0.9896436804
0.9880416418
0.9874734527
0.9871751982
0.9866292301
0.9856822643
0.9852181545
0.9850463298
0.9850104567
0.9850465702
0.985134709
0.9852775845
0.9854924536
0.9858099971
0.9862781683
0.9869719879
0.9880151178
0.9896307919
0.9923145759
874183.4005
352784.3206
199971.5394
138568.8775
103787.6821
72718.47661
29180.6046
3803.22218
927.9525308
539.4923379
336.0426621
213.2802451
138.1421658
91.85226361
64.21821718
47.731546
35.46198896
26.50532593
20.14484773
15.46910715
11.97759328
9.367377986
7.40665489
5.922992381
4.791644633
3.920852549
3.24458365
2.7154456
2.299091337
1.971433925
1.715780402
1.519619095
1.371131587
1.258434656
1.172657157
1.108315515
1.062019214
1.030737181
1.01104382
0.9994466602
0.9930130672
0.9896578914
0.9880636468
0.9874756821
0.9871647847
0.9866282113
0.985718064
0.9852701662
0.9851070985
0.9850777161
0.9851198195
0.9852138435
0.9853623337
0.9855821291
0.9859033786
0.9863735235
0.9870673885
0.9881095683
0.9897278802
0.9924386927
896981.8081
363987.8886
206718.3816
142600.2153
106117.6007
66691.10947
20677.89599
2536.820748
901.4664665
539.7672787
336.4853755
213.6829742
138.3636133
91.90052049
64.13846036
47.56356143
35.2229357
26.22366233
19.86933635
15.21603676
11.75326756
9.173048898
7.240537291
5.781981843
4.672690688
3.821273659
3.162162331
2.648360032
2.245612223
1.929703458
1.683826397
1.495668081
1.353816076
1.246529685
1.164962603
1.103672699
1.059419691
1.029400263
1.010425991
0.9992042089
0.9929473501
0.9896633728
0.9880870459
0.9874870862
0.9871586727
0.9866249727
0.9857472867
0.9853184309
0.9851650266
0.9851422638
0.985190249
0.9852900684
0.9854442319
0.9856692385
0.9859947616
0.9864677657
0.9871628569
0.9882053995
0.9898271593
0.9925626216
915929.3634
374553.2243
213358.232
146471.6725
106333.3642
55779.12179
13405.01839
1978.896378
886.1360954
538.574328
335.81429
213.3200364
138.0680384
91.60992479
63.86948391
47.24034962
34.85964597
25.8449816
19.51926424
14.90504895
11.48428428
8.94413849
7.047386728
5.619693148
4.5370176
3.708351003
3.06967203
2.574037942
2.187254251
1.884930028
1.650234123
1.470820223
1.335975687
1.234258205
1.156973686
1.098790453
1.056638324
1.027937548
1.009728836
0.9989160579
0.9928579867
0.9896588722
0.9881091458
0.9875045105
0.987155293
0.9866190145
0.9857707736
0.9853632031
0.9852202379
0.9852042435
0.9852580563
0.9853636276
0.9855235476
0.9857540512
0.986084393
0.9865610987
0.987258545
0.9883027196
0.9899287461
0.992686538
930890.5181
384868.648
219734.0647
149983.6169
103086.6151
44276.32753
8616.725914
1716.35288
881.3363445
535.6891377
333.952819
212.1490718
137.232014
90.96520031
63.39746897
46.75065781
34.3636581
25.36426136
19.09202658
14.53511173
11.17060309
8.681200802
6.828162404
5.437433715
4.385634985
3.584212236
2.969387358
2.49466692
2.125931041
1.838643347
1.615937142
1.445843041
1.318153175
1.221993854
1.148938377
1.093825614
1.05376858
1.026400846
1.008978608
0.9985939402
0.9927490922
0.9896447926
0.9881285241
0.9875253709
0.9871533513
0.986609911
0.9857897032
0.9854049218
0.9852729504
0.9852638439
0.985323458
0.9854347708
0.9856005507
0.9858368371
0.9861725216
0.9866537311
0.987354608
0.988401632
0.9900327291
0.9928105762
942156.4094
394995.943
225368.0731
153645.1875
95855.25287
33650.84029
5842.559796
1582.930019
873.3832881
531.0285981
330.9036167
210.1731337
135.8588926
89.96732002
62.71545664
46.08825067
33.7304126
24.77983764
18.58787677
14.10768775
10.8143008
8.386557713
6.58440814
5.23682344
4.221611536
3.451584527
2.863879069
2.412484234
2.063432806
1.792179808
1.581971311
1.421365919
1.300775293
1.210025078
1.141048292
1.08890096
1.050885083
1.024832545
1.008197441
0.9982481756
0.9926245986
0.9896218446
0.9881442557
0.9875474752
0.9871517097
0.9865972063
0.9858050969
0.9854439766
0.9853233621
0.9853212384
0.9853866556
0.9855037333
0.9856754981
0.9859178566
0.9862593913
0.9867458696
0.9874512006
0.9885022347
0.9901391744
0.9929348436
949907.0714
405094.3765
230584.5738
156117.2967
83077.66924
24038.68871
4267.841355
1504.048213
863.1294836
524.7171797
326.7322644
207.4248228
133.9653306
88.62487227
61.81876576
45.24902951
32.9578979
24.09307448
18.0100104
13.62686535
10.41956378
8.062968429
6.320250655
5.022091514
4.048469689
3.313740664
2.755984845
2.32975411
2.001422338
1.746676034
1.549075641
1.397859091
1.284148728
1.198557206
1.133441937
1.084107915
1.048045437
1.023266684
1.007403945
0.9978879963
0.9924884423
0.9895911603
0.9881559958
0.9875691225
0.9871494835
0.9865805168
0.9858179082
0.9854807618
0.9853716856
0.9853766093
0.9854478508
0.9855707452
0.9857486393
0.9859973629
0.9863452402
0.9868377182
0.9875484757
0.9886046198
0.9902481272
0.9930594201
954229.975
415187.3889
235816.4136
153548.0659
69002.73383
16612.98136
3394.839368
1449.194033
848.827009
516.7409838
321.4548856
203.9203979
131.564924
86.94838531
60.70364119
44.23113547
32.04742664
23.30910047
17.3647938
13.09910636
9.990664936
7.716022368
6.040362132
4.797615754
3.870268963
3.174220417
2.64854143
2.248557751
1.941304522
1.703015055
1.517778374
1.375633546
1.268466203
1.187718046
1.12620793
1.079507704
1.045290162
1.021728372
1.006612516
0.9975209463
0.9923441074
0.9895539655
0.9881637526
0.9875890369
0.9871460116
0.9865595378
0.9858289388
0.9855156364
0.9854181305
0.9854301387
0.9855072424
0.9856360294
0.985820215
0.9860756006
0.9864302996
0.9869294762
0.9876465825
0.9887088727
0.9903596141
0.993184362
955295.4656
425022.1293
241552.6626
145367.5826
56270.55416
11856.50184
2910.485011
1406.286694
831.1100753
507.1542745
315.1470572
199.7046917
128.6856955
84.95721023
59.37065228
43.03699872
31.00479745
22.43707473
16.66128086
12.5307432
9.534922932
7.351546141
5.75004513
4.568342884
3.691380573
3.036552245
2.544140631
2.170638534
1.884159059
1.661816024
1.488413209
1.354864385
1.253827368
1.177573181
1.119394793
1.075136983
1.042645611
1.020235124
1.005833844
0.9971529976
0.9921945865
0.989511492
0.9881677881
0.9876063168
0.9871408383
0.9865340585
0.9858388493
0.9855489251
0.9854629032
0.9854820103
0.9855650267
0.9856998032
0.9858904573
0.9861528053
0.9865147929
0.9870213365
0.9877456648
0.9888150717
0.9904736446
0.9933097039
953445.9641
433728.9727
248918.5936
131789.507
42889.52584
8701.372552
2609.850942
1364.846058
810.7603924
494.9471627
307.8520253
194.8174326
125.3593912
82.67519711
57.82306176
41.6719871
29.83908881
21.48891015
15.9099466
11.93089128
9.059521781
6.975811645
5.455204282
4.339606696
3.516143843
2.90390471
2.444891595
2.097290194
1.830715425
1.623451461
1.46114922
1.335619327
1.240260988
1.168141249
1.11302046
1.071013229
1.040126742
1.018798125
1.005075384
0.99678865
0.9920423306
0.9894648804
0.9881685073
0.9876203637
0.9871336745
0.9865039577
0.9858481611
0.9855809137
0.9855062029
0.9855324064
0.985621397
0.9857622768
0.9859595897
0.9862292029
0.9865989345
0.9871134847
0.9878458601
0.988923287
0.9905902121
0.9934354611
949280.6366
441257.5098
250522.4676
113796.5288
32045.25121
6717.693732
2411.582369
1322.137663
787.9288492
481.2108702
299.1720313
189.3358554
121.6322582
80.13048275
56.06536081
40.14288005
28.5617777
20.47853043
15.11850097
11.30868581
8.571894873
6.595767022
5.162305109
4.116728748
3.348383324
2.778747135
2.352260041
2.029316715
1.7813715
1.588084842
1.436095602
1.317888302
1.227746426
1.159408457
1.107081426
1.067140105
1.037740043
1.017423688
1.004342003
0.9964311629
0.9918892914
0.9894151447
0.9881663871
0.9876308179
0.9871243635
0.9864691919
0.9858572755
0.9856118515
0.9855482199
0.9855815065
0.9856765421
0.9858236537
0.9860278263
0.9863050095
0.9866829291
0.9872060976
0.9879472979
0.9890335794
0.9907092951
0.9935616305
943348.6428
445280.9237
242277.6188
98598.89692
24162.38901
5488.042944
2272.982597
1279.991956
763.5803829
466.2689515
289.5913757
183.0585826
117.5324618
77.34190486
54.0984366
38.45684949
27.18703379
19.42180164
14.30062227
10.67321236
8.080120053
6.219166122
4.877898208
3.904335473
3.1909442
2.662657987
2.267039403
1.967068606
1.736244384
1.555711842
1.41312537
1.301608991
1.216231276
1.151340295
1.101560159
1.063511879
1.035485984
1.016114516
1.003636561
0.9960827841
0.9917369777
0.9893631563
0.9881619238
0.9876374998
0.9871128479
0.9864336603
0.9858664938
0.9856419546
0.9855891349
0.9856294857
0.9857306458
0.9858841296
0.9860953717
0.9863804306
0.9867669712
0.9872993428
0.9880500992
0.9891460005
0.990830859
0.9936881927
936546.6478
443689.3273
225988.1498
82053.42429
18295.16809
4695.230421
2163.729703
1237.007948
737.6272861
450.1334275
279.186802
176.1905046
112.957068
74.33015501
51.92643805
36.62628249
25.73401597
18.32848025
13.46842073
10.0340621
7.593399751
5.854157742
4.607716045
3.705761479
3.045517686
2.556367454
2.189454134
1.910538943
1.695241644
1.526218528
1.39212877
1.286687734
1.205645201
1.143890641
1.096430932
1.06011698
1.033361065
1.014870795
1.002960451
0.995744978
0.9915865302
0.9893096476
0.9881556011
0.9876403618
0.9870989427
0.9864011561
0.9858760381
0.9856714103
0.9856291183
0.9856765133
0.9857838852
0.9859438919
0.9861624206
0.9864556608
0.986851244
0.9873933769
0.9881543745
0.9892605909
0.9909548578
0.9938151126
930226.5918
435265.4663
201572.1008
65802.1282
14013.97869
4158.327272
2065.492584
1192.416573
710.0822768
432.8831675
268.0334949
168.8128837
108.0260802
71.07577277
49.55669013
34.66875834
24.22601653
17.22356941
12.63377255
9.401850185
7.121755167
5.508023896
4.355796989
3.522863231
2.912766537
2.459942203
2.119316752
1.859474084
1.658130667
1.499451514
1.372960843
1.273014419
1.195909408
1.137007946
1.09166383
1.056940506
1.031359294
1.01369101
1.002314007
0.9954186118
0.9914387884
0.9892552226
0.9881478711
0.9876394591
0.9870823664
0.9863717843
0.9858860696
0.9857003818
0.9856683301
0.985722752
0.9858364304
0.9860031191
0.9862291572
0.9865308834
0.9869359196
0.9874883459
0.9882602238
0.9893773804
0.9910812341
0.9939423411
925355.3573
420531.114
176708.7927
52216.01273
11025.65625
3787.358209
1972.78363
1146.506717
681.3777898
414.7704934
256.2750848
161.0112938
102.8083896
67.63085559
47.0015049
32.60961091
22.67767757
16.12706817
11.80921137
8.788633531
6.674707337
5.185959253
4.124311539
3.35628152
2.792616736
2.373012986
2.056187846
1.813477964
1.624615302
1.475142961
1.355460931
1.260473795
1.186943609
1.130639742
1.087227726
1.053966133
1.029473352
1.012572609
1.001696859
0.995104122
0.9912943567
0.989200373
0.9881391469
0.9876349245
0.9870629261
0.9863455515
0.9858967042
0.9857290123
0.9857069203
0.985768357
0.9858884436
0.9860619805
0.986295755
0.9866062701
0.9870211579
0.9875843834
0.9883677349
0.989496387
0.9912099162
0.9940698152
921513.8237
400971.839
158966.8052
41520.86541
8954.612495
3516.330936
1884.923929
1097.92887
651.6534524
395.8846493
243.9697806
152.8303693
97.34092151
64.05169237
44.2810358
30.48338094
21.13015725
15.04745573
11.00830112
8.206563618
6.259234058
4.890629558
3.913890065
3.205790379
2.684508483
2.294946495
1.999490602
1.772084082
1.594330122
1.45305474
1.339464654
1.24895187
1.178669753
1.124735053
1.083091915
1.051177222
1.027695305
1.011512434
1.001108163
0.9948016318
0.9911536548
0.9891454924
0.9881298001
0.9876269402
0.9870404992
0.986322399
0.9859080248
0.9857574282
0.9857450289
0.9858134754
0.9859400784
0.9861206357
0.9863623768
0.9866819812
0.9871071066
0.9876816107
0.9884769831
0.9896176158
0.991340812
0.9941974594
916867.0734
378718.5794
142180.1393
32799.91468
7504.903106
3302.308808
1799.293832
1048.180013
621.0605287
376.3408795
231.2109899
144.3460861
91.7178576
60.38774389
41.43308299
28.33543111
19.61590053
13.99894321
10.24578897
7.665536448
5.879011982
4.622745243
3.724159041
3.070632249
2.587609026
2.224983269
1.948599319
1.734815505
1.566932437
1.432952108
1.324813669
1.238341078
1.171015002
1.119246309
1.079227445
1.048557728
1.026017199
1.010507078
1.000546814
0.9945110584
0.991016966
0.9890908929
0.9881201658
0.9876157188
0.9870150147
0.9863022294
0.9859200909
0.985785742
0.9857827866
0.9858582461
0.9859914797
0.9861792344
0.9864291743
0.9867581643
0.9871939006
0.9877801358
0.9885880302
0.9897410574
0.9914738116
0.9943251857
911558.7058
350489.7638
123240.0607
25557.80735
6472.036004
3114.418885
1714.975281
997.5839597
589.9054799
356.3565564
218.1505384
135.7037063
86.07774836
56.65100877
38.51104806
26.2024668
18.16287238
12.99726686
9.535151973
7.171069832
5.534897602
4.381700747
3.554086289
2.949717996
2.500938229
2.162315694
1.902886622
1.701203858
1.542094165
1.414612567
1.311359765
1.22854206
1.163912596
1.114129907
1.075607559
1.046092573
1.024431346
1.009553086
1.000011562
0.9942321793
0.9908844706
0.9890368166
0.9881105497
0.9876014894
0.9869864342
0.9862849231
0.9859329454
0.9858140547
0.9858203147
0.9859027992
0.9860427831
0.986237916
0.9864962876
0.9868349551
0.9872816616
0.987880053
0.9887009234
0.9898666874
0.9916087975
0.9944528945
903948.8121
328388.9252
106105.3376
19886.69432
5755.970322
2948.785938
1631.699713
947.0019856
558.6971099
336.2292034
205.0957375
127.1420466
80.3610307
52.84611459
35.58189317
24.14846392
16.79335946
12.05862335
8.885354838
6.724555036
5.225974925
4.166088466
3.402247259
2.84178862
2.423467075
2.106145233
1.861754909
1.670816668
1.51951253
1.397831667
1.298967596
1.219464818
1.157302379
1.10934655
1.072207991
1.043767901
1.022930523
1.008647099
0.9995011072
0.9939646872
0.9907562734
0.9889834455
0.9881012376
0.9875844903
0.9869547331
0.9862703513
0.9859466199
0.985842457
0.9858577256
0.9859472559
0.9860941149
0.9862968095
0.9865638456
0.9869124766
0.9873704976
0.9879814421
0.9888156951
0.9899944658
0.9917456377
0.9945804768
892724.6231
316973.0807
89344.78514
15601.64428
5269.779303
2800.222371
1548.381298
897.2632866
527.866486
316.6785049
192.1861224
118.5065397
74.62922684
48.96467129
32.72238105
22.22249254
15.52404414
11.19685184
8.299505672
6.324722907
4.950299545
3.974022254
3.267012
2.745528239
2.354181696
2.055715879
1.824653778
1.643261328
1.498914424
1.382425244
1.287515562
1.21102889
1.15113076
1.104861225
1.069007018
1.041571178
1.021508086
1.007785942
0.9990141617
0.9937082282
0.9906324265
0.988930909
0.9880925055
0.9875649658
0.9869198833
0.9862583839
0.9859611379
0.9858710308
0.9858951229
0.9859917287
0.9861455917
0.9863560334
0.9866319653
0.9869908388
0.9874605028
0.9880843678
0.9889323618
0.9901243361
0.9918841771
0.9947078154
877171.5587
312907.5291
72795.29803
12706.84534
4948.276797
2665.368555
1469.145263
849.9477786
498.4650318
297.1856643
179.20982
109.8796836
68.96032092
45.10093034
30.01072741
20.44627583
14.36607134
10.41951812
7.776366885
5.96891957
4.705368065
3.803387381
3.146696651
2.659651102
2.292129386
2.010336469
1.791089258
1.618189377
1.48005849
1.368230545
1.276896265
1.203163412
1.145350654
1.100643174
1.065985493
1.039491269
1.020158049
1.006966695
0.9985495003
0.9934624342
0.9905129479
0.9888792897
0.9880820465
0.9875431668
0.9868818353
0.9862488942
0.9859765174
0.9858998502
0.9859326017
0.9860363207
0.9861973202
0.9864156951
0.9867007514
0.987070138
0.9875517561
0.9881888786
0.9890509226
0.9902562221
0.9920242409
0.9948347863
857367.1956
297754.6866
56916.92814
10867.00083
4703.44629
2530.773849
1396.262104
804.0148024
469.068284
277.6646562
166.252225
101.3638241
63.44845505
41.3668314
27.50885459
18.83767548
13.3251891
9.726710253
7.312188985
5.653657935
4.488333231
3.651966067
3.039632335
2.582933393
2.236429173
1.9693808
1.760619999
1.595292085
1.462731522
1.355103661
1.267014663
1.195805766
1.139920538
1.096665288
1.063126494
1.037518258
1.018875015
1.006186677
0.9981059649
0.9932269316
0.990397831
0.9888287275
0.9880687405
0.987519354
0.9868405006
0.9862417621
0.9859927719
0.9859289815
0.9859702484
0.986081126
0.9862493969
0.986475891
0.9867702962
0.9871504568
0.9876443214
0.9882950063
0.9891713589
0.9903900269
0.9921656572
0.9949612553
833529.0218
273652.5471
43008.70423
9712.553674
4485.129672
2405.78283
1324.278528
758.5268952
439.8238232
258.2506408
153.4613714
93.10037967
58.20070507
37.87080997
25.25153251
17.40129537
12.39667551
9.113875276
6.902167569
5.375113824
4.29627822
3.517595385
2.944249904
2.514254962
2.186290233
1.9322944
1.732858828
1.574300119
1.446747853
1.342919112
1.257787781
1.188901315
1.134804231
1.092903961
1.060415262
1.035643452
1.017654201
1.005443474
0.9976824882
0.9930013588
0.9902870525
0.9887793828
0.9880528257
0.9874938055
0.9867957333
0.9862368749
0.9860099117
0.9859584843
0.9860081412
0.9861262294
0.9863019085
0.9865367059
0.9868406795
0.9872318635
0.9877382465
0.9884027654
0.9892936328
0.990525636
0.9923082629
0.9950870752
806136.5474
242031.0728
32143.23543
9047.84007
4286.145996
2283.812514
1253.892757
713.9064996
410.9823414
239.1430717
141.0357333
85.24745184
53.31446605
34.68905924
23.24648081
16.13181769
11.57694165
8.574363374
6.541050947
5.12937814
4.126355581
3.39823683
2.859109126
2.452607563
2.141010668
1.898589968
1.707467731
1.554979288
1.431946253
1.331567813
1.249143394
1.182402512
1.129970295
1.089338714
1.057838985
1.033859264
1.016491392
1.004734928
0.9972780971
0.992785372
0.9901805783
0.9887313931
0.9880345224
0.987466827
0.9867527047
0.9862341276
0.9860279444
0.9859884111
0.9860463499
0.9861717064
0.9863549309
0.9865982132
0.9869119675
0.9873144116
0.9878335626
0.9885121524
0.9894176868
0.9906629182
0.9924518727
0.9952120898
775272.5396
205314.3628
24877.35433
8595.292585
4091.111505
2165.894222
1185.524829
670.3997454
382.7236731
220.5412777
129.1828986
77.9406549
48.85539711
31.85271559
21.48272367
15.01730979
10.8575106
8.100732054
6.223449085
4.912613829
3.975864963
3.292007588
2.782905822
2.397091287
2.09997041
1.867840077
1.684151652
1.537125769
1.418186529
1.320954815
1.241018558
1.176267933
1.125391384
1.085951765
1.055386534
1.032159075
1.015382875
1.004059115
0.9968919058
0.9925786468
0.9900783667
0.9886848837
0.9880140317
0.9874385392
0.9867143727
0.986233423
0.9860468745
0.986018808
0.9860849359
0.9862176229
0.9864085296
0.9866604742
0.9869842131
0.987398139
0.9879302838
0.9886231444
0.9895434429
0.9908017249
0.9925962763
0.9953361401
740559.8288
167660.1216
20601.71299
8186.213893
3895.404594
2053.195554
1119.761693
628.3367396
355.2993901
202.716113
118.1223038
71.2843314
44.85628072
29.36037743
19.94181714
14.04365282
10.22836143
7.685703099
5.94427944
4.721298273
3.842379997
3.197243792
2.714501702
2.346927694
2.062636419
1.839678833
1.662658719
1.520565871
1.405349296
1.310999228
1.23335962
1.170462277
1.121044232
1.082728022
1.05304847
1.030537247
1.014325459
1.003414354
0.9965231294
0.992380887
0.9899803759
0.9886399787
0.9879915444
0.9874089334
0.9866804335
0.9862346705
0.9860667037
0.9860497143
0.986123952
0.986264035
0.9864627588
0.9867235374
0.9870574548
0.9874830674
0.9880284059
0.9887356987
0.989670802
0.9909418887
0.9927412505
0.9954590601
701643.6461
134052.4903
17896.34045
7789.044519
3710.115011
1945.940491
1056.747771
587.8392046
328.8986552
185.9186424
108.0063447
65.32208893
41.29911558
27.18753561
18.60049241
13.19502102
9.678781149
7.322004376
5.698623866
4.552107971
3.723655918
3.112428623
2.652870164
2.301420045
2.028534112
1.813781648
1.642766054
1.505146174
1.393329191
1.30162964
1.226119186
1.164954378
1.116908351
1.079654237
1.050816513
1.028988815
1.013316305
1.002799135
0.9961710478
0.9921918103
0.9898865594
0.9885968096
0.987967248
0.9873779806
0.9866506099
0.9862377856
0.9860874309
0.9860811624
0.9861634427
0.986310989
0.9865176617
0.9867874388
0.9871317165
0.9875692019
0.988127906
0.9888497519
0.9897996431
0.9910832236
0.9928865573
0.9955806784
658958.0006
105010.631
16243.12591
7429.314176
3535.919631
1844.74532
996.7893838
549.1218545
303.8007327
170.4067685
98.92845276
60.05989268
38.18268065
25.30239676
17.4356687
12.45624269
9.198742099
7.0029836
5.482058199
4.402093853
3.617721952
3.036240902
2.59712205
2.259967225
1.99725511
1.789869725
1.624282505
1.490735273
1.382036087
1.292785022
1.219256791
1.159717665
1.112966327
1.076719202
1.048683673
1.027509568
1.01235298
1.002212143
0.9958350245
0.9920111598
0.9897968716
0.9885555275
0.9879413319
0.9873456167
0.9866246494
0.9862426884
0.9861090513
0.9861131779
0.9862034432
0.9863585208
0.9865732693
0.9868522004
0.9872070059
0.9876565293
0.9882287409
0.9889652179
0.9899298218
0.9912255222
0.9930319442
0.9957008203
612567.5624
80866.07738
15162.98682
7107.836284
3373.356887
1750.16586
940.1752462
512.4013482
280.3055981
156.3623152
90.90710643
55.46581537
35.47708337
23.67086089
16.42505887
11.81303951
8.779008446
6.722623823
5.290639413
4.268658308
3.522857869
2.967535239
2.546490384
2.222052662
1.9684495
1.76770478
1.607045088
1.477221418
1.371393546
1.284413766
1.212738317
1.154729812
1.109203608
1.07391361
1.046644168
1.026096011
1.011433444
1.001652263
0.99551451
0.9918387064
0.9897112691
0.9885163167
0.9879139956
0.9873117261
0.9866023216
0.9862493024
0.9861315553
0.9861457774
0.9862439777
0.9864066529
0.9866295974
0.9869178268
0.9872833108
0.9877450137
0.9883308417
0.9890819829
0.9900611647
0.9913685513
0.9931771402
0.9958193002
562112.4665
62025.7081
14478.85087
6826.005969
3222.941358
1662.631717
887.1614488
477.8959095
258.6854759
143.8607656
83.90106384
51.48386706
33.13889444
22.25987424
15.54796688
11.25237871
8.41127462
6.475580786
5.120899982
4.149534374
3.437570821
2.905321578
2.500314006
2.187231884
1.941816621
1.747082319
1.590914121
1.46450899
1.361336288
1.276471878
1.20653474
1.149971864
1.105607884
1.071229628
1.044693131
1.024745179
1.01055594
1.001118512
0.995209011
0.9916742341
0.9896297005
0.9884794046
0.9878854582
0.9872761186
0.9865834135
0.9862575537
0.9861549293
0.9861789703
0.9862850614
0.9864553974
0.9866866496
0.9869843083
0.9873606032
0.9878346009
0.9884341197
0.9891999107
0.9901934768
0.9915120609
0.9933218647
0.9959359284
506112.0658
49162.07883
14158.19057
6553.386378
3084.978382
1582.102886
837.7688706
445.727395
239.0846787
132.858715
77.81960539
48.04124647
31.11846802
21.03729144
14.78473026
10.76205456
8.087856145
6.256958652
4.969687871
4.042673301
3.360517316
2.848711549
2.458000903
2.155107538
1.917088069
1.727820073
1.575765349
1.452513159
1.351806598
1.268920613
1.200620583
1.145427245
1.102168461
1.068660501
1.042826379
1.023454506
1.009718921
1.000610015
0.9949180781
0.9915175359
0.9895520991
0.9884450777
0.9878559749
0.987238504
0.9865677272
0.9862673703
0.9861791555
0.9862127588
0.9863266997
0.9865047549
0.9867444163
0.98705162
0.9874388368
0.9879252167
0.9885384634
0.9893188411
0.9903265397
0.9916557813
0.9934658228
0.9960505139
443673.3775
40818.13714
14007.81611
6283.698973
2959.09236
1508.393159
791.9512298
415.9996068
221.5435376
123.2528502
72.55799753
45.06624634
29.37007225
19.97519789
14.11845207
10.33165945
7.802244233
6.062633255
4.834359388
3.946362583
3.290577383
2.796966263
2.419059711
2.125350543
1.894042113
1.709767923
1.561496816
1.441164634
1.342757582
1.261728685
1.194975414
1.141082745
1.098876883
1.066200934
1.041040636
1.022221952
1.00892113
1.000126041
0.9946413264
0.9913684225
0.9894783757
0.988413701
0.9878258626
0.9871984588
0.9865550783
0.9862786805
0.9862042102
0.9862471359
0.9863688871
0.986554713
0.9868028726
0.9871197195
0.9875179456
0.9880167644
0.9886437368
0.9894385876
0.9904601106
0.9917994223
0.9936087028
0.9961628764
373301.5915
35566.9068
13927.57513
6043.635992
2846.077833
1441.727545
749.8183971
388.8461991
206.0211449
114.9105759
68.01065741
42.49230398
27.85295775
19.04928353
13.53447383
9.952194084
7.548826537
5.889056158
4.712643385
3.859132517
3.226790464
2.749452313
2.38306945
2.097679213
1.872489238
1.69279786
1.548021886
1.430404831
1.334149872
1.254870058
1.189582383
1.136927557
1.095726317
1.06384671
1.039333302
1.021045873
1.008161525
0.9996659676
0.9943784219
0.9912267187
0.9894083978
0.9883857402
0.9877955409
0.9871553817
0.9865452934
0.9862914123
0.9862300639
0.9862820854
0.9864116064
0.9866052453
0.9868619774
0.9871885455
0.9875978423
0.9881091236
0.9887497775
0.9895589355
0.9905939207
0.9919426706
0.9937501793
0.9962728409
292260.8123
32328.13497
13859.76884
5829.802648
2744.753507
1381.451618
711.0429885
364.1471208
192.318795
107.6345006
64.05834771
40.25142972
26.52799263
18.2367365
13.01922399
9.615416815
7.32250879
5.733029891
4.602505822
3.779673834
3.168305072
2.705610964
2.34966071
2.071847823
1.852265254
1.676799885
1.53526684
1.420184484
1.325950819
1.248323496
1.184427995
1.132953203
1.092711539
1.061594695
1.037702474
1.01992505
1.007439308
0.9992293067
0.9941290974
0.9910922752
0.9893419631
0.9883617868
0.9877655959
0.9871086782
0.9865382085
0.9863054905
0.9862566767
0.9863175768
0.9864548225
0.9866563045
0.9869216652
0.9872580089
0.9876784075
0.9882021377
0.9888563835
0.9896796291
0.9907276608
0.9920851747
0.9938899017
0.9963802166
193825.2171
30565.37985
13771.82962
5643.891049
2655.931567
1327.762225
675.6464021
341.8730688
180.1728991
101.2911268
60.61388788
38.29226069
25.3647457
17.51973789
12.56204357
9.314827218
7.119259604
5.592017559
4.502329762
3.706944441
3.11444313
2.664997426
2.318539823
2.047661537
1.833240507
1.661687649
1.523174279
1.410465661
1.318135659
1.242073198
1.179502419
1.12915362
1.089828909
1.059442767
1.03614686
1.018858605
1.006753861
0.9988156594
0.9938931283
0.9909649628
0.9892787434
0.9883382471
0.9877368521
0.9870672404
0.9865336662
0.9863208379
0.9862840027
0.9863535704
0.9864984892
0.98670783
0.9869818552
0.9873280027
0.9877595019
0.9882956284
0.9889633292
0.989800389
0.9908610014
0.9922265674
0.9940275178
0.9964848166
62068.89775
29968.35666
13555.90883
5483.809415
2578.737421
1280.053919
641.9039691
321.1593278
169.419326
95.71956443
57.58518789
36.56392027
24.33442394
16.88167639
12.1531075
9.044488601
6.93542547
5.463735167
4.410668003
3.640016787
3.064604422
2.627220288
2.28945005
2.024951304
1.815303498
1.647387682
1.511695994
1.401216998
1.310684305
1.236106646
1.174798063
1.125524254
1.087075796
1.057389455
1.034665559
1.017845884
1.006104689
0.9984246919
0.9936703236
0.9908446887
0.9892186839
0.9883147339
0.9877094413
0.9870307563
0.9865315148
0.9863373743
0.9863119881
0.9863900156
0.9865425466
0.986759745
0.9870424478
0.9873983985
0.9878409626