/*--------------------------------*- C++ -*----------------------------------*\
  =========                 |
  \\      /  F ield         | OpenFOAM: The Open Source CFD Toolbox
   \\    /   O peration     | Website:  https://openfoam.org
    \\  /    A nd           | Version:  12
     \\/     M anipulation  |
\*---------------------------------------------------------------------------*/
FoamFile
{
    format      ascii;
    class       volScalarField;
    location    "1200";
    object      p;
}
// * * * * * * * * * * * * * * * * * * * * * * * * * * * * * * * * * * * * * //

dimensions      [1 -1 -2 0 0 0 0];

internalField   nonuniform List<scalar> 
16200
(
79508.56688
79515.41257
79524.43324
79536.14416
79551.49679
79571.78357
79598.97806
79635.05229
79680.28376
79734.55059
79799.17959
79876.09868
79967.18374
80075.56525
80203.77174
80355.96794
80535.87835
80748.77422
80999.97022
81296.10139
81644.2858
82052.73515
82530.2957
83086.50752
83731.08735
84473.31985
85320.86907
86278.04951
87343.41062
88506.809
89746.66864
91029.08605
92310.6103
93544.8306
94690.37483
95717.01206
96608.02252
97359.21323
97976.13193
98470.87103
98859.19009
99158.18847
99384.57889
99553.55338
99678.18321
99769.22344
99835.22755
99882.80539
99916.9549
99941.39045
99958.83652
99971.27334
99980.12654
99986.42437
99990.89004
99994.07611
99996.29004
99997.99732
99998.73346
100000.0123
78406.98935
78415.22938
78424.83809
78437.79159
78454.99018
78477.91322
78509.03268
78549.70855
78600.32757
78660.69985
78732.43361
78817.82468
78918.84653
79039.08253
79181.23498
79349.98093
79549.42164
79785.4419
80063.98731
80392.50104
80779.01788
81232.80042
81763.84135
82382.84586
83100.56986
83926.92415
84869.3575
85930.52996
87105.16964
88376.55313
89714.1054
91074.54054
92407.85308
93666.36277
94812.81466
95824.42448
96692.51236
97419.46055
98015.02593
98493.21872
98870.0236
99161.80546
99384.18551
99551.29452
99675.34925
99766.50262
99832.9232
99881.0005
99915.62023
99940.45043
99958.20528
99970.87149
99979.88915
99986.29851
99990.84223
99994.06812
99996.31305
99998.02391
99998.73781
100000.0157
77486.10732
77495.29303
77506.07479
77520.65659
77540.10568
77566.18358
77601.69247
77647.2546
77703.2716
77769.86018
77848.91161
77943.13932
78054.59103
78187.39693
78344.51063
78531.22835
78752.16884
79013.9667
79323.3572
79688.71744
80119.11384
80624.92781
81217.31864
81908.07028
82708.69637
83629.12992
84675.53579
85847.21963
87132.69
88505.99085
89925.83946
91340.07299
92694.99753
93945.65543
95062.42124
96032.07752
96854.71558
97539.12487
98098.72763
98548.85312
98905.18432
99182.90213
99396.14451
99557.63005
99678.41217
99767.77846
99833.29896
99880.9759
99915.45788
99940.27571
99958.0689
99970.78618
99979.85099
99986.29653
99990.86754
99994.10549
99996.36013
99998.06762
99998.76011
100000.0594
76760.29224
76770.2872
76782.77596
76799.39919
76821.62851
76851.63496
76892.12492
76943.28676
77005.51401
77079.52937
77167.3436
77272.19751
77396.2318
77544.19859
77719.35234
77927.64931
78174.26558
78466.60793
78812.24665
79220.54688
79701.69622
80267.27799
80929.63446
81701.46086
82594.54746
83617.91157
84774.86325
86059.00376
87449.7447
88909.57319
90386.27208
91821.38328
93161.96379
94370.1732
95426.91143
96329.59755
97086.84291
97712.9918
98224.21062
98636.40498
98964.42948
99221.91202
99421.22555
99573.43563
99688.21531
99773.79152
99836.96673
99883.2154
99916.83733
99941.1404
99958.62554
99971.15707
99980.1083
99986.4825
99991.00811
99994.21289
99996.44437
99998.1312
99998.78834
100000.0858
76255.55919
76266.74352
76281.33739
76300.42837
76326.03074
76360.87249
76407.22902
76465.04988
76534.67831
76617.56633
76715.78586
76833.13688
76971.80953
77137.1967
77332.8908
77565.56293
77841.05681
78167.6794
78554.01698
79010.58461
79548.80496
80181.43976
80921.78876
81782.94598
82776.07092
83907.79274
85176.34223
86566.73397
88046.60944
89566.04064
91064.02908
92480.50542
93768.52726
94901.21544
95871.62061
96687.56388
97364.94821
97922.22635
98377.09018
98745.1731
99039.98287
99273.29903
99455.55409
99596.03589
99702.9296
99783.29979
99843.08668
99887.15261
99919.3774
99942.78864
99959.70423
99971.87072
99980.58678
99986.80825
99991.23426
99994.37186
99996.5573
99998.21148
99998.8279
100000.1248
75979.3908
75992.08009
76009.18375
76031.22483
76060.90724
76101.52101
76154.74629
76220.00385
76297.62815
76389.85814
76498.94387
76629.4965
76783.86749
76968.20129
77186.56212
77446.46067
77754.55334
78120.12953
78552.83576
79064.28013
79666.9737
80374.58473
81200.91935
82158.70024
83257.1616
84498.51793
85873.15859
87354.64087
88897.33384
90440.30022
91918.20608
93275.13533
94474.91274
95504.03412
96367.80992
97083.14161
97671.4247
98153.5806
98547.61811
98868.14234
99126.91055
99333.67312
99496.85424
99623.93676
99721.59481
99795.69832
99851.28482
99892.56053
99922.94287
99945.14152
99961.26002
99972.9023
99981.27333
99987.26727
99991.54334
99994.58117
99996.69881
99998.30797
99998.87651
100000.1679
75907.18961
75921.71107
75941.73933
75967.33233
76002.01297
76049.21759
76109.85331
76182.51311
76269.12601
76372.81581
76495.40791
76642.22134
76815.81189
77023.12315
77268.72918
77560.96925
77907.32405
78318.03069
78803.77419
79377.20201
80051.81099
80841.90473
81761.18159
82820.83092
84026.29069
85372.76359
86839.88337
88387.72604
89957.92629
91482.39543
92897.4275
94156.87388
95238.66961
96143.35116
96887.24933
97494.29758
97989.35782
98394.23138
98726.18928
98998.21431
99220.04669
99399.33721
99542.52495
99655.33851
99742.98475
99810.16336
99861.01471
99899.08087
99927.30139
99948.05008
99963.19863
99974.19308
99982.13206
99987.8382
99991.92321
99994.83408
99996.86597
99998.41951
99998.93456
100000.2188
76032.72577
76049.69273
76072.93896
76102.68547
76143.44041
76198.1492
76267.12244
76349.10897
76447.04397
76564.01383
76702.16271
76867.61045
77063.10673
77296.42898
77572.74631
77901.27378
78290.41654
78751.42533
79296.08069
79938.01296
80691.43812
81570.6589
82588.12391
83751.75162
85060.81922
86500.72348
88037.97124
89618.80974
91175.09779
92637.35146
93949.74707
95080.24384
96022.31524
96789.57386
97407.19459
97903.79299
98305.75546
98634.4113
98905.48583
99129.94364
99315.38268
99467.38144
99590.48753
99688.78088
99766.09057
99826.00896
99871.81699
99906.41048
99932.25585
99951.38811
99965.44064
99975.69409
99983.13357
99988.504
99992.36453
99995.12567
99997.05666
99998.5452
99999.00139
100000.2766
76342.44034
76362.38684
76389.32729
76424.03195
76472.11994
76535.05784
76613.09231
76705.7204
76815.50167
76946.93785
77102.06289
77287.96719
77507.68907
77769.88832
78080.44211
78449.49563
78886.45685
79403.57763
80013.6229
80730.87726
81569.64563
82543.20684
83661.27366
84926.47199
86329.37691
87843.04029
89419.6972
90993.64527
92492.13451
93850.8886
95027.29349
96005.80525
96794.96707
97419.29662
97910.18302
98298.62866
98610.88507
98866.77652
99079.93947
99259.11174
99409.74436
99535.44546
99639.01285
99723.01796
99790.0296
99842.62011
99883.26999
99914.26476
99937.61714
99955.03202
99967.90675
99977.35553
99984.24742
99989.24668
99992.85717
99995.45056
99997.26847
99998.68409
99999.07674
100000.342
76808.90146
76832.3176
76863.50021
76904.08156
76960.37327
77031.94187
77119.38752
77223.90966
77347.9093
77496.40981
77671.43367
77881.06465
78128.71924
78423.97181
78773.50237
79188.40182
79679.08232
80258.65406
80940.57191
81739.24868
82668.26566
83738.69085
84955.81054
86314.67112
87794.53782
89354.32108
90932.75169
92456.45326
93854.66646
95074.5112
96090.07371
96902.57799
97533.65415
98015.88686
98384.22698
98670.07027
98898.25557
99086.40232
99245.75787
99382.78157
99500.86498
99601.79832
99686.79911
99757.08784
99814.10404
99859.49978
99895.02595
99922.40459
99943.22369
99958.87461
99970.52724
99979.13311
99985.44623
99990.04994
99993.39191
99995.80384
99997.49917
99998.83525
99999.16025
100000.4152
77417.93908
77445.39744
77481.50728
77529.26528
77594.91387
77677.21316
77776.69042
77894.35978
78033.63187
78200.81231
78397.81777
78633.78071
78912.60829
79244.80845
79637.89592
80103.79542
80653.76495
81301.4859
82060.69674
82945.32146
83967.2633
85133.92396
86444.06124
87882.52452
89414.99637
90986.00554
92523.99511
93954.15544
95214.52798
96268.26477
97107.39376
97748.34303
98222.9063
98568.74236
98822.00028
99012.90569
99164.00392
99290.30904
99400.577
99499.05418
99587.22193
99665.23367
99732.90737
99790.27457
99837.77943
99876.25726
99906.8049
99930.63322
99948.93986
99962.82418
99973.24141
99980.98759
99986.70537
99990.89889
99993.96019
99996.18092
99997.74662
99998.99778
99999.25167
100000.4963
78150.40467
78182.58417
78224.4531
78280.47146
78355.36087
78447.80019
78559.95994
78693.54309
78850.99806
79040.08385
79262.7399
79529.10045
79843.54645
80217.41082
80659.00939
81181.0001
81795.40718
82516.29316
83357.2754
84330.99866
85446.35841
86705.11304
88096.92051
89593.88902
91147.0719
92688.73975
94142.62573
95439.59088
96532.16844
97401.92081
98057.92254
98528.97505
98853.76336
99072.26555
99219.93006
99324.70889
99406.33152
99477.0484
99543.16828
99606.86872
99667.90561
99724.98745
99776.71268
99822.08108
99860.67105
99892.60229
99918.39303
99938.79661
99954.65703
99966.80575
99975.99866
99982.88568
99988.00358
99991.78046
99994.55436
99996.57762
99998.00884
99999.17081
99999.35078
100000.5858
78993.83788
79031.51225
79080.07336
79145.58819
79232.93707
79339.04874
79465.36512
79616.50795
79794.16535
80007.39134
80258.10953
80557.52023
80910.60061
81329.55385
81823.6311
82406.22737
83089.98995
83888.90487
84815.61492
85880.16283
87086.55934
88428.47651
89883.84332
91410.41634
92945.73687
94414.51417
95742.80017
96873.65369
97777.67272
98454.83271
98928.73604
99237.11842
99422.42094
99524.66403
99577.21764
99605.07924
99624.93161
99646.28226
99673.13488
99705.78797
99742.47128
99780.63831
99817.83882
99852.18772
99882.51833
99908.32988
99929.63392
99946.7786
99960.29104
99970.7598
99978.75789
99984.79973
99989.32282
99992.68331
99995.16764
99996.99017
99998.28401
99999.35351
99999.45729
100000.6838
79937.42764
79981.53378
80038.24714
80115.04414
80215.372
80335.14583
80476.57048
80646.33079
80845.56916
81084.91464
81366.25541
81702.00131
82097.88004
82566.92865
83119.23459
83768.57772
84527.6577
85409.54018
86424.73031
87579.05792
88869.45083
90278.9279
91771.71536
93291.4754
94765.95342
96118.90789
97285.74889
98226.4329
98930.69048
99414.93727
99713.85971
99870.66494
99928.87258
99926.84258
99894.98045
99854.99661
99820.51298
99798.43485
99790.66047
99795.81921
99810.81345
99832.02117
99856.10035
99880.41425
99903.16069
99923.30528
99940.41951
99954.49567
99965.77931
99974.64071
99981.48676
99986.70741
99990.64816
99993.59784
99995.79415
99997.41523
99998.57045
99999.54501
99999.57074
100000.7906
80958.11868
81010.0294
81076.29239
81164.35872
81277.39462
81413.43556
81573.10705
81765.10091
81989.95507
82260.15045
82577.48924
82955.5068
83400.58602
83926.3306
84543.36684
85265.41822
86104.66819
87072.41049
88175.65382
89413.98847
90774.72343
92228.01599
93723.97074
95194.89942
96564.67901
97763.3076
98741.18618
99477.37557
99979.53099
100277.2576
100412.6342
100431.2686
100375.691
100281.4607
100175.5464
100076.301
99994.41841
99934.41361
99896.30567
99877.26673
99873.06028
99879.15276
99891.45096
99906.68492
99922.51433
99937.449
99950.68069
99961.89111
99971.07731
99978.41475
99984.16048
99988.59111
99991.96748
99994.51601
99996.42884
99997.84984
99998.86664
99999.74444
99999.69063
100000.9064
82061.53628
82122.8381
82199.5708
82300.93897
82428.77836
82583.04591
82763.97071
82981.89015
83236.23599
83541.50368
83899.40602
84324.45262
84823.61603
85410.91353
86097.32166
86896.11597
87818.20576
88871.75501
90058.21345
91368.40712
92777.73233
94242.63776
95701.00927
97078.8954
98303.28617
99316.70333
100087.849
100614.6142
100919.7372
101042.2338
101028.1551
100923.055
100767.0344
100592.1965
100421.9176
100271.3034
100148.3407
100055.4008
99990.85461
99950.61904
99929.49127
99922.17237
99923.94158
99930.9993
99940.55242
99950.72363
99960.37868
99968.92961
99976.15522
99982.05805
99986.76075
99990.43726
99993.2711
99995.4312
99997.06737
99998.29137
99999.1712
99999.95092
99999.81711
100001.0314
83250.24731
83323.0452
83412.11401
83531.28211
83677.3158
83851.93366
84055.88262
84302.20672
84588.77157
84932.1279
85334.03779
85809.94942
86367.44054
87020.75603
87780.7954
88659.47343
89664.93198
90800.17207
92058.73253
93420.55502
94848.10909
96285.36018
97662.14932
98904.7331
99949.81089
100756.7028
101313.17
101633.7064
101752.4437
101714.1226
101565.93
101351.5899
101107.8919
100863.2076
100637.3868
100442.5095
100284.1217
100162.7052
100075.2041
100016.466
99980.47549
99961.29632
99953.6873
99953.40876
99957.28871
99963.1226
99969.49755
99975.59233
99980.99484
99985.5547
99989.27452
99992.2357
99994.55143
99996.338
99997.7061
99998.73754
99999.48283
100000.1637
99999.95181
100001.1659
84525.26361
84612.31407
84715.46896
84853.60868
85018.36448
85215.85463
85444.99396
85722.58908
86044.87178
86430.39493
86881.06062
87413.06849
88034.33079
88758.64624
89595.82791
90554.97974
91639.67424
92845.80738
94157.21432
95541.91054
96950.08359
98316.45021
99568.53216
100639.3793
101480.4219
102069.5752
102412.2193
102536.0431
102482.7422
102299.5993
102032.8047
101723.1046
101403.5438
101098.7577
100825.2768
100592.4352
100403.617
100257.6602
100150.2867
100075.4401
100026.427
99996.7844
99980.84252
99973.99834
99972.76454
99974.66119
99978.03806
99981.87283
99985.5869
99988.89505
99991.69302
99993.97907
99995.80265
99997.23204
99998.3419
99999.18631
99999.80034
100000.3824
100000.0983
100001.3103
85886.28369
85990.7084
86107.36761
86264.53999
86450.72434
86675.29941
86933.77356
87247.33519
87610.62373
88043.921
88549.09965
89142.57032
89831.98739
90629.73319
91543.3761
92577.84041
93730.62966
94989.03815
96326.07178
97697.91414
99044.78325
100297.0118
101386.105
102257.4218
102879.8857
103249.4637
103386.2176
103327.2085
103118.2361
102806.6393
102436.1662
102043.9554
101659.2015
101302.9766
100988.776
100723.4892
100508.6101
100341.5599
100217.0206
100128.1772
100067.7741
100028.9159
100005.5826
99992.87309
99987.0389
99985.36934
99986.01268
99987.77366
99989.92878
99992.07424
99994.01081
99995.66223
99997.02037
99998.10982
99998.97218
99999.63588
100000.1226
100000.6069
100000.2593
100001.4648
87348.03144
87472.58194
87604.4354
87783.8977
87993.14481
88248.54949
88540.25168
88893.69171
89301.94604
89786.64187
90349.3617
91006.07494
91763.61545
92632.06809
93615.73579
94714.13962
95917.28154
97202.54568
98531.67967
99850.54881
101093.4231
102192.1052
103087.8447
103741.8848
104141.0351
104297.003
104240.8814
104015.4684
103667.8573
103243.6818
102783.3883
102320.2692
101879.784
101479.7166
101130.8438
100837.9072
100600.763
100415.6193
100276.2781
100175.2906
100104.9381
100057.973
100028.0911
100010.1481
100000.181
99995.28625
99993.44169
99993.30363
99994.02273
99995.09101
99996.22502
99997.28183
99998.20136
99998.96856
99999.59469
100000.0847
100000.4486
100000.8372
100000.4305
100001.6293
88919.3178
89067.86805
89219.34614
89426.04752
89659.58423
89947.29597
90273.90995
90668.71987
91123.19721
91659.9072
92279.99164
92998.3325
93820.42067
94753.12778
95796.30239
96942.56871
98172.88879
99453.96224
100737.2147
101961.5161
103060.525
103973.2951
104655.0088
105084.072
105263.6019
105217.7286
104984.8893
104610.5406
104140.9937
103619.0617
103081.4844
102557.7392
102069.7989
101632.4819
101254.1651
100937.72
100681.592
100480.9548
100328.8683
100217.3564
100138.3212
100084.2303
100048.5506
100025.9417
100012.2647
100004.4563
100000.3502
99998.47573
99997.87435
99997.9467
99998.33472
99998.83588
99999.34332
99999.80605
100000.2075
100000.5312
100000.7774
100001.0732
100000.6096
100001.8036
90599.58383
90775.86372
90947.20397
91181.46716
91440.56061
91761.89814
92124.75781
92561.93585
93063.31492
93651.9258
94328.4548
95105.91088
95987.64346
96976.00658
98064.76667
99238.06384
100466.9096
101707.9637
102905.1232
103995.063
104916.4288
105620.0865
106077.1936
106282.5118
106252.6144
106020.4522
105628.542
105122.6329
104546.8675
103940.6391
103336.9009
102761.5163
102233.2875
101764.401
101361.1353
101024.7431
100752.4589
100538.5757
100375.5288
100254.9054
100168.2986
100107.9476
100067.1374
100040.3704
100023.3653
100012.9262
100006.7661
100003.3055
100001.4915
100000.6445
100000.3404
100000.3234
100000.4447
100000.6205
100000.8091
100000.9742
100001.1081
100001.3145
100000.7978
100001.9869
92375.34142
92581.02322
92772.05162
93037.00567
93323.25289
93679.26199
94079.72
94560.62747
95110.3961
95751.52318
96483.92966
97317.47189
98251.99129
99283.72352
100398.8591
101572.2944
102765.6224
103927.8532
104999.587
105920.5359
106639.0131
107120.3217
107351.5291
107341.4622
107116.7659
106715.8633
106182.7405
105561.7834
104894.1516
104215.6004
103555.4274
102936.1764
102373.8191
101878.2312
101453.8671
101100.5826
100814.5736
100589.384
100416.9242
100288.4201
100195.2149
100129.3667
100084.0177
100053.5462
100033.556
100020.7429
100012.7182
100007.81
100004.8834
100003.1887
100002.2435
100001.7442
100001.5043
100001.4107
100001.398
100001.4124
100001.4399
100001.5609
100000.9921
100002.1792
94248.40972
94478.78588
94683.20843
94979.42017
95297.14726
95691.91876
96133.9779
96661.8242
97262.59172
97956.64643
98742.4593
99625.36014
100600.359
101656.5302
102771.9244
103912.7026
105033.0153
106077.8409
106989.1941
107714.3966
108214.4343
108469.6391
108481.3051
108269.2753
107866.9451
107315.4235
106658.2611
105937.4406
105190.759
104450.3718
103742.1763
103085.7316
102494.513
101976.3807
101534.2086
101166.648
100869.003
100634.1799
100453.6477
100318.3346
100219.3829
100148.7095
100099.3458
100065.5744
100042.9073
100027.9521
100018.2354
100012.0066
100008.0601
100005.5847
100004.0461
100003.0988
100002.5217
100002.1754
100001.973
100001.8448
100001.7721
100001.8114
100001.1855
100002.3813
96202.50409
96467.17715
96698.82708
97028.36068
97380.45724
97816.75666
98302.5691
98877.21753
99527.09361
100268.9318
101099.0301
102017.2923
103013.0119
104067.6943
105151.5405
106223.515
107233.2976
108125.9615
108849.2413
109361.2681
109636.833
109670.2236
109474.3355
109076.8475
108515.0264
107830.5523
107065.2769
106258.2223
105443.7469
104650.6033
103901.6043
103213.6635
102598.0719
102060.9378
101603.7666
101224.1688
100916.6822
100673.6686
100486.2256
100345.0367
100241.0846
100166.1774
100113.2635
100076.5527
100051.4853
100034.5975
100023.3459
100015.9129
100011.0318
100007.8378
100005.751
100004.3877
100003.4966
100002.9138
100002.5331
100002.2704
100002.1041
100002.0637
100001.3712
100002.5949
98281.64449
98584.08143
98842.67631
99205.64216
99590.57289
100065.7225
100592.0918
101207.6782
101898.6157
102677.0216
103536.1529
104469.7962
105460.9558
106483.7181
107501.5656
108468.7264
109333.9845
110046.4807
110562.9157
110853.775
110907.1518
110729.1447
110341.3129
109776.2926
109072.9536
108272.0789
107413.0792
106531.8079
105659.3046
104821.2012
104037.5601
103322.9719
102686.8244
102133.7048
101663.9316
101274.2139
100958.4277
100708.469
100515.1225
100368.8712
100260.5722
100181.9524
100125.8999
100086.5712
100059.3514
100040.7203
100028.0764
100019.5457
100013.8088
100009.9541
100007.361
100005.6122
100004.4289
100003.6253
100003.0771
100002.6883
100002.4351
100002.314
100001.556
100002.8195
100480.9587
100823.2422
101108.9239
101503.6205
101917.9231
102426.471
102987.6323
103635.9454
104356.9367
105157.3379
106026.5479
106951.8127
107909.8584
108868.3427
109786.0922
110615.7255
111308.7382
111821.5184
112121.5563
112191.6891
112031.6661
111656.7832
111094.4794
110379.9958
109552.1656
108649.9522
107709.9735
106764.9399
105842.8044
104966.3956
104153.3509
103416.2324
102762.7722
102196.2349
101715.906
101317.7109
100994.9516
100739.1238
100540.7481
100390.1436
100278.0708
100196.1979
100137.3718
100095.712
100066.5624
100046.3589
100032.4523
100022.9213
100016.4012
100011.9392
100008.879
100006.7734
100005.3187
100004.3093
100003.6043
100003.0978
100002.7639
100002.56
100001.751
100003.0511
102788.0623
103167.34
103475.0646
103900.2627
104342.2854
104879.0922
105468.1849
106139.2946
106876.8465
107681.6074
108538.7103
109429.0433
110323.8298
111186.1028
111972.7187
112637.9191
113138.9189
113441.3253
113523.8177
113380.4196
113020.3004
112465.3492
111746.5248
110899.9084
109963.2108
108973.0758
107963.2461
106963.4567
105998.8616
105089.8051
104251.8017
103495.6464
102827.6296
102249.8621
101760.7269
101355.4633
101026.8736
100766.1073
100563.4622
100409.1242
100293.7806
100209.0602
100147.7846
100104.0495
100073.1703
100051.5486
100036.4974
100026.0552
100018.8186
100013.7988
100010.3083
100007.8727
100006.1663
100004.9654
100004.114
100003.4983
100003.0895
100002.8004
100001.959
100003.2861
105196.0791
105608.2003
105934.8
106384.4202
106848.9307
107405.8392
108012.4852
108692.8468
109429.9283
110218.1819
111038.3979
111865.8599
112667.7302
113404.7469
114034.6124
114515.9572
114813.7045
114903.3693
114774.084
114429.2198
113885.0097
113167.6441
112309.7688
111347.0848
110315.5384
109249.2557
108179.1948
107132.3602
106131.4105
105194.5083
104335.3166
103563.0906
102882.8622
102295.7315
101799.2875
101388.1666
101054.7322
100789.8342
100583.581
100426.0514
100307.8794
100220.6701
100157.233
100111.6515
100079.2223
100056.3223
100040.2337
100028.9619
100021.0701
100015.5387
100011.6518
100008.9115
100006.9721
100005.5933
100004.6055
100003.889
100003.4105
100003.0347
100002.1811
100003.5224
107686.9179
108127.2289
108469.248
108935.9015
109415.418
109982.3355
110594.0573
111267.6645
111984.669
112733.4204
113490.8786
114228.1115
114910.1636
115497.9353
115952.4213
116238.5521
116329.8223
116211.2773
115881.0541
115349.8086
114638.6816
113776.3243
112795.7528
111731.518
110617.4865
109485.2698
108363.2318
107275.9232
106243.8023
105283.1264
104405.9448
103620.169
102929.7272
102334.8287
101832.3607
101416.4248
101078.9977
100810.6677
100601.3828
100441.1363
100320.5251
100231.1443
100165.8021
100118.5792
100084.7619
100060.71
100043.6816
100031.6549
100023.1647
100017.164
100012.9127
100009.8914
100007.7365
100006.1927
100005.0782
100004.2695
100003.7256
100003.2628
100002.4177
100003.7575
110245.7333
110706.7656
111059.4344
111535.2958
112019.9079
112583.4125
113184.5712
113832.6964
114507.9139
115193.2699
115862.8968
116485.3434
117025.532
117446.6548
117714.7396
117801.9682
117690.3075
117373.2485
116856.187
116155.0991
115294.2463
114303.3725
113214.9907
112062.0757
110876.3238
109686.9578
108519.9865
107397.7861
106338.8892
105357.8919
104465.436
103668.2553
102969.3052
102368.0049
101860.6161
101440.7638
101100.081
100828.9269
100617.1133
100454.5658
100331.8586
100240.5874
100173.5686
100124.8878
100089.8285
100064.7392
100046.8601
100034.147
100025.1105
100018.6801
100014.094
100010.8139
100008.4601
100006.7636
100005.5319
100004.6392
100004.0331
100003.485
100002.6683
100003.9895
112852.161
113323.3838
113680.2451
114155.5894
114633.8783
115178.1779
115750.8428
116353.5797
116965.3427
117564.908
118124.7875
118612.7253
118995.2795
119239.5171
119317.4591
119208.6526
118902.7712
118400.3246
117712.2333
116858.1131
115863.9746
114759.7091
113576.8022
112346.4691
111098.2904
109859.2924
108653.3833
107501.0303
106419.0861
105420.6992
104515.2794
103708.5236
103002.524
102395.994
101884.6342
101461.6413
101118.3414
100844.8919
100630.9889
100466.5057
100342.0052
100249.0931
100180.6015
100130.6276
100094.4579
100068.4353
100049.7869
100036.45
100026.9153
100020.0918
100015.1985
100011.6805
100009.1435
100007.3058
100005.9661
100004.9976
100004.3316
100003.7017
100002.9326
100004.2158
115488.3256
115955.6351
116303.8127
116761.2394
117219.9909
117729.6738
118256.4811
118795.2391
119324.2335
119819.1707
120252.233
120591.9439
120807.857
120871.8679
120762.2386
120465.384
119977.5574
119304.8035
118462.0356
117471.18
116359.0151
115154.9773
113889.2558
112591.2863
111288.6726
110006.4667
108766.7259
107588.2512
106486.4325
105473.1539
104556.7434
103741.9789
103030.1819
102419.431
101904.9195
101479.4572
101134.0942
100858.8097
100643.2013
100477.1031
100351.0768
100256.7454
100186.9631
100135.8441
100098.683
100071.8217
100052.478
100038.5752
100028.5867
100021.4039
100016.2293
100012.4929
100009.7873
100007.8194
100006.3808
100005.344
100004.6193
100003.9138
100003.21
100004.432
118108.2714
118555.8593
118887.8734
119316.7334
119742.8437
120203.5679
120668.9475
121127.6474
121558.0236
121934.043
122228.7528
122412.7133
122459.3152
122345.627
122055.8558
121582.431
120926.9568
120099.6611
119118.2046
118005.843
116789.4668
115497.7134
114159.3815
112802.2076
111452.0002
110132.0631
108862.8358
107661.6691
106542.6783
105516.6399
104590.926
103769.4958
103052.9773
102438.8739
101921.9174
101494.5659
101147.62
100870.9007
100653.9224
100486.4908
100359.1745
100263.6206
100192.7103
100140.5791
100102.5342
100074.9201
100054.949
100040.5331
100030.1317
100022.6211
100017.1892
100013.2527
100010.3923
100008.3046
100006.776
100005.6777
100004.895
100004.1227
100003.4992
100004.6327
120669.7476
121090.4761
121400.1322
121789.3073
122171.1761
122569.9739
122960.4477
123326.1661
123646.2721
123894.1989
124044.7338
124071.2718
123951.3655
123667.1204
123208.0604
122571.6453
121763.6744
120797.4301
119692.3754
118472.414
117164.1462
115795.2491
114393.1506
112984.024
111592.079
110239.0882
108944.0836
107723.155
106589.3046
105552.3344
104618.7673
103791.8276
103071.5152
102454.809
101936.0185
101507.2798
101159.1673
100881.3614
100663.3059
100494.788
100366.3899
100269.7882
100197.895
100144.8712
100106.0395
100077.7506
100057.2141
100042.3338
100031.5573
100023.748
100018.081
100013.9615
100010.9592
100008.7617
100007.1516
100005.9978
100005.1576
100004.3301
100003.7956
100004.8146
123157.5664
123536.281
123812.9812
124150.2966
124476.3943
124802.3502
125107.6065
125371.5783
125574.6438
125690.6425
125696.6103
125569.1452
125289.8897
124845.5509
124230.2014
123445.3746
122500.0763
121409.7637
120195.0245
118879.9702
117490.6934
116053.8732
114595.6549
113140.811
111712.148
110330.1078
109012.5013
107774.3216
106627.5961
105581.2653
104641.093
103809.6399
103086.3332
102467.6705
101947.5724
101517.8795
101168.9601
100890.3691
100671.4912
100502.103
100372.8065
100275.3116
100202.5651
100148.7559
100109.2254
100080.3325
100059.287
100043.9868
100032.87
100024.7889
100018.9078
100014.6213
100011.489
100009.1911
100007.5079
100006.3035
100005.4067
100004.5373
100004.0916
100004.9839
125521.1378
125851.5453
126091.2863
126370.4082
126633.7415
126880.1204
127094.098
127252.172
127336.2864
127321.3801
127186.9233
126912.7614
126484.3151
125892.3272
125134.6538
124216.0638
123147.9799
121947.3847
120635.5323
119236.4805
117775.7233
116278.9805
114771.2384
113276.037
111814.9644
110407.3107
109069.8294
107816.5578
106658.6663
105604.3293
104658.6286
103823.5212
103097.9092
102477.8461
101956.8931
101526.618
101177.201
100898.0849
100678.6052
100508.535
100378.5008
100280.2493
100206.7649
100152.2665
100112.1161
100082.6835
100061.1806
100045.5014
100034.0763
100025.7484
100019.6725
100015.2336
100011.9827
100009.5934
100007.845
100006.594
100005.6422
100004.7448
100004.3813
100005.1466
127748.5419
128020.4619
128215.8375
128430.1324
128625.4078
128788.8337
128909.596
128962.1512
128929.8965
128789.2374
128522.0386
128111.2488
127545.6553
126819.4537
125933.5995
124895.4115
123718.131
122419.811
121022.0822
119548.8141
118024.8949
116475.1681
114923.5991
113392.66
111902.8882
110472.5814
109117.5767
107851.0766
106683.4948
105622.3217
104672.0218
103834.0003
103106.6751
102485.688
101964.2667
101533.7267
101184.0757
100904.6568
100684.765
100514.1756
100383.5439
100284.6561
100210.536
100155.4341
100114.735
100084.8209
100062.9074
100046.8865
100035.1825
100026.6308
100020.3779
100015.8005
100012.4414
100009.9693
100008.1629
100006.8685
100005.8646
100004.9522
100004.6602
100005.3019
129797.578
130009.7162
130161.0333
130310.4632
130437.957
130520.258
130550.4116
130501.8593
130359.3771
130101.1195
129711.2273
129175.519
128485.7152
127638.924
126638.626
125494.1547
124220.1361
122835.3895
121361.7535
119822.86
118243.0343
116646.3488
115055.8879
113493.2083
111977.948
110527.5507
109157.0593
107878.9453
106702.9519
105635.9548
104681.8575
103841.558
103113.0259
102491.52
101969.9574
101539.4199
101189.7572
100910.2232
100690.0802
100519.1112
100388.0031
100288.5838
100213.9179
100158.2887
100117.1045
100086.7611
100064.4795
100048.1509
100036.195
100027.4406
100021.0271
100016.3239
100012.8663
100010.3197
100008.462
100007.1266
100006.0746
100005.1581
100004.923
100005.4514
131654.3374
131807.0789
131917.5526
132005.5787
132068.2958
132074.1999
132019.1789
131876.5593
131632.3428
131266.5473
130765.3765
130117.2219
129316.3181
128362.2133
127260.4515
126021.9787
124662.5022
123201.4152
121660.6801
120063.6961
118434.297
116795.8963
115170.8315
113579.883
112041.9224
110573.6605
109189.4515
107901.1249
106717.8274
105645.8802
104688.6741
103846.6395
103117.329
102495.6443
101974.2126
101543.8989
101194.408
100914.9146
100694.6547
100523.4236
100391.9424
100292.0821
100216.9488
100160.8593
100119.2465
100088.5206
100065.9091
100049.3034
100037.12
100028.1822
100021.6234
100016.8058
100013.259
100010.6456
100008.7423
100007.3681
100006.2725
100005.36
100005.1688
100005.6021
133315.2595
133413.6626
133486.4475
133518.0751
133520.2545
133455.979
133322.9262
133094.8944
132758.8262
132296.5572
131696.0833
130948.046
130048.8132
128999.9757
127808.7798
126487.4888
125052.6861
123524.2255
121924.1634
120275.7038
118602.2726
116926.7361
115270.8087
113654.6191
112096.3897
110612.2031
109215.8161
107918.4938
106728.8498
105652.7035
104692.9759
103849.6639
103119.9317
102498.3472
101977.2673
101547.3552
101198.1831
100918.8552
100698.5876
100527.1911
100395.4231
100295.1987
100219.6654
100163.1739
100121.1821
100090.1153
100067.2079
100050.3528
100037.964
100028.8603
100022.1698
100017.2486
100013.6208
100010.948
100009.0043
100007.5929
100006.4586
100005.5563
100005.4051
100005.7568
134791.1264
134838.5778
134874.2656
134854.8354
134801.7925
134674.6693
134471.8412
134167.9493
133750.5456