/*--------------------------------*- C++ -*----------------------------------*\
  =========                 |
  \\      /  F ield         | OpenFOAM: The Open Source CFD Toolbox
   \\    /   O peration     | Website:  https://openfoam.org
    \\  /    A nd           | Version:  12
     \\/     M anipulation  |
\*---------------------------------------------------------------------------*/
FoamFile
{
    format      ascii;
    class       volScalarField;
    location    "1200";
    object      T;
}
// * * * * * * * * * * * * * * * * * * * * * * * * * * * * * * * * * * * * * //

dimensions      [0 0 0 1 0 0 0];

internalField   nonuniform List<scalar> 
16200
(
294.4209016
294.438804
294.3039191
293.954075
293.2294068
291.7225466
288.5178664
282.6690049
279.2988967
279.0301288
279.1323892
279.2253141
279.3407885
279.4681459
279.6176763
279.7888569
279.988178
280.2191381
280.4877566
280.7998043
281.1621733
281.5822308
282.0679452
282.6275604
283.269171
283.9999929
284.8252074
285.7463216
286.7590297
287.8508423
288.9992277
290.1716393
291.3286757
292.4301145
293.4416309
294.339524
295.112154
295.7586133
296.2860224
296.7066201
297.0352465
297.2873874
297.4778001
297.6196651
297.7241805
297.8004812
297.8557885
297.8956626
297.9242979
297.9448071
297.9594721
297.9699524
297.9774484
297.9828351
297.9867406
297.9896443
297.9918101
297.9935148
297.9949726
297.9970845
293.5681172
293.5464898
293.3508691
292.9030444
291.994601
290.0810889
286.0549139
280.154686
278.049031
277.9721263
278.0777878
278.1803134
278.305264
278.4438383
278.6069426
278.7944942
279.0134339
279.2679615
279.5647231
279.9103371
280.3125325
280.7796273
281.3205197
281.9443244
282.6597605
283.4741603
284.3919089
285.4122991
286.5268688
287.7167831
288.9516084
290.1912649
291.3917736
292.5129671
293.5248877
294.4105751
295.1652204
295.7932463
296.3050063
296.7140596
297.0352216
297.2832403
297.4719111
297.6135282
297.7186048
297.7958123
297.8520918
297.8928572
297.9222416
297.9433462
297.9584653
297.9692806
297.9770168
297.982568
297.9865867
297.9895581
297.9917831
297.993513
297.9949831
297.997227
292.8164401
292.7399999
292.4662734
291.9005943
290.7754567
288.3798695
283.3425582
278.2145453
277.0249063
277.0722857
277.1859265
277.297673
277.4346717
277.5875592
277.7676189
277.9753874
278.2182272
278.5011369
278.831441
279.2166939
279.6655535
280.1873748
280.7920402
281.4894831
282.2887945
283.1968363
284.2161492
285.3421919
286.5601895
287.8427318
289.1501665
290.4354129
291.6523162
292.7640334
293.7478738
294.5954576
295.3095835
295.9000801
296.3802894
296.7647555
297.0679333
297.3035032
297.4839729
297.620429
297.7223957
297.7978092
297.8530997
297.8933469
297.9224762
297.9434651
297.9585379
297.9693382
297.9770708
297.9826198
297.9866349
297.9895979
297.9918217
297.9935421
297.9949783
297.9972062
292.2119393
292.0729503
291.7075516
290.993606
289.5882239
286.6225787
280.6764515
276.82735
276.2924499
276.3773626
276.4982351
276.6210499
276.7712812
276.9400871
277.139026
277.3694321
277.6391099
277.9539612
278.3220564
278.7519502
279.2532731
279.8363979
280.5120635
281.2906896
282.1810983
283.1886161
284.3123476
285.5417934
286.853577
288.2102341
289.5633975
290.8618156
292.0612969
293.1321062
294.0611037
294.8491309
295.5061221
296.0463802
296.4853007
296.8376738
297.1170701
297.3357384
297.5046295
297.6334055
297.730419
297.8027143
297.8560809
297.8951601
297.9235884
297.9441593
297.9589831
297.9696337
297.9772743
297.982764
297.9867388
297.9896715
297.9918792
297.9935858
297.9949922
297.9972336
291.7629319
291.5581282
291.0935709
290.207607
288.4395425
284.7021942
278.4209271
275.9897658
275.8073662
275.9051561
276.0355569
276.1713034
276.3368591
276.5240916
276.7446947
277.0009471
277.301103
277.6520507
278.062674
278.5425807
279.1023824
279.7533627
280.5068303
281.37312
282.3598263
283.4692766
284.6951126
286.0185155
287.4056396
288.808864
290.1735295
291.448511
292.5960207
293.5964559
294.4473189
295.1582522
295.7451626
296.2255599
296.6158627
296.9304022
297.1814363
297.3795318
297.5339261
297.6527395
297.7430494
297.8109104
297.8613821
297.8985887
297.9258123
297.9456097
297.9599362
297.9702656
297.9776972
297.9830487
297.9869303
297.9897987
297.9919662
297.9936466
297.9950129
297.9972494
291.4816367
291.2109147
290.6443762
289.5721145
287.3751571
282.6164793
276.9402078
275.5373569
275.5747168
275.6663584
275.8094504
275.9595351
276.1418825
276.3494518
276.593987
276.8788742
277.2128743
277.6039356
278.0617921
278.5970558
279.2211746
279.9460257
280.7829416
281.7412816
282.8260582
284.034696
285.3530527
286.751906
288.186327
289.600473
290.9376811
292.1519694
293.2157946
294.1213862
294.8766516
295.4986813
296.007699
296.4229742
296.7609081
297.0347327
297.2550539
297.4306037
297.5688466
297.6763339
297.7588445
297.8214145
297.8683381
297.9031852
297.9288483
297.9476166
297.9612652
297.9711475
297.9782834
297.9834382
297.9871876
297.9899664
297.9920764
297.9937218
297.9950442
297.9972757
291.3612647
291.0193637
290.339578
289.0415412
286.3180896
280.5292066
276.0237074
275.3050882
275.5277569
275.6512397
275.807447
275.9740415
276.1755804
276.4064175
276.6782704
276.9957149
277.3680207
277.8041651
278.3146692
278.9109947
279.6051747
280.4092267
281.3337464
282.3859061
283.5663908
284.865516
286.2591696
287.7066369
289.1531654
290.5386004
291.8095485
292.9297271
293.8842505
294.677327
295.3259247
295.8526895
296.2803887
296.6287059
296.9131541
297.1453899
297.3341621
297.4863205
297.6075805
297.7029671
297.7769954
297.8336999
297.8766115
297.9087372
297.932565
297.9501004
297.9629227
297.9722519
297.9790177
297.9839243
297.9875066
297.9901726
297.9922091
297.9938109
297.9950839
297.9973051
291.402857
290.9836427
290.1742872
288.5782776
285.1253825
278.7682153
275.7560777
275.5794936
275.71639
275.8457141
276.0174025
276.2030664
276.4265309
276.683782
276.9864454
277.3403238
277.7552038
278.2410532
278.8091228
279.4715353
280.2405439
281.1276165
282.1414967
283.2855605
284.5541123
285.9281794
287.3722235
288.8345708
290.2539171
291.57103
292.7409401
293.7402827
294.567536
295.2376966
295.7747436
296.2048099
296.5515569
296.8339641
297.0660076
297.257465
297.4151457
297.5440556
297.6482483
297.7313152
297.7965833
297.8471384
297.8857788
297.9149625
297.9367768
297.9529406
297.9648318
297.9735306
297.9798705
297.9844895
297.9878773
297.990412
297.9923619
297.9939128
297.9951321
297.9973403
291.6014662
291.1073171
290.1489191
288.1824502
283.7344662
277.6066703
275.7139945
275.9203844
276.0913769
276.2367117
276.4251748
276.6317931
276.8792984
277.1655011
277.5019392
277.8956731
278.3570357
278.8969046
279.5271017
280.2600282
281.1075042
282.0794203
283.1812334
284.4106901
285.7536548
287.1801809
288.6431483
290.0823755
291.4348816
292.647889
293.6888845
294.5488506
295.2387645
295.7823089
296.2081508
296.543967
296.8129495
297.0325489
297.2147902
297.3674316
297.4953654
297.6018568
297.6894273
297.7603581
297.8168891
297.8612311
297.8954993
297.9216323
297.9413323
297.9560387
297.9669297
297.9749444
297.9808178
297.9851195
297.9882918
297.9906801
297.9925329
297.9940264
297.995188
297.9973802
291.9275727
291.3519006
290.2108093
287.8015254
282.2611943
277.1534244
276.3682766
276.4645369
276.6380246
276.799777
277.0069953
277.2370142
277.5113114
277.8296404
278.2034702
278.6410753
279.1532888
279.7516785
280.4482992
281.2552412
282.183033
283.238786
284.4230979
285.7261953
287.1236894
288.5739123
290.0197265
291.3966958
292.6458079
293.7255187
294.6180585
295.3284164
295.8780531
296.2968086
296.6157946
296.8626002
297.0589319
297.2201779
297.3562036
297.4727388
297.5728572
297.6582287
297.7299963
297.7892696
297.8373147
297.8755529
297.9054758
297.9285423
297.9460937
297.9593033
297.9691567
297.9764552
297.9818363
297.9858004
297.9887419
297.9909728
297.9927201
297.994151
297.9952512
297.9974252
292.3686129
291.7000978
290.311102
287.2745946
280.93557
277.0577676
276.9841683
277.1485541
277.3347257
277.5155203
277.74364
277.9996814
278.303743
278.6575556
279.0725179
279.5579725
280.125108
280.7858509
281.55204
282.4347576
283.442254
284.577494
285.8344625
287.1939779
288.620178
290.0603916
291.4509291
292.7285773
293.8436559
294.7690617
295.5021452
296.0601508
296.4723772
296.7722864
296.9915056
297.1562992
297.2862178
297.3943055
297.4882247
297.5717623
297.6463215
297.7121448
297.7691588
297.8174443
297.8574095
297.8897751
297.9154735
297.9355278
297.9509474
297.9626577
297.9714622
297.9780304
297.9829052
297.9865197
297.9892205
297.9912861
297.9929216
297.9942855
297.9953215
297.9974753
292.9148678
292.1434325
290.4479805
286.5209745
280.0558083
277.7706051
277.7943245
277.9640842
278.1640006
278.3660206
278.6174394
278.9022899
279.2392063
279.6318175
280.091438
280.6282842
281.2537374
281.979723
282.8173371
283.7758032
284.8598562
286.0666541
287.3816544
288.7747262
290.1985344
291.5920209
292.8900031
294.0362023
294.9943598
295.7530583
296.32348
296.7324957
297.0144551
297.2041948
297.3323592
297.4230481
297.4932857
297.5536895
297.6097915
297.6635832
297.7149715
297.7629461
297.8063779
297.8444566
297.8768453
297.9036509
297.925311
297.9424584
297.9558018
297.9660387
297.9738036
297.979642
297.9840069
297.9872664
297.9897212
297.9916164
297.9931359
297.9944293
297.9953984
297.9975303
293.5548477
292.6482087
290.5716811
285.5998842
279.8837285
278.5288643
278.7171395
278.8929969
279.1099099
279.3354764
279.6125454
279.9287897
280.3013997
280.7358019
281.243269
281.8347058
282.5214713
283.3149825
284.2248092
285.2571394
286.4116163
287.677714
289.0306504
290.4288065
291.8151793
293.1247719
294.2966869
295.2864087
296.073284
296.6609439
297.0719578
297.3398648
297.5015037
297.5912895
297.6378344
297.6625861
297.6799084
297.6980506
297.7205631
297.7478226
297.7784219
297.810269
297.8413302
297.8700331
297.8954
297.9170059
297.9348555
297.9492359
297.9605857
297.9693962
297.9761463
297.9812668
297.985126
297.9880311
297.9902381
297.9919605
297.9933611
297.9945816
297.9954816
297.9975904
294.2846602
293.18324
290.5692394
284.6735707
279.9149631
279.4935316
279.7382499
279.9218729
280.1578692
280.4087983
280.7136909
281.063835
281.4751362
281.9546552
282.5135845
283.1631514
283.9142171
284.7768917
285.7581344
286.8596503
288.0742288
289.3819082
290.746755
292.1167516
293.4289564
294.6200014
295.6386094
296.4551244
297.0646569
297.4838087
297.7435275
297.8811801
297.93398
297.9346213
297.9090425
297.8758315
297.8467279
297.8277634
297.8206969
297.8244821
297.8365774
297.8539681
297.8738545
297.894018
297.9129356
297.9297252
297.9440153
297.9557893
297.9652461
297.9726915
297.9784631
297.9828859
297.9862502
297.9888055
297.9907663
297.9923155
297.9935961
297.9947415
297.9955707
297.9976556
295.0910924
293.7290581
290.3795856
284.0203021
280.7599711
280.5620907
280.8362277
281.0345817
281.2925812
281.5719882
281.9083239
282.2962741
282.7505535
283.2795031
283.8940168
284.6051111
285.4225239
286.3541264
287.4030092
288.5647741
289.8236197
291.1489959
292.4943188
293.8001513
295.0027425
296.0459206
296.8919113
297.5269486
297.9603699
298.2188383
298.3386322
298.3585157
298.314495
298.2367094
298.1481129
298.0644312
297.9949274
297.9436173
297.9106744
297.8938197
297.8895438
297.8940544
297.9039086
297.9163452
297.9293798
297.9417405
297.9527312
297.9620705
297.9697455
297.9758961
297.9807329
297.9844845
297.987369
297.9895829
297.9913015
297.9926789
297.9938393
297.9949084
297.995665
297.9977258
295.9617658
294.227527
290.031759
283.9426175
281.7096057
281.7301007
282.0122278
282.2297984
282.5130372
282.8243748
283.1958945
283.6253893
284.1264114
284.708201
285.3811129
286.1553883
287.0388845
288.0360569
289.144566
290.3521825
291.6332157
292.9465927
294.2373667
295.4432197
296.5051098
297.3785313
298.0411075
298.4941074
298.7584512
298.8677129
298.8607865
298.7759509
298.6469429
298.5008999
298.3577277
298.2304234
298.125985
298.0466359
297.9911694
297.9562517
297.9375573
297.930644
297.9315337
297.9370127
297.9447087
297.9530194
297.96097
297.9680492
297.9740583
297.9789899
297.9829405
297.9860511
297.9884745
297.9903578
297.9918401
297.9930483
297.9940896
297.9950814
297.9957641
297.9978011
296.8844269
294.6661733
289.6527942
284.0330306
282.8463329
282.9803166
283.2699989
283.5115595
283.8223278
284.1680144
284.5773797
285.0510451
285.6014474
286.2383146
286.9710771
287.8083538
288.7549542
289.8103793
290.9652032
292.1980743
293.4732239
294.7407621
295.941252
297.0147229
297.9116481
298.6018612
299.0782976
299.3550424
299.4614788
299.4351534
299.3153945
299.1386776
298.9358532
298.7309046
298.5407927
298.3760005
298.2415008
298.1379491
298.0629516
298.0122817
297.9809312
297.9639194
297.9568263
297.9560628
297.9589332
297.9635557
297.9687179
297.9737095
297.9781691
297.9819594
297.9850746
297.9875773
297.9895602
297.9911255
297.992379
297.9934219
297.9943459
297.9952599
297.9958664
297.9978815
297.7996469
295.0318246
289.4105754
284.5392669
284.1017355
284.3070443
284.6082981
284.8771697
285.2178589
285.600509
286.0506249
286.5712952
287.1737052
287.8673849
288.6600771
289.5575917
290.5603035
291.6613186
292.8429834
294.0745249
295.3113123
296.4978139
297.5748444
298.4896747
299.2055919
299.7074729
300.0019111
300.1128646
300.0751086
299.9277082
299.7088362
299.4523476
299.185937
298.9304867
298.7002177
298.503352
298.3430816
298.2187062
298.1268215
298.0624502
298.0200179
297.994101
297.9799166
297.9735671
297.9720878
297.9733621
297.9759752
297.9790456
297.98207
297.9847963
297.987128
297.9890567
297.9906212
297.9918824
297.9929154
297.9937978
297.994607
297.9954428
297.9959765
297.997967
298.6105134
295.3434412
289.415016
285.7819223
285.4661765
285.7095447
286.0269427
286.3269661
286.700695
287.123538
287.6175709
288.1877664
288.84368
289.5937206
290.4430256
291.3934414
292.4397647
293.567742
294.7510931
295.9503882
297.1146073
298.186715
299.1125382
299.8503287
300.3776405
300.6933966
300.8152276
300.7738737
300.6068273
300.3528125
300.0478054
299.7226253
299.4017898
299.1032611
298.838779
298.6145661
298.4322674
298.2900207
298.1835664
298.1073007
298.0551823
298.0214258
298.0009532
297.9896143
297.984222
297.9824635
297.9827524
297.9840597
297.9857587
297.9874966
297.9890959
297.9904851
297.9916538
297.9926256
297.9934472
297.9941745
297.9948721
297.9956299
297.9960977
297.9980577
299.2900949
295.636499
289.8350038
286.9130186
286.9344459
287.1979321
287.5342596
287.868474
288.2775637
288.7425319
289.2817752
289.9014194
290.6089906
291.410888
292.308838
293.2997639
294.3719975
295.5033775
296.6593284
297.793596
298.8522799
299.7813218
300.5355528
301.0863067
301.4251053
301.5627416
301.5248976
301.3462761
301.0649788
300.7181109
300.3388656
299.9549063
299.5877128
299.2525801
298.9590417
298.7115748
298.5104905
298.3529367
298.2339339
298.1473574
298.0867837
298.046134
298.0200917
298.0043017
297.9953943
297.9908931
297.9890664
297.988759
297.9892371
297.9900591
297.990976
297.9918596
297.9926552
297.9933527
297.9939726
297.9945506
297.9951402
297.9958213
297.9962278
297.9981533
299.9027872
295.9273595
290.4767299
288.3104982
288.4988511
288.7759806
289.1350576
289.5045198
289.9492
290.4557539
291.0387788
291.7047799
292.4589021
293.3046903
294.2396376
295.2547986
296.3313113
297.4391054
298.5366325
299.5737697
300.4978651
301.2619115
301.8323542
302.1939831
302.3506437
302.3222396
302.1396324
301.839174
301.458063
301.0310088
300.5881787
300.1541578
299.7476214
299.3814778
299.0633251
298.7961283
298.579055
298.4084125
298.2786168
298.1831127
298.115165
298.0684591
298.0374874
298.0177297
298.0056674
297.9986884
297.9949386
297.9931546
297.9925098
297.9924849
297.9927674
297.9931785
297.9936236
297.9940617
297.9944898
297.9949248
297.9954105
297.9960166
297.9963642
297.9982537
300.5396629
296.2802533
291.1699632
289.8376708
290.1448775
290.4375451
290.8205131
291.2252276
291.7048056
292.2512617
292.8754498
293.5833435
294.3772214
295.2567919
296.2143249
297.234186
298.2901261
299.3451769
300.3533326
301.2643558
302.0308467
302.6157961
302.9982322
303.1753238
303.1608103
302.9808839
302.669128
302.2618145
301.7942616
301.2983965
300.8013555
300.3248434
299.8850079
299.4926527
299.1536922
298.8697882
298.6391304
298.4573134
298.3182469
298.2150203
298.1406463
298.0886226
298.0532901
298.0299972
298.0151049
298.0058888
298.0003923
297.9972596
297.9955836
297.9947768
297.9944706
297.994441
297.9945575
297.9947513
297.9949974
297.995296
297.9956822
297.9962156
297.9965064
297.9983582
301.1846067
296.7727089
292.3948377
291.4778713
291.856638
292.1691808
292.5771252
293.0172115
293.5313512
294.1160701
294.7785051
295.5229296
296.3480187
297.2485659
298.2108353
299.2123078
300.2201859
301.192779
302.0829766
302.8442195
303.4374589
303.8371197
304.0342881
304.0364859
303.8646718
303.5488007
303.1232671
302.6230878
302.0811553
301.5265076
300.9833962
300.470906
300.0029435
299.5884751
299.231958
298.9339332
298.6917544
298.5004122
298.3533924
298.2434922
298.1635215
298.1068302
298.0676411
298.0411994
298.0237691
298.0125343
298.0054522
298.0010884
297.9984661
297.9969384
297.9960869
297.995647
297.9954561
297.9954202
297.9954944
297.9956632
297.9959544
297.9964178
297.9966531
297.9984668
301.8962899
297.4223982
293.7892271
293.2054053
293.6264395
293.9640047
294.3982134
294.8739684
295.4223393
296.0428778
296.7389133
297.5118055
298.3558619
299.2603195
300.2053159
301.1622037
302.0934864
302.9556705
303.7039995
304.2986697
304.7107379
304.9260354
304.9461212
304.7864312
304.4726318
304.0363987
303.5115805
302.9312282
302.3255832
301.7208713
301.1386897
300.5957862
300.1041026
299.6710097
299.2997067
298.9897709
298.7378407
298.5383938
298.3845606
298.2688992
298.1840576
298.1232711
298.0806719
298.0514257
298.0317197
298.0186636
298.0101427
298.0046558
298.001166
297.9989741
297.9976179
297.9967967
297.9963189
297.9960676
297.9959795
297.9960253
297.9962266
297.9966222
297.9967996
297.9985801
302.7100239
298.5059128
295.2886067
295.0157413
295.4580202
295.8264856
296.2871432
296.796767
297.3763555
298.0267756
298.7474487
299.535964
300.3818662
301.2687937
302.1713688
303.0563393
303.8839594
304.6119871
305.2009435
305.6197159
305.8498546
305.8874579
305.7424218
305.4356818
304.9955009
304.4537664
303.8429078
303.1936555
302.533592
301.8863178
301.2710434
300.7024589
300.1907954
299.7420425
299.358313
299.0383539
298.7781896
298.5718611
298.4122014
298.2915724
298.2024948
298.1381168
298.0925031
298.0607593
298.039013
298.0243138
298.0144876
298.0079766
298.0036919
298.0008887
297.9990659
297.9978908
297.9971456
297.9966926
297.9964519
297.9963815
297.9964979
297.9968269
297.9969458
297.998699
303.6008509
299.6384311
296.9502597
296.9113131
297.3614241
297.7614378
298.2453297
298.7827997
299.3861434
300.0559719
300.7877282
301.574745
302.4017522
303.2472414
304.0815037
304.8687142
305.5695234
306.1456481
306.5648925
306.8055487
306.8589441
306.7296549
306.4336713
305.9953164
305.44383
304.8102902
304.1252187
303.4169206
302.7104487
302.0270198
301.3837321
300.793479
300.2650078
299.8031122
299.4089652
299.0805957
298.813499
298.6013433
298.4367115
298.3118061
298.2190484
298.1515223
298.1032446
298.0692768
298.0457012
298.0295199
298.0185098
298.0110651
298.0060525
298.0026871
298.0004334
297.9989302
297.9979361
297.9972948
297.9969107
297.9967309
297.9967677
297.99703
297.9970926
297.9988237
304.5925427
300.7485018
298.7463206
298.8800214
299.3312209
299.758329
300.2599532
300.8167101
301.4335535
302.1096112
302.8362731
303.6024272
304.3883251
305.1682902
305.9099781
306.5772993
307.1337672
307.5470539
307.7931947
307.8595472
307.7457901
307.4629666
307.031117
306.4762719
305.827505
305.114467
304.3655625
303.6067305
302.8606979
302.1465581
301.4795594
300.8710338
300.3284425
299.8555419
299.4526887
299.1172879
298.8443768
298.6273035
298.4584406
298.329861
298.2339102
298.163627
298.1129957
298.0770478
298.0518325
298.0343144
298.0222307
298.0139352
298.0082563
298.0043741
298.0017229
297.9999159
297.9986906
297.9978735
297.9973552
297.997073
297.9970351
297.9972298
297.9972414
297.9989517
305.714846
301.9590297
300.647549
300.8994685
301.350106
301.7979439
302.3107588
302.8771324
303.4956934
304.16319
304.8670872
305.5920782
306.3147619
307.0067633
307.6350949
308.1656227
308.5666345
308.8128486
308.8885034
308.7889501
308.5204794
308.0986863
307.5459764
306.8888579
306.1555034
305.3738202
304.570076
303.767999
302.988227
302.247986
301.5609141
300.9369891
300.3825554
299.9004668
299.490367
299.1491161
298.8713519
298.6501468
298.4776958
298.3459675
298.2472509
298.1745554
298.1218461
298.0841361
298.0574511
298.0387276
298.0256705
298.0166
298.0103115
298.0059546
298.0029371
298.000849
297.9994092
297.9984286
297.9977847
297.9974069
297.9972988
297.9974249
297.997399
297.9990795
306.9415502
303.4557022
302.6264027
302.9534966
303.4008511
303.8616105
304.377314
304.9418988
305.5486257
306.1913259
306.8539209
307.5176028
308.1565394
308.7413749
309.2404174
309.6232594
309.8641033
309.9449192
309.8573962
309.6034276
309.1941779
308.648159
307.9888649
307.2424512
306.4357726
305.5948892
304.7440297
303.9049153
303.0963375
302.3338935
301.6298242
300.9929321
300.4285893
299.9388597
299.5227606
299.1766726
298.8948836
298.6702265
298.4947467
298.360329
298.259222
298.1844188
298.1298765
298.090599
298.0625973
298.0427872
298.028848
298.0190718
298.0122258
298.0074334
298.0040784
298.0017308
298.0000923
297.9989596
297.9981986
297.9977322
297.9975581
297.997615
297.9975644
297.999203
308.2396067
305.1031345
304.6534049
305.0259053
305.4652337
305.9294367
306.4379675
306.9878003
307.5677918
308.1687718
308.7717758
309.3555375
309.8932274
310.3561879
310.7155986
310.9458979
311.0275622
310.9493314
310.7091775
310.3140072
309.7783217
309.1222691
308.3695347
307.545415
306.6752586
305.7833123
304.8919286
304.0210431
303.1878324
302.4064798
301.6880148
301.0402173
300.4676086
299.9715571
299.5505263
299.2004717
298.9153723
298.6878526
298.5098307
298.3731252
298.2699582
298.1933167
298.1371594
298.0964885
298.0673078
298.0465187
298.0317804
298.0213621
298.0140069
298.008815
298.0051496
298.0025625
298.0007402
297.9994664
297.9985965
297.9980482
297.9978117
297.9977994
297.9977368
297.9993243
309.6063454
306.8618779
306.7022522
307.0964517
307.5232724
307.9799243
308.4698624
308.9910824
309.5289797
310.0717551
310.5984736
311.0866232
311.5097728
311.8413393
312.0564101
312.1347185
312.0627489
311.8351086
311.4547496
310.9321913
310.2840293
309.5311159
308.6967488
307.805098
306.8799724
305.9439201
305.0176096
304.1194086
303.2650905
302.4676139
301.7369558
301.0800027
300.5005269
299.9992803
299.5742328
299.2209606
298.933168
298.7032966
298.5231569
298.3845157
298.2795794
298.2013384
298.14376
298.1018519
298.0716163
298.0499456
298.034484
298.0234818
298.0156616
298.0101038
298.0061531
298.0033454
298.0013533
297.9999488
297.998978
297.9983544
297.9980584
297.997978
297.9979152
297.9994429
311.0342122
308.6984894
308.7493716
309.1454639
309.5530788
309.9901211
310.4490944
310.9277868
311.4089998
311.8789186
312.3156261
312.6965182
312.9967093
313.1926304
313.2637598
313.1950276
312.9782571
312.6128484
312.1054954
311.4691626
310.7216074
309.8837572
308.9781861
308.0278371
307.055042
306.0808067
305.1243135
304.2025656
303.3301218
302.5188788
301.7778965
301.1132766
300.5281276
300.0226508
299.5943727
299.2385283
298.9485763
298.7167971
298.5349098
298.3946415
298.2881923
298.2085634
298.1497372
298.1067319
298.0755533
298.0530895
298.0369737
298.0254409
298.0171966
298.0113039
298.0070914
298.0040808
298.0019322
298.0004067
297.9993427
297.9986502
297.9982972
297.9981509
297.998099
297.9995572
312.5031279
310.5786054
310.7791038
311.1477028
311.5287281
311.9347312
312.3510834
312.774833
313.1870435
313.5725846
313.9095032
314.1760867
314.3498157
314.4106317
314.3424217
314.1348432
313.7841987
313.2936182
312.672474
311.9352732
311.1002805
310.1881085
309.2204458
308.2190179
307.2047955
306.1974153
305.2147633
304.2726627
303.3846217
302.5616152
301.8119002
301.1408847
300.5510847
300.0422059
299.6113736
299.2535143
298.9618653
298.7285642
298.5452525
298.4036279
298.2958922
298.2150633
298.1551438
298.1111671
298.0791467
298.0559702
298.0392632
298.0272489
298.0186183
298.0124195
298.007967
298.00477
298.0024773
298.0008402
297.9996904
297.9989349
297.9985267
297.9983183
297.9982874
297.9996648
313.9688106
312.4629597
312.7361727
313.0793458
313.4259918
313.7910354
314.1549136
314.5137015
314.8476006
315.1408973
315.372423
315.5220876
315.5702007
315.5003157
315.3004162
314.9642233
314.4916338
313.8885689
313.1662344
312.3400259
311.4282879
310.4511034
309.4292319
308.3832541
307.332922
306.2966742
305.2912757
304.3315313
303.4300407
302.5969751
301.839885
301.1635609
300.5699859
300.0584165
299.6256127
299.2662192
298.9732732
298.7387853
298.5543312
298.4115879
298.3027652
298.2209031
298.1600282
298.1151932
298.0824224
298.0586061
298.0413657
298.0289148
298.0199326
298.0134544
298.0087823
298.0054143
298.0029893
298.0012494
298.0000211
297.9992081
297.998746
297.9984807
297.998479
297.9997624
315.4310317
314.3171851
314.6090749
314.9190115
315.2245986
315.5403946
315.8440241
316.1305641
316.3801451
316.5771118
316.7016683
316.735768
316.6626766
316.4693679
316.1474221
315.6939095
315.1115178
314.408194
313.5963472
312.6918161
311.7127698
310.6786699
309.6093762
308.5244328
307.4425212
306.3810434
305.3557996
304.3807174
303.4676084
302.6259405
301.8626381
301.1819382
300.5853415
300.071694
299.6374205
299.276908
298.9830112
298.7476275
298.5622767
298.4186229
298.3088893
298.2261418
298.1644349
298.1188429
298.0854042
298.0610145
298.0432932
298.0304471
298.0211454
298.0144125
298.0095398
298.0060154
298.0034688
298.0016346
298.0003347
297.999469
297.9989542
297.9986392
297.9986703
297.9998475
316.8728744
316.1016055
316.3771704
316.6489104
316.9077695
317.1680167
317.4060928
317.6161574
317.778861
317.879061
317.8986612
317.821801
317.6345815
317.3270347
316.8937746
316.3345531
315.6541761
314.8620301
313.9712832
312.9979346
311.9598459
310.8758453
309.7649654
308.6458361
307.536213
306.4526086
305.4099957
304.4215459
303.4983858
302.6493642
301.8808477
301.1965738
300.5976028
300.0824038
299.6470925
299.2858183
298.9912692
298.7552413
298.5692076
298.4248252
298.3143355
298.2308336
298.1684044
298.1221466
298.0881146
298.0632117
298.0450575
298.031854
298.0222623
298.0152976
298.0102419
298.0065744
298.0039166
298.0019959
298.0006311
297.9997169
297.9991511
297.9987941
297.9988557
297.9999214
318.2783081
317.7845134
318.024297
318.2539439
318.4625604
318.6637018
318.8338589
318.9664215
319.0429675
319.0491444
318.9686682
318.7878108
318.4952487
318.0836486
317.5501196
316.8965248
316.1292611
315.2587285
314.2985582
313.2647468
312.1747985
311.0469453
309.899486
308.7502601
307.616231
306.5131526
305.4552892
304.45516
303.5232936
302.6679913
301.895119
301.2079603
300.6071714
300.0908728
299.6548938
299.2931641
298.9982189
298.7617635
298.5752317
298.430279
298.3191689
298.2350283
298.1719746
298.1251324
298.0905743
298.0652128
298.0466695
298.0331433
298.0232889
298.0161134
298.010891
298.0070931
298.0043335
298.002334
298.0009106
297.9999513
297.9993364
297.9989455
297.999031
297.9999962
319.6290001
319.3425088
319.5380859
319.7233391
319.8805545
320.0218077
320.1245569
320.1815405
320.1754638
320.092878
319.919277
319.642906
319.2547038
318.7495575
318.1266011
317.3893502
316.5453982
315.6058633
314.5846554
313.497687
312.3621089
311.1956201
310.0158864
308.8400742
307.684476
306.5642013
305.4929085
304.4825527
303.5431384
302.6824795
301.9059902
301.2165389
300.6144089
300.0973969
299.6610656
299.2991408
299.0040175
298.7673196
298.5804482
298.4350623
298.32345
298.2387724
298.1751807
298.127827
298.0928031
298.0670323
298.0481398
298.0343225
298.0242304
298.0168637
298.0114897
298.0075729
298.0047205
298.0026493
298.001173
298.0001715
297.9995102
297.9990932
297.9991981
298.0000627
320.9087365
320.7591472
320.9098407
321.0504845
321.157672
321.2410849
321.2795851
321.2653655
321.1823409
321.0180028
320.7595202
320.396911
319.923062
319.3347095
318.6326245
317.8216222
316.9102091
315.9100261
314.8351563
313.7014021
312.5255951
311.3249773
310.1166805
308.9173067
307.7425843
306.6070775
305.5239271
304.5045992
303.5586368
302.6934182
301.9139472
301.2227107
300.6196458
300.1022477
299.6658301
299.3039294
299.0088113
298.7720268
298.5849505
298.4392484
298.327236
298.24211
298.1780565
298.1302559
298.0948202
298.0686846
298.0494788
298.0353993
298.0250921
298.0175522
298.0120405
298.0080155
298.0050785
298.0029424
298.0014185
298.0003774
297.9996729
297.999236
297.9993503
298.0001226
322.1037114
322.0241941
322.1360997
322.2346164
322.2953139
322.3250195
322.3042408
322.2247758
322.0717838
321.8336807
321.4991575
321.0597866
320.5101077
319.848389
319.0767298
318.2009814
317.2303657
316.1769234
315.0548591
313.8798717
312.6685248
311.4376818
310.2040336
308.9837151
307.7919844
306.6429464
305.5492992
304.5220845
303.5704377
302.7013453
301.9194367
301.2268464
300.6231896
300.1056789
299.6693958
299.3076997
299.0127379
298.7759956
298.5888264
298.4429067
298.3305813
298.2450834
298.1806343
298.1324436
298.0966441
298.0701833
298.0506966
298.0363811
298.0258797
298.0181827
298.0125461
298.0084227
298.0054087
298.0032142
298.0016474
298.0005688
297.9998246
297.9993722
297.9994902
298.0001803
323.2046129
323.1419455
323.2212253
323.2810154
323.2994393
323.2804772
323.2063122
323.0684048
322.8530811
322.5495981
322.1479756
321.6411201
321.02496
320.2990332
319.4665269
318.5341362
317.511664
316.4114788
315.2478882
314.0365147
312.7937105
311.5360369
310.2798289
309.0408402
307.8339404
306.6728487
305.5698857
304.535724
303.5791375
302.7067593
301.9228754
301.2292941
300.6253295
300.1079302
299.6719598
299.3106132
299.015928
298.7793315
298.5921602
298.4461039
298.3335382
298.2477331
298.1829455
298.1344142
298.0982928
298.071542
298.0518035
298.0372752
298.0265983
298.0187592
298.0130093
298.0087963
298.0057124
298.0034654
298.0018598
298.0007456
297.9999653
297.9995008
297.99962
298.0002336
324.1732199
324.1230787
324.1728631
324.1977841
324.1785923