/*--------------------------------*- C++ -*----------------------------------*\
  =========                 |
  \\      /  F ield         | OpenFOAM: The Open Source CFD Toolbox
   \\    /   O peration     | Website:  https://openfoam.org
    \\  /    A nd           | Version:  12
     \\/     M anipulation  |
\*---------------------------------------------------------------------------*/
FoamFile
{
    format      ascii;
    class       volScalarField;
    location    "0.025";
    object      omega;
}
// * * * * * * * * * * * * * * * * * * * * * * * * * * * * * * * * * * * * * //

dimensions      [0 0 -1 0 0 0 0];

internalField   nonuniform List<scalar> 
16000
(
1087.16
2162.0622
1054.2674
641.71697
451.72057
314.91622
238.22595
180.15273
144.82698
117.6959
99.977803
85.7113
75.023441
66.132539
58.856298
52.731205
47.558026
43.146327
39.355127
36.073421
33.217194
30.715662
28.510595
26.555599
24.813262
23.254533
21.85544
20.597507
19.465
18.443491
17.519986
16.684305
15.928364
15.245313
14.629282
14.074793
13.576668
13.130032
12.730839
12.375675
12.060668
11.781794
11.536182
11.321176
11.133709
10.970696
10.82977
10.70864
10.605081
10.516998
10.442523
10.380002
10.327883
10.284827
10.249685
10.221502
10.199452
10.182868
10.171369
10.165006
10.164444
10.170194
10.17923
10.187618
10.194914
10.199576
10.198857
10.188761
10.166545
10.138657
10.125633
10.144023
10.175552
10.169527
10.132381
10.084708
10.055797
10.049149
10.030766
10.036071
1128.9429
2160.8214
1049.0188
641.81717
451.84026
317.64122
239.29842
181.92363
145.64588
118.7118
100.52197
86.268043
75.384385
66.442636
59.082294
52.90663
47.686892
43.240387
39.421916
36.118503
33.245447
30.731667
28.517967
26.557234
24.811024
23.249882
21.849113
20.589905
19.456635
18.435126
17.512094
16.676997
15.921613
15.238991
14.623306
14.06916
13.571493
13.125358
12.726521
12.371704
12.057329
11.779125
11.534064
11.31963
11.132919
10.97067
10.830466
10.710037
10.607173
10.519758
10.445891
10.383929
10.332294
10.289612
10.254684
10.226526
10.2043
10.187311
10.175151
10.167849
10.165791
10.169287
10.177368
10.185091
10.191476
10.194927
10.19251
10.180421
10.156962
10.130237
10.121831
10.147528
10.174551
10.161284
10.122356
10.076541
10.053582
10.047063
10.030923
10.041249
1169.146
2166.4758
1037.9803
638.15587
448.53637
317.91613
238.24212
182.15316
145.21484
118.86701
100.38231
86.278182
75.286432
66.345748
58.953697
52.766028
47.535495
43.083698
39.263958
35.961517
33.091351
30.582494
28.375191
26.422071
24.683916
23.13116
21.73863
20.487233
19.361402
18.347331
17.431656
16.603559
15.854746
15.178182
14.568095
14.019147
13.526422
13.085017
12.690506
12.339602
12.02912
11.754647
11.512961
11.301587
11.117876
10.95843
10.820773
10.702652
10.601885
10.51637
10.444171
10.383674
10.333299
10.291662
10.257531
10.229902
10.207946
10.190991
10.178633
10.170841
10.167873
10.169985
10.176834
10.183772
10.189026
10.190959
10.186392
10.171715
10.147072
10.123826
10.120043
10.151231
10.172242
10.151421
10.110663
10.067599
10.053215
10.044737
10.030709
10.043258
1207.493
2182.4586
1029.6765
634.87001
444.99526
317.95481
236.89975
182.21646
144.65594
118.92406
100.19534
86.227797
75.148067
66.202497
58.785243
52.587233
47.349026
42.894245
39.075597
35.776339
32.911
30.408863
28.209595
26.265689
24.537077
22.994133
21.611237
20.368992
19.251787
18.246245
17.339005
16.518947
15.777715
15.108164
14.504575
13.961649
13.474609
13.038659
12.649205
12.302804
11.996741
11.726528
11.48873
11.280806
11.10045
10.944139
10.809322
10.693756
10.595286
10.511845
10.441451
10.382527
10.33349
10.292959
10.25968
10.232633
10.211004
10.194148
10.181671
10.173532
10.169972
10.170891
10.176635
10.182673
10.186655
10.186896
10.179985
10.162669
10.1376
10.117997
10.119169
10.15391
10.166854
10.141079
10.097258
10.058874
10.049567
10.043538
10.034577
10.041376
1243.8136
2206.705
1026.7906
632.03012
441.29297
317.2615
234.9006
181.80022
143.7395
118.70608
99.824008
86.002854
74.871898
65.928667
58.502955
52.305435
47.070246
42.621268
38.811566
35.522478
32.668039
30.177997
27.991496
26.061097
24.345929
22.816398
21.446498
20.216566
19.110848
18.116424
17.220075
16.410372
15.678925
15.018458
14.423316
13.888219
13.408511
12.979555
12.59668
12.256109
11.95564
11.690792
11.457957
11.254371
11.078154
10.9257
10.794363
10.681908
10.586199
10.505238
10.436989
10.379918
10.332448
10.293215
10.260959
10.234653
10.213506
10.196909
10.184488
10.176189
10.172189
10.172645
10.176985
10.182004
10.184611
10.182965
10.173319
10.153565
10.128412
10.11187
10.1192
10.154804
10.159156
10.129281
10.0826
10.048516
10.044064
10.043156
10.038745
10.037888
1278.012
2237.1257
1027.5503
629.56015
438.02392
315.94795
232.50716
180.99122
142.59828
118.25359
99.313535
85.62711
74.478593
65.542439
58.12195
51.934119
46.710721
42.274872
38.480604
35.207574
32.369195
29.895875
27.726237
25.812966
24.11467
22.60175
21.247841
20.033082
18.941461
17.960516
17.077309
16.280083
15.560453
14.910979
14.326079
13.800486
13.329632
12.909058
12.534158
12.200686
11.906871
11.648358
11.421462
11.223018
11.051621
10.903649
10.776341
10.667478
10.574915
10.496774
10.430947
10.375956
10.330236
10.292453
10.261358
10.235926
10.215395
10.199199
10.186979
10.17867
10.17442
10.174284
10.177678
10.181539
10.182755
10.179067
10.166133
10.144689
10.120216
10.106573
10.122835
10.153891
10.150469
10.115885
10.06665
10.038072
10.039747
10.043195
10.043166
10.032905
1310.0863
2271.0423
1031.0465
626.95613
434.71872
314.00631
230.35052
179.84996
141.44756
117.57453
98.673125
85.100386
73.964055
65.041059
57.638157
51.469355
46.266445
41.851231
38.078854
34.827975
32.011053
29.559346
27.411006
25.518227
23.840472
22.347611
21.012923
19.81644
18.741786
17.776901
16.909297
16.126862
15.421262
14.784859
14.212151
13.697878
13.237541
12.826828
12.461362
12.136519
11.850489
11.599287
11.379339
11.186899
11.021006
10.878133
10.7554
10.650604
10.561558
10.486564
10.423424
10.370728
10.326933
10.290745
10.260947
10.236522
10.216741
10.201083
10.189205
10.181023
10.176647
10.17608
10.178671
10.181273
10.181126
10.174739
10.158463
10.136196
10.113692
10.104488
10.127738
10.152458
10.143108
10.101028
10.050571
10.028412
10.035203
10.042845
10.046952
10.026663
1340.1383
2306.2034
1033.6739
623.79023
431.08079
311.36943
227.6172
178.36697
139.94007
116.69059
97.911739
84.427768
73.325967
64.423806
57.049591
50.90895
45.735042
41.348154
37.603418
34.380836
31.590939
29.165874
27.043705
25.172877
23.519518
22.050417
20.738458
19.563649
18.509152
17.563203
16.713942
15.948872
15.259767
14.638743
14.080386
13.579442
13.131469
12.732258
12.377714
12.063836
11.786785
11.54385
11.331835
11.146392
10.986655
10.849454
10.731815
10.631532
10.546333
10.474775
10.414553
10.364343
10.322622
10.288156
10.259778
10.236486
10.217577
10.202578
10.191168
10.183228
10.178837
10.177972
10.17986
10.181327
10.179844
10.169136
10.15055
10.127947
10.108467
10.103974
10.132144
10.150411
10.133583
10.085031
10.035215
10.019381
10.030125
10.041523
10.048823
10.022408
1368.2405
2340.8223
1029.0561
619.69557
425.7339
308.07187
223.86559
176.37816
138.18089
115.62485
97.0211
83.603964
72.555678
63.684547
56.350353
50.246516
45.110285
40.760101
37.04581
33.857657
31.100701
28.707633
26.617451
24.777483
23.152964
21.7118
20.426383
19.276851
18.245867
17.321807
16.493648
15.748509
15.078338
14.474953
13.933039
13.447344
13.013488
12.627356
12.284912
11.982135
11.715441
11.481818
11.278709
11.101846
10.948911
10.817898
10.705918
10.610562
10.529506
10.461631
10.404527
10.35696
10.317442
10.284801
10.257945
10.235898
10.217969
10.203735
10.192902
10.185319
10.181019
10.179974
10.181352
10.181647
10.177275
10.162929
10.1428
10.120382
10.104091
10.104606
10.135807
10.146299
10.120921
10.068967
10.021833
10.010861
10.024354
10.038794
10.044734
10.017683
1394.4463
2373.6991
1021.3103
614.59192
418.82177
304.3856
219.57839
174.17721
136.32247
114.3614
95.993735
82.625244
71.646108
62.815684
55.532544
49.469133
44.37807
40.073499
36.404218
33.259151
30.542753
28.188134
26.135583
24.330945
22.740004
21.331109
20.076225
18.955756
17.951855
17.052823
16.248603
15.526081
14.877409
14.294028
13.770733
13.302267
12.884308
12.512835
12.183979
11.893775
11.638549
11.415133
11.221524
11.053116
10.907727
10.783384
10.678005
10.587961
10.511377
10.447381
10.393564
10.348766
10.311551
10.280812
10.255557
10.234844
10.217988
10.204603
10.19444
10.187334
10.18325
10.182109
10.18298
10.181703
10.173259
10.156717
10.135887
10.114965
10.10161
10.110528
10.137418
10.140486
10.107948
10.055043
10.010734
10.003114
10.018035
10.034964
10.038116
10.013032
1418.8364
2405.1154
1011.1244
608.38281
410.29724
300.30674
215.05201
171.67303
134.39632
112.91863
94.816111
81.484242
70.585503
61.796413
54.573323
48.571742
43.539588
39.292272
35.676536
32.583335
29.91507
27.605545
25.596804
23.833283
22.280928
20.908803
19.688668
18.601248
17.628212
16.757566
15.979898
15.282745
14.658207
14.097248
13.594772
13.145519
12.745223
12.389935
12.075961
11.799431
11.556759
11.344541
11.161184
11.00202
10.864685
10.747168
10.648002
10.563659
10.492203
10.432237
10.381892
10.339967
10.30513
10.276344
10.252734
10.233421
10.217712
10.205243
10.195825
10.189311
10.185585
10.184401
10.184703
10.180826
10.169079
10.150851
10.130296
10.111965
10.101908
10.120125
10.138081
10.134711
10.096631
10.04405
10.002158
9.9965109
10.011645
10.030078
10.031938
10.008579
1441.6146
2435.8978
996.80746
600.41021
400.79626
295.77598
210.3581
168.93411
132.41983
111.29401
93.462454
80.150434
69.335973
60.620166
53.476109
47.550813
42.590847
38.412781
34.861108
31.82883
29.217225
26.959906
25.001297
23.284839
21.776508
20.445479
19.264533
18.21436
17.276161
16.437627
15.687781
15.018777
14.421074
13.88502
13.405615
12.977581
12.596723
12.25914
11.961354
11.699605
11.470439
11.271065
11.098488
10.949012
10.820214
10.709933
10.617226
10.53862
10.471923
10.416134
10.369683
10.330758
10.298363
10.271558
10.249605
10.231728
10.217222
10.205725
10.197109
10.19127
10.188018
10.186741
10.185866
10.17908
10.164861
10.145503
10.125631
10.110125
10.107422
10.127009
10.139551
10.128267
10.087535
10.036179
9.9962517
9.9911021
10.006339
10.024735
10.0263
10.004385
1463.1044
2463.5073
978.59685
592.11553
390.85177
290.84866
205.58676
165.99091
130.38621
109.46973
91.868141
78.606875
67.902224
59.280471
52.233993
46.402202
41.528974
37.432896
33.956579
30.994972
28.448975
26.251638
24.349345
22.686286
21.228044
19.940716
18.803537
17.795012
16.895726
16.093612
15.377636
14.739499
14.171166
13.662332
13.208026
12.802932
12.442985
12.124285
11.843618
11.59743
11.382161
11.194924
11.033672
10.894304
10.774434
10.672189
10.585934
10.513216
10.451551
10.399821
10.356829
10.321268
10.291415
10.266617
10.246303
10.229859
10.216594
10.20612
10.19835
10.193207
10.19045
10.189128
10.186234
10.176786
10.160609
10.140686
10.12198
10.110319
10.113514
10.132748
10.139896
10.11942
10.080907
10.031207
9.9929129
9.9870902
10.002339
10.017933
10.020895
10.000372
1483.5014
2484.3317
956.31116
583.08011
380.47381
285.57455
200.82431
162.85231
128.21559
107.34735
90.01652
76.841525
66.270626
57.768482
50.840463
45.120799
40.350457
36.35045
32.961887
30.08081
27.610223
25.481667
23.63959
22.036377
20.635157
19.401268
18.313074
17.35096
16.494865
15.732788
15.053492
14.448854
13.911789
13.43216
13.004695
12.623961
12.286123
11.987238
11.724337
11.494229
11.293444
11.118939
10.969064
10.839888
10.728888
10.63398
10.554192
10.487319
10.431177
10.383666
10.34401
10.311363
10.284375
10.26166
10.242958
10.227906
10.215895
10.206485
10.199597
10.195119
10.192686
10.191042
10.185713
10.173993
10.156317
10.136493
10.119882
10.11096
10.119206
10.135874
10.138476
10.112953
10.076303
10.028677
9.9912869
9.9850746
9.9998331
10.009945
10.015666
9.9971779
1503.0763
2493.4845
930.08159
573.44496
369.70257
279.97181
196.14059
159.43436
125.79089
104.93406
87.880026
74.836149
64.428304
56.073776
49.287992
43.701565
39.052409
35.163088
31.876498
29.083341
26.698236
24.648556
22.880943
21.345486
20.008132
18.833297
17.799385
16.887813
16.078865
15.360359
14.720833
14.152058
13.646278
13.197273
12.797968
12.442611
12.127744
11.849354
11.604615
11.390843
11.204694
11.043894
10.905317
10.78624
10.68424
10.596896
10.523355
10.461908
10.410612
10.367807
10.331536
10.3016
10.277081
10.256755
10.239688
10.225958
10.215179
10.206847
10.200862
10.197014
10.194646
10.192076
10.184541
10.170786
10.151957
10.132515
10.117593
10.111921
10.124089
10.137084
10.135315
10.108078
10.073121
10.027875
9.9913908
9.9843556
9.9980817
10.004617
10.011085
9.9950377
1522.0544
2478.6074
900.43402
563.19731
358.60147
274.05306
191.52654
155.6094
123.0352
102.18424
85.428305
72.567552
62.358972
54.185177
47.569225
42.139045
37.632346
33.865142
30.69627
28.011861
25.726099
23.766398
22.081957
20.62239
19.355414
18.245904
17.271407
16.412294
15.653637
14.981437
14.383855
13.853262
13.382135
12.964309
12.593796
12.264199
11.972556
11.714864
11.488212
11.290662
11.118568
10.970019
10.842643
10.733422
10.64027
10.561086
10.493738
10.43753
10.390648
10.351978
10.319519
10.292247
10.269957
10.251732
10.236558
10.224104
10.214497
10.207216
10.202097
10.198846
10.196481
10.192351
10.182895
10.167321
10.147444
10.128136
10.11513
10.112868
10.127936
10.138082
10.132645
10.104649
10.070759
10.027793
9.9922697
9.9844965
9.9949789
10.001863
10.007563
9.9940879
1540.5833
2425.5323
869.26607
552.39626
347.21554
267.72377
186.66788
151.34636
119.83692
99.049811
82.627474
70.011077
60.046919
52.093356
45.677964
40.424175
36.083235
32.468969
29.438313
26.878168
24.706
22.847944
21.256023
19.88031
18.687335
17.647995
16.737706
15.937074
15.230864
14.606834
14.052449
13.560614
13.124132
12.737328
12.395258
12.091205
11.822478
11.585354
11.376549
11.194873
11.036634
10.899925
10.783171
10.68332
10.598254
10.526263
10.465571
10.414449
10.3717
10.336777
10.307689
10.283408
10.263202
10.2469
10.233437
10.222424
10.213901
10.207613
10.203254
10.200432
10.197876
10.19213
10.181011
10.163799
10.142854
10.123768
10.113608
10.114267
10.130838
10.138877
10.129589
10.102578
10.068828
10.028164
9.9934662
9.984773
9.993882
10.002437
10.005251
9.9940049
1558.5023
2392.7718
837.7043
540.94626
335.54541
260.4344
181.63666
146.5425
116.08415
95.473184
79.442697
67.142982
57.477234
49.790596
43.602369
38.569462
34.42759
30.990877
28.120127
25.701701
23.656636
21.911523
20.417308
19.132656
18.022017
17.056509
16.212863
15.472109
14.819086
14.243374
13.732306
13.279091
12.876975
12.520355
12.204456
11.925167
11.678503
11.461373
11.270925
11.104432
10.959605
10.834152
10.727303
10.636329
10.558914
10.493477
10.438465
10.392421
10.354001
10.322488
10.296482
10.274869
10.256935
10.242381
10.230556
10.220944
10.213439
10.208068
10.204372
10.201791
10.198665
10.191684
10.179154
10.160534
10.138716
10.12033
10.112783
10.115828
10.132365
10.138801
10.127155
10.101563
10.067979
10.02899
9.9950472
9.9854681
9.9939205
10.004173
10.004375
9.9948976
1575.4021
2348.2634
805.14286
528.51562
323.49268
251.95503
176.24023
141.08421
111.66911
91.393434
75.840681
63.942971
54.631954
47.263366
41.36899
36.598528
32.69054
29.458411
26.768083
24.507657
22.597861
20.975738
19.59008
18.400583
17.374445
16.484298
15.707833
15.027038
14.426556
13.896514
13.427612
13.011749
12.642793
12.315686
12.026108
11.770134
11.544241
11.345414
11.171101
11.019022
10.887101
10.773276
10.6756
10.592821
10.52254
10.463235
10.413481
10.371999
10.337616
10.30926
10.286068
10.266952
10.251195
10.238248
10.227916
10.219574
10.213144
10.208598
10.205508
10.203161
10.199088
10.19119
10.1776
10.157934
10.135415
10.117521
10.112472
10.117513
10.132613
10.137167
10.125296
10.101396
10.068757
10.030824
9.9976235
9.9865346
9.9940844
10.005492
10.004135
9.9959056
1590.652
2281.8397
770.85928
514.63609
310.28693
242.13916
170.16344
134.83067
106.49071
86.751803
71.796255
60.392963
51.529961
44.561175
39.015674
34.551522
30.911408
27.907674
25.411004
23.321934
21.561313
20.067804
18.793597
17.700885
16.759236
15.943385
15.232135
14.607872
14.058785
13.573964
13.144974
12.764473
12.426677
12.126945
11.861531
11.627141
11.420576
11.238911
11.079749
10.940849
10.82036
10.716661
10.628353
10.553021
10.489273
10.435603
10.390662
10.353249
10.322309
10.297215
10.276523
10.259616
10.245811
10.234576
10.225641
10.218498
10.213056
10.209262
10.206614
10.204105
10.199344
10.190771
10.176499
10.156189
10.133177
10.116217
10.112575
10.11874
10.13141
10.134494
10.123312
10.102107
10.071623
10.035152
10.002163
9.9882324
9.9935255
10.005249
10.004218
9.9973582
1603.0939
2212.9834
734.02037
498.72087
296.2721
230.77903
162.93759
127.61367
100.47253
81.519965
67.305762
56.536316
48.235272
41.744813
36.603531
32.482671
29.137526
26.376661
24.090304
22.1798
20.571612
19.208493
18.045628
17.047975
16.187883
15.442818
14.792322
14.222977
13.721773
13.278741
12.886717
12.538915
12.229992
11.955582
11.712244
11.497269
11.308183
11.142031
10.996714
10.870052
10.760181
10.666145
10.58552
10.517011
10.459152
10.410607
10.370098
10.336511
10.308882
10.286377
10.267973
10.253029
10.240978
10.23133
10.223721
10.217735
10.213236
10.21015
10.207868
10.204739
10.199497
10.190377
10.175639
10.155059
10.132124
10.116652
10.113395
10.119051
10.129106
10.131418
10.121803
10.103578
10.076595
10.042825
10.009865
9.9913484
9.9925984
10.004522
10.004495
9.9989698
1609.8799
2129.8537
694.34067
479.05681
281.16805
217.54794
154.09248
119.29845
93.617668
75.749232
62.456781
52.484011
44.84688
38.902303
34.207843
30.454224
27.415235
24.912422
22.839625
21.108436
19.650853
18.414748
17.359288
16.452421
15.668876
14.988613
14.395429
13.875715
13.418439
13.013411
12.654732
12.336397
12.053583
11.802252
11.579046
11.381349
11.207779
11.055329
10.92222
10.806606
10.706671
10.620667
10.547145
10.484718
10.4321
10.388118
10.351619
10.321404
10.296888
10.276792
10.260426
10.247191
10.236663
10.228496
10.222154
10.217311
10.213721
10.211179
10.208755
10.205158
10.19938
10.189627
10.174378
10.153954
10.132986
10.119121
10.115007
10.118847
10.126546
10.128741
10.121005
10.105926
10.083314
10.05368
10.021824
9.9978299
9.9940231
10.003103
10.004854
10.000471
1605.7856
2027.5734
651.31793
453.3436
264.79413
202.09816
143.39362
109.91599
86.083001
69.572924
57.438641
48.38589
41.485726
36.130093
31.906711
28.530777
25.798514
23.552387
21.688753
20.130136
18.815539
17.698626
16.743151
15.920569
15.208246
14.58821
14.046098
13.570131
13.150541
12.779405
12.450173
12.157738
11.897829
11.666932
11.462077
11.280719
11.120672
10.980124
10.857333
10.75074
10.658854
10.580143
10.512906
10.455931
10.407963
10.36794
10.335143
10.308139
10.286105
10.268248
10.253794
10.242118
10.233019
10.226039
10.220901
10.217157
10.214402
10.212143
10.20914
10.204956
10.198357
10.187714
10.17203
10.152964
10.135535
10.123088
10.1177
10.119108
10.124548
10.127144
10.121558
10.109531
10.091523
10.066952
10.03811
10.011243
9.9976738
10.001418
10.004942
10.001982
1584.9151
1896.8596
605.15242
420.89687
247.15145
184.2254
131.07385
99.80157
78.224172
63.319963
52.474161
44.40845
38.275998
33.522158
29.772336
26.768946
24.331295
22.328935
20.661348
19.262142
18.07808
17.068836
16.202948
15.45552
14.806592
14.240095
13.743254
13.30618
12.920208
12.578367
12.274638
12.004507
11.76415
11.550441
11.360752
11.192833
11.044708
10.914599
10.800885
10.702068
10.616829
10.544312
10.4825
10.430285
10.386524
10.350166
10.320256
10.295895
10.276126
10.260238
10.247663
10.237599
10.229724
10.223861
10.219775
10.217009
10.214747
10.211951
10.208212
10.202986
10.195214
10.183799
10.169114
10.153605
10.139053
10.127599
10.121206
10.120472
10.123759
10.12677
10.123698
10.114796
10.101172
10.082125
10.057728
10.030694
10.008338
10.001824
10.003888
10.003284
1538.2959
1737.6481
556.99312
382.486
229.18162
164.21006
117.83076
89.587557
70.500279
57.314577
47.788189
40.712521
35.335574
31.164198
27.866663
25.215879
23.053486
21.267131
19.775362
18.517358
17.447871
16.532273
15.743646
15.06069
14.466239
13.946125
13.487944
13.083765
12.725895
12.408857
12.126655
11.875334
11.651461
11.452232
11.275277
11.118568
10.980325
10.858944
10.752953
10.660978
10.581719
10.51394
10.456437
10.4079
10.367315
10.333674
10.306117
10.28402
10.266265
10.252198
10.241149
10.232574
10.226041
10.221242
10.217942
10.21548
10.213023
10.209188
10.204277
10.197747
10.189121
10.178899
10.167611
10.155246
10.14283
10.132168
10.125077
10.122542
10.124078
10.127053
10.127359
10.121595
10.111577
10.097291
10.078052
10.054224
10.028922
10.009057
10.002631
10.002223
1457.9175
1577.2442
507.83083
342.80295
205.13164
144.85358
104.6078
79.961517
63.365136
51.869534
43.597088
37.454669
32.776273
29.132836
26.238509
23.89904
21.979317
20.38345
19.042187
17.904758
16.932381
16.095556
15.371208
14.741046
14.190333
13.707038
13.281234
12.904673
12.570644
12.273546
12.008729
11.772525
11.561853
11.374168
11.207318
11.059448
10.928917
10.814236
10.714025
10.626981
10.551881
10.487636
10.433496
10.38785
10.349794
10.31837
10.292713
10.272032
10.255601
10.24271
10.232793
10.225345
10.219983
10.216111
10.21319
10.210507
10.206982
10.202274
10.196311
10.18935
10.182486
10.175094
10.166447
10.156441
10.145748
10.135789
10.128259
10.124408
10.124465
10.127304
10.129868
10.128778
10.122118
10.110817
10.095292
10.075315
10.051802
10.027361
10.007639
10.000978
1345.647
1488.3886
461.51738
295.29846
181.2261
126.69221
92.659915
71.437758
57.191183
47.278778
40.11926
34.785807
30.700664
27.497026
24.933487
22.846665
21.122897
19.680989
18.460835
17.420409
16.526368
15.753316
15.081239
14.494146
13.979068
13.525388
13.1243
12.768535
12.452171
12.170723
11.919278
11.694633
11.493965
11.314956
11.155638
11.014311
10.889468
10.779741
10.683858
10.600612
10.528838
10.467395
10.415157
10.371171
10.33446
10.304136
10.279373
10.259441
10.243779
10.231509
10.222106
10.215035
10.209812
10.205977
10.20304
10.200343
10.196476
10.1917
10.186253
10.181504
10.176541
10.170899
10.16403
10.15568
10.146241
10.136857
10.129123
10.124464
10.123515
10.125805
10.129623
10.131927
10.131093
10.122102
10.107493
10.089316
10.068121
10.044801
10.021641
10.004354
1213.0254
1248.9849
421.13013
252.87885
159.01813
111.54892
82.770094
64.554752
52.315106
43.74421
37.506261
32.816128
29.190034
26.320406
24.004303
22.103737
20.522227
19.190662
18.058431
17.087689
16.24971
15.522174
14.887432
14.331244
13.841914
13.409697
13.026651
12.686083
12.382453
12.111173
11.868474
11.651209
11.456784
11.283028
11.128097
10.990391
10.868488
10.761093
10.667
10.585086
10.514334
10.453994
10.402552
10.359158
10.322881
10.292871
10.26833
10.248518
10.232756
10.220424
10.210947
10.203805
10.198527
10.194677
10.191765
10.188964
10.185247
10.180917
10.177418
10.17388
10.169999
10.165315
10.159373
10.151923
10.143232
10.134249
10.126397
10.121155
10.119428
10.12122
10.125474
10.130059
10.132184
10.13128
10.117662
10.101157
10.08085
10.056712
10.030139
10.007287
1093.8803
1110.28
388.21885
222.04479
142.38889
100.387
75.435444
59.540955
48.83052
41.263714
35.699767
31.475458
28.178863
25.547543
23.407074
21.638029
20.156302
18.901246
17.828198
16.90362
16.101854
15.402898
14.790875
14.253045
13.779453
13.359962
12.987403
12.65546
12.358924
12.093451
11.855447
11.641947
11.450492
11.279031
11.125819
10.989344
10.868256
10.761323
10.667393
10.585372
10.514219
10.452933
10.400569
10.356204
10.318966
10.288028
10.262614
10.242007
10.225552
10.212655
10.20277
10.195372
10.189943
10.185979
10.182976
10.18021
10.176758
10.173011
10.170077
10.16708
10.163567
10.159105
10.15335
10.146149
10.137721
10.12882
10.120718
10.114894
10.112453
10.113734
10.118232
10.124285
10.129162
10.129729
10.123365
10.108903
10.089836
10.066164
10.038418
10.011177
1039.2501
1069.712
363.79777
204.88618
131.45234
92.769956
69.948823
55.547574
45.858227
39.000526
33.940524
30.080638
27.055178
24.630142
22.649852
21.007306
19.626898
18.453927
17.448008
16.578766
15.822949
15.162426
14.582776
14.072287
13.62127
13.2216
12.866374
12.549757
12.266821
12.013443
11.78619
11.582224
11.399192
11.235132
11.088385
10.957514
10.841244
10.738414
10.647942
10.568808
10.500037
10.440701
10.389907
10.346798
10.310547
10.280361
10.255485
10.235222
10.21896
10.20619
10.196456
10.189261
10.184017
10.180142
10.177166
10.174311
10.170991
10.168238
10.165849
10.163262
10.160057
10.155863
10.150374
10.143359
10.134867
10.125454
10.116385
10.109674
10.107359
10.107237
10.110034
10.115699
10.121722
10.126276
10.126767
10.112822
10.094844
10.071449
10.043222
10.01363
34807.292
80837.626
39882.208
11810.791
1533.8328
634.16866
446.48936
360.06921
298.13576
242.83138
197.74501
163.61691
138.30288
119.47695
104.99552
93.187076
83.177004
74.640552
67.34907
61.068744
55.606219
50.821038
46.607105
42.877685
39.566009
36.605909
33.950696
31.559298
29.398795
27.443262
25.670778
24.061901
22.59954
21.268492
20.05663
18.953892
17.951309
17.040961
16.215669
15.468851
14.794755
14.187814
13.642953
13.155605
12.721317
12.335938
11.99576
11.696801
11.43531
11.207875
11.011142
10.841839
10.696779
10.573248
10.468493
10.380136
10.304865
10.252078
10.222
10.208623
10.205511
10.205877
10.191502
10.177583
10.178091
10.196115
10.227298
10.256675
10.266365
10.273903
10.282797
10.290729
10.295661
10.274471
10.218826
10.22039
10.191764
10.156167
10.025175
10.064063
19299.501
66447.89
28154.05
5788.7104
1021.5027
547.48587
408.19654
330.29582
271.01181
218.73144
179.02991
149.56333
127.83027
111.50822
98.688374
87.940792
78.755336
70.926702
64.219378
58.408178
53.328352
48.862132
44.916373
41.413487
38.290104
35.491762
32.97593
30.704204
28.647546
26.782729
25.089595
23.550135
22.14858
20.870921
19.706313
18.645513
17.680164
16.802927
16.007077
15.286455
14.635704
14.049513
13.523119
13.052203
12.632494
12.260041
11.931288
11.642319
11.389535
11.169644
10.979385
10.815593
10.675206
10.555632
10.45421
10.368516
10.295546
10.24542
10.216779
10.203737
10.200927
10.199631
10.187168
10.177618
10.184424
10.205838
10.236259
10.258131
10.265892
10.273546
10.282433
10.289957
10.291457
10.259665
10.18963
10.219866
10.197286
10.156932
10.023466
10.055325
24434.538
45036.411
16735.263
2986.4187
883.36247
515.32075
395.63131
314.50395
257.08179
206.91849
170.79554
143.24421
122.94629
107.59332
95.393845
85.069364
76.276674
68.795718
62.371453
56.793074
51.911595
47.616633
43.818855
40.443948
37.429694
34.727699
32.296798
30.099572
28.109168
26.303374
24.662771
23.170042
21.810112
20.569593
19.438397
18.407646
17.469326
16.616428
15.842479
15.141573
14.508593
13.93836
13.42632
12.968301
12.560137
12.198
11.878421
11.597513
11.35179
11.138041
10.953069
10.793797
10.657272
10.541007
10.442242
10.358721
10.287725
10.239553
10.211725
10.19881
10.196302
10.194053
10.185058
10.180893
10.191809
10.215261
10.242942
10.258091
10.265281
10.273131
10.281919
10.289511
10.288142
10.240708
10.168295
10.219166
10.202972
10.157053
10.021941
10.04666
32833.825
27198.263
9685.3429
1767.7929
788.37312
489.74912
382.49084
298.59305
244.80441
195.65185
163.17461
137.06542
118.25429
103.83234
92.237735
82.331361
73.923941
66.76914
60.609478
55.250888
50.556603
46.422642
42.7638
39.50916
36.599927
33.987118
31.636057
29.509457
27.582187
25.832802
24.242597
22.794882
21.475216
20.270783
19.172209
18.170903
17.259173
16.430313
15.678066
14.996766
14.38151
13.827233
13.32958
12.884507
12.487937
12.136164
11.825792
11.552963
11.31431
11.106702
10.927011
10.772247
10.639642
10.526547
10.430417
10.349034
10.280067
10.233632
10.206507
10.193816
10.191713
10.18958
10.184699
10.186054
10.199938
10.223871
10.247288
10.257712
10.264728
10.272704
10.281308
10.289123
10.285264
10.218467
10.156195
10.220073
10.207221
10.156762
10.020705
10.037777
38387.595
21658.871
6634.1444
1327.2595
743.09738
471.28866
371.73975
285.42054
235.56873
186.93459
157.63377
132.19258
114.6222
100.81988
89.662232
80.072826
71.97418
65.073743
59.121237
53.937404
49.393688
45.390322
41.84507
38.689559
35.867083
33.331417
31.045906
28.979392
27.106326
25.405716
23.859403
22.451165
21.167067
19.994746
18.925428
17.950679
17.063085
16.256176
15.523858
14.860664
14.26186
13.722454
13.238273
12.80536
12.419709
12.077712
11.776029
11.510824
11.27885
11.077041
10.902336
10.751846
10.622896
10.512798
10.419145
10.339777
10.272803
10.227819
10.201239
10.188842
10.187204
10.186324
10.185271
10.191561
10.208024
10.230914
10.249186
10.257078
10.264181
10.272218
10.280527
10.28808
10.282092
10.195152
10.152805
10.222597
10.209343
10.152299
10.019934
10.029443
41906.853
19530.745
4918.4003
1217.2007
717.40383
450.93311
362.95556
274.64625
228.30429
179.79748
153.20734
128.00141
111.57175
98.202819
87.412387
78.09205
70.258983
63.571757
57.79531
52.761743
48.348174
44.45812
41.011839
37.943084
35.197027
32.728925
30.502225
28.489306
26.66471
25.00798
23.501343
22.12896
20.877328
19.734471
18.692148
17.741995
16.876869
16.090482
15.376875
14.730753
14.147521
13.622234
13.150885
12.729576
12.354358
12.02171
11.728336
11.470416
11.244827
11.048562
10.87864
10.732301
10.606746
10.499502
10.408223
10.330804
10.265797
10.222054
10.195964
10.183972
10.182837
10.18418
10.186979
10.197245
10.215197
10.235783
10.24911
10.256343
10.263622
10.271673
10.279563
10.285997
10.278447
10.176102
10.152164
10.227818
10.209144
10.144805
10.019566
10.022615
44517.092
17843.612
3882.5715
1152.9859
698.10728
436.1681
356.39237
265.7763
222.64619
174.00015
149.6236
124.41831
109.01719
95.927304
85.449386
76.355009
68.748214
62.239434
56.612728
51.70816
47.406967
43.615257
40.255315
37.26262
34.583861
32.175676
30.00295
28.036604
26.255241
24.638
23.167252
21.827448
20.605454
19.489622
18.472184
17.544784
16.700539
15.933303
15.237222
14.607156
14.038616
13.526686
13.067511
12.657227
12.291932
11.96818
11.682706
11.431713
11.212204
11.021235
10.855949
10.713423
10.591123
10.486616
10.397623
10.322112
10.259023
10.216365
10.190767
10.179303
10.178727
10.182881
10.189878
10.202616
10.220747
10.238181
10.248074
10.255583
10.263012
10.271048
10.278448
10.282996
10.274158
10.16544
10.152018
10.233501
10.207947
10.136556
10.019632
10.017772
46492.811
15185.794
3217.6449