/*--------------------------------*- C++ -*----------------------------------*\
  =========                 |
  \\      /  F ield         | OpenFOAM: The Open Source CFD Toolbox
   \\    /   O peration     | Website:  https://openfoam.org
    \\  /    A nd           | Version:  12
     \\/     M anipulation  |
\*---------------------------------------------------------------------------*/
FoamFile
{
    format      ascii;
    class       volScalarField;
    location    "0.025";
    object      p;
}
// * * * * * * * * * * * * * * * * * * * * * * * * * * * * * * * * * * * * * //

dimensions      [1 -1 -2 0 0 0 0];

internalField   nonuniform List<scalar> 
16000
(
88600.231
88730.301
88742.228
88880.414
88907.9
89038.097
89090.599
89209.706
89286.059
89399.413
89494.18
89607.589
89716.45
89834.363
89954.299
90079.703
90209.233
90343.475
90482.304
90625.801
90773.967
90926.797
91084.259
91246.295
91412.821
91583.72
91758.845
91938.014
92121.009
92307.576
92497.425
92690.223
92885.603
93083.159
93282.448
93482.992
93684.284
93885.784
94086.932
94287.146
94485.832
94682.388
94876.213
95066.711
95253.301
95435.422
95612.538
95784.146
95949.783
96109.035
96261.542
96407.011
96545.213
96676
96799.312
96915.202
97023.854
97125.627
97221.095
97311.111
97396.834
97479.723
97561.471
97643.89
97728.719
97817.393
97910.834
98009.22
98111.765
98217.002
98322.937
98430.972
98536.696
98638.098
98725.732
98824.88
98991.52
98725.451
99596.604
98412.513
88246.933
88394.323
88404.015
88554.387
88583.418
88724.569
88779.6
88910.056
88990.414
89114.062
89215.451
89338.035
89455.491
89582.573
89712.094
89847.343
89987.148
90131.978
90281.748
90436.5
90596.218
90760.87
90930.392
91104.695
91283.655
91467.116
91654.885
91846.732
92042.39
92241.547
92443.853
92648.918
92856.309
93065.556
93276.152
93487.555
93699.197
93910.482
94120.797
94329.512
94535.995
94739.614
94939.742
95135.771
95327.112
95513.203
95693.515
95867.556
96034.88
96195.091
96347.851
96492.882
96629.97
96758.971
96879.826
96992.571
97097.37
97194.547
97284.638
97368.446
97447.08
97521.968
97594.807
97667.489
97741.977
97820.157
97903.612
97993.268
98089.434
98190.961
98295.187
98400.729
98505.969
98603.974
98692.882
98806.127
98907.604
98748.899
99510.461
98389.213
87924.898
88087.931
88097.51
88261.249
88290.553
88445.956
88503.167
88646.345
88732.028
88866.531
88976.149
89108.716
89236.194
89373.598
89514.012
89660.379
89811.723
89968.388
90130.302
90297.471
90469.852
90647.381
90829.962
91017.468
91209.732
91406.554
91607.688
91812.849
92021.705
92233.88
92448.955
92666.464
92885.902
93106.722
93328.346
93550.161
93771.531
93991.803
94210.31
94426.381
94639.352
94848.568
95053.394
95253.219
95447.466
95635.591
95817.09
95991.505
96158.429
96317.508
96468.444
96610.995
96744.978
96870.27
96986.824
97094.678
97193.98
97285.031
97368.33
97444.634
97514.995
97580.777
97643.632
97705.454
97768.326
97834.459
97905.975
97984.473
98071.086
98166.227
98265.008
98367.446
98468.332
98561.969
98651.77
98764.429
98834.174
98749.553
99434.53
98343.97
87642.878
87816.782
87827.38
88006.516
88035.528
88207.423
88267.017
88424.703
88516.57
88663.436
88782.735
88926.584
89065.589
89214.626
89367.254
89525.991
89690.066
89859.718
90034.887
90215.552
90401.648
90593.082
90789.721
90991.392
91197.878
91408.918
91624.2
91843.364
92066
92291.647
92519.797
92749.897
92981.352
93213.528
93445.762
93677.366
93907.636
94135.859
94361.322
94583.322
94801.173
95014.216
95221.824
95423.408
95618.422
95806.364
95986.785
96159.286
96323.523
96479.207
96626.102
96764.023
96892.834
97012.45
97122.846
97224.072
97316.272
97399.723
97474.891
97542.486
97603.497
97659.204
97711.173
97761.226
97811.443
97864.164
97921.806
97986.453
98059.874
98143.264
98232.99
98326.852
98419.98
98508.075
98596.848
98702.479
98754.196
98737.86
99362.823
98269.691
87403.864
87592.915
87600.702
87798.816
87826.734
88016.777
88078.447
88252.368
88351.653
88512.112
88642.582
88798.522
88950.13
89111.635
89277.363
89449.377
89627.122
89810.756
90000.224
90195.472
90396.4
90602.864
90814.674
91031.589
91253.318
91479.512
91709.768
91943.628
92180.577
92420.05
92661.43
92904.058
93147.235
93390.231
93632.294
93872.658
94110.555
94345.22
94575.91
94801.904
95022.52
95237.117
95445.103
95645.938
95839.139
96024.279
96200.99
96368.962
96527.941
96677.728
96818.169
96949.152
97070.604
97182.49
97284.82
97377.659
97461.15
97535.555
97601.307
97659.063
97709.741
97754.528
97794.873
97832.48
97869.34
97907.747
97950.187
97999.207
98056.813
98123.444
98198.287
98280.163
98361.941
98441.994
98527.185
98624.29
98668.071
98709.737
99276.141
98163.759
87208.501
87415.659
87421.05
87640.804
87667.901
87878.728
87943.731
88135.888
88242.747
88416.357
88558.45
88726.604
88891.574
89066.396
89246.3
89432.849
89625.642
89824.737
90030.041
90241.436
90458.754
90681.771
90910.21
91143.732
91381.939
91624.37
91870.503
92119.754
92371.482
92624.994
92879.547
93134.361
93388.626
93641.51
93892.175
94139.784
94383.518
94622.584
94856.228
95083.744
95304.481
95517.854
95723.338
95920.483
96108.902
96288.278
96458.358
96618.949
96769.915
96911.164
97042.643
97164.327
97276.218
97378.339
97470.738
97553.5
97626.772
97690.797
97745.976
97792.911
97832.438
97865.633
97893.805
97918.497
97941.527
97965.004
97991.302
98023.167
98062.877
98109.197
98166.575
98228.89
98295.238
98364.25
98443.371
98530.429
98571.538
98661.546
99159.766
98026.466
87053.525
87281.723
87284.322
87529.152
87555.084
87790.655
87857.641
88067.006
88182.638
88370.347
88526.329
88708.466
88889.041
89079.406
89275.737
89479.111
89689.215
89906.006
90129.324
90358.969
90594.678
90836.123
91082.91
91334.577
91590.591
91850.349
92113.181
92378.353
92645.074
92912.504
93179.762
93445.938
93710.111
93971.352
94228.751
94481.423
94728.524
94969.264
95202.919
95428.836
95646.442
95855.247
96054.845
96244.911
96425.199
96595.537
96755.819
96905.997
97046.068
97176.068
97296.053
97406.096
97506.276
97596.677
97677.386
97748.509
97810.192
97862.665
97906.292
97941.615
97969.376
97990.519
98006.183
98017.707
98026.653
98034.851
98044.467
98058.052
98077.22
98100.96
98135.709
98176.2
98223.403
98278.211
98347.958
98421.419
98462.346
98589.536
99003.805
97853.215
86933.075
87185.98
87184.643
87459.337
87481.542
87742.552
87812.302
88041.767
88170.734
88375.49
88549.091
88748.066
88947.277
89156.109
89371.675
89594.648
89824.749
90061.834
90305.656
90555.906
90812.196
91074.066
91340.972
91612.291
91887.323
92165.29
92445.343
92726.573
93008.017
93288.675
93567.52
93843.519
94115.647
94382.905
94644.338
94899.05
95146.218
95385.104
95615.066
95835.561
96046.147
96246.486
96436.336
96615.549
96784.057
96941.867
97089.046
97225.707
97351.997
97468.082
97574.133
97670.318
97756.792
97833.694
97901.147
97959.272
98008.216
98048.192
98079.524
98102.686
98118.312
98127.193
98130.267
98128.613
98123.478
98116.349
98109.042
98103.429
98100.63
98102.722
98111.575
98127.583
98152.393
98189.775
98245.802
98302.553
98340.634
98491.903
98802.382
97644.047
86846.887
87128.765
87123.397
87433.305
87450.883
87740.748
87819.254
88072.254
88217.615
88441.207
88635.72
88854.23
89074.997
89305.302
89543.05
89788.559
90041.519
90301.66
90568.603
90841.889
91120.97
91405.202
91693.851
91986.089
92281.005
92577.608
92874.842
93171.595
93466.722
93759.057
94047.439
94330.729
94607.835
94877.725
95139.453
95392.172
95635.144
95867.753
96089.509
96300.045
96499.118
96686.599
96862.465
97026.783
97179.7
97321.422
97452.205
97572.329
97682.089
97781.778
97871.675
97952.032
98023.068
98084.965
98137.873
98181.925
98217.261
98244.077
98262.655
98273.394
98276.803
98273.498
98264.182
98249.638
98230.753
98208.637
98184.611
98159.794
98135.362
98115.447
98098.202
98088.616
98089.207
98106.205
98142.195
98177.835
98208.185
98372.234
98562.165
97409.594
86800.805
87116.393
87106.928
87454.577
87472.929
87796.473
87886.392
88164.742
88330.937
88575.7
88794.893
89036.197
89281.791
89536.935
89800.123
90071.372
90350.272
90636.382
90929.146
91227.903
91531.88
91840.198
92151.872
92465.817
92780.865
93095.776
93409.258
93719.99
94026.642
94327.906
94622.517
94909.277
95187.084
95454.95
95712.015
95957.568
96191.048
96412.048
96620.315
96815.736
96998.333
97168.243
97325.701
97471.022
97604.583
97726.797
97838.102
97938.939
98029.735
98110.892
98182.776
98245.704
98299.94
98345.694
98383.13
98412.383
98433.587
98446.915
98452.607
98450.975
98442.395
98427.288
98406.099
98379.28
98347.354
98311.01
98271
98228.033
98183.589
98140.729
98099.451
98064.748
98040.615
98034.71
98045.478
98052.251
98070.108
98238.62
98301.996
97171.757
86804.215
87159.764
87146.204
87536.247
87558.219
87918.377
88022.814
88328.425
88520.249
88788.699
89036.515
89304.367
89578.434
89862.177
90154.438
90454.944
90763.105
91078.249
91399.564
91726.11
92056.818
92390.495
92725.84
93061.456
93395.878
93727.594
94055.072
94376.792
94691.275
94997.12
95293.026
95577.827
95850.511
96110.241
96356.364
96588.42
96806.135
97009.414
97198.329
97373.094
97534.049
97681.634
97816.365
97938.808
98049.563
98149.236
98238.422
98317.692
98387.579
98448.564
98501.068
98545.446
98581.984
98610.902
98632.364
98646.499
98653.431
98653.312
98646.332
98632.716
98612.695
98586.489
98554.267
98516.143
98472.267
98422.896
98368.258
98308.803
98245.932
98181.715
98118.717
98060.765
98012.775
97981.738
97963.51
97935.68
97935.184
98098.376
98043.051
96958.872
86861.041
87263.992
87246.994
87685.707
87711.779
88111.623
88235.843
88570.744
88794.267
89089.974
89370.994
89670.045
89976.938
90293.652
90619.146
90952.824
91293.817
91641.124
91993.577
92349.854
92708.496
93067.922
93426.455
93782.349
94133.823
94479.097
94816.43
95144.159
95460.739
95764.779
96055.071
96330.623
96590.667
96834.671
97062.338
97273.593
97468.567
97647.569
97811.066
97959.646
98093.99
98214.844
98322.991
98419.227
98504.336
98579.074
98644.155
98700.237
98747.914
98787.705
98820.055
98845.324
98863.796
98875.68
98881.129
98880.263
98873.193
98860.048
98840.966
98816.081
98785.482
98749.184
98707.081
98658.952
98604.583
98543.787
98476.323
98402.382
98323.257
98241.09
98158.845
98080.491
98010.501
97953.26
97901.062
97838.595
97815.493
97954.259
97798.639
96791.574
86970.94
87430.013
87409.611
87903.185
87938.653
88382.395
88534.317
88901.468
89163.898
89491.778
89811.266
90147.052
90491.91
90846.621
91210.011
91581.062
91958.478
92340.79
92726.349
93113.348
93499.854
93883.837
94263.21
94635.868
94999.742
95352.841
95693.309
96019.472
96329.878
96623.337
96898.938
97156.067
97394.401
97613.892
97814.752
97997.414
98162.499
98310.781
98443.141
98560.542
98663.982
98754.476
98833.023
98900.587
98958.08
99006.35
99046.17
99078.23
99103.139
99121.413
99133.48
99139.68
99140.268
99135.431
99125.304
99109.992
99089.594
99064.214
99033.939
98998.809
98958.779
98913.665
98863.099
98806.553
98743.462
98673.217
98595.21
98509.461
98417.111
98320.22
98221.888
98125.927
98035.834
97952.408
97868.986
97769.965
97723.324
97816.688
97578.879
96675.733
87141.287
87667.006
87644.084
88200.434
88250.824
88742.523
88931.124
89333.919
89643.042
90009.479
90373.633
90752.74
91141.605
91539.931
91946.131
92358.589
92775.417
93194.543
93613.722
94030.576
94442.638
94847.401
95242.377
95625.161
95993.502
96345.361
96678.979
96992.919
97286.099
97557.806
97807.696
98035.774
98242.36
98428.052
98593.677
98740.239
98868.875
98980.806
99077.293
99159.609
99229.001
99286.668
99333.745
99371.283
99400.247
99421.503
99435.822
99443.875
99446.234
99443.374
99435.676
99423.432
99406.856
99386.102
99361.282
99332.491
99299.816
99263.332
99223.075
99178.995
99130.917
99078.475
99021.066
98957.893
98888.076
98810.638
98724.695
98630.129
98527.876
98419.734
98308.492
98197.344
98088.386
97980.307
97867.768
97740.081
97665.853
97701.074
97401.508
96618.35
87378.002
87983.467
87960.168
88587.501
88660.118
89203.849
89440.556
89884.438
90249.475
90663.102
91079.572
91509.613
91949.07
92396.583
92849.898
93306.646
93764.206
94219.777
94670.419
95113.115
95544.844
95962.667
96363.817
96745.793
97106.439
97444.01
97757.217
98045.241
98307.731
98544.777
98756.863
98944.813
99109.724
99252.905
99375.811
99479.988
99567.019
99638.481
99695.912
99740.783
99774.475
99798.267
99813.327
99820.707
99821.34
99816.049
99805.541
99790.418
99771.179
99748.225
99721.867
99692.333
99659.79
99624.355
99586.122
99545.177
99501.596
99455.426
99406.647
99355.125
99300.562
99242.425
99179.911
99112.008
99037.567
98955.32
98864.192
98763.908
98655.096
98539.081
98417.945
98293.956
98168.265
98038.567
97898.247
97744.926
97645.042
97620.014
97284.423
96630.925
87686.954
88387.679
88366.644
89074.97
89181.746
89783.908
90083.607
90577.318
91008.949
91480.07
91957.178
92445.687
92941.657
93442.637
93945.501
94446.947
94943.442
95431.313
95906.844
96366.393
96806.518
97224.109
97616.5
97981.56
98317.747
98624.138
98900.406
99146.782
99363.994
99553.178
99715.803
99853.574
99968.359
100062.11
100136.8
100194.38
100236.73
100265.63
100282.75
100289.6
100287.58
100277.93
100261.76
100240.03
100213.58
100183.13
100149.28
100112.52
100073.26
100031.8
99988.372
99943.136
99896.209
99847.68
99797.631
99746.141
99693.274
99639.048
99583.388
99526.076
99466.698
99404.574
99338.742
99268.012
99191.019
99106.292
99012.618
98909.51
98797.178
98676.318
98548.049
98413.553
98273.226
98124.265
97960.423
97789.266
97667.087
97586.805
97238.989
96720.573
88077.08
88891.562
88878.861
89684.019
89841.713
90512.409
90892.077
91446.25
91955.03
92493.921
93039.316
93592.508
94149.05
94705.189
95256.588
95798.727
96326.957
96836.691
97323.58
97783.702
98213.724
98611.026
98973.774
99300.944
99592.291
99848.281
100070
100259.03
100417.35
100547.18
100650.93
100731.06
100790.03
100830.24
100853.97
100863.36
100860.39
100846.86
100824.38
100794.41
100758.22
100716.92
100671.48
100622.7
100571.29
100517.81
100462.74
100406.44
100349.21
100291.24
100232.68
100173.64
100114.19
100054.41
99994.356
99934.12
99873.749
99813.227
99752.422
99691.038
99628.551
99564.155
99496.755
99425.014
99347.396
99262.289
99168.353
99064.827
98951.432
98828.148
98695.087
98552.394
98399.726
98234.405
98053.877
97872.812
97732.651
97611.253
97269.156
96876.746
88570.333
89525.76
89532.106
90452.792
90678.436
91427.45
91904.399
92530.126
93125.676
93741.969
94362.136
94983.994
95601.707
96209.707
96802.047
97372.838
97916.486
98427.971
98903.075
99338.559
99732.249
100083.05
100390.91
100656.65
100881.92
101068.91
101220.29
101339
101428.13
101490.79
101530.04
101548.82
101549.88
101535.77
101508.83
101471.14
101424.58
101370.8
101311.24
101247.16
101179.63
101109.55
101037.69
100964.69
100891.05
100817.2
100743.45
100670.06
100597.19
100524.95
100453.43
100382.66
100312.71
100243.64
100175.52
100108.42
100042.39
99977.367
99913.164
99849.405
99785.471
99720.443
99653.113
99582.008
99505.453
99421.715
99329.3
99227.129
99114.408
98990.394
98854.293
98705.409
98542.915
98364.923
98172.848
97985.907
97837.362
97690.212
97369.656
97083.489
89196.634
90329.663
90364.946
91420.198
91733.296
92568.732
93162.126
93873.216
94565.314
95267.612
95966.127
96655.093
97326.449
97972.541
98586.02
99160.353
99690.141
100171.35
100601.43
100979.29
101305.22
101580.66
101808.01
101990.41
102131.46
102235.03
102305.11
102345.64
102360.41
102353.01
102326.74
102284.62
102229.36
102163.38
102088.81
102007.5
101921.06
101830.86
101738.07
101643.69
101548.52
101453.23
101358.38
101264.4
101171.62
101080.32
100990.66
100902.77
100816.73
100732.57
100650.3
100569.95
100491.56
100415.19
100340.93
100268.85
100198.96
100131.16
100065.22
100000.68
99936.835
99872.665
99806.852
99737.796
99663.688
99582.665
99493.044
99393.407
99282.463
99158.813
99020.936
98867.545
98697.705
98510.778
98311.753
98122.487
97969.322
97809.668
97529.281
97343.017
89983.21
91330.545
91411.045
92620.006
93055.056
93989.316
94720.984
95534.123
96330.244
97120.635
97890.734
98631.16
99331.888
99984.299
100581.38
101118.08
101591.45
102000.55
102346.27
102631.02
102858.37
103032.74
103159.03
103242.38
103287.93
103300.67
103285.29
103246.14
103187.17
103111.9
103023.48
102924.65
102817.8
102704.97
102587.92
102468.12
102346.84
102225.09
102103.72
101983.44
101864.79
101748.19
101634
101522.45
101413.72
101307.92
101205.12
101105.33
101008.54
100914.74
100823.9
100736.04
100651.19
100569.44
100490.88
100415.55
100343.46
100274.47
100208.28
100144.38
100081.96
100019.92
99956.833
99890.963
99820.365
99743.033
99657.074
99560.755
99452.343
99329.907
99191.398
99035.203
98860.666
98668.899
98467.427
98278.086
98121.853
97964.627
97737.338
97651.072
90963.326
92578.674
92740.43
94121.172
94723.561
95772.639
96659.638
97585.07
98479.264
99340.23
100151.85
100902.97
101584.26
102189.39
102714.98
103160.53
103527.97
103821.2
104045.54
104207.24
104313.02
104369.7
104383.93
104361.99
104309.68
104232.24
104134.36
104020.12
103893.11
103756.4
103612.62
103463.99
103312.38
103159.36
103006.2
102853.96
102703.5
102555.5
102410.48
102268.86
102130.94
101996.93
101866.98
101741.17
101619.54
101502.07
101388.74
101279.48
101174.21
101072.9
100975.5
100882.03
100792.55
100707.15
100625.91
100548.89
100476.05
100407.22
100342.04
100279.94
100220.06
100161.18
100101.76
100039.94
99973.656
99900.75
99819.155
99726.886
99621.878
99501.816
99364.321
99207.723
99032.098
98840.641
98641.942
98456.239
98302.776
98159.907
97995.887
97980.634
92221.14
94174.548
94462.679
96035.719
96853.024
98025.25
99062.387
100084.35
101039.09
101917.86
102706.76
103397.97
103987.75
104476.49
104867.87
105168.13
105385.21
105528.03
105605.79
105627.59
105602.01
105536.99
105439.63
105316.23
105172.26
105012.43
104840.75
104660.62
104474.87
104285.84
104095.5
103905.42
103716.91
103530.99
103348.48
103170.02
102996.09
102827.05
102663.15
102504.55
102351.33
102203.53
102061.13
101924.09
101792.32
101665.74
101544.22
101427.65
101315.93
101208.99
101106.8
101009.4
100916.86
100829.29
100746.76
100669.32
100596.9
100529.29
100466.12
100406.74
100350.23
100295.28
100240.25
100183.18
100121.88
100054.14
99977.791
99890.716
99790.667
99675.116
99541.552
99388.436
99216.755
99032.399
98844.49
98669.148
98527.138
98410.25
98306.468
98328.194
93888.29
96259.227
96729.122
98492.353
99559.829
100839.99
101974.1
103025.25
103955.26
104757.82
105428.63
105969.83
106388.03
106693.16
106897.12
107012.69
107052.62
107029.04
106953.07
106834.68
106682.54
106504.14
106305.82
106092.88
105869.76
105640.11
105406.9
105172.57
104939.06
104707.94
104480.45
104257.55
104039.99
103828.31
103622.91
103424.07
103231.95
103046.64
102868.16
102696.46
102531.46
102373.06
102221.11
102075.47
101935.98
101802.46
101674.77
101552.74
101436.27
101325.3
101219.81
101119.86
101025.54
100936.97
100854.22
100777.32
100706.18
100640.58
100580.12
100524.11
100471.57
100421.13
100371.08
100319.38
100263.86
100202.31
100132.65
100052.79
99960.475
99853.154
99728.345
99584.784
99424.231
99253.803
99085.429
98931.84
98809.931
98722.9
98667.51
98706.507
96155.835
98993.862
99708.043
101611.67
102891.09
104218.29
105331.69
106283.34
107060.02
107667.46
108116.72
108423.7
108606.41
108683.41
108672.5
108589.97
108450.26
108265.82
108047.19
107803.14
107540.89
107266.33
106984.21
106698.34
106411.75
106126.85
105845.5
105569.17
105298.96
105035.7
104780.01
104532.3
104292.85
104061.82
103839.27
103625.17
103419.45
103221.98
103032.6
102851.11
102677.31
102510.98
102351.9
102199.85
102054.61
101915.98
101783.75
101657.77
101537.93
101424.19
101316.56
101215.12
101119.99
101031.27
100949.05
100873.33
100804.03
100740.93
100683.6
100631.36
100583.21
100537.73
100493.19
100447.61
100398.92
100345.17
100284.49
100215.03
100134.7
100041.11
99931.881
99805.931
99665.577
99518.371
99376.908
99253.6
99158.212
99096.374
99068.824
99103.606
99278.142
102493.04
103514.81
105485.36
106804.98
107983.08
108908.65
109606.45
110094.32
110399.06
110548.78
110571.17
110491.49
110331.87
110111.06
109844.58
109545.04
109222.56
108885.18
108539.19
108189.54
107840.03
107493.6
107152.46
106818.3
106492.36
106175.52
105868.41
105571.43
105284.82
105008.7
104743.05
104487.81
104242.81
104007.87
103782.76
103567.2
103360.93
103163.64
102975.04
102794.84
102622.74
102458.47
102301.76
102152.34
102010
101874.51
101745.74
101623.58
101508.01
101399.08
101296.89
101201.56
101113.21
101031.92
100957.71
100890.5
100830.09
100776.08
100727.81
100684.27
100644.11
100605.66
100567.1
100526.72
100482.94
100434.36
100379.5
100316.62
100243.54
100157.93
100058.55
99947.588
99832.592
99725.141
99635.225
99565.328
99514.188
99484.556
99492.369
103510.5
106939.97
108164.97
109869.52
111004.96
111843.39
112383.75
112681.03
112780.1
112724.3
112550.32
112288.6
111963.52
111594.25
111195.64
110779.03
110353.03
109924.09
109497.03
109075.42
108661.84
108258.15
107865.67
107485.27
107117.52
106762.73
106421.03
106092.41
105776.76
105473.87
105183.48
104905.31
104639
104384.2
104140.53
103907.62
103685.08
103472.51
103269.55
103075.82
102890.98
102714.68
102546.6
102386.46
102233.97
102088.88
101951.01
101820.19
101696.36
101579.53
101469.76
101367.18
101271.92
101184.11
101103.84
101031.14
100965.97
100908.17
100857.4
100813.07
100774.23
100739.63
100707.8
100677.28
100646.81
100615.45
100582.35
100546.57
100506.72
100460.81
100406.36
100341.51
100267.37
100190.25
100119.62
100060.32
100005.32
99942.283
99875.092
99833.638
108781.98
112173.06
113300.81
114437.34
115055.41
115344
115367.97
115201.1
114897.77
114500.62
114041.37
113543.36
113023.56
112494.17
111963.87
111438.78
110923.19
110420.02
109931.21
109458.01
109001.13
108560.95
108137.55
107730.84
107340.58
106966.44
106608.03
106264.9
105936.58
105622.58
105322.4
105035.54
104761.49
104499.77
104249.88
104011.33
103783.68
103566.46
103359.24
103161.62
102973.2
102793.63
102622.55
102459.67
102304.69
102157.36
102017.5
101884.98
101759.74
101641.81
101531.29
101428.32
101333.04
101245.59
101166.1
101094.61
101031.16
100975.64
100927.79
100887.12
100852.8
100823.77
100798.85
100777.05
100757.73
100740.59
100725.5
100711.99
100699.03
100684.76
100666.36
100640.84
100607.31
100569.31
100532.53
100494.59
100435.7
100332.74
100195.83
100087.78
115043.88
117572.52
118189.1
118474.47
118382.61
118055.03
117571.51
116992.93
116360.07
115700.6
115032.86
114368.95
113716.7
113081.07
112465.1
111870.55
111298.29
110748.58
110221.34
109716.18
109232.58
108769.9
108327.45
107904.5
107500.32
107114.16
106745.3
106393.05
106056.7
105735.59
105429.07
105136.53
104857.36
104590.99
104336.85
104094.42
103863.19
103642.66
103432.38
103231.91
103040.85
102858.82
102685.47
102520.48
102363.57
102214.48
102073.04
101939.14
101812.73
101693.86
101582.64
101479.23
101383.79
101296.48
101217.44
101146.78
101084.57
101030.8
100985.32
100947.72
100917.33
100893.31
100874.88
100861.5
100853.15
100850.18
100853.18
100862.2
100876.48
100894.3
100912.46
100926.48
100932.62
100930.44
100920.22
100891.57
100812.43
100646.75
100415.32
100238.57
121707.86
122153.22
121936.72
121387.9
120656.05
119831.46
118970.45
118104.92
117253.49
116426.43
115629.21
114864.38
114132.78
113434.23
112767.95
112132.84
111527.61
110950.93
110401.44
109877.82
109378.79
108903.12
108449.66
108017.32
107605.07
107211.94
106837.01
106479.43
106138.38
105813.09
105502.83
105206.92
104924.71
104655.55
104398.87
104154.1
103920.7
103698.16
103486.01
103283.81
103091.13
102907.58
102732.83
102566.52
102408.39
102258.19
102115.73
101980.89
101853.63
101734.01
101622.14
101518.2
101422.34
101334.77
101255.66
101185.16
101123.39
101070.41
101026.16
100990.39
100962.58
100942.06
100928.32
100921.28
100921.43
100929.73
100947.52
100975.69
101013.67
101059.17
101108.37
101156.01
101195.76
101222.25
101229.48
101199.77
101091.28
100861.42
100542.64
100300.34
125599.54
124973.14
124056.01
123001.9
121915.44
120840.84
119800.85
118804.8
117856.19
116955.26
116100.75
115290.61
114522.5
113793.99
113102.7
112446.34
111822.79
111230.05
110666.31
110129.86
109619.15
109132.74
108669.32
108227.65
107806.61
107405.15
107022.29
106657.12
106308.79
105976.51
105659.5
105357.08
105068.56
104793.31
104530.72
104280.22
104041.26
103813.34
103595.97
103388.69
103191.08
103002.76
102823.34
102652.52
102490
102335.53
102188.9
102049.95
101918.71
101795.24
101679.63
101572.07
101472.76
101381.92
101299.77
101226.52
101162.35
101107.36
101061.5
101024.64
100996.36
100976.27
100964.09
100959.65
100963.51
100977.42
101003.85
101045.33
101100.08
101161.38
101225.08
101290.94
101354.02
101401.97
101418.91
101385.6
101253.92
100978.06
100599.51
100313.17
102921.93
102889.7
102927.54
102967.59
102996.76
103000.47
102976.72
102940.94
102898.99
102847.29
102781.56
102703.81
102616.86
102525.7
102431.23
102333.65
102233.16
102130.14
102024.93
101917.86
101809.22
101699.29
101588.35
101476.64
101364.4
101251.85
101139.18
101026.59
100914.27
100802.38
100691.09
100580.56
100470.94
100362.39
100255.05
100149.06
100044.58
99941.75
99840.721
99741.652
99644.711
99550.076
99457.94
99368.507
99282
99198.656
99118.737
99042.522
98970.32
98902.466
98839.319
98781.263
98728.694
98682.016
98641.629
98607.918
98581.24
98561.901
98550.132
98546.046
98549.572
98560.44
98577.974
98601.482
98629.155
98660.692
98691.851
98725.708
98754.409
98785.792
98818.343
98834.547
98905.875
98879.475
99020.715
98942.138
99204.035
98971.476
99518.639
98928.589
102079.8
102073.43
102091.78
102113.66
102115.63
102112.62
102104.89
102090.75
102066.58
102035.85
101997.97
101954.45
101904.92
101850.19
101790.43
101726.18
101657.71
101585.34
101509.37
101430.11
101347.86
101262.91
101175.55
101086.06
100994.72
100901.79
100807.54
100712.22
100616.07
100519.34
100422.26
100325.04
100227.91
100131.09
100034.77
99939.156
99844.457
99750.867
99658.585
99567.818
99478.772
99391.666
99306.724
99224.181
99144.285
99067.299
98993.505
98923.205
98856.724
98794.41
98736.636
98683.789
98636.269
98594.481
98558.826
98529.693
98507.443
98492.387
98484.768
98484.713
98492.175
98506.903
98528.268
98555.552
98587.068
98622.313
98657.465
98694.838
98727.505
98761.927
98797.724
98816.882
98890.658
98865.644
99015.003
98924.162
99204.546
98957.606
99523.622
98916.889
101564.54
101554.65
101539.87
101525.48
101509.56
101495
101473.16
101451.19
101425.2
101397.73
101365.78
101331.46
101293.06
101251.68
101206.68
101158.44
101106.89
101052.17
100994.36
100933.6
100870.02
100803.77
100735
100663.9
100590.64
100515.41
100438.41
100359.83
100279.88
100198.77
100116.71
100033.91
99950.602
99866.991
99783.299
99699.743
99616.543
99533.923
99452.108
99371.329
99291.822
99213.829
99137.603
99063.403
98991.502
98922.186
98855.759
98792.543
98732.881
98677.137
98625.693
98578.944
98537.294
98501.152
98470.924
98447.003
98429.758
98419.511
98416.517
98420.922
98432.702
98451.631
98477.125
98508.463
98544.047
98583.236
98622.497
98663.612
98700.286
98737.966
98777.145
98799.234
98875.719
98851.458
99007.775
98908.289
99205.012
98947.848
99530.046
98905.063
101045.71
101027.7
101004.26
100979.17
100953.41
100930.38
100903.28
100878.18
100849
100821.04
100789.66
100758.34
100724.25
100689.17
100651.85
100612.8
100571.68
100528.57
100483.36
100436.04
100386.6
100335.06
100281.43
100225.77
100168.12
100108.59
100047.26
99984.254
99919.699
99853.742
99786.54
99718.262
99649.088
99579.207
99508.814
99438.116
99367.324
99296.66
99226.353
99156.641
99087.771
99019.998
98953.587
98888.816
98825.973
98765.361
98707.299
98652.125
98600.198
98551.89
98507.591
98467.702
98432.63
98402.789
98378.588
98360.429
98348.687
98343.697
98345.728
98354.945
98371.353
98394.754
98424.609
98460.206
98500.028
98543.326
98586.784
98631.773
98672.471
98713.581
98756.182
98781.272
98860.521
98835.97
99001.758
98892.634
99205.296
98941.948
99535.318
98892.983
100399.24
100381.8
100364.34
100344.35
100322.83
100305.53
100282.88
100264.24
100240.78
100220.19
100195.73
100172.71
100146.91
100121.21
100093.65
100065.08
100034.97
100003.42
99970.289
99935.515
99899.056
99860.864
99820.917
99779.206
99735.739
99690.541
99643.652
99595.131
99545.052
99493.504
99440.593
99386.44
99331.179
99274.961
99217.949
99160.321
99102.267
99043.992
98985.715
98927.665
98870.088
98813.237
98757.38
98702.799
98649.788
98598.657
98549.733
98503.363
98459.91
98419.752
98383.28
98350.898
98323.013
98300.042
98282.398
98270.489
98264.696
98265.364
98272.78
98287.131
98308.45
98336.571
98371.005
98411.055
98455.283
98502.841
98550.599
98599.569
98644.329
98689.006
98735.045
98763.291
98845.061
98821.956
98992.737
98879.228
99204.454
98933.372
99539.071
98880.539
99706.1
99696.724
99689.428
99681.173
99669.313
99662.753
99649.299
99641.307
99627.05
99616.928
99601.832
99589.211
99573.294
99558.107
99540.975
99523.181
99503.954
99483.571
99461.845
99438.735
99414.206
99388.211
99360.718
99331.702
99301.147
99269.048
99235.412
99200.26
99163.624
99125.554
99086.112
99045.377
99003.447
98960.434
98916.468
98871.697
98826.285
98780.415
98734.285
98688.11
98642.119
98596.556
98551.68
98507.764
98465.098
98423.99
98384.765
98347.768
98313.359
98281.913
98253.817
98229.469
98209.278
98193.656
98183.019
98177.775
98178.312
98184.984
98198.091
98217.845
98244.311
98277.361
98316.555
98361.219
98409.99
98461.93
98514.075
98567.102
98615.952
98664.287
98713.769
98745.296
98829.752
98808.961
98984.64
98871.757
99202.898
98922.402
99543.906
98867.734
99050.352
99048.781
99048.191
99049.205
99044.694
99047.161
99041.106
99042.297
99036.087
99035.457
99028.7
99025.71
99018.89
99013.11
99005.159
98996.893
98987.294
98976.825
98965.264
98952.581
98938.737
98923.68
98907.372
98889.775
98870.856
98850.591
98828.965
98805.971
98781.618
98755.925
98728.927
98700.675
98671.235
98640.693
98609.15
98576.726
98543.562
98509.814
98475.656
98441.279
98406.892
98372.716
98338.994
98305.98
98273.953
98243.206
98214.053
98186.827
98161.877
98139.565
98120.267
98104.372
98092.279
98084.398
98081.139
98082.907
98090.091
98103.052
98122.105
98147.485
98179.293
98217.438
98261.537
98310.942
98364.364
98420.784
98477.386
98534.528
98587.485
98639.538
98692.436
98727.377
98815.598
98796.384
98977.582
98863.136
99201.885
98912.086
99547.203
98854.52
98449.463
98453.422
98456.318
98464.394
98465.407
98475.228