/*--------------------------------*- C++ -*----------------------------------*\
  =========                 |
  \\      /  F ield         | OpenFOAM: The Open Source CFD Toolbox
   \\    /   O peration     | Website:  https://openfoam.org
    \\  /    A nd           | Version:  12
     \\/     M anipulation  |
\*---------------------------------------------------------------------------*/
FoamFile
{
    format      ascii;
    class       volScalarField;
    location    "0.025";
    object      rho;
}
// * * * * * * * * * * * * * * * * * * * * * * * * * * * * * * * * * * * * * //

dimensions      [1 -3 0 0 0 0 0];

internalField   nonuniform List<scalar> 
16000
(
1.0604049
1.0931
1.0806053
1.0888868
1.0850067
1.0884188
1.0874305
1.0892245
1.0893824
1.0905865
1.0912428
1.0922624
1.0931496
1.094157
1.0951661
1.0962289
1.0973254
1.0984631
1.0996398
1.1008563
1.1021121
1.103407
1.1047402
1.106111
1.1075182
1.1089605
1.110436
1.111943
1.1134789
1.1150412
1.1166269
1.1182328
1.1198551
1.12149
1.123133
1.1247796
1.1264247
1.1280632
1.1296894
1.1312976
1.1328818
1.1344359
1.1359538
1.1374291
1.1388557
1.1402273
1.141538
1.1427815
1.1439523
1.1450446
1.1460531
1.146973
1.1477994
1.1485282
1.1491556
1.1496784
1.1500942
1.1504019
1.1506017
1.1506955
1.1506871
1.1505819
1.1503878
1.1501168
1.1497895
1.1494427
1.1491394
1.1489744
1.1490689
1.1495639
1.1505684
1.1522273
1.1545863
1.1572103
1.1595848
1.1615096
1.1632151
1.1602762
1.1648782
1.148234
1.056922
1.0901647
1.0770739
1.0858698
1.0817538
1.0854466
1.084354
1.0863228
1.086472
1.0877811
1.0884894
1.0895858
1.0905485
1.091632
1.0927235
1.0938693
1.0950532
1.0962806
1.0975501
1.098862
1.1002156
1.1016105
1.1030458
1.1045202
1.1060324
1.1075805
1.1091626
1.1107761
1.1124183
1.1140861
1.115776
1.1174842
1.1192064
1.1209382
1.1226747
1.1244107
1.1261407
1.1278589
1.1295594
1.1312361
1.1328826
1.1344926
1.1360597
1.1375776
1.1390401
1.140441
1.1417742
1.1430339
1.1442145
1.1453106
1.1463172
1.1472294
1.1480428
1.1487532
1.149357
1.1498508
1.1502325
1.1505005
1.1506549
1.1506976
1.1506322
1.1504647
1.1502044
1.1498663
1.1494763
1.1490792
1.1487472
1.1485829
1.1487154
1.1493037
1.150394
1.1521636
1.1545881
1.157195
1.1595386
1.1614877
1.1625303
1.1601564
1.1636235
1.1477133
1.0537545
1.0874937
1.0739801
1.0830816
1.0788086
1.0827439
1.0816263
1.0837194
1.0839137
1.0853091
1.0860946
1.0872707
1.0883222
1.089492
1.090677
1.0919171
1.093199
1.0945267
1.095899
1.0973157
1.0987762
1.1002794
1.1018243
1.1034094
1.1050328
1.1066925
1.1083858
1.1101098
1.1118613
1.1136365
1.1154314
1.1172416
1.1190621
1.1208878
1.1227133
1.1245327
1.12634
1.128129
1.1298933
1.1316263
1.1333216
1.1349726
1.136573
1.1381164
1.1395966
1.1410077
1.142344
1.1435999
1.1447702
1.1458498
1.1468342
1.1477189
1.1484996
1.1491726
1.1497342
1.1501815
1.150512
1.1507244
1.1508185
1.1507961
1.1506608
1.150419
1.1500814
1.1496661
1.1492043
1.1487487
1.1483811
1.1482123
1.1483754
1.1490465
1.150229
1.1521276
1.1545743
1.1571486
1.1594281
1.1612397
1.1618753
1.1596969
1.1624048
1.1470033
1.0509862
1.0851382
1.0712237
1.0806157
1.0761662
1.080406
1.0792595
1.081498
1.0817452
1.0832399
1.0841164
1.0853835
1.0865375
1.0878051
1.0890951
1.0904403
1.0918304
1.0932682
1.0947525
1.0962831
1.097859
1.0994791
1.101142
1.1028456
1.1045879
1.1063661
1.1081771
1.1100173
1.1118828
1.1137691
1.1156714
1.1175844
1.1195027
1.1214202
1.1233308
1.1252281
1.1271054
1.128956
1.1307732
1.1325501
1.1342802
1.1359568
1.1375737
1.1391248
1.1406042
1.1420064
1.1433261
1.1445583
1.1456983
1.1467418
1.1476847
1.1485231
1.1492532
1.1498716
1.1503749
1.1507605
1.1510259
1.1511697
1.151192
1.1510942
1.1508802
1.1505568
1.1501358
1.1496381
1.1490992
1.1485777
1.148162
1.1479707
1.1481432
1.148826
1.1500588
1.1520309
1.1544501
1.1569665
1.1591416
1.1607412
1.1610791
1.1590949
1.1612419
1.1460295
1.0486418
1.0832228
1.0688975
1.0786409
1.074044
1.0784972
1.0773112
1.0797181
1.0800386
1.0816387
1.082622
1.0839858
1.0852509
1.0866228
1.0880245
1.0894817
1.0909872
1.0925428
1.0941475
1.0958005
1.0975008
1.0992468
1.1010365
1.1028674
1.1047366
1.1066407
1.1085757
1.1105373
1.1125206
1.1145202
1.1165303
1.118545
1.1205576
1.1225614
1.1245496
1.126515
1.1284505
1.1303489
1.1322032
1.1340066
1.1357524
1.1374343
1.1390462
1.1405827
1.1420383
1.1434083
1.144688
1.1458733
1.1469603
1.1479454
1.1488254
1.1495968
1.1502568
1.1508021
1.15123
1.1515379
1.1517237
1.151786
1.1517249
1.1515418
1.1512407
1.150829
1.1503199
1.1497366
1.1491185
1.1485284
1.1480587
1.1478354
1.1480038
1.1486479
1.1499154
1.151885
1.1542411
1.1566526
1.1586751
1.1600302
1.1601377
1.1584097
1.1599756
1.1447688
1.0467221
1.0817224
1.067032
1.0771458
1.0724271
1.077071
1.0758538
1.0784449
1.0788406
1.0805395
1.0816329
1.0830921
1.0844734
1.0859561
1.0874777
1.0890573
1.0906897
1.0923754
1.0941132
1.0959019
1.0977397
1.0996243
1.1015529
1.1035222
1.1055284
1.1075671
1.1096333
1.1117216
1.1138259
1.11594
1.1180568
1.1201693
1.1222701
1.1243515
1.1264059
1.1284257
1.1304032
1.1323312
1.1342025
1.1360105
1.1377487
1.1394114
1.1409932
1.1424892
1.143895
1.1452068
1.146421
1.1475344
1.1485442
1.1494479
1.1502428
1.1509267
1.151497
1.1519514
1.1522874
1.1525028
1.1525956
1.1525647
1.1524101
1.1521335
1.1517391
1.1512347
1.1506351
1.1499657
1.1492688
1.1486098
1.1480827
1.1478164
1.1479546
1.1485335
1.1498388
1.1516907
1.1539439
1.1561993
1.1580233
1.1591184
1.1590304
1.1575662
1.1584881
1.1432329
1.0451918
1.0806022
1.065578
1.0760959
1.0712665
1.0761175
1.0749765
1.0777327
1.0780937
1.0798773
1.0811024
1.0826733
1.0841904
1.085804
1.0874653
1.0891873
1.0909661
1.0928011
1.0946907
1.0966328
1.0986249
1.1006636
1.1027454
1.1048657
1.1070197
1.1092016
1.1114052
1.1136239
1.1158504
1.1180769
1.1202955
1.1224979
1.1246758
1.1268208
1.1289247
1.1309793
1.1329769
1.1349103
1.1367727
1.1385577
1.1402598
1.1418741
1.143396
1.1448221
1.1461489
1.1473739
1.1484949
1.14951
1.1504175
1.151216
1.1519038
1.1524795
1.1529414
1.1532877
1.1535164
1.1536255
1.1536134
1.1534792
1.1532229
1.1528465
1.1523544
1.1517553
1.1510651
1.1503112
1.149538
1.1488121
1.1482275
1.1479077
1.1479841
1.1485425
1.149744
1.1514782
1.1535772
1.1556308
1.1572133
1.1580394
1.1577513
1.1565253
1.1567099
1.141397
1.0439966
1.0798109
1.0644688
1.0754444
1.0704439
1.0756371
1.0743513
1.0770232
1.0777437
1.0796679
1.0810581
1.0827663
1.0844451
1.086215
1.0880399
1.089928
1.0918758
1.0938821
1.0959443
1.0980595
1.1002239
1.1024333
1.1046826
1.1069661
1.1092773
1.1116091
1.1139537
1.116303
1.1186483
1.1209804
1.1232902
1.1255684
1.1278058
1.1299935
1.1321227
1.1341855
1.1361743
1.1380822
1.1399032
1.141632
1.1432642
1.1447961
1.1462248
1.147548
1.1487642
1.1498723
1.1508715
1.1517613
1.1525414
1.1532115
1.153771
1.1542193
1.1545554
1.1547781
1.1548857
1.1548769
1.1547501
1.1545046
1.1541407
1.1536607
1.1530693
1.152376
1.1515978
1.1507635
1.1499185
1.1491299
1.1484895
1.148112
1.1481178
1.1486283
1.1496981
1.1512837
1.153177
1.154988
1.1562848
1.156843
1.1563208
1.155285
1.1545791
1.1392808
1.0431488
1.0793525
1.0637094
1.0752035
1.069929
1.0751523
1.0741327
1.0771068
1.0779412
1.0799982
1.0815808
1.0834492
1.0853135
1.0872651
1.0892782
1.0913568
1.0934976
1.0956981
1.0979545
1.1002628
1.1026177
1.1050133
1.1074431
1.1098995
1.1123743
1.1148585
1.1173428
1.119817
1.1222711
1.1246945
1.1270769
1.1294083
1.1316788
1.1338792
1.1360011
1.1380368
1.1399795
1.1418235
1.143564
1.1451973
1.1467207
1.1481323
1.1494311
1.1506167
1.1516894
1.1526498
1.1534988
1.1542373
1.1548664
1.1553867
1.1557987
1.1561025
1.1562979
1.1563839
1.1563596
1.1562235
1.1559748
1.1556127
1.1551382
1.1545535
1.1538639
1.1530797
1.1522189
1.1513109
1.1504016
1.1495568
1.1488648
1.1484321
1.1483725
1.1488054
1.149739
1.1511389
1.1527898
1.1543228
1.1552775
1.1555521
1.1547739
1.15388
1.1521409
1.1369749
1.0427136
1.0792857
1.0633513
1.0750508
1.0698617
1.0754418
1.074544
1.0776969
1.078723
1.0809359
1.0827422
1.0847995
1.0868764
1.089038
1.0912664
1.0935623
1.0959216
1.0983402
1.1008131
1.1033341
1.1058964
1.1084919
1.111112
1.1137469
1.1163861
1.1190188
1.1216334
1.1242182
1.1267614
1.1292515
1.1316773
1.1340281
1.1362943
1.1384669
1.1405384
1.1425021
1.144353
1.146087
1.1477015
1.1491949
1.1505668
1.1518177
1.1529486
1.1539615
1.1548584
1.1556419
1.1563143
1.156878
1.157335
1.1576873
1.1579358
1.1580815
1.1581244
1.1580642
1.1579
1.1576309
1.1572561
1.1567755
1.1561901
1.1555027
1.1547192
1.1538504
1.152915
1.1519428
1.1509791
1.1500875
1.1493511
1.1488693
1.14875
1.1490869
1.1498824
1.1510806
1.1524631
1.1536923
1.1542704
1.1542144
1.1531595
1.1523743
1.1495563
1.1346748
1.0427817
1.0796894
1.0635184
1.0754453
1.0703927
1.0762515
1.0755803
1.0788789
1.0801768
1.0825654
1.0846269
1.0869052
1.0892244
1.0916276
1.0941013
1.0966434
1.0992485
1.1019103
1.1046216
1.107374
1.110158
1.112963
1.1157774
1.1185891
1.121385
1.1241519
1.1268764
1.1295449
1.1321447
1.1346632
1.1370892
1.1394124
1.1416236
1.1437156
1.1456824
1.1475197
1.1492248
1.1507964
1.1522346
1.1535408
1.1547172
1.1557667
1.1566931
1.1575001
1.158192
1.1587727
1.1592461
1.1596156
1.1598842
1.1600544
1.160128
1.160106
1.159989
1.1597768
1.1594688
1.1590643
1.158563
1.1579651
1.157272
1.1564871
1.1556168
1.1546725
1.1536734
1.1526491
1.1516435
1.1507171
1.149947
1.1494256
1.1492503
1.1494889
1.1501484
1.1511403
1.1522451
1.1531525
1.1533724
1.1529255
1.1515654
1.1508245
1.1470208
1.1326431
1.0433746
1.0805997
1.0642298
1.0765992
1.0716022
1.0776912
1.0772767
1.0807567
1.082371
1.084967
1.0873204
1.0898597
1.0924571
1.0951382
1.0978916
1.1007122
1.1035921
1.1065225
1.109493
1.1124919
1.1155064
1.1185226
1.1215258
1.1245009
1.1274322
1.1303043
1.1331019
1.1358105
1.1384167
1.1409083
1.1432747
1.1455072
1.1475989
1.149545
1.1513427
1.1529911
1.1544908
1.1558442
1.1570546
1.1581266
1.1590653
1.1598763
1.1605655
1.1611388
1.1616017
1.1619596
1.1622173
1.1623791
1.1624484
1.1624281
1.1623202
1.1621261
1.1618462
1.1614807
1.161029
1.1604909
1.1598662
1.1591557
1.1583614
1.1574871
1.15654
1.1555319
1.1544823
1.15342
1.1523872
1.1514401
1.1506489
1.1500977
1.1498716
1.1500241
1.1505489
1.1513427
1.1521764
1.1527523
1.1526511
1.1517619
1.1501201
1.1492484
1.1446475
1.1310809
1.0444774
1.0820162
1.065472
1.0782588
1.0734755
1.0797951
1.0797274
1.0834033
1.0853967
1.0882437
1.0909306
1.0937779
1.0966957
1.0996962
1.1027676
1.1059011
1.1090851
1.1123067
1.1155514
1.1188035
1.1220462
1.1252617
1.1284321
1.131539
1.1345646
1.1374916
1.1403039
1.1429869
1.1455282
1.1479171
1.1501459
1.1522091
1.1541036
1.1558289
1.1573864
1.1587797
1.1600136
1.1610942
1.1620287
1.1628246
1.1634897
1.1640319
1.1644588
1.1647778
1.1649956
1.1651181
1.1651507
1.165098
1.1649636
1.1647503
1.1644603
1.1640946
1.1636539
1.1631381
1.1625471
1.1618808
1.1611396
1.1603247
1.1594386
1.158486
1.1574744
1.1564163
1.1553311
1.1542467
1.1532027
1.1522503
1.1514525
1.1508843
1.1506181
1.1506933
1.1510914
1.1516965
1.1522725
1.1525095
1.1520796
1.1506833
1.1489401
1.1477434
1.1425232
1.1300501
1.0461726
1.084013
1.0673488
1.0806092
1.0760944
1.0826712
1.0830368
1.0869342
1.0893687
1.0925225
1.0955924
1.0988031
1.1020912
1.1054576
1.1088873
1.1123662
1.1158778
1.1194041
1.1229254
1.1264214
1.1298706
1.1332515
1.1365427
1.1397234
1.1427743
1.1456777
1.1484185
1.1509842
1.1533656
1.1555564
1.1575534
1.1593568
1.1609689
1.1623947
1.163641
1.1647161
1.1656291
1.1663902
1.1670093
1.1674968
1.1678625
1.1681158
1.1682654
1.1683194
1.1682848
1.1681679
1.1679739
1.1677072
1.1673714
1.1669689
1.1665014
1.16597
1.165375
1.1647165
1.1639945
1.1632092
1.1623615
1.1614534
1.1604878
1.15947
1.1584082
1.1573153
1.1562103
1.1551202
1.1540813
1.1531394
1.1523499
1.1517781
1.1514833
1.1514918
1.1517719
1.1521962
1.1525258
1.1524561
1.1517073
1.1500423
1.1480724
1.1464484
1.1408121
1.1296165
1.0485106
1.0866348
1.0699652
1.0837165
1.0795709
1.0864121
1.0873194
1.0914828
1.0944322
1.0979689
1.1014841
1.1051221
1.1088348
1.1126125
1.1164349
1.1202814
1.1241294
1.1279547
1.1317321
1.1354357
1.1390395
1.1425183
1.1458484
1.1490084
1.1519797
1.1547474
1.1573004
1.1596318
1.1617386
1.1636214
1.1652844
1.1667345
1.1679808
1.1690343
1.1699071
1.1706119
1.1711617
1.1715695
1.1718476
1.1720079
1.1720613
1.1720178
1.1718864
1.1716751
1.1713906
1.1710388
1.1706245
1.1701515
1.1696227
1.1690402
1.1684052
1.1677184
1.1669799
1.1661899
1.1653485
1.1644566
1.1635154
1.1625276
1.1614968
1.1604288
1.1593323
1.1582204
1.1571118
1.1560318
1.1550134
1.1540964
1.1533288
1.1527657
1.1524537
1.1524059
1.1525766
1.1528304
1.1529369
1.1526087
1.1515703
1.1496788
1.1475466
1.1454798
1.1396793
1.1298891
1.0515454
1.0899028
1.0734449
1.0876606
1.0840266
1.0911634
1.0927483
1.0972544
1.1008034
1.1048127
1.1088403
1.1129675
1.117152
1.1213743
1.125607
1.1298217
1.1339883
1.1380752
1.1420505
1.1458832
1.1495438
1.1530057
1.1562461
1.159247
1.1619951
1.1644829
1.1667076
1.1686713
1.1703803
1.1718443
1.1730757
1.174089
1.1748996
1.175524
1.1759785
1.1762792
1.1764416
1.17648
1.1764079
1.1762375
1.1759797
1.1756442
1.1752394
1.1747724
1.1742493
1.1736751
1.1730536
1.1723879
1.1716801
1.1709316
1.170143
1.1693148
1.1684469
1.1675396
1.1665934
1.1656095
1.1645901
1.163538
1.1624577
1.1613553
1.1602401
1.159125
1.1580278
1.1569722
1.1559873
1.1551071
1.1543721
1.1538273
1.1535067
1.1534106
1.1534809
1.1535781
1.1534859
1.1529377
1.1516749
1.1496595
1.1474144
1.1449619
1.139228
1.1309311
1.0553615
1.0938329
1.0778882
1.0926146
1.0896836
1.0971813
1.099593
1.1045344
1.108763
1.1133313
1.1179311
1.1225963
1.1272834
1.1319614
1.136593
1.1411394
1.1455609
1.1498184
1.1538744
1.1576957
1.1612538
1.1645266
1.1674987
1.1701616
1.1725136
1.174559
1.1763072
1.1777718
1.1789698
1.1799199
1.1806426
1.1811583
1.1814877
1.1816507
1.1816661
1.1815514
1.1813227
1.1809946
1.18058
1.1800904
1.1795357
1.1789244
1.1782636
1.1775592
1.1768162
1.1760381
1.175228
1.1743878
1.1735188
1.1726216
1.1716966
1.1707436
1.1697628
1.1687546
1.16772
1.1666606
1.1655792
1.1644793
1.1633657
1.162245
1.1611266
1.160023
1.1589509
1.1579315
1.1569898
1.1561544
1.1554584
1.1549366
1.1546114
1.1544713
1.1544488
1.1544062
1.1541439
1.1534209
1.1520247
1.1499849
1.1476872
1.1449868
1.1394948
1.1326407
1.0601667
1.0986655
1.0835915
1.0989079
1.0968727
1.1047887
1.1081703
1.1136421
1.1186192
1.123826
1.1290481
1.1342819
1.1394738
1.1445771
1.1495406
1.1543139
1.158849
1.1631033
1.1670409
1.1706344
1.1738659
1.1767265
1.1792162
1.1813429
1.1831206
1.1845686
1.1857097
1.1865689
1.1871723
1.187546
1.1877158
1.187706
1.1875394
1.1872371
1.1868181
1.1862995
1.1856963
1.1850218
1.1842874
1.1835027
1.182676
1.181814
1.1809221
1.1800049
1.1790656
1.1781068
1.1771301
1.1761365
1.1751266
1.1741004
1.1730577
1.1719983
1.1709225
1.169831
1.1687252
1.1676074
1.1664808
1.1653494
1.1642184
1.1630947
1.1619874
1.1609083
1.1598724
1.1588979
1.1580056
1.1572186
1.1565629
1.1560636
1.1557324
1.155548
1.1554378
1.1552713
1.1548689
1.1540206
1.1525633
1.1505662
1.1483252
1.1455323
1.1404428
1.1348731
1.0662115
1.1050875
1.0909044
1.1068528
1.1059268
1.1143035
1.1188073
1.1249318
1.1307297
1.1366474
1.1425196
1.1483068
1.1539372
1.1593459
1.1644697
1.1692528
1.1736494
1.1776258
1.1811609
1.1842464
1.1868854
1.1890913
1.190885
1.1922938
1.1933485
1.1940821
1.1945283
1.1947204
1.1946901
1.1944672
1.1940792
1.1935509
1.1929047
1.1921602
1.1913348
1.1904433
1.1894985
1.1885113
1.1874906
1.1864439
1.1853772
1.1842954
1.1832021
1.1821
1.1809912
1.1798767
1.1787572
1.1776329
1.1765035
1.1753685
1.1742276
1.1730806
1.171928
1.1707709
1.1696112
1.1684517
1.1672961
1.1661488
1.1650151
1.1639019
1.1628179
1.1617737
1.1607822
1.1598581
1.1590176
1.1582785
1.1576599
1.1571781
1.1568353
1.156603
1.1564083
1.156132
1.1556186
1.1546936
1.1532404
1.1513466
1.1492242
1.1464823
1.1419752
1.1376543
1.0736628
1.1132344
1.100024
1.1166863
1.1172252
1.1261561
1.1319533
1.1388829
1.1455584
1.1522044
1.1586667
1.1648706
1.1707286
1.1761676
1.1811279
1.1855675
1.1894622
1.1928057
1.1956067
1.197887
1.1996779
1.2010176
1.2019481
1.2025132
1.2027563
1.2027193
1.2024414
1.2019589
1.2013046
1.2005075
1.1995935
1.198585
1.1975014
1.1963591
1.1951723
1.1939527
1.1927098
1.1914518
1.1901849
1.1889141
1.1876432
1.186375
1.1851115
1.1838539
1.1826028
1.1813582
1.1801198
1.1788871
1.1776593
1.1764356
1.1752155
1.1739991
1.1727872
1.1715814
1.1703842
1.1691986
1.1680287
1.1668791
1.1657552
1.1646638
1.1636127
1.1626109
1.1616688
1.1607972
1.1600076
1.1593125
1.1587246
1.1582525
1.1578909
1.1576069
1.1573311
1.1569594
1.1563633
1.155409
1.1540187
1.1522759
1.1503162
1.1477958
1.1440005
1.14094
1.0826999
1.1232573
1.1115847
1.128981
1.1314271
1.1410486
1.148263
1.156096
1.1635914
1.1708123
1.1776019
1.1838686
1.1895324
1.1945412
1.198868
1.2025107
1.2054876
1.2078335
1.2095951
1.2108262
1.2115842
1.2119269
1.2119104
1.2115874
1.2110062
1.2102104
1.2092387
1.2081249
1.2068985
1.2055844
1.2042041
1.2027756
1.2013138
1.1998311
1.1983376
1.1968415
1.1953492
1.1938656
1.1923945
1.1909385
1.1894994
1.1880781
1.1866751
1.1852903
1.1839231
1.1825728
1.1812382
1.1799182
1.1786117
1.1773179
1.1760363
1.1747675
1.1735125
1.1722734
1.171053
1.169855
1.1686832
1.1675426
1.1664386
1.1653773
1.1643656
1.1634107
1.1625199
1.1617
1.160958
1.1603012
1.1597367
1.1592672
1.1588818
1.1585465
1.1581984
1.1577509
1.1571061
1.1561735
1.1549036
1.153365
1.1516507
1.1495019
1.1465556
1.1444638
1.0941073
1.1360126
1.1265002
1.1446869
1.1494904
1.1598799
1.1684361
1.1770423
1.1850261
1.1923624
1.1989229
1.2046455
1.2095008
1.2134955
1.2166638
1.2190612
1.2207566
1.2218265
1.2223494
1.222402
1.2220564
1.2213787
1.2204281
1.2192566
1.2179095
1.2164255
1.2148373
1.2131728
1.2114548
1.2097025
1.2079314
1.2061542
1.2043811
1.2026201
1.2008774
1.1991577
1.1974643
1.1957995
1.1941647
1.1925605
1.1909869
1.1894435
1.1879294
1.1864433
1.184984
1.18355
1.1821395
1.1807512
1.1793839
1.1780366
1.1767094
1.175403
1.1741189
1.1728597
1.1716284
1.1704288
1.169265
1.1681419
1.1670647
1.1660391
1.1650706
1.1641644
1.1633244
1.1625537
1.1618548
1.1612309
1.1606849
1.1602153
1.1598089
1.1594327
1.1590323
1.15854
1.157889
1.157037
1.1559606
1.1546954
1.1533288
1.1517017
1.149632
1.14822
1.1095089
1.1526197
1.1460535
1.1648769
1.1723834
1.1834173
1.1928181
1.201613
1.2093435
1.2159869
1.2215061
1.2259258
1.2293056
1.2317335
1.2333123
1.2341512
1.2343579
1.2340345
1.2332738
1.2321583
1.2307601
1.2291407
1.227352
1.2254377
1.2234339
1.2213701
1.2192707
1.2171552
1.2150393
1.2129354
1.2108532
1.2088003
1.2067823
1.2048032
1.2028658
1.2009718
1.1991219
1.1973162
1.1955542
1.1938349
1.192157
1.1905187
1.1889182
1.1873537
1.1858232
1.1843245
1.1828559
1.1814157
1.1800027
1.1786163
1.1772567
1.1759251
1.1746235
1.1733546
1.1721218
1.1709288
1.1697799
1.1686799
1.1676339
1.1666468
1.1657229
1.1648649
1.1640738
1.1633491
1.1626902
1.1620973
1.1615711
1.1611085
1.160696
1.160304
1.1598879
1.1593984
1.1587974
1.1580773
1.1572613
1.1563679
1.1554423
1.1544126
1.153171
1.1523228
1.1302345
1.1743757
1.1716757
1.1905629
1.2004683
1.2115981
1.220798
1.2286737
1.2350545
1.2400076
1.2436291
1.2460592
1.2474522
1.247966
1.24775
1.2469406
1.2456572
1.2440027
1.2420636
1.2399117
1.2376059
1.2351943
1.2327153
1.2301999
1.2276725
1.2251525
1.2226549
1.2201912
1.2177703
1.2153985
1.2130804
1.2108192
1.2086165
1.2064732
1.2043894
1.2023643
1.2003967
1.198485
1.1966271
1.1948209
1.193064
1.1913539
1.1896882
1.1880644
1.18648
1.1849328
1.1834207
1.1819421
1.180496
1.1790821
1.1777009
1.176354
1.1750436
1.1737727
1.1725447
1.1713636
1.1702337
1.1691598
1.1681467
1.1671987
1.1663186
1.1655072
1.1647627
1.1640823
1.1634635
1.1629061
1.1624108
1.1619747
1.1615861
1.1612199
1.1608409
1.1604162
1.1599328
1.1594105
1.1588987
1.158432
1.1580033
1.1575591
1.1570169
1.1566155
1.1590355
1.2020752
1.2044539
1.2226385
1.2328889
1.2427642
1.250344
1.2560289
1.2599473
1.2623411
1.2634487
1.2635049
1.2627204
1.2612786
1.2593339
1.2570132
1.2544193
1.2516346
1.248724
1.2457386
1.2427182
1.2396935
1.2366881
1.2337198
1.230802
1.2279446
1.2251545
1.2224364
1.2197936
1.2172274
1.2147385
1.2123265
1.2099903
1.2077283
1.2055384
1.2034181
1.2013649
1.1993757
1.1974477
1.1955777
1.1937627
1.1919998
1.1902859
1.1886182
1.1869942
1.1854113
1.1838675
1.1823614
1.180892
1.1794594
1.1780646
1.1767093
1.1753961
1.174128
1.1729087
1.171742
1.1706325
1.169585
1.1686041
1.1676935
1.166855
1.1660875
1.1653879
1.1647526
1.1641798
1.1636707
1.1632276
1.1628493
1.1625265
1.162239
1.16196
1.1616679
1.1613665
1.1610977
1.160926
1.1608852
1.1609229
1.1609345
1.160853
1.1607701
1.1984271
1.2375408
1.2431511
1.2585016
1.2676
1.27446
1.278767
1.281074
1.2817447
1.2811488
1.2795881
1.2773134
1.2745228
1.271372
1.2679806
1.2644401
1.2608195
1.2571708
1.2535324
1.249933
1.2463932
1.2429279
1.2395475
1.2362589
1.2330666
1.2299728
1.2269784
1.2240831
1.2212856
1.218584
1.2159759
1.2134585
1.2110287
1.208683
1.2064181
1.2042302
1.2021157
1.2000709
1.1980921
1.1961757
1.1943183
1.1925164
1.1907669
1.1890668
1.1874134
1.185804
1.1842369
1.1827106
1.1812245
1.179779
1.1783754
1.1770156
1.1757024
1.174439
1.173229
1.1720765
1.1709863
1.1699632
1.1690116
1.1681347
1.1673336
1.1666069
1.1659513
1.1653648
1.1648483
1.1644058
1.1640421
1.1637579
1.1635462
1.1633914
1.1632721
1.163172
1.1631004
1.1631089
1.1632695
1.1635966
1.1639741
1.1642137
1.1642657
1.1643384
1.2465741
1.2790631
1.2860692
1.2958093
1.300612
1.3028326
1.3028585
1.3013454
1.2987294
1.2953591
1.2914888
1.287306
1.2829459
1.2785057
1.2740544
1.2696409
1.2652991
1.2610524
1.2569161
1.2529001
1.2490103
1.2452494
1.2416182
1.2381156
1.2347397
1.2314876
1.228356
1.225341
1.2224386
1.2196446
1.2169545
1.214364
1.2118685
1.2094636
1.2071449
1.2049081
1.2027487
1.2006626
1.1986457
1.196694
1.194804
1.1929719
1.1911945
1.1894687
1.1877917
1.1861611
1.184575
1.1830323
1.1815325
1.1800764
1.1786654
1.1773017
1.1759882
1.1747283
1.1735256
1.1723847
1.1713101
1.1703069
1.1693796
1.168531
1.1677621
1.1670719
1.1664593
1.165925
1.1654739
1.1651133
1.1648509
1.164689
1.164623
1.1646407
1.1647237
1.1648534
1.1650323
1.1653061
1.1657398
1.166314
1.1668224
1.1669957
1.1668514
1.1668663
1.3012174
1.3216584
1.3260092
1.3282235
1.3272581
1.3244346
1.3203654
1.3155435
1.3102912
1.3048271
1.2992955
1.2937917
1.2883772
1.2830911
1.2779576
1.2729903
1.2681964
1.263578
1.2591344
1.2548626
1.2507585
1.2468169
1.2430323
1.2393988
1.2359103
1.2325608
1.2293443
1.226255
1.2232869
1.2204344
1.2176921
1.2150544
1.2125162
1.2100724
1.207718
1.2054482
1.2032583
1.2011438
1.1991004
1.1971241
1.195211
1.1933574
1.19156
1.1898157
1.1881216
1.1864755
1.1848757
1.183321
1.1818113
1.1803472
1.1789306
1.1775636
1.1762494
1.1749914
1.1737936
1.1726605
1.171597
1.1706083
1.1696988
1.1688718
1.1681285
1.1674692
1.1668949
1.1664098
1.1660221
1.1657429
1.1655836
1.1655498
1.1656392
1.1658427
1.166142
1.1665113
1.1669348
1.1674336
1.1680467
1.168712
1.1691463
1.1689865
1.1683513
1.1682614
1.3545926
1.3575046
1.355977
1.3512911
1.3452307
1.338438
1.3313712
1.3242724
1.3172869
1.3104932
1.3039335
1.2976275
1.2915814
1.2857938
1.2802586
1.2749673
1.2699097
1.2650753
1.2604535
1.2560337
1.2518059
1.2477603
1.2438876
1.2401789
1.236626
1.233221
1.2299562
1.2268247
1.2238195
1.2209342
1.2181626
1.2154988
1.212937
1.2104718
1.208098
1.2058105
1.2036044
1.201475
1.199418
1.1974292
1.1955045
1.1936404
1.1918333
1.1900802
1.1883781
1.1867249
1.1851186
1.1835585
1.1820448
1.1805768
1.1791572
1.1777881
1.1764727
1.1752146
1.1740178
1.1728873
1.1718281
1.1708457
1.169945
1.16913
1.1684025
1.1677633
1.1672148
1.1667634
1.1664199
1.1661994
1.1661193
1.166193
1.1664212
1.1667902
1.1672751
1.167846
1.1684752
1.1691539
1.1698619
1.1705042
1.1707332
1.1701466
1.168982
1.1686884
1.3888006
1.3809389
1.3729436
1.3644253
1.3555803
1.3468507
1.3383904
1.3302731
1.3225246
1.3151471
1.3081306
1.3014596
1.295116
1.2890813
1.2833369
1.2778653
1.2726499
1.2676753
1.2629272
1.2583922
1.2540581
1.2499135
1.245948
1.2421517
1.2385155
1.2350309
1.2316899
1.228485
1.2254092
1.2224558
1.2196183
1.2168908
1.2142673
1.2117424
1.2093107
1.2069671
1.2047067
1.2025248
1.2004169
1.198379
1.1964069
1.1944969
1.1926456
1.1908497
1.1891066
1.1874138
1.1857696
1.1841728
1.1826196
1.1811178
1.1796648
1.1782639
1.176918
1.175631
1.1744075
1.1732525
1.1721717
1.1711711
1.1702558
1.1694298
1.1686953
1.1680547
1.1675105
1.1670679
1.1667377
1.1665406
1.1665033
1.1666548
1.1669902
1.1674636
1.1680509
1.1687086
1.1693946
1.1702484
1.1709876
1.1715755
1.1716155
1.1706899
1.1691282
1.1686608
1.1573505
1.1689778
1.189456
1.205341
1.2120962
1.2135054
1.2134159
1.2129401
1.2129666
1.212595
1.2122117
1.2117191
1.2110962
1.210414
1.2096784
1.2089105
1.20811
1.2072807
1.2064268
1.2055518
1.2046593
1.2037523
1.2028335
1.2019057
1.200971
1.2000319
1.1990901
1.1981476
1.1972062
1.1962674
1.1953328
1.1944037
1.1934817
1.1925679
1.1916638
1.1907705
1.1898893
1.1890214
1.1881681
1.1873304
1.1865099
1.1857076
1.184925
1.1841635
1.1834244
1.1827089
1.1820185
1.1813542
1.1807172
1.1801083
1.1795281
1.1789771
1.1784547
1.17796
1.1774909
1.1770443
1.1766157
1.1761989
1.175785
1.1753625
1.1749168
1.1744306
1.1738823
1.1732496
1.1724994
1.171614
1.1705394
1.1692882
1.1677605
1.1660037
1.1639608
1.1615536
1.1595272
1.1570254
1.1568769
1.1560136
1.1592345
1.1593691
1.1654751
1.160849
1.1520848
1.1710173
1.1940419
1.2052139
1.208151
1.2080194
1.2074311
1.2072067
1.2069579
1.2067202
1.2063977
1.2060271
1.2056153
1.2051675
1.2046794
1.2041528
1.2035896
1.2029928
1.202365
1.2017084
1.2010256
1.2003189
1.1995906
1.1988432
1.1980789
1.1973001
1.196509
1.1957077
1.1948984
1.1940831
1.1932638
1.1924424
1.1916207
1.1908005
1.1899836
1.1891715
1.188366
1.1875686
1.1867809
1.1860044
1.1852406
1.1844911
1.1837575
1.1830412
1.1823436
1.1816662
1.1810103
1.1803771
1.1797677
1.179183
1.1786236
1.1780898
1.1775812
1.1770966
1.176634
1.1761904
1.1757616
1.1753416
1.1749222
1.1744925
1.174039
1.1735456
1.1729917
1.1723558
1.1716076
1.1707289
1.1696702
1.1684371
1.1669368
1.1652029
1.1631969
1.1608484
1.1589286
1.1565931
1.1567255
1.1559204
1.1594276
1.1595048
1.1656701
1.1606596
1.1559262
1.176372
1.1935846
1.2015085
1.2029384
1.2025498
1.2020934
1.2018998
1.2016966
1.2014921
1.2012301
1.2009556
1.2006411
1.2003035
1.199933
1.1995352
1.1991087
1.1986551
1.198175
1.1976691
1.1971388
1.1965851
1.1960093
1.1954129
1.1947973
1.1941641
1.1935149
1.1928513
1.192175
1.1914878
1.1907914
1.1900876
1.1893781
1.1886648
1.1879493
1.1872334
1.1865188
1.1858073
1.1851006
1.1844004
1.1837083
1.183026
1.1823552
1.1816976
1.1810546
1.1804277
1.1798183
1.1792277
1.1786571
1.1781073
1.1775791
1.1770725
1.1765874
1.1761225
1.1756759
1.1752448
1.1748251
1.1744112
1.1739956
1.1735682
1.1731163
1.1726247
1.1720742
1.1714441
1.1707062
1.1698422
1.1688059
1.1675965
1.1661267
1.16442
1.1624553
1.1601713
1.1583669
1.1562025
1.1565798
1.1558643
1.1596311
1.1596651
1.16586
1.160453
1.1585552
1.1785209
1.192174
1.1981622
1.1983859
1.1979327
1.197493
1.1973068
1.1970348
1.1968099
1.1965291
1.1962639
1.1959701
1.1956744
1.195358
1.1950286
1.1946818
1.1943187
1.1939382
1.1935399
1.1931237
1.1926893
1.192237
1.1917668
1.1912793
1.190775
1.1902547
1.1897191
1.1891694
1.1886066
1.1880321
1.187447
1.1868528
1.186251
1.1856432
1.1850307
1.1844154
1.1837988
1.1831826
1.1825685
1.1819581
1.1813533
1.1807557
1.1801669
1.1795886
1.1790222
1.1784691
1.1779307
1.1774081
1.1769024
1.1764142
1.1759436
1.1754903
1.1750532
1.1746307
1.1742198
1.1738169
1.1734168
1.1730124
1.1725944
1.172151
1.171668
1.1711273
1.1705094
1.1697879
1.1689441
1.1679341
1.1667521
1.1653143
1.1636378
1.1617182
1.1595058
1.1578262
1.1558347
1.1564612
1.1558246
1.1598539
1.1598768
1.1660462
1.1602286
1.1568105
1.1770008
1.1889463
1.193197
1.1927928
1.1925777
1.1922025
1.192107
1.1918666
1.191716
1.1914906
1.1913019
1.1910785
1.1908635
1.1906293
1.1903884
1.1901337
1.1898674
1.1895877
1.1892938
1.1889854
1.1886619
1.188323
1.1879685
1.1875984
1.1872128
1.186812
1.1863962
1.185966
1.1855221
1.1850652
1.1845962
1.184116
1.1836258
1.1831268
1.1826203
1.1821076
1.1815902
1.1810696
1.1805474
1.1800253
1.1795048
1.1789875
1.1784751
1.177969
1.1774709
1.176982
1.1765037
1.1760372
1.1755833
1.1751428
1.1747158
1.174302
1.1739003
1.1735091
1.1731259
1.1727471
1.1723679
1.1719817
1.17158
1.1711518
1.1706839
1.1701593
1.1695597
1.1688602
1.1680418
1.167062
1.1659102
1.1645061
1.162863
1.1609925
1.1588598
1.1573117
1.1555162
1.1563392
1.1558105
1.1600927
1.1600783
1.1662832
1.159985
1.1522082
1.1741485
1.1843367
1.1876805
1.187057
1.187097
1.1867674
1.1867942
1.1866066
1.1865534
1.1863978
1.1862989
1.1861555
1.1860286
1.1858805
1.1857292
1.1855649
1.1853914
1.1852063
1.1850092
1.1847999
1.1845777
1.1843423
1.1840932
1.1838304
1.1835536
1.1832627
1.1829577
1.1826389
1.1823065
1.1819608
1.1816023
1.1812318
1.1808498
1.1804573
1.1800554
1.1796451
1.1792277
1.1788044
1.1783767
1.1779459
1.1775136
1.1770812
1.1766501
1.1762218
1.1757977
1.175379
1.1749671
1.1745629
1.1741675
1.1737813
1.1734044
1.1730366
1.1726768
1.1723236
1.1719744
1.171626
1.171274
1.1709122
1.1705327
1.1701256
1.1696784
1.1691755
1.1685994
1.1679267
1.1671377
1.166191
1.1650714
1.1637021
1.1620951
1.1602782
1.1582337
1.1568277
1.1552481
1.1562355
1.1558555
1.1603472
1.1602279
1.1665472
1.1597224
1.1477092
1.1712943
1.1795085
1.1823242
1.1815487
1.1818013
1.1814849
1.18162
1.1814738
1.1815107
1.1814162
1.181401
1.1813319
1.1812837
1.1812109
1.1811386
1.181054
1.1809627
1.1808621
1.1807518
1.1806315
1.1805005
1.1803583
1.1802044
1.1800385
1.1798603
1.1796693
1.1794654
1.1792486
1.1790187
1.178776
1.1785206
1.1782528
1.1779733
1.1776826
1.1773814
1.1770707
1.1767514
1.1764245
1.1760912
1.1757527
1.1754103
1.175065
1.1747182
1.1743711
1.174025
1.1736809
1.17334
1.1730033
1.1726714
1.1723449
1.1720236
1.1717074
1.1713952
1.1710855
1.170776
1.1704637
1.1701443
1.1698123
1.1694604
1.1690794
1.1686578
1.1681813
1.1676331
1.1669912
1.1662349
1.1653236
1.1642378
1.1629042
1.1613362
1.1595774
1.1576303
1.1563852
1.1550154
1.1561621
1.1559524
1.1606265
1.1603545
1.1667835
1.1594407
1.1433967
1.1681359
1.1746437
1.1772711
1.176397
1.1768343
1.1765099
1.1767399
1.1766126