/*--------------------------------*- C++ -*----------------------------------*\
  =========                 |
  \\      /  F ield         | OpenFOAM: The Open Source CFD Toolbox
   \\    /   O peration     | Website:  https://openfoam.org
    \\  /    A nd           | Version:  12
     \\/     M anipulation  |
\*---------------------------------------------------------------------------*/
FoamFile
{
    format      ascii;
    class       volScalarField;
    location    "0.025";
    object      T;
}
// * * * * * * * * * * * * * * * * * * * * * * * * * * * * * * * * * * * * * //

dimensions      [0 0 0 1 0 0 0];

internalField   nonuniform List<scalar> 
16000
(
290.41999
282.14702
285.44776
283.71789
284.82055
284.34344
284.7697
284.68076
284.88312
284.92985
285.06035
285.15514
285.26985
285.38178
285.49948
285.62033
285.74521
285.87405
286.00695
286.14399
286.28522
286.4307
286.58045
286.73448
286.89278
287.05533
287.22206
287.39288
287.5677
287.74636
287.92869
288.11449
288.30353
288.49554
288.69026
288.88738
289.0866
289.2876
289.49006
289.69369
289.89819
290.10328
290.30872
290.51431
290.71988
290.92533
291.13062
291.33577
291.5409
291.74621
291.95201
292.15871
292.36686
292.57714
292.7904
293.00764
293.23007
293.45914
293.69659
293.94455
294.20565
294.48294
294.77962
295.09816
295.43861
295.79591
296.15662
296.49678
296.78258
296.97298
297.03376
296.932
296.64361
296.27553
295.93154
295.73783
295.80218
295.75435
297.18537
297.90878
290.21516
281.83547
285.2922
283.46256
284.63441
284.11804
284.58072
284.4824
284.70042
284.75288
284.89134
284.99574
285.11852
285.24016
285.36723
285.49808
285.63319
285.77259
285.91635
286.06453
286.21715
286.37425
286.53583
286.70185
286.87227
287.04704
287.22603
287.40914
287.59621
287.78703
287.98139
288.17903
288.37966
288.58297
288.78863
288.99627
289.20556
289.41611
289.62758
289.83961
290.05189
290.26412
290.47602
290.68739
290.89805
291.10791
291.31691
291.5251
291.7326
291.93961
292.14646
292.35358
292.5615
292.7709
292.98259
293.19757
293.41698
293.64222
293.87495
294.1172
294.37147
294.64058
294.92739
295.23381
295.5592
295.89784
296.23587
296.54958
296.80634
296.96147
296.99493
296.85719
296.55065
296.17697
295.84485
295.6873
295.72551
295.85514
297.2485
297.97339
290.02528
281.5484
285.12204
283.25153
284.46787
283.93284
284.41008
284.31998
284.54379
284.60872
284.75368
284.86947
285.00136
285.13374
285.27142
285.41337
285.55989
285.71101
285.86678
286.02723
286.19237
286.36219
286.53665
286.71569
286.89924
287.08716
287.27933
287.47555
287.67562
287.87928
288.08624
288.29619
288.50877
288.72361
288.9403
289.15843
289.37759
289.59737
289.81737
290.0372
290.25652
290.47502
290.69241
290.90849
291.1231
291.33614
291.5476
291.75754
291.96612
292.17357
292.38025
292.58661
292.79319
293.0007
293.20993
293.42184
293.63756
293.8584
294.08595
294.32215
294.5693
294.82996
295.10647
295.4
295.70887
296.02625
296.33746
296.61866
296.8387
296.95312
296.94634
296.76604
296.44088
296.06267
295.74981
295.62561
295.67256
295.97432
297.33307
298.02072
289.85648
281.29101
284.9792
283.07854
284.34267
283.77983
284.27324
284.19162
284.42187
284.50067
284.65317
284.78151
284.92373
285.06794
285.21739
285.37154
285.53053
285.69441
285.8632
286.03691
286.21551
286.39896
286.58718
286.78007
286.9775
287.17929
287.38522
287.59507
287.80854
288.0253
288.245
288.46724
288.69158
288.91758
289.14476
289.37266
289.60081
289.82875
290.05604
290.28228
290.5071
290.73021
290.95132
291.17026
291.38688
291.60115
291.81307
292.02278
292.23046
292.43642
292.64105
292.84484
293.04838
293.25237
293.45762
293.66506
293.87577
294.09102
294.31229
294.5414
294.78043
295.03159
295.29664
295.57582
295.86634
296.16022
296.44195
296.68709
296.86478
296.94063
296.89352
296.66849
296.32718
295.94733
295.6582
295.56708
295.63588
296.093
297.41621
298.04867
289.71225
281.07007
284.86226
282.92752
284.22879
283.66767
284.17894
284.10534
284.34055
284.43555
284.5961
284.73808
284.89172
285.04865
285.21088
285.37819
285.55066
285.72833
285.91118
286.09919
286.2923
286.49042
286.69341
286.90111
287.11331
287.32976
287.55018
287.77422
288.00152
288.23165
288.46416
288.69857
288.93436
289.17099
289.40794
289.64467
289.88066
290.11541
290.34847
290.57944
290.80796
291.03374
291.25654
291.47624
291.69274
291.90607
292.11632
292.32368
292.52842
292.73092
292.93162
293.13107
293.3299
293.52883
293.72869
293.93038
294.13495
294.34357
294.55764
294.7788
295.00891
295.24971
295.50229
295.76589
296.03647
296.30482
296.55454
296.76068
296.89156
296.92671
296.82564
296.56517
296.20608
295.82908
295.56827
295.51394
295.61775
296.18375
297.48113
298.05525
289.59484
280.89033
284.77507
282.81032
284.14251
283.59778
284.12863
284.06532
284.30543
284.41687
284.586
284.74221
284.9083
285.07887
285.25499
285.43665
285.62385
285.8166
286.01484
286.2185
286.42744
286.64151
286.86048
287.0841
287.31207
287.54404
287.77961
288.01833
288.25974
288.50329
288.74842
288.99456
289.2411
289.48743
289.73294
289.97705
290.21922
290.45892
290.69572
290.92922
291.15911
291.38514
291.60717
291.82511
292.03899
292.24891
292.45506
292.65773
292.85729
293.05419
293.24896
293.44221
293.63462
293.82693
294.01997
294.21463
294.4119
294.61288
294.81883
295.03121
295.25155
295.48111
295.7202
295.96698
296.2161
296.45709
296.67282
296.83815
296.92264
296.91317
296.74955
296.46045
296.08143
295.71134
295.48305
295.46495
295.61068
296.25485
297.51395
298.03828
289.50347
280.7507
284.71764
282.72561
284.0843
283.5646
284.08217
284.03088
284.30859
284.44319
284.62237
284.79412
284.97453
285.16045
285.35233
285.55021
285.75403
285.96374
286.1792
286.40027
286.62671
286.85826
287.09461
287.33539
287.58016
287.82846
288.07975
288.33347
288.589
288.84569
289.10287
289.35986
289.61596
289.87049
290.12281
290.3723
290.6184
290.86062
291.09855
291.33186
291.5603
291.78374
292.00211
292.21546
292.42392
292.62773
292.82719
293.02272
293.21478
293.40393
293.59078
293.776
293.96032
294.14452
294.32942
294.51587
294.7048
294.89722
295.09425
295.2971
295.50693
295.72444
295.94907
296.17786
296.40413
296.6162
296.79633
296.92015
296.95845
296.88591
296.68071
296.35612
295.9591
295.59802
295.40328
295.41306
295.60943
296.30508
297.50264
297.99004
289.43388
280.64825
284.68884
282.67124
284.06382
283.53579
284.10079
284.13655
284.36252
284.51493
284.70723
284.89679
285.09425
285.29799
285.50812
285.72462
285.9474
286.1763
286.41111
286.65156
286.89732
287.148
287.40313
287.66222
287.92468
288.18987
288.45714
288.72574
288.99493
289.26394
289.53198
289.79826
290.06203
290.32257
290.5792
290.83131
291.0784
291.32002
291.55584
291.78566
292.00933
292.22686
292.43834
292.64396
292.844
293.03883
293.22893
293.41481
293.59707
293.77637
293.95339
294.12888
294.30359
294.47832
294.65387
294.83108
295.01078
295.19387
295.38129
295.57398
295.77268
295.97742
296.18671
296.39645
296.59871
296.78069
296.92406
297.00472
296.99473
296.86906
296.61959
296.25942
295.84778
295.4964
295.33341
295.36142
295.60928
296.32942
297.44531
297.90541
289.38192
280.58321
284.69195
282.65041
284.10092
283.65781
284.18111
284.21286
284.46158
284.6394
284.84803
285.05781
285.27518
285.4994
285.73042
285.96814
286.21235
286.4628
286.71915
286.981
287.24785
287.51916
287.79429
288.07256
288.35319
288.6354
288.91831
289.20105
289.48272
289.76242
290.03927
290.31242
290.58108
290.8445
291.10207
291.35322
291.59755
291.83473
292.06458
292.28704
292.50216
292.71012
292.9112
293.10576
293.29427
293.47727
293.65536
293.8292
293.99951
294.16702
294.3325
294.49674
294.66053
294.82466
294.9899
295.15703
295.3268
295.49998
295.67728
295.85936
296.04642
296.23779
296.43103
296.62089
296.7983
296.94954
297.05571
297.09252
297.03399
296.86181
296.56861
296.17901
295.75663
295.41504
295.27918
295.31623
295.6066
296.32978
297.35008
297.79285
289.3491
280.56072
284.734
282.75934
284.19041
283.76154
284.2895
284.35555
284.62059
284.82497
285.05347
285.28605
285.52632
285.77391
286.02865
286.29031
286.55855
286.83297
287.11305
287.3982
287.68774
287.98089
288.27682
288.57461
288.87329
289.17184
289.46923
289.7644
290.05634
290.34404
290.62655
290.90302
291.17266
291.43481
291.68893
291.93463
292.17164
292.39984
292.61926
292.83006
293.03252
293.22704
293.4141
293.59429
293.76825
293.93669
294.10035
294.26001
294.41648
294.57058
294.72312
294.87492
295.02677
295.17945
295.33368
295.49016
295.64955
295.81243
295.97932
296.15048
296.3256
296.50321
296.6799
296.84935
297.0015
297.1219
297.19128
297.18592
297.08229
296.86555
296.53539
296.12194
295.69392
295.36109
295.24558
295.28031
295.60424
296.31394
297.23194
297.66793
289.34156
280.59543
284.81762
282.91957
284.32639
283.94177
284.45646
284.57135
284.84669
285.08013
285.33247
285.59094
285.85744
286.13161
286.41317
286.7017
286.99668
287.29749
287.60338
287.91351
288.22694
288.54263
288.85946
289.17627
289.49186
289.80499
290.11445
290.41905
290.71768
291.00929
291.29295
291.56784
291.83332
292.08887
292.33415
292.569
292.79341
293.00753
293.21168
293.40628
293.59187
293.76911
293.93871
294.10145
294.25815
294.40966
294.55685
294.7006
294.84178
294.98125
295.11985
295.2584
295.39768
295.5384
295.68125
295.82681
295.97561
296.12809
296.28448
296.44464
296.60768
296.77135
296.93128
297.08019
297.20718
297.2973
297.33124
297.28634
297.14153
296.88566
296.52505
296.09454
295.66588
295.33968
295.22843
295.25897
295.60619
296.2894
297.10429
297.54857
289.36644
280.69432
284.95644
283.09888
284.50357
284.18572
284.69588
284.85625
285.14923
285.41427
285.69489
285.98297
286.27947
286.58384
286.89562
287.21414
287.53861
287.8681
288.20157
288.53783
288.87561
289.21357
289.55028
289.88431
290.2142
290.53855
290.85601
291.16532
291.46534
291.7551
292.03378
292.30076
292.55562
292.79813
293.02827
293.2462
293.45228
293.64698
293.83094
294.00489
294.16966
294.32614
294.47526
294.61796
294.75522
294.888
295.01725
295.1439
295.26886
295.393
295.51715
295.6421
295.76857
295.89722
296.02865
296.16333
296.30165
296.44385
296.58987
296.73915
296.89021
297.04001
297.18332
297.31198
297.41446
297.47556
297.4763
297.39542
297.21472
296.92696
296.54306
296.10205
295.67664
295.35634
295.22487
295.26427
295.61594
296.25985
296.97811
297.44542
289.42664
280.86018
285.15472
283.36422
284.74169
284.50363
285.01054
285.22144
285.53802
285.83827
286.1522
286.47437
286.80518
287.1438
287.48944
287.84108
288.19756
288.55754
288.91957
289.28206
289.64337
290.00179
290.35559
290.70308
291.04262
291.37269
291.6919
291.99905
292.29315
292.57343
292.83937
293.0907
293.32738
293.5496
293.75778
293.95249
294.13448
294.30462
294.46387
294.61326
294.75387
294.88679
295.01312
295.13395
295.25033
295.36329
295.4738
295.58283
295.69125
295.79991
295.90961
296.02107
296.13495
296.2518
296.37212
296.49628
296.6245
296.75679
296.89281
297.03155
297.17094
297.30723
297.43438
297.54353
297.62274
297.65684
297.62758
297.51554
297.30542
296.99331
296.59367
296.14821
295.72842
295.41599
295.27453
295.33374
295.64071
296.23171
296.86172
297.36043
289.52365
281.10274
285.41688
283.704
285.05706
284.90403
285.41314
285.67783
286.02572
286.36587
286.71878
287.08023
287.45014
287.82724
288.21026
288.59771
288.9879
289.379
289.76905
290.15604
290.53791
290.91259
291.27812
291.63262
291.9744
292.30197
292.61412
292.9099
293.18868
293.45012
293.69421
293.92118
294.13155
294.32603
294.50552
294.67107
294.82384
294.96503
295.09592
295.21778
295.33186
295.43942
295.54164
295.63967
295.7346
295.82745
295.91919
296.01074
296.10292
296.19654
296.29229
296.39083
296.49271
296.5984
296.70827
296.82255
296.9413
297.06431
297.1909
297.31964
297.4479
297.57128
297.68308
297.77392
297.83169
297.84155
297.78638
297.64884
297.41638
297.08773
296.67979
296.23523
295.8219
295.51383
295.36631
295.40802
295.69016
296.21581
296.76657
297.29799
289.66277
281.43679
285.74575
284.132
285.4569
285.39897
285.91751
286.24046
286.62841
287.01457
287.41284
287.81926
288.23312
288.65253
289.0756
289.50019
289.92401
290.34463
290.75959
291.1664
291.56264
291.946
292.3144
292.66601
292.99932
293.31317
293.60681
293.87984
294.13226
294.36441
294.57694
294.77076
294.94698
295.1069
295.25191
295.38347
295.50309
295.61226
295.71244
295.80508
295.89152
295.97306
296.05091
296.12621
296.20001
296.27329
296.34694
296.4218
296.49864
296.57813
296.6609
296.74748
296.83833
296.93381
297.03416
297.13946
297.24961
297.36414
297.48207
297.60155
297.71942
297.83075
297.92833
298.0025
298.04123
298.03032
297.95404
297.79721
297.54964
297.21207
296.80274
296.36354
295.95723
295.6504
295.49344
295.51607
295.76261
296.2203
296.70443
297.26496
289.84802
281.88202
286.13567
284.65951
285.95615
286.004
286.54247
286.92971
287.36756
287.80693
288.25711
288.71383
289.17553
289.63956
290.10326
290.56372
291.01797
291.46295
291.89569
292.31334
292.71331
293.09331
293.4515
293.78646
294.09728
294.38353
294.64525
294.88293
295.09742
295.28991
295.4618
295.61469
295.7503
295.87042
295.97683
296.07132
296.15559
296.2313
296.30001
296.36319
296.42218
296.47825
296.53255
296.58613
296.63996
296.69491
296.75179
296.81132
296.87416
296.94087
297.01197
297.08788
297.16894
297.25541
297.34738
297.44482
297.54741
297.65445
297.76465
297.87575
297.98419
298.08458
298.1694
298.22895
298.25154
298.22385
298.13166
297.96184
297.70616
297.36673
296.96211
296.53181
296.13267
295.8244
295.65425
295.65508
295.86346
296.25348
296.68336
297.2666
290.08486
282.47041
286.60789
285.30636
286.57679
286.74319
287.31445
287.773
288.27048
288.77006
289.27763
289.78832
290.29946
290.80746
291.3087
291.79943
292.27593
292.73463
293.1723
293.58607
293.97366
294.33334
294.66404
294.9653
295.2373
295.48073
295.69675
295.88691
296.05301
296.19707
296.32122
296.42763
296.51848
296.59586
296.66181
296.71824
296.76693
296.80954
296.84759
296.88247
296.91545
296.94766
296.98013
297.01379
297.04948
297.08794
297.12985
297.17581
297.22635
297.28192
297.34292
297.40966
297.48237
297.56118
297.64609
297.73689
297.8331
297.93376
298.03728
298.14108
298.2412
298.33199
298.40582
298.45317
298.4629
298.42271
298.31988
298.14309
297.8857
297.55066
297.15584
296.73715
296.3448
296.03236
295.84646
295.82395
295.99171
296.32125
296.7059
297.29718
290.38723
283.23436
287.19482
286.10409
287.35
287.64761
288.26585
288.80247
289.36805
289.9335
290.50172
291.06691
291.62496
292.17108
292.70062
293.20901
293.69216
294.14646
294.56906
294.95785
295.31162
295.62995
295.9132
296.16241
296.37919
296.56558
296.72394
296.85683
296.96691
297.05685
297.12926
297.18668
297.23147
297.26585
297.29188
297.31142
297.32616
297.33765
297.34726
297.3562
297.36559
297.37638
297.38945
297.40556
297.4254
297.44958
297.47863
297.51302
297.55316
297.59939
297.65199
297.71117
297.77705
297.84966
297.92888
298.01436
298.10542
298.20089
298.29889
298.39654
298.48966
298.57242
298.6373
298.67515
298.67551
298.62712
298.51869
298.34041
298.0869
297.76144
297.3804
296.97532
296.58974
296.27165
296.067
296.01616
296.1442
296.41973
296.76558
297.34557
290.78266
284.11694
287.92323
287.08844
288.31286
288.75147
289.43263
290.05404
290.69426
291.32847
291.9562
292.57029
293.16498
293.73434
294.2731
294.77663
295.24137
295.66479
296.04551
296.38325
296.67874
296.93352
297.14985
297.3305
297.47854
297.59727
297.69001
297.76007
297.81061
297.84465
297.86497
297.87413
297.87448
297.86812
297.85692
297.84257
297.82654
297.81015
297.79455
297.78074
297.76963
297.76197
297.75847
297.75972
297.76625
297.77852
297.79694
297.82186
297.85356
297.89228
297.9382
297.99143
298.05201
298.11987
298.19478
298.27624
298.3634
298.45489
298.54858
298.64138
298.72893
298.80543
298.86359
298.89475
298.88926
298.83685
298.72745
298.55254
298.30767
297.99598
297.63173
297.24168
296.86291
296.53801
296.31184
296.22784
296.31165
296.53628
296.8532
297.4116
291.31107
285.16276
288.84172
288.29494
289.50939
290.09704
290.85806
291.57
292.28654
292.98499
293.66113
294.3065
294.91431
295.47857
295.99478
296.45989
296.87245
297.23244
297.54118
297.80102
298.01517
298.18738
298.32174
298.42248
298.49382
298.53983
298.56436
298.57099
298.56298
298.54329
298.51456
298.47913
298.43907
298.3962
298.35209
298.30812
298.2655
298.22525
298.18827
298.15534
298.12713
298.10421
298.08711
298.07625
298.07203
298.07477
298.08476
298.10223
298.12737
298.16033
298.20121
298.25003
298.30676
298.37124
298.44314
298.52182
298.60629
298.69498
298.78559
298.87486
298.9584
299.03052
299.08427
299.1116
299.10365
299.05113
298.945
298.77779
298.54567
298.25129
297.90637
297.53282
297.16155
296.8301
296.58088
296.4583
296.49128
296.66619
296.95982
297.49358
292.02608
286.48052
289.99461
289.77711
291.00125
291.74317
292.5952
293.3951
294.17631
294.918
295.61324
296.25376
296.83394
297.35007
297.80076
298.18653
298.50964
298.77368
298.98323
299.14342
299.25975
299.33768
299.38257
299.39946
299.39301
299.36748
299.32666
299.27394
299.21228
299.14426
299.07213
298.99782
298.923
298.84908
298.77728
298.70864
298.64405
298.58426
298.52991
298.48155
298.43965
298.4046
298.37677
298.35644
298.34387
298.33929
298.34286
298.35475
298.37505
298.40383
298.44113
298.48691
298.54109
298.60343
298.67348
298.75052
298.8334
298.92042
299.00913
299.09623
299.17733
299.24696
299.29861
299.32489
299.31774
299.26877
299.16988
299.01441
298.79888
298.52515
298.20225
297.84736
297.48577
297.15014
296.87886
296.71524
296.69376
296.81637
297.08186
297.57852
292.97729
288.14679
291.46901
291.61475
292.86753
293.75707
294.69124
295.55444
296.36361
297.10191
297.76332
298.3432
298.84049
299.25663
299.59547
299.86242
300.06408
300.20759
300.3003
300.34936
300.36157
300.34317
300.29983
300.23656
300.15775
300.06725
299.96833
299.86381
299.75608
299.64717
299.5388
299.43239
299.32916
299.23011
299.13609
299.04781
298.96585
298.89072
298.82283
298.76252
298.71008
298.66577
298.6298
298.60236
298.58358
298.57361
298.57254
298.58044
298.59736
298.62331
298.65828
298.7022
298.75492
298.81614
298.88534
298.9617
299.04395
299.13031
299.21825
299.30444
299.38463
299.45364
299.50545
299.53337
299.53015
299.48831
299.40056
299.26087
299.06589
298.81653
298.5192
298.18666
297.83896
297.50444
297.21645
297.01428
296.93824
297.00497
297.22589
297.65717
294.13319
290.28174
293.37002
293.89072
295.17386
296.18173
297.15229
298.01798
298.78596
299.44768
300.0035
300.45641
300.81279
301.08089
301.27031
301.39103
301.45298
301.46557
301.43743
301.37632
301.28905
301.18152
301.05877
300.92509
300.78408
300.63874
300.49157
300.34465
300.19969
300.0581
299.92104
299.78946
299.66412
299.54567
299.4346
299.33135
299.23625
299.14957
299.07154
299.00234
298.94213
298.89102
298.84914
298.81656
298.79337
298.77961
298.77533
298.78054
298.79525
298.81944
298.85307
298.89604
298.94815
299.00906
299.07819
299.15463
299.23705
299.3236
299.41175
299.49821
299.57893
299.6491
299.70327
299.7355
299.73937
299.70822
299.63555
299.51586
299.34584
299.12546
298.85876
298.55454
298.2278
297.90171
297.60607
297.37431
297.2458
297.2489
297.40197
297.73852
295.71304
292.99797
295.79182
296.65704
297.91371
298.98457
299.90151
300.67136
301.30381
301.80298
302.17977
302.44677
302.61814
302.70802
302.72999
302.69646
302.61848
302.50562
302.36606
302.20668
302.03318
301.85026
301.66178
301.47088
301.28011
301.09151
300.90673
300.72712
300.55371
300.38736
300.22872
300.07833
299.93658
299.8038
299.68022
299.56604
299.46138
299.36636
299.28104
299.20549
299.13976
299.08387
299.03785
299.00173
298.97552
298.95922
298.95283
298.95633
298.96971
298.99292
299.02592
299.06858
299.12068
299.18183
299.25141
299.32846
299.41164
299.49906
299.58823
299.67601
299.75862
299.83169
299.89042
299.92959
299.94366
299.92676
299.87314
299.77787
299.63781
299.45216
299.22286
298.9551
298.65911
298.35233
298.0598
297.80989
297.63382
297.56234
297.61904
297.82684
297.72842
296.36445
298.72785
299.88693
301.114
302.0163
302.75844
303.3192
303.72177
303.98491
304.13033
304.1784
304.14806
304.05583
303.91593
303.74014
303.53821
303.31801
303.08588
302.84686
302.60495
302.36331
302.12442
301.89021
301.66219
301.44152
301.22911
301.02564
300.8316
300.6474
300.47329
300.30946
300.15605
300.01313
299.88074
299.75887
299.64754
299.5467
299.45634
299.3764
299.30688
299.24772
299.19891
299.16041
299.13219
299.11423
299.10649
299.10894
299.12155
299.14428
299.17707
299.21978
299.27218
299.33385
299.40416
299.48212
299.5664
299.65516
299.74603
299.83609
299.92189
299.99958
300.06496
300.11358
300.14065
300.14121
300.11038
300.04403
299.93934
299.79497
299.61087
299.38884
299.13445
298.85943
298.58193
298.32321
298.10423
297.94814
297.88035
297.92501
300.21763
300.36126
302.43087
303.44981
304.3852
305.03347
305.47489
305.73134
305.84002
305.83092
305.73132
305.56359
305.34606
305.09324
304.81655
304.52482
304.22487
303.9219
303.61986
303.32175
303.02982
302.74576
302.47081
302.20588
301.95163
301.70851
301.47684
301.25679
301.04847
300.85193
300.66715
300.49408
300.33264
300.18275
300.04428
299.91714
299.80121
299.69638
299.60253
299.51958
299.44744
299.38603
299.33528
299.29513
299.26551
299.24639
299.23771
299.23943
299.25153
299.27396
299.30667
299.34951
299.40224
299.46445
299.53548
299.61439
299.69989
299.79027
299.88336
299.97654
300.06675
300.15061
300.22447
300.28452
300.32678
300.34727
300.3423
300.30877
300.24435
300.14715
300.01526
299.84727
299.64416
299.41149
299.15912
298.8979
298.63669
298.38705
298.17311
298.03075
303.32084
304.83162
306.21896
306.96585
307.48411
307.72996
307.78778
307.69996
307.50793
307.24235
306.92705
306.57966
306.2133
305.83751
305.45927
305.08359
304.71411
304.35337
304.00319
303.66482
303.33909
303.02655
302.7275
302.44211
302.17042
301.91238
301.66788
301.4368
301.21894
301.01412
300.82214
300.64279
300.47586
300.32115
300.17846
300.0476
299.92839
299.82066
299.72427
299.63906
299.56493
299.50177
299.44947
299.40795
299.37715
299.35699
299.34742
299.34842
299.35995
299.38198
299.41446
299.45725
299.5101
299.57261
299.64416
299.72384
299.8105
299.90259
299.99822
300.09509
300.19053
300.28158
300.36504
300.43768
300.49637
300.53824
300.56091
300.56237
300.54073
300.49354
300.41724
300.30765
300.16149
299.97762
299.75633
299.49569
299.18979
298.83868
298.46783
298.14215
307.31027
309.20749
309.80918
310.03949
310.02443
309.82565
309.50764
309.11336
308.67365
308.20951
307.73535
307.26081
306.79241
306.33442
305.88963
305.45981
305.04602
304.64884
304.2685
303.90503
303.55831
303.2281
302.91411
302.61601
302.33344
302.06605
301.81348
301.57537
301.35138
301.14117
300.94443
300.76085
300.59016
300.43208
300.28635
300.15274
300.03105
299.92105
299.82259
299.7355
299.65964
299.59489
299.54114
299.49829
299.46627
299.44498
299.4344
299.43447
299.44519
299.46657
299.49852
299.54093
299.59357
299.65604
299.72778
299.80796
299.89554
299.98919
300.08727
300.18778
300.28838
300.38647
300.47937
300.56447
300.63952
300.70269
300.75271
300.78833
300.80785
300.80846
300.78539
300.73193
300.6411
300.50617
300.31801
300.06185
299.71509
299.26344
298.73763
298.23472
312.30096
312.77139
312.56876
312.24096
311.75665
311.19742
310.60136
309.99455
309.39181
308.80207
308.23042
307.67963
307.15107
306.64523
306.16206
305.70122
305.26216
304.84423
304.44674
304.06899
303.71028
303.36995
303.04734
302.74185
302.4529
302.17995
301.92249
301.68006
301.45221
301.23854
301.03866
300.85221
300.67887
300.51834
300.37033
300.23458
300.11085
299.99893
299.89864
299.80979
299.73224
299.66586
299.61055
299.5662
299.53274
299.51009
299.49819
299.49699
299.50632
299.52655
299.55741
299.59883
299.65061
299.71241
299.78369
299.86372
299.95155
300.04595
300.14547
300.24836
300.35258
300.4559
300.55616
300.65149
300.74045
300.82207
300.89576
300.96071
301.01501
301.05534
301.07679
301.07141
301.02752
300.93152
300.77088
300.51762
300.13673
299.60441
298.95502
298.3095
314.34863
314.56155
314.0715
313.34695
312.60568
311.85858
311.12899
310.42494
309.7505
309.107
308.49443
307.91203
307.35873
306.83326
306.33434
305.86067
305.41105
304.98432
304.57939
304.19528
303.83106
303.48588
303.15896
302.84959
302.5571
302.28088
302.02039
301.77509
301.54452
301.32823
301.12584
300.93696
300.76124
300.59839
300.44809
300.31008
300.18412
300.06997
299.96745
299.87637
299.79658
299.72793
299.67032
299.62363
299.58779
299.5627
299.54829
299.54434
299.552
299.56953
299.5979
299.63681
299.68615
299.74563
299.81478
299.89294
299.97916
300.07222
300.17072
300.27319
300.37779
300.48273
300.58655
300.6873
300.78391
300.87618
300.96455
301.04905
301.1256
301.186
301.22413
301.25047
301.26128
301.18391
301.04404
300.79416
300.39322
299.8117
299.08674
298.35468
309.10528
305.93489
300.77837
296.92997
295.35877
295.02643
294.98013
294.99331
294.86666
294.8088
294.71358
294.61035
294.51232
294.41653
294.32413
294.23052
294.13635
294.04178
293.94681
293.85142
293.75566
293.6596
293.56332
293.46689
293.37042
293.27401
293.17774
293.08174
292.9861
292.89092
292.79633
292.70242
292.6093
292.51711
292.42595
292.33595
292.24723
292.15994
292.07423
291.99025
291.9082
291.82829
291.75075
291.67586
291.60396
291.53541
291.47068
291.41033
291.35501
291.30549
291.26268
291.22766
291.20169
291.18625
291.18303
291.19397
291.22123
291.26729
291.33502
291.42766
291.54865
291.70151
291.88967
292.11673
292.38567
292.70018
293.06143
293.47565
293.94502
294.48145
295.09551
295.75556
296.48623
297.04803
297.5105
297.49642
297.45511
296.72336
296.80063
296.21665
307.97735
302.9792
297.19029
294.49852
293.78824
293.81156
293.93249
293.9464
293.9374
293.90679
293.8762
293.84108
293.79865
293.74996
293.69656
293.63954
293.57922
293.51574
293.44939
293.38046
293.30921
293.23591
293.1608
293.08411
293.00607
292.92689
292.84677
292.76592
292.68454
292.6028
292.5209
292.43903
292.35737
292.27611
292.19542
292.11549
292.0365
291.95867
291.88218
291.80726
291.73417
291.66314
291.59449
291.52853
291.46565
291.40628
291.35093
291.3002
291.2548
291.21554
291.18337
291.1594
291.1449
291.14136
291.15049
291.1742
291.21462
291.27416
291.3556
291.46203
291.5967
291.76293
291.964
292.20325
292.48336
292.80754
293.17701
293.59761
294.07238
294.61266
295.2277
295.88233
296.59374
297.11748
297.53229
297.46636
297.40709
296.64705
296.76585
296.22996
305.40447
300.0672
295.6969
293.70519
293.31007
293.36275
293.41099
293.3947
293.36914
293.3396
293.31115
293.27884
293.2445
293.20715
293.16734
293.12477
293.07959
293.03181
292.98156
292.92896
292.87412
292.81719
292.75832
292.69764
292.63532
292.57152
292.50641
292.44016
292.37294
292.30495
292.23636
292.16738
292.09819
292.029
291.96001
291.89143
291.82348
291.7564
291.69042
291.62582
291.56286
291.50185
291.44313
291.38708
291.33412
291.28473
291.23948
291.199
291.16404
291.13545
291.1142
291.10142
291.09842
291.10667
291.12787
291.16393
291.21692
291.28921
291.38347
291.50265
291.64984
291.82822
292.04089
292.29096
292.58082
292.91336
293.28983
293.716
294.19552
294.73922
295.35451
296.00213
296.69273
297.17522
297.54804
297.43306
297.3563
296.57679
296.73667
296.24726
303.1549
297.96592
294.48517
292.94062
292.8112
292.85519
292.88403
292.8567
292.83853
292.81235
292.78993
292.7638
292.73664
292.70709
292.67603
292.64312
292.60845
292.57192
292.53355
292.49337
292.45139
292.40768
292.36228
292.31526
292.2667
292.2167
292.16535
292.11279
292.05913
292.00453
291.94914
291.89313
291.83667
291.77996
291.72319
291.66658
291.61036
291.55477
291.50007
291.44655
291.3945
291.34428
291.29624
291.2508
291.20843
291.16964
291.13504
291.1053
291.08119
291.0636
291.05352
291.05209
291.06062
291.0806
291.1137
291.16181
291.22698
291.31149
291.41795
291.54916
291.70809
291.89777
292.12114
292.38106
292.67973
293.01973
293.40247
293.83374
294.31767
294.86449
295.47918
296.11819
296.78567
297.2232
297.56048
297.39621
297.30003
296.50497
296.705
296.26839
301.66964
296.44327
293.41385
292.31033
292.34667
292.34899
292.37496
292.34404
292.33456
292.31145
292.2954
292.27453
292.25408
292.23183
292.20885
292.18458
292.15913
292.13236
292.10426
292.07481
292.04399
292.01179
291.97822
291.9433
291.90705
291.86953
291.8308
291.79091
291.74998
291.70809
291.66537
291.62195
291.57799
291.53365
291.48912
291.44459
291.4003
291.35647
291.31338
291.27131
291.2306
291.19159
291.15467
291.12028
291.08892
291.06114
291.03755
291.01888
291.00589
290.9995
291.0007
291.01067
291.03069
291.06225
291.10701
291.16683
291.24371
291.3399
291.45789
291.60041
291.77028
291.9704
292.20356
292.4724
292.77894
293.12561
293.51395
293.9499
294.43794
294.98752
295.6006
296.22933
296.87116
297.26296
297.56474
297.3595
297.23632
296.42778
296.65587
296.29331
300.7836
295.13536
292.57507
291.7272
291.8457
291.81664
291.8583
291.8283
291.83267
291.8161
291.81015
291.79749
291.78614
291.77285
291.75907
291.74413
291.72818
291.71113
291.69298
291.67369
291.65326
291.63169
291.60898
291.58513
291.56015
291.53408
291.50695
291.4788
291.4497
291.41973
291.38897
291.35754
291.32557
291.29319
291.26057
291.22791
291.19539
291.16327
291.1318
291.10127
291.07201
291.04438
291.01878
290.99567
290.97554
290.95898
290.94662
290.93918
290.93746
290.94235
290.95489
290.97621
291.00762
291.05059
291.10676
291.17794
291.26611
291.37345
291.50239
291.65554
291.83563
292.04543
292.28758
292.56452
292.87817
293.23084
293.62431
294.06466
294.5566
295.10849
295.71884
296.33544
296.94938
297.29285
297.56709
297.32546
297.16648
296.35669
296.60316
296.32202
299.97671
293.93175
291.88304
291.1909
291.36876
291.31373
291.37394
291.34414
291.36191
291.35097
291.35437
291.34934
291.34631
291.34118
291.33575
291.32926
291.32189
291.31359
291.30438
291.29424
291.28317
291.27117
291.25824
291.24438
291.22959
291.2139
291.19732
291.17989
291.16165
291.14267
291.12302
291.10279
291.08208
291.06103
291.03978
291.0185
290.99739
290.97667
290.9566
290.93745
290.91955
290.90326
290.88898
290.87717
290.86834
290.86307
290.862
290.86585
290.87542
290.8916
290.91541
290.94801
290.99066
291.04484
291.11213
291.19433
291.29337
291.41136
291.55068
291.71385
291.90349
292.12224
292.37263
292.65696
292.97705
293.3352
293.73343
294.17798
294.67361
295.22727
295.83361
296.4361
297.02046
297.3149
297.56478
297.27462
297.09193
296.29345
296.55291
296.35441
299.28147
292.95494
291.34049
290.71412
290.93313
290.85403
290.93321
290.90148
290.93081
290.92354