/*--------------------------------*- C++ -*----------------------------------*\
  =========                 |
  \\      /  F ield         | OpenFOAM: The Open Source CFD Toolbox
   \\    /   O peration     | Website:  https://openfoam.org
    \\  /    A nd           | Version:  12
     \\/     M anipulation  |
\*---------------------------------------------------------------------------*/
FoamFile
{
    format      ascii;
    class       volVectorField;
    location    "0.025";
    object      U;
}
// * * * * * * * * * * * * * * * * * * * * * * * * * * * * * * * * * * * * * //

dimensions      [0 1 -1 0 0 0 0];

internalField   nonuniform List<vector> 
16000
(
(218.99633 -3.0852395e-17 -8.472986)
(255.61328 0 5.4387298)
(241.81259 0 -7.608391)
(249.42715 4.8854039e-17 3.8065078)
(244.81421 -4.8218458e-17 -5.9313486)
(246.97311 0 1.7482319)
(245.21203 0 -4.2658126)
(245.6938 8.2542925e-17 -0.031991701)
(244.87343 -7.8417374e-17 -3.0868189)
(244.73743 0 -1.2459008)
(244.22542 7.0860755e-17 -2.4931731)
(243.87202 -2.0188258e-16 -1.9321207)
(243.42502 1.2777712e-16 -2.3473803)
(242.99123 -1.2155323e-16 -2.2833739)
(242.52935 1.1532718e-16 -2.4327584)
(242.05318 -3.421539e-18 -2.496704)
(241.55809 -3.2504172e-18 -2.5906473)
(241.04501 -9.5909748e-17 -2.6739697)
(240.5134 1.879096e-16 -2.7587658)
(239.96312 -8.9156714e-17 -2.8411357)
(239.39398 1.6960343e-16 -2.9214541)
(238.80587 -1.6076825e-16 -2.9990149)
(238.19871 0 -3.0733073)
(237.57249 1.496722e-16 -3.1437342)
(236.92728 -4.0442282e-18 -3.2096825)
(236.26323 -2.6124584e-16 -3.2705041)
(235.58057 1.2382584e-16 -3.3255363)
(234.87967 0 -3.3741001)
(234.161 0 -3.4155126)
(233.42517 2.1510145e-16 -3.4490955)
(232.67296 -2.0042373e-16 -3.4741858)
(231.90527 0 -3.4901458)
(231.12318 0 -3.4963715)
(230.32788 0 -3.4923064)
(229.5207 5.0593531e-18 -3.4774469)
(228.70307 1.5353438e-16 -3.4513522)
(227.87651 -1.4056015e-16 -3.41365)
(227.04258 -1.3768847e-16 -3.3640414)
(226.2029 1.2192791e-16 -3.3023058)
(225.3591 0 -3.2283044)
(224.51282 -1.1673063e-16 -3.1419785)
(223.66565 1.1019958e-16 -3.0433506)
(222.81917 -2.0887805e-16 -2.9325172)
(221.97486 1.9711317e-16 -2.8096407)
(221.13406 -1.9253786e-16 -2.6749332)
(220.29802 3.525839e-16 -2.5286346)
(219.46775 5.5120463e-18 -2.3709881)
(218.64409 2.7717783e-19 -2.2022109)
(217.82763 -1.4851671e-16 -2.0224632)
(217.01867 1.4048237e-16 -1.8318128)
(216.21722 -1.2414073e-16 -1.6301957)
(215.42296 0 -1.4173664)
(214.6352 7.3838912e-18 -1.1928497)
(213.85289 0 -0.95589003)
(213.07458 6.575496e-18 -0.7054083)
(212.29835 2.0476874e-16 -0.43997013)
(211.52181 -3.7447886e-16 -0.15777182)
(210.74196 1.0865985e-17 0.14334548)
(209.9551 1.6660259e-16 0.46585592)
(209.15663 -1.4751661e-16 0.81245465)
(208.34102 1.3907987e-16 1.1858909)
(207.50199 -8.7577334e-18 1.5886692)
(206.63321 0 2.0225148)
(205.72984 0 2.4873408)
(204.79119 -1.1067324e-16 2.9798508)
(203.82457 1.114661e-16 3.4914916)
(202.85056 -9.8902547e-17 4.0058747)
(201.9095 1.9323936e-16 4.4965943)
(201.06655 -1.887507e-16 4.9257909)
(200.40488 8.3699523e-17 5.2484546)
(200.03093 5.2853712e-18 5.4309759)
(199.99726 0 5.4330916)
(200.3384 4.7417711e-18 5.2365555)
(200.88255 -4.4958948e-18 4.9459587)
(201.38297 0 4.7126426)
(201.5511 -3.3552865e-17 4.5332871)
(200.98368 6.2003715e-17 4.3540802)
(201.45395 -3.1558919e-17 5.9393359)
(198.60629 0 2.1404514)
(200.04018 0 10.646663)
(220.1841 0 -11.331788)
(257.14075 -3.6639526e-18 3.3666331)
(242.66625 -1.1776752e-16 -10.568843)
(250.76736 1.0858276e-16 1.6894048)
(245.79706 0 -8.8232847)
(248.19159 9.9905022e-17 -0.43827466)
(246.22228 -1.8447863e-16 -7.0384486)
(246.79407 -1.0432356e-19 -2.3389965)
(245.88108 8.313732e-17 -5.7027153)
(245.74599 0 -3.6688697)
(245.19217 -1.5018684e-16 -4.9928513)
(244.80937 1.4690708e-16 -4.3980141)
(244.32951 1.3973224e-16 -4.7996871)
(243.86062 -2.5722657e-16 -4.7346594)
(243.36335 1.1824795e-16 -4.8637918)
(242.84988 1.0872223e-17 -4.9192178)
(242.31645 1.1369103e-16 -4.9968739)
(241.76369 -1.0125202e-16 -5.0655315)
(241.19122 0 -5.133342)
(240.59893 0 -5.1976015)
(239.98673 5.5888458e-18 -5.2581834)
(239.35459 -1.7531911e-16 -5.3143613)
(238.70255 3.3244623e-16 -5.3654835)
(238.03075 -3.1066233e-16 -5.4108481)
(237.33938 1.4041933e-16 -5.4497325)
(236.62875 0 -5.4813982)
(235.89929 1.2249548e-16 -5.50509)
(235.15153 -1.3135646e-16 -5.5200564)
(234.38616 0 -5.5255515)
(233.60401 3.473524e-18 -5.5208507)
(232.80608 -1.3172593e-17 -5.5052589)
(231.99351 0 -5.4781275)
(231.16762 0 -5.4388596)
(230.32986 -1.6811331e-16 -5.3869298)
(229.48179 3.3385081e-16 -5.3218879)
(228.6251 -1.6032855e-16 -5.243371)
(227.7615 -1.5680933e-16 -5.1511112)
(226.89279 1.4353748e-16 -5.044939)
(226.02077 -1.1057247e-16 -4.9247891)
(225.14723 -2.8287131e-19 -4.7907024)
(224.27395 -2.635515e-19 -4.6428248)
(223.40262 2.2961744e-16 -4.4814043)
(222.53488 -1.0835682e-16 -4.3067826)
(221.67223 0 -4.1193821)
(220.81605 1.9972325e-16 -3.9196869)
(219.96749 1.1774318e-17 -3.7082186)
(219.12754 -5.0656303e-18 -3.4855074)
(218.29691 -1.6250167e-16 -3.2520629)
(217.47607 0 -3.008342)
(216.66517 -1.4480058e-16 -2.7547116)
(215.86405 -8.7332003e-18 -2.4914085)
(215.07223 2.5716628e-16 -2.2184866)
(214.28886 -1.2866716e-16 -1.9357693)
(213.51273 0 -1.6427976)
(212.74223 -2.0174768e-17 -1.3387874)
(211.97533 -2.0909629e-16 -1.022595)
(211.20953 3.578636e-16 -0.69269804)
(210.44172 -2.1337734e-16 -0.34720962)
(209.66811 0 0.016068863)
(208.88411 -1.6943587e-16 0.39953694)
(208.08428 1.7821447e-16 0.8056014)
(207.26264 2.6513753e-17 1.2363282)
(206.41344 0 1.6928921)
(205.53266 -1.4120304e-16 2.1746132)
(204.62055 7.2998609e-18 2.6776918)
(203.68524 1.1140043e-16 3.1934388)
(202.74799 -1.9702225e-17 3.7060876)
(201.85009 9.2950434e-17 4.1907119)
(201.05601 -1.0510864e-16 4.6094192)
(200.44701 5.5118003e-18 4.9174258)
(200.1197 -5.1999715e-18 5.0861466)
(200.14189 0 5.0772791)
(200.52167 -4.6286426e-18 4.8824735)
(201.07918 4.3699965e-18 4.6197823)
(201.54765 8.2584825e-18 4.4112692)
(201.61742 9.7801869e-19 4.2315577)
(201.21967 0 4.2893213)
(201.20742 3.0116772e-17 5.5691755)
(198.79948 -5.722582e-17 2.1320223)
(200.0212 2.5985248e-17 10.39482)
(221.22996 0 -14.257439)
(258.51469 -1.2053942e-16 1.0916669)
(243.51438 2.4585743e-16 -13.61163)
(251.89395 -2.1959336e-16 -0.59385758)
(246.66253 1.0844564e-16 -11.789168)
(249.19945 -3.2109705e-18 -2.8153858)
(247.10191 9.7740619e-17 -9.8573631)
(247.69761 -9.25685e-17 -4.845303)
(246.72785 -5.4958703e-18 -8.3823106)
(246.56845 -5.2184529e-18 -6.2598325)
(245.97828 -9.9134093e-18 -7.5927414)
(245.55864 1.3676151e-16 -7.0027438)
(245.04222 -1.3862186e-16 -7.3734832)
(244.53382 1.3606256e-16 -7.313787)
(243.99638 -1.1688143e-16 -7.4213661)
(243.44108 -1.5320316e-17 -7.4676598)
(242.86455 0 -7.5288498)
(242.26742 -1.0382825e-20 -7.5816224)
(241.64939 -2.2286292e-16 -7.6312442)
(241.01046 -3.7377489e-19 -7.675674)
(240.35064 1.7082234e-16 -7.7144752)
(239.67002 1.678205e-17 -7.7468455)
(238.96878 -2.1227326e-17 -7.7720164)
(238.24719 0 -7.7891835)
(237.50563 4.4059193e-21 -7.7975265)
(236.74461 -1.6299066e-16 -7.7962163)
(235.96474 1.4561267e-16 -7.7844213)
(235.16681 8.1268248e-18 -7.7613208)
(234.35175 0 -7.7261194)
(233.52065 -7.2921017e-18 -7.6780585)
(232.6748 -5.7791969e-21 -7.6164336)
(231.81562 -1.9636428e-16 -7.5406087)
(230.94473 1.9777585e-16 -7.4500286)
(230.06387 1.1727289e-17 -7.3442385)
(229.17489 -1.7746674e-16 -7.2228866)
(228.27973 1.4647157e-16 -7.0857411)
(227.38037 -1.7851537e-16 -6.9326933)
(226.47883 1.4964092e-16 -6.7637645)
(225.5771 -1.4170509e-16 -6.5791054)
(224.67711 1.3357504e-16 -6.3789996)
(223.78076 1.57999e-17 -6.1638582)
(222.88983 0 -5.9342108)
(222.00596 1.9711226e-16 -5.6906945)
(221.13064 -2.3864814e-16 -5.4340347)
(220.26518 0 -5.1650204)
(219.41066 1.7718744e-16 -4.8844779)
(218.56788 -1.5552566e-16 -4.5932368)
(217.73741 1.6783555e-16 -4.2921007)
(216.9195 -1.7759107e-16 -3.9818123)
(216.11407 0 -3.6630154)
(215.32074 1.7520052e-16 -3.3362124)
(214.53878 -1.3172349e-16 -3.0017128)
(213.76712 0 -2.6595872)
(213.00434 0 -2.3096203)
(212.24865 1.2352442e-16 -1.9512678)
(211.49786 -2.0640502e-16 -1.5836266)
(210.74934 1.2122767e-16 -1.2054155)
(209.99989 1.8247992e-16 -0.8149958)
(209.24566 1.4069553e-19 -0.41043773)
(208.48206 1.2140688e-19 0.010343518)
(207.70382 -3.2181585e-16 0.4493552)
(206.90542 8.8897314e-17 0.9081245)
(206.08191 0 1.3870984)
(205.23055 1.4147526e-16 1.8847552)
(204.35308 -1.6246346e-16 2.3964336)
(203.45917 1.1114417e-16 2.9128605)
(202.57167 1.3137989e-17 3.4185285)
(201.73342 -8.591206e-17 3.8897395)
(201.00924 1.1547569e-17 4.2896878)
(200.47928 2.1710787e-17 4.574059)
(200.227 -1.021075e-16 4.7188164)
(200.32602 9.5894467e-17 4.6876104)
(200.75523 -7.2172227e-17 4.4919278)
(201.31986 1.3566231e-16 4.2565749)
(201.74267 -5.584461e-17 4.072037)
(201.74416 -6.0222018e-17 3.9308568)
(201.38991 4.9734174e-17 4.1546896)
(201.0669 0 5.1322928)
(198.88349 3.2020234e-18 2.1063208)
(200.1162 -1.2236657e-17 10.111027)
(222.10151 0 -17.25)
(259.72822 0 -1.3149749)
(244.14459 0 -16.783016)
(252.80878 1.0498094e-16 -2.9788174)
(247.3094 -1.2189541e-16 -14.887456)
(250.02975 -2.1709309e-16 -5.3152434)
(247.78874 2.0646293e-16 -12.799087)
(248.41174 -1.2231006e-17 -7.4817038)
(247.37745 5.8225877e-18 -11.176132)
(247.19024 -1.7125094e-16 -8.9843955)
(246.55904 1.676436e-16 -10.307335)
(246.09737 9.9626322e-18 -9.7349469)
(245.53984 -1.5130775e-16 -10.067184)
(244.98708 1.3440708e-16 -10.013856)
(244.40489 -1.1194311e-20 -10.09822)
(243.80323 -8.0651566e-18 -10.133047)
(243.17924 0 -10.175771)
(242.53348 -7.2772391e-18 -10.209903)
(241.86578 -2.071972e-16 -10.238459)
(241.17621 2.0920733e-16 -10.259856)
(240.46489 1.241774e-17 -10.273433)
(239.73207 -1.1773801e-17 -10.2783)
(238.97806 2.1221651e-16 -10.273581)
(238.20334 -1.6904067e-16 -10.258366)
(237.40849 1.0024237e-17 -10.231728)
(236.59427 1.9012367e-16 -10.192748)
(235.76155 -1.2576556e-16 -10.140514)
(234.91143 0 -10.074145)
(234.04514 1.4536463e-16 -9.992804)
(233.16412 -1.2201792e-16 -9.8957239)
(232.26998 2.4595233e-16 -9.7822146)
(231.36452 -1.3121872e-17 -9.6516925)
(230.44968 -2.0663146e-16 -9.5036886)
(229.52753 1.7142069e-16 -9.3378681)
(228.60024 -1.8467173e-16 -9.1540371)
(227.67004 -3.7726355e-20 -8.9521566)
(226.73917 2.0651548e-16 -8.7323434)
(225.80984 -3.117065e-16 -8.494874)
(224.88422 9.1748687e-17 -8.2401833)
(223.96437 3.4751993e-17 -7.9688585)
(223.05223 -4.9142543e-17 -7.6816331)
(222.14958 0 -7.3793682)
(221.25802 -8.7474344e-17 -7.0630372)
(220.37896 1.3701566e-16 -6.7336973)
(219.51353 -2.0692873e-16 -6.3924619)
(218.66263 1.9448098e-16 -6.0404699)
(217.82683 -2.063094e-16 -5.6788477)
(217.00642 3.8805676e-16 -5.3086791)
(216.20136 -3.0418614e-16 -4.9309684)
(215.41128 3.0511041e-16 -4.5466006)
(214.63548 -1.432452e-16 -4.1562986)
(213.87295 1.3487452e-16 -3.760578)
(213.12232 -9.4859522e-17 -3.3597012)
(212.38192 2.9760949e-17 -2.9536402)
(211.64975 0 -2.5420353)
(210.92343 0 -2.1241716)
(210.20019 0 -1.6989653)
(209.47674 2.3067314e-17 -1.264996)
(208.74917 0 -0.82059317)
(208.01295 -1.6253151e-16 -0.36400389)
(207.26307 1.9045571e-16 0.10632829)
(206.49454 -1.0723108e-16 0.59130827)
(205.70341 -6.9995527e-20 1.0905484)
(204.88832 2.5132371e-16 1.6015451)
(204.05268 2.9514637e-17 2.118629)
(203.20783 -1.3809953e-16 2.6317616)
(202.37816 5.1834443e-17 3.125302)
(201.60751 -1.4570734e-16 3.5762305)
(200.9606 -4.5543343e-17 3.9505164)
(200.51849 -6.4031269e-17 4.2078121)
(200.34765 -6.0035873e-17 4.3240445)
(200.52577 5.6160342e-17 4.2685139)
(201.00266 0 4.0743581)
(201.56963 0 3.8648398)
(201.94988 -1.5414197e-17 3.7081071)
(201.90259 0 3.626971)
(201.54967 6.8047919e-18 3.9520569)
(200.97388 5.1430992e-17 4.6852111)
(198.96443 -7.2504786e-17 2.0552816)
(200.29315 -5.0486608e-20 9.802195)
(222.77337 0 -20.437813)
(260.7567 -8.6787389e-18 -3.7933277)
(244.62145 2.6251991e-16 -20.08712)
(253.55336 -2.4523584e-16 -5.4861767)
(247.75861 2.5027039e-16 -18.096476)
(250.64352 -2.2896436e-16 -7.9632765)
(248.26191 -2.1827997e-16 -15.841994)
(248.90086 2.0661742e-16 -10.274161)
(247.80577 0 -14.072077)
(247.58171 0 -11.857543)
(246.90823 1.7709515e-16 -13.135355)
(246.39894 -1.6777024e-16 -12.597474)
(245.79675 -9.9659788e-18 -12.881293)
(245.19555 2.8352712e-17 -12.833137)
(244.56468 -8.9711825e-18 -12.891872)
(243.91265 3.4031713e-17 -12.911502)
(243.23712 0 -12.932932)
(242.53857 0 -12.944972)
(241.81694 -2.3245665e-16 -12.949035)
(241.07243 2.0615124e-16 -12.943738)
(240.30532 0 -12.928202)
(239.51601 0 -12.901404)
(238.7051 -1.876193e-16 -12.862311)
(237.87329 3.5509322e-16 -12.809883)
(237.02148 -1.6795457e-16 -12.743073)
(236.15074 -1.9897059e-17 -12.660859)
(235.26234 -3.7694639e-17 -12.562256)
(234.35774 -1.4284893e-16 -12.446342)
(233.43857 1.1794871e-16 -12.312272)
(232.50671 0 -12.159306)
(231.56416 -3.0222181e-17 -11.986828)
(230.61314 0 -11.794368)
(229.65598 0 -11.581613)
(228.69512 2.0406878e-16 -11.348429)
(227.73306 -2.1631871e-16 -11.094863)
(226.77231 2.2691199e-17 -10.821154)
(225.81535 -2.1413717e-17 -10.52773)
(224.86457 -4.0506374e-17 -10.215209)
(223.92223 -9.9957056e-20 -9.8843878)
(222.99045 9.5033507e-20 -9.5362306)
(222.07114 -8.9844304e-20 -9.1718546)
(221.166 0 -8.7925012)
(220.27648 -1.2033086e-16 -8.3995164)
(219.40376 1.1302074e-16 -7.9943124)
(218.54873 0 -7.5783348)
(217.71196 -5.0127602e-17 -7.1530305)
(216.89371 1.8840218e-16 -6.7198037)
(216.09388 -2.20922e-16 -6.2799872)
(215.31206 -2.0790536e-16 -5.834802)
(214.54749 1.559284e-16 -5.3853197)
(213.7991 1.0999733e-16 -4.9324216)
(213.06552 -1.3736236e-16 -4.4767606)
(212.34507 -3.2205811e-17 -4.0187216)
(211.63579 -2.1168966e-16 -3.5583933)
(210.93543 1.1328214e-16 -3.0955338)
(210.24145 -1.0626191e-16 -2.6295552)
(209.55094 9.9467228e-17 -2.1595231)
(208.86051 2.33105e-16 -1.6842032)
(208.16628 -1.7448496e-16 -1.2021747)
(207.46382 0 -0.71203165)
(206.74845 -3.8215006e-17 -0.21270842)
(206.01588 -7.1552371e-17 0.29602164)
(205.26325 1.3389762e-16 0.81288919)
(204.49081 1.2532421e-16 1.334355)
(203.70385 -2.3444001e-16 1.8537106)
(202.9158 8.2192422e-17 2.3600986)
(202.15314 5.1268613e-17 2.837394)
(201.46052 9.589843e-17 3.2621546)
(200.90041 1.3449779e-16 3.6021159)
(200.56038 3.0507994e-20 3.8267309)
(200.48338 0 3.9088338)
(200.75026 0 3.8264791)
(201.27387 -3.4080059e-17 3.6327389)
(201.84052 9.5488859e-17 3.4435881)
(202.17897 -8.9157176e-17 3.3184572)
(202.09046 -8.3431256e-17 3.3099012)
(201.70838 5.2071153e-17 3.7071663)
(200.95045 0 4.2226076)
(199.09493 4.5778685e-17 1.9904895)
(200.53277 1.0196025e-19 9.4863608)
(223.23536 0 -23.796756)
(261.58222 1.6242445e-20 -6.3488962)
(244.90029 8.9345277e-18 -23.492398)
(254.12379 2.8411999e-16 -8.1283751)
(248.04432 3.4043015e-19 -21.399727)
(251.02568 -4.9840562e-16 -10.75232)
(248.4841 -3.320835e-19 -18.973992)
(249.14119 4.4955758e-16 -13.223033)
(247.98983 -2.0684379e-16 -17.062085)
(247.72673 -1.2271287e-17 -14.871161)
(247.01092 1.1652045e-17 -16.06843)
(246.44988 -1.7696427e-16 -15.576566)
(245.79979 1.8853228e-16 -15.804694)
(245.14603 -1.7914817e-16 -15.758724)
(244.46196 3.0178817e-16 -15.790562)
(243.75466 -3.0407456e-16 -15.791732)
(243.02237 1.355265e-16 -15.789534)
(242.26557 0 -15.776454)
(241.48444 0 -15.752732)
(240.67937 1.4437606e-17 -15.716973)
(239.85091 -2.7386064e-17 -15.668063)
(238.99978 0 -15.604808)
(238.1269 1.9667435e-16 -15.52601)
(237.23336 4.8106131e-19 -15.4305)
(236.32046 -3.5201847e-16 -15.317124)
(235.38974 1.6633955e-16 -15.184791)
(234.4429 1.9680787e-17 -15.032487)
(233.48191 0 -14.859298)
(232.50889 -1.7638576e-16 -14.664439)
(231.52619 1.3300598e-16 -14.447279)
(230.53633 -2.2061452e-16 -14.207358)
(229.54196 2.0764916e-16 -13.944419)
(228.54583 -2.2479017e-16 -13.658405)
(227.55077 2.116046e-16 -13.349489)
(226.55957 7.5032619e-17 -13.018068)
(225.57502 0 -12.664763)
(224.59975 0 -12.29042)
(223.63624 4.182815e-17 -11.896089)
(222.68679 3.9403621e-17 -11.483013)
(221.75342 -3.7104553e-17 -11.052603)
(220.8379 3.4925237e-17 -10.606411)
(219.94172 6.5933589e-17 -10.146097)
(219.06603 -6.1913122e-17 -9.6733973)
(218.21166 3.492254e-16 -9.1900819)
(217.37912 -2.7325396e-16 -8.6979152)
(216.56853 5.1285957e-17 -8.1986202)
(215.7797 -4.8290683e-17 -7.6938364)
(215.01206 0 -7.1850873)
(214.26473 2.1229945e-16 -6.6737419)
(213.5365 -1.5908539e-16 -6.1609827)
(212.82588 0 -5.6477676)
(212.1311 0 -5.1348043)
(211.45015 1.3100877e-16 -4.6225183)
(210.78076 -6.1289858e-17 -4.1110348)
(210.12047 0 -3.6001574)
(209.46654 -1.6109082e-16 -3.0893619)
(208.81596 1.0034054e-16 -2.5778138)
(208.16531 1.4085912e-16 -2.0644359)
(207.51077 -1.7537573e-16 -1.5480498)
(206.8481 1.6394736e-16 -1.0276123)
(206.17307 -1.5308794e-16 -0.50258306)
(205.48218 8.6143407e-20 0.026547673)
(204.77383 0 0.55760743)
(204.04989 6.2308564e-17 1.0860384)
(203.31772 -2.9088792e-16 1.6041581)
(202.5931 1.6282531e-16 2.100309)
(201.90492 0 2.55757)
(201.29906 -1.4170954e-16 2.9515007)
(200.83593 8.8045275e-17 3.2514576)
(200.59913 1.2310464e-16 3.4373373)
(200.63009 4.6528178e-20 3.47772)
(200.99083 -7.1096771e-17 3.3658417)
(201.56034 9.9290014e-17 3.1725903)
(202.12603 -1.5394577e-16 2.9974634)
(202.4251 8.5938242e-17 2.9042732)
(202.30448 2.6699343e-17 2.9683437)
(201.88749 4.9848843e-17 3.4020608)
(200.97676 0 3.7352818)
(199.27414 -4.345898e-17 1.9228054)
(200.84677 2.062839e-17 9.1591748)
(223.49014 0 -27.325959)
(262.21021 9.6604322e-18 -9.0063329)
(244.98547 -3.0137211e-16 -27.021619)
(254.51849 2.4605923e-16 -10.915525)
(248.14466 2.5279626e-16 -24.807207)
(251.18653 -4.9306076e-16 -13.703115)
(248.55963 2.2680369e-16 -22.192439)
(249.2189 2.2961976e-16 -16.323084)
(247.96253 -2.1761867e-16 -20.119872)
(247.62979 3.8739907e-17 -18.003293)
(246.86851 0 -19.091984)
(246.24805 0 -18.658595)
(245.54311 -2.2032354e-17 -18.830104)
(244.82919 -1.6730944e-16 -18.784223)
(244.08407 1.3845545e-16 -18.789625)
(243.31353 1.8787384e-17 -18.769693)
(242.51646 -3.5615877e-17 -18.741403)
(241.69349 3.0386168e-16 -18.699639)
(240.84511 -2.232848e-16 -18.643867)
(239.97204 2.4240005e-16 -18.572606)
(239.0752 -2.0031398e-16 -18.484548)
(238.15573 2.7167211e-17 -18.378351)
(237.21499 1.5434088e-16 -18.25269)
(236.25457 -1.9412053e-16 -18.106302)
(235.27631 0 -17.937982)
(234.28228 0 -17.746632)
(233.27477 0 -17.531282)
(232.25631 -1.9453448e-16 -17.29112)
(231.22963 1.8324751e-16 -17.02552)
(230.19762 -3.4736461e-17 -16.734067)
(229.16331 0 -16.416585)
(228.12983 -2.7851082e-16 -16.073151)
(227.10036 2.3277585e-16 -15.704103)
(226.07806 -5.5080036e-17 -15.31005)
(225.06597 1.5577722e-16 -14.89187)
(224.06703 -4.8406151e-17 -14.450688)
(223.08393 -1.8365063e-16 -13.987874)
(222.11914 2.1671096e-16 -13.505007)
(221.17478 -1.6270885e-16 -13.003848)
(220.25266 7.6783256e-17 -12.48631)
(219.35424 -7.2034317e-17 -11.954416)
(218.4806 1.3549123e-16 -11.410253)
(217.63243 -6.3475773e-17 -10.85594)
(216.81008 -2.3900751e-16 -10.293575)
(216.01348 5.0408913e-16 -9.7251924)
(215.24222 -2.1000806e-16 -9.1527297)
(214.49552 -1.4803206e-16 -8.5779859)
(213.77227 9.204539e-17 -8.002587)
(213.07104 8.6640408e-17 -7.4279569)
(212.39013 -1.62085e-16 -6.8552891)
(211.72759 1.515083e-16 -6.2855222)
(211.08126 0 -5.7193221)
(210.44877 1.3268034e-16 -5.1570648)
(209.82761 -1.8595939e-16 -4.598828)
(209.21507 5.7977384e-17 -4.0443859)
(208.60831 5.4033093e-17 -3.4932167)
(208.00423 0 -2.9445423)
(207.39945 0 -2.3974188)
(206.79025 0 -1.8509064)
(206.17273 0 -1.30434)
(205.5432 0 -0.75772845)
(204.89909 -7.122283e-17 -0.21229931)
(204.2401 0 0.32888118)
(203.56983 -6.6250503e-20 0.86029811)
(202.89782 2.3046594e-16 1.3733607)
(202.24234 -2.1456167e-16 1.8554905)
(201.63474 -9.9889222e-17 2.2886507)
(201.12311 -1.8581483e-16 2.6478123)
(200.76958 2.5908419e-16 2.905576)
(200.63635 -1.5773559e-20 3.045493)
(200.78318 7.4508651e-17 3.0411484)
(201.23702 0 2.8987035)
(201.85424 0 2.7002512)
(202.4201 0 2.5331267)
(202.68532 -1.1051614e-16 2.4668333)
(202.54133 0 2.5985884)
(202.09344 -9.5547102e-17 3.0429824)
(201.06778 1.3337115e-16 3.2210803)
(199.54899 8.2592003e-17 1.8600765)
(201.23561 -1.9757614e-17 8.801946)
(223.55168 0 -31.029725)
(262.651 0 -11.772228)
(244.87407 3.1718169e-16 -30.683371)
(254.74214 1.9042923e-17 -13.856081)
(248.02508 -2.6544035e-16 -28.320189)
(251.22975 0 -16.815471)
(248.36679 1.5903698e-17 -25.455361)
(248.93138 -3.0160059e-17 -19.562514)
(247.67113 0 -23.257124)
(247.28491 1.9008242e-16 -21.26657)
(246.46913 -4.1152582e-16 -22.223712)
(245.77739 1.9486758e-16 -21.854241)
(245.00681 2.3135147e-17 -21.968956)
(244.22209 0 -21.917348)
(243.40542 2.0755846e-17 -21.894185)
(242.56148 -3.3489046e-16 -21.847948)
(241.68977 7.3806476e-17 -21.788375)
(240.79118 2.4682482e-16 -21.711756)
(239.86659 2.3445136e-16 -21.61704)
(238.91716 -2.528792e-16 -21.502622)
(237.94428 0 -21.367017)
(236.94963 -2.838239e-16 -21.208763)
(235.93517 2.4098452e-16 -21.026444)
(234.90311 -2.0316591e-16 -20.818762)
(233.85593 1.9149028e-16 -20.584538)
(232.79638 -1.8151487e-16 -20.322753)
(231.72744 3.424454e-16 -20.032592)
(230.65232 -1.6162887e-16 -19.713466)
(229.57436 1.5288256e-16 -19.365047)
(228.49707 -2.8827166e-16 -18.987293)
(227.42401 1.3568469e-16 -18.580465)
(226.35875 1.281709e-16 -18.145143)
(225.30483 -2.4187327e-16 -17.682216)
(224.26563 5.6129606e-17 -17.192887)
(223.24433 -5.8448649e-19 -16.678653)
(222.24387 2.5173917e-16 -16.141268)
(221.26682 0 -15.582727)
(220.31539 2.1019487e-19 -15.005216)
(219.39138 0 -14.411065)
(218.49615 -7.8628041e-17 -13.80271)
(217.63062 -1.4780065e-16 -13.182641)
(216.79528 6.943583e-17 -12.553345)
(215.99018 0 -11.917269)
(215.21498 -6.121718e-17 -11.276765)
(214.46894 2.8654838e-16 -10.634052)
(213.75097 -3.2180148e-16 -9.9911784)
(213.05962 -3.0159462e-16 -9.3499872)
(212.39317 2.8164766e-16 -8.7120918)
(211.74962 -1.7582548e-16 -8.0788512)
(211.12677 0 -7.4513565)
(210.52222 0 -6.8304174)
(209.93343 7.1844535e-17 -6.2165563)
(209.35774 6.7072022e-17 -5.6100082)
(208.79238 1.2502164e-16 -5.0107222)
(208.23453 -5.8350296e-17 -4.418374)
(207.68122 -1.0870501e-16 -3.8323928)
(207.12938 -2.0273666e-16 -3.252022)
(206.5757 -9.4585516e-17 -2.6764349)
(206.01668 1.7584241e-16 -2.1049313)
(205.44884 0 -1.5372363)
(204.86917 -7.6244994e-17 -0.97392244)
(204.27612 -1.4174842e-16 -0.41695872)
(203.67077 1.3190953e-16 0.12972303)
(203.05852 6.1244219e-17 0.65971176)
(202.45118 5.6976263e-17 1.1634816)
(201.86964 0 1.6272821)
(201.34751 1.9648881e-16 2.031897)
(200.93458 1.8235564e-16 2.3532605)
(200.6938 -2.5368434e-16 2.5692076)
(200.66298 7.8382248e-17 2.6593823)
(200.93623 -7.2606031e-17 2.6079456)
(201.47486 -2.7762488e-20 2.4349112)
(202.14094 2.4863545e-16 2.2251546)
(202.70996 -2.3005173e-16 2.0604866)
(202.95088 5.3211107e-17 2.0131501)
(202.7958 1.4792171e-16 2.1998035)
(202.32405 -4.5703022e-17 2.6340863)
(201.22197 -4.2496959e-17 2.6895343)
(199.92015 0 1.8101508)
(201.69502 3.7168717e-17 8.3870196)
(223.42567 3.8576751e-16 -34.918121)
(262.90156 5.5585874e-19 -14.656729)
(244.54546 -3.5363719e-16 -34.489837)
(254.77646 0 -16.949686)
(247.64862 0 -31.891793)
(250.80658 -2.6386072e-16 -20.086739)
(247.91316 2.6693766e-16 -28.793601)
(248.46326 6.33178e-17 -22.984773)
(247.13473 -2.4035356e-16 -26.507741)
(246.65518 2.2733531e-16 -24.680454)
(245.77593 -2.4300823e-16 -25.482419)
(245.00095 2.0424296e-16 -25.172071)
(244.1533 -4.8459545e-17 -25.228729)
(243.28654 -4.5964099e-17 -25.161787)
(242.38714 -1.7416754e-16 -25.104766)
(241.45894 1.6450336e-16 -25.024339)
(240.50213 -3.5136082e-16 -24.925399)
(239.51799 5.906565e-16 -24.804934)
(238.50793 -2.7909081e-16 -24.661485)
(237.4737 -2.6486596e-16 -24.493299)
(236.41735 2.4977252e-16 -24.298744)
(235.34127 -2.9766554e-17 -24.076278)
(234.24814 -2.2397915e-16 -23.824469)
(233.14099 2.1099306e-16 -23.542075)
(232.02309 2.5001148e-16 -23.228052)
(230.898 -1.4096016e-16 -22.881605)
(229.76949 0 -22.502231)
(228.64149 2.5220668e-16 -22.089743)
(227.51804 -3.1681353e-16 -21.644308)
(226.40322 1.1145917e-16 -21.166452)
(225.30106 -2.8193818e-16 -20.657078)
(224.2155 1.9866068e-16 -20.11746)
(223.15025 -6.2621279e-17 -19.549226)
(222.10878 2.3532796e-16 -18.954329)
(221.09416 -2.2076244e-16 -18.335023)
(220.10908 -2.0811999e-16 -17.6938)
(219.15576 1.9508831e-16 -17.03335)
(218.23588 -4.5757551e-17 -16.356504)
(217.35063 0 -15.666169)
(216.50066 8.1039498e-17 -14.965274)
(215.68612 -7.5623486e-17 -14.256714)
(214.90669 0 -13.54329)
(214.16159 1.3325057e-16 -12.827668)
(213.44965 -6.2360492e-17 -12.112327)
(212.76933 -1.7482516e-16 -11.399531)
(212.11878 5.4556143e-16 -10.691294)
(211.49587 -2.0437494e-16 -9.9893599)
(210.89823 9.5302376e-17 -9.2951854)
(210.32332 -2.6739693e-16 -8.6099327)
(209.76846 -1.6148531e-19 -7.9344669)
(209.23087 1.5514173e-16 -7.269359)
(208.70768 -1.4476865e-16 -6.6148916)
(208.196 -6.7384322e-17 -5.9710732)
(207.69293 -6.2792091e-17 -5.3376559)
(207.19553 -1.1730439e-16 -4.7141633)
(206.70087 2.179947e-16 -4.0999387)
(206.20589 0 -3.4942264)
(205.70748 9.4261457e-17 -2.896311)
(205.20243 -3.50912e-16 -2.3057362)
(204.68778 2.4447896e-16 -1.7226243)
(204.16134 7.5670165e-17 -1.1481151)
(203.62265 1.4064002e-16 -0.58491301)
(203.07427 1.3070973e-16 -0.037782764)
(202.52345 -1.2125386e-16 0.48599048)
(201.98434 -1.1238168e-16 0.97585143)
(201.48046 -3.1243675e-16 1.4168244)
(201.04747 1.9807002e-20 1.7891405)
(200.7353 -8.9331037e-17 2.0706846)
(200.60445 0 2.2430014)
(200.69074 -2.293384e-16 2.2850388)
(201.07189 7.0640882e-17 2.1875278)
(201.69134 0 1.9828286)
(202.403 1.203376e-16 1.7582583)
(202.97883 0 1.590892)
(203.20755 1.0261167e-16 1.554958)
(203.05515 -1.4220159e-16 1.7779825)
(202.57244 1.3144651e-16 2.1839189)
(201.42715 -8.1245776e-17 2.1447816)
(200.3725 7.5154543e-17 1.7822871)
(202.2017 0 7.8889785)
(223.08866 -4.0538973e-16 -38.999564)
(262.94233 3.5804634e-16 -17.675672)
(243.97261 -3.2821532e-16 -38.453801)
(254.45987 3.2634655e-16 -20.211502)
(246.99337 3.1256693e-16 -35.542477)
(250.23536 -1.7738368e-17 -23.571026)
(247.22103 -2.7987227e-16 -32.247218)
(247.66735 -2.6569505e-16 -26.596204)
(246.28456 2.8281398e-16 -29.867089)
(245.69964 0 -28.237707)
(244.74632 2.8219431e-17 -28.870728)
(243.87568 0 -28.608494)
(242.93849 -1.2696652e-16 -28.606522)
(241.97761 2.3972415e-16 -28.513007)
(240.98348 0 -28.41437)
(239.9595 0 -28.289514)
(238.90663 0 -28.140283)
(237.82678 3.8632897e-17 -27.963953)
(236.72209 0 -27.758761)
(235.5951 -2.4163939e-16 -27.522847)
(234.44875 3.2559604e-16 -27.254496)
(233.28634 1.2321749e-16 -26.952192)
(232.11151 1.7473906e-16 -26.614608)
(230.92826 -2.7450098e-16 -26.240715)
(229.74083 -5.1725516e-17 -25.829792)
(228.55369 -2.4487459e-16 -25.381485)
(227.37147 1.8431499e-16 -24.895834)
(226.19885 -2.1774287e-16 -24.373313)
(225.0405 8.1452599e-17 -23.814826)
(223.90099 7.7031454e-17 -23.221725)
(222.78466 0 -22.59579)
(221.69558 2.7420648e-16 -21.939198)
(220.63743 -2.575846e-16 -21.254498)
(219.61341 0 -20.544542)
(218.6262 -2.277987e-16 -19.812443)
(217.6779 2.1339152e-16 -19.061491)
(216.77 -1.0060772e-16 -18.29509)
(215.90333 1.8836464e-16 -17.516687)
(215.07816 -2.6473033e-16 -16.729693)
(214.29415 1.2952911e-19 -15.937424)
(213.55043 -1.5473405e-16 -15.143043)
(212.84567 -7.2420387e-17 -14.349502)
(212.17813 -1.3598073e-16 -13.55951)
(211.54569 2.5355757e-16 -12.775494)
(210.94598 -1.1833159e-16 -11.999575)
(210.37637 0 -11.233557)
(209.83406 -4.1533876e-19 -10.478915)
(209.31611 9.6346865e-17 -9.7367984)
(208.8195 0 -9.008039)
(208.34116 8.3845558e-17 -8.2931597)
(207.87801 7.8437349e-17 -7.592394)
(207.42698 -7.2889972e-17 -6.9057047)
(206.98505 2.7138961e-16 -6.2328095)
(206.54926 -2.5242147e-16 -5.5732153)
(206.11669 -1.1744832e-16 -4.9262622)
(205.68446 -1.0915602e-16 -4.2911913)
(205.24968 1.0140194e-16 -3.6672443)
(204.80944 1.8812025e-16 -3.0538223)
(204.36095 -3.4920369e-16 -2.4507197)
(203.90187 4.0490509e-16 -1.8584573)
(203.43091 -1.5009374e-16 -1.2787382)
(202.94882 1.3926638e-16 -0.71498987)
(202.45967 -1.2893526e-16 -0.17278751)
(201.97265 2.3890151e-16 0.33969065)
(201.50421 -3.3184265e-16 0.81081033)
(201.08021 2.0473558e-16 1.2246983)
(200.73792 -8.8334321e-20 1.5621355)
(200.52517 8.7484271e-17 1.8033273)
(200.49545 0 1.9308885)
(200.70137 0 1.9269313)
(201.17746 0 1.7852856)
(201.87108 -1.2649608e-16 1.548807)
(202.62233 -1.4554863e-20 1.3086315)
(203.20958 0 1.13526)
(203.43896 0 1.105129)
(203.30694 9.1111711e-17 1.3455753)
(202.82866 -1.6812731e-16 1.7101739)
(201.66034 0 1.5934108)
(200.86116 0 1.7944275)
(202.71607 -1.3306259e-16 7.3102473)
(222.49743 2.7401423e-17 -43.279219)
(262.72119 -7.7546281e-16 -20.836145)
(243.11937 3.4345812e-16 -42.552577)
(253.61874 -2.1464116e-17 -23.670408)
(246.04526 3.6857038e-16 -39.324842)
(249.30118 -3.4753095e-16 -27.275155)
(246.20111 0 -35.797659)
(246.52821 -3.1310329e-16 -30.398156)
(245.08428 2.3018209e-16 -33.34649)
(244.37478 2.1865217e-16 -31.934383)
(243.33439 -2.3601819e-16 -32.391846)
(242.35425 0 -32.15908)
(241.31331 2.0621187e-19 -32.095648)
(240.24482 0 -31.961794)
(239.14281 3.8034423e-16 -31.8102)
(238.01068 -7.1853923e-16 -31.627361)
(236.85038 3.3924391e-16 -31.413242)
(235.66468 -4.0073667e-17 -31.165203)
(234.45675 -3.8098334e-17 -30.88128)
(233.23022 3.6228364e-17 -30.559583)
(231.98918 -6.7608493e-17 -30.198473)
(230.73809 -3.2038342e-16 -29.796612)
(229.48181 3.0154892e-16 -29.353016)
(228.22545 5.6847699e-17 -28.867129)
(226.97435 -2.6952353e-16 -28.338839)
(225.73394 -7.1337343e-19 -27.768551)
(224.50968 2.8630014e-16 -27.157178)
(223.30691 -1.7972583e-16 -26.506165)
(222.13076 -6.420736e-19 -25.81747)
(220.98602 0 -25.093546)
(219.87707 0 -24.337289)
(218.80774 -7.0789374e-17 -23.551988)
(217.78124 1.3252345e-16 -22.741253)
(216.8001 0 -21.908931)
(215.86614 -1.1720015e-16 -21.059022)
(214.98042 2.193037e-16 -20.195589)
(214.14329 -1.0277352e-16 -19.322663)
(213.35439 -1.9262048e-16 -18.44417)
(212.61272 8.9505297e-17 -17.56385)
(211.9167 1.6802708e-16 -16.685198)
(211.26426 0 -15.811413)
(210.65295 2.216787e-16 -14.945367)
(210.07997 -2.7550978e-16 -14.089572)
(209.5423 0 -13.246173)
(209.03674 0 -12.416939)