/*--------------------------------*- C++ -*----------------------------------*\
  =========                 |
  \\      /  F ield         | OpenFOAM: The Open Source CFD Toolbox
   \\    /   O peration     | Website:  https://openfoam.org
    \\  /    A nd           | Version:  12
     \\/     M anipulation  |
\*---------------------------------------------------------------------------*/
FoamFile
{
    format      ascii;
    class       volScalarField;
    location    "0.039";
    object      alphat;
}
// * * * * * * * * * * * * * * * * * * * * * * * * * * * * * * * * * * * * * //

dimensions      [1 -1 -1 0 0 0 0];

internalField   nonuniform List<scalar> 
16000
(
5.0708582e-07
1.0756446e-05
1.9764612e-05
2.6006407e-05
2.0006872e-05
2.7107164e-05
1.9491864e-05
2.633165e-05
2.1038544e-05
2.8333715e-05
2.4422443e-05
2.8154862e-05
2.5958946e-05
2.6489178e-05
2.5686798e-05
2.5529957e-05
2.5296037e-05
2.5242579e-05
2.5279554e-05
2.5423416e-05
2.5667608e-05
2.6010886e-05
2.6450459e-05
2.6986285e-05
2.7620591e-05
2.8359775e-05
2.9212493e-05
3.0192608e-05
3.1316831e-05
3.2602979e-05
3.4070741e-05
3.5746458e-05
3.766409e-05
3.9865344e-05
4.2401247e-05
4.5332274e-05
4.8729902e-05
5.267888e-05
5.7283714e-05
6.2672929e-05
6.8995635e-05
7.6426326e-05
8.5184262e-05
9.5535442e-05
0.00010779268
0.00012232814
0.00013960017
0.0001601619
0.00018468067
0.00021396299
0.00024898741
0.00029094188
0.00034126259
0.00040169122
0.00047434188
0.00056179301
0.00066721299
0.00079438386
0.00094805218
0.0011342238
0.0011827737
0.0011832078
0.0011834144
0.0011832611
0.0011828031
0.0011821371
0.001181382
0.0011806127
0.001179847
0.0011791235
0.0011786242
0.0011787015
0.0011796855
0.001181623
0.0011844819
0.0011873509
0.0011883576
0.0011869424
0.0011784099
0.0011702912
4.5608514e-07
1.0201418e-05
2.1271549e-05
2.3250343e-05
1.8014648e-05
2.4346113e-05
1.7267804e-05
2.3126898e-05
1.8506994e-05
2.5041762e-05
2.2004659e-05
2.5347983e-05
2.3652372e-05
2.3947877e-05
2.3317279e-05
2.3115861e-05
2.2920539e-05
2.2862314e-05
2.2897964e-05
2.3029058e-05
2.3253539e-05
2.3570214e-05
2.3976688e-05
2.4473238e-05
2.506145e-05
2.5747334e-05
2.6538331e-05
2.7446922e-05
2.8488954e-05
2.9681798e-05
3.1043702e-05
3.2598661e-05
3.4378042e-05
3.6420428e-05
3.8773559e-05
4.1494367e-05
4.4650638e-05
4.8322117e-05
5.2606369e-05
5.762569e-05
6.3524234e-05
7.0467013e-05
7.8661785e-05
8.8364419e-05
9.9878266e-05
0.00011356042
0.00012985294
0.00014929192
0.0001725262
0.00020034115
0.00023369091
0.00027373813
0.00032189052
0.00037985785
0.00044971748
0.00053400575
0.00063582101
0.00075894402
0.00090805244
0.0010889761
0.0011821491
0.0011825263
0.0011826818
0.0011824981
0.0011820391
0.0011814003
0.0011806825
0.0011799357
0.0011791602
0.001178394
0.0011778413
0.0011779035
0.0011789379
0.0011809821
0.001183867
0.0011872239
0.0011882353
0.0011872528
0.0011779887
0.0011696125
4.1247496e-07
9.8013701e-06
2.0092656e-05
2.1257773e-05
1.6126194e-05
2.1442292e-05
1.5345074e-05
2.0092779e-05
1.6616577e-05
2.1962069e-05
2.0010568e-05
2.2542253e-05
2.1363515e-05
2.1408629e-05
2.0923445e-05
2.0706377e-05
2.0543689e-05
2.0491927e-05
2.0530076e-05
2.0654597e-05
2.086437e-05
2.1158882e-05
2.153592e-05
2.1996276e-05
2.2541093e-05
2.3176233e-05
2.3908359e-05
2.4748809e-05
2.5712438e-05
2.6816284e-05
2.8077734e-05
2.9519039e-05
3.1169558e-05
3.3065336e-05
3.5251392e-05
3.7781633e-05
4.0720903e-05
4.4145483e-05
4.8147547e-05
5.2843592e-05
5.8374626e-05
6.4899487e-05
7.2617175e-05
8.1775343e-05
9.2672113e-05
0.00010565503
0.00012115563
0.00013969977
0.00016192613
0.00018860965
0.00022069238
0.00025932637
0.00030590907
0.00036214193
0.00043009398
0.00051229311
0.00061183643
0.00073252457
0.00087903961
0.0010572056
0.0011815785
0.0011818918
0.001181981
0.0011817549
0.0011812831
0.0011806564
0.0011799577
0.0011792163
0.0011784208
0.0011776135
0.0011770268
0.0011771158
0.0011782577
0.0011804229
0.0011834119
0.0011868828
0.0011883151
0.0011872261
0.0011777991
0.0011693334
3.6771427e-07
9.47191e-06
1.9056883e-05
2.0039935e-05
1.449917e-05
1.8930144e-05
1.3647943e-05
1.7556408e-05
1.4931387e-05
1.9356434e-05
1.8212673e-05
2.0070063e-05
1.9266825e-05
1.9135911e-05
1.8758911e-05
1.8546442e-05
1.8412681e-05
1.8372356e-05
1.8415873e-05
1.8537532e-05
1.873653e-05
1.9012981e-05
1.9365037e-05
1.9794041e-05
2.0300878e-05
2.0891401e-05
2.1571795e-05
2.2352499e-05
2.3247432e-05
2.4273389e-05
2.5447239e-05
2.678979e-05
2.8328819e-05
3.0098249e-05
3.2140866e-05
3.4508048e-05
3.7262202e-05
4.0477109e-05
4.4240882e-05
4.8664668e-05
5.3887547e-05
6.0064282e-05
6.7387384e-05
7.6097547e-05
8.6490628e-05
9.8908278e-05
0.00011377528
0.00013161175
0.00015305138
0.00017886569
0.00020999208
0.00024758131
0.00029303132
0.00034804875
0.0004147119
0.00049556243
0.00059372086
0.00071303041
0.00085823387
0.0010352246
0.0011811253
0.0011813735
0.001181395
0.0011811266
0.0011806373
0.001180009
0.0011793077
0.0011785485
0.001177715
0.001176859
0.0011762497
0.0011763929
0.0011776602
0.0011799396
0.0011830028
0.001186368
0.0011879816
0.0011867704
0.0011777609
0.0011691237
3.2763312e-07
9.2356752e-06
1.8198471e-05
1.9958103e-05
1.4793347e-05
1.6743769e-05
1.2167529e-05
1.5376839e-05
1.3488851e-05
1.7118545e-05
1.66261e-05
1.7854216e-05
1.7332162e-05
1.7084208e-05
1.6787394e-05
1.6591974e-05
1.6481891e-05
1.6452996e-05
1.6500576e-05
1.6618714e-05
1.680681e-05
1.7065606e-05
1.739375e-05
1.7793162e-05
1.8264651e-05
1.8814121e-05
1.9447439e-05
2.0174348e-05
2.1007829e-05
2.1964395e-05
2.306063e-05
2.4316182e-05
2.5757566e-05
2.7416925e-05
2.9335195e-05
3.1561624e-05
3.4156525e-05
3.7191847e-05
4.0752949e-05
4.4945925e-05
4.9908573e-05
5.5793293e-05
6.278822e-05
7.1127725e-05
8.1107443e-05
9.30661e-05
0.00010742462
0.00012470072
0.00014552688
0.00017067678
0.00020108924
0.00023792181
0.00028258266
0.00033679613
0.000402667
0.00048277405
0.00058029024
0.00069913594
0.00084417142
0.0010214497
0.0011807909
0.0011809703
0.0011809212
0.0011806053
0.0011800892
0.0011794443
0.0011787215
0.0011779265
0.0011770416
0.0011761342
0.0011755201
0.0011757522
0.0011771582
0.0011795492
0.0011826593
0.001185784
0.0011870405
0.0011855651
0.00117785
0.0011690585
3.0029421e-07
9.087481e-06
1.7512266e-05
1.9518907e-05
1.4356607e-05
1.4838008e-05
1.1800917e-05
1.3575661e-05
1.304964e-05
1.5269552e-05
1.524834e-05
1.5918396e-05
1.5580044e-05
1.5264726e-05
1.5017557e-05
1.4839936e-05
1.4745041e-05
1.4723199e-05
1.4771444e-05
1.4884139e-05
1.5060788e-05
1.5302615e-05
1.5608607e-05
1.5981058e-05
1.6420937e-05
1.6934065e-05
1.7526093e-05
1.8206233e-05
1.8986554e-05
1.9883243e-05
2.0912804e-05
2.209398e-05
2.3452333e-05
2.5018573e-05
2.6832185e-05
2.894072e-05
3.1402801e-05
3.428908e-05
3.7683535e-05
4.1687997e-05
4.6439196e-05
5.2088819e-05
5.8823215e-05
6.6871198e-05
7.653014e-05
8.8139044e-05
0.00010211805
0.00011898635
0.00013937913
0.00016407848
0.00019403133
0.00023041103
0.00027464716
0.00032849584
0.00039410681
0.00047412
0.00057179141
0.00069115657
0.00083724505
0.0010163506
0.0011805859
0.0011806934
0.0011805717
0.0011802034
0.0011796506
0.0011789751
0.0011782149
0.0011773687
0.0011764208
0.0011754601
0.0011748559
0.0011752103
0.0011767471
0.0011792452
0.0011823947
0.0011852482
0.001185889
0.0011838719
0.0011780402
0.0011690474
2.7475538e-07
8.9993522e-06
1.69701e-05
1.8350022e-05
1.4226295e-05
1.3107824e-05
1.1697643e-05
1.2573012e-05
1.1992389e-05
1.3595341e-05
1.400641e-05
1.4208126e-05
1.3960311e-05
1.3620049e-05
1.3401486e-05
1.3241869e-05
1.3158945e-05
1.3143437e-05
1.3192625e-05
1.3301322e-05
1.3468851e-05
1.3696829e-05
1.3984523e-05
1.4250594e-05
1.4653676e-05
1.5127115e-05
1.5675963e-05
1.6308705e-05
1.7036289e-05
1.7874213e-05
1.8838864e-05
1.9948118e-05
2.1226673e-05
2.2703871e-05
2.4417863e-05
2.6414665e-05
2.8751308e-05
3.1497139e-05
3.4735588e-05
3.8856131e-05
4.3441195e-05
4.8908285e-05
5.5444621e-05
6.327455e-05
7.2698181e-05
8.4057949e-05
9.7776236e-05
0.00011437725
0.00013450239
0.00015894827
0.00018867636
0.00022488467
0.00026903547
0.00032293119
0.0003887858
0.00046932581
0.00056792413
0.00068877455
0.00083713144
0.0010196151
0.0011805161
0.0011805487
0.0011803533
0.0011799276
0.0011793285
0.00117861
0.0011777993
0.0011768892
0.0011758684
0.0011748522
0.0011742679
0.0011747688
0.0011764018
0.0011790123
0.0011822248
0.0011847692
0.0011848306
0.0011827861
0.0011782388
0.0011690736
2.472182e-07
8.9454162e-06
1.6496606e-05
1.663961e-05
1.2690411e-05
1.1410015e-05
9.8475907e-06
1.1001837e-05
1.0380668e-05
1.2249774e-05
1.2764499e-05
1.2636998e-05
1.2422509e-05
1.2097477e-05
1.1903639e-05
1.1766607e-05
1.1698695e-05
1.1692802e-05
1.1675883e-05
1.1766869e-05
1.191673e-05
1.2125563e-05
1.2392246e-05
1.2715973e-05
1.3102079e-05
1.3554112e-05
1.4077245e-05
1.4679945e-05
1.5372616e-05
1.6170389e-05
1.7089996e-05
1.8148904e-05
1.9371482e-05
2.0786272e-05
2.2430746e-05
2.4350074e-05
2.6600502e-05
2.9250795e-05
3.2384779e-05
3.6104471e-05
4.0534163e-05
4.5831232e-05
5.2185777e-05
6.0323355e-05
6.9597216e-05
8.0808733e-05
9.4385984e-05
0.00011086174
0.00013088731
0.00015528051
0.00018502433
0.00022135105
0.00026576804
0.00032013993
0.00038676605
0.00046848741
0.00056883161
0.00069220076
0.00084413606
0.0010316751
0.0011805856
0.0011805404
0.0011802715
0.0011797852
0.0011791318
0.00117836
0.0011774885
0.0011765042
0.0011754014
0.0011743276
0.0011737781
0.001174402
0.0011760835
0.0011788303
0.0011821701
0.0011843861
0.0011839188
0.0011817557
0.0011784122
0.0011691361
2.255595e-07
8.8950957e-06
1.5982598e-05
1.4591294e-05
1.0440474e-05
1.0145441e-05
8.1355062e-06
9.5391089e-06
9.7438379e-06
1.0977404e-05
1.1520421e-05
1.1181163e-05
1.0980779e-05
1.0693415e-05
1.0525213e-05
1.0340818e-05
1.0263049e-05
1.0252342e-05
1.0300511e-05
1.0404422e-05
1.0560683e-05
1.0769436e-05
1.1031429e-05
1.1346493e-05
1.1719322e-05
1.2154497e-05
1.2657336e-05
1.3236388e-05
1.3901702e-05
1.4668005e-05
1.5552477e-05
1.657242e-05
1.7752183e-05
1.9119802e-05
2.0712428e-05
2.2574848e-05
2.4763011e-05
2.7345635e-05
3.0406705e-05
3.4048462e-05
3.8397085e-05
4.3609644e-05
4.9882072e-05
5.7441982e-05
6.6581519e-05
7.7664469e-05
9.1932851e-05
0.00010842591
0.00012852123
0.00015306454
0.00018306806
0.00021980838
0.00026485122
0.00032014044
0.00038808362
0.0004716668
0.00057461411
0.0007015942
0.00085850866
0.0010529108
0.0011807962
0.0011806706
0.00118033
0.0011797823
0.0011790693
0.0011782354
0.0011772945
0.0011762278
0.0011750366
0.0011739085
0.0011734576
0.0011740784
0.0011757617
0.0011786723
0.0011821665
0.0011841169
0.0011831734
0.0011807392
0.0011784142
0.0011692158
2.0777752e-07
8.844988e-06
1.4357376e-05
1.2767026e-05
8.4364828e-06
9.0303693e-06
7.2850303e-06
8.5842339e-06
9.047116e-06
9.8262473e-06
1.0297529e-05
9.8570526e-06
9.6604352e-06
9.3247828e-06
9.1465403e-06
9.0377648e-06
8.9952295e-06
9.0103169e-06
9.0770864e-06
9.1921631e-06
9.3548861e-06
9.5650178e-06
9.8242212e-06
1.0132902e-05
1.0496116e-05
1.0918911e-05
1.1406801e-05
1.1968557e-05
1.2614021e-05
1.3357535e-05
1.4216779e-05
1.5209224e-05
1.6359439e-05
1.7695246e-05
1.9253817e-05
2.1079983e-05
2.3229855e-05
2.5772659e-05
2.8793537e-05
3.2396258e-05
3.6708513e-05
4.1888813e-05
4.8139261e-05
5.5690905e-05
6.4843088e-05
7.5968182e-05
8.9526394e-05
0.00010606018
0.00012741366
0.00015231682
0.00018283369
0.00022029539
0.00026634022
0.00032300959
0.00039284415
0.00047900818
0.00058546774
0.00071722425
0.00088062816
0.001083857
0.001181146
0.001180939
0.0011805301
0.0011799231
0.0011791477
0.0011782441
0.0011772253
0.0011760703
0.0011747936
0.0011736569
0.0011733141
0.0011738543
0.0011754261
0.0011785053
0.0011820892
0.0011838855
0.0011827096
0.001179996
0.001177736
0.0011692257
1.9139478e-07
8.7944938e-06
1.1394829e-05
1.0548597e-05
6.9538756e-06
8.0397921e-06
6.6465151e-06
7.7165078e-06
8.4488804e-06
8.7763653e-06
9.1086678e-06
8.5642668e-06
8.315639e-06
8.0853322e-06
7.9560455e-06
7.887614e-06
7.8752562e-06
7.9119186e-06
7.9951866e-06
8.1217857e-06
8.2901254e-06
8.5025764e-06
8.7611204e-06
9.0665509e-06
9.4240358e-06
9.8391296e-06
1.0317673e-05
1.0868719e-05
1.1502115e-05
1.2231892e-05
1.300968e-05
1.3975106e-05
1.5096903e-05
1.6402643e-05
1.7929498e-05
1.972236e-05
2.1837555e-05
2.4344843e-05
2.7330611e-05
3.0900426e-05
3.5184589e-05
4.0660953e-05
4.6951442e-05
5.4569641e-05
6.382215e-05
7.509123e-05
8.8858282e-05
0.00010568954
0.00012630243
0.00015159599
0.00018435123
0.00022285525
0.0002702947
0.00032882757
0.0004011539
0.00049065191
0.00060157707
0.00073933451
0.00091082739
0.0011249812
0.0011816284
0.0011813412
0.001180869
0.0011802074
0.0011793702
0.0011783903
0.0011772849
0.0011760397
0.0011746993
0.0011736825
0.0011733041
0.0011737529
0.0011751338
0.0011783111
0.0011818844
0.0011836169
0.0011825025
0.0011795824
0.0011765422
0.0011690837
1.771033e-07
8.7472143e-06
9.007387e-06
9.0332951e-06
6.1481024e-06
7.1245201e-06
6.1040497e-06
6.958991e-06
7.8550364e-06
7.8027226e-06
7.8263415e-06
7.3676599e-06
7.165346e-06
6.9987275e-06
6.9111602e-06
6.8757034e-06
6.8897977e-06
6.9469326e-06
7.0437919e-06
7.1807898e-06
7.3565522e-06
7.5731871e-06
7.8336618e-06
8.1393123e-06
8.4954211e-06
8.870175e-06
9.3373961e-06
9.8766376e-06
1.0497653e-05
1.1214057e-05
1.204228e-05
1.3003681e-05
1.4122414e-05
1.5426325e-05
1.6953205e-05
1.8748759e-05
2.0870458e-05
2.3389583e-05
2.6395039e-05
2.9995657e-05
3.4326198e-05
3.9555565e-05
4.5891494e-05
5.3584462e-05
6.2950524e-05
7.5030839e-05
8.913458e-05
0.00010641456
0.00012761639
0.00015368794
0.00018579873
0.0002275298
0.00027677205
0.00033766986
0.00041310932
0.00050671976
0.00062309391
0.00076811
0.0009493358
0.0011765887
0.0011822306
0.0011818676
0.0011813384
0.0011806291
0.0011797353
0.001178676
0.0011774777
0.0011761505
0.0011748889
0.0011739446
0.0011734749
0.0011737305
0.0011750031
0.0011780937
0.0011815184
0.0011832542
0.0011822788
0.0011792841
0.0011753167
0.0011687577
1.6439887e-07
8.6920028e-06
7.1824194e-06
7.9304735e-06
5.4840685e-06
6.3130113e-06
5.6405622e-06
6.2901305e-06
7.1493081e-06
6.69793e-06
6.6717312e-06
6.3217628e-06
6.162649e-06
6.047453e-06
5.9958523e-06
5.990428e-06
6.0263446e-06
6.1015217e-06
6.212943e-06
6.3611887e-06
6.5457824e-06
6.7690694e-06
7.0052838e-06
7.3083882e-06
7.6616925e-06
8.0701425e-06
8.5419166e-06
9.0858117e-06
9.7118784e-06
1.0434039e-05
1.1268989e-05
1.2237975e-05
1.3366725e-05
1.4683692e-05
1.6227572e-05
1.8045296e-05
2.0196083e-05
2.2753303e-05
2.5809178e-05
2.9476969e-05
3.3896103e-05
3.9241018e-05
4.5732333e-05
5.3629925e-05
6.326391e-05
7.5047622e-05
8.9498231e-05
0.00010724697
0.00013021505
0.00015729095
0.00019069915
0.00023198936
0.00028580524
0.00034957947
0.0004287611
0.0005272673
0.00065007389
0.00080359099
0.00099615117
0.0011832477
0.0011829324
0.001182503
0.0011819242
0.0011811754
0.0011802357
0.0011791018
0.0011778144
0.0011764488
0.001175342
0.0011744078
0.0011738208
0.0011739312
0.0011751253
0.0011778587
0.001180979
0.0011825623
0.0011816187
0.0011788209
0.0011742904
0.0011682664
1.5313567e-07
8.6249835e-06
5.7709552e-06
6.937728e-06
4.8919993e-06
5.5893044e-06
5.247567e-06
5.6088139e-06
6.2675069e-06
5.7398717e-06
5.6601748e-06
5.4073465e-06
5.2891791e-06
5.2168932e-06
5.1970811e-06
5.2178769e-06
5.2755176e-06
5.3684778e-06
5.4947225e-06
5.6347016e-06
5.8236016e-06
6.0511641e-06
6.3201316e-06
6.6340515e-06
6.997948e-06
7.4172146e-06
7.8999897e-06
8.4558256e-06
9.0950838e-06
9.8319511e-06
1.0683366e-05
1.1670965e-05
1.276366e-05
1.4094488e-05
1.5656029e-05
1.7496405e-05
1.9676806e-05
2.2272746e-05
2.5379801e-05
2.9116232e-05
3.3627293e-05
3.9390479e-05
4.6097538e-05
5.4273052e-05
6.4262516e-05
7.6496736e-05
9.1524908e-05
0.00011001622
0.00013279986
0.000162394
0.00019737708
0.00024068474
0.00029438109
0.0003645397
0.00044807942
0.0005522365
0.00068241099
0.00084558451
0.0010509115
0.0011840795
0.001183708
0.0011832265
0.0011826081
0.0011818274
0.0011808557
0.0011796652
0.0011782968
0.0011770599
0.001176002
0.0011750562
0.0011743855
0.0011743701
0.0011753695
0.0011776519
0.0011803008
0.0011815907
0.0011806543
0.0011781042
0.0011735709
0.0011676614
1.4317491e-07
8.5067481e-06
4.6939904e-06
6.0535515e-06
4.3651075e-06
4.9462735e-06
4.9061266e-06
4.8688396e-06
5.3803743e-06
4.8858714e-06
4.7840601e-06
4.6110033e-06
4.5320592e-06
4.4969556e-06
4.5062682e-06
4.5516598e-06
4.6300232e-06
4.7223985e-06
4.8582119e-06
5.0284291e-06
5.2342145e-06
5.4774884e-06
5.7617664e-06
6.0908389e-06
6.4703863e-06
6.9061218e-06
7.406301e-06
7.957383e-06
8.6107543e-06
9.3630086e-06
1.0231231e-05
1.1237204e-05
1.2407625e-05
1.3776099e-05
1.5382863e-05
1.7277909e-05
1.9525569e-05
2.2204693e-05
2.5415312e-05
2.9282514e-05
3.3959364e-05
3.9639631e-05
4.6559367e-05
5.5011502e-05
6.5359916e-05
7.8711319e-05
9.4443049e-05
0.00011382584
0.00013774215
0.00016729574
0.00020578351
0.00025143194
0.00030811181
0.00037860376
0.00047090925
0.00058139696
0.00071975547
0.0008935531
0.0011127613
0.0011849485
0.0011845293
0.0011840131
0.001183369
0.0011825641
0.0011815702
0.0011803604
0.0011789705
0.0011778685
0.0011768246
0.0011758263
0.0011750488
0.0011748609
0.0011755316
0.0011774157
0.0011795467
0.0011805194
0.0011796253
0.0011772744
0.0011727447
0.001166989
1.3441916e-07
8.1885127e-06
3.9541895e-06
5.2695513e-06
3.8969224e-06
4.3772796e-06
4.3665027e-06
4.2004318e-06
4.5266919e-06
4.1308998e-06
4.0336971e-06
3.9242347e-06
3.8823301e-06
3.8802011e-06
3.9163471e-06
3.9706065e-06
4.0623731e-06
4.1872129e-06
4.3444519e-06
4.5345742e-06
4.7594396e-06
5.0215484e-06
5.3248973e-06
5.6736091e-06
6.0603214e-06
6.5135792e-06
7.0320865e-06
7.6254583e-06
8.3057808e-06
9.0874842e-06
9.9881826e-06
1.1030648e-05
1.2242809e-05
1.3659733e-05
1.5324627e-05
1.7289619e-05
1.9622851e-05
2.240737e-05
2.5747985e-05
2.9778021e-05
3.4657813e-05
4.0592351e-05
4.7834818e-05
5.6693873e-05
6.7557157e-05
8.0905062e-05
9.8199147e-05
0.0001186185
0.00014383644
0.00017503749
0.00021367693
0.00026409753
0.0003241079
0.00039882251
0.00049201415
0.00061428314
0.00076143038
0.00094649927
0.0011801967
0.0011858242
0.0011853665
0.0011848324
0.0011841817
0.0011833672
0.0011823537
0.0011811404
0.0011798583
0.0011788068
0.0011777438
0.0011766601
0.0011757409
0.0011753655
0.0011757609
0.0011771193
0.0011787342
0.0011794329
0.001178683
0.0011765448
0.0011718748
0.0011663267
1.2694383e-07
7.7618731e-06
3.4844306e-06
4.5741654e-06
3.4817932e-06
3.7111066e-06
3.8914135e-06
3.5889178e-06
3.7550602e-06
3.4751712e-06
3.3992159e-06
3.3400653e-06
3.3320525e-06
3.3595892e-06
3.4039433e-06
3.4898985e-06
3.6076729e-06
3.7561477e-06
3.9356424e-06
4.1474426e-06
4.3940123e-06
4.6781649e-06
4.9949509e-06
5.3642354e-06
5.7853536e-06
6.2650625e-06
6.8114918e-06
7.4346274e-06
8.1468496e-06
8.9635483e-06
9.9029762e-06
1.0988976e-05
1.2250873e-05
1.3725654e-05
1.539357e-05
1.7424869e-05
1.983934e-05
2.2724804e-05
2.6348276e-05
3.0570593e-05
3.56897e-05
4.1921676e-05
4.9538043e-05
5.8866145e-05
7.0316166e-05
8.4400765e-05
0.00010175606
0.00012317268
0.00015097181
0.00018399694
0.00022492375
0.00027571928
0.00034207139
0.00042132073
0.00052020362
0.00065014155
0.00080636829
0.0010028863
0.0011871678
0.0011866778
0.0011861891
0.00118565
0.001185012
0.001184214
0.0011832018
0.0011819842
0.0011808379
0.0011798044
0.0011786972
0.0011775066
0.0011764232
0.0011758272
0.0011759306
0.0011768248
0.0011779445
0.0011784127
0.0011777833
0.0011757339
0.001171078
0.0011657548
1.2104508e-07
6.827128e-06
3.0843645e-06
3.9430804e-06
3.1244539e-06
3.0964627e-06
3.4190549e-06
3.0356366e-06
3.0927317e-06
2.9151433e-06
2.8683267e-06
2.850122e-06
2.8646092e-06
2.9114066e-06
2.9938314e-06
3.1075553e-06
3.2506781e-06
3.4231935e-06
3.6262437e-06
3.861595e-06
4.1262948e-06
4.433009e-06
4.7820605e-06
5.178275e-06
5.6274177e-06
6.1364833e-06
6.7139863e-06
7.3703262e-06
8.1183139e-06
8.9546055e-06
9.93106e-06
1.1058101e-05
1.2366369e-05
1.3894341e-05
1.5690259e-05
1.7814607e-05
2.0342428e-05
2.3367985e-05
2.7008731e-05
3.1410492e-05
3.67553e-05
4.3579785e-05
5.1614012e-05
6.1465115e-05
7.3566416e-05
8.8461446e-05
0.00010682601
0.00012950212
0.00015898471
0.00019397095
0.00023734027
0.0002911706
0.0003615608
0.0004455188
0.00055024162
0.00068112996
0.00085311054
0.0010606629
0.0011880018
0.0011874802
0.0011869677
0.0011864302
0.0011858166
0.0011850595
0.0011840914
0.0011829101
0.0011818256
0.0011807915
0.0011796343
0.0011783414
0.0011770888
0.0011762439
0.0011760738
0.0011765471
0.001177182
0.0011774248
0.0011768343
0.001174861
0.0011702329
0.0011653105
1.1631467e-07
4.7739349e-06
2.7241807e-06
3.3575458e-06
2.6717767e-06
2.5823499e-06
2.921605e-06
2.543071e-06
2.5415902e-06
2.4436383e-06
2.4296699e-06
2.4391351e-06
2.4844638e-06
2.565122e-06
2.676792e-06
2.8170345e-06
2.9852686e-06
3.1822262e-06
3.4065025e-06
3.6651114e-06
3.9593622e-06
4.2926585e-06
4.6691304e-06
5.0937935e-06
5.5726975e-06
6.1131405e-06
6.7239938e-06
7.405152e-06
8.1875764e-06
9.0802954e-06
1.0103992e-05
1.1284413e-05
1.2654067e-05
1.4253869e-05
1.6135235e-05
1.8362427e-05
2.101558e-05
2.4194754e-05
2.8024937e-05
3.2661932e-05
3.8299807e-05
4.51793e-05
5.3998213e-05
6.441358e-05
7.721528e-05
9.2978179e-05
0.00011241709
0.0001364234
0.00016610982
0.00020468625
0.00025058133
0.0003075249
0.00037827106
0.0004706584
0.00058113125
0.00071898297
0.00089989234
0.0011174599
0.0011887612
0.0011882086
0.0011876755
0.0011871403
0.0011865543
0.0011858467
0.0011849396
0.0011838154
0.0011827567
0.0011817113
0.0011805167
0.0011791574
0.0011777721
0.0011766772
0.0011761999
0.0011762552
0.0011764418
0.0011764739
0.0011758883
0.0011738704
0.0011693086
0.0011650077
1.1132217e-07
3.9629583e-06
2.3466364e-06
2.8185733e-06
2.3039444e-06
2.1533914e-06
2.4066568e-06
2.1105929e-06
2.0936087e-06
2.0565022e-06
2.0713176e-06
2.1151568e-06
2.1960738e-06
2.3071169e-06
2.4457656e-06
2.6111607e-06
2.8037029e-06
3.0225423e-06
3.2732479e-06
3.5572158e-06
3.8774668e-06
4.2376527e-06
4.6421373e-06
5.0961339e-06
5.6059086e-06
6.1790366e-06
6.8173216e-06
7.5436541e-06
8.366993e-06
9.3046747e-06
1.0378544e-05
1.1615925e-05
1.3051255e-05
1.4727912e-05
1.670061e-05
1.9038027e-05
2.182569e-05
2.5169966e-05
2.9203634e-05
3.4091537e-05
4.0039256e-05
4.7644038e-05
5.6613271e-05
6.761867e-05
8.1149951e-05
9.7812568e-05
0.00011835892
0.00014372578
0.00017670219
0.00021580408
0.00026421861
0.00032423445
0.00039870892
0.00049583706
0.0006117204
0.00075596634
0.00094478642
0.0011708268
0.00118943
0.0011888451
0.0011882902
0.0011877526
0.0011871898
0.0011865332
0.0011856969
0.0011846408
0.001183583
0.0011825241
0.0011813129
0.0011799353
0.0011784845
0.0011771785
0.0011763865
0.0011759556
0.0011758007
0.0011756031
0.0011748082
0.0011726206
0.0011684992
0.0011648946
1.0792886e-07
3.1897089e-06
2.0223393e-06
2.2764157e-06
2.0015236e-06
1.7860815e-06
1.9279689e-06
1.7436396e-06
1.7417731e-06
1.7533747e-06
1.7981002e-06
1.8794384e-06
1.9908728e-06
2.1285194e-06
2.2914366e-06
2.4799599e-06
2.6941059e-06
2.9375506e-06
3.2121898e-06
3.5207915e-06
3.8666605e-06
4.2536602e-06
4.6863204e-06
5.1700061e-06
5.7111576e-06
6.3133858e-06
6.992504e-06
7.757538e-06
8.6229707e-06
9.6070068e-06
1.0732787e-05
1.2029284e-05
1.353303e-05
1.5289984e-05
1.7358053e-05
1.981021e-05
2.2737905e-05
2.6253784e-05
3.0498945e-05
3.5647784e-05
4.2192515e-05
4.9913535e-05
5.936797e-05
7.0971766e-05
8.5237968e-05
0.00010280254
0.00012445323
0.00015116938
0.00018582719
0.00022692618
0.00027775968
0.00034068575
0.00041863901
0.00052005499
0.00064076465
0.00079054254
0.00098588688
0.0011906955
0.0011899984
0.0011893789
0.0011887989
0.0011882499
0.0011876982
0.0011870836
0.0011863199
0.0011853421
0.001184278
0.0011832081
0.0011819977
0.0011806308
0.0011791769
0.0011777849
0.0011766135
0.0011758171
0.0011753132
0.0011748483
0.0011738922
0.0011717487
0.001168104
0.0011650758
1.0643474e-07
2.5115025e-06
1.7419046e-06
1.7559854e-06
1.7232702e-06
1.472133e-06
1.5370471e-06
1.4510976e-06
1.4796409e-06
1.526255e-06
1.6091762e-06
1.7206222e-06
1.8572115e-06
2.0174527e-06
2.201697e-06
2.4111643e-06
2.6468957e-06
2.9124091e-06
3.2098888e-06
3.5423632e-06
3.9133095e-06
4.3267359e-06
4.7872999e-06
5.3004917e-06
5.8728873e-06
6.5124949e-06
7.2292035e-06
8.0353272e-06
8.9361981e-06
9.9669643e-06
1.1145155e-05
1.2501466e-05
1.4074645e-05
1.5913414e-05
1.8078867e-05
2.0731168e-05
2.3823477e-05
2.753999e-05
3.2030631e-05
3.7480902e-05
4.4120027e-05
5.2230875e-05
6.2164116e-05
7.4353059e-05
8.933357e-05
0.00010776904
0.00013047973
0.00015986561
0.00019466938
0.00023762491
0.00029067634
0.00035622945
0.00044139807
0.00054231365
0.00066706119
0.00082128415
0.0010215025
0.0011911875
0.0011904605
0.0011898065
0.0011891982
0.0011886284
0.0011880714
0.0011874796
0.001186778
0.0011858868
0.0011848312
0.0011837547
0.0011825591
0.0011812113
0.001179756
0.0011783013
0.0011769875
0.0011759054
0.0011751204
0.00117443
0.0011733956
0.0011714199
0.0011683253
0.001165669
1.0790022e-07
1.9313817e-06
1.5080085e-06
1.3572646e-06
1.439429e-06
1.2090494e-06
1.2508639e-06
1.2366325e-06
1.2975522e-06
1.3783114e-06
1.4894224e-06
1.624061e-06
1.7810039e-06
1.9604305e-06
2.1636015e-06
2.3922976e-06
2.6483362e-06
2.9347654e-06
3.2541728e-06
3.6097211e-06
4.0049923e-06
4.4440916e-06
4.9317829e-06
5.473681e-06
6.0765192e-06
6.7485102e-06
7.4998304e-06
8.3432263e-06
9.2947709e-06
1.0374821e-05
1.1609146e-05
1.3030428e-05
1.4679901e-05
1.6609481e-05
1.8884243e-05
2.1585485e-05
2.4814519e-05
2.8697594e-05
3.3391218e-05
3.9089487e-05
4.6032578e-05
5.4516527e-05
6.4904138e-05
7.7645658e-05
9.3295358e-05
0.0001134692
0.00013732905
0.00016670194
0.0002028858
0.00024748341
0.00030246795
0.00037374191
0.00045795011
0.00056172928
0.00068959383
0.00085527479
0.0010503673
0.0011915786
0.0011908194
0.0011901308
0.0011894915
0.0011888945
0.001188319
0.0011877278
0.0011870627
0.0011862499
0.0011852411
0.0011841654
0.0011830016
0.0011817009
0.0011802923
0.0011788489
0.0011774774
0.0011762814
0.0011753034
0.0011744394
0.001173353
0.0011715656
0.0011689795
0.0011666412
1.1347278e-07
1.4551879e-06
1.3178664e-06
1.0661804e-06
1.284123e-06
9.9094683e-07
1.0566212e-06
1.0945298e-06
1.1820344e-06
1.2901046e-06
1.4219668e-06
1.5746427e-06
1.7485769e-06
1.9449387e-06
2.165471e-06
2.4122118e-06
2.6874787e-06
2.9936852e-06
3.3339617e-06
3.7114479e-06
4.129804e-06
4.5932237e-06
5.1065777e-06
5.6756142e-06
6.3072363e-06
7.0098771e-06
7.7940073e-06
8.672825e-06
9.6630228e-06
1.0785831e-05
1.206815e-05
1.3544169e-05
1.5257054e-05
1.7261158e-05
1.9624597e-05
2.2432444e-05
2.5790542e-05
2.9830212e-05
3.4714008e-05
4.0642795e-05
4.8190725e-05
5.7082766e-05
6.7961732e-05
8.1293643e-05
9.7651332e-05
0.00011774034
0.00014243013
0.00017279158
0.00021013855
0.00025848509
0.00031545398
0.00038551682
0.00047165795
0.00057751269
0.00071439292
0.00087497751
0.0010715264
0.0011918821
0.0011910877
0.0011903618
0.0011896874
0.0011890579
0.0011884561
0.0011878521
0.0011871994
0.0011864378
0.0011855125
0.0011844599
0.0011833492
0.0011821277
0.0011808103
0.0011794433
0.0011781045
0.0011768782
0.0011758034
0.0011748009
0.0011736379
0.0011720257
0.0011699213
0.0011679347
1.237842e-07
1.1428739e-06
1.1541388e-06
9.2628763e-07
9.3824664e-07
8.6637969e-07
9.2896281e-07
1.0087022e-06
1.1167271e-06
1.2441022e-06
1.3916918e-06
1.5593289e-06
1.7482686e-06
1.9600652e-06
2.1966058e-06
2.4599956e-06
2.7525886e-06
3.0770082e-06
3.4361942e-06
3.833458e-06
4.2725604e-06
4.757819e-06
5.2942577e-06
5.8878203e-06
6.545667e-06
7.2740549e-06
8.0874721e-06
8.9979583e-06
1.0031608e-05
1.1196759e-05
1.2527504e-05
1.4059663e-05
1.5838403e-05
1.7920497e-05
2.0377001e-05
2.329648e-05
2.678895e-05
3.0990689e-05
3.6070081e-05
4.2234823e-05
4.9740734e-05
5.890259e-05
7.0107208e-05
8.3827684e-05
0.00010064756
0.00012128301
0.00014791881
0.00017926621
0.00021775541
0.00026501842
0.00032304517
0.00039425968
0.00048160266
0.00059422486
0.00072615776
0.00088731435
0.0010837118
0.0011921223
0.0011912886
0.0011905215
0.0011898063
0.0011891374
0.001188501
0.001187874
0.001187222
0.0011865002
0.0011856586
0.0011846666
0.0011836275
0.00118251
0.0011813138
0.0011800669
0.0011788218
0.0011776387
0.0011765447
0.0011754843
0.0011743117
0.0011728756
0.001171192
0.0011695657
1.4513554e-07
1.181849e-06
9.9219579e-07
7.0540958e-07
7.6591045e-07
7.7417067e-07
8.582579e-07
9.6057412e-07
1.0848384e-06
1.2268706e-06
1.3878717e-06
1.5687826e-06
1.77113e-06
1.9965765e-06
2.2470351e-06
2.5246376e-06
2.8317707e-06
3.1711068e-06
3.5456476e-06
3.9587777e-06
4.4143376e-06
4.9167276e-06
5.4710565e-06
6.0833548e-06
6.7608788e-06
7.5125275e-06
8.349397e-06
9.2854917e-06
1.0338626e-05
1.1531501e-05
1.2892992e-05
1.445977e-05
1.6278118e-05
1.8406209e-05
2.0916784e-05
2.3900417e-05
2.7469475e-05
3.1762899e-05
3.6952036e-05
4.3247742e-05
5.0909189e-05
6.0685875e-05
7.2194812e-05
8.6272058e-05
0.0001035089
0.00012462901
0.00015052001
0.0001822688
0.00022120371
0.0002689415
0.00032745112
0.00040280076
0.00049112748
0.00059905139
0.0007307274
0.00089105898
0.001085719
0.0011923298
0.0011914556
0.0011906458
0.0011898868
0.0011891744
0.0011884984
0.001187842
0.0011871793
0.0011864775
0.0011856991
0.0011848132
0.0011838609
0.0011828664
0.0011818137
0.0011807167
0.0011796081
0.001178528
0.0011774908
0.001176452
0.0011753184
0.0011740275
0.0011726407
0.0011713341
1.382404e-07
7.8414367e-07
8.1218846e-07
6.0095466e-07
6.5904708e-07
7.1988892e-07
8.2221817e-07
9.4115308e-07
1.0783928e-06
1.2329761e-06
1.4061769e-06
1.5992168e-06
1.8136462e-06
2.0511902e-06
2.3138e-06
2.6036637e-06
2.9232348e-06
3.2752243e-06
3.6627676e-06
4.08931e-06
4.5587755e-06
5.0756481e-06
5.645121e-06
6.2733117e-06
6.9675703e-06
7.7369037e-06
8.5925401e-06
9.5486601e-06
1.0631837e-05
1.1851922e-05
1.3244171e-05
1.4846105e-05
1.6704999e-05
1.8880199e-05
2.1445805e-05
2.4493981e-05
2.8138916e-05
3.2521645e-05
3.7815921e-05
4.4235321e-05
5.2041879e-05
6.1556516e-05
7.317175e-05
8.736945e-05
0.00010473883
0.00012600161
0.00015204094
0.00018554966
0.00022489963
0.00027306247
0.00033198324
0.00040400649
0.00049195229
0.00059919467
0.00072973731
0.00088826893
0.001080158
0.0011925262
0.0011916173
0.0011907701
0.0011899709
0.0011892174
0.001188503
0.0011878167
0.00118714
0.0011864493
0.0011857194
0.0011849255
0.0011840734
0.001183213
0.0011823179
0.0011813877
0.0011804384
0.0011794956