/*--------------------------------*- C++ -*----------------------------------*\
  =========                 |
  \\      /  F ield         | OpenFOAM: The Open Source CFD Toolbox
   \\    /   O peration     | Website:  https://openfoam.org
    \\  /    A nd           | Version:  12
     \\/     M anipulation  |
\*---------------------------------------------------------------------------*/
FoamFile
{
    format      ascii;
    class       volScalarField;
    location    "0.039";
    object      Ma;
}
// * * * * * * * * * * * * * * * * * * * * * * * * * * * * * * * * * * * * * //

dimensions      [];

internalField   nonuniform List<scalar> 
16000
(
0.62335149
0.7385156
0.69485683
0.71853797
0.70395346
0.71061291
0.7050973
0.70649256
0.70394631
0.70345957
0.7018578
0.70072043
0.69931131
0.69793361
0.69647364
0.69496693
0.6934021
0.69178082
0.69010175
0.68836437
0.68656821
0.68471298
0.68279867
0.68082549
0.67879394
0.67670485
0.67455937
0.67235901
0.67010566
0.66780161
0.66544957
0.66305264
0.66061436
0.65813865
0.65562986
0.65309267
0.65053212
0.64795351
0.64536237
0.6427644
0.64016538
0.63757115
0.63498747
0.63242005
0.6298744
0.62735584
0.62486945
0.62242001
0.62001197
0.61764947
0.61533629
0.61307587
0.61087129
0.60872525
0.60664009
0.60461782
0.60266019
0.60076887
0.59894493
0.59719014
0.5955061
0.59389507
0.59236087
0.59090985
0.58955219
0.58830369
0.5871856
0.58622152
0.58542871
0.58480281
0.58430063
0.58382929
0.58325922
0.58247426
0.58126046
0.57999881
0.57768756
0.57787003
0.57470877
0.57750563
0.62748373
0.74348114
0.69786857
0.72294101
0.70750753
0.71465281
0.70866553
0.71019769
0.70745722
0.70691066
0.7052153
0.70396561
0.70246446
0.70097359
0.69940547
0.69778287
0.69609959
0.69435565
0.69255038
0.6906833
0.68875421
0.68676315
0.68471044
0.6825967
0.68042292
0.67819044
0.67590098
0.67355668
0.67116009
0.66871421
0.66622248
0.66368879
0.66111744
0.65851316
0.65588107
0.65322663
0.65055559
0.64787395
0.64518786
0.64250355
0.63982727
0.63716519
0.63452333
0.6319075
0.62932322
0.62677568
0.62426971
0.62180971
0.61939969
0.61704323
0.61474348
0.61250319
0.6103247
0.60820994
0.60616044
0.60417737
0.6022616
0.60041375
0.59863436
0.59692407
0.59528371
0.59371479
0.59222042
0.59080642
0.58948256
0.58826415
0.58717206
0.58622967
0.58545434
0.58484217
0.58434908
0.58387866
0.58329534
0.582461
0.5812636
0.57967916
0.57783607
0.5773362
0.57502705
0.57722026
0.63135488
0.74805026
0.70117775
0.72676166
0.710865
0.71812274
0.71197176
0.71339183
0.71059884
0.70989944
0.70813441
0.7067484
0.70514307
0.70352611
0.70183418
0.70008136
0.69826411
0.69638215
0.6944351
0.69242282
0.69034544
0.68820343
0.68599755
0.68372896
0.68139921
0.67901026
0.67656454
0.67406493
0.67151478
0.66891795
0.66627877
0.66360203
0.66089299
0.65815731
0.65540101
0.65263044
0.64985216
0.6470729
0.64429947
0.64153862
0.63879703
0.63608112
0.63339705
0.6307506
0.62814712
0.6255915
0.6230881
0.62064075
0.61825278
0.61592698
0.61366565
0.61147062
0.60934327
0.60728457
0.60529505
0.60337493
0.60152411
0.59974229
0.59802917
0.59638457
0.59480865
0.5933023
0.59186821
0.59051185
0.58924273
0.5880758
0.5870313
0.58613156
0.58539258
0.58480888
0.58433371
0.58386632
0.5832675
0.58239617
0.58112928
0.57942139
0.57778401
0.57689224
0.57518467
0.57705446
0.63488568
0.75222181
0.70402217
0.73007878
0.71377711
0.72116217
0.71483757
0.71613176
0.71327242
0.71240445
0.71055491
0.70901716
0.70729014
0.70553147
0.70369885
0.70179965
0.69983237
0.69779669
0.69569256
0.69352022
0.6912802
0.68897344
0.68660123
0.68416535
0.68166804
0.67911201
0.67650055
0.67383744
0.67112703
0.6683742
0.66558436
0.66276339
0.65991762
0.65705378
0.65417891
0.65130026
0.64842524
0.64556131
0.64271581
0.63989596
0.63710864
0.63436038
0.63165722
0.62900469
0.62640769
0.6238705
0.62139676
0.61898945
0.61665094
0.61438301
0.61218684
0.61006316
0.6080122
0.60603378
0.60412734
0.60229202
0.60052673
0.59883027
0.59720151
0.59563956
0.59414403
0.59271544
0.59135617
0.59007151
0.58887072
0.58776832
0.58678367
0.58593767
0.58524459
0.58469715
0.58424601
0.58378735
0.58318109
0.58228262
0.58094656
0.57917749
0.57759659
0.57657624
0.57519651
0.57688693
0.63806153
0.75592652
0.70658987
0.7328396
0.71607002
0.72365959
0.71720616
0.71832198
0.71540669
0.71434102
0.71239755
0.71069072
0.70882461
0.70690941
0.70491995
0.7028591
0.70072642
0.69852173
0.69624529
0.69389772
0.69148005
0.68899378
0.68644092
0.68382405
0.68114629
0.67841141
0.67562376
0.67278832
0.66991069
0.66699701
0.66405399
0.6610888
0.65810902
0.65512254
0.65213748
0.64916206
0.64620446
0.64327274
0.64037469
0.63751773
0.63470874
0.63195405
0.6292593
0.62662939
0.62406846
0.62157987
0.61916621
0.61682929
0.61457026
0.6123896
0.61028722
0.60826251
0.60631442
0.60444153
0.6026421
0.60091418
0.5992557
0.59766458
0.59613897
0.59467742
0.59327914
0.59194442
0.59067556
0.58947778
0.58836022
0.58733694
0.58642625
0.58564727
0.58501186
0.58450988
0.58408872
0.58364274
0.58303315
0.58211015
0.58071902
0.57892214
0.57735325
0.57626282
0.57514067
0.57674017
0.64083116
0.75907685
0.70873031
0.73516554
0.71813112
0.72553943
0.7189276
0.71989059
0.71689622
0.71563995
0.71359232
0.71170625
0.70968593
0.70760171
0.7054405
0.70320269
0.70088839
0.69849781
0.69603168
0.69349126
0.69087834
0.6881953
0.6854452
0.68263173
0.6797593
0.67683301
0.67385866
0.67084273
0.66779235
0.6647152
0.66161951
0.65851391
0.65540732
0.65230888
0.64922773
0.64617297
0.6431534
0.64017747
0.63725312
0.63438762
0.63158752
0.62885852
0.62620543
0.62363214
0.62114161
0.6187359
0.61641617
0.61418279
0.6120354
0.60997296
0.60799392
0.60609623
0.60427747
0.60253493
0.60086572
0.59926682
0.59773525
0.59626817
0.59486314
0.59351828
0.59223257
0.59100626
0.5898417
0.58874419
0.58772279
0.58679112
0.58596634
0.58526555
0.58469771
0.58424899
0.58386311
0.58343362
0.58282428
0.58188227
0.58045496
0.5786477
0.57707425
0.57594981
0.57503063
0.5765756
0.64317391
0.76166756
0.7104401
0.73701877
0.71970673
0.72679854
0.72024631
0.7208315
0.71784538
0.71628818
0.7141221
0.71204477
0.70984986
0.70757769
0.70522302
0.70278567
0.70026636
0.6976661
0.69498649
0.69222979
0.68939895
0.68649764
0.68353032
0.68050223
0.67741942
0.67428871
0.67111769
0.66791468
0.66468859
0.66144892
0.65820554
0.65496864
0.65174852
0.64855545
0.64539948
0.64229031
0.63923707
0.63624822
0.63333137
0.6304932
0.62773939
0.6250745
0.62250202
0.62002434
0.61764279
0.61535771
0.61316851
0.61107381
0.60907151
0.60715894
0.60533293
0.60358997
0.60192627
0.60033791
0.5988209
0.59737129
0.59598533
0.59465958
0.59339116
0.59217793
0.59101883
0.58991418
0.58886658
0.58788145
0.58696788
0.58613901
0.58541082
0.58479822
0.58430689
0.58391861
0.58357318
0.58316412
0.58255844
0.58160344
0.58015832
0.57836076
0.57677872
0.57561458
0.57486309
0.57640504
0.64514235
0.76373451
0.71175925
0.73843266
0.72088635
0.72770379
0.72103809
0.72139712
0.71810305
0.71630491
0.713984
0.71168859
0.70928472
0.70679282
0.70421209
0.70154293
0.69878684
0.69594593
0.69302299
0.69002165
0.68694637
0.68380252
0.68059638
0.67733514
0.6740269
0.6706806
0.667306
0.66391351
0.66051414
0.65711927
0.65374056
0.65038967
0.64707815
0.64381715
0.64061728
0.6374884
0.63443943
0.63147826
0.62861157
0.62584481
0.62318212
0.62062633
0.61817901
0.61584052
0.61361011
0.61148603
0.60946566
0.60754565
0.60572204
0.60399042
0.60234607
0.60078404
0.59929931
0.59788688
0.59654183
0.59525951
0.59403556
0.59286616
0.59174818
0.59067944
0.58965894
0.58868728
0.58776736
0.58690486
0.5861089
0.58539213
0.58476929
0.58425303
0.58384547
0.58352381
0.58322418
0.58284076
0.58224357
0.58128228
0.57983689
0.57807044
0.57648444
0.57527185
0.57465031
0.57624212
0.64679862
0.76529454
0.71264009
0.73939707
0.72142955
0.72756163
0.72103867
0.72078528
0.717747
0.71562927
0.71310636
0.71055762
0.70790368
0.70515361
0.70230867
0.69937041
0.69634141
0.69322516
0.69002607
0.68674959
0.68340217
0.67999137
0.6765258
0.67301513
0.66946996
0.66590182
0.66232293
0.65874613
0.6551846
0.6516517
0.64816071
0.64472456
0.64135563
0.63806549
0.63486468
0.63176252
0.62876697
0.62588454
0.62312017
0.62047725
0.61795767
0.61556183
0.61328879
0.6111364
0.60910145
0.6071798
0.60536664
0.60365655
0.60204372
0.60052211
0.59908555
0.59772787
0.59644302
0.59522515
0.59406872
0.59296856
0.59192001
0.59091909
0.58996266
0.58904864
0.58817633
0.58734667
0.58656296
0.58583121
0.58516057
0.5845632
0.58405252
0.58363881
0.58332065
0.58307083
0.58282275
0.58247185
0.58188973
0.58092994
0.57950057
0.57778311
0.57620242
0.57495955
0.57444004
0.57610075
0.64813691
0.76632571
0.71303085
0.73967783
0.72128066
0.72699816
0.72049652
0.71981312
0.71659947
0.7141436
0.71136937
0.70853049
0.70558394
0.70253433
0.6993841
0.69613654
0.69279588
0.68936759
0.6858583
0.68227592
0.6786296
0.67492973
0.67118795
0.66741696
0.66363044
0.65984287
0.65606928
0.652325
0.64862539
0.64498555
0.64141999
0.63794237
0.63456519
0.63129958
0.62815507
0.62513945
0.62225868
0.61951683
0.61691615
0.61445708
0.61213847
0.60995765
0.60791066
0.60599249
0.60419721
0.60251826
0.60094858
0.59948083
0.59810753
0.59682122
0.59561457
0.5944805
0.59341225
0.59240345
0.59144823
0.59054123
0.58967777
0.58885395
0.58806686
0.58731473
0.58659726
0.58591589
0.58527437
0.58467905
0.58413913
0.5836662
0.5832723
0.58296532
0.5827404
0.5825667
0.58237626
0.58206605
0.58150731
0.58055911
0.57916108
0.57750183
0.57593195
0.57470826
0.57427775
0.57599826
0.64908731
0.76671247
0.71284309
0.73839491
0.7203901
0.72557246
0.7191666
0.71790998
0.71455919
0.71173014
0.70864904
0.70547571
0.70218874
0.69879268
0.69529135
0.69169034
0.68799633
0.68421755
0.68036372
0.67644606
0.67247731
0.66847156
0.66444419
0.66041159
0.65639099
0.65240009
0.64845677
0.64457873
0.64078312
0.63708614
0.63350275
0.63004627
0.62672819
0.62355791
0.62054261
0.6176872
0.61499436
0.61246457
0.61009633
0.60788632
0.60582965
0.60392014
0.60215055
0.60051285
0.59899848
0.59759855
0.59630404
0.59510599
0.59399561
0.59296442
0.59200434
0.59110776
0.59026761
0.58947739
0.58873123
0.58802391
0.587351
0.58670896
0.58609532
0.58550881
0.58494965
0.58441985
0.58392368
0.58346782
0.58306148
0.58271563
0.58244086
0.58224269
0.58211314
0.58201881
0.58189196
0.58163096
0.58110551
0.58018269
0.57883253
0.57723542
0.57567543
0.57452993
0.57419663
0.57596035
0.64955084
0.76629304
0.71195758
0.73663785
0.71892087
0.72326176
0.71692864
0.71507169
0.7114951
0.70825579
0.70480524
0.70124382
0.69756152
0.69376534
0.68986141
0.6858585
0.68176682
0.67759853
0.6733676
0.66908978
0.66478238
0.66046414
0.65615487
0.65187518
0.647646
0.64348824
0.63942226
0.63546747
0.63164181
0.62796139
0.62444011
0.62108934
0.6179178
0.61493139
0.61213326
0.6095239
0.60710132
0.60486132
0.60279779
0.60090306
0.59916819
0.59758334
0.59613807
0.59482159
0.59362303
0.59253162
0.59153687
0.59062869
0.58979751
0.58903434
0.58833083
0.58767933
0.58707286
0.58650516
0.58597072
0.58546476
0.58498338
0.58452364
0.58408368
0.5836629
0.58326214
0.58288407
0.58253346
0.58221729
0.58194472
0.58172606
0.58157042
0.58148104
0.58144723
0.5814343
0.5813761
0.58117219
0.58069118
0.57981157
0.57852944
0.577004
0.57545849
0.574418
0.57423173
0.57600384
0.64947899
0.76500874
0.71025201
0.73406594
0.71658513
0.71996089
0.71366166
0.71115368
0.7072666
0.70356583
0.69967433
0.69565944
0.69151741
0.68725928
0.68289511
0.67843828
0.67390415
0.66931036
0.66467658
0.66002432
0.65537658
0.65075744
0.64619163
0.64170401
0.63731897
0.63305987
0.62894845
0.62500428
0.62124427
0.61768227
0.61432883
0.61119104
0.60827258
0.60557381
0.60309203
0.60082185
0.59875554
0.59688347
0.59519454
0.59367662
0.59231689
0.59110222
0.59001947
0.5890557
0.58819839
0.58743556
0.58675594
0.58614897
0.5856049
0.5851148
0.58467058
0.58426497
0.58389152
0.58354455
0.58321922
0.58291146
0.58261813
0.58233706
0.58206718
0.58180867
0.58156307
0.58133373
0.58112589
0.58094682
0.58080551
0.58071159
0.58067274
0.58069003
0.58075065
0.58081975
0.58083363
0.58069327
0.58026851
0.57945248
0.57826038
0.57682458
0.57532078
0.57436616
0.57437423
0.57612405
0.6488539
0.76276106
0.70765791
0.73045717
0.71327903
0.71555661
0.70921691
0.70600551
0.70169996
0.69746772
0.69305134
0.68850386
0.68382704
0.67903775
0.67415225
0.66919063
0.66417529
0.65913111
0.65408491
0.64906511
0.6441011
0.63922269
0.63445932
0.62983939
0.62538943
0.62113339
0.61709197
0.61328209
0.60971657
0.60640387
0.60334816
0.6005495
0.59800414
0.59570499
0.59364214
0.5918034
0.59017487
0.58874149
0.58748746
0.58639677
0.58545346
0.58464198
0.58394738
0.58335548
0.582853
0.58242762
0.58206801
0.58176388
0.58150593
0.58128584
0.58109624
0.58093067
0.58078352
0.58065002
0.58052621
0.58040896
0.58029604
0.5801862
0.58007926
0.57997621
0.57987939
0.57979278
0.57972208
0.57967474
0.57965957
0.57968548
0.57975882
0.57987874
0.58003095
0.58018137
0.58026899
0.58019698
0.57984037
0.57910878
0.57802665
0.57669767
0.57527402
0.5743689
0.57462359
0.57630767
0.64761379
0.75938045
0.70411914
0.72569589
0.70882631
0.70988137
0.70339617
0.69941436
0.69456443
0.68970739
0.68466755
0.67949591
0.67420215
0.66881129
0.66334847
0.65784271
0.6523255
0.64683054
0.64139308
0.63604916
0.6308347
0.62578452
0.62093132
0.61630467
0.61193012
0.60782844
0.60401517
0.60050036
0.5972886
0.59437928
0.59176706
0.58944246
0.58739259
0.58560184
0.58405268
0.58272626
0.58160307
0.58066347
0.57988811
0.57925824
0.57875604
0.57836474
0.57806878
0.5778538
0.57770676
0.57761584
0.57757046
0.57756121
0.5775798
0.577619
0.57767254
0.57773509
0.57780214
0.57787
0.57793579
0.57799743
0.57805371
0.57810438
0.57815015
0.57819288
0.57823568
0.57828311
0.57834131
0.57841784
0.5785213
0.57865991
0.5788388
0.57905564
0.57929543
0.5795253
0.57968687
0.57968687
0.57941006
0.57878298
0.57782912
0.57661879
0.57529691
0.5744533
0.57496833
0.5765432
0.64570517
0.75463359
0.69967665
0.71960236
0.70303082
0.70271351
0.69593339
0.69108635
0.68554488
0.67994725
0.67417456
0.66828303
0.66229383
0.65624268
0.65016625
0.64410491
0.63810123
0.63219926
0.62644327
0.62087653
0.61553977
0.61046991
0.60569874
0.60125191
0.59714833
0.59339979
0.59001108
0.58698037
0.58429988
0.58195674
0.57993393
0.57821128
0.57676643
0.57557571
0.57461488
0.57385981
0.57328697
0.57287382
0.57259914
0.57244313
0.57238761
0.57241599
0.57251328
0.57266608
0.57286244
0.57309184
0.57334507
0.57361415
0.57389222
0.57417345
0.57445296
0.57472672
0.57499147
0.57524474
0.57548477
0.5757106
0.57592208
0.57611993
0.57630576
0.57648225
0.57665324
0.57682384
0.57700051
0.57719096
0.57740353
0.57764583
0.57792201
0.5782288
0.57855121
0.57885776
0.57909257
0.5791678
0.57898175
0.57847685
0.57766745
0.57658455
0.57536567
0.57463823
0.57528058
0.57677804
0.64306884
0.74813758
0.6942076
0.71191347
0.69558552
0.69371072
0.68644485
0.68061273
0.67422235
0.66775906
0.66114639
0.65444994
0.64770668
0.64096655
0.63428117
0.62770512
0.62129372
0.61510146
0.60917985
0.60357557
0.59832858
0.59347084
0.58902535
0.5850058
0.58141675
0.57825426
0.57550685
0.57315676
0.57118125
0.56955398
0.56824622
0.56722802
0.56646915
0.56593991
0.56561168
0.56545739
0.5654518
0.56557168
0.56579588
0.56610534
0.566483
0.56691375
0.56738429
0.56788299
0.56839977
0.56892595
0.56945417
0.56997818
0.57049282
0.57099387
0.57147791
0.57194232
0.57238515
0.57280512
0.57320164
0.57357484
0.57392556
0.57425545
0.57456699
0.57486356
0.57514966
0.57543088
0.575714
0.57600681
0.57631746
0.57665307
0.57701713
0.57740602
0.57780533
0.57818507
0.57849197
0.57864547
0.57855953
0.57818955
0.57753469
0.57658878
0.57548809
0.57489103
0.5756233
0.57698145
0.63957104
0.7392356
0.68711693
0.70218258
0.6860386
0.68240316
0.67443069
0.66748268
0.66008833
0.65263765
0.64509307
0.63753489
0.6300222
0.62262448
0.61541185
0.60845417
0.60181765
0.59556219
0.58973874
0.58438741
0.57953629
0.57520099
0.57138508
0.56808107
0.56527191
0.5629328
0.561033
0.55953775
0.55840986
0.55761124
0.55710405
0.55685165
0.55681924
0.55697434
0.5572871
0.55773036
0.55827971
0.55891339
0.5596122
0.56035931
0.56114006
0.56194181
0.56275369
0.56356649
0.56437241
0.56516496
0.56593882
0.56668968
0.56741413
0.56810956
0.56877408
0.5694064
0.57000583
0.57057226
0.5711062
0.57160875
0.57208169
0.5725275
0.57294939
0.57335139
0.57373853
0.57411682
0.57449334
0.57487596
0.57527273
0.57569043
0.57613223
0.57659476
0.57706461
0.57751341
0.57789105
0.57812575
0.57814731
0.57791999
0.57742487
0.57662664
0.57566519
0.57519471
0.57594261
0.57714481
0.63493019
0.7279153
0.67797869
0.68985489
0.67381637
0.66823653
0.65929743
0.65108468
0.64253626
0.63399304
0.62546457
0.61705436
0.60885016
0.60094385
0.59342197
0.58636277
0.57983214
0.57388103
0.56854375
0.56383776
0.55976426
0.55631003
0.55344959
0.5511479
0.54936302
0.54804865
0.54715634
0.54663737
0.54644422
0.54653164
0.54685734
0.54738251
0.54807194
0.54889412
0.5498211
0.55082833
0.55189443
0.55300089
0.55413185
0.55527376
0.55641519
0.55754652
0.55865978
0.55974839
0.56080704
0.56183152
0.56281856
0.56376575
0.5646714
0.56553442
0.5663543
0.56713101
0.56786502
0.56855727
0.56920922
0.56982289
0.57040082
0.57094619
0.57146282
0.5719553
0.57242907
0.57289055
0.57334705
0.57380659
0.57427717
0.57476538
0.57527447
0.57580168
0.57633499
0.57684797
0.57729468
0.5776133
0.57774775
0.57766593
0.57733101
0.57669137
0.57588937
0.57553725
0.5762466
0.57726511
0.62878826
0.71519101
0.66623319
0.67435577
0.65821245
0.65049937
0.64028714
0.63064143
0.62082265
0.61115386
0.60170358
0.59260391
0.58396842
0.57590167
0.56849018
0.56179949
0.55587177
0.55072576
0.54635818
0.54274651
0.53985256
0.53762639
0.53601019
0.53494178
0.53435759
0.53419504
0.53439429
0.53489942
0.53565916
0.53662725
0.53776249
0.53902859
0.54039391
0.54183107
0.54331663
0.54483061
0.54635613
0.54787905
0.54938759
0.55087204
0.55232449
0.55373855
0.55510917
0.55643245
0.55770546
0.55892615
0.56009321
0.56120592
0.56226415
0.56326817
0.56421869
0.56511679
0.56596391
0.56676192
0.56751309
0.56822018
0.56888638
0.56951541
0.5701116
0.57067994
0.57122626
0.57175728
0.57228061
0.57280439
0.57333663
0.57388394
0.57444981
0.57503238
0.57562114
0.57619227
0.57670529
0.57710881
0.57735748
0.57741741
0.57724034
0.57676933
0.57614657
0.57590516
0.57652461
0.57734623
0.62082155
0.69852727
0.65106384
0.6548061
0.63819653
0.62814458
0.61637804
0.60519668
0.59413567
0.58351204
0.57344975
0.56409674
0.55556762
0.54794842
0.54129122
0.53561511
0.53090864
0.52713453
0.52423523
0.52213894
0.52076517
0.52002972
0.51984863
0.52014112
0.52083167
0.52185124
0.52313785
0.52463667
0.52629988
0.52808614
0.52996009
0.53189174
0.53385585
0.53583133
0.53780069
0.53974957
0.54166627
0.54354135
0.54536731
0.54713829
0.54884981
0.55049856
0.5520822
0.55359928
0.55504902
0.5564313
0.55774646
0.55899532
0.56017901
0.56129898
0.56235694
0.56335488
0.56429509
0.56518016
0.56601304
0.56679707
0.56753593
0.56823377
0.56889525
0.56952574
0.57013134
0.57071908
0.57129681
0.57187282
0.5724552
0.57305063
0.57366297
0.57429124
0.5749265
0.57554808
0.57612199
0.57660664
0.57696341
0.57715657
0.57712928
0.57683957
0.57641234
0.57627322
0.57677357
0.57738287
0.61040026
0.67696409
0.63109708
0.62980036
0.61230602
0.5997954
0.58640278
0.57384493
0.56190422
0.55087436
0.54089413
0.5320824
0.52450349
0.5181753
0.51307228
0.50913359
0.50627199
0.50438307
0.50335359
0.50306843
0.50341582
0.50429108
0.50559873
0.50725364
0.50918121
0.51131703
0.51360616
0.51600223
0.51846644
0.52096663
0.52347633
0.52597393
0.52844196
0.53086642
0.53323621
0.5355427
0.53777927
0.53994099
0.54202433
0.54402692
0.54594734
0.54778497
0.54953985
0.55121258
0.55280423
0.55431624
0.55575038
0.55710865
0.55839325
0.55960653
0.56075104
0.56182948
0.56284479
0.56380015
0.56469903
0.56554517
0.56634262
0.56709583
0.56780974
0.56848994
0.56914281
0.56977563
0.57039643
0.57101365
0.57163545
0.57226864
0.57291741
0.57358144
0.57425332
0.57491578
0.5755413
0.57609682
0.57654917
0.57685851
0.57697378
0.57687289
0.57665266
0.57661793
0.57698468
0.5773683
0.59638545
0.64841719
0.60442745
0.5975962
0.57893517
0.5640747
0.54946218
0.53621175
0.52428504
0.51389625
0.50511627
0.49796166
0.49238241
0.48828
0.48552072
0.48395062
0.48340806
0.48373376
0.48477766
0.48640332
0.48848991
0.49093279
0.49364281
0.49654515
0.49957775
0.50268962
0.5058393
0.50899332
0.51212496
0.51521304
0.51824097
0.52119596
0.5240683
0.52685078
0.52953829
0.53212733
0.53461581
0.53700269
0.53928782
0.54147176
0.54355563
0.54554102
0.54742989
0.5492245
0.55092738
0.55254123
0.55406889
0.5555133
0.55687747
0.55816446
0.55937742
0.56051963
0.56159451
0.56260567
0.56355694
0.56445234
0.56529617
0.56609307
0.56684818
0.56756728
0.56825694
0.56892462
0.56957847
0.57022702
0.57087844
0.57153963
0.57221496
0.57290459
0.57360245
0.57429462
0.57495954
0.57557055
0.57609766
0.57650479
0.57675189
0.57682683
0.57681209
0.57688753
0.57712581
0.57730593
0.57680839
0.61054968
0.56886223
0.55638637
0.53703585
0.52026014
0.50555781
0.49301643
0.48260095
0.47435384
0.46817802
0.46391519
0.46135615
0.46026924
0.46041906
0.46158154
0.46355283
0.46615396
0.46923195
0.47265886
0.47632942
0.48015825
0.48407694
0.48803117
0.49197831
0.49588522
0.49972641
0.50348257
0.50713931
0.51068618
0.51411585
0.51742346
0.52060611
0.52366244
0.52659232
0.52939652
0.5320766
0.53463465
0.5370732
0.5393951
0.54160345
0.54370154
0.5456928
0.54758078
0.54936909
0.55106136
0.55266124
0.55417236
0.5555983
0.55694266
0.55820904
0.55940111
0.56052265
0.56157756
0.5625699
0.56350387
0.56438391
0.56521477
0.56600173
0.5667507
0.56746836
0.56816224
0.56884051
0.56951166
0.57018378
0.57086375
0.571556
0.57226099
0.57297379
0.57368328
0.57437265
0.5750206
0.57560136
0.57608412
0.57643981
0.57666621
0.57681752
0.57698407
0.57717315
0.57725927
0.54907462
0.56086013
0.52299988
0.50480079
0.48436728
0.46905509
0.45621139
0.44643182
0.43945231
0.43503208
0.43282778
0.43247946
0.433633
0.43596538
0.43919505
0.44308548
0.4474433
0.45211373
0.456975
0.46193261
0.46691416
0.47186482
0.4767436
0.48152032
0.48617321
0.49068694
0.49505119
0.49925945
0.50330811
0.50719582
0.51092288
0.51449085
0.51790225
0.52116029
0.52426866
0.52723143
0.53005289
0.53273747
0.53528969
0.5377141
0.54001525
0.54219768
0.54426588
0.54622432
0.54807737
0.54982936
0.55148448
0.55304682
0.5545204
0.55590916
0.55721702
0.55844794
0.55960592
0.56069506
0.56171952
0.56268361
0.56359182
0.56444898
0.56526042
0.5660321
0.56677074
0.56748381
0.56817934
0.56886558
0.56955044
0.57024066
0.57094061
0.571651
0.57236771
0.57308158
0.57377915
0.57444347
0.57505404
0.57558782
0.57602644
0.57637152
0.57665352
0.57690601
0.57710434
0.57714454
0.50908109
0.49672573
0.45984491
0.44213687
0.42487959
0.41280296
0.40457634
0.39998885
0.39839136
0.3992033
0.40186118
0.40588276
0.41086988
0.41650755
0.42255301
0.42882334
0.43518305
0.44153342
0.44780359
0.45394368
0.45991939
0.46570795
0.47129504
0.47667257
0.48183693
0.48678778
0.49152709
0.4960585
0.50038677
0.50451743
0.5084565
0.5122103
0.51578529
0.51918797
0.5224248
0.52550216
0.52842628
0.53120324
0.53383894
0.53633912
0.53870932
0.54095495
0.54308122
0.54509323
0.54699587
0.5487939
0.55049189
0.55209424
0.55360522
0.55502903
0.55636979
0.55763163
0.55881872
0.55993524
0.56098542
0.56197359
0.56290425
0.56378224
0.56461291
0.56540219
0.56615672
0.56688377
0.56759104
0.56828641
0.56897741
0.56967051
0.57036999
0.57107664
0.57178687
0.57249282
0.57318345
0.57384549
0.57446349
0.57502121
0.57550835
0.57593089
0.57631073
0.5766588
0.57693661
0.57706831
0.44797911
0.41571375
0.38625666
0.37156244
0.36082615
0.35607214
0.35551048
0.35823113
0.36325108
0.36981765
0.37735095
0.3854306
0.39375922
0.40213192
0.41041063
0.41850464
0.4263564
0.43393126
0.44121035
0.4481855
0.45485575
0.46122495
0.46730004
0.4730899
0.47860456
0.48385464
0.48885096
0.49360432
0.49812531
0.50242422
0.50651099
0.51039513
0.51408577
0.51759161
0.52092093
0.52408164
0.52708123
0.52992687
0.53262535
0.53518317
0.53760652
0.53990135
0.54207335
0.54412799
0.5460705
0.54790589
0.54963895
0.55127427
0.55281629
0.55426933
0.55563766
0.55692553
0.55813717
0.55927684
0.56034878
0.56135732
0.56230693
0.56320243
0.56404912
0.56485285
0.56562007
0.56635773
0.56707309
0.5677735
0.56846598
0.56915664
0.56984953
0.57054539
0.5712409
0.57192922
0.57260153
0.57324797
0.57385693
0.5744159
0.57491952
0.57538248
0.57583771
0.57630005
0.57671903
0.57699784
0.35312206
0.31988813
0.3024144
0.29798231
0.29935371
0.30556341
0.3146473
0.32535107
0.33680871
0.34847404
0.36001461
0.3712365
0.3820333
0.39235273
0.40217561
0.41150256
0.42034572
0.42872362
0.43665799
0.44417181
0.45128815
0.45802947
0.46441723
0.47047171
0.4762119
0.48165556
0.48681921
0.49171821
0.49636684
0.50077837
0.50496516
0.50893872
0.5127098
0.51628843
0.51968401
0.52290536
0.52596074
0.52885794
0.5316043
0.53420674
0.53667185
0.53900588
0.54121478
0.54330424
0.54527966
0.5471462
0.54890875
0.550572
0.55214046
0.55361853
0.55501057
0.55632088
0.55755376
0.55871349
0.55980434
0.56083061
0.56179675
0.56270752
0.56356812
0.56438425
0.56516212
0.56590831
0.56662961
0.56733278
0.56802436
0.56870998
0.56939334
0.57007496
0.57075158
0.57141726
0.57206539
0.57268912
0.5732792
0.57382406
0.57432175
0.5748013
0.575323
0.57592107
0.57651695
0.57692743
0.21507811
0.21380418
0.2191467
0.23243897
0.24959978
0.26782588
0.28592277
0.3032462
0.31956959
0.33483005
0.34905303
0.3622988
0.37464084
0.38615411
0.39691
0.40697423
0.41640621
0.42525918
0.4335806
0.4414128
0.44879345
0.4557562
0.46233114
0.46854525
0.47442278
0.47998563
0.48525361
0.49024469
0.49497528
0.49946034
0.50371361
0.50774772
0.51157432
0.5152042
0.51864738
0.52191317
0.52501026
0.52794677
0.53073032
0.53336808
0.53586682
0.53823295
0.54047256
0.54259142
0.54459503
0.54648858
0.54827701
0.54996504
0.5515572
0.55305793
0.55447157
0.55580247
0.55705495
0.55823332
0.55934185
0.56038483
0.56136666
0.56229198
0.56316586
0.56399384
0.56478187
0.56553623
0.56626333
0.56696955
0.567661
0.56834297
0.5690188
0.56968861
0.57034905
0.5709948
0.57162095
0.57222269
0.57279154
0.57331543
0.57379582
0.57427825
0.57485421
0.57558091
0.57635255
0.57689472
0.091309087
0.12098758
0.15813221
0.1915215
0.22141182
0.24771654
0.27105198
0.29188165
0.31061923
0.32758901
0.34305239
0.35721874
0.37025796
0.38230912
0.39348725
0.40388834
0.41359326
0.42267069
0.43117939
0.43917004
0.44668659
0.45376744
0.46044632
0.466753
0.47271395
0.47835276
0.4836906
0.48874652
0.49353777
0.49808
0.5023875
0.50647334
0.51034954
0.51402716
0.51751647
0.52082695
0.52396745
0.52694621
0.52977093
0.53244887
0.53498683
0.53739126
0.53966827
0.54182364
0.54386287
0.54579112
0.54761332
0.54933413
0.55095803
0.55248938
0.55393251
0.55529169
0.55657122
0.55777536
0.55890836
0.55997446
0.56097799
0.56192347
0.56281584
0.5636605
0.5644633
0.56523041
0.56596815
0.56668285
0.5673806
0.56806664
0.56874419
0.56941311
0.5700698
0.5707091
0.5713268
0.57191882
0.57247627
0.57298614
0.57345271
0.57393467
0.57454663
0.57536142
0.57625189
0.5768776
0.0095810333
0.29503342
0.47078508
0.51872873
0.52828093
0.52845821
0.52799977
0.52919824
0.5307097
0.53223134
0.53373324
0.5352451
0.53667026
0.53810428
0.53951754
0.54094272
0.54237571
0.54381515
0.54526054
0.54671103
0.54816537
0.54962192
0.55107882
0.55253408
0.55398563
0.55543139
0.5568693
0.55829731
0.55971342
0.56111565
0.56250206
0.56387073
0.56521976
0.56654721
0.56785113
0.56912953
0.57038036
0.5716015
0.57279074
0.57394577
0.57506416
0.57614335
0.57718065
0.5781732
0.57911797
0.58001174
0.58085112
0.58163251
0.58235209
0.58300582
0.58358942
0.58409838
0.58452788
0.58487281
0.58512777
0.58528711
0.58534539
0.58529758
0.58513921
0.58486734
0.58448145
0.58398403
0.5833812
0.58268437
0.58190815
0.58107872
0.58021365
0.57937563
0.5785493
0.57792229
0.57727369
0.57724272
0.57698183
0.57775215
0.57742695
0.57870966
0.57740303
0.57811068
0.57623412
0.57424823
0.059915221
0.37955483
0.52113823
0.54730457
0.54801618
0.54567298
0.54476552
0.54491624
0.54512035
0.54541319
0.54580518
0.54634854
0.54701681
0.54777034
0.54858603
0.54945908
0.5503845
0.55135777
0.5523736
0.553427
0.55451335
0.55562822
0.5567674
0.55792688
0.55910282
0.56029153
0.5614895
0.56269333
0.56389976
0.56510564
0.56630788
0.5675035
0.56868958
0.5698632
0.57102151
0.57216164
0.57328072
0.57437587
0.57544414
0.57648257
0.5774881
0.5784576
0.57938783
0.58027547
0.58111704
0.58190896
0.58264751
0.5833288
0.58394881
0.58450335
0.58498806
0.58539837
0.58572955
0.58597663
0.5861345
0.58619797
0.58616227
0.58602318
0.58577728
0.58542283
0.58496061
0.58439436
0.5837315
0.58298444
0.5821689
0.58131087
0.58042929
0.57958381
0.57876075
0.57814475
0.57753091
0.57750065
0.57726843
0.57801163
0.57764336
0.57891485
0.5774561
0.57818923
0.57606457
0.57431695
0.13328783
0.45713938
0.54209172
0.55549712
0.55388786
0.55268383
0.55263772
0.55312713
0.55348288
0.55393815
0.5543792
0.55488314
0.55541076
0.55598656
0.55659713
0.55724915
0.55793925
0.5586667
0.55942976
0.5602266
0.56105526
0.56191348
0.56279893
0.56370907
0.56464125
0.56559273
0.56656067
0.56754217
0.56853426
0.56953394
0.57053815
0.57154379
0.57254773
0.57354679
0.57453776
0.57551739
0.57648238
0.57742938
0.57835501
0.5792558
0.58012824
0.58096874
0.58177363
0.58253912
0.58326138
0.58393644
0.58456026
0.58512869
0.58563748
0.58608226
0.58645856
0.5867618
0.58698726
0.58713016
0.58718564
0.587149
0.58701608
0.58678343
0.5864486
0.58601094
0.58547237
0.58483774
0.58411549
0.58331884
0.58246416
0.58157727
0.58067768
0.57982295
0.57899702
0.57839252
0.57781313
0.5777779
0.57755114
0.57827952
0.57785288
0.57911354
0.57750828
0.57827867
0.57589189
0.5743804
0.20752276
0.50599901
0.55615648
0.56426384
0.56136575
0.56124442
0.5612783
0.56177399
0.56199196
0.56236804
0.56268071
0.56307052
0.563469
0.56390536
0.56435965
0.56484361
0.56535389
0.56589186
0.56645723
0.5670498
0.56766905
0.56831416
0.56898414
0.56967773
0.57039345
0.57112962
0.57188435
0.57265555
0.57344097
0.57423818
0.57504456
0.57585739
0.57667375
0.57749062
0.57830483
0.5791131
0.57991205
0.58069819
0.58146792
0.58221756
0.58294333
0.58364134
0.58430762
0.58493811
0.58552864
0.58607498
0.58657283
0.5870178
0.58740546
0.58773131
0.5879908
0.58817932
0.58829224
0.58832493