/*--------------------------------*- C++ -*----------------------------------*\
  =========                 |
  \\      /  F ield         | OpenFOAM: The Open Source CFD Toolbox
   \\    /   O peration     | Website:  https://openfoam.org
    \\  /    A nd           | Version:  12
     \\/     M anipulation  |
\*---------------------------------------------------------------------------*/
FoamFile
{
    format      ascii;
    class       volScalarField;
    location    "0.039";
    object      T;
}
// * * * * * * * * * * * * * * * * * * * * * * * * * * * * * * * * * * * * * //

dimensions      [0 0 0 1 0 0 0];

internalField   nonuniform List<scalar> 
16000
(
293.75893
285.65742
288.83881
287.14958
288.22183
287.74964
288.16087
288.06798
288.26224
288.30429
288.4279
288.51685
288.6254
288.73129
288.8429
288.95763
289.07634
289.19891
289.32545
289.456
289.59059
289.72925
289.87197
290.01874
290.16951
290.32424
290.48283
290.64519
290.81116
290.9806
291.15331
291.32907
291.50763
291.68871
291.87201
292.0572
292.24393
292.43183
292.62051
292.80961
292.99871
293.18744
293.37542
293.56227
293.74764
293.93118
294.11258
294.29152
294.46772
294.64089
294.81078
294.97715
295.13976
295.29841
295.4529
295.60308
295.74881
295.89002
296.02669
296.15881
296.28646
296.40967
296.52839
296.64232
296.75083
296.85278
296.94645
297.02977
297.10083
297.15914
297.20748
297.2542
297.31464
297.41034
297.57716
297.81384
298.19772
298.44308
298.7207
298.62758
293.51215
285.30667
288.6406
286.849
287.98975
287.47929
287.92746
287.82368
288.03368
288.08038
288.21156
288.3093
288.42522
288.54002
288.66018
288.78403
288.91206
289.04425
289.18066
289.32133
289.46626
289.61545
289.76888
289.92648
290.08819
290.2539
290.42348
290.59678
290.77361
290.95376
291.13698
291.32299
291.51149
291.70214
291.89459
292.08844
292.28331
292.47877
292.6744
292.86978
293.06448
293.2581
293.45025
293.64054
293.82861
294.01415
294.19684
294.3764
294.55258
294.72515
294.8939
295.05863
295.21919
295.37543
295.52725
295.67456
295.81736
295.95566
296.08952
296.21907
296.34442
296.46569
296.58284
296.69559
296.80327
296.9047
296.99812
297.0814
297.15263
297.21143
297.26087
297.30982
297.37429
297.47717
297.64674
297.90703
298.25939
298.54359
298.77304
298.61782
293.27963
284.98173
288.43611
286.58985
287.77094
287.24945
287.71179
287.61562
287.83073
287.88906
288.02602
288.13435
288.25854
288.38321
288.51308
288.64712
288.78559
288.92852
289.07594
289.22784
289.38422
289.54503
289.7102
289.87965
290.05325
290.23084
290.41226
290.59728
290.78567
290.97713
291.17137
291.36803
291.56674
291.76711
291.96871
292.1711
292.37382
292.57641
292.77841
292.97935
293.17879
293.37631
293.5715
293.764
293.95346
294.13957
294.32208
294.50073
294.67534
294.84572
295.01173
295.17326
295.33021
295.48253
295.63021
295.77325
295.91175
296.04581
296.1756
296.3013
296.42311
296.54115
296.65539
296.76553
296.87084
296.97009
297.06147
297.14286
297.21247
297.2702
297.31969
297.3706
297.43959
297.54953
297.72795
297.99979
298.33904
298.63598
298.83133
298.59758
293.06764
284.68389
288.25047
286.36594
287.58488
287.04923
287.52672
287.43916
287.6602
287.73142
287.87523
287.99531
288.12906
288.26475
288.40557
288.55096
288.70104
288.85583
289.01533
289.17952
289.34834
289.52171
289.69953
289.88165
290.06791
290.25808
290.45194
290.64918
290.8495
291.05254
291.25791
291.4652
291.67394
291.88369
292.09393
292.30417
292.51389
292.7226
292.92979
293.13498
293.33771
293.53756
293.73413
293.9271
294.11614
294.301
294.48147
294.65737
294.82857
294.99497
295.15652
295.31318
295.46496
295.61189
295.75404
295.89155
296.02456
296.15329
296.27797
296.39886
296.51616
296.63003
296.7404
296.84691
296.94879
297.04476
297.13299
297.21141
297.2784
297.33423
297.38316
297.43559
297.50869
297.6253
297.81284
298.09054
298.4225
298.71953
298.89137
298.56765
292.87752
284.42004
288.08806
286.18222
287.45208
286.88777
287.37784
287.30234
287.52814
287.61445
287.76577
287.89888
288.04344
288.19122
288.34413
288.50194
288.6647
288.83242
289.00506
289.18256
289.36484
289.55177
289.74318
289.93887
290.13861
290.34209
290.54901
290.75897
290.97159
291.1864
291.40294
291.62069
291.83913
292.05769
292.27583
292.49297
292.70856
292.92206
293.13295
293.34074
293.54498
293.74527
293.94126
294.13265
294.3192
294.50072
294.67706
294.84815
295.01395
295.17444
295.32966
295.47969
295.62462
295.76459
295.89976
296.03036
296.15662
296.27883
296.39729
296.51228
296.62403
296.73266
296.83807
296.93983
297.03711
297.12857
297.21238
297.28657
297.34979
297.40279
297.45051
297.50409
297.5811
297.7045
297.90073
298.18208
298.50671
298.79231
298.93647
298.538
292.71293
284.19704
287.95494
286.02627
287.31118
286.77057
287.27915
287.21123
287.44277
287.54365
287.70316
287.85002
288.00645
288.16718
288.33321
288.50451
288.68107
288.86287
289.04982
289.24183
289.43874
289.64036
289.84644
290.05669
290.27078
290.48831
290.70886
290.93195
291.15707
291.38365
291.61112
291.83886
292.06627
292.2927
292.51754
292.74017
292.96001
293.17648
293.38909
293.59736
293.80087
293.99928
294.19231
294.37973
294.56139
294.73719
294.90711
295.07115
295.22939
295.38193
295.5289
295.67049
295.8069
295.93836
296.06513
296.18751
296.30581
296.42038
296.53155
296.63962
296.74481
296.8472
296.94663
297.0426
297.1342
297.22004
297.29831
297.36718
297.42564
297.47499
297.52095
297.5753
297.65593
297.78585
297.98974
298.27308
298.58845
298.85443
298.97038
298.52109
292.5762
284.01578
287.85288
285.90534
287.21809
286.69619
287.20317
287.16795
287.3966
287.52023
287.68892
287.85035
288.0201
288.1951
288.37579
288.56216
288.75415
288.95166
289.15455
289.36264
289.57568
289.79338
290.01539
290.2413
290.47066
290.70296
290.93763
291.17407
291.41164
291.64966
291.88745
292.12428
292.35947
292.59231
292.82213
293.04829
293.27019
293.48729
293.6991
293.90522
294.10531
294.29911
294.48642
294.66716
294.84126
295.00877
295.16978
295.32443
295.4729
295.61541
295.75221
295.8836
296.00986
296.13132
296.24832
296.36123
296.47043
296.57628
296.67914
296.77932
296.87699
296.97219
297.06467
297.15386
297.23875
297.31792
297.38961
297.45216
297.50495
297.54992
297.59356
297.64826
297.73212
297.86798
298.07813
298.36141
298.66535
298.90907
299.00071
298.51589
292.46434
283.87379
287.77878
285.81607
287.14897
286.64092
287.15874
287.13585
287.4009
287.54284
287.72338
287.90135
288.0869
288.27846
288.47612
288.6798
288.88941
289.10474
289.32557
289.55161
289.78249
290.0178
290.25705
290.49969
290.74512
290.99267
291.24165
291.49129
291.74083
291.98945
292.23636
292.48077
292.72189
292.95899
293.19138
293.41841
293.63954
293.85426
294.06219
294.26301
294.45649
294.64252
294.82104
294.99209
295.15578
295.31228
295.46183
295.6047
295.7412
295.87168
295.99649
296.11601
296.23062
296.34073
296.44675
296.54908
296.64814
296.74432
296.83797
296.92937
297.01865
297.10579
297.19043
297.27192
297.34919
297.42077
297.48496
297.54033
297.58667
297.62661
297.6674
297.72192
297.80837
297.94917
298.16374
298.44453
298.73519
298.9566
299.02902
298.51623
292.37279
283.77012
287.73631
285.75945
287.1276
286.6928
287.18484
287.22525
287.45027
287.6164
287.81219
288.00919
288.21345
288.42424
288.64149
288.86505
289.09471
289.33017
289.57108
289.817
290.06742
290.32178
290.5794
290.83958
291.10152
291.3644
291.62733
291.88942
292.14974
292.40737
292.66143
292.91104
293.1554
293.39377
293.62547
293.84994
294.06671
294.27539
294.47573
294.66757
294.85085
295.02562
295.19201
295.35022
295.50054
295.64331
295.77889
295.90771
296.03019
296.14679
296.25796
296.36415
296.46584
296.56345
296.65745
296.74828
296.83635
296.92206
297.00574
297.08761
297.16775
297.24605
297.32208
297.39509
297.46393
297.52712
297.58304
297.63049
297.66974
297.70408
297.74147
297.79516
297.88329
298.02752
298.2441
298.52009
298.79658
298.99331
299.05033
298.51522
292.30091
283.7066
287.72947
285.75604
287.16464
286.74778
287.25141
287.30628
287.55831
287.74963
287.96417
288.18275
288.40867
288.64154
288.88116
289.12727
289.37951
289.63744
289.90054
290.16818
290.43968
290.71423
290.99098
291.26899
291.54728
291.82481
292.10054
292.3734
292.64235
292.90638
293.16454
293.41594
293.6598
293.89544
294.12228
294.33989
294.54795
294.74627
294.93478
295.11354
295.28271
295.44254
295.59337
295.7356
295.86968
295.99611
296.11542
296.22814
296.33482
296.43598
296.53216
296.62387
296.71161
296.79586
296.87708
296.95572
297.03218
297.10682
297.17994
297.2517
297.3221
297.39095
297.45773
297.5216
297.58135
297.6355
297.68252
297.72149
297.75315
297.78143
297.81486
297.86691
297.95553
298.10114
298.31662
298.58555
298.84845
299.01798
299.05974
298.50897
292.25285
283.69322
287.76702
285.90941
287.25583
286.87782
287.36892
287.47313
287.73192
287.9511
288.18832
288.43151
288.68234
288.94041
289.20543
289.47691
289.75435
290.03708
290.32435
290.61531
290.909
291.20437
291.50031
291.79564
292.08915
292.37961
292.6658
292.94652
293.22066
293.48716
293.74508
293.99359
294.23203
294.45985
294.67668
294.8823
295.07662
295.25972
295.4318
295.59316
295.74422
295.88546
296.01743
296.14073
296.25599
296.36384
296.46493
296.5599
296.64936
296.73392
296.81415
296.89058
296.96372
297.03406
297.10204
297.16808
297.23255
297.29577
297.35797
297.41923
297.47949
297.53845
297.5955
297.64974
297.6999
297.74451
297.7822
297.8123
297.83601
297.85784
297.88671
297.9362
298.02386
298.16836
298.37889
298.63752
298.88807
299.03139
299.05177
298.4957
292.23576
283.7437
287.85424
286.0359
287.38761
287.07107
287.55721
287.70494
287.98101
288.2304
288.4946
288.766
289.04536
289.33211
289.62576
289.9256
290.23084
290.54055
290.85366
291.16899
291.48529
291.8012
292.11531
292.42618
292.7324
293.03253
293.32525
293.60929
293.88353
294.14697
294.3988
294.63837
294.86522
295.0791
295.27991
295.46776
295.64288
295.80567
295.95663
296.09635
296.22551
296.34483
296.45505
296.55695
296.65128
296.73881
296.82026
296.89634
296.9677
297.03497
297.09872
297.15949
297.21777
297.27401
297.32861
297.38195
297.43436
297.48606
297.5372
297.58781
297.63771
297.68653
297.73358
297.77787
297.81813
297.85292
297.881
297.902
297.91756
297.93261
297.95633
298.00222
298.08725
298.22791
298.42938
298.67266
298.9086
299.03649
299.02506
298.47345
292.25385
283.86114
288.00315
286.25201
287.58201
287.33825
287.82059
288.01705
288.31533
288.59832
288.89431
289.19816
289.51018
289.82945
290.15521
290.48639
290.82183
291.16021
291.50007
291.83986
292.17793
292.5126
292.84218
293.16497
293.47939
293.78391
294.07717
294.35796
294.6253
294.87841
295.11674
295.33997
295.54803
295.74104
295.91932
296.08337
296.2338
296.37136
296.49686
296.61119
296.71524
296.80994
296.89619
296.97489
297.04691
297.11304
297.17408
297.23073
297.28365
297.33347
297.38071
297.42588
297.46943
297.51174
297.55317
297.59403
297.63454
297.67488
297.7151
297.75512
297.79469
297.83333
297.87029
297.90453
297.93477
297.95963
297.97803
297.9899
297.99723
298.00525
298.0232
298.06437
298.14492
298.27891
298.4679
298.69133
298.9048
299.02849
298.98391
298.44166
292.30937
284.05338
288.21686
286.54288
287.84407
287.6866
288.1705
288.41865
288.74687
289.06796
289.40119
289.74252
290.09178
290.44765
290.8089
291.17398
291.54125
291.90888
292.27497
292.6375
292.99448
293.34387
293.68374
294.01226
294.32777
294.62881
294.91417
295.1829
295.43437
295.6682
295.88431
296.08291
296.2644
296.4294
296.57872
296.71328
296.83407
296.94218
297.0387
297.12474
297.20138
297.26969
297.33065
297.38524
297.43434
297.47878
297.51931
297.55664
297.59138
297.62409
297.65526
297.68532
297.71465
297.74356
297.77234
297.80119
297.83028
297.85966
297.8893
297.91903
297.9485
297.97715
298.00416
298.02846
298.04876
298.06378
298.07262
298.07548
298.07463
298.07545
298.08709
298.12243
298.19647
298.32086
298.49468
298.69755
298.88711
298.9907
298.92195
298.40265
292.40668
284.33395
288.49912
286.91971
288.1943
288.12784
288.62042
288.92452
289.29112
289.65622
290.03285
290.41714
290.80834
291.20452
291.60382
292.0041
292.40311
292.79847
293.18776
293.56854
293.93846
294.29528
294.63696
294.96172
295.26807
295.55489
295.8214
296.0672
296.29222
296.49676
296.68138
296.84688
296.99428
297.12473
297.23948
297.33986
297.42721
297.50285
297.56809
297.62417
297.67227
297.7135
297.74889
297.77937
297.80582
297.82902
297.84967
297.86839
297.88573
297.90217
297.91812
297.93392
297.94987
297.9662
297.98311
298.0007
298.01904
298.03809
298.05772
298.07767
298.0975
298.11655
298.13395
298.1486
298.15926
298.16473
298.16431
298.15842
298.14955
298.14308
298.14792
298.17637
298.24192
298.35381
298.50979
298.69162
298.86031
298.94357
298.84952
298.3583
292.55007
284.72158
288.84662
287.39469
288.64111
288.67697
289.18841
289.55424
289.96879
290.38492
290.81133
291.24379
291.68073
292.11948
292.55742
292.99169
293.41936
293.83746
294.2431
294.63351
295.00617
295.35888
295.68983
295.99764
296.28142
296.54071
296.77553
296.98629
297.17378
297.33905
297.48341
297.60832
297.71536
297.80615
297.88232
297.94549
297.99721
298.03894
298.07208
298.0979
298.11758
298.13219
298.14271
298.15001
298.15487
298.15798
298.15995
298.1613
298.16248
298.16388
298.1658
298.1685
298.17218
298.17698
298.183
298.19026
298.19872
298.20825
298.21862
298.22947
298.24028
298.25031
298.25865
298.26416
298.26564
298.26204
298.25281
298.2386
298.22196
298.20815
298.20575
298.22624
298.28139
298.37815
298.51371
298.67267
298.82041
298.88477
298.75692
298.313
292.74435
285.24596
289.26758
287.98595
289.20672
289.357
289.89999
290.33449
290.80655
291.28061
291.76218
292.24643
292.73068
293.21139
293.685
294.14784
294.59631
295.02694
295.4366
295.82251
296.18247
296.51479
296.81844
297.09295
297.33847
297.55561
297.74547
297.90946
298.04927
298.16679
298.26399
298.34288
298.40546
298.45368
298.48939
298.51432
298.53008
298.53816
298.5399
298.53652
298.52909
298.51858
298.50585
298.49165
298.47663
298.46136
298.44632
298.43194
298.41854
298.40639
298.39572
298.38668
298.37937
298.37386
298.37012
298.36811
298.36769
298.36862
298.3706
298.37318
298.37574
298.3775
298.37747
298.37452
298.3675
298.35546
298.33803
298.316
298.29189
298.27075
298.26064
298.27206
298.31497
298.3944
298.50783
298.64313
298.76819
298.81047
298.66129
298.26999
293.00116
285.94741
289.80234
288.72415
289.92134
290.19867
290.7872
291.29709
291.83491
292.37244
292.91235
293.44889
293.97802
294.49504
294.99543
295.47475
295.92904
296.3548
296.74927
297.11042
297.43707
297.7288
297.98593
298.20945
298.40087
298.56211
298.69539
298.80314
298.88783
298.95199
298.99806
299.02838
299.04516
299.05043
299.04608
299.0338
299.01511
298.99136
298.96377
298.93339
298.90114
298.86782
298.83414
298.80068
298.76795
298.73639
298.70635
298.67811
298.6519
298.62789
298.6062
298.58688
298.56997
298.55542
298.54315
298.533
298.52476
298.51811
298.51266
298.50787
298.50307
298.4974
298.48985
298.47927
298.46456
298.44487
298.41998
298.3907
298.35949
298.33102
298.31271
298.31394
298.34298
298.40346
298.49362
298.60419
298.70441
298.7254
298.57538
298.22917
293.34689
286.79555
290.47661
289.64586
290.82219
291.23618
291.88563
292.47742
293.0873
293.69109
294.28822
294.87168
295.43582
295.97488
296.48372
296.95788
297.3939
297.78931
298.14281
298.45408
298.72381
298.95349
299.14526
299.30175
299.42591
299.52086
299.58976
299.63573
299.66177
299.67071
299.66516
299.64751
299.61992
299.58432
299.54242
299.49573
299.44557
299.39307
299.33923
299.2849
299.23078
299.1775
299.12558
299.07544
299.02745
298.98188
298.93896
298.89886
298.8617
298.82755
298.79644
298.76835
298.74322
298.72095
298.70136
298.68422
298.66923
298.65603
298.64414
298.63295
298.62173
298.60957
298.59543
298.57817
298.55672
298.53031
298.49877
298.46292
298.42503
298.3893
298.36236
298.3524
298.36628
298.40665
298.4729
298.55814
298.63311
298.63577
298.49083
298.19083
293.8215
287.77265
291.33685
290.78573
291.95228
292.51062
293.23742
293.91673
294.60036
295.26614
295.90991
296.5234
297.09998
297.63382
298.12056
298.55721
298.94237
299.276
299.55936
299.79472
299.98514
300.13423
300.24592
300.32426
300.37328
300.39687
300.3987
300.38216
300.35034
300.30601
300.25166
300.18945
300.12129
300.04882
299.97348
299.89647
299.81884
299.74145
299.66506
299.59026
299.51758
299.44744
299.38016
299.31604
299.25526
299.19799
299.14433
299.09435
299.04806
299.00545
298.96648
298.93106
298.89906
298.87031
298.84457
298.82154
298.80088
298.78213
298.76477
298.74815
298.73148
298.71382
298.69409
298.67117
298.64401
298.61189
298.57465
298.53301
298.48899
298.44628
298.41054
298.3887
298.3865
298.40636
298.44843
298.50762
298.55726
298.54425
298.40966
298.15624
294.47878
289.02309
292.42672
292.19517
293.37131
294.07937
294.89454
295.65917
296.40553
297.11326
297.77553
298.38429
298.934
299.42107
299.84411
300.2036
300.50172
300.74193
300.92863
301.06681
301.16173
301.21867
301.24279
301.23893
301.21157
301.16475
301.10211
301.02686
300.94178
300.84931
300.75153
300.65021
300.54688
300.44279
300.33902
300.23646
300.13584
300.03775
299.9427
299.85106
299.76315
299.67922
299.59943
299.52391
299.45275
299.38598
299.3236
299.26557
299.21186
299.16236
299.11697
299.07556
299.03793
299.00385
298.97305
298.94517
298.91981
298.89648
298.87461
298.8535
298.83234
298.81015
298.78587
298.75836
298.7266
298.68985
298.64791
298.6014
298.55202
298.50289
298.45863
298.42474
298.40634
298.40556
298.42397
298.45605
298.48056
298.45462
298.33463
298.12663
295.37201
290.61203
293.83066
293.95276
295.15721
296.00902
296.90439
297.73083
298.50466
299.20936
299.83898
300.38896
300.85818
301.24806
301.56226
301.80605
301.98581
302.10845
302.18108
302.21064
302.20369
302.16625
302.10378
302.0211
301.92243
301.81143
301.69122
301.56447
301.43341
301.29994
301.16561
301.03173
300.89937
300.76939
300.64251
300.51929
300.40017
300.28551
300.17556
300.07053
299.97054
299.87568
299.78599
299.70148
299.62211
299.54782
299.47853
299.41414
299.35452
299.29954
299.24903
299.20281
299.16066
299.12229
299.0874
299.0556
299.02645
298.99942
298.97392
298.94922
298.9245
298.89876
298.87094
298.83991
298.80465
298.76439
298.71885
298.66848
298.61467
298.55996
298.50799
298.46287
298.42844
298.40874
298.40445
298.4095
298.40909
298.37082
298.2662
298.10104
296.48072
292.66074
295.65298
296.14113
297.37628
298.3437
299.27531
300.10481
300.83907
301.46963
301.99671
302.42319
302.75521
303.00081
303.16928
303.27033
303.31361
303.30823
303.26259
303.18419
303.07961
302.95457
302.81391
302.66175
302.50152
302.33609
302.16782
301.99865
301.83016
301.66364
301.50011
301.34041
301.18517
301.03489
300.88998
300.7507
300.61725
300.48977
300.36834
300.25299
300.14371
300.04045
299.94315
299.85172
299.76603
299.68595
299.61133
299.54201
299.47782
299.41856
299.36405
299.31406
299.26833
299.22658
299.18845
299.15354
299.1214
299.09148
299.06316
299.03572
299.0083
298.97993
298.94954
298.91602
298.87833
298.83568
298.78766
298.73453
298.67736
298.61814
298.55968
298.50521
298.45794
298.42055
298.39409
298.37494
298.35021
298.29919
298.20706
298.07863
297.99187
295.28143
297.98924
298.81436
300.02662
301.05467
301.93499
302.67171
303.27423
303.7465
304.099
304.34405
304.49539
304.56682
304.57153
304.52162
304.42783
304.29947
304.14447
303.96948
303.78001
303.58061
303.37498
303.1661
302.95638
302.74777
302.54179
302.33965
302.1423
301.95047
301.7647
301.58542
301.41291
301.24736
301.0889
300.93759
300.79342
300.65636
300.52635
300.40328
300.28705
300.17751
300.07451
299.97789
299.88745
299.80302
299.72438
299.65133
299.58366
299.52115
299.46357
299.41067
299.36219
299.3178
299.27715
299.23984
299.20541
299.17331
299.1429
299.11346
299.08415
299.05398
299.02192
298.98686
298.94776
298.90378
298.85441
298.79971
298.74042
298.67806
298.61475
298.55298
298.4952
298.44347
298.39844
298.35736
298.31213
298.25062
298.16486
298.06102
299.94207
298.54439
300.83871
301.94944
303.13232
303.99866
304.70869
305.24142
305.61938
305.8609
305.98708
306.01787
305.97168
305.86468
305.71069
305.5212
305.30569
305.0718
304.82566
304.57214
304.31509
304.05754
303.80183
303.54979
303.30281
303.06196
302.82803
302.60161
302.38309
302.17277
301.97081
301.7773
301.59225
301.41563
301.24735
301.0873
300.93534
300.79132
300.65505
300.52636
300.40504
300.29089
300.18371
300.08325
299.98931
299.90164
299.82002
299.7442
299.67394
299.609
299.54912
299.49403
299.44345
299.39705
299.35449
299.31538
299.27924
299.24555
299.21369
299.18291
299.15238
299.12115
299.08819
299.05245
299.01288
298.96859
298.91901
298.86399
298.80398
298.74008
298.67383
298.60709
298.54166
298.479
298.41943
298.36101
298.29885
298.22697
298.14302
298.05185
302.35925
302.44036
304.44346
305.42124
306.31983
306.93746
307.35307
307.58776
307.67775
307.65242
307.53835
307.35743
307.12753
306.86281
306.57439
306.27086
305.95881
305.64329
305.3281
305.0161
304.70943
304.40967
304.11795
303.8351
303.56168
303.29806
303.04446
302.80097
302.5676
302.34431
302.13098
301.92746
301.73357
301.54911
301.37386
301.20759
301.05005
300.90101
300.76022
300.62742
300.50237
300.38483
300.27452
300.17121
300.07464
299.98455
299.90068
299.82277
299.75057
299.68381
299.62221
299.56548
299.51333
299.46543
299.42143
299.38097
299.34359
299.30879
299.27595
299.24435
299.21316
299.18147
299.14828
299.11258
299.07335
299.0297
298.98098
298.92689
298.86764
298.80394
298.73686
298.66768
298.5976
298.52753
298.45751
298.38607
298.31028
298.22759
298.13879
298.04891
305.38545
306.81022
308.14629
308.85732
309.34645
309.56946
309.60862
309.50537
309.3001
309.02286
308.69685
308.33933
307.96304
307.57728
307.18881
306.80247
306.42175
306.04907
305.68615
305.33412
304.99374
304.66547
304.34952
304.04599
303.75483
303.47592
303.20907
302.95405
302.71062
302.47847
302.25733
302.04688
301.84682
301.65683
301.47661
301.30584
301.14423
300.99148
300.84728
300.71136
300.58344
300.46323
300.35047
300.24487
300.14618
300.05413
299.96845
299.88887
299.81513
299.74694
299.68401
299.62603
299.57269
299.52366
299.47859
299.43711
299.39883
299.36324
299.32976
299.2977
299.26626
299.23455
299.20164
299.16655
299.12833
299.08608
299.03911
298.98704
298.92987
298.86799
298.80207
298.73283
298.661
298.58705
298.51071
298.43027
298.3429
298.24722
298.14667
298.04952
309.28342
311.101
311.66299
311.86713
311.83195
311.61791
311.28758
310.88298
310.43412
309.96153
309.47917
308.99643
308.51958
308.05273
307.59854
307.15865
306.73402
306.32513
305.93216
305.55505
305.1936
304.84751
304.51641
304.1999
303.89756
303.60896
303.33365
303.07121
302.82121
302.58322
302.35685
302.14169
301.93735
301.74347
301.55968
301.38563
301.22097
301.06538
300.91854
300.78014
300.64989
300.52749
300.41266
300.30512
300.20461
300.11086
300.02362
299.94261
299.86758
299.79822
299.73424
299.67532
299.6211
299.57125
299.5254
299.48319
299.44423
299.40808
299.37418
299.34191
299.31049
299.2791
299.24682
299.21273
299.17593
299.13555
299.09089
299.04148
298.98721
298.92823
298.86481
298.79724
298.72582
298.65074
298.57143
298.48539
298.38847
298.27859
298.16164
298.05257
314.18822
314.60364
314.37001
314.02578
313.52861
312.95988
312.35589
311.74209
311.13273
310.53642
309.958
309.40008
308.86386
308.34973
307.85757
307.38692
306.93718
306.50762
306.09751
305.70605
305.33252
304.97615
304.63625
304.31215
304.00319
303.70878
303.42832
303.16128
302.90713
302.66538
302.43555
302.21721
302.00992
301.81327
301.62687
301.45035
301.28335
301.12551
300.97652
300.83605
300.70379
300.57946
300.46277
300.35344
300.25122
300.15585
300.06709
299.98469
299.90839
299.83792
299.77296
299.71317
299.65819
299.60763
299.56111
299.51826
299.47869
299.442
299.40771
299.37524
299.3439
299.31288
299.28131
299.24829
299.21295
299.17443
299.13202
299.08523
299.03384
298.97784
298.91725
298.85204
298.78225
298.70794
298.62811
298.53913
298.4349
298.31205
298.17866
298.05652
316.18291
316.37067
315.84536
315.11143
314.36103
313.60732
312.87185
312.16229
311.48233
310.83307
310.21433
309.62524
309.06461
308.5311
308.02334
307.53999
307.07976
306.64143
306.22388
305.82604
305.44694
305.08567
304.74138
304.41329
304.10067
303.80285
303.5192
303.24913
302.99208
302.74753
302.51499
302.294
302.08411
301.88491
301.69598
301.51696
301.34747
301.18717
301.03573
300.89282
300.75813
300.63139
300.5123
300.4006
300.29605
300.1984
300.10742
300.02289
299.94457
299.87221
299.80551
299.74412
299.68766
299.63573
299.58792
299.54382
299.50306
299.46527
299.43003
299.39682
299.365
299.33379
299.30233
299.26974
299.23511
299.1976
299.15649
299.11128
299.06172
299.00772
298.94919
298.88595
298.81795
298.74511
298.66606
298.57613
298.46761
298.33614
298.1913
298.05963
312.0325
309.73417
305.26746
301.95778
300.55692
300.25749
300.21581
300.21327
300.0815
300.02729
299.93677
299.83663
299.74043
299.64761
299.55688
299.46556
299.37387
299.28187
299.18959
299.09706
299.00435
298.91156
298.81882
298.72625
298.63401
298.54225
298.4511
298.36072
298.27127
298.1829
298.09575
298.00998
297.92575
297.84321
297.76255
297.68394
297.60757
297.53365
297.46239
297.39405
297.32889
297.26718
297.20922
297.15536
297.10593
297.06132
297.02192
296.98818
296.96054
296.93949
296.92555
296.91925
296.92117
296.93189
296.95199
296.98201
297.02246
297.07371
297.13599
297.20924
297.29294
297.38602
297.48664
297.59187
297.69793
297.79931
297.8911
297.9635
298.01557
298.02515
298.00975
297.91499
297.81483
297.59364
297.44947
297.23844
297.21157
297.18711
297.46244
298.17122
310.94827
307.02943
302.0623
299.65936
299.02628
299.06395
299.16953
299.17241
299.16043
299.12613
299.09178
299.05357
299.00903
298.95884
298.9047
298.84722
298.78671
298.72338
298.65756
298.58952
298.51955
298.44792
298.3749
298.30075
298.22573
298.15008
298.07404
297.99785
297.92173
297.84591
297.77062
297.69609
297.62253
297.55017
297.47924
297.40999
297.34267
297.27752
297.21484
297.15491
297.09803
297.04453
296.99475
296.94905
296.90781
296.87141
296.84029
296.81488
296.79564
296.78304
296.77759
296.77981
296.79022
296.80937
296.83777
296.87589
296.92413
296.98276
297.05187
297.13121
297.22011
297.31726
297.42061
297.52707
297.63272
297.73215
297.82045
297.88855
297.93538
297.94061
297.92095
297.82541
297.72613
297.51525
297.38529
297.18744
297.18621
297.19134
297.49594
298.21673
309.04403
304.58025
300.76909
298.89194
298.53413
298.57236
298.60244
298.57566
298.54323
298.5092
298.47751
298.44212
298.4049
298.36522
298.32366
298.27982
298.23379
298.18561
298.13537
298.08317
298.02914
297.97342
297.91617
297.85754
297.79774
297.73694
297.67536
297.61319
297.55064
297.48796
297.42535
297.36305
297.3013
297.24036
297.18048
297.12193
297.06499
297.00996
296.95715
296.90687
296.85948
296.81532
296.77476
296.7382
296.70602
296.67864
296.6565
296.64003
296.6297
296.62598
296.62935
296.64031
296.65936
296.68699
296.72365
296.76975
296.82559
296.89132
296.9669
297.05194
297.14559
297.24637
297.35203
297.4594
297.56447
297.66194
297.74707
297.8114
297.85392
297.85583
297.83361
297.73832
297.64217
297.44205
297.32882
297.14396
297.16448
297.19798
297.53456
298.27357
307.4735
302.79166
299.49016
298.047
297.95095
297.97539
297.99274
297.95788
297.93574
297.90643
297.88176
297.8535
297.82467
297.79399
297.76227
297.72898
297.6942
297.65789
297.62002
297.58061
297.53969
297.49733
297.45359
297.40858
297.36241
297.3152
297.2671
297.21827
297.16889
297.11914
297.06923
297.01938
296.96981
296.92078
296.87254
296.82537
296.77956
296.73542
296.69328
296.65348
296.61638
296.58234
296.55177
296.52505
296.50261
296.48486
296.47224
296.4652
296.4642
296.46969
296.48215
296.50206
296.52987
296.56602
296.61093
296.66491
296.72818
296.80078
296.88255
296.97296
297.07099
297.17502
297.28267
297.39065
297.49499
297.59054
297.67276
297.73377
297.77259
297.77226
297.7483
297.65454
297.56309
297.3741
297.28003
297.10837
297.14811
297.20814
297.57865
298.32678
306.36223
301.35364
298.41268
297.34995
297.39129
297.3769
297.39761
297.36073
297.34854
297.32375
297.3071
297.28537
297.26438
297.24193
297.21909
297.19511
297.17013
297.14404
297.11681
297.08841
297.05883
297.02809
296.99621
296.96325
296.92926
296.89435
296.8586
296.82215
296.78512
296.74768
296.70999
296.67225
296.63468
296.59749
296.56094
296.5253
296.49086
296.45793
296.42683
296.3979
296.37152
296.34805
296.3279
296.31146
296.29916
296.29141
296.28866
296.29135
296.29992
296.31483
296.33653
296.36546
296.40204
296.44669
296.49974
296.56144
296.63192
296.71113
296.79877
296.89419
296.99625
297.10319
297.21251
297.32091
297.42444
297.51819
297.59784
297.65612
297.69222
297.69044
297.66565
297.57468
297.48932
297.31189
297.23863
297.08064
297.13726
297.22321
297.62369
298.37184
305.59374
300.04387
297.53493
296.69632
296.81179
296.76795
296.8058
296.76915
296.77083
296.75252
296.746
296.73229
296.72034
296.70674
296.693
296.67826
296.66271
296.64624
296.62883
296.61046
296.59112
296.57082
296.54959
296.52745
296.50445
296.48067
296.45618
296.43107
296.40547
296.3795
296.35331
296.32707
296.30098
296.27524
296.2501
296.22579
296.20261
296.18084
296.16081
296.14285
296.12732
296.11459
296.10505
296.09909
296.09712
296.09958
296.10687
296.11943
296.1377
296.16211
296.19308
296.23104
296.27637
296.32941
296.39046
296.4597
296.53716
296.6227
296.71591
296.81602
296.92176
297.03129
297.14205
297.25071
297.35344
297.44557
297.52306
297.5792
297.6134
297.61094
297.5866
297.49942
297.42106
297.25629
297.20408
297.06061
297.13097
297.24438
297.66778
298.41014
304.87772
298.82884
296.80235
296.09755
296.26597
296.1957
296.25214
296.21374
296.22796
296.2143
296.21668
296.20983
296.20556
296.19943
296.19339
296.18654
296.17907
296.17089
296.16197
296.15231
296.1419
296.13075
296.11886
296.10627
296.09302
296.07916
296.06476
296.0499
296.03468
296.01921
296.00363
295.9881
295.97278
295.95787
295.94359
295.93018
295.91789
295.90701
295.89784
295.8907
295.88592
295.88387
295.88492
295.88945
295.89785
295.91053
295.92789
295.95035
295.97832
296.0122
296.05241
296.09932
296.15328
296.21458
296.28345
296.36001
296.4442
296.53578
296.63425
296.73872
296.84785
296.9597
297.07169
297.18053
297.28252
297.37327
297.44904
297.50366
297.53673
297.53431
297.5117
297.42916
297.35851
297.20572
297.17667
297.04695
297.12862
297.27213
297.71179
298.43875
304.21039
297.80854
296.19738
295.55036
295.76201
295.6663