/*--------------------------------*- C++ -*----------------------------------*\
  =========                 |
  \\      /  F ield         | OpenFOAM: The Open Source CFD Toolbox
   \\    /   O peration     | Website:  https://openfoam.org
    \\  /    A nd           | Version:  12
     \\/     M anipulation  |
\*---------------------------------------------------------------------------*/
FoamFile
{
    format      ascii;
    class       volScalarField;
    location    "0.15";
    object      omega;
}
// * * * * * * * * * * * * * * * * * * * * * * * * * * * * * * * * * * * * * //

dimensions      [0 0 -1 0 0 0 0];

internalField   nonuniform List<scalar> 
16000
(
1090.3207
2190.8457
1070.3274
644.34331
454.60913
316.13913
239.84842
181.06825
145.86235
118.10559
100.35511
85.897379
75.183647
66.23127
58.927201
52.772948
47.577851
43.146988
39.339829
36.0443
33.176228
30.664635
28.451123
26.489114
24.741072
23.177796
21.775107
20.514332
19.379641
18.356591
17.432124
16.59594
15.839833
15.156861
14.541096
13.987031
13.489481
13.043554
12.645164
12.290862
11.976772
11.698819
11.454038
11.239734
11.052839
10.890235
10.749499
10.628331
10.524526
10.435992
10.360857
10.297481
10.244332
10.20006
10.163492
10.133735
10.110189
10.0926
10.081281
10.076916
10.077422
10.07751
10.076984
10.076108
10.074756
10.072874
10.070394
10.06725
10.063348
10.058556
10.052655
10.045238
10.03597
10.026511
10.0193
10.014241
10.011462
10.018358
10.011003
10.025321
1132.0251
2182.1888
1061.5437
644.71407
454.75149
319.01916
240.90599
182.87023
146.68577
119.13005
100.89244
86.456442
75.540319
66.540509
59.150417
52.946048
47.704151
43.23852
39.404117
36.086962
33.2021
30.678261
28.456097
26.488321
24.736355
23.170626
21.766255
20.504214
19.368757
18.345683
17.421667
16.586052
15.83049
15.147925
14.532465
13.978667
13.481459
13.035889
12.637679
12.283503
11.969779
11.692211
11.44768
11.233609
11.04711
10.884913
10.744552
10.623747
10.520315
10.432161
10.357382
10.294349
10.241527
10.197566
10.161265
10.131692
10.108208
10.090461
10.078506
10.072933
10.072955
10.073005
10.07238
10.071412
10.069981
10.068031
10.065492
10.062296
10.058352
10.053522
10.047617
10.040281
10.031225
10.022364
10.015636
10.010729
10.008979
10.013
10.011602
10.026131
1172.1394
2183.711
1050.2758
641.06836
451.39275
319.2658
239.80812
183.05668
146.23719
119.28336
100.73666
86.464791
75.435367
66.440548
59.017723
52.801898
47.549305
43.078603
39.2431
35.92711
33.045289
30.526479
28.310776
26.350665
24.606773
23.049446
21.653341
20.399158
19.271174
18.255547
17.338883
16.51026
15.761257
15.084727
14.474821
13.926146
13.433765
12.992773
12.598712
12.248233
11.938133
11.663999
11.422532
11.211179
11.027305
10.867532
10.72935
10.610494
10.508819
10.42226
10.348886
10.2871
10.235375
10.192383
10.156922
10.128034
10.105066
10.087644
10.075693
10.069507
10.068918
10.068848
10.068076
10.066964
10.0654
10.06333
10.060681
10.057386
10.053352
10.048438
10.04247
10.035151
10.026232
10.018036
10.01183
10.007421
10.006144
10.009157
10.012149
10.026426
1210.4682
2192.0797
1040.4353
637.6342
447.6211
319.30144
238.41103
183.0812
145.64812
119.336
100.52984
86.411468
75.289477
66.29358
58.844892
52.619312
47.359254
42.885878
39.051709
35.739172
32.862404
30.350503
28.14296
26.192171
24.457893
22.910438
21.524027
20.279066
19.159768
18.152693
17.244467
16.423876
15.682437
15.012888
14.409427
13.866694
13.379877
12.944177
12.554985
12.208792
11.902843
11.632667
11.394775
11.186538
11.005648
10.848635
10.712927
10.596274
10.496563
10.41178
10.339963
10.279548
10.229018
10.187074
10.152518
10.124373
10.101963
10.084896
10.073038
10.066531
10.065254
10.06501
10.06406
10.06277
10.061041
10.058819
10.05603
10.052605
10.048455
10.043436
10.037375
10.03006
10.02125
10.013717
10.008069
10.0042
10.003152
10.005721
10.011033
10.024437
1246.8254
2210.4494
1032.1302
633.92247
443.10293
318.59907
236.33463
182.62047
144.68262
119.11114
100.13541
86.181949
75.0049
66.014776
58.557392
52.332985
47.076359
42.609301
38.784491
35.482568
32.617085
30.117613
27.923084
25.986003
24.265323
22.731397
21.358076
20.125523
19.017789
18.021868
17.12453
16.314274
15.582585
14.922067
14.326975
13.791966
13.312339
12.883446
12.500615
12.160019
11.859376
11.594243
11.360978
11.156738
10.979606
10.826059
10.693453
10.579549
10.482259
10.399653
10.329731
10.270974
10.221875
10.181172
10.147686
10.120429
10.098705
10.082109
10.07047
10.063817
10.061973
10.061492
10.060331
10.058826
10.056897
10.054489
10.051527
10.04794
10.043646
10.038496
10.032309
10.024973
10.016345
10.009478
10.004426
10.001092
10.000198
10.002774
10.009818
10.02037
1281.0686
2236.3455
1028.2817
630.94195
439.10968
317.26947
233.78126
181.7518
143.44465
118.64662
99.59763
85.79829
74.601025
65.621323
58.169699
51.95611
46.712125
42.259102
38.450427
35.165251
32.316404
29.834138
27.656852
25.73719
24.03361
22.516446
21.159234
19.941954
18.848398
17.865985
16.98177
16.183946
15.464006
14.814393
14.229431
13.703784
13.232837
12.812107
12.436995
12.103233
11.808937
11.54979
11.322101
11.122643
10.949939
10.800467
10.671501
10.560818
10.466331
10.386235
10.318486
10.261619
10.214142
10.174832
10.142544
10.116286
10.095342
10.079298
10.067968
10.061296
10.059023
10.058254
10.056849
10.0551
10.05294
10.050316
10.047154
10.043378
10.038912
10.033614
10.027277
10.019885
10.011568
10.005369
10.000938
9.9981266
9.9973929
10.000037
10.008125
10.016631
1313.157
2267.3787
1028.395
628.1182
435.17705
315.30193
231.13414
180.51107
142.03323
117.94543
98.925512
85.259374
74.074147
65.111158
57.678649
51.485738
46.263496
41.832329
38.046447
34.784258
31.957551
29.49744
27.34191
25.443075
23.760292
22.263346
20.925466
19.726538
18.650002
17.683654
16.814985
16.031862
15.325834
14.689153
14.116217
13.601698
13.141045
12.729917
12.363933
12.03848
11.751629
11.499414
11.278269
11.084431
10.916822
10.772025
10.647227
10.540229
10.44891
10.371643
10.306327
10.251569
10.20589
10.168113
10.137135
10.111975
10.091901
10.076482
10.06553
10.058944
10.056367
10.055267
10.053591
10.051571
10.049154
10.046287
10.0429
10.038911
10.034249
10.028789
10.022295
10.014784
10.006991
10.001459
9.9976561
9.9953615
9.9948161
9.9975118
10.005958
10.01306
1343.2004
2301.0083
1030.0577
624.97907
431.31542
312.68709
228.49431
179.03874
140.52028
117.02905
98.13589
84.573741
73.425387
64.486316
57.084333
50.921301
45.729356
41.327775
37.570461
34.337408
31.538416
29.105469
26.976571
25.100072
23.441925
21.968885
20.653812
19.476589
18.420216
17.47276
16.62232
15.85641
15.166691
14.545181
13.986363
13.484914
13.03634
12.636397
12.280975
11.966061
11.687804
11.443444
11.229782
11.042514
10.880635
10.741066
10.620937
10.518057
10.430229
10.356073
10.293417
10.240953
10.197223
10.161092
10.131518
10.107536
10.088403
10.07367
10.063147
10.056723
10.053955
10.052492
10.050522
10.048209
10.045511
10.042381
10.038748
10.034529
10.029647
10.024008
10.01738
10.009689
10.002664
9.9977968
9.9946166
9.9928341
9.9925213
9.9952129
10.003315
10.009903
1371.2938
2335.0363
1028.5159
621.06482
426.53363
309.3711
224.96288
177.17207
138.67951
115.92808
97.224369
83.740436
72.647704
63.742055
56.381713
50.257055
45.104003
40.740315
37.014419
33.816613
31.051252
28.650822
26.554311
24.708966
23.079862
21.634855
20.346344
19.194361
18.161433
17.235755
16.406229
15.660017
14.988964
14.384804
13.842115
13.355581
12.920767
12.53352
12.189794
11.885557
11.61721
11.381711
11.176462
10.99725
10.841725
10.707885
10.592962
10.494596
10.410553
10.339743
10.279934
10.229915
10.188255
10.15386
10.125754
10.103009
10.084874
10.070877
10.06082
10.054604
10.051737
10.049889
10.047604
10.044982
10.041986
10.038576
10.034682
10.030219
10.025103
10.019261
10.012547
10.004797
9.9986345
9.9944284
9.9918529
9.9905735
9.9905412
9.9932294
10.000825
10.007193
1397.5326
2367.8356
1019.8968
616.06755
420.04209
305.61229
220.60068
174.83384
136.78553
114.64506
96.18062
82.754142
71.733035
62.870362
55.562732
49.480114
44.373519
40.056588
36.376687
33.22274
30.498587
28.137109
26.078582
24.268819
22.673448
21.260744
20.002718
18.879677
17.873673
16.972831
16.166971
15.443055
14.793137
14.208599
13.684124
13.214399
12.795046
12.422004
12.091388
11.79923
11.54185
11.316063
11.119799
10.948544
10.800086
10.672442
10.563596
10.470107
10.39016
10.322883
10.266074
10.218612
10.179108
10.146508
10.119911
10.098437
10.081336
10.068115
10.058548
10.052561
10.049657
10.047412
10.044801
10.041857
10.038553
10.034849
10.030683
10.025968
10.020612
10.014542
10.00776
10.000304
9.9949408
9.9913882
9.9893908
9.9886019
9.9888849
9.9915261
9.9984218
10.004683
1422.0312
2398.7063
1010.9985
610.00177
411.89771
301.45461
215.98474
172.29803
134.7928
113.1807
94.991812
81.607795
70.669719
61.850682
54.604832
48.585587
43.539248
39.280615
35.655309
32.553909
29.878531
27.562634
25.548206
23.779746
22.223047
20.847076
19.623666
18.533456
17.558052
16.685305
15.905644
15.206677
14.580424
14.017824
13.513668
13.062645
12.660435
12.303049
11.986776
11.70774
11.462351
11.247216
11.060645
10.898089
10.757176
10.635895
10.532793
10.444544
10.369285
10.305682
10.252032
10.207203
10.169909
10.139133
10.114055
10.09386
10.077811
10.065392
10.056336
10.050574
10.047659
10.045019
10.042072
10.038802
10.035183
10.03118
10.026733
10.02176
10.01617
10.009872
10.00296
9.9962108
9.9916175
9.9887007
9.9872477
9.9869303
9.9875583
9.9901541
9.9962632
10.002207
1444.9152
2428.6687
997.57953
602.39453
402.35741
296.88812
211.19514
169.5065
132.77466
111.5408
93.630836
80.271058
69.42
60.676566
53.511575
47.570149
42.59742
38.408959
34.848701
31.808942
29.190769
26.927485
24.963418
23.242117
21.72944
20.394453
19.210003
18.156716
17.215763
16.374715
15.622502
14.951166
14.351172
13.812889
13.331205
12.900796
12.517421
12.177137
11.876445
11.611581
11.379084
11.176138
10.999761
10.846319
10.713402
10.598867
10.501738
10.418766
10.347876
10.288082
10.237943
10.195835
10.160782
10.131833
10.108254
10.08932
10.074314
10.06271
10.054187
10.048632
10.045688
10.042664
10.03938
10.035784
10.03185
10.027545
10.022817
10.017584
10.011763
10.005288
9.9982034
9.9925362
9.988684
9.9863796
9.9854326
9.9855573
9.9865394
9.9891067
9.9944881
9.9998837
1466.495
2456.8537
980.24508
593.88658
392.31225
291.91144
206.33538
166.51654
130.7048
109.70347
92.032594
78.727245
67.988953
59.34197
52.276439
46.430018
41.545289
37.439867
33.955712
30.987211
28.435085
26.232095
24.324483
22.656569
21.193857
19.902438
18.761428
17.749352
16.846811
16.041624
15.322679
14.681592
14.110286
13.598532
13.141254
12.733095
12.369948
12.047881
11.763647
11.513688
11.294453
11.103047
10.937375
10.793441
10.668881
10.561822
10.470663
10.393093
10.326806
10.270717
10.223702
10.184595
10.151829
10.124697
10.102575
10.084858
10.070864
10.060064
10.052098
10.046741
10.043694
10.040309
10.036689
10.032772
10.02853
10.023927
10.018919
10.01343
10.007375
10.000806
9.9940649
9.9892799
9.9861483
9.9844278
9.9839475
9.9844737
9.9857988
9.988355
9.9931513
9.9982972
1487.0064
2479.5332
958.74527
584.81775
381.82079
286.57832
201.49113
163.33481
128.5121
107.57355
90.181302
76.965502
66.363761
57.838627
50.893294
45.160381
40.379583
36.371017
32.975273
30.087754
27.611319
25.477267
23.629979
22.021787
20.615823
19.377462
18.284983
17.31875
16.458771
15.692947
15.009983
14.401684
13.860889
13.377562
12.94635
12.56179
12.220007
11.917034
11.649863
11.415293
11.209862
11.030547
10.875626
10.74127
10.62501
10.524791
10.439618
10.367408
10.306135
10.253873
10.209865
10.173342
10.143091
10.117799
10.097082
10.080512
10.067478
10.057443
10.050051
10.044921
10.041635
10.037916
10.033969
10.029741
10.025199
10.020306
10.015023
10.009295
10.003033
9.9963235
9.9904408
9.9864636
9.9840059
9.9828375
9.9827874
9.9836654
9.9853078
9.9879077
9.9921077
9.9969715
1506.7072
2492.0409
933.12757
575.10112
370.95137
280.92062
196.73707
159.88213
126.07627
105.15832
88.049625
74.968047
64.53194
56.156407
49.354774
43.75617
39.097395
35.200094
31.90671
29.107445
26.7166
24.66139
22.888374
21.347653
20.005136
18.825322
17.786549
16.870189
16.056619
15.333589
14.689594
14.116366
13.606112
13.152573
12.748689
12.388695
12.069089
11.78585
11.536111
11.317167
11.125674
10.959345
10.815095
10.690224
10.582366
10.489182
10.409787
10.342555
10.285679
10.237642
10.196657
10.162519
10.134399
10.111153
10.091827
10.07632
10.064178
10.054841
10.048
10.043179
10.039487
10.035455
10.031195
10.026668
10.021841
10.016673
10.011123
10.005163
9.9987883
9.9921825
9.9873344
9.9840877
9.9822449
9.9815908
9.9819399
9.9831156
9.9850134
9.9877638
9.991734
9.9963363
1525.8175
2484.0133
903.774
564.78275
359.75084
274.94436
192.06671
156.03109
123.32011
102.41287
85.607848
72.712176
62.477475
54.284232
47.653511
42.211877
37.696013
33.921184
30.745622
28.055052
25.763393
23.79791
22.107704
20.642428
19.369737
18.254613
17.274572
16.409984
15.645902
14.968338
14.365433
13.829517
13.353045
12.929826
12.553868
12.218797
11.921598
11.65827
11.425877
11.222436
11.044331
10.889619
10.755942
10.640328
10.540722
10.455096
10.381412
10.318975
10.266098
10.221758
10.184134
10.152307
10.126074
10.104582
10.086817
10.072311
10.06099
10.052272
10.04588
10.041343
10.037238
10.032906
10.028349
10.023538
10.01844
10.013016
10.007223
10.001039
9.9945947
9.9887454
9.9847277
9.982148
9.9808484
9.9806633
9.9813842
9.9828144
9.9848855
9.987802
9.9917481
9.9962118
1544.5056
2435.2699
872.14992
553.89594
348.27615
268.56197
187.16982
151.75394
120.13023
99.289453
82.822331
70.173272
60.184552
52.212544
45.782969
40.518074
36.168017
32.545958
29.508341
26.941685
24.763192
22.898886
21.300662
19.918654
18.719368
17.673707
16.75711
15.950195
15.237727
14.607465
14.046885
13.548856
13.106167
12.713119
12.364747
12.054387
11.77929
11.535738
11.320449
11.132163
10.967236
10.823739
10.700076
10.593257
10.501194
10.422224
10.354652
10.296851
10.247703
10.206699
10.172025
10.14276
10.11825
10.098308
10.081899
10.068501
10.057925
10.049772
10.043706
10.039334
10.034878
10.030258
10.025422
10.020345
10.014991
10.009331
10.003329
9.9970002
9.9906118
9.9858801
9.9826162
9.9806322
9.9797988
9.980028
9.9810871
9.9827446
9.9849227
9.9879762
9.9920661
9.9964992
1562.6368
2399.6152
840.25248
542.38365
336.53003
261.23148
182.12018
146.94757
116.39296
95.730155
79.658101
67.327342
57.637903
49.933146
43.730786
38.686443
34.534952
31.089843
28.211475
25.785882
23.733829
21.98182
20.480686
19.189055
18.07139
17.098827
16.248109
15.500281
14.840192
14.257409
13.739302
13.279047
12.869885
12.506209
12.183236
11.89684
11.643027
11.418695
11.220986
11.047183
10.895001
10.762154
10.647815
10.549313
10.464377
10.391467
10.329099
10.275905
10.230644
10.192656
10.160662
10.133654
10.110995
10.0924
10.077227
10.064858
10.054975
10.047367
10.041549
10.037154
10.032407
10.027514
10.022418
10.017094
10.011504
10.005625
9.9994451
9.993076
9.9874368
9.9835292
9.9809609
9.9795197
9.9790802
9.9796585
9.9810063
9.9828711
9.98514
9.9882736
9.9925235
9.9970166
1579.7545
2357.6932
807.43705
529.91065
324.40988
252.71852
176.72429
141.49691
111.99986
91.674006
76.081758
64.153688
54.818961
47.431715
41.522343
36.739473
32.820836
29.579289
26.880372
24.611887
22.694313
21.064526
19.671222
18.474051
17.440194
16.542289
15.758034
15.06943
14.461141
13.923289
13.446577
13.022901
12.646126
12.311189
12.013769
11.749942
11.516175
11.309446
11.127195
10.967139
10.827206
10.705349
10.599632
10.508789
10.43048
10.363222
10.305653
10.256577
10.21492
10.179705
10.150137
10.125221
10.104309
10.086902
10.072783
10.061271
10.052105
10.045028
10.039488
10.034817
10.029836
10.024691
10.019352
10.013799
10.007998
10.001926
9.9956486
9.989446
9.9848683
9.9816713
9.9797027
9.9787662
9.9786883
9.9795306
9.9811001
9.9831339
9.9855128
9.9886977
9.9929453
9.9974448
1595.1932
2289.8983
772.96313
515.97747
311.15081
242.87429
170.66749
135.2625
106.85059
87.062294
72.06759
60.633209
51.745185
44.756158
39.194052
34.71596
31.063776
28.049322
25.542922
23.444771
21.675472
20.173514
18.890957
17.789915
16.839918
16.015689
15.296029
14.663333
14.105786
13.612487
13.175013
12.786021
12.439727
12.131487
11.857554
11.614635
11.399529
11.209309
11.041576
10.894089
10.764999
10.652695
10.555775
10.471867
10.399602
10.337513
10.284311
10.23888
10.200261
10.167902
10.140466
10.11738
10.098007
10.08186
10.068671
10.057893
10.049293
10.042656
10.037372
10.032372
10.027186
10.021817
10.016255
10.01049
10.004506
9.9982758
9.9919477
9.9866267
9.9828284
9.9802649
9.9787847
9.978264
9.978545
9.9796184
9.9813403
9.9834778
9.9859591
9.9892073
9.9933811
9.9978155
1607.8602
2221.0275
735.92872
500.00638
297.10447
231.50341
163.4792
128.07731
100.86853
81.865238
67.609942
56.807012
48.478521
41.965516
36.805534
32.668899
29.310086
26.537105
24.239792
22.31917
20.70143
19.329119
18.157268
17.150722
16.28176
15.527809
14.868403
14.29011
13.779922
13.327872
12.926807
12.569949
12.251956
11.968464
11.71603
11.491944
11.293738
11.118451
10.96399
10.828178
10.709157
10.605969
10.516225
10.438647
10.371794
10.31437
10.265152
10.223109
10.187384
10.157234
10.131723
10.110244
10.092241
10.077238
10.064889
10.05476
10.04661
10.040261
10.035134
10.029865
10.024487
10.018931
10.013177
10.007211
10.001062
9.9948179
9.9887369
9.9843668
9.9812612
9.9792596
9.9781993
9.977962
9.9786317
9.9798721
9.9817023
9.9838858
9.9864286
9.9897308
9.9938083
9.998091
1614.9549
2137.5147
696.09916
480.29749
282.00647
218.28626
154.68456
119.80392
94.053649
76.130524
62.793007
52.783403
45.115989
39.146375
34.431008
30.65971
27.605463
25.089144
23.004209
21.261927
19.793996
18.548056
17.483083
16.566878
15.774069
15.084549
14.482078
13.953036
13.486384
13.071932
12.703789
12.375961
12.083628
11.822759
11.589993
11.382715
11.199546
11.037475
10.894728
10.769466
10.659884
10.564247
10.481125
10.409157
10.347083
10.293767
10.248107
10.208985
10.175926
10.147775
10.123932
10.103824
10.086985
10.073026
10.061424
10.051891
10.04415
10.037968
10.032845
10.027359
10.021792
10.016069
10.010171
10.004056
9.9977223
9.9914077
9.9862913
9.9825809
9.9800678
9.9785653
9.977894
9.9778223
9.9788098
9.9802285
9.9821394
9.98435
9.9869247
9.9902506
9.9942522
9.9983389
1611.3086
2035.0454
652.95982
454.54933
265.67741
202.87265
144.04276
110.46732
86.557486
69.98677
57.80312
48.71038
41.77737
36.39441
32.148018
28.752532
26.003462
23.742556
21.865722
20.29517
18.96957
17.842317
16.876938
16.044709
15.322861
14.693329
14.141699
13.656162
13.226942
12.846114
12.507134
12.204905
11.935162
11.694398
11.479645
11.288356
11.118348
10.967804
10.834987
10.718343
10.616396
10.52763
10.450362
10.383408
10.325543
10.27574
10.233328
10.196949
10.165894
10.139514
10.117159
10.09823
10.082451
10.069228
10.05826
10.049242
10.041935
10.035927
10.030576
10.024942
10.019192
10.013292
10.00725
10.001076
9.9948082
9.9887169
9.984391
9.9812499
9.9791862
9.9780427
9.9776792
9.9780767
9.9790389
9.9806166
9.9825889
9.9848382
9.9874549
9.9907638
9.9946371
9.9984694
1590.7683
1903.9099
606.72089
422.08626
248.12143
185.05533
131.77678
100.39439
78.730666
63.760225
52.861942
44.753819
38.586318
33.803073
30.028321
27.003652
24.54773
22.529528
20.847897
19.436118
18.240585
17.220666
16.344638
15.587398
14.928823
14.35273
13.846269
13.39952
13.003801
12.65214
12.338517
12.058431
11.808066
11.584303
11.384515
11.206455
11.048143
10.907798
10.783799
10.674648
10.579038
10.496141
10.423949
10.361386
10.307344
10.260806
10.220863
10.18668
10.157398
10.132454
10.111439
10.093603
10.078558
10.065951
10.055473
10.046883
10.039818
10.033943
10.028418
10.022676
10.016801
10.010753
10.004529
9.9981725
9.9919092
9.9867352
9.9829543
9.9803164
9.9786516
9.9778161
9.9775791
9.9782455
9.9793451
9.9809914
9.9829949
9.9852721
9.9879396
9.9912497
9.9950276
9.9986372
1544.491
1743.9173
558.54668
383.69996
230.26206
165.10886
118.57369
90.210671
71.030963
57.775565
48.19444
41.074056
35.659854
31.457182
28.133192
25.459901
23.27821
21.475166
19.968802
18.697829
17.616605
16.690167
15.891311
15.198508
14.594414
14.064725
13.596948
13.183111
12.815497
12.48864
12.196533
11.935233
11.70132
11.491994
11.304891
11.137983
10.989485
10.857787
10.741413
10.638986
10.549213
10.470872
10.402783
10.343659
10.292524
10.248409
10.210501
10.178245
10.150581
10.126969
10.106869
10.08983
10.075431
10.063304
10.053249
10.044877
10.03796
10.032125
10.026436
10.020596
10.014639
10.008538
10.002284
9.9959246
9.9897621
9.9852387
9.9819065
9.9796473
9.9782948
9.9777443
9.9776667
9.9784777
9.9796737
9.9813497
9.9833484
9.9856212
9.9882953
9.9915643
9.9952468
9.9987032
1464.2977
1581.5681
509.42307
344.16858
206.27467
145.78873
105.37559
80.604977
63.914971
52.34682
44.016441
37.826499
33.108786
29.432705
26.511093
24.148603
22.209236
20.5964
19.240293
18.089726
17.105504
16.257789
15.523216
14.883254
14.322973
13.830205
13.394928
13.00884
12.665202
12.358403
12.083796
11.837722
11.61711
11.419425
11.242521
11.084544
10.94385
10.818944
10.708432
10.611006
10.525437
10.450647
10.385924
10.32966
10.280993
10.23901
10.202899
10.171921
10.145411
10.122724
10.103376
10.086936
10.073117
10.061422
10.051596
10.043385
10.036534
10.030671
10.024816
10.018841
10.012757
10.006554
10.000246
9.9939544
9.9882846
9.9841919
9.9812188
9.9792463
9.9781215
9.977747
9.9779376
9.9787208
9.9800035
9.9816854
9.983672
9.9859307
9.9885721
9.9917298
9.9952564
9.9986266
1351.9957
1493.6512
463.23638
296.73648
182.41327
127.6442
93.442797
72.098508
57.7567
47.767605
40.546057
35.162517
31.036749
27.799858
25.20878
23.098872
21.355503
19.896714
18.66171
17.608163
16.702309
15.918425
15.236209
14.639428
14.114919
13.651922
13.241533
12.876422
12.550637
12.259698
11.998675
11.764375
11.553984
11.365194
11.196045
11.044838
10.910069
10.790365
10.684445
10.591095
10.509143
10.437443
10.374872
10.320497
10.273371
10.232648
10.197558
10.167436
10.141815
10.119858
10.101128
10.085181
10.071647
10.060202
10.05056
10.042466
10.035665
10.029777
10.023804
10.017713
10.011503
10.005176
9.9987773
9.9925177
9.9873257
9.9835289
9.9808211
9.9790604
9.9781071
9.9778113
9.9781444
9.9789967
9.9803088
9.981995
9.9839783
9.9862407
9.9888564
9.9918978
9.9952502
9.9985405
1219.1216
1251.7763
423.00902
254.42351
160.22149
112.51074
83.567219
65.228508
52.88922
44.238209
37.936546
33.195718
29.528793
26.625816
24.282066
22.358261
20.756966
19.408349
18.26124
17.277336
16.427533
15.689182
15.044351
14.47856
13.979916
13.538529
13.146358
12.796649
12.483828
12.203292
11.951271
11.72462
11.520754
11.337508
11.173046
11.025773
10.894269
10.77724
10.673478
10.581852
10.501343
10.43122
10.369926
10.316624
10.270397
10.230425
10.19595
10.166289
10.140833
10.119043
10.100434
10.084585
10.071126
10.059736
10.050135
10.042071
10.03529
10.029408
10.023425
10.017305
10.011048
10.004652
9.9981704
9.9918718
9.986911
9.9832664
9.9806952
9.9790498
9.9782035
9.977967
9.9783569
9.9792433
9.9805661
9.9822494
9.9842347
9.9865048
9.9890941
9.9920292
9.9952295
9.9984662
1099.639
1113.7435
390.2931
223.67707
143.61734
101.37479
76.251061
60.223879
49.409172
41.761142
36.133254
31.858465
28.521204
25.856563
23.68834
21.895845
20.394056
19.121642
18.03341
17.095394
16.281571
15.571617
14.949376
14.40187
13.918965
13.490331
13.10871
12.767719
12.462117
12.187542
11.940399
11.717723
11.51706
11.336366
11.173903
11.028166
10.897814
10.78162
10.678433
10.587155
10.506732
10.436152
10.374452
10.320701
10.274027
10.233619
10.198731
10.168685
10.142871
10.120744
10.101821
10.08568
10.07195
10.060306
10.050469
10.042187
10.035213
10.029204
10.023327
10.017281
10.011125
10.004842
9.9984806
9.9922669
9.987201
9.9835161
9.9809109
9.9792457
9.9783894
9.9781518
9.9785424
9.9794215
9.9807339
9.9824084
9.9843968
9.9866761
9.9892464
9.9921022
9.9951934
9.998408
1044.7507
1072.6125
366.00213
206.57413
132.73295
93.809943
70.795332
56.244075
46.442888
39.501556
34.377688
30.46774
27.40208
24.944056
22.936187
21.270219
19.869654
18.679144
17.657808
16.774878
16.00677
15.335056
14.745046
14.224788
13.764387
13.355558
12.991281
12.665642
12.373671
12.111218
11.874845
11.661709
11.469462
11.296149
11.140122
10.99996
10.874404
10.762309
10.662603
10.574265
10.496311
10.427791
10.36779
10.315435
10.269901
10.230417
10.196273
10.166821
10.141475
10.119711
10.101065
10.085128
10.071541
10.05999
10.050202
10.041933
10.034941
10.028888
10.022941
10.016836
10.010621
10.004288
9.9978939
9.9917086
9.9869033
9.9833485
9.9808422
9.9792341
9.9783989
9.9781555
9.9786036
9.9794661
9.9807727
9.9824397
9.9844286
9.9867111
9.9892715
9.9920908
9.9951365
9.9983656
31545.373
79188.985
37101.315
10757.836
1417.2295
612.18002
434.62837
350.94607
290.74547
236.49956
192.67731
159.38919
134.77678
116.51119
102.45407
90.963361
81.23951
72.942698
65.837122
59.708556
54.379214
49.713273
45.605658
41.970872
38.743489
35.858933
33.271771
30.941953
28.837573
26.933446
25.208084
23.642335
22.219478
20.924802
19.746762
18.675641
17.702692
16.82016
16.020967
15.298674
14.647669
14.062384
13.53775
13.069202
12.652254
12.282672
11.956626
11.670086
11.41937
11.201125
11.012078
10.849111
10.70925
10.589962
10.488727
10.403343
10.333538
10.279041
10.239831
10.218432
10.211378
10.209578
10.207764
10.205166
10.202129
10.198698
10.194137
10.187391
10.177905
10.167983
10.152632
10.141816
10.112677
10.098974
10.067174
10.073148
10.012947
10.033144
9.9867723
10.00752
19944.454
59622.523
24690.177
5106.9408
974.15179
529.452
398.22026
321.76042
264.30921
212.92759
174.60791
145.76785
124.69618
108.89386
96.41746
85.952415
77.031923
69.411046
62.861751
57.184316
52.224173
47.864926
44.014273
40.596097
37.548418
34.8181
32.363673
30.147675
28.141953
26.323863
24.673572
23.173333
21.807749
20.563286
19.429617
18.397752
17.459528
16.607741
15.835753
15.137544
14.507869
13.941393
13.433359
12.979442
12.575331
12.216995
11.900778
11.622756
11.379422
11.167554
10.983979
10.825686
10.689804
10.573909
10.475565
10.392531
10.324223
10.271035
10.233035
10.212854
10.206399
10.204772
10.202977
10.200431
10.197467
10.194091
10.190046
10.183954
10.175125
10.165578
10.150793
10.140157
10.111701
10.098274
10.066577
10.07324
10.012991
10.033471
9.9875053
10.008216
28166.036
35559.32
13567.582
2559.0463
837.97764
499.46867
388.15882
306.45559
250.86724
201.33474
166.82644
139.66604
120.12013
105.20839
93.310442
83.256245
74.713346
67.416132
61.133692
55.678489
50.907063
46.709934
42.999037
39.701554
36.756595
34.11687
31.742194
29.596056
27.652366
25.889405
24.288044
22.831218
21.504225
20.294124
19.19129
18.187043
17.273548
16.443917
15.691752
15.01128
14.397475
13.845125
13.34968
12.906957
12.512754
12.163173
11.854671
11.583388
11.345947
11.139209
10.960072
10.805602
10.67302
10.559991
10.464007
10.383012
10.315926
10.263748
10.226675
10.207421
10.201413
10.199937
10.19818
10.1957
10.192814
10.189514
10.185739
10.180343
10.17221
10.163062
10.148876
10.138342
10.110729
10.097459
10.065912
10.073146
10.013055
10.033787
9.9882163
10.008925
35728.106
24025.224
8370.1231
1549.903
755.43001
476.14655
375.73805
290.49635
239.6301
190.64945
159.78616
133.74348
115.77511
101.66379
90.342422
80.694239
72.516898
65.521769
59.489332
54.2433
49.64929
45.604223
42.024286
38.839972
35.993687
33.437549
31.137634
29.057551
27.172806
25.462385
23.907839
22.492728
21.202973
20.026181
18.953382
17.976134
17.086916
16.279123
15.546568
14.883709
14.285717
13.747482
13.26466
12.833193
12.448974
12.108241
11.807551
11.543105
11.311656
11.110142
10.935532
10.784971
10.655835
10.545651
10.452099
10.37318
10.307521
10.256378
10.220264
10.201929
10.1964
10.195078
10.193363
10.190954
10.188151
10.184927
10.181196
10.176477
10.169072
10.16035
10.146794
10.136313
10.109612
10.096551
10.065187
10.072879
10.013132
10.034097
9.9889243
10.009582
40279.418
20458.769
5888.0089
1229.171
720.88991
458.67022
366.03043
278.01909
231.44292
182.48002
154.7978
129.13923
112.49628
98.848325
87.956472
78.608699
70.71634
63.952813
58.114358
53.03237
48.579067
44.655813
41.181725
38.089689
35.324076
32.839623
30.600434
28.576044
26.741463
25.076088
23.561985
22.183177
20.926078
19.778714
18.732657
17.779586
16.912253
16.124268
15.409603
14.762908
14.179505
13.654358
13.183305
12.762377
12.387549
12.055175
11.761895
11.503959
11.278239
11.081739
10.911491
10.764723
10.638892
10.531487
10.440307
10.363418
10.299279
10.249113
10.213917
10.196333
10.191376
10.190199
10.188533
10.186203
10.183485
10.180341
10.17669
10.172384
10.165734
10.157466
10.144568
10.134166
10.108356
10.095587
10.064394
10.072445
10.013222
10.034399
9.9896296
10.010176
43082.206
19085.99
4525.3441
1156.7977
700.38363
440.24004
358.50703
268.18386
225.17429
175.95776
150.88415
125.24184
109.78794
96.420997
85.901505
76.799273
69.146281
62.574753
56.899459
51.956486
47.623228
43.804455
40.421609
37.409516
34.714288
32.292028
30.106889
28.131749
26.341671
24.716522
23.238726
21.892682
20.665215
19.5447
18.52318
17.592388
16.745329
15.975783
15.277851
14.646346
14.076714
13.56397
13.104123
12.693267
12.327449
12.003125
11.717004
11.465377
11.245232
11.053627
10.887666
10.744684
10.622018
10.517346
10.428513
10.353635
10.291132
10.241904
10.207607
10.190808
10.186359
10.185307
10.183695
10.181449
10.17882
10.17576
10.172185
10.168066
10.162187
10.154401
10.142188
10.131872
10.106935
10.094552
10.063527
10.071841
10.013321
10.034692
9.9903346
10.010824
45308.581
17179.048
3631.07
1105.7506
685.01989
427.56461
352.57763
260.29068
220.32931
170.76611
147.76882
121.96189
107.54256
94.326833
84.130285
75.226752
67.774037
61.361989
55.82397
50.998736
46.767879
43.038756
39.734645
36.791914
34.158059
31.790445
29.654538
27.721766
25.971049
24.381824
22.936642
21.620182
20.419609
19.323587
18.324576
17.414297
16.586007
15.833605
15.151301
14.534052
13.977397
13.476389
13.027193
12.625945
12.268753
11.952166
11.67295
11.427427
11.2127
11.025884
10.864187
10.724783
10.605238
10.50326
10.416743
10.343854
10.283077
10.234762
10.201346
10.185365
10.181342
10.180405
10.178855
10.176698
10.174161
10.171185
10.167691
10.163616
10.158431
10.151158
10.139653
10.129432
10.105341
10.093343
10.062579
10.07106
10.013429
10.034978
9.9910414
10.011565
46952.561
14533.912
3061.0577
1074.5934