/*--------------------------------*- C++ -*----------------------------------*\
  =========                 |
  \\      /  F ield         | OpenFOAM: The Open Source CFD Toolbox
   \\    /   O peration     | Website:  https://openfoam.org
    \\  /    A nd           | Version:  12
     \\/     M anipulation  |
\*---------------------------------------------------------------------------*/
FoamFile
{
    format      ascii;
    class       surfaceScalarField;
    location    "0.15";
    object      phi;
}
// * * * * * * * * * * * * * * * * * * * * * * * * * * * * * * * * * * * * * //

dimensions      [1 0 -1 0 0 0 0];

internalField   nonuniform List<scalar> 
31760
(
-0.0006403071
-0.050895368
0.051535962
-0.0016051957
-0.064321204
0.065286618
-0.0026046227
-0.062966145
0.063967563
-0.0036246173
-0.06862902
0.069649348
-0.0047002972
-0.070306445
0.071382407
-0.005804311
-0.074570196
0.075674544
-0.0069787552
-0.077500891
0.078675627
-0.0081922078
-0.081507356
0.082721126
-0.0094663091
-0.085132238
0.086406653
-0.010799299
-0.089250715
0.090584035
-0.012188122
-0.09338635
0.094775512
-0.013644472
-0.097799299
0.099256007
-0.01516301
-0.1023767
0.10389562
-0.016751987
-0.10718057
0.10876995
-0.018410989
-0.11219971
0.11385914
-0.020144761
-0.11745077
0.119185
-0.02195597
-0.12294181
0.1247535
-0.023847816
-0.12868427
0.13057662
-0.02582354
-0.13468914
0.13666541
-0.02788654
-0.1409677
0.14303128
-0.03004025
-0.14753236
0.14968669
-0.03228843
-0.15439508
0.15664392
-0.034634676
-0.16156945
0.1639164
-0.037082894
-0.16906919
0.17151816
-0.039636055
-0.17690881
0.17946277
-0.042298739
-0.18510244
0.18776598
-0.045074838
-0.19366631
0.19644333
-0.047967774
-0.20261704
0.20551096
-0.050981039
-0.21197155
0.21498587
-0.054118672
-0.22174791
0.22488667
-0.057383972
-0.23196507
0.23523158
-0.060780261
-0.24264284
0.24604043
-0.064310338
-0.25380272
0.25733419
-0.067977236
-0.26546583
0.26913424
-0.071782931
-0.27765628
0.2814636
-0.075729064
-0.29039835
0.29434623
-0.079816943
-0.30371777
0.30780755
-0.084047019
-0.31764229
0.32187441
-0.088419076
-0.33219991
0.33657416
-0.092931763
-0.34742211
0.35193716
-0.097583038
-0.36334068
0.3679945
-0.10236943
-0.37998944
0.38477858
-0.10728628
-0.39740448
0.40232429
-0.11232773
-0.41562372
0.42066835
-0.11748597
-0.43468755
0.43984924
-0.12275183
-0.45463767
0.45990723
-0.12811368
-0.47551905
0.48088489
-0.13355854
-0.49737809
0.50282727
-0.13907088
-0.52026494
0.52578191
-0.14463235
-0.54423139
0.54979784
-0.15022186
-0.56933188
0.57492675
-0.1558159
-0.59562441
0.60122421
-0.16138705
-0.62316929
0.62874664
-0.16690435
-0.65203003
0.65755397
-0.1723333
-0.68227301
0.68770909
-0.17763396
-0.71396866
0.71927696
-0.18276224
-0.74718984
0.7523263
-0.18766873
-0.78201301
0.78692825
-0.19229703
-0.81851859
0.82315626
-0.19658502
-0.85679021
0.8610882
-0.20046263
-0.8969152
0.9008035
-0.20385208
-0.93898453
0.94238539
-0.2066661
-0.98309369
0.9859199
-0.20880744
-1.029342
1.0314964
-0.21016742
-1.0778312
1.0792051
-0.21062532
-1.1286676
1.1291403
-0.21004507
-1.1819597
1.1813952
-0.2082812
-1.2378182
1.236071
-0.20516654
-1.2963622
1.2932651
-0.20051335
-1.3577117
1.353077
-0.19411836
-1.4219882
1.4156124
-0.18576131
-1.4893134
1.4809763
-0.1751896
-1.5598196
1.5492683
-0.16213686
-1.6336463
1.6206141
-0.1462797
-1.7109653
1.6951286
-0.12742488
-1.7919044
1.7730695
-0.10467494
-1.8766143
1.8538819
-0.079006572
-1.9657597
1.9401109
-0.047529186
-2.05727
2.0258009
-2.1568162
2.1220312
-0.00063588023
-0.050259559
-0.0015058584
-0.063451191
-0.0024049059
-0.062065368
-0.0033659565
-0.067667999
-0.004338183
-0.069334172
-0.0053878093
-0.073520502
-0.0064528431
-0.07643574
-0.0075980436
-0.080362012
-0.0087693056
-0.083960791
-0.010015105
-0.088004703
-0.011304115
-0.09209709
-0.012660759
-0.096442378
-0.014075076
-0.10096207
-0.015556143
-0.10569916
-0.017104156
-0.11065133
-0.018723279
-0.11583125
-0.020415707
-0.12124895
-0.022185226
-0.12691428
-0.024035062
-0.1328388
-0.025968813
-0.13903342
-0.027990147
-0.14551045
-0.030102333
-0.15228228
-0.032309486
-0.15936164
-0.03461531
-0.16676266
-0.037024612
-0.17449875
-0.039540217
-0.18258602
-0.042166832
-0.19103883
-0.044908202
-0.19987474
-0.047768622
-0.20911013
-0.050751676
-0.21876378
-0.053861453
-0.22885413
-0.057101296
-0.23940174
-0.06047452
-0.25042814
-0.063984123
-0.26195476
-0.067632539
-0.27400628
-0.071422103
-0.28660708
-0.075353992
-0.29978404
-0.079429721
-0.31356458
-0.083648642
-0.32797884
-0.088010354
-0.34305808
-0.092513259
-0.35883528
-0.097154257
-0.37534575
-0.10192898
-0.39262685
-0.10683235
-0.41071721
-0.11185728
-0.42965923
-0.1169952
-0.44949609
-0.12223588
-0.47027443
-0.12756665
-0.49204305
-0.13297324
-0.51485376
-0.13843906
-0.53876062
-0.14394472
-0.56382088
-0.14946816
-0.59009523
-0.15498415
-0.61764713
-0.16046436
-0.64654318
-0.1658767
-0.67685355
-0.17118485
-0.70865286
-0.17634832
-0.74201816
-0.18132156
-0.77703099
-0.18605324
-0.8137775
-0.19048651
-0.85234686
-0.19455738
-0.89283353
-0.19819453
-0.93533582
-0.20131793
-0.97995792
-0.20383948
-1.0268072
-0.20565966
-1.0759968
-0.20666923
-1.1276428
-0.20674265
-1.1818701
-0.20574465
-1.2387989
-0.20352418
-1.2985644
-0.19991183
-1.3613049
-0.19472246
-1.4271575
-0.18774881
-1.4962663
-0.17876484
-1.5687823
-0.16751756
-1.644872
-0.15374412
-1.7247172
-0.13713994
-1.8084879
-0.11727265
-1.8964622
-0.094209432
-1.988804
-0.06645019
-2.0850193
-2.1879683
-0.00057500959
-0.049684451
-0.0013868902
-0.062639181
-0.0021956131
-0.061257424
-0.0031007448
-0.066762659
-0.0039952227
-0.06843948
-0.0049759916
-0.072539508
-0.0059583864
-0.075453111
-0.0070242612
-0.07929589
-0.0081094799
-0.082875312
-0.0092675416
-0.086846367
-0.010465552
-0.090898789
-0.011727593
-0.095180031
-0.013044688
-0.09964465
-0.014425117
-0.10431839
-0.015869562
-0.10920651
-0.017381627
-0.11431879
-0.018964668
-0.11966549
-0.020621645
-0.12525686
-0.022356837
-0.13110313
-0.024173078
-0.13721666
-0.026074862
-0.14360812
-0.028065721
-0.15029083
-0.030149542
-0.15727719
-0.032331116
-0.16458041
-0.03461372
-0.17221542
-0.037002573
-0.18019639
-0.039501129
-0.18853943
-0.042114463
-0.1972605
-0.044846135
-0.20637748
-0.047701299
-0.21590756
-0.05068307
-0.22587122
-0.05379578
-0.2362878
-0.057043239
-0.24717935
-0.060428138
-0.25856844
-0.063954071
-0.27047881
-0.067623208
-0.28293627
-0.071437794
-0.29596766
-0.075398348
-0.30960208
-0.07950589
-0.3238692
-0.083759911
-0.33880179
-0.08815863
-0.35443411
-0.092699936
-0.37080179
-0.097380462
-0.38794345
-0.10219476
-0.40589981
-0.10713684
-0.42471378
-0.11219876
-0.44443054
-0.11737131
-0.46509796
-0.12264262
-0.48676752
-0.12800016
-0.50949164
-0.13342834
-0.53332751
-0.13890904
-0.55833487
-0.14442293
-0.58457563
-0.14994675
-0.61211715
-0.15545467
-0.64102862
-0.16091759
-0.6713835
-0.16630265
-0.70326013
-0.17157335
-0.73673923
-0.17668759
-0.77190791
-0.18159996
-0.80885565
-0.18625806
-0.84767859
-0.1906045
-0.88847618
-0.19457433
-0.93135429
-0.19809599
-0.97642369
-0.20108869
-1.023801
-0.20346256
-1.0736085
-0.20511656
-1.1259733
-0.20594262
-1.1810274
-0.20581472
-1.2389091
-0.20459312
-1.2997672
-0.20212913
-1.363749
-0.19824857
-1.4310172
-0.19276895
-1.5017243
-0.18547893
-1.5760501
-0.17615457
-1.6541737
-0.16454911
-1.7363001
-0.15037013
-1.8226451
-0.13332914
-1.9134825
-0.11319
-2.0089241
-0.08911009
-2.1090879
-2.2153737
-0.00051854032
-0.049165804
-0.0012697006
-0.061887835
-0.0020066523
-0.060520209
-0.0028588194
-0.065910301
-0.0036870223
-0.067611096
-0.0046008698
-0.07162546
-0.0055062419
-0.074547533
-0.0064985634
-0.078303348
-0.007503562
-0.081870081
-0.0085806835
-0.085768999
-0.0096946287
-0.08978458
-0.010869718
-0.094004662
-0.012097977
-0.098416091
-0.0133867
-0.10302935
-0.014737572
-0.1078553
-0.016154377
-0.11290162
-0.017640422
-0.11817905
-0.019199102
-0.12369776
-0.020833898
-0.12946788
-0.022549175
-0.1355009
-0.024348111
-0.14180866
-0.026235784
-0.1484026
-0.028216114
-0.15529626
-0.030293103
-0.16250277
-0.032471918
-0.17003591
-0.034756525
-0.17791103
-0.037151975
-0.18614317
-0.039662622
-0.19474898
-0.042293928
-0.20374523
-0.045049261
-0.21315121
-0.047933759
-0.22298562
-0.050951794
-0.23326857
-0.054107061
-0.24402279
-0.057403446
-0.25527065
-0.060844357
-0.26703638
-0.064432248
-0.27934674
-0.068169331
-0.2922288
-0.072057519
-0.30571197
-0.076097157
-0.31982749
-0.080288289
-0.33460841
-0.084630314
-0.35008965
-0.089120557
-0.36630891
-0.093756225
-0.38330494
-0.098532966
-0.40111998
-0.10344487
-0.41979854
-0.10848548
-0.43938633
-0.11364513
-0.4599344
-0.11891495
-0.48149349
-0.12428219
-0.50411984
-0.1297333
-0.52787149
-0.13525267
-0.55281018
-0.14082178
-0.57900079
-0.14642045
-0.6065123
-0.15202591
-0.63541651
-0.15761115
-0.66579109
-0.16314789
-0.6977157
-0.1686027
-0.73127614
-0.17393879
-0.76656291
-0.17911503
-0.80366983
-0.18408505
-0.84269829
-0.18879719
-0.88375298
-0.19319363
-0.92694597
-0.1972102
-0.97239434
-0.20077464
-1.0202228
-0.20380654
-1.0705618
-0.20621812
-1.1235458
-0.20790417
-1.1793242
-0.20875892
-1.238036
-0.20865392
-1.2998526
-0.20745637
-1.3649259
-0.20501251
-1.4334394
-0.20114551
-1.5055687
-0.19567804
-1.5814943
-0.18839927
-1.6614288
-0.17908898
-1.7455867
-0.16748826
-1.8342228
-0.15334041
-1.9276083
-0.13635336
-2.0258918
-0.11598593
-2.1294429
-2.2388889
-0.00046308565
-0.048702639
-0.0011668197
-0.061183958
-0.0018262745
-0.059860578
-0.0026219704
-0.065114447
-0.0033760736
-0.066856841
-0.0042319345
-0.070769427
-0.0050704525
-0.073708833
-0.0059970777
-0.077376526
-0.0069307217
-0.080936225
-0.0079346582
-0.084764836
-0.0089742093
-0.088744785
-0.010072413
-0.092906198
-0.011223432
-0.097264792
-0.012433461
-0.10181902
-0.013704894
-0.10658354
-0.015040848
-0.11156532
-0.016445085
-0.11677444
-0.017921397
-0.12222105
-0.019473486
-0.12791536
-0.021105397
-0.13386853
-0.022821857
-0.1400917
-0.024626229
-0.14659769
-0.026524042
-0.15339787
-0.028519899
-0.16050629
-0.030618338
-0.16793679
-0.032824657
-0.17570398
-0.035144081
-0.18382296
-0.037581572
-0.19231063
-0.040142076
-0.2011838
-0.04283082
-0.21046146
-0.045652702
-0.22016265
-0.048612223
-0.23030788
-0.051713766
-0.24091998
-0.054961715
-0.25202133
-0.058359257
-0.26363735
-0.061909509
-0.27579487
-0.065615002
-0.28852156
-0.06947767
-0.30184741
-0.073498297
-0.3158048
-0.077677302
-0.33042718
-0.082013671
-0.34575087
-0.086506259
-0.36181371
-0.091151809
-0.37865655
-0.095946668
-0.39632205
-0.1008864
-0.41485548
-0.10596405
-0.43430507
-0.11117243
-0.45472212
-0.11650244
-0.47615926
-0.12194338
-0.49867434
-0.12748374
-0.5223262
-0.13310905
-0.54717954
-0.13880389
-0.5733002
-0.14455023
-0.60075975
-0.15032775
-0.6296323
-0.15611409
-0.65999754
-0.16188345
-0.69193858
-0.16760659
-0.72554464
-0.17325211
-0.76090839
-0.17878332
-0.79812894
-0.18416017
-0.83731101
-0.18933685
-0.87856508
-0.19426279
-0.92200794
-0.19888101
-0.9677631
-0.20312831
-1.0159615
-0.20693383
-1.0667411
-0.21021706
-1.1202462
-0.21289291
-1.1766308
-0.21485578
-1.2360542
-0.21600519
-1.2986831
-0.21620758
-1.3647021
-0.21533429
-1.4342901
-0.21323083
-1.5076486
-0.20973008
-1.5849707
-0.20464963
-1.6664844
-0.19778659
-1.7524249
-0.18891274
-1.8430724
-0.17780248
-1.9386954
-0.16416367
-2.0395106
-0.14760734
-2.145985
-2.2583227
-0.00041323209
-0.04828933
-0.0010759022
-0.060521154
-0.0016724842
-0.059263891
-0.0024100086
-0.064376777
-0.0030879541
-0.066178744
-0.0038922316
-0.069964984
-0.0046638035
-0.072937085
-0.0055306776
-0.076509463
-0.0064006953
-0.080066005
-0.0073427643
-0.083822551
-0.0083218541
-0.087765462
-0.0093575551
-0.091870249
-0.010446283
-0.096175796
-0.011592712
-0.1006723
-0.012799673
-0.10537627
-0.014071034
-0.11029363
-0.015410302
-0.11543482
-0.01682136
-0.1208096
-0.018308714
-0.12642759
-0.019876364
-0.13230043
-0.021529414
-0.13843817
-0.023272687
-0.1448539
-0.025111332
-0.15155866
-0.027050465
-0.15856655
-0.029095709
-0.16589089
-0.031252884
-0.17354609
-0.033526736
-0.18154833
-0.035923578
-0.18991295
-0.038448717
-0.19865775
-0.041107544
-0.20780165
-0.043905656
-0.21736347
-0.04684764
-0.22736473
-0.049938901
-0.23782746
-0.05318275
-0.24877611
-0.056583708
-0.2602349
-0.060145128
-0.27223184
-0.063869233
-0.28479571
-0.067758035
-0.29795671
-0.071813115
-0.31174767
-0.076034578
-0.32620349
-0.08042236
-0.34136067
-0.084974506
-0.35725894
-0.08968934
-0.37393888
-0.094563669
-0.39144464
-0.099592486
-0.40982333
-0.10477077
-0.42912318
-0.11009282
-0.44939616
-0.11554984
-0.470698
-0.12113395
-0.49308564
-0.1268338
-0.5166214
-0.13263883
-0.54136916
-0.1385351
-0.56739815
-0.14450761
-0.59478099
-0.15053931
-0.62359385
-0.1566109
-0.65391868
-0.16270064
-0.68584099
-0.16878482
-0.719452
-0.17483537
-0.75484872
-0.18082182
-0.79213267
-0.18670912
-0.83141313
-0.19245906
-0.87280373
-0.19802769
-0.91642701
-0.20336624
-0.96241127
-0.20841973
-1.0108937
-0.21312658
-1.0620188
-0.21741769
-1.1159384
-0.22121592
-1.1728145
-0.22443734
-1.2328134
-0.2269801
-1.2961195
-0.22874318
-1.3629168
-0.22960164
-1.4334082
-0.22942333
-1.5078024
-0.22806063
-1.586308
-0.22534971
-1.6691693
-0.22111125
-1.7566373
-0.21514882
-1.8490094
-0.2072482
-1.9465717
-0.19715681
-2.0495812
-0.18457086
-2.1585548
-2.2734509
-0.00037064819
-0.047918608
-0.0010023734
-0.059889301
-0.0015440892
-0.058722056
-0.0022341475
-0.06368658
-0.0028525858
-0.065560162
-0.0036087725
-0.069208641
-0.0043242244
-0.072221466
-0.0051296509
-0.075703858
-0.0059577501
-0.079237713
-0.0068534351
-0.082926661
-0.0077862426
-0.086832432
-0.0087720845
-0.09088417
-0.0098105983
-0.095137025
-0.010905833
-0.099576795
-0.012061847
-0.10421996
-0.013282137
-0.10907302
-0.014571567
-0.11414504
-0.015934241
-0.11944656
-0.017374966
-0.12498646
-0.018899148
-0.13077581
-0.020511397
-0.13682545
-0.022217931
-0.14314685
-0.02402397
-0.14975206
-0.025935218
-0.1566547
-0.027958039
-0.16386742
-0.030098082
-0.17140534
-0.032362246
-0.1792834
-0.034756101
-0.18751826
-0.03728539
-0.19612756
-0.039956735
-0.20512933
-0.042775154
-0.21454398
-0.045746252
-0.22439248
-0.048874723
-0.23469773
-0.052165706
-0.24548376
-0.055622277
-0.25677685
-0.05924813
-0.26860438
-0.063046406
-0.28099568
-0.067018814
-0.29398241
-0.071166506
-0.30759792
-0.075490159
-0.3218776
-0.079989761
-0.33685864
-0.084664089
-0.35258198
-0.089511619
-0.36908849
-0.094529223
-0.38642394
-0.09971402
-0.40463518
-0.1050615
-0.42377206
-0.11056623
-0.44388748
-0.11622276
-0.46503721
-0.12202314
-0.48728065
-0.12795998
-0.51067956
-0.13402328
-0.53530046
-0.14020272
-0.56121287
-0.14648662
-0.58849078
-0.15286089
-0.61721278
-0.15931038
-0.64746183
-0.16581729
-0.67932615
-0.17236232
-0.7128984
-0.17892303
-0.74827876
-0.18547406
-0.78557166
-0.19198737
-0.82488905
-0.19843029
-0.8663492
-0.20476697
-0.91007778
-0.21095623
-0.95620844
-0.21695227
-1.004883
-0.22270337
-1.0562518
-0.22815064
-1.1104739
-0.23322874
-1.1677178
-0.23786516
-1.228157
-0.24197479
-1.2919884
-0.24546536
-1.3594033
-0.24823705
-1.4306122
-0.25017059
-1.5058433
-0.25113535
-1.5853167
-0.25099542
-1.6692821
-0.24958851
-1.758017
-0.24674396
-1.8518272
-0.24227781
-1.9510122
-0.23595374
-2.0558834
-0.22754295
-2.1669476
-2.284023
-0.00032734582
-0.047591192
-0.000933372
-0.059283155
-0.0014256522
-0.058229665
-0.0020696458
-0.063042455
-0.0026437209
-0.064985952
-0.00337176
-0.068480452
-0.0040540069
-0.07153906
-0.0048442807
-0.074913413
-0.0056326126
-0.078449197
-0.0064819079
-0.082077169
-0.0073721617
-0.085941964
-0.0083148138
-0.089941289
-0.0093123846
-0.094139206
-0.010368313
-0.0985206
-0.011487044
-0.10310094
-0.012673163
-0.10788659
-0.013930633
-0.11288723
-0.01526544
-0.11811138
-0.016682417
-0.12356909
-0.018187247
-0.12927056
-0.019785774
-0.13522645
-0.021484008
-0.14144811
-0.023288262
-0.14794726
-0.025205787
-0.15473658
-0.027242059
-0.1618305
-0.029404572
-0.16924213
-0.031699472
-0.17698774
-0.034133597
-0.18508331
-0.036713461
-0.19354679
-0.039445131
-0.20239668
-0.042334343
-0.21165371
-0.045386843
-0.22133882
-0.048607765
-0.23147555
-0.052001167
-0.24208899
-0.055571296
-0.25320523
-0.059321668
-0.26485239
-0.063254477
-0.27706112
-0.067372004
-0.28986297
-0.071675612
-0.30329223
-0.076165905
-0.31738505
-0.080842766
-0.33217933
-0.085706234
-0.34771586
-0.090754278
-0.36403757
-0.095985388
-0.38118971
-0.10139713
-0.39922004
-0.10698624
-0.41817929
-0.11274917
-0.43812058
-0.11868168
-0.4591004
-0.1247786
-0.48117906
-0.13103419
-0.50441893
-0.13744209
-0.52888709
-0.14399422
-0.55465484
-0.15068219
-0.58179642
-0.15749591
-0.61039216
-0.16442428
-0.640526
-0.1714545
-0.67228787
-0.17857132
-0.70577288
-0.18575801
-0.74108267
-0.19299537
-0.77832415
-0.20026123
-0.81761222
-0.20753045
-0.85906813
-0.2147744
-0.90282103
-0.22196023
-0.94900874
-0.22905138
-0.99777683
-0.23600528
-1.0492817
-0.24277498
-1.1036866
-0.24930623
-1.1611675
-0.25553699
-1.2219057
-0.26140034
-1.2861029
-0.26682223
-1.3539578
-0.27170666
-1.4257027
-0.27596391
-1.5015597
-0.27947787
-1.5817753
-0.28213105
-1.6666008
-0.28378999
-1.7563298
-0.28431211
-1.8512772
-0.28353533
-1.9517623
-0.28125111
-2.0581449
-0.277277
-2.170902
-2.2897785
-0.00028518062
-0.047305944
-0.0008718768
-0.058696345
-0.0013230751
-0.057778361
-0.00194361
-0.062421794
-0.0024947871
-0.064434645
-0.0032012677
-0.067773829
-0.0038556352
-0.07088454
-0.0046213377
-0.074147545
-0.005379291
-0.077691065
-0.0061960353
-0.081260234
-0.0070590799
-0.085078712
-0.0079751289
-0.089025018
-0.0089490576
-0.093165034
-0.0099842881
-0.09748511
-0.011085892
-0.10199905
-0.012258703
-0.10671347
-0.013508385
-0.11163722
-0.014840356
-0.11677905
-0.016260626
-0.12214843
-0.017775973
-0.12775478
-0.019392437
-0.13360953
-0.021117551
-0.1397225
-0.022957688
-0.14610658
-0.024920243
-0.15277343
-0.027012796
-0.1597373
-0.029242128
-0.16701209
-0.031615768
-0.17461333
-0.034140577
-0.18255767
-0.036822986
-0.19086347
-0.039669791
-0.19954888
-0.042687042
-0.20863538
-0.045879785
-0.21814491
-0.049252888
-0.22810117
-0.052811147
-0.23852935
-0.056558234
-0.24945664
-0.060496912
-0.26091207
-0.064630081
-0.27292617
-0.068959629
-0.28553148
-0.073486631
-0.29876313
-0.078212204
-0.31265719
-0.083136396
-0.32725266
-0.088258932
-0.34259063
-0.093579589
-0.358714
-0.099097767
-0.37566837
-0.10481184
-0.39350254
-0.11072044
-0.41226697
-0.11682154
-0.43201545
-0.12311301
-0.45280457
-0.12959238
-0.47469497
-0.13625619
-0.49775001
-0.14310117
-0.52203659
-0.15012306
-0.54762696
-0.15731666
-0.57459636
-0.16467647
-0.60302535
-0.17219531
-0.63299959
-0.17986525
-0.66460976
-0.18767612
-0.69795317
-0.19561743
-0.73313179
-0.2036755
-0.77025575
-0.21183481
-0.80944173
-0.22007776
-0.85081308
-0.22838347
-0.89450223
-0.23672795
-0.94065009
-0.24508293
-0.98940649
-0.25341742
-1.0409305
-0.26169427
-1.0953917
-0.26987271
-1.1529696
-0.27790262
-1.2138547
-0.28573192
-1.2782509
-0.29329532
-1.3463701
-0.3005268
-1.4184454
-0.30734492
-1.4947144
-0.31365994
-1.5754319
-0.31936805
-1.6608635
-0.32436206
-1.7513064
-0.32852646
-1.8470838
-0.33172269
-1.9485384
-0.33378248
-2.0560614
-0.33454695
-2.1701163
-2.2903949
-0.00024688437
-0.047058994
-0.00082241084
-0.05812071
-0.0012436301
-0.05735704
-0.0018892408
-0.061776063
-0.0024253973
-0.063898364
-0.0031065854
-0.067092503
-0.003737977
-0.070252999
-0.0044616219
-0.073423741
-0.0052061763
-0.076946336
-0.0060072529
-0.080458971
-0.0068603872
-0.084225373
-0.007768391
-0.088116796
-0.0087383993
-0.092194787
-0.0097743449
-0.096448908
-0.010881985
-0.10089113
-0.012067085
-0.10552807
-0.013335884
-0.11036809
-0.014695073
-0.11541951
-0.016151443
-0.12069167
-0.017711712
-0.12619409
-0.0193845
-0.13193628
-0.021176258
-0.13793024
-0.023095847
-0.14418644
-0.025150543
-0.15071814
-0.027348162
-0.15753903
-0.029696783
-0.16466276
-0.032203786
-0.17210555
-0.03487612
-0.17988449
-0.037721155
-0.18801752
-0.040744841
-0.19652419
-0.043952736
-0.20542639
-0.047350461
-0.21474599
-0.050942417
-0.22450792
-0.054732773
-0.23473758
-0.058724792
-0.24546309
-0.06292127
-0.25671393
-0.067324434
-0.26852119
-0.071935979
-0.28091797
-0.076757652
-0.29393932
-0.081790128
-0.3076224
-0.087034321
-0.32200595
-0.092490998
-0.33713122
-0.098160626
-0.3530414
-0.1040432
-0.36978258
-0.11013955
-0.38740272
-0.11645015
-0.4059526
-0.12297496
-0.42548655
-0.12971439
-0.44606072
-0.13666861
-0.46773595
-0.14383782
-0.49057562
-0.15122126
-0.51464754
-0.15881914
-0.54002301
-0.16662999
-0.56677894
-0.17465234
-0.59499591
-0.18288417
-0.62476008
-0.19132223
-0.65616338
-0.1999627
-0.6893037
-0.20879996
-0.7242848
-0.21782751
-0.76121766
-0.227037
-0.80022083
-0.23641747
-0.84142026
-0.24595672
-0.88494961
-0.2556394
-0.93095291
-0.2654477
-0.97958247
-0.27535982
-1.0310014
-0.28535058
-1.0853825
-0.29539009
-1.14291
-0.30544491
-1.2037782
-0.31547327
-1.2681993
-0.32543053
-1.3363879
-0.33526645
-1.4085829
-0.34491276
-1.4850401
-0.35430387
-1.5660116
-0.36335923
-1.6517782
-0.37199519
-1.7426403
-0.38011547
-1.8389337
-0.38761828
-1.9410071
-0.39436162
-2.0492936
-0.40022765
-2.1642277
-2.2855183
-0.00021296437
-0.046845966
-0.0007891434
-0.057544426
-0.0011874725
-0.056958612
-0.0018496852
-0.061113735
-0.0023637039
-0.063384223
-0.0030359954
-0.066420077
-0.0036608539
-0.069627996
-0.0043796632
-0.072704776
-0.0051267605
-0.076199068
-0.0059280744
-0.079657474
-0.0067888281
-0.083364419
-0.0077091434
-0.087196265
-0.0086975008
-0.091206193
-0.0097587203
-0.095387433
-0.010899471
-0.0997501
-0.012126472
-0.10430077
-0.013446897
-0.10904733
-0.014868083
-0.11399796
-0.016398454
-0.1191609
-0.018045932
-0.12454619
-0.019818776
-0.13016297
-0.021725892
-0.13602261
-0.023775406
-0.14213637
-0.025976013
-0.14851693
-0.028336409
-0.15517797
-0.030863974
-0.16213447
-0.033566522
-0.16940222
-0.03645132
-0.17699883
-0.039525101
-0.1849428
-0.042793071
-0.1932552
-0.046261636
-0.20195671
-0.049934622
-0.21107179
-0.053816782
-0.22062444
-0.057910863
-0.23064206
-0.06221966
-0.24115272
-0.066746079
-0.2521858
-0.071492016
-0.2637734
-0.076458978
-0.275949
-0.081648676
-0.28874744
-0.087062891
-0.30220581
-0.092703111
-0.31636317
-0.098571102
-0.33126045
-0.1046685
-0.34694099
-0.11099787
-0.36344994
-0.11756153
-0.38083552
-0.1243618
-0.39914849
-0.1314023
-0.41844191
-0.13868547
-0.43877305
-0.14621529
-0.46020128
-0.15399503
-0.48279062
-0.1620285
-0.50660838
-0.17031855
-0.5317268
-0.17886899
-0.55822183
-0.18768312
-0.58617456
-0.19676343
-0.61567195
-0.20611235
-0.646806
-0.21573193
-0.67967497
-0.22562284
-0.71438397
-0.23578509
-0.75104467
-0.24621725
-0.78977703
-0.2569176
-0.8307073
-0.26788119
-0.87397234
-0.27910228
-0.919717
-0.29057279
-0.96809588
-0.30228202
-1.0192747
-0.31421651
-1.0734291
-0.32635965
-1.1307464
-0.33868897
-1.1914268
-0.35118251
-1.2556819
-0.36380939
-1.3237355
-0.3765305
-1.3958347
-0.38931215
-1.4722298
-0.40209661
-1.5531973
-0.41482686
-1.6390174
-0.42743997
-1.7299964
-0.43987913
-1.826464
-0.45205809
-1.928799
-0.46387839
-2.0374481
-0.47524511
-2.1528375
-2.2747359
-0.00019163509
-0.046654268
-0.00078716005
-0.056948799
-0.0011816625
-0.056564012
-0.0018357052
-0.060459578
-0.0023425227
-0.062877285
-0.0030204642
-0.065742003
-0.0036601802
-0.068988136
-0.0043854536
-0.071979348
-0.0051540716
-0.07543028
-0.0059765904
-0.078834773
-0.0068666675
-0.082474141
-0.0078235088
-0.086239208
-0.0088566804
-0.090172784
-0.0099722506
-0.094271607
-0.011177933
-0.098544135
-0.012481618
-0.10299678
-0.013891745
-0.10763687
-0.015417144
-0.1124722
-0.017066439
-0.11751121
-0.018849569
-0.12276262
-0.020775324
-0.12823673
-0.022853355
-0.13394406
-0.025092462
-0.13989669
-0.027501718
-0.14610705
-0.030089611
-0.1525894
-0.032864168
-0.15935917
-0.035832361
-0.16643321
-0.039001281
-0.17382903
-0.042376339
-0.18156677
-0.045963486
-0.189667
-0.04976648
-0.19815257
-0.053789421
-0.2070476
-0.058035572
-0.21637692
-0.06250747
-0.22616868
-0.067207538
-0.23645105
-0.072137971
-0.24725363
-0.077300415
-0.25860906
-0.082697291
-0.27055007
-0.088330499
-0.283112
-0.094202727
-0.29633117
-0.10031683
-0.31024644
-0.10667615
-0.3248983
-0.1132848
-0.34032926
-0.12014701
-0.35658441
-0.12726759
-0.37371134
-0.13465246
-0.39175973
-0.14230739
-0.41078276
-0.15023899
-0.43083688
-0.15845395
-0.45198137
-0.16695974
-0.47427948
-0.17576384
-0.49779849
-0.18487468
-0.52260968
-0.19429995
-0.54878977
-0.20404796
-0.57641921
-0.21412646
-0.6055855
-0.22454423
-0.63637961
-0.23530848
-0.6689014
-0.24642687
-0.70325547
-0.2579066
-0.73955398
-0.26975432
-0.77791744
-0.28197539
-0.81847336
-0.29457473
-0.86135904
-0.30755591
-0.90672068
-0.32092107
-0.9547143
-0.33467106
-1.0055069
-0.34880436
-1.0592765
-0.36331694
-1.1162129
-0.37820183
-1.1765193
-0.39345285
-1.2404066
-0.40905123
-1.3081111
-0.42498553
-1.3798727
-0.44122842
-1.4559577
-0.45775412
-1.5366412
-0.47452947
-1.6222109
-0.49151164
-1.7129829
-0.5086632
-1.8092814
-0.52593706
-1.9114957
-0.54328455
-2.0200746
-0.56062453
-2.1354728
-2.2575896
-0.00017295484
-0.04648125
-0.00079704186
-0.056324614
-0.0011979868
-0.056162972
-0.0018634058
-0.059794047
-0.002382888
-0.062357684
-0.0030752094
-0.065049551
-0.0037452005
-0.068318002
-0.0044939152
-0.07123048
-0.0053024418
-0.074621584
-0.0061686889
-0.077968344
-0.0071122821
-0.081530347
-0.0081331708
-0.085218103
-0.0092416739
-0.089064042
-0.01044551
-0.093067512
-0.011753725
-0.097235634
-0.013175652
-0.10157454
-0.014721039
-0.10609114
-0.016399998
-0.11079287
-0.018222798
-0.115688
-0.020199375
-0.1207856
-0.022340136
-0.12609548
-0.024654679
-0.13162898
-0.027152192
-0.13739859
-0.029841852
-0.14341675
-0.03273142
-0.14969913
-0.035828167
-0.15626166
-0.039139275
-0.16312127
-0.042669577
-0.17029781
-0.046424263
-0.17781109
-0.050407221
-0.18568296
-0.054621829
-0.19393678
-0.059071094
-0.20259705
-0.063756347
-0.21169027
-0.068680797
-0.22124271
-0.073845859
-0.23128434
-0.079253469
-0.24184423
-0.084906514
-0.25295408
-0.090807271
-0.26464721
-0.096959931
-0.27695706
-0.10336828
-0.28992035
-0.11003698
-0.30357507
-0.11697159
-0.31796079
-0.12417883
-0.33311889
-0.13166563
-0.34909421
-0.13944007
-0.36593323
-0.14751112
-0.38368471
-0.15588812
-0.40240146
-0.16458123
-0.42213912
-0.17360165
-0.44295592
-0.18296058
-0.4649151
-0.19267042
-0.48808276
-0.20274304
-0.51253069
-0.21319235
-0.53833356
-0.22403121
-0.56557287
-0.23527398
-0.59433463
-0.24693412
-0.6247107
-0.25902654
-0.65679947
-0.27156538
-0.69070632
-0.28456499
-0.72654321
-0.29804053
-0.7644298
-0.31200556
-0.80449519
-0.3264744
-0.84687596
-0.34146083
-0.89171879
-0.35697788
-0.93918049
-0.37303746
-0.98942915
-0.38965119
-1.0426431
-0.40682925
-1.0990136
-0.42458091
-1.1587447
-0.44290987
-1.222053
-0.46182222
-1.2891724
-0.48131928
-1.3603476
-0.50140145
-1.435846
-0.52206124
-1.5159507
-0.54328285
-1.6009578
-0.5650596
-1.6911746
-0.5873696
-1.7869402
-0.61020747
-1.8886282
-0.63355705
-1.9966988
-0.65737698
-2.1116274
-2.233538
-0.00015885903
-0.046322328
-0.0008248936
-0.055658482
-0.0012393772
-0.055748393
-0.00193468
-0.059098633
-0.0024842741
-0.061807971
-0.0032051986
-0.064328496
-0.0039259205
-0.067597137
-0.0047192038
-0.070437042
-0.0055905739
-0.073750043
-0.0065276731
-0.077031061
-0.0075540795
-0.080503737
-0.0086719324
-0.08410003
-0.0098926238
-0.087843106
-0.011225948
-0.091733923
-0.012682488
-0.095778802
-0.014273331
-0.099983377
-0.016009619
-0.1043545
-0.017902595
-0.10889951
-0.019963383
-0.11362679
-0.022202787
-0.11854573
-0.024630907
-0.12366685
-0.027257663
-0.12900167
-0.030092224
-0.13456342
-0.033142094
-0.14036621
-0.03641477
-0.14642572
-0.039916188
-0.15275945
-0.043651185
-0.1593854
-0.047624067
-0.16632398
-0.051837943
-0.17359618
-0.056295142
-0.18122464
-0.060997408
-0.18923329
-0.065946826
-0.1976463
-0.071144844
-0.20649082
-0.076593225
-0.21579277
-0.082294459
-0.22558141
-0.088251229
-0.23588562
-0.094467017
-0.2467363
-0.10094693
-0.25816514
-0.10769537
-0.27020629
-0.11471943
-0.28289377
-0.12202602
-0.29626575
-0.12962451
-0.31035934
-0.13752338
-0.32521683
-0.14573345
-0.34088068
-0.15426676
-0.35739618
-0.16313498
-0.37481245
-0.17235182
-0.39318024
-0.18193178
-0.41255442
-0.19188961
-0.43299298
-0.20224167
-0.4545575
-0.21300428
-0.47731415
-0.22419579
-0.5013327
-0.2358337
-0.52668863
-0.24793722
-0.55346175
-0.26052653
-0.58173707
-0.27362187
-0.61160643
-0.28724408
-0.64316758
-0.30141565
-0.67652425
-0.3161587
-0.71178877
-0.33149565
-0.7490805
-0.34745015
-0.78852729
-0.36404629
-0.83026529
-0.38130806
-0.87444127
-0.39925935
-0.92121212
-0.4179257
-0.97074429
-0.43733137
-1.0232174
-0.45750053
-1.0788228
-0.47845701
-1.137765
-0.50022276
-1.2002622
-0.52282303
-1.2665455
-0.54627797
-1.3368643
-0.5706063
-1.4114878
-0.59582634
-1.4906996
-0.62195456
-1.5747979
-0.64899701
-1.6641004
-0.67696533
-1.7589408
-0.70587453
-1.8596896
-0.73576432
-1.9667826
-0.76662179
-2.0807441
-2.2019601
-0.00015080392
-0.046171461
-0.00087771715
-0.054931474
-0.0013109411
-0.055315075
-0.0020500144
-0.05835945
-0.0026504638
-0.061207402
-0.0034179143
-0.063560915
-0.0042123577
-0.066802549
-0.0050750184
-0.069574226
-0.0060348885
-0.072789999
-0.0070741782
-0.075991585
-0.0082185649
-0.079359141
-0.0094737552
-0.082844614
-0.010852647
-0.086463964
-0.012367078
-0.090219218
-0.014029438
-0.094116139
-0.015852085
-0.098160399
-0.017847338
-0.10235888
-0.020027089
-0.10671936
-0.022402852
-0.11125058
-0.024985369
-0.11596273
-0.027784672
-0.12086702
-0.030809423
-0.12597634
-0.034067216
-0.13130499
-0.03756482
-0.13686791
-0.041306916
-0.14268287
-0.045297827
-0.14876771
-0.049539737
-0.15514259
-0.054034798
-0.16182794
-0.05878442
-0.16884549
-0.063789306
-0.17621859
-0.069050714
-0.18397062
-0.074569496
-0.19212616
-0.080347809
-0.20071102
-0.08638785
-0.20975112
-0.092693468
-0.21927405
-0.099268604
-0.2293086
-0.10611949
-0.23988337
-0.11325234
-0.25103009
-0.12067614
-0.26278011
-0.12839938
-0.27516795
-0.13643377
-0.28822857
-0.14478993
-0.30200017
-0.15348159
-0.31652191
-0.16252321
-0.33183554
-0.1719296
-0.34798598
-0.18171737
-0.36502055
-0.19190412
-0.38298904
-0.20250837
-0.40194535
-0.21355004
-0.4219461