/*--------------------------------*- C++ -*----------------------------------*\
  =========                 |
  \\      /  F ield         | OpenFOAM: The Open Source CFD Toolbox
   \\    /   O peration     | Website:  https://openfoam.org
    \\  /    A nd           | Version:  12
     \\/     M anipulation  |
\*---------------------------------------------------------------------------*/
FoamFile
{
    format      ascii;
    class       volScalarField;
    location    "0.065";
    object      k;
}
// * * * * * * * * * * * * * * * * * * * * * * * * * * * * * * * * * * * * * //

dimensions      [0 2 -2 0 0 0 0];

internalField   nonuniform List<scalar> 
16000
(
0.047914841
0.021771214
0.022363122
0.016376675
0.013920259
0.012617301
0.011838389
0.011374812
0.011059134
0.010847069
0.010690658
0.010574212
0.010483332
0.010411382
0.010353538
0.01030685
0.010268733
0.010237439
0.010211976
0.010190973
0.010173976
0.010160131
0.010149038
0.010140246
0.010133433
0.01012832
0.010124705
0.010122423
0.010121334
0.010121311
0.010122234
0.010124003
0.010126536
0.010129766
0.010133633
0.010138081
0.01014305
0.010148481
0.010154316
0.010160497
0.01016696
0.010173637
0.010180466
0.010187384
0.010194326
0.010201224
0.01020802
0.010214666
0.010221114
0.010227321
0.010233244
0.010238835
0.010244043
0.010248807
0.010253063
0.010256752
0.010259829
0.010262276
0.0102641
0.010265325
0.01026598
0.010266107
0.010265812
0.010265251
0.010264612
0.010264078
0.010263784
0.010263784
0.010264008
0.010264162
0.010263554
0.010260812
0.010253574
0.010238418
0.010211501
0.010171568
0.010131007
0.010117155
0.010096424
0.010119405
0.045442772
0.020558916
0.020944308
0.01584174
0.013580256
0.012413025
0.011677777
0.011257991
0.010959346
0.010764203
0.010617972
0.010510165
0.010425628
0.010359096
0.010305663
0.010262786
0.010228
0.010199543
0.010176671
0.010157935
0.010143022
0.010131075
0.010121741
0.010114578
0.010109301
0.010105623
0.010103354
0.010102334
0.010102429
0.010103522
0.010105493
0.010108243
0.010111688
0.01011576
0.010120398
0.010125544
0.010131142
0.010137132
0.010143455
0.010150054
0.010156869
0.010163835
0.010170888
0.010177972
0.010185024
0.010191976
0.010198774
0.010205366
0.010211711
0.010217765
0.010223489
0.010228843
0.010233781
0.010238254
0.010242203
0.010245578
0.010248341
0.010250482
0.010252017
0.010252982
0.010253412
0.010253343
0.010252858
0.010252096
0.010251237
0.010250473
0.010249951
0.010249731
0.010249729
0.010249609
0.010248608
0.010245271
0.010237186
0.010221023
0.010193281
0.010153023
0.010118066
0.010103765
0.010094521
0.010117841
0.04148078
0.019693893
0.019633823
0.01529007
0.013233118
0.012190275
0.011511543
0.011133301
0.010857338
0.01068015
0.010544919
0.010446188
0.010368468
0.010307648
0.010258936
0.010220093
0.010188866
0.010163435
0.010143328
0.010127017
0.010114326
0.010104398
0.01009694
0.010091498
0.010087848
0.010085686
0.010084839
0.01008515
0.010086492
0.010088752
0.010091816
0.010095585
0.010099974
0.010104912
0.010110338
0.010116192
0.010122417
0.010128954
0.010135743
0.010142728
0.010149852
0.010157051
0.010164264
0.010171437
0.010178512
0.010185426
0.010192124
0.010198559
0.010204688
0.010210474
0.01021588
0.010220873
0.010225415
0.010229464
0.010232974
0.010235901
0.010238215
0.010239915
0.010241029
0.010241602
0.01024168
0.010241299
0.010240528
0.010239487
0.010238344
0.010237293
0.010236494
0.010236011
0.010235738
0.010235287
0.010233795
0.010229689
0.010220477
0.010202924
0.010174266
0.010135081
0.010103798
0.010089586
0.010088758
0.010108128
0.038069885
0.019101277
0.018495668
0.014795081
0.012918546
0.011987744
0.011359236
0.011019065
0.010763654
0.010602744
0.010478042
0.010387711
0.010316498
0.010261089
0.010216897
0.010181907
0.010154125
0.010131608
0.010114193
0.010100243
0.010089725
0.010081769
0.010076158
0.010072405
0.010070352
0.010069682
0.010070232
0.010071851
0.010074412
0.01007781
0.010081934
0.010086682
0.010091969
0.010097721
0.010103874
0.010110368
0.010117145
0.010124145
0.010131309
0.010138582
0.010145908
0.010153227
0.010160481
0.01016762
0.010174592
0.010181338
0.010187806
0.010193953
0.010199738
0.010205128
0.010210092
0.0102146
0.010218626
0.010222136
0.010225093
0.010227463
0.010229223
0.010230379
0.010230966
0.010231044
0.010230666
0.010229876
0.010228728
0.010227326
0.010225824
0.010224413
0.010223263
0.010222442
0.010221825
0.010220967
0.010218906
0.010213947
0.010203538
0.01018451
0.010154798
0.010118103
0.010089927
0.010077182
0.010083174
0.010096335
0.035252696
0.018761841
0.017504398
0.014336067
0.012625617
0.011796421
0.011216369
0.010911421
0.010676184
0.010530538
0.010416163
0.010333854
0.010269014
0.010218868
0.010179115
0.010147892
0.01012352
0.010103876
0.010089134
0.010077537
0.01006918
0.010063194
0.010059435
0.010057376
0.010056919
0.010057742
0.01005969
0.010062613
0.010066386
0.010070905
0.010076064
0.010081759
0.010087903
0.010094418
0.010101239
0.010108301
0.010115548
0.01012292
0.010130358
0.010137808
0.010145217
0.010152531
0.010159696
0.010166663
0.01017339
0.010179826
0.010185921
0.010191637
0.010196939
0.010201797
0.010206185
0.01021008
0.010213464
0.010216312
0.0102186
0.010220299
0.010221395
0.0102219
0.010221855
0.01022133
0.010220392
0.010219091
0.01021748
0.010215642
0.010213714
0.010211881
0.010210318
0.010209092
0.010208062
0.010206724
0.010204012
0.010198113
0.010186446
0.01016599
0.010135087
0.010102057
0.010076821
0.010066284
0.010076674
0.010085191
0.033101549
0.018674245
0.016724705
0.013915035
0.012355979
0.011618403
0.011084312
0.010811662
0.010595863
0.010464279
0.010359925
0.010285193
0.010226522
0.01018145
0.010146019
0.010118447
0.010097428
0.010080604
0.010068506
0.010059255
0.010053041
0.010049034
0.010047116
0.010046779
0.010047896
0.010050211
0.010053549
0.010057763
0.010062726
0.010068336
0.010074486
0.010081074
0.010088009
0.010095209
0.010102605
0.010110134
0.010117737
0.010125356
0.010132935
0.01014042
0.010147763
0.010154917
0.010161833
0.010168469
0.010174789
0.010180752
0.010186316
0.010191447
0.010196116
0.0102003
0.010203977
0.010207131
0.010209751
0.010211823
0.01021333
0.010214256
0.01021459
0.010214348
0.010213579
0.010212358
0.010210766
0.010208865
0.010206708
0.010204365
0.010201951
0.010199639
0.0101976
0.010195903
0.010194387
0.010192494
0.010189058
0.010182145
0.010169176
0.010147536
0.010116362
0.010087074
0.0100647
0.010056265
0.01006929
0.010074685
0.030742919
0.018762138
0.016181964
0.013528723
0.012107591
0.011453093
0.010962858
0.010719693
0.010522608
0.01040394
0.010309272
0.010241726
0.010189034
0.010148888
0.010117697
0.010093699
0.010076007
0.010061989
0.010052521
0.010045654
0.010041566
0.010039624
0.010039503
0.010041002
0.010043618
0.010047423
0.010052141
0.010057625
0.010063746
0.010070398
0.010077478
0.010084881
0.010092512
0.010100289
0.01010814
0.010116001
0.010123813
0.010131521
0.010139074
0.010146422
0.010153523
0.010160335
0.01016682
0.010172943
0.010178677
0.010183992
0.010188855
0.010193239
0.010197122
0.010200488
0.01020332
0.010205609
0.010207348
0.010208535
0.010209161
0.010209219
0.010208704
0.010207635
0.010206062
0.010204065
0.010201738
0.010199157
0.01019638
0.010193467
0.010190514
0.01018767
0.010185099
0.010182864
0.010180787
0.01017826
0.010174029
0.010166057
0.010151745
0.010129049
0.010099142
0.010073252
0.010053652
0.010046972
0.010060776
0.01006453
0.02823559
0.018943388
0.015746086
0.01317496
0.011878987
0.011300267
0.01085155
0.010635398
0.010456133
0.01034941
0.010264133
0.010203491
0.010156643
0.010121337
0.010094355
0.010073899
0.010059526
0.010048356
0.010041473
0.01003709
0.010035065
0.010035507
0.01003698
0.010040136
0.010044474
0.010049755
0.010055828
0.010062539
0.010069759
0.010077377
0.010085289
0.01009339
0.010101586
0.01010979
0.010117932
0.010125947
0.01013378
0.010141381
0.010148704
0.010155708
0.010162357
0.010168621
0.010174471
0.010179882
0.010184837
0.010189319
0.010193305
0.010196777
0.010199722
0.010202129
0.010203988
0.010205295
0.010206049
0.010206254
0.010205912
0.010205022
0.010203586
0.010201623
0.010199184
0.010196351
0.010193225
0.010189896
0.010186433
0.010182893
0.01017935
0.01017593
0.010172774
0.010169934
0.010167215
0.010163967
0.010158865
0.010149813
0.010134213
0.01011038
0.01008334
0.010060644
0.010043655
0.010038298
0.010051088
0.010054572
0.02650988
0.019122703
0.015262995
0.012850655
0.011668539
0.011159163
0.010749651
0.010558014
0.010396439
0.010300913
0.010224738
0.010170788
0.010129679
0.010099155
0.010076378
0.010059467
0.01004834
0.010040169
0.010035628
0.010033982
0.010033134
0.010036381
0.010040077
0.010044972
0.01005088
0.010057606
0.010064977
0.01007284
0.010081059
0.010089521
0.010098121
0.010106757
0.010115332
0.010123763
0.010131979
0.010139922
0.010147542
0.010154796
0.010161647
0.010168065
0.010174027
0.010179512
0.010184506
0.010188994
0.010192971
0.010196433
0.010199369
0.010201771
0.010203632
0.01020495
0.010205721
0.010205944
0.010205623
0.010204766
0.010203383
0.010201481
0.010199068
0.010196164
0.010192815
0.010189104
0.010185132
0.010181003
0.010176798
0.010172577
0.010168401
0.010164365
0.010160577
0.010157065
0.010153617
0.010149551
0.010143488
0.010133321
0.010116674
0.010092432
0.010068892
0.010049256
0.010034661
0.01003024
0.010041427
0.010044717
0.02486745
0.019292162
0.014605326
0.012553149
0.011476132
0.011030162
0.010657946
0.010488615
0.010344107
0.010258915
0.010191535
0.010144102
0.010108629
0.010082846
0.010064272
0.010050959
0.0100427
0.01003802
0.01003452
0.010036634
0.010039705
0.010043661
0.010049209
0.010055819
0.01006327
0.010071364
0.01007993
0.010088814
0.010097875
0.010106999
0.01011608
0.01012502
0.010133727
0.010142121
0.010150139
0.010157729
0.010164851
0.010171475
0.010177579
0.010183144
0.010188161
0.010192624
0.010196533
0.010199887
0.010202692
0.010204955
0.01020668
0.010207866
0.010208515
0.010208632
0.010208217
0.010207274
0.010205806
0.010203827
0.010201351
0.010198391
0.010194962
0.010191085
0.010186802
0.010182187
0.010177342
0.010172375
0.010167384
0.010162435
0.010157584
0.010152894
0.010148433
0.010144189
0.010139921
0.010134931
0.01012782
0.010116486
0.010099022
0.010076061
0.010055775
0.010039058
0.010026631
0.010022863
0.010031963
0.010034883
0.023366031
0.019429663
0.014077083
0.012280357
0.011302338
0.010913674
0.010577044
0.010427892
0.010299366
0.010223839
0.010164969
0.010123937
0.010094029
0.010072971
0.010058597
0.010049062
0.010042079
0.010042584
0.01004375
0.010046444
0.010051207
0.01005752
0.010064906
0.010073153
0.010082039
0.010091362
0.010100952
0.010110652
0.010120322
0.010129845
0.01013912
0.010148057
0.010156574
0.0101646
0.010172084
0.010178987
0.010185286
0.010190964
0.010196018
0.010200445
0.010204254
0.010207453
0.010210057
0.010212078
0.010213533
0.010214441
0.010214816
0.010214666
0.010214
0.010212828
0.010211154
0.010208984
0.010206323
0.010203182
0.01019958
0.010195535
0.010191068
0.010186202
0.010180975
0.010175451
0.010169721
0.010163894
0.010158082
0.010152363
0.010146793
0.010141411
0.010136238
0.01013121
0.010126041
0.010120023
0.010111803
0.010099362
0.010081136
0.010061157
0.010043976
0.010029991
0.010019566
0.010016343
0.010022938
0.010023813
0.022028986
0.019553738
0.013619424
0.012032574
0.01114715
0.010809408
0.010506763
0.010375594
0.010262557
0.010196179
0.010145559
0.010110868
0.010086483
0.01007017
0.010059973
0.010054618
0.010053237
0.010053975
0.010057576
0.010063216
0.010070282
0.010078504
0.010087625
0.010097365
0.010107498
0.010117823
0.010128169
0.010138382
0.010148326
0.01015789
0.01016698
0.010175521
0.010183448
0.010190707
0.010197267
0.010203107
0.010208225
0.010212625
0.010216321
0.010219332
0.010221681
0.010223394
0.010224497
0.010225015
0.010224975
0.010224404
0.010223324
0.010221751
0.010219698
0.010217179
0.010214201
0.01021077
0.010206891
0.010202573
0.010197834
0.010192697
0.010187186
0.010181329
0.010175159
0.01016873
0.010162117
0.010155425
0.010148767
0.010142242
0.010135908
0.010129788
0.010123862
0.01011801
0.010111889
0.01010477
0.010095409
0.010082157
0.01006436
0.010047647
0.010033398
0.010021953
0.010013499
0.010010804
0.010014631
0.010013675
0.02081897
0.019635825
0.013196319
0.011809844
0.011010155
0.010717363
0.010447245
0.010332341
0.010234049
0.010176476
0.010133901
0.010105547
0.01008669
0.010075173
0.010069218
0.010067502
0.010069098
0.01007352
0.010079893
0.010087847
0.010097029
0.010107092
0.010117741
0.010128717
0.010139794
0.01015077
0.01016148
0.01017178
0.010181545
0.010190679
0.010199106
0.010206773
0.010213642
0.010219686
0.010224898
0.010229282
0.01023286
0.010235658
0.010237711
0.010239055
0.010239729
0.010239773
0.010239223
0.010238113
0.010236478
0.010234347
0.010231749
0.010228704
0.010225229
0.010221337
0.010217039
0.010212341
0.010207245
0.010201757
0.010195891
0.010189671
0.010183125
0.010176284
0.010169182
0.01016186
0.010154378
0.010146823
0.01013931
0.010131946
0.010124801
0.010117892
0.010111165
0.010104459
0.010097379
0.01008917
0.01007873
0.010064951
0.010049404
0.01003547
0.010023853
0.010014771
0.010008417
0.01000645
0.010008167
0.01000365
0.01973094
0.019639353
0.012813475
0.01161018
0.010890613
0.0106376
0.010398624
0.010298466
0.01021433
0.0101654
0.010130746
0.010108777
0.010095489
0.010088828
0.010087174
0.010089327
0.010094397
0.010101681
0.010110681
0.01012092
0.010132003
0.010143602
0.010155432
0.010167235
0.010178792
0.010189912
0.010200442
0.010210261
0.010219268
0.010227395
0.010234597
0.010240854
0.01024616
0.010250524
0.010253967
0.010256523
0.010258236
0.010259153
0.010259327
0.010258811
0.010257653
0.010255904
0.010253606
0.010250798
0.010247518
0.010243797
0.010239664
0.010235141
0.010230245
0.01022499
0.010219386
0.010213439
0.01020715
0.010200519
0.010193554
0.010186277
0.010178717
0.010170908
0.010162887
0.010154688
0.010146354
0.010137952
0.010129582
0.010121358
0.010113361
0.010105606
0.010098026
0.010090437
0.010082432
0.010073253
0.010062013
0.010048574
0.010035943
0.010024504
0.010015147
0.010008236
0.010004158
0.01000347
0.010003694
0.0099967025
0.018750268
0.01939411
0.012467836
0.011432569
0.010788346
0.010570365
0.010361232
0.010274671
0.010204148
0.010163875
0.01013708
0.01012158
0.010113926
0.010112176
0.010114832
0.010120761
0.010129122
0.010139273
0.010150658
0.010162831
0.010175412
0.01018807
0.01020053
0.010212548
0.010223926
0.0102345
0.010244148
0.010252785
0.010260355
0.010266829
0.010272205
0.010276503
0.010279757
0.010282012
0.010283319
0.010283737
0.010283331
0.010282166
0.010280305
0.01027781
0.010274738
0.010271142
0.010267067
0.010262553
0.010257635
0.010252342
0.010246702
0.010240734
0.010234455
0.010227877
0.010221009
0.010213854
0.010206414
0.010198684
0.010190665
0.010182371
0.01017383
0.010165077
0.010156152
0.010147089
0.010137921
0.010128692
0.010119478
0.010110384
0.010101502
0.010092857
0.010084375
0.010075874
0.010066988
0.010057053
0.010045391
0.0100341
0.010023796
0.010014599
0.010007227
0.010002301
0.010000391
0.010001219
0.010000949
0.0099929602
0.017862447
0.018496282
0.012157144
0.01127635
0.01070364
0.0105161
0.010335652
0.010261945
0.010204601
0.010173105
0.010154163
0.010145206
0.010143212
0.010146351
0.010153231
0.010162779
0.010174179
0.010186795
0.0102001
0.010213646
0.010227062
0.010240037
0.010252323
0.010263711
0.010274048
0.010283221
0.010291161
0.010297838
0.010303252
0.010307427
0.010310409
0.01031226
0.010313052
0.010312861
0.010311765
0.01030984
0.010307165
0.010303814
0.010299856
0.010295354
0.010290365
0.010284942
0.010279126
0.010272953
0.010266455
0.010259657
0.010252578
0.010245235
0.010237641
0.010229807
0.010221737
0.010213436
0.010204902
0.010196129
0.010187113
0.010177856
0.010168377
0.010158711
0.010148901
0.010138986
0.010128998
0.010118963
0.010108926
0.01009897
0.010089189
0.010079623
0.010070206
0.010060769
0.010051037
0.010040675
0.010029887
0.010021015
0.010012887
0.010005732
0.010000221
0.0099971123
0.0099969666
0.0099989451
0.0099987868
0.009991379
0.017060361
0.017140405
0.011883855
0.011141323
0.010635629
0.010475779
0.010322977
0.010261737
0.010217168
0.010194591
0.010183473
0.010181052
0.010184632
0.010192487
0.010203303
0.010216057
0.010229952
0.010244366
0.010258788
0.010272796
0.010286057
0.010298307
0.010309355
0.010319065
0.010327354
0.010334185
0.01033956
0.010343518
0.010346118
0.010347442
0.010347578
0.010346624
0.010344681
0.010341847
0.010338214
0.01033387
0.010328895
0.010323363
0.010317342
0.010310891
0.01030406
0.010296895
0.010289433
0.010281701
0.010273724
0.010265521
0.010257104
0.010248485
0.010239669
0.010230665
0.010221474
0.0102121
0.010202542
0.010192792
0.01018284
0.010172681
0.010162321
0.010151785
0.010141115
0.01013036
0.010119558
0.010108731
0.010097898
0.010087105
0.010076435
0.010065942
0.01005558
0.010045221
0.010034719
0.010024241
0.010016102
0.010009256
0.0100032
0.0099980168
0.009994313
0.0099928118
0.0099939034
0.0099966318
0.0099970298
0.0099919444
0.01633991
0.01630067
0.011653621
0.011027933
0.010585245
0.010450823
0.010324737
0.010275759
0.010243574
0.010229995
0.010226589
0.010230541
0.010239397
0.010251516
0.010265642
0.010280796
0.010296209
0.010311296
0.010325603
0.010338774
0.010350558
0.010360786
0.010369363
0.010376254
0.010381473
0.010385071
0.010387129
0.01038775
0.01038705
0.010385151
0.010382175
0.010378242
0.010373465
0.010367952
0.010361797
0.010355085
0.010347893
0.010340287
0.010332325
0.010324055
0.010315519
0.010306752
0.010297781
0.010288627
0.010279305
0.010269825
0.010260193
0.010250414
0.010240488
0.010230416
0.010220198
0.010209836
0.010199328
0.010188669
0.010177848
0.010166852
0.010155675
0.010144326
0.010132838
0.010121262
0.010109649
0.010098032
0.010086419
0.010074827
0.010063306
0.010051911
0.010040623
0.010029403
0.010018519
0.010009942
0.010003705
0.0099988356
0.0099947658
0.0099915165
0.0099895313
0.0099894027
0.0099914012
0.0099948285
0.009995964
0.0099934101
0.015693033
0.015309076
0.011457339
0.010936742
0.010553442
0.010442962
0.010342612
0.010305957
0.010285773
0.010281136
0.010285132
0.010294971
0.010308381
0.010323796
0.010340033
0.010356183
0.010371563
0.010385685
0.010398217
0.010408935
0.010417723
0.010424545
0.010429435
0.01043247
0.010433764
0.010433451
0.010431677
0.010428594
0.010424352
0.010419097
0.010412963
0.010406075
0.010398544
0.01039047
0.01038194
0.010373028
0.010363797
0.010354301
0.010344582
0.010334679
0.010324618
0.010314424
0.010304113
0.010293695
0.010283178
0.010272565
0.010261854
0.010251043
0.010240126
0.010229098
0.010217955
0.010206695
0.010195318
0.01018382
0.010172194
0.010160424
0.010148496
0.010136402
0.010124157
0.0101118
0.01009939
0.010086978
0.010074586
0.010062218
0.010049895
0.010037663
0.010025549
0.010013725
0.010003909
0.0099973106
0.0099928235
0.0099897341
0.0099875321
0.0099861083
0.0099856952
0.0099867163
0.0099893462
0.0099931577
0.0099950367
0.0099949878
0.015114314
0.014647214
0.011297645
0.010868544
0.010541254
0.010454458
0.010378852
0.010354743
0.010346042
0.010349892
0.010360442
0.010374997
0.010391463
0.010408399
0.010424765
0.010439822
0.010453065
0.010464194
0.010473067
0.010479649
0.01048399
0.010486204
0.010486445
0.010484895
0.010481742
0.010477176
0.01047138
0.010464528
0.010456779
0.010448276
0.010439148
0.010429506
0.010419446
0.010409053
0.010398395
0.01038753
0.010376504
0.010365352
0.010354104
0.010342782
0.0103314
0.01031997
0.010308498
0.010296985
0.010285432
0.010273833
0.010262181
0.010250468
0.010238683
0.010226814
0.010214852
0.010202791
0.010190628
0.010178363
0.010165991
0.010153503
0.010140884
0.010128114
0.010115186
0.010102118
0.010088957
0.010075761
0.01006258
0.010049432
0.010036333
0.010023342
0.010010669
0.0099991354
0.0099914947
0.0099864556
0.0099834797
0.0099819435
0.0099813911
0.0099815914
0.0099825616
0.0099845451
0.009987673
0.0099917484
0.0099942603
0.0099966199
0.014598298
0.013904121
0.011171219
0.010826049
0.010550398
0.010488722
0.010436569
0.010424879
0.010426494
0.010437403
0.01045259
0.010469569
0.010486528
0.010502284
0.010516083
0.010527472
0.01053623
0.010542309
0.010545798
0.010546855
0.010545686
0.010542526
0.010537618
0.0105312
0.010523497
0.010514716
0.010505043
0.010494643
0.010483658
0.010472213
0.010460414
0.010448348
0.010436088
0.010423694
0.010411215
0.010398687
0.010386139
0.01037359
0.010361053
0.010348536
0.010336041
0.010323569
0.010311115
0.010298674
0.010286238
0.010273797
0.010261339
0.01024885
0.010236314
0.010223717
0.010211042
0.010198278
0.010185419
0.010172461
0.010159405
0.010146249
0.010132983
0.010119591
0.010106053
0.010092362
0.010078534
0.010064614
0.010050661
0.010036725
0.010022851
0.010009174
0.0099963092
0.0099872173
0.0099810641
0.0099774123
0.0099757
0.0099754513
0.009976263
0.0099778155
0.0099799474
0.009982738
0.009986322
0.0099906749
0.0099937953
0.0099975099
0.014144986
0.01333566
0.011082899
0.010814129
0.010584573
0.010549864
0.010518893
0.010518187
0.010527525
0.010542489
0.010558929
0.010574791
0.010588734
0.010600019
0.010608301
0.010613502
0.010615718
0.01061516
0.010612108
0.010606868
0.010599746
0.010591036
0.010581008
0.010569909
0.010557952
0.010545325
0.010532188
0.010518673
0.010504893
0.010490938
0.010476885
0.010462792
0.010448706
0.010434663
0.010420688
0.010406799
0.010393006
0.010379315
0.010365724
0.010352228
0.01033882
0.010325489
0.010312224
0.010299011
0.010285838
0.010272689
0.010259548
0.0102464
0.010233224
0.010220003
0.010206716
0.010193347
0.010179883
0.010166316
0.010152645
0.010138872
0.010124998
0.010111017
0.010096914
0.010082671
0.010068276
0.01005374
0.010039101
0.010024431
0.010009852
0.0099958423
0.0099849313
0.0099773875
0.0099726188
0.0099701172
0.0099694451
0.0099702172
0.0099720818
0.0099746771
0.0099777257
0.0099811735
0.0099851565
0.0099897427
0.0099934574
0.0099980065
0.013760039
0.012883318
0.011035111
0.010837982
0.010672574
0.010640915
0.010626815
0.010633354
0.010645816
0.010660112
0.010673185
0.010683654
0.010690838
0.01069454
0.01069486
0.010692067
0.010686516
0.010678589
0.010668673
0.010657129
0.010644279
0.010630407
0.010615756
0.010600534
0.01058491
0.010569028
0.010553001
0.010536923
0.010520865
0.010504884
0.010489024
0.010473314
0.010457778
0.010442427
0.010427269
0.010412304
0.010397527
0.010382929
0.0103685
0.010354223
0.010340083
0.010326061
0.010312139
0.010298298
0.010284519
0.010270783
0.010257073
0.01024337
0.010229653
0.010215902
0.010202095
0.010188211
0.010174233
0.010160146
0.010145943
0.010131623
0.010117189
0.010102646
0.010087993
0.010073222
0.010058321
0.010043274
0.010028088
0.010012857
0.0099979544
0.0099848589
0.0099757524
0.0099695904
0.009965961
0.0099644165
0.0099645764
0.0099661236
0.0099687448
0.0099720761
0.0099757944
0.0099797627
0.0099840874
0.009988831
0.0099930696
0.0099981811
0.01345285
0.012521435
0.011031929
0.01089695
0.010778167
0.010761055
0.010756444
0.010763953
0.010773259
0.01078125
0.010786114
0.010787295
0.01078478
0.010778855
0.01076995
0.010758544
0.010745103
0.010730055
0.010713778
0.010696593
0.01067877
0.010660531
0.010642052
0.010623477
0.010604917
0.01058646
0.010568172
0.010550103
0.010532289
0.010514753
0.010497509
0.010480565
0.010463921
0.010447572
0.010431509
0.010415719
0.010400186
0.01038489
0.010369811
0.010354926
0.010340213
0.010325647
0.010311205
0.010296861
0.010282595
0.010268384
0.010254207
0.010240043
0.010225873
0.010211674
0.010197427
0.010183108
0.010168697
0.010154176
0.010139531
0.010124754
0.010109841
0.010094795
0.01007962
0.010064323
0.01004891
0.010033386
0.01001777
0.010002181
0.0099872776
0.0099763358
0.0099685451
0.0099635422
0.0099608466
0.0099600664
0.0099608654
0.0099629674
0.0099660896
0.0099698921
0.0099740544
0.0099784077
0.0099830301
0.0099879579
0.0099926549
0.009998118
0.0132408
0.012261071
0.011076066
0.010998015
0.010914622
0.010901416
0.01089737
0.010898402
0.010898124
0.010894814
0.010887854
0.010877404
0.010863915
0.01084793
0.01082999
0.010810585
0.010790135
0.010768991
0.010747436
0.010725693
0.010703938
0.010682306
0.010660897
0.010639788
0.01061903
0.010598661
0.010578703
0.010559171
0.010540067
0.010521391
0.010503134
0.010485284
0.010467826
0.01045074
0.010434007
0.010417602
0.010401503
0.010385681
0.010370111
0.010354764
0.010339613
0.010324628
0.010309782
0.010295048
0.0102804
0.010265813
0.010251264
0.010236729
0.010222188
0.01020762
0.010193002
0.010178316
0.010163539
0.010148655
0.010133648
0.010118503
0.010103213
0.010087769
0.010072166
0.010056405
0.010040494
0.010024461
0.010008411
0.0099927551
0.0099792783
0.0099696938
0.0099630502
0.0099589586
0.0099569965
0.009956798
0.0099580592
0.0099605277
0.0099639501
0.0099680348
0.0099725028
0.0099771759
0.0099820491
0.009987082
0.0099920964
0.009997853
0.013119088
0.012101096
0.011177706
0.011129622
0.011065766
0.01104832
0.011034987
0.011022807
0.01100825
0.010990869
0.010970831
0.010948631
0.01092482
0.010899908
0.010874323
0.010848413
0.010822447
0.010796631
0.010771118
0.010746018
0.010721408
0.010697341
0.010673849
0.010650947
0.010628643
0.010606933
0.010585806
0.010565248
0.010545241
0.010525762
0.010506788
0.010488294
0.010470253
0.010452638
0.010435418
0.010418564
0.010402047
0.010385836
0.010369898
0.010354204
0.010338721
0.01032342
0.010308269
0.010293238
0.010278299
0.010263425
0.01024859
0.010233769
0.01021894
0.010204079
0.010189165
0.010174179
0.0101591
0.010143911
0.010128598
0.010113149
0.010097553
0.010081803
0.010065892
0.010049814
0.010033568
0.010017183
0.010000813
0.0099851681
0.0099733242
0.0099647406
0.0099589787
0.0099555781
0.009954159
0.0099543818
0.0099559677
0.0099586771
0.0099622711
0.0099664991
0.0099711404
0.0099760562
0.0099812002
0.0099864593
0.0099917702
0.0099976288
0.013061155
0.012034279
0.011342575
0.011275237
0.011214939
0.011182764
0.011153252
0.011124334
0.011094356
0.011063374
0.011031682
0.010999665
0.010967665
0.010935955
0.01090474
0.010874166
0.01084433
0.010815292
0.010787087
0.010759727
0.010733211
0.010707527
0.010682654
0.010658568
0.01063524
0.010612638
0.010590731
0.010569485
0.010548866
0.01052884
0.010509372
0.010490429
0.010471977
0.010453983
0.010436411
0.010419229
0.010402404
0.010385901
0.010369687
0.01035373
0.010337996
0.010322453
0.010307069
0.010291813
0.010276657
0.01026157
0.010246525
0.010231496
0.010216459
0.010201387
0.01018626
0.010171054
0.01015575
0.010140328
0.010124775
0.010109075
0.01009322
0.010077203
0.010061021
0.010044676
0.010028179
0.010011587
0.0099951406
0.0099798898
0.0099690848
0.0099612435
0.0099560977
0.0099531781
0.0099521303
0.0099526395
0.0099544465
0.0099573272
0.0099610385
0.0099653407
0.0099700352
0.0099750164
0.0099802533
0.0099856577
0.0099912164
0.0099972656
0.013078376
0.011997887
0.011498836
0.011410714
0.011338085
0.01128702
0.011240022
0.011195771
0.011152995
0.011111539
0.011071366
0.011032511
0.010995
0.010958838
0.010924014
0.010890499
0.010858254
0.01082723
0.010797378
0.010768642
0.010740969
0.010714304
0.010688594
0.010663786
0.010639832
0.010616682
0.010594289
0.01057261
0.010551602
0.010531221
0.010511429
0.010492187
0.010473456
0.010455199
0.01043738
0.010419964
0.010402914
0.010386197
0.010369778
0.010353624
0.010337702
0.010321978
0.010306421
0.010291
0.010275686
0.010260448
0.010245259
0.010230092
0.010214921
0.01019972
0.010184467
0.010169136
0.010153707
0.010138159
0.010122474
0.010106636
0.010090631
0.010074447
0.010058072
0.010041502
0.010024744
0.010007886
0.0099913355
0.0099768265
0.0099664616
0.0099590378
0.0099542262
0.0099515731
0.0099507299
0.0099514045
0.0099533194
0.009956286
0.0099600624
0.0099644339
0.0099692222
0.0099743268
0.0099796967
0.0099852425
0.0099909608
0.0099970861
0.013177067
0.012028036
0.011617343
0.011508818
0.011420403
0.011353064
0.011292923
0.011238169
0.011187177
0.011139311
0.011094132
0.01105135
0.011010739
0.010972114
0.010935317
0.010900209
0.010866668
0.010834582
0.01080385
0.01077438
0.01074609
0.0107189
0.01069274
0.010667543
0.010643248
0.010619796
0.010597134
0.010575211
0.010553978
0.010533391
0.010513406
0.010493981
0.010475076
0.010456654
0.010438675
0.010421104
0.010403905
0.010387042
0.010370482
0.010354189
0.010338133
0.01032228
0.010306599
0.01029106
0.010275633
0.010260289
0.010245002
0.010229744
0.010214489
0.010199211
0.010183888
0.010168495
0.010153012
0.010137418
0.010121698
0.010105837
0.010089821
0.010073641
0.010057284
0.010040744
0.010024029
0.01000722
0.0099906852
0.0099759866
0.0099655603
0.0099581064
0.0099532972
0.0099506782
0.0099498411
0.0099505019
0.0099524986
0.0099554618
0.0099592596
0.0099636611
0.0099685148
0.0099737139
0.0099791816
0.0099848257
0.0099906657
0.0099969179
0.013304004
0.012084891
0.011680487
0.011558127
0.011459491
0.011383629
0.011317297
0.011257964
0.011203588
0.011153187
0.01110609
0.011061839
0.011020089
0.01098057
0.010943062
0.010907382
0.010873371
0.010840894
0.010809831
0.010780078
0.010751538
0.010724126
0.010697765
0.010672383
0.010647914
0.010624299
0.010601479
0.010579404
0.010558023
0.010537291
0.010517162
0.010497594
0.010478548
0.010459984
0.010441865
0.010424153
0.010406813
0.010389811
0.010373111
0.01035668
0.010340487
0.010324498
0.010308684
0.010293014
0.010277459
0.010261991
0.010246582
0.010231205
0.010215834
0.010200443
0.010185008
0.010169504
0.010153911
0.010138209
0.01012238
0.010106409
0.010090279
0.010073974
0.010057477
0.010040779
0.010023893
0.010006926
0.0099903297
0.0099759816
0.0099656404
0.0099582023
0.0099533333
0.0099505966
0.0099496741
0.009949609
0.0099521363
0.0099548861
0.0099586438
0.0099629971
0.0099678643
0.0099731266
0.0099786992
0.0099844727
0.0099904448
0.0099968117
68.524
370.19015
125.18947
15.290506
0.42460852
0.021371491
0.019971392
0.019677817
0.019403028
0.018336546
0.017007767
0.015834879
0.014946068
0.014381253
0.013980109
0.013601059
0.013233049
0.012907443
0.012634318
0.012405727
0.012211273
0.012043537
0.011897516
0.011769458
0.011656371
0.011555823
0.011465872
0.011384969
0.011311896
0.011245689
0.011185547
0.01113077
0.011080754
0.011034992
0.010993086
0.010954716
0.010919611
0.010887529
0.010858248
0.010831569
0.01080732
0.010785329
0.010765426
0.010747453
0.010731259
0.010716695
0.010703609
0.010691854
0.010681297
0.010671814