/*--------------------------------*- C++ -*----------------------------------*\
  =========                 |
  \\      /  F ield         | OpenFOAM: The Open Source CFD Toolbox
   \\    /   O peration     | Website:  https://openfoam.org
    \\  /    A nd           | Version:  12
     \\/     M anipulation  |
\*---------------------------------------------------------------------------*/
FoamFile
{
    format      ascii;
    class       volScalarField;
    location    "0.065";
    object      nut;
}
// * * * * * * * * * * * * * * * * * * * * * * * * * * * * * * * * * * * * * //

dimensions      [0 2 -1 0 0 0 0];

internalField   nonuniform List<scalar> 
16000
(
4.4943103e-07
9.8647492e-06
1.7583051e-05
2.3491434e-05
1.8073415e-05
2.4684462e-05
1.7542879e-05
2.3936316e-05
1.878089e-05
2.5781812e-05
2.1777772e-05
2.5492526e-05
2.3280137e-05
2.3867143e-05
2.3067178e-05
2.2927135e-05
2.2684706e-05
2.2614698e-05
2.2621771e-05
2.2724929e-05
2.2917382e-05
2.319805e-05
2.3564433e-05
2.4016604e-05
2.4556512e-05
2.5189923e-05
2.592455e-05
2.6772799e-05
2.7749785e-05
2.8871735e-05
3.0156428e-05
3.1627545e-05
3.3315693e-05
3.5258608e-05
3.7502735e-05
4.0103466e-05
4.3126792e-05
4.6651414e-05
5.0774827e-05
5.5617929e-05
6.1322654e-05
6.80563e-05
7.603007e-05
8.5502936e-05
9.678338e-05
0.00011024184
0.00012633841
0.00014563492
0.00016881724
0.00019672346
0.000230382
0.00027105697
0.0003202967
0.00038000133
0.00045250132
0.00054066112
0.00064800409
0.0007788765
0.00093867263
0.0010187909
0.0010187693
0.0010187179
0.001018666
0.0010185868
0.0010184994
0.0010184123
0.0010183327
0.0010182621
0.0010181947
0.0010181115
0.0010179711
0.0010176946
0.0010171482
0.0010161399
0.0010144558
0.0010120271
0.0010095372
0.0010084555
0.0010068956
0.0010076873
4.1470169e-07
9.3596997e-06
1.9704477e-05
2.1136327e-05
1.6323466e-05
2.2182591e-05
1.559827e-05
2.1020252e-05
1.6616654e-05
2.2833987e-05
1.974839e-05
2.3035616e-05
2.1325367e-05
2.1668842e-05
2.1040751e-05
2.0852658e-05
2.0649458e-05
2.0575272e-05
2.0583472e-05
2.067715e-05
2.0854403e-05
2.1113892e-05
2.1453671e-05
2.1873921e-05
2.2376144e-05
2.2965743e-05
2.364941e-05
2.4438333e-05
2.5346828e-05
2.6390743e-05
2.7586627e-05
2.8956112e-05
3.0527531e-05
3.2335837e-05
3.4424512e-05
3.6845688e-05
3.9661888e-05
4.2947144e-05
4.6792364e-05
5.131216e-05
5.6643135e-05
6.2943002e-05
7.0410903e-05
7.9294085e-05
8.9889255e-05
0.00010254901
0.00011771284
0.00013591931
0.00015782729
0.00018424232
0.00021615289
0.00025477704
0.00030160822
0.00035848208
0.00042765132
0.00051188642
0.00061459691
0.00073998014
0.0008932266
0.0010180062
0.0010180094
0.0010179393
0.0010178761
0.001017785
0.0010176845
0.0010175838
0.0010174907
0.0010174074
0.0010173274
0.0010172295
0.0010170683
0.0010167602
0.0010161684
0.0010151049
0.0010133728
0.0010109197
0.0010087367
0.0010076367
0.0010066761
0.0010075154
3.6857958e-07
8.9644529e-06
1.866832e-05
1.9325449e-05
1.4638389e-05
1.9567468e-05
1.3911868e-05
1.8306491e-05
1.4965238e-05
2.0075917e-05
1.8034699e-05
2.0552009e-05
1.934704e-05
1.9439842e-05
1.8954234e-05
1.8746233e-05
1.8574277e-05
1.8505428e-05
1.8516694e-05
1.8605169e-05
1.8770278e-05
1.9011097e-05
1.9325953e-05
1.9715285e-05
2.0180249e-05
2.0726039e-05
2.135863e-05
2.2088148e-05
2.2927936e-05
2.3893454e-05
2.5000421e-05
2.6268847e-05
2.7725177e-05
2.9401953e-05
3.1340018e-05
3.3588481e-05
3.6206779e-05
3.9265264e-05
4.2849271e-05
4.706704e-05
5.2050737e-05
5.7950631e-05
6.4955407e-05
7.3301206e-05
8.3275239e-05
9.5215518e-05
0.00010954402
0.0001267795
0.00014755788
0.00017265766
0.00020303354
0.00023986459
0.00028459758
0.00033901311
0.0004052967
0.00048613631
0.00058484158
0.00070548767
0.00085310081
0.0010172634
0.001017292
0.0010171994
0.0010171188
0.0010170112
0.0010168937
0.001016776
0.0010166665
0.0010165677
0.0010164723
0.0010163561
0.0010161683
0.0010158184
0.0010151652
0.0010140252
0.0010122411
0.001009843
0.0010078584
0.0010067687
0.0010062938
0.0010068984
3.3025731e-07
8.6702389e-06
1.7746549e-05
1.7820441e-05
1.3170532e-05
1.7306747e-05
1.2416186e-05
1.6028253e-05
1.3488644e-05
1.7728964e-05
1.6484885e-05
1.8345805e-05
1.7514636e-05
1.7424285e-05
1.7044748e-05
1.6836179e-05
1.6691561e-05
1.6632751e-05
1.6649639e-05
1.6736291e-05
1.689269e-05
1.7118377e-05
1.7411971e-05
1.7774259e-05
1.8206176e-05
1.8712839e-05
1.9299749e-05
1.9976189e-05
2.0754577e-05
2.1650057e-05
2.2677807e-05
2.3856456e-05
2.5210914e-05
2.6771645e-05
2.8577246e-05
3.0674203e-05
3.3119256e-05
3.5979844e-05
3.9336831e-05
4.3292436e-05
4.7975342e-05
5.353008e-05
6.0136811e-05
6.8021618e-05
7.746466e-05
8.8792434e-05
0.00010241265
0.00011882808
0.00013865617
0.00016265451
0.00019175079
0.00022709375
0.00027009348
0.00032248784
0.00038641025
0.00046448457
0.00055994309
0.00067676919
0.00081987272
0.00099530146
0.0010166131
0.0010164942
0.0010163908
0.0010162621
0.0010161233
0.0010159843
0.0010158541
0.0010157356
0.0010156206
0.001015482
0.0010152631
0.0010148666
0.0010141475
0.0010129259
0.0010110822
0.0010088193
0.0010070024
0.0010059926
0.0010059042
0.0010061749
2.9899871e-07
8.4502877e-06
1.6933679e-05
1.7838028e-05
1.297655e-05
1.5327183e-05
1.1096194e-05
1.4066862e-05
1.2214434e-05
1.5692058e-05
1.5098842e-05
1.6347546e-05
1.5796047e-05
1.558203e-05
1.5281605e-05
1.5086378e-05
1.4964845e-05
1.4917016e-05
1.4938672e-05
1.5023158e-05
1.5170636e-05
1.5381291e-05
1.5654095e-05
1.5990281e-05
1.6390721e-05
1.6860528e-05
1.7404873e-05
1.803238e-05
1.8754549e-05
1.958616e-05
2.0542042e-05
2.1639673e-05
2.2902689e-05
2.4359749e-05
2.6047507e-05
2.8010145e-05
3.0301969e-05
3.2988032e-05
3.6145805e-05
3.9871736e-05
4.4291502e-05
4.9545272e-05
5.5806463e-05
6.3291587e-05
7.2275284e-05
8.3074855e-05
9.6085913e-05
0.00011179767
0.00013081171
0.00015386853
0.00018187261
0.00021594699
0.00025746991
0.00030814203
0.00037005131
0.00044576518
0.00053844758
0.00065200027
0.00079122988
0.00096204397
0.0010159727
0.0010158243
0.0010156929
0.0010155386
0.0010153747
0.0010152108
0.0010150563
0.0010149143
0.0010147758
0.0010146105
0.0010143559
0.0010139075
0.0010131186
0.0010118174
0.0010099064
0.0010078452
0.0010061879
0.001005302
0.0010054699
0.0010054907
2.7482389e-07
8.3169738e-06
1.6260453e-05
1.7673852e-05
1.2856969e-05
1.3591899e-05
1.0357375e-05
1.2437417e-05
1.1140212e-05
1.3954092e-05
1.3877658e-05
1.4585036e-05
1.422071e-05
1.3934611e-05
1.3684876e-05
1.3505291e-05
1.3399025e-05
1.3358236e-05
1.3381156e-05
1.3461319e-05
1.3598814e-05
1.3794409e-05
1.4047301e-05
1.4359053e-05
1.4730614e-05
1.5167025e-05
1.5673202e-05
1.6257253e-05
1.6929783e-05
1.7705174e-05
1.8598069e-05
1.9625012e-05
2.0808625e-05
2.2176061e-05
2.3762368e-05
2.5609807e-05
2.7770604e-05
3.030789e-05
3.329694e-05
3.6829188e-05
4.1027522e-05
4.6029198e-05
5.2003198e-05
5.9157271e-05
6.776225e-05
7.8129043e-05
9.06439e-05
0.00010578582
0.00012414387
0.00014644663
0.0001735806
0.00020664962
0.00024700747
0.00029632631
0.00035665988
0.00043053257
0.0005210556
0.00063206748
0.00076829573
0.00093553889
0.0010153662
0.0010151852
0.0010150209
0.0010148371
0.0010146446
0.0010144524
0.00101427
0.0010141006
0.0010139344
0.0010137382
0.0010134437
0.0010129392
0.0010120776
0.0010107095
0.0010087819
0.0010069277
0.0010054273
0.0010046602
0.0010049867
0.0010048404
2.5005578e-07
8.2438347e-06
1.5742336e-05
1.6778695e-05
1.2747214e-05
1.2021964e-05
1.0493843e-05
1.1427836e-05
1.0925751e-05
1.2484146e-05
1.2779299e-05
1.3024449e-05
1.275853e-05
1.2441e-05
1.2220026e-05
1.2055797e-05
1.1960616e-05
1.1925433e-05
1.1949041e-05
1.202551e-05
1.2154515e-05
1.2337317e-05
1.2573168e-05
1.2787619e-05
1.312522e-05
1.3524941e-05
1.399103e-05
1.4530888e-05
1.5154035e-05
1.5874119e-05
1.6705551e-05
1.7663969e-05
1.8771051e-05
2.0052503e-05
2.1541876e-05
2.3279657e-05
2.5316108e-05
2.7712454e-05
3.0542508e-05
3.4149663e-05
3.8167034e-05
4.2963775e-05
4.8706801e-05
5.5596245e-05
6.3900084e-05
7.3925627e-05
8.6052486e-05
0.0001007526
0.00011860541
0.00014033248
0.00016680708
0.00019911985
0.00023860692
0.00028691994
0.00034608867
0.00041860676
0.00050754661
0.00061669903
0.00075073226
0.00091536248
0.0010147912
0.0010145745
0.0010143731
0.0010141559
0.0010139316
0.0010137082
0.0010134945
0.0010132939
0.0010130957
0.001012864
0.0010125256
0.0010119625
0.0010110256
0.0010095971
0.0010077382
0.0010060719
0.0010047248
0.0010040594
0.0010044432
0.0010042135
2.2513411e-07
8.2029628e-06
1.530118e-05
1.5298607e-05
1.1800757e-05
1.0484887e-05
9.1558907e-06
1.0243578e-05
9.6505433e-06
1.1217579e-05
1.1674418e-05
1.158942e-05
1.1361744e-05
1.1052053e-05
1.0854335e-05
1.0709558e-05
1.0627652e-05
1.0600814e-05
1.0562907e-05
1.0622893e-05
1.0735395e-05
1.0900711e-05
1.1116861e-05
1.1383588e-05
1.1705101e-05
1.2084408e-05
1.2525902e-05
1.3036915e-05
1.3626424e-05
1.4307643e-05
1.5095174e-05
1.600416e-05
1.7055824e-05
1.8274942e-05
1.969417e-05
2.1352855e-05
2.3300042e-05
2.5595748e-05
2.8313194e-05
3.1541549e-05
3.5389546e-05
3.9994954e-05
4.5524409e-05
5.2611984e-05
6.0693983e-05
7.0471919e-05
8.2321897e-05
9.6711898e-05
0.00011421486
0.00013555064
0.00016158446
0.00019340028
0.00023232437
0.0002799969
0.00033843514
0.00041011599
0.00049808875
0.00060611447
0.0007388243
0.00090188296
0.0010142432
0.0010139882
0.0010137458
0.001013492
0.0010132331
0.0010129758
0.0010127278
0.0010124921
0.0010122572
0.001011985
0.0010115983
0.0010109755
0.0010099665
0.0010084727
0.0010067711
0.0010052811
0.0010040795
0.0010034943
0.0010038391
0.0010036039
2.0733676e-07
8.1605449e-06
1.4852385e-05
1.3397274e-05
9.698641e-06
9.3245598e-06
7.5377107e-06
8.7396216e-06
8.9329543e-06
1.0098045e-05
1.0547962e-05
1.0250688e-05
1.0040837e-05
9.7624194e-06
9.588605e-06
9.3990346e-06
9.307547e-06
9.2760702e-06
9.2978351e-06
9.3697097e-06
9.4871567e-06
9.6526397e-06
9.8643624e-06
1.0122524e-05
1.0431191e-05
1.0794187e-05
1.1215983e-05
1.1703941e-05
1.2266664e-05
1.2916912e-05
1.366957e-05
1.4539517e-05
1.5547797e-05
1.6718535e-05
1.8083821e-05
1.9682295e-05
2.1562247e-05
2.378299e-05
2.6417018e-05
2.9552548e-05
3.3298434e-05
3.779015e-05
4.3196671e-05
4.9713905e-05
5.7593206e-05
6.7147363e-05
7.9447899e-05
9.3659629e-05
0.0001109686
0.00013209807
0.00015791081
0.00018949096
0.00022816303
0.00027556527
0.00033371433
0.00040508498
0.0004927201
0.00060036983
0.00073265115
0.00089520953
0.0010137174
0.0010134218
0.0010131354
0.0010128419
0.0010125459
0.0010122524
0.0010119674
0.0010116928
0.0010114161
0.0010110978
0.0010106577
0.0010099733
0.0010089061
0.0010073879
0.0010058789
0.0010045569
0.001003489
0.001002965
0.0010032435
0.0010030083
1.9087492e-07
8.1192704e-06
1.3308291e-05
1.1660277e-05
7.8397498e-06
8.2890471e-06
6.6889704e-06
7.8895841e-06
8.2700789e-06
9.0292943e-06
9.4293924e-06
9.0259701e-06
8.8226772e-06
8.4973367e-06
8.3143567e-06
8.1945428e-06
8.1352528e-06
8.1278731e-06
8.1658193e-06
8.2488862e-06
8.3726017e-06
8.5382061e-06
8.7469707e-06
8.9987874e-06
9.2979722e-06
9.6487534e-06
1.0055743e-05
1.0526458e-05
1.1069267e-05
1.1696509e-05
1.2423401e-05
1.3264859e-05
1.4241967e-05
1.5378468e-05
1.6706197e-05
1.8263475e-05
2.0098261e-05
2.2269676e-05
2.4850381e-05
2.7928825e-05
3.1613717e-05
3.6039839e-05
4.1378873e-05
4.7826315e-05
5.5635079e-05
6.5119042e-05
7.6665144e-05
9.0727289e-05
0.00010886757
0.0001299781
0.00015579332
0.00018740431
0.00022614282
0.00027365528
0.0003319703
0.00040357611
0.00049152739
0.00059958445
0.0007323751
0.00089555942
0.001013208
0.0010128696
0.0010125369
0.0010122011
0.0010118655
0.0010115338
0.0010112095
0.0010108924
0.0010105686
0.001010198
0.0010096995
0.0010089508
0.0010078389
0.0010063919
0.0010050622
0.0010038999
0.0010029526
0.0010024758
0.0010026667
0.0010024243
1.760945e-07
8.0725939e-06
1.0562888e-05
9.6991268e-06
6.4318774e-06
7.3824034e-06
6.0958596e-06
7.088429e-06
7.7304619e-06
8.0569665e-06
8.3310134e-06
7.824369e-06
7.5750815e-06
7.3464906e-06
7.2091211e-06
7.1268407e-06
7.0945086e-06
7.1084869e-06
7.1618376e-06
7.2539097e-06
7.3830152e-06
7.5506511e-06
7.7584174e-06
8.006724e-06
8.2999641e-06
8.642795e-06
9.0400938e-06
9.4995863e-06
1.0029601e-05
1.0642128e-05
1.1294157e-05
1.2108233e-05
1.3055964e-05
1.4160685e-05
1.5453962e-05
1.6973832e-05
1.8767987e-05
2.0895406e-05
2.3429034e-05
2.6457818e-05
3.0091323e-05
3.4735902e-05
4.0063482e-05
4.6508547e-05
5.432569e-05
6.3831049e-05
7.542119e-05
8.9558914e-05
0.00010682744
0.00012795291
0.00015523102
0.00018714409
0.00022627419
0.00027428652
0.00033323482
0.00040563757
0.00049458116
0.00060385963
0.00073813894
0.0009031288
0.0010127079
0.0010123253
0.0010119444
0.0010115639
0.0010111865
0.0010108143
0.0010104486
0.0010100859
0.0010097103
0.0010092814
0.0010087208
0.0010079111
0.001006758
0.0010054787
0.0010043216
0.0010033092
0.0010024729
0.0010020357
0.0010021191
0.0010017069
1.6309581e-07
8.0248556e-06
8.3251225e-06
8.2364589e-06
5.6547741e-06
6.5385965e-06
5.5951338e-06
6.3870904e-06
7.1795307e-06
7.1472209e-06
7.1403279e-06
6.7090568e-06
6.5044421e-06
6.3344536e-06
6.2358623e-06
6.1849901e-06
6.1772002e-06
6.2082111e-06
6.2748173e-06
6.3766672e-06
6.5122695e-06
6.6833998e-06
6.8924885e-06
7.1404041e-06
7.4316249e-06
7.7373749e-06
8.1234773e-06
8.5711137e-06
9.088477e-06
9.6871188e-06
1.0380943e-05
1.1188071e-05
1.2128896e-05
1.3226808e-05
1.4513649e-05
1.6027824e-05
1.7817568e-05
1.9942585e-05
2.2477206e-05
2.5512159e-05
2.9159452e-05
3.3559077e-05
3.8882539e-05
4.533538e-05
5.3175804e-05
6.327014e-05
7.5015747e-05
8.9360145e-05
0.00010689447
0.00012836399
0.00015467686
0.00018871004
0.00022856444
0.00027747655
0.00033753898
0.00041131875
0.00050195618
0.00061330574
0.00075010233
0.00091814068
0.0010122096
0.0010117813
0.0010113513
0.0010109241
0.0010105023
0.0010100873
0.0010096777
0.0010092672
0.0010088368
0.0010083451
0.0010077204
0.001006866
0.0010057384
0.0010046442
0.0010036525
0.0010027814
0.0010020539
0.0010016473
0.0010015906
0.0010011257
1.5144449e-07
7.9669823e-06
6.614678e-06
7.2273333e-06
5.0362684e-06
5.7838449e-06
5.1637847e-06
5.7635269e-06
6.52354e-06
6.1145407e-06
6.0656878e-06
5.7326197e-06
5.5690791e-06
5.4465054e-06
5.381156e-06
5.3572367e-06
5.3704527e-06
5.4184018e-06
5.4981088e-06
5.610037e-06
5.7534773e-06
5.9302986e-06
6.1170196e-06
6.3621474e-06
6.6502244e-06
6.9853074e-06
7.3743258e-06
7.8246724e-06
8.344753e-06
8.9463132e-06
9.6433976e-06
1.045389e-05
1.1399405e-05
1.250367e-05
1.379905e-05
1.5324673e-05
1.7129843e-05
1.9275477e-05
2.183798e-05
2.4910852e-05
2.8608738e-05
3.3074516e-05
3.8488171e-05
4.5059952e-05
5.3055476e-05
6.2804976e-05
7.4718409e-05
8.9290618e-05
0.00010807361
0.00013007687
0.00015705708
0.00019016418
0.00023301213
0.00028323452
0.00034490585
0.00042066187
0.00051372197
0.00062803117
0.00076842973
0.00094083432
0.0010117052
0.0010112298
0.0010107503
0.0010102747
0.0010098062
0.0010093454
0.0010088894
0.0010084294
0.0010079436
0.0010073894
0.0010067035
0.0010058196
0.0010048196
0.0010038842
0.001003044
0.0010023074
0.0010016978
0.0010013311
0.0010011614
0.0010005543
1.4104921e-07
7.8967074e-06
5.3009814e-06
6.3107376e-06
4.4857499e-06
5.1114948e-06
4.7944106e-06
5.1267901e-06
5.7006352e-06
5.2169348e-06
5.1223603e-06
4.8777061e-06
4.7527903e-06
4.6698773e-06
4.634058e-06
4.6345115e-06
4.6675219e-06
4.7316484e-06
4.8248102e-06
4.9290199e-06
5.0761233e-06
5.2564976e-06
5.472346e-06
5.7265539e-06
6.0233067e-06
6.3670443e-06
6.7646151e-06
7.2240375e-06
7.7539364e-06
8.3662117e-06
9.075022e-06
9.8984652e-06
1.0809213e-05
1.1920817e-05
1.3225654e-05
1.4763551e-05
1.6585082e-05
1.8752441e-05
2.1344148e-05
2.445698e-05
2.8209213e-05
3.2996606e-05
3.8551874e-05
4.5304863e-05
5.3529684e-05
6.3565128e-05
7.5839612e-05
9.0868288e-05
0.00010928079
0.00013306718
0.00016094612
0.00019516739
0.00023718447
0.00029155619
0.00035534579
0.00043369721
0.00052993828
0.00064813834
0.00079328754
0.00097146748
0.0010111869
0.0010106635
0.0010101348
0.0010096096
0.001009092
0.0010085825
0.0010080773
0.0010075661
0.0010070265
0.0010064162
0.001005684
0.0010048186
0.001003983
0.0010031911
0.0010024837
0.0010018744
0.0010013926
0.0010010935
0.0010008365
0.0010001395
1.3177429e-07
7.7608561e-06
4.3001565e-06
5.4947943e-06
3.9930272e-06
4.5120811e-06
4.4690603e-06
4.4335354e-06
4.8719301e-06
4.416141e-06
4.3043967e-06
4.1325932e-06
4.0444e-06
3.995826e-06
3.9868744e-06
4.009883e-06
4.0618461e-06
4.1253357e-06
4.2270311e-06
4.3584689e-06
4.5204703e-06
4.7145041e-06
4.9434639e-06
5.2104362e-06
5.5201725e-06
5.8773757e-06
6.288957e-06
6.7427773e-06
7.2832646e-06
7.9068475e-06
8.6277225e-06
9.4639977e-06
1.0437807e-05
1.1576972e-05
1.2914665e-05
1.4491985e-05
1.6361754e-05
1.8588442e-05
2.1253601e-05
2.4458801e-05
2.8327593e-05
3.3015668e-05
3.8711209e-05
4.5645913e-05
5.4105059e-05
6.4980511e-05
7.7722214e-05
9.3333139e-05
0.00011247201
0.00013594924
0.000166308
0.00020192343
0.00024566412
0.0002993807
0.00036884574
0.00045043158
0.00055064186
0.00067370865
0.00082482604
0.0010103004
0.0010106481
0.001010076
0.0010094987
0.0010089235
0.0010083551
0.0010077945
0.0010072373
0.0010066732
0.0010060823
0.0010054273
0.0010046694
0.0010039234
0.0010032187
0.0010025557
0.0010019669
0.0010014782
0.0010011212
0.0010009031
0.0010006224
0.00099992772
1.2354424e-07
7.4296075e-06
3.6135802e-06
4.770418e-06
3.5535761e-06
3.9800166e-06
3.9593594e-06
3.805172e-06
4.0754093e-06
3.7084539e-06
3.6033579e-06
3.4896754e-06
3.4358652e-06
3.4176151e-06
3.4332619e-06
3.4643468e-06
3.5284177e-06
3.6212643e-06
3.7420779e-06
3.8910716e-06
4.0696882e-06
4.279915e-06
4.525063e-06
4.8085041e-06
5.1235079e-06
5.4949074e-06
5.9211426e-06
6.4101972e-06
6.9721178e-06
7.6188646e-06
8.3650015e-06
9.2293698e-06
1.0235008e-05
1.1410788e-05
1.2792171e-05
1.4421748e-05
1.6355147e-05
1.8659843e-05
2.1420686e-05
2.4745228e-05
2.8761854e-05
3.3633948e-05
3.9561773e-05
4.6787099e-05
5.5610919e-05
6.6402111e-05
8.0321184e-05
9.6640203e-05
0.00011665426
0.00014122164
0.00017137217
0.00021037374
0.00025617751
0.00031244372
0.00038154661
0.00047082874
0.0005758242
0.00070477714
0.0008631453
0.0010107041
0.0010100832
0.001009463
0.0010088383
0.0010082135
0.0010075935
0.00100698
0.001006369
0.0010057508
0.0010051101
0.0010044287
0.0010037174
0.0010031056
0.0010025231
0.0010019771
0.0010014995
0.0010011248
0.0010008771
0.0010007196
0.0010004469
0.00099980682
1.164444e-07
7.0289933e-06
3.174157e-06
4.1271573e-06
3.1620985e-06
3.3591983e-06
3.5075232e-06
3.229256e-06
3.3564616e-06
3.0941192e-06
3.0101106e-06
2.9423832e-06
2.919795e-06
2.9286714e-06
2.9518068e-06
3.0116218e-06
3.0990602e-06
3.2129214e-06
3.3532903e-06
3.5211028e-06
3.7183413e-06
3.9472701e-06
4.2032978e-06
4.5037437e-06
4.847691e-06
5.240742e-06
5.6896314e-06
6.2026297e-06
6.7899834e-06
7.4644157e-06
8.2409502e-06
9.1392261e-06
1.0183324e-05
1.1403553e-05
1.2782273e-05
1.4461174e-05
1.6454773e-05
1.8834063e-05
2.1818331e-05
2.5287072e-05
2.9482335e-05
3.4575178e-05
4.0779087e-05
4.8348628e-05
5.7599871e-05
6.8923669e-05
8.2798805e-05
9.9811775e-05
0.00012175987
0.00014759221
0.00017930871
0.00021825976
0.00026862325
0.00032785462
0.00040061869
0.00049478202
0.00060539781
0.00074129456
0.00090824912
0.001010151
0.0010094893
0.0010088227
0.0010081521
0.001007479
0.0010068079
0.0010061411
0.0010054757
0.001004804
0.001004118
0.0010034274
0.0010028623
0.0010023626
0.0010018966
0.0010014635
0.0010010924
0.0010008191
0.0010006573
0.0010005483
0.0010003103
0.00099978743
1.1072615e-07
6.0023402e-06
2.7985887e-06
3.5426851e-06
2.8224294e-06
2.7859831e-06
3.0580765e-06
2.7081579e-06
2.739791e-06
2.569628e-06
2.5132596e-06
2.4828714e-06
2.4809349e-06
2.5073158e-06
2.5648455e-06
2.6494816e-06
2.7593241e-06
2.8941776e-06
3.0548711e-06
3.2427768e-06
3.4550836e-06
3.7028254e-06
3.9860313e-06
4.3086964e-06
4.6755946e-06
5.0925187e-06
5.5665144e-06
6.106173e-06
6.7220595e-06
7.4109377e-06
8.2163548e-06
9.1464064e-06
1.0226155e-05
1.1486997e-05
1.2968192e-05
1.4718816e-05
1.6799528e-05
1.9286252e-05
2.2273168e-05
2.5876597e-05
3.0240912e-05
3.5800041e-05
4.231912e-05
5.0281625e-05
6.0019919e-05
7.1946739e-05
8.6569015e-05
0.00010450973
0.00012769481
0.00015495479
0.00018843962
0.00022957567
0.00028284097
0.00034543548
0.00042237049
0.00051693186
0.00063915205
0.00078307371
0.00096000192
0.001009575
0.0010088699
0.0010081574
0.0010074415
0.0010067222
0.0010060018
0.0010052831
0.0010045643
0.0010038427
0.0010031333
0.0010025472
0.0010020866
0.0010016966
0.0010013424
0.0010010201
0.0010007493
0.0010005606
0.0010004681
0.001000427
0.0010002192
0.00099980555
1.0592874e-07
4.2083886e-06
2.4566102e-06
3.0014075e-06
2.3950845e-06
2.3049249e-06
2.5882053e-06
2.244855e-06
2.2268431e-06
2.1282458e-06
2.1023443e-06
2.0971121e-06
2.1230829e-06
2.1798299e-06
2.2633151e-06
2.371199e-06
2.5027867e-06
2.6585578e-06
2.8370947e-06
3.044461e-06
3.2816185e-06
3.5513712e-06
3.8571341e-06
4.2030634e-06
4.5941711e-06
5.0364957e-06
5.5373639e-06
6.0963921e-06
6.7396012e-06
7.474148e-06
8.3169753e-06
9.2891195e-06
1.0417091e-05
1.1734175e-05
1.3282094e-05
1.5112839e-05
1.7291017e-05
1.9896996e-05
2.3030744e-05
2.6816267e-05
3.1407165e-05
3.6992729e-05
4.4133004e-05
5.2529493e-05
6.2805746e-05
7.5398411e-05
9.0844399e-05
0.000109805
0.00013309425
0.0001631644
0.00019859663
0.00024214586
0.00029568658
0.00036491675
0.00044649103
0.0005468274
0.00067670164
0.00082971635
0.0010097496
0.0010089834
0.0010082317
0.0010074734
0.0010067122
0.0010059478
0.001005181
0.0010044138
0.0010036471
0.0010028902
0.0010022393
0.0010017628
0.001001399
0.001001108
0.0010008591
0.0010006416
0.0010004629
0.0010003429
0.0010002919
0.0010002886
0.0010001519
0.00099984796
1.0085007e-07
3.4725436e-06
2.1020646e-06
2.5034346e-06
2.044336e-06
1.9024052e-06
2.1074599e-06
1.8392634e-06
1.8100304e-06
1.7658791e-06
1.7662411e-06
1.7918164e-06
1.8494518e-06
1.9329229e-06
2.0398367e-06
2.1692899e-06
2.3214903e-06
2.4955372e-06
2.6962218e-06
2.9246116e-06
3.1831962e-06
3.4749978e-06
3.8036327e-06
4.17342e-06
4.5895455e-06
5.0582669e-06
5.5808732e-06
6.1765555e-06
6.8524986e-06
7.6228974e-06
8.5056032e-06
9.5228942e-06
1.0702786e-05
1.2080496e-05
1.3700342e-05
1.5617807e-05
1.790176e-05
2.0637539e-05
2.3931256e-05
2.7914028e-05
3.2748563e-05
3.8915774e-05
4.6163594e-05
5.5025619e-05
6.5879008e-05
7.9185909e-05
9.5515208e-05
0.00011556778
0.00014150622
0.00017203145
0.00020955327
0.00025569764
0.00031246466
0.0003859155
0.00047253595
0.00057918874
0.00071742794
0.00088053047
0.0010091773
0.0010083827
0.0010075851
0.0010067817
0.0010059747
0.001005165
0.0010043531
0.0010035417
0.0010027423
0.0010020005
0.0010014709
0.0010010813
0.0010008019
0.0010005977
0.0010004417
0.001000317
0.0010002194
0.001000159
0.0010001421
0.0010001594
0.0010000703
0.00099994924
9.7129079e-08
2.7732708e-06
1.7944668e-06
2.0024378e-06
1.7545547e-06
1.5581082e-06
1.6648165e-06
1.4962229e-06
1.4822729e-06
1.4813362e-06
1.5083732e-06
1.5669698e-06
1.6511872e-06
1.7575333e-06
1.8850584e-06
2.033945e-06
2.2040842e-06
2.3985979e-06
2.6190173e-06
2.8676281e-06
3.1471669e-06
3.4608355e-06
3.8123857e-06
4.2062565e-06
4.6477687e-06
5.1397897e-06
5.6955294e-06
6.3223095e-06
7.0319922e-06
7.8394577e-06
8.7635897e-06
9.827976e-06
1.1062305e-05
1.250385e-05
1.4199478e-05
1.6208127e-05
1.8603465e-05
2.1475906e-05
2.4938347e-05
2.9129736e-05
3.444759e-05
4.0703759e-05
4.8343483e-05
5.7691637e-05
6.9146378e-05
8.319798e-05
0.00010044928
0.00012164389
0.00014902936
0.00018131153
0.00022101873
0.00026988284
0.00033004418
0.00040790253
0.00049987598
0.00061327013
0.00076042603
0.00093444094
0.0010086033
0.0010077786
0.0010069414
0.0010060959
0.0010052441
0.0010043887
0.0010035318
0.0010026806
0.0010018692
0.0010012637
0.0010008173
0.0010005056
0.0010002973
0.0010001656
0.0010000864
0.0010000386
0.0010000089
0.00099999889
0.0010000159
0.0010000595
0.0010000168
0.00099998663
9.4974666e-08
2.1645447e-06
1.5271078e-06
1.5258756e-06
1.4872229e-06
1.263809e-06
1.3051169e-06
1.2228426e-06
1.2366197e-06
1.266312e-06
1.3267043e-06
1.4112601e-06
1.5169043e-06
1.6422725e-06
1.787581e-06
1.9538058e-06
2.1417516e-06
2.3543937e-06
2.5935156e-06
2.8616259e-06
3.1616053e-06
3.4967726e-06
3.8709807e-06
4.2887648e-06
4.755549e-06
5.2779268e-06
5.8640246e-06
6.5239402e-06
7.2618482e-06
8.1068127e-06
9.0729579e-06
1.0185268e-05
1.1475227e-05
1.2982356e-05
1.4756126e-05
1.6927259e-05
1.9455461e-05
2.2490212e-05
2.6151826e-05
3.0588699e-05
3.5983576e-05
4.2561158e-05
5.059902e-05
6.043883e-05
7.2501434e-05
8.7305641e-05
0.00010549001
0.00012895874
0.00015664934
0.00019071013
0.00023263252
0.00028426135
0.00035117586
0.00043019832
0.00052768599
0.00064807461
0.0008044638
0.00098996541
0.0010080343
0.0010071801
0.0010063095
0.0010054279
0.0010045363
0.0010036383
0.0010027406
0.0010018696
0.001001167
0.0010006481
0.0010002794
0.0010000326
0.00099988325
0.00099980927
0.0009997895
0.000999801
0.00099982512
0.00099985691
0.00099990405
0.00099997099
0.00099997383
0.0010000047
9.5164955e-08
1.6453251e-06
1.301517e-06
1.160997e-06
1.2190762e-06
1.0175589e-06
1.0412955e-06
1.0210493e-06
1.0632805e-06
1.1223519e-06
1.2068469e-06
1.3109897e-06
1.4336464e-06
1.5749209e-06
1.7358335e-06
1.9178508e-06
2.122458e-06
2.3522085e-06
2.609235e-06
2.8961568e-06
3.2159386e-06
3.5719755e-06
3.9682032e-06
4.409255e-06
4.9006784e-06
5.4492294e-06
6.0632641e-06
6.7532297e-06
7.5322752e-06
8.4170261e-06
9.4284947e-06
1.0593293e-05
1.1944956e-05
1.3525651e-05
1.5388172e-05
1.7598377e-05
2.0238219e-05
2.3409661e-05
2.7238872e-05
3.1882025e-05
3.7532007e-05
4.4426098e-05
5.2854504e-05
6.3176848e-05
7.5835087e-05
9.2131029e-05
0.00011136789
0.00013501194
0.00016409473
0.00019989276
0.00024398496
0.00030112966
0.00036865091
0.00045198517
0.00055495331
0.00068897172
0.00084794417
0.001008377
0.001007484
0.0010065979
0.0010056977
0.0010047861
0.0010038625
0.0010029319
0.001002015
0.0010011944
0.0010005928
0.0010001513
0.00099984678
0.0009996542
0.00099955203
0.00099952189
0.00099954484
0.00099959846
0.00099966263
0.00099972865
0.00099980252
0.00099988765
0.00099993083
0.0010000068
9.8496385e-08
1.2215946e-06
1.1148608e-06
8.9414817e-07
1.0626749e-06
8.1431413e-07
8.6024826e-07
8.8443118e-07
9.4946976e-07
1.0316572e-06
1.1335717e-06
1.252714e-06
1.3894095e-06
1.5446165e-06
1.7197723e-06
1.9165646e-06
2.1369134e-06
2.382811e-06
2.6568617e-06
2.9616592e-06
3.3002302e-06
3.6760396e-06
4.0931078e-06
4.5561748e-06
5.0709256e-06
5.6442957e-06
6.2848821e-06
7.0035046e-06
7.8138246e-06
8.7331922e-06
9.7835603e-06
1.0992804e-05
1.2396084e-05
1.4037643e-05
1.5972885e-05
1.8270957e-05
2.1017828e-05
2.4320079e-05
2.830954e-05
3.3149018e-05
3.9306055e-05
4.6553465e-05
5.5414115e-05
6.6265893e-05
7.9573722e-05
9.5911027e-05
0.0001159859
0.00014067334
0.00017105249
0.00021041421
0.00025687108
0.0003141564
0.00038486838
0.00047225922
0.0005860748
0.00072112367
0.00088877293
0.0010078858
0.0010069686
0.0010060504
0.0010051205
0.0010041808
0.0010032319
0.0010022802
0.0010013624
0.0010006622
0.0010001342
0.00099975788
0.00099950613
0.00099935682
0.00099929081
0.00099929197
0.00099934336
0.00099942458
0.00099951652
0.00099960914
0.00099970663
0.00099981042
0.00099988908
0.00099999664
1.0508091e-07
9.4996524e-07
9.5214141e-07
7.5501911e-07
7.5832876e-07
6.9465876e-07
7.3899134e-07
7.9819519e-07
8.80507e-07
9.7882216e-07
1.0937869e-06
1.2252739e-06
1.3743073e-06
1.5421747e-06
1.7304398e-06
1.9408491e-06
2.1753541e-06
2.4361285e-06
2.7256059e-06
3.0465247e-06
3.4019927e-06
3.7955748e-06
4.231416e-06
4.7144161e-06
5.2504716e-06
5.8446877e-06
6.5090407e-06
7.2533715e-06
8.0991477e-06
9.0530031e-06
1.0142889e-05
1.1398059e-05
1.2855383e-05
1.4561194e-05
1.6573477e-05
1.8964501e-05
2.182405e-05
2.5263366e-05
2.9419963e-05
3.44636e-05
4.0603632e-05
4.8098123e-05
5.7264956e-05
6.8494045e-05
8.2268038e-05
9.9181836e-05
0.00012103855
0.00014680879
0.00017852342
0.00021758967
0.00026575658
0.00032520774
0.00039867527
0.00049424536
0.00060775867
0.00074869553
0.00092407713
0.0010074473
0.001006509
0.0010055629
0.001004604
0.0010036348
0.0010026604
0.001001704
0.0010008655
0.0010002412
0.00099977746
0.00099945243
0.00099924217
0.00099912578
0.00099908592
0.00099910787
0.00099917678
0.00099927551
0.00099938775
0.00099950298
0.00099962039
0.00099973696
0.0009998417
0.00099997607
1.1960639e-07
9.5115252e-07
7.9487166e-07
5.6056023e-07
6.0280289e-07
6.0551473e-07
6.6818546e-07
7.4613738e-07
8.4195569e-07
9.5240046e-07
1.0784159e-06
1.2208032e-06
1.3808266e-06
1.5598697e-06
1.7595221e-06
1.9815535e-06
2.2279426e-06
2.5009021e-06
2.8029147e-06
3.1367766e-06
3.5056588e-06
3.9131919e-06
4.3635891e-06
4.8618209e-06
5.4138637e-06
6.0270401e-06
6.7104698e-06
7.4756486e-06
8.3371827e-06
9.3136655e-06
1.0428733e-05
1.171239e-05
1.3202505e-05
1.4946686e-05
1.7004489e-05
1.9450125e-05
2.2375743e-05
2.5895427e-05
3.0150107e-05
3.5313594e-05
4.1600155e-05
4.9626998e-05
5.908644e-05
7.0672083e-05
8.4882287e-05
0.00010233139
0.00012377949
0.00015016805
0.00018266507
0.00022272091
0.00027214739
0.00033628599
0.00041237239
0.0005066247
0.00062361407
0.00076916025
0.00095070223
0.0010070751
0.0010061212
0.0010051559
0.0010041775
0.0010031876
0.0010021945
0.0010012377
0.0010004902
0.00099992163
0.00099950733
0.00099922109
0.00099904164
0.00099894921
0.00099892797
0.00099896408
0.00099904373
0.00099915244
0.00099927732
0.00099941001
0.00099954729
0.00099968215
0.00099981033
0.00099995886
1.0969364e-07
6.149145e-07
6.3076075e-07
4.6431909e-07
5.0588612e-07
5.5109676e-07
6.2894372e-07
7.2048568e-07
8.2693934e-07
9.4762404e-07
1.0835862e-06
1.2358555e-06
1.4057247e-06
1.5946318e-06
1.8041985e-06
2.0362402e-06
2.2927892e-06
2.5760861e-06
2.8887244e-06
3.2335477e-06
3.6137944e-06
4.0331635e-06
4.4959382e-06
5.0071621e-06
5.5728921e-06
6.200545e-06
6.8993575e-06
7.6809829e-06
8.567284e-06
9.5662363e-06
1.0706797e-05
1.2019729e-05
1.3543808e-05
1.5327739e-05
1.74324e-05
1.993361e-05
2.2925464e-05
2.6524435e-05
3.0874415e-05
3.6152901e-05
4.2578622e-05
5.0420899e-05
6.001122e-05
7.1759439e-05
8.617088e-05
0.00010387049
0.00012563199
0.00015375249
0.00018698979
0.00022796505
0.00027854266
0.00034105735
0.00041844904
0.00051443638
0.00063374711
0.00078242579
0.00096823305
0.0010067875
0.0010058192
0.0010048382
0.0010038453
0.0010028431
0.0010018449
0.0010009093
0.0010002193