/*--------------------------------*- C++ -*----------------------------------*\
  =========                 |
  \\      /  F ield         | OpenFOAM: The Open Source CFD Toolbox
   \\    /   O peration     | Website:  https://openfoam.org
    \\  /    A nd           | Version:  12
     \\/     M anipulation  |
\*---------------------------------------------------------------------------*/
FoamFile
{
    format      ascii;
    class       volScalarField;
    location    "0.065";
    object      p;
}
// * * * * * * * * * * * * * * * * * * * * * * * * * * * * * * * * * * * * * //

dimensions      [1 -1 -2 0 0 0 0];

internalField   nonuniform List<scalar> 
16000
(
89339.647
89467.188
89479.185
89615.26
89641.655
89770.619
89821.602
89939.7
90014.393
90126.711
90219.886
90332.113
90439.497
90556.099
90674.628
90798.66
90926.803
91059.665
91197.123
91339.264
91486.1
91637.637
91793.856
91954.717
92120.152
92290.067
92464.338
92642.806
92825.282
93011.54
93201.321
93394.328
93590.232
93788.667
93989.237
94191.514
94395.045
94599.351
94803.938
95008.293
95211.896
95414.225
95614.757
95812.978
96008.386
96200.5
96388.864
96573.05
96752.665
96927.349
97096.781
97260.681
97418.806
97570.959
97716.981
97856.753
97990.195
98117.267
98237.966
98352.329
98460.423
98562.348
98658.236
98748.257
98832.622
98911.587
98985.447
99054.538
99119.238
99179.973
99237.252
99291.693
99344.028
99395.123
99445.784
99497.265
99552.769
99582.208
99733.588
99590.338
88954.343
89098.987
89108.313
89256.712
89284.732
89424.776
89478.223
89607.757
89686.322
89808.891
89908.52
90029.783
90145.558
90271.103
90398.971
90532.567
90670.689
90813.826
90961.9
91114.966
91273.023
91436.052
91604.005
91776.809
91954.357
92136.511
92323.099
92513.911
92708.701
92907.188
93109.048
93313.923
93521.418
93731.101
93942.512
94155.159
94368.527
94582.083
94795.279
95007.558
95218.364
95427.146
95633.361
95836.49
96036.034
96231.525
96422.531
96608.659
96789.554
96964.906
97134.45
97297.961
97455.261
97606.216
97750.727
97888.738
98020.228
98145.211
98263.738
98375.889
98481.771
98581.516
98675.282
98763.264
98845.692
98922.839
98995.018
99062.585
99125.938
99185.528
99241.87
99295.553
99347.277
99397.912
99448.484
99500.223
99550.446
99602.176
99710.268
99611.631
88601.843
88762.183
88771.315
88933.193
88961.143
89115.056
89170.114
89312.057
89395.49
89528.635
89636.091
89767.007
89892.433
90027.931
90166.341
90310.714
90460.058
90614.737
90774.688
90939.928
91110.424
91286.121
91466.932
91652.74
91843.392
92038.696
92238.425
92442.309
92650.039
92861.263
93075.587
93292.58
93511.769
93732.652
93954.692
94177.328
94399.98
94622.056
94842.956
95062.083
95278.85
95492.687
95703.046
95909.412
96111.307
96308.296
96499.986
96686.037
96866.154
97040.093
97207.659
97368.705
97523.128
97670.868
97811.903
97946.245
98073.941
98195.07
98309.736
98418.07
98520.219
98616.349
98706.646
98791.328
98870.642
98944.875
99014.351
99079.438
99140.548
99198.148
99252.759
99304.945
99355.379
99404.978
99454.787
99505.207
99554.836
99613.986
99694.996
99631.02
88285.185
88456.453
88466.639
88644.043
88671.456
88841.723
88898.994
89055.358
89144.65
89289.956
89406.765
89548.736
89685.481
89832.441
89982.96
90139.634
90301.677
90469.331
90642.535
90821.269
91005.467
91195.037
91389.852
91589.746
91794.51
92003.895
92217.605
92435.298
92656.584
92881.028
93108.152
93337.433
93568.313
93800.201
94032.478
94264.508
94495.641
94725.228
94952.622
95177.195
95398.339
95615.481
95828.087
96035.668
96237.786
96434.06
96624.162
96807.824
96984.834
97155.034
97318.319
97474.633
97623.964
97766.337
97901.815
98030.489
98152.481
98267.935
98377.016
98479.902
98576.783
98667.86
98753.347
98833.484
98908.532
98978.785
99044.574
99106.267
99164.28
99219.084
99271.192
99321.142
99369.602
99417.489
99465.608
99514.076
99563.791
99623.94
99688.167
99650.081
88007.709
88194.098
88200.867
88397.286
88423.666
88612.652
88672.248
88844.993
88941.523
89100.45
89228.453
89382.742
89532.403
89692.148
89856.093
90026.332
90202.292
90384.123
90571.767
90765.172
90964.239
91168.834
91378.772
91593.826
91813.715
92038.108
92266.619
92498.809
92734.188
92972.217
93212.309
93453.838
93696.142
93938.533
94180.304
94420.74
94659.128
94894.768
95126.98
95355.119
95578.581
95796.815
96009.322
96215.67
96415.489
96608.478
96794.402
96973.092
97144.439
97308.393
97464.955
97614.175
97756.14
97890.974
98018.826
98139.872
98254.31
98362.349
98464.211
98560.119
98650.305
98734.999
98814.444
98888.895
98958.626
99023.935
99085.147
99142.626
99196.779
99248.068
99296.983
99344.042
99389.928
99435.485
99481.194
99527.342
99576.512
99634.719
99687.17
99670.162
87774.758
87978.959
87983.644
88201.346
88226.571
88436.324
88498.218
88689.071
88794.101
88967.549
89108.129
89275.362
89438.948
89612.373
89790.74
89975.653
90166.72
90364.012
90567.444
90776.914
90992.261
91213.275
91439.691
91671.185
91907.372
92147.81
92391.993
92639.361
92889.294
93141.126
93394.145
93647.603
93900.726
94152.725
94402.804
94650.179
94894.085
95133.789
95368.603
95597.895
95821.094
96037.703
96247.298
96449.533
96644.143
96830.94
97009.809
97180.705
97343.648
97498.711
97646.018
97785.732
97918.051
98043.194
98161.405
98272.94
98378.068
98477.061
98570.188
98657.714
98739.904
98817.016
98889.313
98957.062
99020.543
99080.053
99135.907
99188.454
99238.085
99285.235
99330.357
99373.958
99416.732
99459.389
99502.124
99545.665
99593.412
99647.793
99691.589
99692.43
87587.514
87812.87
87814.712
88057.358
88081.552
88315.72
88380.904
88591.478
88705.086
88892.409
89046.461
89227.214
89406.029
89594.619
89789.08
89990.512
90198.609
90413.335
90634.538
90862.026
91095.544
91334.774
91579.333
91828.77
92082.566
92340.133
92600.818
92863.908
93128.633
93394.18
93659.695
93924.301
94187.112
94447.24
94703.818
94956.009
95203.024
95444.133
95678.675
95906.07
96125.827
96337.542
96540.911
96735.717
96921.835
97099.224
97267.921
97428.028
97579.711
97723.182
97858.694
97986.529
98106.992
98220.402
98327.086
98427.378
98521.606
98610.092
98693.146
98771.065
98844.137
98912.641
98976.851
99037.042
99093.491
99146.487
99196.332
99243.354
99287.917
99330.418
99371.265
99410.955
99450.175
99489.446
99528.797
99569.564
99615.16
99664.142
99701.344
99718.6
87439.967
87690.191
87687.657
87960.406
87981.491
88242.881
88311.313
88541.192
88666.518
88869.995
89041.121
89238.188
89435.249
89641.941
89855.323
90076.068
90303.904
90538.688
90780.177
91028.068
91281.98
91541.458
91805.968
92074.897
92347.557
92623.181
92900.94
93179.941
93459.243
93737.87
94014.823
94289.1
94559.71
94825.693
95086.137
95340.192
95587.089
95826.146
96056.785
96278.534
96491.032
96694.028
96887.38
97071.049
97245.087
97409.633
97564.896
97711.149
97848.711
97977.938
98099.213
98212.932
98319.501
98419.326
98512.81
98600.344
98682.305
98759.052
98830.919
98898.225
98961.272
99020.348
99075.73
99127.689
99176.495
99222.424
99265.757
99306.798
99345.879
99383.347
99419.566
99455.025
99490.36
99525.865
99561.567
99599.505
99642.413
99685.063
99717.031
99749.313
87329.648
87608.608
87601.603
87911.812
87926.916
88217.348
88291.091
88543.137
88685.433
88907.713
89099.706
89316.125
89534.609
89762.611
89998.021
90241.16
90491.724
90749.444
91013.944
91284.771
91561.379
91843.131
92129.299
92419.065
92711.529
93005.714
93300.576
93595.025
93887.934
94178.162
94464.575
94746.063
95021.568
95290.095
95550.739
95802.698
96045.285
96277.938
96500.231
96711.866
96912.678
97102.627
97281.785
97450.329
97608.525
97756.712
97895.289
98024.7
98145.42
98257.94
98362.762
98460.384
98551.296
98635.973
98714.871
98788.425
98857.039
98921.091
98980.929
99036.876
99089.238
99138.299
99184.329
99227.589
99268.333
99306.816
99343.298
99378.055
99411.38
99443.568
99474.947
99505.997
99537.246
99568.742
99600.704
99635.805
99675.387
99711.066
99739.484
99785.709
87259.061
87571.605
87561.479
87909.131
87923.351
88246.33
88331.686
88609.35
88771.976
89015.153
89231.763
89470.843
89714.123
89966.94
90227.783
90496.662
90773.168
91056.861
91347.186
91643.486
91944.991
92250.83
92560.022
92871.495
93184.091
93496.583
93807.694
94116.121
94420.557
94719.713
95012.351
95297.304
95573.499
95839.984
96095.938
96340.693
96573.736
96794.714
97003.433
97199.85
97384.063
97556.295
97716.878
97866.233
98004.856
98133.295
98252.134
98361.98
98463.445
98557.14
98643.66
98723.579
98797.448
98865.786
98929.08
98987.782
99042.305
99093.028
99140.295
99184.423
99225.706
99264.415
99300.804
99335.112
99367.574
99398.421
99427.885
99456.212
99483.654
99510.457
99536.93
99563.535
99590.63
99618.054
99646.394
99678.696
99714.231
99742.584
99769.33
99828.528
87235.079
87587.562
87573.418
87962.057
87980.318
88340.246
88440.947
88746.212
88934.936
89201.963
89447.518
89713.299
89985.216
90266.763
90556.792
90855.028
91160.885
91473.694
91792.648
92116.811
92445.119
92776.387
93109.322
93442.538
93774.581
94103.952
94429.134
94748.623
95060.963
95364.77
95658.77
95941.822
96212.945
96471.332
96716.369
96947.636
97164.903
97368.13
97557.446
97733.132
97895.605
98045.388
98183.094
98309.397
98425.016
98530.69
98627.168
98715.19
98795.476
98868.719
98935.577
98996.669
99052.574
99103.826
99150.916
99194.289
99234.347
99271.452
99305.93
99338.077
99368.165
99396.44
99423.131
99448.455
99472.617
99495.822
99518.274
99540.186
99561.764
99583.221
99604.862
99627.112
99650.117
99673.605
99698.669
99728.273
99759.045
99780.1
99807.016
99878.13
87266.802
87666.798
87648.677
88085.99
88109.382
88509.518
88630.113
88964.891
89185.552
89479.826
89758.788
90055.859
90360.722
90675.361
90998.743
91330.273
91669.085
92014.182
92364.4
92718.424
93074.8
93431.954
93788.217
94141.854
94491.093
94834.166
95169.347
95494.987
95809.559
96111.688
96400.192
96674.099
96932.669
97175.401
97402.03
97612.521
97807.048
97985.975
98149.823
98299.248
98435.007
98557.933
98668.904
98768.823
98858.599
98939.125
99011.267
99075.855
99133.672
99185.452
99231.876
99273.571
99311.109
99345.011
99375.744
99403.725
99429.325
99452.875
99474.667
99494.966
99514.012
99532.018
99549.185
99565.698
99581.736
99597.472
99613.083
99628.744
99644.623
99660.908
99677.915
99696
99715.094
99734.964
99757.275
99784.373
99809.893
99824.177
99852.816
99934.359
87355.369
87811.872
87790.403
88283.196
88315.203
88759.445
88907.617
89274.56
89534.396
89860.797
90178.42
90512.358
90855.334
91208.126
91569.565
91938.635
92314.044
92694.328
93077.842
93462.785
93847.229
94229.148
94606.463
94977.077
95338.927
95690.033
96028.548
96352.81
96661.383
96953.09
97227.04
97482.639
97719.589
97937.87
98137.727
98319.63
98484.246
98632.4
98765.034
98883.175
98987.903
99080.317
99161.516
99232.575
99294.532
99348.372
99395.023
99435.348
99470.142
99500.134
99525.986
99548.297
99567.601
99584.376
99599.042
99611.972
99623.488
99633.878
99643.391
99652.25
99660.656
99668.788
99676.81
99684.878
99693.141
99701.744
99710.833
99720.548
99731.019
99742.431
99755.105
99769.295
99784.743
99801.424
99821.556
99846.411
99866.668
99875.413
99907.35
99996.825
87505.918
88029.483
88005.324
88561.103
88608.194
89100.546
89285.737
89688.306
89995.257
90360.27
90722.779
91100.219
91487.394
91884.007
92288.475
92699.186
93114.256
93531.616
93949.022
94364.099
94774.381
95177.364
95570.561
95951.572
96318.148
96668.257
97000.147
97312.388
97603.909
97874.01
98122.363
98348.992
98554.241
98738.737
98903.339
99049.092
99177.179
99288.875
99385.505
99468.41
99538.918
99598.318
99647.848
99688.672
99721.881
99748.482
99769.399
99785.469
99797.45
99806.023
99811.791
99815.293
99817
99817.324
99816.622
99815.207
99813.344
99811.265
99809.171
99807.239
99805.626
99804.473
99803.91
99804.062
99805.049
99806.99
99810.002
99814.191
99819.661
99826.603
99835.328
99845.95
99858.087
99872.059
99890.499
99913.224
99928.548
99933.606
99970.293
100064.65
87725.11
88328.872
88303.989
88931.294
89000.839
89545.457
89779.141
90222.697
90585.959
90998.263
91413.321
91841.943
92279.987
92726.089
93177.997
93633.343
94089.5
94543.666
94992.899
95434.177
95864.477
96280.856
96680.546
97061.043
97420.192
97756.249
98067.926
98354.411
98615.363
98850.883
99061.47
99247.97
99411.505
99553.416
99675.194
99778.429
99864.753
99935.802
99993.181
100038.43
100073.02
100098.33
100115.61
100126.05
100130.69
100130.51
100126.35
100118.98
100109.08
100097.23
100083.97
100069.73
100054.92
100039.85
100024.83
100010.08
99995.808
99982.193
99969.38
99957.497
99946.659
99936.969
99928.523
99921.417
99915.745
99911.603
99909.082
99908.256
99909.221
99912.181
99917.402
99924.831
99934.05
99945.839
99962.986
99983.554
99994.302
99997.217
100040.47
100136.74
88019.246
88718.809
88696.153
89404.777
89508.391
90111.333
90408.442
90901.729
91332.028
91802.099
92278.174
92765.675
93260.666
93760.687
94262.603
94763.107
95258.656
95745.568
96220.119
96678.657
97117.731
97534.221
97925.454
98289.293
98624.193
98929.229
99204.075
99448.97
99664.651
99852.271
100013.32
100149.52
100262.77
100355.07
100428.43
100484.84
100526.24
100554.48
100571.29
100578.26
100576.88
100568.49
100554.29
100535.37
100512.69
100487.09
100459.32
100430.02
100399.77
100369.04
100338.24
100307.73
100277.81
100248.72
100220.67
100193.82
100168.32
100144.28
100121.79
100100.93
100081.79
100064.42
100048.9
100035.28
100023.65
100014.08
100006.63
100001.37
99998.388
99997.906
100000.11
100004.76
100011.53
100021.71
100037.86
100056.09
100062.83
100065.06
100115.84
100211.51
88396.151
89210.184
89195.573
90000.911
90155.844
90827.304
91205.156
91759.169
92267.286
92805.676
93350.621
93903.393
94459.539
95015.292
95566.304
96108.04
96635.838
97145.091
97631.436
98090.933
98520.234
98916.705
99278.502
99604.591
99894.726
100149.37
100369.63
100557.08
100713.72
100841.79
100943.74
101022.05
101079.21
101117.68
101139.77
101147.69
101143.46
101128.95
101105.87
101075.73
101039.9
100999.59
100955.85
100909.62
100861.71
100812.81
100763.52
100714.34
100665.72
100618
100571.5
100526.46
100483.08
100441.52
100401.91
100364.35
100328.91
100295.65
100264.61
100235.85
100209.39
100185.27
100163.53
100144.2
100127.36
100113.05
100101.32
100092.23
100085.9
100082.54
100082.21
100084.54
100089.41
100098.59
100113.99
100129.7
100133
100136.56
100194.99
100285.9
88876.25
89831.53
89836.385
90758.084
90982.096
91732.458
92208.629
92834.765
93430.46
94046.961
94667.378
95289.501
95907.482
96515.735
97108.288
97679.23
98222.94
98734.371
99209.281
99644.408
100037.56
100387.63
100694.55
100959.17
101183.09
101368.56
101518.23
101635.08
101722.21
101782.78
101819.87
101836.45
101835.32
101819.09
101790.13
101750.6
101702.43
101647.35
101586.86
101522.3
101454.84
101385.47
101315.05
101244.32
101173.9
101104.32
101036.01
100969.34
100904.6
100842.04
100781.84
100724.14
100669.06
100616.68
100567.06
100520.22
100476.18
100434.95
100396.55
100360.96
100328.2
100298.27
100271.18
100246.96
100225.66
100207.31
100191.96
100179.66
100170.57
100164.88
100162.49
100162.99
100166.59
100175.35
100190.1
100203.15
100203.7
100210.61
100275.91
100360.06
89492.037
90626.507
90661.031
91717.812
92030.083
92867.631
93461.29
94173.415
94866.478
95569.771
96269.306
96959.284
97631.608
98278.591
98892.841
99467.79
99997.999
100479.41
100909.43
101286.98
101612.3
101886.85
102113.05
102294.01
102433.36
102535.01
102602.95
102641.17
102653.49
102643.52
102614.62
102569.84
102511.96
102443.42
102366.43
102282.88
102194.46
102102.61
102008.58
101913.41
101818.03
101723.18
101629.49
101537.51
101447.66
101360.29
101275.67
101194.04
101115.56
101040.35
100968.49
100900.05
100835.05
100773.5
100715.38
100660.68
100609.37
100561.41
100516.77
100475.42
100437.35
100402.52
100370.94
100342.62
100317.6
100295.89
100277.54
100262.63
100251.35
100243.82
100239.81
100238.98
100241.92
100250.69
100264.78
100275.23
100274.19
100285.62
100356.63
100433.59
90272.265
91622.522
91701.681
92914.376
93348.921
94285.835
95018.919
95833.909
96631.92
97424.202
98196.157
98938.341
99640.674
100294.48
100892.69
101430.23
101904.1
102313.34
102658.83
102942.97
103169.35
103342.39
103467.01
103548.39
103591.69
103601.93
103583.84
103541.81
103479.81
103401.44
103309.87
103207.89
103097.94
102982.11
102862.23
102739.82
102616.21
102492.48
102369.57
102248.23
102129.09
102012.68
101899.39
101789.55
101683.42
101581.19
101482.98
101388.89
101298.98
101213.26
101131.73
101054.38
100981.15
100911.99
100846.84
100785.63
100728.28
100674.74
100624.94
100578.82
100536.35
100497.48
100462.2
100430.52
100402.44
100378
100357.24
100340.28
100327.31
100318.34
100313.11
100311.4
100314.18
100323.22
100336.53
100344.69
100343.44
100360.16
100434.71
100502.96
91248.147
92868.033
93029.207
94414.843
95018.238
96070.76
96960.556
97888.939
98786.055
99649.816
100464.03
101217.47
101900.72
102507.4
103034.11
103480.31
103847.91
104140.82
104364.38
104524.85
104628.99
104683.64
104695.49
104670.86
104615.6
104534.98
104433.73
104315.98
104185.36
104044.99
103897.54
103745.27
103590.12
103433.68
103277.31
103122.12
102969.02
102818.75
102671.92
102528.99
102390.35
102256.28
102126.98
102002.59
101883.22
101768.9
101659.65
101555.46
101456.27
101362.03
101272.66
101188.07
101108.16
101032.83
100961.96
100895.45
100833.2
100775.11
100721.11
100671.12
100625.07
100582.92
100544.64
100510.23
100479.7
100453.07
100430.42
100411.88
100397.61
100387.55
100381.41
100379.21
100382.16
100391.44
100403.79
100410.18
100410.04
100432.11
100507.7
100566.23
92504.374
94464.825
94753.59
96332.923
97153.239
98330.049
99371.37
100397.38
101355.91
102238.09
103029.93
103723.53
104315.13
104805.06
105197.02
105497.25
105713.72
105855.38
105931.48
105951.16
105923.05
105855.14
105754.57
105627.68
105480.01
105316.29
105140.59
104956.34
104766.41
104573.2
104378.7
104184.55
103992.09
103802.4
103616.36
103434.64
103257.81
103086.27
102920.32
102760.2
102606.05
102457.96
102315.96
102180.05
102050.18
101926.3
101808.31
101696.1
101589.56
101488.56
101392.96
101302.61
101217.38
101137.12
101061.68
100990.94
100924.76
100863.03
100805.66
100752.55
100703.63
100658.84
100618.15
100581.55
100549.05
100520.69
100496.56
100476.82
100461.55
100450.63
100443.83
100441.43
100444.67
100453.98
100465.18
100470.38
100472.41
100499.38
100573.41
100621.55
94174.3
96555.363
97027.664
98798.708
99871.29
101157.21
102296.59
103352.49
104286.62
105092.57
105765.98
106308.98
106728.18
107033.54
107237.03
107351.46
107389.66
107363.81
107285.11
107163.57
107007.94
106825.73
106623.36
106406.17
106178.63
105944.43
105706.6
105467.59
105229.41
104993.65
104761.6
104534.26
104312.42
104096.67
103887.47
103685.14
103489.9
103301.9
103121.19
102947.8
102781.68
102622.78
102470.98
102326.17
102188.2
102056.91
101932.14
101813.72
101701.46
101595.19
101494.72
101399.87
101310.47
101226.32
101147.28
101073.18
101003.89
100939.27
100879.21
100823.62
100772.39
100725.48
100682.86
100644.5
100610.42
100580.66
100555.36
100534.64
100518.55
100506.93
100499.65
100497.21
100500.7
100509.76
100519.73
100524.47
100529.46
100560.24
100630.09
100669.17
96450.53
99302.157
100020.95
101933.68
103219.86
104553.57
105672.58
106628.84
107409.07
108018.98
108469.69
108777.15
108959.45
109035.26
109022.45
108937.42
108794.69
108606.79
108384.32
108136.11
107869.45
107590.25
107303.32
107012.51
106720.88
106430.87
106144.4
105862.94
105587.65
105319.39
105058.8
104806.36
104562.37
104327.04
104100.48
103882.71
103673.71
103473.39
103281.63
103098.3
102923.22
102756.19
102597.03
102445.5
102301.4
102164.5
102034.58
101911.42
101794.78
101684.46
101580.24
101481.91
101389.25
101302.09
101220.22
101143.49
101071.73
101004.82
100942.62
100885.03
100831.95
100783.32
100739.11
100699.3
100663.9
100632.99
100606.7
100585.13
100568.29
100556.03
100548.38
100545.96
100549.56
100558.12
100567.07
100572.17
100580.43
100613.64
100678.29
100710.53
99588.843
102820.65
103848.94
105829.42
107156.53
108340.85
109271.16
109972.26
110462.06
110767.47
110916.78
110937.8
110855.95
110693.48
110469.27
110198.91
109895.11
109568.07
109225.85
108874.83
108519.98
108165.14
107813.27
107466.64
107126.95
106795.46
106473.09
106160.5
105858.13
105566.24
105284.97
105014.37
104754.39
104504.93
104265.83
104036.9
103817.94
103608.7
103408.92
103218.35
103036.71
102863.73
102699.14
102542.65
102394
102252.91
102119.12
101992.38
101872.43
101759.03
101651.93
101550.9
101455.72
101366.19
101282.11
101203.29
101129.58
101060.82
100996.89
100937.66
100883.05
100832.99
100787.43
100746.37
100709.83
100677.9
100650.7
100628.31
100610.71
100597.82
100589.82
100587.34
100590.83
100598.78
100607.11
100613.37
100625.14
100659.72
100717.82
100744.39
103845.97
107294.08
108527.24
110240.88
111382.78
112225.62
112768.47
113066.59
113165.1
113107.62
112931.02
112665.95
112336.92
111963.25
111559.87
111138.19
110706.89
110272.48
109839.81
109412.47
108993.08
108583.53
108185.15
107798.84
107425.19
107064.53
106717.02
106382.66
106061.38
105753
105457.29
105174
104902.81
104643.42
104395.48
104158.66
103932.61
103716.98
103511.43
103315.61
103129.19
102951.84
102783.22
102623.02
102470.94
102326.67
102189.92
102060.42
101937.88
101822.05
101712.66
101609.48
101512.27
101420.81
101334.89
101254.34
101178.99
101108.67
101043.24
100982.6
100926.63
100875.28
100828.5
100786.28
100748.67
100715.75
100687.63
100664.39
100646.02
100632.5
100624.12
100621.45
100624.61
100631.97
100640.2
100648.27
100663.34
100698.22
100750.05
100773.78
109150.39
112559.98
113695.58
114838.35
115459.68
115749.25
115772.38
115603.28
115296.65
114895.43
114431.52
113928.41
113403.2
112868.15
112332.02
111800.97
111279.32
110770.01
110275.02
109795.59
109332.48
108886.06
108456.43
108043.52
107647.1
107266.86
106902.42
106553.38
106219.26
105899.63
105594
105301.9
105022.88
104756.47
104502.22
104259.68
104028.44
103808.08
103598.18
103398.36
103208.24
103027.45
102855.63
102692.44
102537.55
102390.64
102251.41
102119.55
101994.78
101876.83
101765.43
101660.33
101561.29
101468.08
101380.49
101298.34
101221.45
101149.65
101082.81
101020.8
100963.52
100910.91
100862.92
100819.55
100780.85
100746.91
100717.84
100693.7
100674.53
100660.4
100651.63
100648.67
100651.43
100658.42
100667.22
100677.66
100695.6
100729.82
100776.2
100800.23
115452.7
117995.02
118615.84
118902.39
118809.16
118478.48
117990.68
117407
116768.52
116103.06
115429.12
114758.84
114100.13
113457.98
112835.47
112234.36
111655.53
111099.26
110565.45
110053.76
109563.64
109094.48
108645.59
108216.25
107805.73
107413.33
107038.32
106680.02
106337.77
106010.93
105698.88
105401.02
105116.8
104845.67
104587.11
104340.62
104105.74
103881.99
103668.94
103466.17
103273.28
103089.88
102915.6
102750.07
102592.96
102443.93
102302.68
102168.89
102042.28
101922.56
101809.46
101702.73
101602.12
101507.4
101418.37
101334.82
101256.58
101183.48
101115.38
101052.15
100993.69
100939.93
100890.82
100846.38
100806.66
100771.74
100741.73
100716.7
100696.75
100682.01
100672.8
100669.45
100671.79
100678.64
100688.35
100701.18
100721.57
100755.19
100797.37
100822.23
122159.83
122607.06
122388.67
121835.53
121097.99
120266.9
119398.98
118526.33
117667.69
116833.41
116029
115257.04
114518.36
113812.79
113139.55
112497.53
111885.45
111301.97
110745.72
110215.39
109709.7
109227.43
108767.42
108328.6
107909.94
107510.49
107129.35
106765.68
106418.68
106087.62
105771.78
105470.52
105183.2
104909.25
104648.09
104399.2
104162.07
103936.23
103721.21
103516.59
103321.94
103136.87
102960.99
102793.93
102635.36
102484.92
102342.32
102207.23
102079.36
101958.42
101844.14
101736.26
101634.54
101538.74
101448.65
101364.07
101284.82
101210.73
101141.65
101077.44
101018.01
100963.28
100913.21
100867.79
100827.09
100791.19
100760.2
100734.23
100713.4
100697.91
100688.05
100684.11
100685.92
100692.59
100703.08
100717.78
100740.03
100773.4
100813.25
100839.42
126076.65
125445.85
124522.33
123460.54
122366.02
121283.22
120235.09
119231.03
118274.54
117365.89
116503.8
115686.23
114910.8
114175.07
113476.65
112813.25
112182.73
111583.1
111012.51
110469.27
109951.83
109458.74
108988.7
108540.47
108112.95
107705.09
107315.93
106944.58
106590.21
106252.04
105929.34
105621.44
105327.69
105047.49
104780.28
104525.51
104282.68
104051.29
103830.89
103621.04
103421.31
103231.31
103050.65
102878.96
102715.89
102561.11
102414.3
102275.14
102143.34
102018.6
101900.66
101789.25
101684.12
101585.04
101491.79
101404.16
101321.98
101245.07
101173.28
101106.47
101044.53
100987.4
100935.02
100887.4
100844.58
100806.67
100773.81
100746.13
100723.75
100706.91
100695.99
100691.26
100692.31
100698.61
100709.63
100725.57
100749.13
100782.61
100821.31
100848.51
104071.94
104044.54
104093.44
104142.18
104178.66
104189.11
104172.03
104142.59
104106.82
104061.75
104003.12
103931.31
103849.9
103763.83
103674.02
103580.55
103483.73
103384.03
103281.88
103177.67
103071.76
102964.51
102856.23
102747.22
102637.76
102528.11
102418.49
102309.13
102200.24
102092
101984.6
101878.21
101773
101669.11
101566.71
101465.94
101366.93
101269.85
101174.81
101081.95
100991.41
100903.33
100817.82
100735.03
100655.06
100578.06
100504.13
100433.39
100365.95
100301.92
100241.37
100184.38
100131.03
100081.37
100035.42
99993.206
99954.712
99919.907
99888.734
99861.104
99836.898
99815.967
99798.134
99783.204
99770.99
99761.273
99754.02
99748.84
99746.473
99745.017
99748.871
99748.057
99762.947
99751.678
99792.417
99743.092
99840.425
99719.388
99903.832
99686.497
103411.76
103405.61
103420.69
103438.02
103436.96
103429.62
103419.02
103401.78
103372.91
103338.19
103296.33
103249.24
103196.13
103138.2
103075.42
103008.53
102937.73
102863.4
102785.83
102705.35
102622.27
102536.88
102449.47
102360.31
102269.68
102177.85
102085.08
101991.61
101897.69
101803.56
101709.44
101615.56
101522.13
101429.35
101337.43
101246.57
101156.96
101068.78
100982.22
100897.45
100814.65
100733.98
100655.61
100579.7
100506.4
100435.85
100368.21
100303.6
100242.15
100183.97
100129.16
100077.81
100029.98
99985.739
99945.11
99908.107
99874.714
99844.894
99818.581
99795.68
99776.06
99759.562
99746
99735.164
99726.853
99720.839
99717.053
99715.141
99715.714
99717.136
99723.285
99725.324
99741.636
99733.792
99774.632
99729.679
99827.311
99707.497
99899.031
99673.65
102986.92
102971.38
102942.8
102912.67
102883.95
102857.27
102825.02
102793.46
102758.21
102722.48
102682.65
102641.47
102596.59
102549.62
102499.49
102446.82
102391.36
102333.3
102272.69
102209.62
102144.22
102076.62
102006.97
101935.43
101862.17
101787.35
101711.18
101633.85
101555.55
101476.49
101396.88
101316.94
101236.86
101156.88
101077.2
100998.03
100919.6
100842.11
100765.77
100690.78
100617.35
100545.67
100475.93
100408.33
100343.03
100280.22
100220.06
100162.7
100108.29
100056.95
100008.79
99963.914
99922.398
99884.3
99849.657
99818.478
99790.746
99766.421
99745.43
99727.672
99713.01
99701.275
99692.274
99685.787
99681.601
99679.482
99679.331
99680.825
99684.477
99688.853
99697.454
99702.257
99720.303
99715.631
99757.037
99715.979
99814.297
99695.872
99893.67
99661.432
102387.14
102364.11
102334.76
102302.51
102270.57
102242.12
102209.3
102179.43
102145.32
102113.27
102077.61
102042.8
102005.09
101967.08
101926.85
101885.35
101842.01
101796.99
101750.17
101701.54
101651.1
101598.85
101544.82
101489.08
101431.67
101372.7
101312.27
101250.5
101187.52
101123.5
101058.58
100992.95
100926.8
100860.31
100793.69
100727.15
100660.9
100595.14
100530.11
100466.01
100403.06
100341.47
100281.46
100223.23
100166.99
100112.91
100061.2
100012.01
99965.507
99921.832
99881.109
99843.446
99808.929
99777.621
99749.559
99724.754
99703.191
99684.823
99669.576
99657.341
99647.977
99641.31
99637.136
99635.232
99635.372
99637.32
99640.953
99645.973
99652.818
99660.222
99671.381
99678.915
99698.907
99697.219
99739.534
99702.026
99801.367
99684.455
99887.866
99649.831
101647.73
101631.2
101614.95
101595.77
101574.73
101558.04
101535.37
101517.18
101493.46
101473.16
101448.24
101425.3
101398.99
101373.27
101345.33
101316.62
101286.27
101254.59
101221.39
101186.63
101150.31
101112.38
101072.85
101031.74
100989.05
100944.85
100899.18
100852.13
100803.77
100754.23
100703.62
100652.07
100599.75
100546.82
100493.44
100439.82
100386.14
100332.61
100279.45
100226.86
100175.07
100124.29
100074.74
100026.63
99980.192
99935.613
99893.092
99852.81
99814.936
99779.621
99746.999
99717.184
99690.267
99666.315
99645.365
99627.431
99612.492
99600.503
99591.382
99585.017
99581.261
99579.936
99580.834
99583.723
99588.371
99594.537
99602.085
99610.736
99620.866
99631.368
99645.16
99655.464
99677.506
99678.664
99722.092
99687.981
99788.498
99673.256
99881.721
99638.827
100914.77
100908.21
100903.53
100897.83
100888.1
100883.6
100871.68
100865.77
100852.83
100844.62
100830.57
100819.52
100804.35
100790.47
100774.14
100757.36
100738.93
100719.39
100698.47
100676.19
100652.54
100627.47
100600.99
100573.07
100543.73
100512.97
100480.83
100447.35
100412.58
100376.6
100339.5
100301.37
100262.34
100222.54
100182.12
100141.24
100100.08
100058.83
100017.67
99976.826
99936.492
99896.887
99858.225
99820.723
99784.594
99750.043
99717.266
99686.449
99657.763
99631.362
99607.386
99585.948
99567.143
99551.033
99537.657
99527.025
99519.115
99513.874
99511.219
99511.031
99513.161
99517.423
99523.607
99531.476
99540.792
99551.311
99562.883
99575.253
99588.743
99602.399
99618.873
99631.994
99656.097
99660.066
99704.739
99673.935
99775.674
99662.273
99875.321
99628.409
100249.33
100249.22
100250.01
100252.89
100250.45
100254.78
100250.25
100253.5
100248.25
100249.37
100243.87
100242.82
100236.84
100232.5
100225.39
100218.33
100209.78
100200.45
100190
100178.45
100165.77
100151.91
100136.84
100120.54
100102.99
100084.2
100064.16
100042.9
100020.45
99996.854
99972.177
99946.493
99919.896
99892.493
99864.408
99835.777
99806.753
99777.499
99748.192
99719.016
99690.166
99661.843
99634.249
99607.59
99582.07
99557.885
99535.227
99514.275
99495.194
99478.138
99463.238
99450.608
99440.333
99432.473
99427.061
99424.099
99423.563
99425.392
99429.496
99435.752
99444.004
99454.065
99465.72
99478.728
99492.847
99507.831
99523.518
99539.678
99556.586
99573.433
99592.624
99608.596
99634.719
99641.524
99687.527
99659.97
99762.896
99651.527
99868.73
99618.563
99650.126
99655.149
99659.053
99667.171
99668.518
99678.672