/*--------------------------------*- C++ -*----------------------------------*\
  =========                 |
  \\      /  F ield         | OpenFOAM: The Open Source CFD Toolbox
   \\    /   O peration     | Website:  https://openfoam.org
    \\  /    A nd           | Version:  12
     \\/     M anipulation  |
\*---------------------------------------------------------------------------*/
FoamFile
{
    format      ascii;
    class       volScalarField;
    location    "0.065";
    object      T;
}
// * * * * * * * * * * * * * * * * * * * * * * * * * * * * * * * * * * * * * //

dimensions      [0 0 0 1 0 0 0];

internalField   nonuniform List<scalar> 
16000
(
294.11985
285.55894
288.88052
287.07307
288.19402
287.68084
288.10772
287.9963
288.19527
288.22964
288.35184
288.43771
288.54429
288.64827
288.7583
288.8717
288.98928
289.11091
289.23666
289.36654
289.50055
289.63867
289.78088
289.9271
290.07727
290.23127
290.38898
290.55023
290.71483
290.88256
291.05319
291.22642
291.40195
291.57945
291.75855
291.93888
292.12002
292.30155
292.48303
292.66403
292.84409
293.02277
293.19962
293.37422
293.54614
293.71501
293.88046
294.04216
294.19981
294.35315
294.50198
294.64611
294.78541
294.91981
295.04926
295.17377
295.29342
295.40832
295.51868
295.62475
295.7269
295.82553
295.92115
296.01434
296.10577
296.19624
296.28667
296.37818
296.47203
296.56965
296.67238
296.78106
296.89538
297.01325
297.13037
297.24084
297.34418
297.4163
297.60651
297.62527
293.80752
285.14474
288.60078
286.70838
287.89799
287.34677
287.80983
287.68855
287.90239
287.94224
288.07154
288.16642
288.28027
288.39321
288.51177
288.63429
288.76118
288.89243
289.02806
289.16808
289.31246
289.46117
289.61415
289.77131
289.93252
290.09765
290.26651
290.43891
290.61459
290.79329
290.9747
291.1585
291.34431
291.53174
291.72038
291.90978
292.0995
292.28906
292.478
292.66582
292.85206
293.03624
293.21793
293.39668
293.5721
293.74381
293.91148
294.07481
294.23354
294.38746
294.5364
294.68024
294.8189
294.95235
295.08061
295.20374
295.32185
295.43512
295.54376
295.64809
295.74847
295.84536
295.93925
296.03074
296.12051
296.20935
296.29818
296.3881
296.48038
296.57642
296.67748
296.78429
296.89643
297.01181
297.12645
297.23506
297.33211
297.42212
297.56981
297.65893
293.51006
284.76161
288.34516
286.38777
287.61823
287.05671
287.53378
287.4203
287.63916
287.69098
287.82588
287.93146
288.05355
288.17638
288.30467
288.43738
288.57475
288.71677
288.86345
289.01477
289.17067
289.33109
289.49593
289.66506
289.83831
290.01549
290.19636
290.38068
290.56812
290.75837
290.95105
291.14575
291.34206
291.5395
291.7376
291.93587
292.13379
292.33084
292.52651
292.72028
292.91167
293.1002
293.28541
293.46688
293.64424
293.81715
293.98531
294.14846
294.30642
294.45903
294.60618
294.74783
294.88395
295.01459
295.13982
295.25977
295.3746
295.48455
295.58988
295.69094
295.78813
295.88192
295.97283
296.06147
296.14851
296.23474
296.32108
296.40861
296.49856
296.59228
296.69094
296.79511
296.90424
297.01624
297.12733
297.23222
297.32664
297.42283
297.55368
297.68069
293.2365
284.40896
288.10774
286.10396
287.37259
286.80072
287.29216
287.18808
287.41245
287.47782
287.61937
287.73689
287.86856
288.0025
288.14182
288.28598
288.43507
288.58908
288.74798
288.91172
289.08022
289.25337
289.43103
289.61301
289.79911
289.98906
290.18258
290.37933
290.57893
290.78099
290.98505
291.19063
291.39723
291.60431
291.81133
292.01772
292.22292
292.42637
292.62751
292.82583
293.02081
293.21198
293.3989
293.5812
293.75853
293.9306
294.09718
294.2581
294.41321
294.56245
294.7058
294.84327
294.97494
295.10092
295.22134
295.33641
295.44636
295.55146
295.65203
295.74844
295.84115
295.93063
296.01743
296.10216
296.1855
296.26822
296.35123
296.43557
296.52244
296.61311
296.70865
296.80949
296.91498
297.0231
297.13013
297.23101
297.32378
297.42092
297.54107
297.69976
292.98728
284.09356
287.89166
285.86971
287.17215
286.58732
287.0892
286.99941
287.22762
287.3094
287.4584
287.58921
287.73186
287.8781
288.02973
288.18654
288.34852
288.51567
288.68793
288.8652
289.04737
289.23429
289.42576
289.62153
289.82133
290.02481
290.23162
290.44132
290.65345
290.86752
291.08297
291.29925
291.51576
291.73189
291.94702
292.16052
292.37178
292.5802
292.78523
292.98631
293.18296
293.37473
293.56123
293.74213
293.91715
294.08608
294.24878
294.40515
294.55515
294.69881
294.8362
294.96742
295.09264
295.21204
295.32585
295.43433
295.53776
295.63648
295.73086
295.82129
295.90826
295.99227
296.07387
296.15369
296.23239
296.31076
296.38965
296.47008
296.55319
296.64015
296.7319
296.82876
296.93002
297.03368
297.13608
297.23269
297.32347
297.41974
297.53484
297.71551
292.76634
283.82233
287.71139
285.6737
287.00087
286.42321
286.9354
286.86087
287.09149
287.19171
287.34908
287.49403
287.64886
287.80835
287.97339
288.14396
288.32002
288.5015
288.68832
288.88035
289.07741
289.27926
289.48564
289.69622
289.91062
290.1284
290.34909
290.57216
290.79703
291.02309
291.2497
291.47618
291.70185
291.92602
292.148
292.36711
292.58272
292.7942
293.00099
293.20257
293.3985
293.58838
293.7719
293.9488
294.11891
294.28211
294.43838
294.58771
294.7302
294.86597
294.99519
295.11808
295.23487
295.34584
295.45129
295.55154
295.64695
295.73789
295.82477
295.90801
295.98811
296.0656
296.14104
296.21505
296.28831
296.36155
296.43563
296.51151
296.59024
296.67291
296.7603
296.85262
296.94914
297.04787
297.14524
297.23747
297.32575
297.42009
297.53304
297.72896
292.57715
283.59744
287.56466
285.51554
286.86386
286.31067
286.82352
286.77618
287.00688
287.12694
287.29371
287.45358
287.622
287.79604
287.97601
288.16192
288.35366
288.55114
288.75417
288.96256
289.17604
289.39427
289.61687
289.8434
290.07336
290.30619
290.54127
290.77795
291.01553
291.25325
291.49038
291.72612
291.95971
292.19038
292.4174
292.64006
292.8577
293.06973
293.27562
293.47491
293.66723
293.85229
294.02986
294.19982
294.36213
294.51679
294.6639
294.8036
294.9361
295.06164
295.1805
295.293
295.39946
295.50024
295.59572
295.68626
295.77227
295.85417
295.93238
296.00737
296.07963
296.14969
296.21814
296.28558
296.35267
296.42014
296.48881
296.55957
296.63342
296.71129
296.79384
296.88117
296.97253
297.06592
297.15799
297.24579
297.33118
297.42274
297.53511
297.74213
292.41798
283.41711
287.44973
285.39402
286.75878
286.23435
286.74631
286.71073
286.97157
287.1137
287.29241
287.46906
287.65355
287.84441
288.04164
288.24518
288.45487
288.67051
288.89184
289.11854
289.35022
289.58642
289.82662
290.07024
290.31661
290.56503
290.81472
291.06488
291.31465
291.56318
291.80959
292.053
292.29258
292.5275
292.75701
292.98041
293.19709
293.40649
293.60819
293.80182
293.98713
294.16397
294.33227
294.49207
294.64345
294.78659
294.92174
295.04918
295.16924
295.28229
295.38871
295.48891
295.58331
295.67233
295.75639
295.83593
295.91138
295.98317
296.05176
296.11761
296.18123
296.24315
296.30394
296.36419
296.42455
296.48572
296.54849
296.61369
296.68223
296.75491
296.83227
296.91428
297.00016
297.08793
297.17452
297.25795
297.3403
297.42854
297.54067
297.75609
292.28365
283.27902
287.36942
285.30909
286.70401
286.22754
286.73453
286.75924
286.9925
287.15577
287.35007
287.54613
287.74974
287.96025
288.17752
288.40138
288.63158
288.86781
289.10968
289.35674
289.60843
289.86413
290.12316
290.38473
290.64801
290.9121
291.17606
291.43893
291.69969
291.95737
292.21098
292.45959
292.70232
292.93834
293.16691
293.38742
293.59932
293.8022
293.99575
294.17978
294.35423
294.51911
294.67454
294.82075
294.958
295.08664
295.20707
295.31972
295.42505
295.52353
295.61564
295.70188
295.78273
295.85866
295.93014
295.99763
296.06159
296.12247
296.1807
296.23677
296.29116
296.3444
296.39704
296.44966
296.50288
296.55737
296.61387
296.67317
296.73609
296.80332
296.87523
296.95174
297.03198
297.11395
297.19506
297.27424
297.35335
297.43794
297.5502
297.77118
292.17312
283.18537
287.32987
285.27499
286.70593
286.26601
286.77042
286.82255
287.07213
287.26223
287.47577
287.69395
287.91978
288.15294
288.39316
288.64016
288.89355
289.15285
289.41751
289.68687
289.9602
290.23665
290.5153
290.79518
291.07522
291.35432
291.63136
291.9052
292.17471
292.43881
292.69644
292.94666
293.18859
293.42148
293.64469
293.85773
294.06024
294.25197
294.43285
294.60291
294.76228
294.91124
295.0501
295.1793
295.29929
295.4106
295.51377
295.60937
295.69795
295.7801
295.85638
295.92732
295.99346
296.05531
296.11336
296.16808
296.21992
296.26932
296.31673
296.3626
296.40741
296.45165
296.49585
296.54056
296.58639
296.63396
296.68398
296.73718
296.79428
296.85588
296.92226
296.99321
297.06777
297.14396
297.21974
297.29486
297.37053
297.4512
297.56388
297.78779
292.09013
283.14432
287.33719
285.36331
286.76826
286.36934
286.8663
286.96522
287.2235
287.44197
287.6789
287.92238
288.17385
288.43295
288.6993
288.97243
289.25175
289.53658
289.82614
290.1195
290.41567
290.71354
291.01193
291.3096
291.60525
291.89757
292.18526
292.46703
292.74168
293.00805
293.26513
293.51201
293.74794
293.97231
294.18469
294.3848
294.57255
294.74797
294.91124
295.06268
295.20269
295.33178
295.45052
295.55952
295.65944
295.75094
295.83471
295.9114
295.98168
296.04618
296.10551
296.16024
296.21093
296.25809
296.30221
296.34376
296.38316
296.42084
296.45722
296.49273
296.52782
296.56294
296.59861
296.63534
296.67369
296.71426
296.75771
296.80472
296.85595
296.91188
296.97272
297.03819
297.10718
297.1778
297.24862
297.31996
297.392
297.46858
297.58167
297.80599
292.0413
283.16949
287.3999
285.50412
286.87888
286.54447
287.03495
287.17971
287.45551
287.70512
287.96991
288.24245
288.52335
288.81201
289.1079
289.41026
289.71827
290.03092
290.34712
290.66562
290.9851
291.30412
291.6212
291.93482
292.24345
292.5456
292.83981
293.12475
293.39917
293.66201
293.91235
294.14947
294.37286
294.58219
294.77734
294.95838
295.12553
295.27918
295.41984
295.54812
295.66471
295.77035
295.86583
295.95195
296.02951
296.0993
296.16209
296.21861
296.26957
296.31562
296.3574
296.39548
296.43041
296.46268
296.49276
296.52108
296.54804
296.57404
296.59946
296.6247
296.65016
296.67627
296.7035
296.73233
296.76328
296.79692
296.83387
296.87474
296.92013
296.97046
297.02589
297.08604
297.14969
297.2151
297.28152
297.34945
297.41781
297.49032
297.60338
297.82559
292.03173
283.26715
287.52856
285.6989
287.05653
286.79844
287.28513
287.47989
287.77878
288.06295
288.36056
288.66659
288.98119
289.30343
289.63246
289.96719
290.30639
290.64866
290.99248
291.33621
291.67814
292.01647
292.34942
292.67521
292.99211
293.29852
293.59296
293.87413
294.14094
294.39253
294.62827
294.8478
295.05099
295.23794
295.40893
295.56447
295.70518
295.83182
295.94523
296.04632
296.13604
296.21534
296.28518
296.34648
296.40015
296.44705
296.48799
296.52373
296.55497
296.58237
296.60653
296.62801
296.64731
296.66489
296.68118
296.69656
296.7114
296.72604
296.74082
296.75609
296.77223
296.78961
296.80867
296.82984
296.85363
296.88055
296.91117
296.94607
296.98578
297.03069
297.0809
297.13597
297.19459
297.25529
297.31794
297.38289
297.44774
297.51675
297.62927
297.84617
292.06358
283.44501
287.72816
285.98221
287.31161
287.1393
287.62754
287.87556
288.20545
288.5289
288.865
289.20974
289.56283
289.9229
290.28862
290.6584
291.03049
291.40299
291.7739
292.1411
292.50247
292.85589
293.1993
293.53074
293.84844
294.15082
294.43657
294.70466
294.95435
295.18521
295.39713
295.59026
295.765
295.92197
296.06198
296.18597
296.29498
296.39011
296.47252
296.54336
296.60376
296.65481
296.69759
296.73308
296.76222
296.78588
296.80486
296.8199
296.83167
296.84078
296.84777
296.85317
296.8574
296.86087
296.86396
296.867
296.87028
296.87412
296.87879
296.88462
296.89191
296.90102
296.91232
296.92623
296.94321
296.96374
296.98834
297.01754
297.05182
297.09155
297.13681
297.18707
297.24104
297.29758
297.35704
297.41936
297.48104
297.54752
297.65897
297.86704
292.14172
283.7165
288.00187
286.35539
287.65638
287.57888
288.07623
288.38187
288.75154
289.12043
289.50141
289.89057
290.28702
290.68878
291.09386
291.50004
291.90495
292.30609
292.70093
293.08689
293.46147
293.82232
294.16725
294.49435
294.80203
295.08904
295.35453
295.59802
295.81942
296.01898
296.19724
296.35502
296.49335
296.61341
296.71651
296.804
296.87729
296.93774
296.98672
297.02553
297.05541
297.07751
297.0929
297.10259
297.10748
297.10838
297.10604
297.10114
297.09426
297.08596
297.07671
297.06694
297.05701
297.04728
297.03804
297.02956
297.02209
297.01588
297.01117
297.00821
297.00729
297.0087
297.01279
297.01994
297.03057
297.04513
297.0641
297.08796
297.11714
297.152
297.1926
297.23838
297.28811
297.34106
297.39786
297.45775
297.51652
297.58131
297.69174
297.88774
292.27053
284.10041
288.34551
286.83307
288.10483
288.13278
288.64982
289.01907
289.4384
289.86001
290.29247
290.73145
291.17521
291.62101
292.06606
292.50738
292.94189
293.36646
293.77804
294.1737
294.55077
294.9069
295.24013
295.54899
295.83247
296.09006
296.32173
296.52788
296.70926
296.86698
297.00235
297.11689
297.21222
297.29002
297.35199
297.39981
297.43509
297.45936
297.47408
297.48057
297.48008
297.47372
297.46252
297.44739
297.42914
297.40851
297.38614
297.36262
297.33843
297.31403
297.28981
297.26611
297.24322
297.22142
297.20093
297.18195
297.16469
297.14934
297.13607
297.12511
297.1167
297.11109
297.1086
297.10957
297.11439
297.12348
297.13726
297.15618
297.18064
297.21099
297.24728
297.28893
297.33489
297.38484
297.43943
297.49697
297.55305
297.61683
297.72661
297.90749
292.45479
284.62717
288.76781
287.43353
288.67868
288.82469
289.37452
289.81459
290.29341
290.7749
291.26441
291.75695
292.24967
292.73886
293.22079
293.69158
294.14744
294.58472
295.00007
295.39057
295.75385
296.0881
296.39217
296.66556
296.90833
297.12111
297.305
297.46145
297.5922
297.69918
297.78444
297.85007
297.89814
297.93067
297.94958
297.9567
297.95369
297.9421
297.92334
297.89867
297.86922
297.83602
297.79994
297.76178
297.72223
297.6819
297.64129
297.60089
297.56107
297.52219
297.48453
297.44836
297.41389
297.3813
297.35077
297.32243
297.29643
297.27291
297.25201
297.23391
297.21879
297.2069
297.19851
297.19393
297.19351
297.19765
297.20674
297.22117
297.24133
297.26757
297.2999
297.33778
297.3805
297.42808
297.48086
297.5361
297.58969
297.65302
297.76215
297.92501
292.70656
285.34368
289.31176
288.18833
289.40911
289.68613
290.28318
290.80103
291.34789
291.89501
292.44486
292.9915
293.53061
294.05729
294.56672
295.05428
295.51573
295.9474
296.34632
296.71035
297.03816
297.32929
297.58403
297.80337
297.98883
298.1424
298.26639
298.36327
298.43563
298.48608
298.51715
298.53128
298.53076
298.51771
298.49408
298.46164
298.42199
298.37652
298.32651
298.27304
298.2171
298.15951
298.10101
298.04223
297.98369
297.92587
297.86916
297.81388
297.76034
297.70876
297.65934
297.61227
297.56767
297.52566
297.48635
297.44983
297.41619
297.38551
297.35792
297.33354
297.31254
297.29512
297.28152
297.27203
297.26698
297.26672
297.2716
297.28201
297.29832
297.32085
297.34961
297.38416
297.42414
297.4699
297.52118
297.57421
297.6257
297.68927
297.79663
297.94059
293.05311
286.22996
290.00455
289.13481
290.33411
290.75218
291.41239
292.0148
292.63622
293.25184
293.86083
294.45587
295.03098
295.5801
296.09778
296.57933
297.02106
297.42037
297.77579
298.08699
298.35462
298.58019
298.76591
298.91449
299.02897
299.11257
299.16858
299.20023
299.21064
299.20273
299.17922
299.1426
299.0951
299.03874
298.9753
298.90634
298.83325
298.75719
298.67922
298.60021
298.52092
298.44198
298.36395
298.28727
298.21234
298.13946
298.0689
298.00089
297.93558
297.87314
297.81367
297.75727
297.70401
297.65394
297.60712
297.56357
297.52336
297.48653
297.45317
297.42338
297.39729
297.37508
297.35696
297.34319
297.33408
297.32995
297.33113
297.33798
297.3509
297.37014
297.39571
297.42735
297.4651
297.50944
297.55938
297.61036
297.66028
297.72456
297.82967
297.95512
293.53499
287.23431
290.88889
290.30926
291.49829
292.0653
292.80563
293.49837
294.19593
294.87546
295.53236
296.15799
296.74532
297.28825
297.7821
298.22375
298.61164
298.94571
299.2272
299.45845
299.6426
299.78339
299.88487
299.95124
299.98666
299.99519
299.9806
299.94643
299.89587
299.83181
299.75681
299.67314
299.58276
299.48739
299.38852
299.2874
299.18512
299.08259
298.98058
298.87973
298.78059
298.68358
298.58907
298.49735
298.40865
298.32316
298.24103
298.16235
298.08723
298.01571
297.94783
297.88362
297.82309
297.76625
297.7131
297.66363
297.61787
297.57583
297.53757
297.50317
297.47274
297.44643
297.42444
297.40699
297.39437
297.38686
297.38481
297.38858
297.39852
297.41488
297.43764
297.46675
297.50262
297.54572
297.59434
297.64353
297.69263
297.75785
297.85982
297.9677
294.20857
288.5272
292.01343
291.76446
292.96332
293.68444
294.51605
295.29659
296.05851
296.78074
297.45593
298.07565
298.63404
299.12731
299.55392
299.91433
300.21076
300.44675
300.62685
300.75619
300.84023
300.88443
300.89412
300.8743
300.82962
300.76427
300.68202
300.58617
300.47963
300.36491
300.24418
300.11927
299.99176
299.86296
299.73399
299.60576
299.47905
299.35448
299.23256
299.1137
298.99822
298.88639
298.77839
298.67437
298.57444
298.47866
298.38707
298.2997
298.21654
298.13758
298.0628
297.99218
297.92567
297.86323
297.80483
297.75044
297.70005
297.65366
297.61129
297.57302
297.53893
297.50915
297.48386
297.46327
297.44762
297.43721
297.43236
297.43344
297.4408
297.45461
297.47488
297.50177
297.53593
297.5777
297.62483
297.67252
297.72154
297.78771
297.88566
297.97765
295.13048
290.17127
293.46512
293.58061
294.80871
295.67736
296.59117
297.43461
298.22377
298.94156
299.58157
300.13904
300.61269
301.00395
301.31654
301.55589
301.72855
301.84169
301.90261
301.9185
301.89613
301.84173
301.76093
301.65872
301.53948
301.40697
301.26442
301.1146
300.95983
300.80204
300.64287
300.48366
300.32552
300.16936
300.0159
299.86574
299.71935
299.57708
299.43923
299.30598
299.17749
299.05385
298.93511
298.82131
298.71242
298.60844
298.5093
298.41497
298.32537
298.24044
298.1601
298.08429
298.01292
297.94592
297.88323
297.8248
297.77059
297.72059
297.67482
297.63331
297.59615
297.56345
297.53536
297.51208
297.49383
297.48091
297.47363
297.47236
297.47741
297.48892
297.50697
297.53185
297.56433
297.60447
297.64974
297.69605
297.74552
297.81263
297.90586
297.98429
296.28007
292.29166
295.3501
295.84176
297.10062
298.08724
299.0369
299.88177
300.62831
301.26774
301.80012
302.22837
302.55875
302.79952
302.96024
303.05091
303.08147
303.06133
302.99913
302.90263
302.77862
302.63297
302.47072
302.29608
302.11263
301.9233
301.73054
301.53636
301.34237
301.14992
300.96007
300.77367
300.59139
300.41376
300.24117
300.07392
299.91223
299.75624
299.60602
299.46163
299.32305
299.19025
299.06319
298.94177
298.82592
298.71552
298.61048
298.51067
298.416
298.32634
298.24158
298.16162
298.08634
298.01566
297.94949
297.88776
297.83043
297.77746
297.72886
297.68466
297.64492
297.60975
297.57927
297.55367
297.53317
297.51804
297.5086
297.50521
297.50815
297.51754
297.53354
297.55658
297.58732
297.6255
297.66854
297.71343
297.76352
297.83127
297.91963
297.98782
297.84127
295.00114
297.76325
298.6001
299.83214
300.88072
301.77522
302.52226
303.13094
303.60528
303.95594
304.19557
304.33826
304.39819
304.38895
304.32297
304.21132
304.06358
303.88791
303.69117
303.47904
303.25618
303.02641
302.79281
302.55787
302.32357
302.09149
301.86288
301.63871
301.41974
301.20654
300.99953
300.79901
300.6052
300.41821
300.23811
300.06492
299.8986
299.73908
299.58628
299.44008
299.30035
299.16695
299.03973
298.91854
298.80322
298.69361
298.58957
298.49093
298.39756
298.30932
298.22606
298.14767
298.07403
298.00504
297.94062
297.88073
297.82531
297.77435
297.72789
297.68596
297.64866
297.61611
297.58848
297.56597
297.54886
297.53746
297.53209
297.53301
297.54038
297.55444
297.57569
297.60463
297.64063
297.68126
297.72471
297.77519
297.84304
297.92712
297.98864
299.84991
298.36901
300.69732
301.82798
303.02924
303.90667
304.6237
305.15867
305.53437
305.76958
305.88587
305.90372
305.84202
305.71737
305.54396
305.33363
305.09609
304.83919
304.56924
304.29124
304.00916
303.72609
303.44445
303.1661
302.89249
302.62471
302.36356
302.10964
301.86338
301.62506
301.39487
301.17287
300.95911
300.75354
300.55608
300.36662
300.18503
300.01114
299.84479
299.68579
299.53393
299.38903
299.25089
299.1193
298.99406
298.87498
298.76187
298.65455
298.55283
298.45654
298.36554
298.27965
298.19875
298.12271
298.05142
297.9848
297.92277
297.86529
297.81235
297.76394
297.72011
297.68094
297.64654
297.61708
297.59274
297.57379
297.56053
297.55326
297.5522
297.55757
297.56972
297.58916
297.6162
297.64996
297.68833
297.73053
297.78121
297.84859
297.9288
297.98706
302.3372
302.37448
304.40598
305.3933
306.29953
306.9194
307.33197
307.55898
307.63733
307.59711
307.46549
307.26494
307.01374
306.72643
306.4144
306.08646
305.74938
305.40831
305.06715
304.72884
304.39557
304.06894
303.75012
303.43995
303.139
302.84765
302.5661
302.29446
302.03275
301.7809
301.53879
301.30629
301.0832
300.86931
300.66442
300.46828
300.28065
300.1013
299.92996
299.76639
299.61035
299.46159
299.31986
299.18493
299.05658
298.93458
298.81872
298.70879
298.6046
298.50596
298.41271
298.32466
298.24168
298.16363
298.09039
298.02188
297.95801
297.89874
297.84403
297.79389
297.74834
297.70746
297.67136
297.64017
297.6141
297.5934
297.57833
297.56916
297.56614
297.56953
297.57972
297.59724
297.62224
297.65381
297.69028
297.7316
297.78224
297.84849
297.92543
297.9836
305.44585
306.85959
308.20213
308.91326
309.39753
309.61051
309.63536
309.51442
309.28887
308.98941
308.63974
308.25751
307.85575
307.44397
307.02907
306.61602
306.20834
305.80853
305.41834
305.03891
304.67101
304.31509
303.97139
303.63997
303.32078
303.0137
302.71852
302.43501
302.1629
301.90189
301.65168
301.41195
301.18241
300.96271
300.75256
300.55164
300.35964
300.17626
300.00121
299.8342
299.67494
299.52316
299.37861
299.24101
299.11012
298.98571
298.86755
298.75543
298.64913
298.54846
298.45323
298.36328
298.27845
298.19859
298.1236
298.05337
297.98782
297.92689
297.87054
297.81876
297.77159
297.72908
297.69133
297.65849
297.63073
297.60831
297.59145
297.58042
297.57546
297.57689
297.58513
297.60067
297.62361
297.65321
297.68837
297.72949
297.78024
297.84492
297.91869
297.97877
309.44991
311.25304
311.79993
311.98945
311.93499
311.69898
311.34436
310.914
310.43836
309.93838
309.42825
308.91755
308.41265
307.91772
307.43546
306.96753
306.5149
306.07805
305.65713
305.25208
304.86267
304.48858
304.12944
303.78481
303.45427
303.13734
302.83358
302.54253
302.26375
301.99681
301.74129
301.49677
301.26286
301.03919
300.82537
300.62106
300.4259
300.23956
300.06172
299.89207
299.73031
299.57615
299.4293
299.28951
299.15651
299.03007
298.90994
298.7959
298.68775
298.58527
298.48828
298.39661
298.31008
298.22858
298.15196
298.08013
298.01301
297.95052
297.89263
297.83932
297.79061
297.74655
297.70723
297.67279
297.64341
297.61931
297.60073
297.58792
297.58115
297.58076
297.58722
297.60098
297.62215
297.65028
297.68476
297.72618
297.7773
297.84072
297.912
297.97426
314.46063
314.83605
314.56332
314.19102
313.66281
313.06318
312.42807
311.7833
311.14321
310.5165
309.90801
309.32034
308.75469
308.21142
307.69037
307.19105
306.71282
306.25492
305.81658
305.39698
304.99533
304.61089
304.24289
303.89065
303.55349
303.23078
302.92191
302.62633
302.34348
302.07285
301.81397
301.56637
301.3296
301.10325
300.88693
300.68024
300.48282
300.29433
300.11442
299.94277
299.77907
299.62303
299.47436
299.33278
299.19804
299.06989
298.94808
298.8324
298.72262
298.61854
298.51998
298.42675
298.33869
298.25566
298.17753
298.10421
298.03559
297.97163
297.91227
297.8575
297.80731
297.76174
297.72086
297.6848
297.65375
297.62793
297.60764
297.59314
297.58474
297.58277
297.58767
297.59988
297.6196
297.64654
297.68047
297.72206
297.77345
297.83622
297.90633
297.97073
316.47823
316.64708
316.06653
315.29626
314.50854
313.71957
312.94986
312.20709
311.49477
310.81391
310.1642
309.54471
308.95416
308.39114
307.85422
307.342
306.85315
306.38639
305.94057
305.51456
305.10737
304.71804
304.34571
303.98955
303.64882
303.32282
303.01088
302.7124
302.42681
302.15355
301.89214
301.64208
301.40293
301.17426
300.95566
300.74673
300.54712
300.35645
300.17441
300.00065
299.83487
299.67677
299.52606
299.38248
299.24575
299.11562
298.99187
298.87426
298.76258
298.65662
298.55619
298.4611
298.3712
298.28634
298.20638
298.13124
298.06081
297.99505
297.93389
297.87733
297.82535
297.77796
297.7352
297.6972
297.66413
297.63626
297.61393
297.59753
297.58748
297.58396
297.58751
297.59821
297.61667
297.64254
297.67612
297.71792
297.76971
297.83246
297.90232
297.96848
310.28435
308.86486
305.11064
302.14631
300.83741
300.54562
300.47854
300.47658
300.36384
300.30861
300.2084
300.13297
300.04568
299.95882
299.87239
299.78549
299.69793
299.60966
299.52068
299.43105
299.34084
299.25016
299.15914
299.0679
298.97658
298.88533
298.79427
298.70357
298.61335
298.52376
298.43494
298.34701
298.26012
298.17439
298.08996
298.00696
297.92551
297.84575
297.7678
297.69179
297.61785
297.54611
297.47668
297.40969
297.34528
297.28354
297.22461
297.1686
297.11561
297.06574
297.01908
296.9757
296.93566
296.89901
296.86575
296.83586
296.80929
296.78595
296.76571
296.74841
296.73393
296.72214
296.71294
296.70632
296.70251
296.70199
296.70573
296.71485
296.73157
296.75635
296.79447
296.84075
296.91371
296.98623
297.12338
297.21847
297.45125
297.51343
297.79138
297.72312
309.42331
306.42903
302.15292
300.04345
299.46158
299.46406
299.56675
299.57832
299.57322
299.54694
299.52266
299.48625
299.4441
299.39671
299.34527
299.28999
299.23136
299.16962
299.10508
299.03806
298.96884
298.89769
298.82487
298.75063
298.67519
298.59879
298.52165
298.44397
298.36596
298.28783
298.20976
298.13194
298.05457
297.97781
297.90185
297.82686
297.75301
297.68047
297.6094
297.53996
297.47231
297.4066
297.34299
297.28162
297.22263
297.16617
297.11237
297.06135
297.01323
296.96813
296.92612
296.8873
296.85173
296.81943
296.79043
296.76471
296.74221
296.72283
296.70646
296.69295
296.68219
296.67407
296.66851
296.66556
296.66547
296.66875
296.67638
296.68948
296.71014
296.73895
296.78072
296.83113
296.90716
296.98428
297.1231
297.22196
297.45333
297.5116
297.79044
297.71038
307.94734
304.2979
301.12607
299.39931
299.06744
299.10856
299.14427
299.11787
299.08959
299.057
299.02572
298.99068
298.9541
298.91467
298.87306
298.82903
298.78283
298.73438
298.68378
298.63112
298.57651
298.52007
298.46191
298.40218
298.34103
298.27861
298.21507
298.1506
298.08536
298.01954
297.95331
297.88686
297.82039
297.75406
297.68808
297.62264
297.55792
297.4941
297.43138
297.36994
297.30995
297.2516
297.19506
297.14049
297.08806
297.03793
296.99024
296.94515
296.90278
296.86325
296.82666
296.7931
296.76263
296.7353
296.71113
296.69009
296.67213
296.65716
296.64507
296.63572
296.62903
296.62491
296.62331
296.62429
296.62815
296.63543
296.64711
296.66429
296.68896
296.72179
296.76724
296.82159
296.90085
296.98214
297.12287
297.22475
297.45489
297.5093
297.78845
297.69831
306.72147
302.80967
299.94635
298.63969
298.5919
298.60895
298.62731
298.59015
298.57188
298.54239
298.51842
298.48917
298.45993
298.42865
298.39625
298.36224
298.32679
298.28971
298.25103
298.21073
298.16883
298.12535
298.08032
298.03381
297.9859
297.93665
297.88618
297.83461
297.78205
297.72865
297.67455
297.61992
297.56492
297.50972
297.45451
297.39946
297.34477
297.29063
297.23723
297.18476
297.13342
297.08339
297.03486
296.98802
296.94304
296.90011
296.85938
296.821
296.78513
296.75189
296.72139
296.69373
296.66897
296.64717
296.62833
296.61246
296.59949
296.58935
296.58192
296.57709
296.57479
296.57496
296.57758
296.58274
296.59077
296.60223
296.61808
296.63944
296.66818
296.70503
296.75418
296.81236
296.89491
296.98009
297.12278
297.22718
297.45603
297.50665
297.78557
297.68667
306.00177
301.57686
298.97376
298.00657
298.09062
298.06353
298.09108
298.05258
298.04625
298.02122
298.006
297.98384
297.96333
297.94092
297.91792
297.89371
297.86847
297.84198
297.81424
297.7852
297.75482
297.7231
297.69003
297.65562
297.6199
297.5829
297.54469
297.50533
297.46491
297.42353
297.3813
297.33836
297.29483
297.25087
297.20664
297.16231
297.11804
297.07404
297.03048
296.98755
296.94545
296.90437
296.86451
296.82606
296.7892
296.75412
296.72099
296.68998
296.66123
296.63487
296.61103
296.58981
296.57128
296.55549
296.54246
296.53218
296.52461
296.51967
296.51726
296.51727
296.51967
296.52441
296.5315
296.54106
296.55344
296.56922
296.58937
296.61497
296.64781
296.68867
296.7415
296.80343
296.88926
296.97809
297.12271
297.22921
297.45669
297.50359
297.7819
297.67547
305.42578
300.37093
298.16561
297.39814
297.555
297.49664
297.54493
297.50676
297.5158
297.49738
297.49334
297.47988
297.46925
297.45638
297.44316
297.42885
297.41359
297.39724
297.37979
297.3612
297.34145
297.3205
297.29834
297.27498
297.25042
297.22467
297.19776
297.16975
297.14069
297.11064
297.07969
297.04795
297.01551
296.98252
296.94909
296.91539
296.88158
296.8478
296.81426
296.78112
296.74857
296.7168
296.686
296.65637
296.62809
296.60134
296.57631
296.55314
296.532
296.51302
296.49633
296.48201
296.47016
296.46082
296.454
296.4497
296.44789
296.44849
296.45141
296.45657
296.46394
296.47349
296.48527
296.49942
296.51632
296.53656
296.56108
296.59097
296.62793
296.67276
296.72923
296.79488
296.88387
296.97618
297.12263
297.23093
297.45684
297.50015
297.77752
297.66473
304.83608
299.30983
297.50989
296.84198
297.04798
296.96235
297.03109
296.99117
297.01313
296.99919
297.0044
296.99807
296.99553
296.99048
296.98532
296.97927
296.97243
296.96472
296.9561
296.94655
296.93602
296.92449
296.91193
296.89833
296.88369
296.86799
296.85127
296.83353
296.81482
296.79518
296.77468
296.7534
296.73141
296.70883
296.68576
296.66234
296.6387
296.61499
296.59138
296.56802
296.54508
296.52276
296.50122
296.48065
296.46123
296.44314
296.42654
296.41159
296.39844
296.38722
296.37805
296.37103
296.36623
296.36369
296.36344
296.36546
296.36973
296.37618
296.38471
296.39527
296.40785
296.42244
296.4391
296.45802
296.47957
296.50436
296.53333
296.56753
296.60859
296.65736
296.71742
296.78671
296.87874
296.97439
297.12252
297.23235
297.45646
297.49634
297.77252
297.65444
304.34885
298.34711
296.95421