/*--------------------------------*- C++ -*----------------------------------*\
  =========                 |
  \\      /  F ield         | OpenFOAM: The Open Source CFD Toolbox
   \\    /   O peration     | Website:  https://openfoam.org
    \\  /    A nd           | Version:  12
     \\/     M anipulation  |
\*---------------------------------------------------------------------------*/
FoamFile
{
    format      ascii;
    class       volScalarField;
    location    "0.004";
    object      p;
}
// * * * * * * * * * * * * * * * * * * * * * * * * * * * * * * * * * * * * * //

dimensions      [1 -1 -2 0 0 0 0];

internalField   nonuniform List<scalar> 
16000
(
88567.754
88694.196
88706.98
88839.179
88867.178
88992.306
89044.399
89159.795
89234.437
89345.139
89437.71
89549.066
89655.817
89771.929
89890.095
90013.961
90142.118
90275.204
90413.115
90555.961
90703.777
90856.601
91014.445
91177.308
91345.165
91517.97
91695.653
91878.119
92065.247
92256.889
92452.87
92652.989
92857.02
93064.712
93275.798
93489.99
93706.99
93926.491
94148.183
94371.762
94596.933
94823.42
95050.977
95279.392
95508.496
95738.169
95968.353
96199.057
96430.372
96662.474
96895.63
97130.215
97366.713
97605.74
97848.061
98094.608
98346.495
98605.077
98872.141
99150.161
99442.097
99749.774
100071.16
100402.03
100752.88
101179
101786.24
102628.87
103526.24
104005.32
103592.09
102484.76
101333.91
100566.74
100193.52
100053.88
100012.45
100002.41
100000.4
100000.05
88531.568
88675.487
88685.498
88829.886
88859.644
88995.829
89050.493
89177.409
89256.385
89377.717
89477.166
89597.857
89713.257
89838.505
89966.138
90099.626
90237.759
90381.048
90529.435
90682.996
90841.753
91005.716
91174.871
91349.183
91528.59
91713.003
91902.305
92096.349
92294.957
92497.919
92704.997
92915.922
93130.402
93348.119
93568.734
93791.897
94017.246
94244.419
94473.054
94702.805
94933.345
95164.375
95395.635
95626.911
95858.042
96088.932
96319.557
96549.971
96780.311
97010.81
97241.799
97473.714
97707.111
97942.679
98181.256
98423.838
98671.597
98925.961
99188.831
99462.768
99750.518
100053.09
100367.56
100690.97
101039.74
101476.82
102106.54
102957.39
103818.3
104172.97
103587.23
102370.89
101212.01
100487.65
100156.51
100040.88
100008.87
100001.61
100000.25
100000.03
88514.046
88673.033
88683.083
88840.722
88871.053
89020.996
89077.895
89217.318
89301.393
89433.171
89540.232
89670.274
89794.961
89929.759
90067.484
90211.25
90360.069
90514.328
90673.988
90839.088
91009.623
91185.567
91366.868
91553.444
91745.183
91941.942
92143.544
92349.776
92560.392
92775.111
92993.618
93215.57
93440.595
93668.301
93898.276
94130.103
94363.356
94597.619
94832.487
95067.577
95302.542
95537.071
95770.908
96003.853
96235.774
96466.614
96696.399
96925.239
97153.341
97381.004
97608.634
97836.746
98065.975
98297.088
98531.001
98768.777
99011.648
99261.128
99519.229
99788.539
100071.46
100368.12
100675.07
100991.65
101341.49
101795.49
102455
103316.96
104122.21
104306.02
103518.55
102202.8
101064.39
100403.17
100121.5
100029.85
100006.09
100001.04
100000.15
100000.02
88516.735
88686.716
88698.178
88871.187
88901.581
89067.627
89126.532
89279.879
89369.007
89511.895
89627.484
89767.737
89902.883
90048.3
90197.301
90352.536
90513.24
90679.673
90851.802
91029.624
91213.098
91402.156
91596.695
91796.576
92001.627
92211.634
92426.346
92645.473
92868.685
93095.615
93325.862
93558.993
93794.554
94032.068
94271.05
94511.011
94751.468
94991.955
95232.033
95471.299
95709.396
95946.024
96180.95
96414.009
96645.119
96874.284
97101.599
97327.254
97551.534
97774.828
97997.63
98220.544
98444.295
98669.739
98897.865
99129.799
99366.839
99610.593
99863.196
100127.23
100404.66
100694.71
100993.76
101304.49
101659.28
102137.56
102833.12
103699.51
104417.35
104380.35
103377.56
101989.55
100903.44
100320.68
100090.59
100020.91
100004.01
100000.64
100000.09
100000.01
88535.649
88720.627
88729.235
88921.307
88950.668
89134.531
89195.321
89363.649
89459.401
89615.094
89741.148
89893.011
90040.328
90197.819
90359.584
90527.752
90701.774
90881.807
91067.806
91259.726
91457.481
91660.945
91869.95
92084.286
92303.701
92527.895
92756.526
92989.206
93225.508
93464.964
93707.073
93951.306
94197.115
94443.939
94691.217
94938.396
95184.945
95430.361
95674.188
95916.023
96155.526
96392.431
96626.552
96857.791
97086.141
97311.692
97534.633
97755.249
97973.931
98191.169
98407.56
98623.81
98840.742
99059.297
99280.534
99505.64
99735.988
99973.317
100219.9
100478.27
100749.76
101032.58
101323.58
101630.59
101996.74
102509.14
103244
104096.66
104678.65
104373.04
103158.11
101738.54
100737.27
100243.82
100064.31
100013.9
100002.49
100000.37
100000.05
100000
88572.867
88775.268
88781.752
88995.069
89022.809
89226.405
89289.538
89474.752
89578.8
89748.375
89886.532
90051.112
90212.171
90383.203
90559.27
90741.969
90930.912
91126.159
91327.627
91535.211
91748.756
91968.06
92192.87
92422.883
92657.745
92897.049
93140.34
93387.117
93636.833
93888.907
94142.726
94397.658
94653.058
94908.284
95162.705
95415.718
95666.76
95915.316
96160.939
96403.255
96641.973
96876.894
97107.916
97335.034
97558.351
97778.068
97994.491
98208.029
98419.189
98628.582
98836.919
99045.013
99253.784
99464.253
99677.547
99894.913
100117.83
100348.22
100588.51
100841
101106.11
101381.06
101664.23
101971.09
102357.18
102913.87
103683.7
104493.31
104874.68
104263.64
102862.33
101462.85
100575.11
100176.08
100043.15
100008.68
100001.45
100000.2
100000.02
100000
88630.222
88852.851
88857.331
89094.388
89120.465
89346.463
89413.156
89616.998
89730.637
89915.11
90067.434
90246.187
90422.922
90609.381
90801.646
91000.809
91206.574
91418.906
91637.66
91862.648
92093.629
92330.299
92572.297
92819.201
93070.53
93325.746
93584.257
93845.426
94108.573
94372.987
94637.939
94902.687
95166.497
95428.656
95688.483
95945.348
96198.685
96448.003
96692.901
96933.074
97168.321
97398.55
97623.781
97844.142
98059.872
98271.317
98478.922
98683.235
98884.898
99084.65
99283.322
99481.835
99681.196
99882.503
100086.94
100295.84
100510.83
100734.07
100968.04
101214.52
101472.66
101738.95
102015.31
102327.98
102744.99
103354.34
104144.59
104868.54
104975.14
104035.75
102500
101177.5
100425.41
100119.75
100027.12
100005.05
100000.78
100000.1
100000.01
100000
88706.987
88953.535
88954.932
89219.13
89243.533
89495.551
89567.618
89792.197
89918.311
90119.448
90288.807
90483.766
90678.495
90882.643
91093.288
91311.093
91535.802
91767.277
92005.289
92249.545
92499.683
92755.272
93015.808
93280.717
93549.361
93821.042
94095.008
94370.463
94646.579
94922.51
95197.406
95470.431
95740.776
96007.68
96270.449
96528.463
96781.199
97028.236
97269.27
97504.116
97732.711
97955.119
98171.52
98382.215
98587.61
98788.215
98984.638
99177.574
99367.811
99556.217
99743.738
99931.392
100120.27
100311.52
100506.4
100706.37
100913.25
101129.42
101357.21
101597.34
101847.45
102104.41
102376.62
102704.34
103165.12
103830.27
104610.85
105185.43
104940.81
103686.53
102089.7
100899.3
100295.61
100075.98
100015.8
100002.7
100000.38
100000.04
100000
100000
88807.731
89082.044
89079.289
89376.924
89399.986
89681.354
89760.377
90007.667
90149.196
90368.399
90557.645
90770.946
90986.025
91210.309
91441.72
91680.568
91926.559
92179.435
92438.834
92704.319
92975.369
93251.379
93531.663
93815.459
94101.936
94390.206
94679.332
94968.345
95256.265
95542.114
95824.938
96103.829
96377.942
96646.516
96908.889
97164.514
97412.97
97653.972
97887.374
98113.17
98331.491
98542.601
98746.887
98944.846
99137.081
99324.282
99507.224
99686.757
99863.805
100039.36
100214.47
100390.23
100567.79
100748.36
100933.28
101124.18
101323.12
101532.54
101754.12
101987
102227.55
102475.4
102749.3
103105.42
103623.59
104335.08
105062.52
105391.89
104741.03
103223.95
101658.03
100645.03
100191.13
100044.55
100008.43
100001.3
100000.17
100000.02
100000
100000
88938.354
89244.748
89238.475
89573.364
89596.274
89909.204
89997.393
90268.703
90429.252
90668.053
90880.399
91114.761
91352.975
91600.323
91855.331
92117.999
92387.928
92664.687
92947.738
93236.448
93530.084
93827.823
94128.749
94431.869
94736.126
95040.412
95343.594
95644.531
95942.098
96235.212
96522.856
96804.1
97078.125
97344.236
97601.884
97850.673
98090.365
98320.885
98542.317
98754.898
98959.006
99155.147
99343.942
99526.111
99702.457
99873.855
100041.24
100205.61
100368
100529.52
100691.28
100854.44
101020.18
101189.76
101364.65
101546.7
101738.16
101941.13
102156.02
102380.04
102609.61
102851
103137.47
103538.64
104123.81
104849.83
105465.1
105440.23
104359.12
102675.64
101236.49
100429.23
100113.57
100023.83
100004.05
100000.56
100000.06
100000.01
100000
100000
89099.714
89443.854
89434.744
89809.902
89834.296
90181.717
90283.009
90580.05
90764.551
91025.351
91264.665
91523.684
91788.427
92062.305
92344.19
92633.797
92930.55
93233.798
93542.762
93856.553
94174.167
94494.497
94816.35
95138.46
95459.516
95778.184
96093.138
96403.086
96706.804
97003.161
97291.146
97569.895
97838.706
98097.057
98344.612
98581.224
98806.934
99021.96
99226.686
99421.647
99607.507
99785.041
99955.115
100118.67
100276.7
100430.25
100580.4
100728.24
100874.94
101021.65
101169.53
101319.76
101473.52
101632.18
101797.38
101971.15
102155.69
102352.18
102559.1
102772.29
102991.12
103233.3
103549.38
104012.56
104661.04
105350.73
105738.7
105263.94
103806.59
102086.79
100856.04
100261.52
100061.19
100011.42
100001.71
100000.2
100000.02
100000
100000
100000
89293.731
89682.119
89669.883
90090.182
90119.25
90504.537
90624.591
90949.467
91163.937
91450.034
91720.583
92008.523
92303.677
92607.946
92920.321
93240.215
93566.79
93899.091
94236.015
94576.328
94918.68
95261.622
95603.635
95943.157
96278.621
96608.486
96931.274
97245.61
97550.254
97844.129
98126.353
98396.256
98653.389
98897.532
99128.686
99347.065
99553.079
99747.315
99930.508
100103.52
100267.32
100422.94
100571.49
100714.09
100851.91
100986.11
101117.87
101248.39
101378.85
101510.47
101644.39
101781.75
101923.79
102072
102228.24
102394.59
102572.61
102761.87
102958.78
103159.84
103372.27
103629.31
103996.5
104534.62
105208.74
105791.28
105830.57
104842.72
103123.2
101512.23
100541.6
100143.73
100029.42
100004.77
100000.61
100000.06
100000
100000
100000
100000
89524.604
89965.355
89950.36
90422.279
90459.812
90886.809
91032.519
91387.524
91638.531
91954.113
92260.448
92582.17
92912.154
93251.12
93597.937
93951.623
94310.949
94674.535
95040.844
95408.211
95774.867
96138.982
96498.695
96852.161
97197.597
97533.324
97857.817
98169.743
98467.995
98751.725
99020.353
99273.578
99511.369
99733.954
99941.796
100135.56
100316.11
100484.41
100641.58
100788.8
100927.32
101058.39
101183.3
101303.33
101419.74
101533.79
101646.7
101759.69
101873.97
101990.72
102111.03
102236.03
102367.02
102505.67
102654.04
102813.8
102985.16
103165.59
103350.67
103541.07
103757.65
104050.84
104487.21
105092.87
105736.66
106087.11
105633.71
104192.18
102380.68
101003.49
100307.64
100069.84
100012.25
100001.65
100000.16
100000.01
100000
100000
100000
100000
89798.949
90301.62
90284.884
90815.544
90866.746
91338.751
91518.46
91906.203
92200.849
92551.514
92898.977
93260.242
93630.261
94008.722
94394.11
94784.896
95179.31
95575.427
95971.183
96364.415
96752.908
97134.445
97506.858
97868.094
98216.271
98549.731
98867.095
99167.294
99449.596
99713.609
99959.282
100186.88
100396.95
100590.29
100767.92
100930.99
101080.81
101218.75
101346.25
101464.76
101575.71
101680.55
101780.66
101877.4
101972.07
102065.94
102160.23
102256.16
102354.86
102457.43
102564.94
102678.5
102799.54
102929.95
103071.63
103225.23
103388.82
103558.23
103731.55
103918.65
104157.21
104510.72
105029.1
105660.06
106166.79
106147.87
105136.34
103374.16
101664.46
100597.7
100153.78
100029.27
100004.17
100000.42
100000.02
99999.998
100000
100000
100000
100000
90122.353
90699.131
90682.667
91279.326
91350.685
91870.993
92095.264
92520.264
92866.847
93260.309
93655.548
94063.027
94478.759
94901.437
95328.93
95759.022
96189.283
96617.153
97039.975
97455.063
97859.77
98251.561
98628.1
98987.319
99327.491
99647.279
99945.767
100222.47
100477.34
100710.7
100923.24
101115.95
101290.07
101447.01
101588.32
101715.66
101830.69
101935.1
102030.56
102118.69
102201.04
102279.11
102354.32
102428.01
102501.47
102575.93
102652.55
102732.46
102816.69
102906.24
103002.13
103105.61
103218.26
103341.94
103477.82
103624.81
103778.72
103935.7
104101.53
104300.65
104586.6
105019.55
105597.57
106181.11
106434.67
105871.05
104365.35
102493.44
101049.35
100312.23
100065.61
100009.95
100000.99
100000.02
99999.988
99999.998
100000
100000
100000
100000
90499.733
91164.996
91150.422
91822.185
91925.023
92499.203
92781.877
93251.83
93659.905
94105.457
94555.742
95015.99
95482.449
95952.804
96424.136
96893.406
97357.405
97812.848
98256.462
98685.088
99095.792
99485.975
99853.466
100196.59
100514.22
100805.78
101071.23
101311.04
101526.09
101717.66
101887.29
102036.74
102167.91
102282.79
102383.37
102471.64
102549.54
102618.92
102681.55
102739.1
102793.13
102845.1
102896.37
102948.2
103001.81
103058.32
103118.8
103184.22
103255.5
103333.54
103419.42
103514.54
103620.62
103738.96
103869.2
104008.1
104150.85
104297.68
104466.49
104700.25
105056.64
105569.77
106159.65
106559.9
106388.51
105247.34
103414.82
101668.33
100581.71
100138.9
100022.71
100002.29
100000
99999.948
99999.99
99999.999
100000
100000
100000
100000
90939.421
91710.24
91702.953
92464.693
92614.105
93251.126
93607.755
94132.106
94610.958
95117.768
95629.655
96147.864
96668.209
97187.212
97700.917
98205.261
98696.133
99169.531
99621.724
100049.4
100449.81
100820.86
101161.15
101470.05
101747.58
101994.42
102211.78
102401.31
102564.99
102705.06
102823.87
102923.84
103007.39
103076.89
103134.59
103182.66
103223.09
103257.77
103288.43
103316.66
103343.91
103371.54
103400.76
103432.72
103468.49
103509.06
103555.35
103608.18
103668.31
103736.66
103814.44
103903.24
104004.49
104118.28
104242
104370.86
104502.58
104647.39
104838.85
105132.75
105574.6
106132.23
106626.03
106728.9
105968.87
104336.86
102427.38
100990.86
100275.4
100049.95
100005.33
99999.921
99999.823
99999.964
99999.997
100000
100000
100000
100000
100000
91462.131
92363.804
92373.388
93242.155
93453.54
94161.991
94608.42
95197.042
95754.909
96331.328
96910.116
97489.274
98063.44
98627.595
99176.451
99704.844
100207.94
100681.45
101121.86
101526.54
101893.8
102222.94
102514.17
102768.49
102987.59
103173.69
103329.38
103457.51
103561.04
103642.97
103706.24
103753.66
103787.92
103811.51
103826.74
103835.7
103840.33
103842.36
103843.36
103844.76
103847.82
103853.71
103863.48
103878.12
103898.52
103925.52
103959.84
104002.13
104053.14
104113.87
104185.73
104270.22
104367.87
104476.76
104592.21
104710.1
104835.53
104993.86
105233.83
105607.74
106120.17
106655.16
106928.06
106525.99
105188.08
103275.01
101546.39
100506.79
100106.15
100012.62
99999.837
99999.497
99999.885
99999.991
100000
100000
100000
100000
100000
100000
92095.393
93161.008
93196.269
94190.515
94481.823
95268.523
95822.034
96487.123
97132.139
97785.363
98433.669
99071.875
99692.761
100289.58
100855.92
101386.15
101875.7
102321.25
102720.79
103073.64
103380.32
103642.37
103862.21
104042.84
104187.73
104300.54
104385.05
104444.97
104483.89
104505.22
104512.11
104507.45
104493.87
104473.76
104449.24
104422.19
104394.32
104367.1
104341.88
104319.82
104301.98
104289.3
104282.65
104282.83
104290.55
104306.45
104331.08
104364.99
104409.01
104464.35
104532.5
104614.31
104708.53
104810.93
104916.32
105025.57
105156.55
105351.03
105663.71
106120.63
106652.75
107033.88
106933.87
105930.8
104151.81
102235.03
100863.33
100215.22
100029.97
100000.2
99998.777
99999.663
99999.969
100000
100000
100000
100000
100000
100000
100000
92864.585
94128.39
94204.854
95340.363
95743.622
96619.147
97299.063
98055.383
98793.702
99525.291
100236.87
100920.12
101566.21
102167.63
102718.37
103214.19
103652.75
104033.5
104357.54
104627.29
104846.21
105018.49
105148.76
105241.83
105302.51
105335.46
105345.06
105335.41
105310.23
105272.86
105226.31
105173.23
105115.96
105056.56
104996.81
104938.27
104882.32
104830.13
104782.76
104741.1
104705.98
104678.13
104658.21
104646.85
104644.57
104651.79
104668.95
104696.63
104735.86
104788.07
104854.36
104934.14
105023.8
105117.58
105213.13
105321.72
105477.43
105732.83
106128.79
106636.83
107095.26
107217.49
106553.14
105008.1
103031.93
101362.14
100408.93
100069.86
100002.73
99997.498
99999.112
99999.893
100000
100000
100000
100000
100000
100000
100000
100000
93799.962
95311.919
95461.716
96755.085
97311.532
98289.928
99111.365
99968.331
100794.69
101589.26
102337.6
103029.89
103658.01
104216.56
104702.85
105116.72
105460.24
105737.21
105952.7
106112.58
106223.12
106290.67
106321.4
106321.17
106295.35
106248.83
106186
106110.72
106026.36
105935.88
105841.81
105746.35
105651.37
105558.49
105469.08
105384.33
105305.25
105232.71
105167.46
105110.15
105061.39
105021.69
104991.57
104971.43
104961.61
104962.38
104974.15
104997.71
105034.34
105085.38
105150.88
105228.01
105310.96
105394.84
105484.89
105607.09
105809.93
106144.33
106613.82
107110.15
107385.07
107054.1
105809.94
103904.5
102008.81
100725.46
100156.56
100012.48
99995.886
99997.915
99999.647
100000
100000.01
100000
100000
100000
100000
100000
100000
100000
94977.194
96802.839
97066.769
98536.991
99290.785
100380.11
101338.94
102283.32
103164.68
103975.51
104703.44
105341.73
105887.37
106341.05
106706.48
106989.61
107197.95
107339.81
107423.78
107458.28
107451.28
107410.12
107341.4
107250.96
107143.9
107024.63
106896.92
106764
106628.59
106492.97
106359.09
106228.55
106102.73
105982.76
105869.59
105764.05
105666.8
105578.42
105499.4
105430.17
105371.14
105322.67
105285.08
105258.6
105243.4
105239.69
105248.02
105269.47
105305.46
105356.67
105421.25
105493.81
105567.75
105642.94
105737.18
105892.79
106164.72
106579.88
107080.99
107462
107427.28
106531.86
104817.07
102804.91
101200.42
100328.35
100041.9
99995.314
99995.658
99998.937
99999.956
100000.02
100000.01
100000
100000
100000
100000
100000
100000
100000
96519.906
98733.808
99161.567
100807.84
101793.24
102981.16
104030.45
105002.44
105862.27
106604.6
107225.87
107728.46
108118.81
108406.34
108602.23
108718.38
108766.67
108758.34
108703.71
108612
108491.26
108348.42
108189.38
108019.09
107841.72
107660.7
107478.88
107298.6
107121.78
106950.01
106784.58
106626.53
106476.74
106335.91
106204.63
106083.36
105972.5
105872.37
105783.25
105705.39
105639.04
105584.41
105541.67
105510.88
105492.11
105485.62
105492.24
105513.34
105550.09
105601.73
105663.9
105729.31
105793.45
105865.52
105978.66
106186.68
106536.4
107012.21
107474.67
107665.79
107149.69
105732.12
103742.41
101864.92
100639.74
100119.86
100000.84
99992.369
99997.23
99999.713
100000.05
100000.02
100000
100000
100000
100000
100000
100000
100000
100000
98608.472
101260.51
101911.03
103689.4
104874.2
106105.38
107138.15
108020.78
108741.56
109306.39
109725.95
110015.23
110191.15
110271.02
110271.41
110207.47
110092.6
109938.33
109754.45
109549.09
109328.96
109099.56
108865.33
108629.85
108396.02
108166.13
107942.02
107725.16
107516.69
107317.54
107128.41
106949.87
106782.37
106626.25
106481.78
106349.18
106228.6
106120.17
106024
105940.21
105868.92
105810.22
105764.11
105730.55
105709.57
105701.67
105708
105730.01
105768.01
105819.14
105876.53
105932.68
105988.74
106066.8
106214.92
106491.08
106914.32
107409.64
107751.73
107624.51
106600.43
104791.67
102749.41
101156.14
100301.37
100028.32
99989.771
99993.877
99998.789
100000.03
100000.05
100000.01
100000
100000
100000
100000
100000
100000
100000
100000
101484.82
104496.16
105440.94
107278.02
108505.04
109601.03
110461.83
111111.81
111567.81
111855.12
112000.09
112028.6
111964.19
111827.47
111635.86
111403.8
111143.01
110862.89
110570.92
110272.98
109973.68
109676.6
109384.53
109099.61
108823.45
108557.32
108302.15
108058.62
107827.26
107608.42
107402.38
107209.31
107029.33
106862.51
106708.88
106568.46
106441.22
106327.15
106226.25
106138.53
106064.02
106002.68
105954.4
105919.07
105896.84
105888.49
105895.44
105918.83
105957.57
106006.35
106056.63
106103.22
106156.51
106252.94
106449.53
106793.75
107268.27
107725.82
107903.65
107351.65
105892.97
103865.6
101946.25
100676.07
100122.58
99995.176
99988.61
99996.11
99999.69
100000.11
100000.04
100000
99999.999
100000
100000
100000
100000
100000
100000
100000
105412.87
108627.78
109766.1
111358.73
112416.59
113199.25
113704.83
113985.32
114082.72
114037.6
113884.2
113650.95
113360.56
113030.92
112675.83
112305.87
111929.06
111551.44
111177.5
110810.6
110453.21
110107.09
109773.55
109453.47
109147.47
108855.93
108579.08
108317.05
108069.86
107837.48
107619.82
107416.81
107228.31
107054.22
106894.39
106748.68
106616.96
106499.11
106395.05
106304.72
106228.06
106164.94
106115.17
106078.69
106055.84
106047.71
106055.77
106080.43
106118.88
106163.83
106206.35
106245.6
106302.31
106426.2
106679.54
107085.53
107580.19
107948.31
107885.86
106936.02
105163.79
103075.5
101363.34
100383.19
100038.28
99984.801
99990.394
99997.965
100000.07
100000.11
100000.02
99999.999
99999.999
100000
100000
100000
100000
100000
100000
100000
110334.67
113511.07
114561.71
115626.39
116205.02
116477.39
116503.92
116353.86
116078.11
115716.54
115298.8
114846.68
114376.04
113898.24
113421.41
112951.28
112491.85
112045.87
111615.21
111201.05
110804.13
110424.86
110063.38
109719.69
109393.65
109085.08
108793.7
108519.23
108261.39
108019.85
107794.34
107584.58
107390.29
107211.23
107047.16
106897.84
106763.05
106642.63
106536.42
106444.31
106366.16
106301.79
106250.99
106213.85
106191.02
106183.78
106193.29
106218.83
106255.85
106295.97
106331.82
106368.27
106435.04
106588.14
106888.8
107340.09
107815.7
108084.03
107755.86
106495.93
104538.63
102489.46
100981.25
100219.86
100001.95
99982.364
99992.362
99999.076
100000.21
100000.1
100000.01
99999.998
99999.999
100000
100000
100000
100000
100000
100000
100000
116191.89
118570.96
119145.33
119414.72
119331.54
119029.45
118583.06
118049.44
117466.78
116860.96
116249.15
115642.65
115048.79
114472.23
113915.82
113381.21
112869.24
112380.21
111914.06
111470.49
111049.07
110649.27
110270.52
109912.23
109573.79
109254.63
108954.19
108671.94
108407.38
108160.05
107929.53
107715.42
107517.38
107335.08
107168.2
107016.45
106879.58
106757.36
106649.61
106556.15
106476.77
106411.24
106359.42
106321.6
106298.71
106292.12
106302.48
106327.75
106361.71
106395.47
106424.11
106458.58
106536.04
106713.59
107043.38
107513.86
107960.48
108121.66
107581.84
106139.84
104107.37
102129.32
100767.24
100137.59
99986.26
99981.886
99993.795
99999.662
100000.27
100000.08
100000
99999.997
100000
100000
100000
100000
100000
100000
100000
100000
122448.8
122870.5
122668.94
122157.73
121476.43
120709.86
119910.82
119109.23
118322.52
117560.31
116827.73
116127.17
115459.43
114824.33
114221.18
113648.95
113106.48
112592.54
112105.93
111645.44
111209.94
110798.35
110409.67
110042.96
109697.34
109372.03
109066.26
108779.38
108510.76
108259.84
108026.1
107809.1
107608.41
107423.65
107254.47
107100.53
106961.52
106837.18
106727.3
106631.65
106549.97
106481.98
106427.59
106387.26
106362.12
106353.46
106361.64
106383.62
106411.96
106437.39
106456.91
106485.6
106564.57
106754.11
107101.69
107578.4
108009.14
108106.14
107485.51
105990.23
103950.63
102010.26
100698.85
100109.25
99978.968
99981.146
99994.314
99999.935
100000.31
100000.08
99999.997
99999.997
100000
100000
100000
100000
100000
100000
100000
100000
126107.82
125520.96
124662.89
123677.67
122663.69
121662.42
120695.2
119770.78
118892.44
118060.42
117273.51
116529.81
115827.14
115163.22
114535.84
113942.9
113382.43
112852.61
112351.76
111878.37
111431.03
111008.47
110609.53
110233.15
109878.38
109544.33
109230.21
108935.31
108658.97
108400.6
108159.69
107935.76
107728.39
107537.19
107361.81
107201.9
107057.18
106927.4
106812.38
106711.9
106625.72
106553.55
106495.36
106451.75
106423.99
106413.36
106419.96
106440.19
106465.91
106488.39
106508.09
106541.49
106624.41
106819.89
107177.29
107680.23
108143.66
108287.58
107714.85
106238.59
104172.23
102160.74
100769.61
100125.68
99976.853
99978.73
99993.488
99999.949
100000.36
100000.08
99999.995
99999.997
100000
100000
100000
100000
100000
100000
100000
100000
105655.15
105580.97
105482.63
105377.98
105251.73
105118.39
104968.45
104815.68
104657.12
104499.94
104342.38
104185.55
104028.82
103872.84
103717.67
103563.64
103410.87
103259.53
103109.79
102961.8
102815.69
102671.55
102529.49
102389.56
102251.82
102116.32
101983.09
101852.18
101723.64
101597.51
101473.85
101352.69
101234.08
101118.05
101004.61
100893.78
100785.58
100680.04
100577.19
100477.08
100379.77
100285.34
100193.87
100105.4
100019.94
99937.445
99857.765
99780.591
99705.387
99631.314
99557.239
99481.858
99404.044
99323.35
99240.492
99157.589
99078.1
99006.781
98949.533
98911.451
98888.905
98854.201
98747.629
98505.448
98129.981
97725.796
97445.111
97449.053
97888.723
98780.484
99854.245
100665.22
100946.67
100793.88
100487.77
100235.72
100092.98
100030.58
100008.5
100001.97
103810.79
103794.38
103758.28
103727.8
103677.48
103628.2
103564.83
103500.5
103426.14
103349.5
103266.06
103179.71
103088.77
102994.82
102897.63
102797.84
102695.67
102591.49
102485.57
102378.21
102269.68
102160.25
102050.17
101939.67
101828.99
101718.37
101608
101498.12
101388.93
101280.62
101173.37
101067.34
100962.68
100859.52
100757.98
100658.19
100560.25
100464.28
100370.4
100278.72
100189.36
100102.41
100017.93
99935.915
99856.323
99779.004
99703.681
99629.902
99557.007
99484.13
99410.302
99334.679
99256.926
99177.63
99098.587
99022.797
98954.234
98897.455
98856.338
98829.97
98803.386
98736.622
98570.491
98269.488
97882.271
97535.49
97352.805
97449.811
97960.113
98894.721
99991.197
100805.24
101061.7
100868.6
100526.33
100251.83
100098.44
100032.08
100008.83
100002.02
102484.85
102482.24
102466.07
102461.78
102441.36
102427.82
102400.75
102377.35
102343.48
102310.27
102269.22
102226.63
102178.3
102127.03
102071.37
102012.31
101949.57
101883.57
101814.41
101742.33
101667.56
101590.32
101510.86
101429.43
101346.26
101261.63
101175.78
101088.98
101001.47
100913.49
100825.28
100737.05
100649.01
100561.36
100474.3
100388.02
100302.71
100218.54
100135.69
100054.31
99974.518
99896.399
99819.989
99745.254
99672.086
99600.271
99529.471
99459.205
99388.872
99317.822
99245.529
99171.851
99097.36
99023.586
98953.064
98889.091
98835.218
98794.238
98765.77
98740.84
98693.82
98579.272
98350.526
98009.162
97641.71
97374.751
97297.46
97480.218
98048.278
99018
100134.42
100945.84
101173.97
100939.24
100561.78
100266.17
100103.16
100033.34
100009.1
100002.05
101494.32
101500.43
101493.03
101497.53
101487.27
101487.25
101473.68
101467.82
101450.89
101438.29
101417.19
101397.51
101371.76
101344.83
101313.61
101280.07
101242.98
101202.97
101159.82
101113.73
101064.73
101012.94
100958.48
100901.5
100842.16
100780.64
100717.14
100651.85
100584.98
100516.74
100447.35
100377.02
100305.95
100234.38
100162.52
100090.59
100018.79
99947.313
99876.345
99806.027
99736.471
99667.741
99599.848
99532.74
99466.29
99400.287
99334.438
99268.385
99201.777
99134.386
99066.289
98998.097
98931.142
98867.516
98809.863
98760.886
98722.478
98694.018
98669.264
98631.011
98546.786
98374.87
98092.214
97738.594
97423.162
97251.327
97274.615
97537.516
98152.311
99151.376
100283.35
101086.97
101282.26
101005.18
100593.74
100278.63
100107.09
100034.33
100009.29
100002.08
100670.33
100680.92
100680.05
100689.89
100684.93
100693.11
100686.18
100690.64
100682.28
100682.02
100671.69
100666.05
100653.3
100641.58
100625.32
100608.31
100588.2
100565.91
100540.88
100513.35
100483.19
100450.46
100415.18
100377.4
100337.2
100294.67
100249.91
100203.04
100154.2
100103.53
100051.2
99997.373
99942.234
99885.975
99828.793
99770.878
99712.414
99653.569
99594.492
99535.306
99476.102
99416.932
99357.808
99298.696
99239.512
99180.135
99120.427
99060.287
98999.739
98939.048
98878.87
98820.363
98765.208
98715.425
98672.939
98638.839
98612.15
98587.74
98553.206
98485.351
98351.41
98123.125
97807.504
97474.731
97237.613
97174.18
97290.653
97617.683
98270.227
99293.627
100436.29
101227.09
101386.17
101066.25
100622.18
100289.24
100110.21
100035.02
100009.4
100002.08
99962.502
99974.608
99976.437
99989.919
99987.907
100001.32
99997.499
100008.89
100004.48
100012.34
100007.48
100010.72
100005.51
100004.39
99997.681
99991.413
99982.299
99971.913
99959.231
99944.62
99927.876
99909.008
99887.985
99864.79
99839.424
99811.901
99782.251
99750.519
99716.769
99681.081
99643.554
99604.305
99563.463
99521.167
99477.56
99432.782
99386.97
99340.252
99292.742
99244.543
99195.739
99146.393
99096.55
99046.238
98995.476
98944.3
98892.799
98841.176
98789.821
98739.393
98690.875
98645.552
98604.853
98569.984
98541.32
98517.466
98493.86
98460.83
98401.246
98290.539
98103.648
97833.29
97515.608
97238.172
97097.097
97138.974
97339.78
97717.697
98400.188
99443.421
100592.37
101365.76
101485.46
101122.28
100647.05
100297.9
100112.45
100035.41
100009.43
100002.07
99330.243
99343.374
99345.593
99361.535
99360.848
99378.362
99376.075
99392.358
99389.496
99403.079
99400.923
99410.85
99409.513
99415.606
99415.284
99416.394
99414.368
99412.061
99407.937
99402.531
99395.542
99386.937
99376.645
99364.598
99350.755
99335.08
99317.554
99298.171
99276.943
99253.898
99229.083
99202.559
99174.397
99144.678
99113.487
99080.915
99047.052
99011.992
98975.831
98938.666
98900.592
98861.707
98822.114
98781.93
98741.303
98700.438
98659.636
98619.326
98580.109
98542.76
98508.181
98477.246
98450.509
98427.711
98407.085
98384.384
98351.631
98295.909
98198.728
98040.295
97810.048
97523.798
97238.917
97043.559
97011.226
97148.598
97417.414
97834.092
98540.046
99599.539
100751.02
101502.41
101579.43
101173.1
100668.22
100304.43
100113.78
100035.53
100009.39
100002.05
98746.983
98761.187
98764.214
98780.805
98780.003
98799.609
98796.816
98817.681
98815.898
98835.067
98834.714
98849.77
98850.722
98861.342
98863.843
98870.815
98874.328
98878.377
98880.89
98882.57
98883.101
98882.438
98880.513
98877.252
98872.597
98866.497
98858.908
98849.797
98839.144
98826.942
98813.195
98797.918
98781.137
98762.883
98743.2
98722.138
98699.76
98676.144
98651.38
98625.571
98598.836
98571.31
98543.152
98514.558
98485.771
98457.101