/*--------------------------------*- C++ -*----------------------------------*\
  =========                 |
  \\      /  F ield         | OpenFOAM: The Open Source CFD Toolbox
   \\    /   O peration     | Website:  https://openfoam.org
    \\  /    A nd           | Version:  12
     \\/     M anipulation  |
\*---------------------------------------------------------------------------*/
FoamFile
{
    format      ascii;
    class       surfaceScalarField;
    location    "0.004";
    object      phi;
}
// * * * * * * * * * * * * * * * * * * * * * * * * * * * * * * * * * * * * * //

dimensions      [1 0 -1 0 0 0 0];

internalField   nonuniform List<scalar> 
31760
(
-0.00071896524
-0.051211687
0.052004346
-0.0016435739
-0.063383326
0.064380343
-0.0025854763
-0.062368082
0.063387171
-0.003576114
-0.067674817
0.068745663
-0.0046295494
-0.069450965
0.07058863
-0.0057018898
-0.073602068
0.074762907
-0.0068511467
-0.07650943
0.077751318
-0.0080315251
-0.080439657
0.081717622
-0.0092739732
-0.084022111
0.085366889
-0.010575522
-0.088077184
0.089486467
-0.011929478
-0.092155251
0.093622643
-0.013350717
-0.096510617
0.098051316
-0.014833981
-0.10103012
0.10263908
-0.016387427
-0.1057755
0.10746117
-0.018010382
-0.1107345
0.11249642
-0.01970729
-0.11592282
0.11776572
-0.02148046
-0.12134752
0.12327397
-0.023332791
-0.12701913
0.12903239
-0.025267325
-0.13294799
0.13505151
-0.02728738
-0.13914502
0.14134258
-0.029396447
-0.14562247
0.14791808
-0.031598416
-0.15239245
0.15479058
-0.03389705
-0.15946879
0.16197378
-0.036296378
-0.16686544
0.16948192
-0.038799423
-0.17459704
0.17732866
-0.041410666
-0.18267765
0.18552953
-0.044133781
-0.19112317
0.19409964
-0.046971865
-0.19994972
0.20305459
-0.049928036
-0.20917369
0.2124108
-0.053005969
-0.21881267
0.22218648
-0.05620866
-0.22888519
0.23239957
-0.059539144
-0.23941067
0.24306963
-0.062999862
-0.25041012
0.25421713
-0.066593317
-0.26190404
0.26586271
-0.070320774
-0.27391585
0.27802862
-0.074183039
-0.28646921
0.29073813
-0.078180523
-0.29958928
0.30401611
-0.082312724
-0.31330316
0.31788886
-0.086578336
-0.3276381
0.33238301
-0.090974697
-0.34262482
0.34752801
-0.095498147
-0.35829425
0.36335396
-0.10014326
-0.37467914
0.37989198
-0.10490311
-0.39181409
0.39717541
-0.10976944
-0.40973536
0.4152394
-0.11473198
-0.4284822
0.43412148
-0.11977879
-0.44809575
0.4538614
-0.12489486
-0.46862034
0.47450073
-0.13006286
-0.4901009
0.49608253
-0.13526209
-0.51258565
0.51865217
-0.14046846
-0.53612463
0.54225691
-0.1456545
-0.56077061
0.5669469
-0.1507897
-0.58657999
0.59277621
-0.15583894
-0.61361204
0.61980044
-0.1607623
-0.64192988
0.64807909
-0.16551463
-0.67159981
0.67767469
-0.17004328
-0.70269272
0.70865236
-0.17428893
-0.73528317
0.7410821
-0.17818389
-0.76945035
0.77503768
-0.18164978
-0.80527772
0.81059668
-0.18459721
-0.84285522
0.84784431
-0.18692457
-0.88228338
0.88687126
-0.18852901
-0.92367025
0.92777181
-0.18931934
-0.96712789
0.9706444
-0.18918213
-1.0127698
1.0156029
-0.18779881
-1.0607212
1.0627894
-0.18440599
-1.1112089
1.112438
-0.17789975
-1.1646832
1.1649437
-0.16832497
-1.2216752
1.2208296
-0.15833654
-1.2821845
1.2801938
-0.15342777
-1.3449542
1.3417593
-0.15597737
-1.4083246
1.4035933
-0.16092592
-1.4727114
1.4658876
-0.16151528
-1.540409
1.5309466
-0.15500027
-1.6130885
1.600698
-0.1421076
-1.6909804
1.6755161
-0.12427352
-1.7736853
1.7549795
-0.10227257
-1.8609254
1.8386875
-0.076162574
-1.9526948
1.9265318
-0.045632231
-2.0491544
2.0186142
-2.1505366
2.1151062
-0.00069459841
-0.050448274
-0.0015171704
-0.062493039
-0.0023832318
-0.061429724
-0.0033007252
-0.066682195
-0.0042433358
-0.068429434
-0.0052528872
-0.072509287
-0.0062859042
-0.075389592
-0.00739404
-0.079241387
-0.0085284677
-0.082791798
-0.0097340363
-0.08677059
-0.010982896
-0.090800056
-0.012299194
-0.095082297
-0.013672996
-0.099538384
-0.015113343
-0.10421102
-0.016620128
-0.10909715
-0.018197185
-0.1142085
-0.019846332
-0.11955413
-0.021570962
-0.12514297
-0.023374013
-0.13098576
-0.02525888
-0.13709288
-0.027229173
-0.14347634
-0.029288196
-0.1501485
-0.031440164
-0.15712223
-0.033688871
-0.16441187
-0.036039152
-0.172031
-0.038493768
-0.17999573
-0.04105721
-0.18832022
-0.043732899
-0.19702164
-0.046524727
-0.20611588
-0.049435876
-0.21562117
-0.05247006
-0.22555544
-0.055630263
-0.23593877
-0.058919378
-0.24679214
-0.06233984
-0.25813647
-0.065893362
-0.2699958
-0.069581437
-0.28239395
-0.07340434
-0.29535718
-0.077362589
-0.30891221
-0.081454419
-0.32308845
-0.0856781
-0.33791642
-0.090030461
-0.35342838
-0.094506506
-0.36965869
-0.099099613
-0.38664337
-0.10380217
-0.40441943
-0.10860447
-0.4230279
-0.11349517
-0.44251128
-0.11846081
-0.46291563
-0.12348476
-0.48428861
-0.12854793
-0.50668039
-0.13362798
-0.5301436
-0.13869889
-0.55473402
-0.14373124
-0.58051062
-0.14869188
-0.60753548
-0.15354355
-0.63587461
-0.15824366
-0.66559822
-0.16274345
-0.69678157
-0.16698748
-0.7295038
-0.17091149
-0.76384977
-0.17444046
-0.79990881
-0.17748902
-0.83777549
-0.17996466
-0.87755731
-0.18178171
-0.91937062
-0.18286744
-0.96333515
-0.18309843
-1.0095695
-0.18208787
-1.0582133
-0.17898603
-1.1095159
-0.17275492
-1.163946
-0.1637528
-1.2219478
-0.15506719
-1.2834471
-0.15256521
-1.3472069
-0.15779929
-1.4118772
-0.16477439
-1.4782306
-0.16670936
-1.5484152
-0.16147638
-1.6238042
-0.1502206
-1.7044872
-0.13448274
-1.790136
-0.11500614
-1.8805841
-0.091819771
-1.9759195
-0.06462193
-2.0763589
-2.182195
-0.0006286756
-0.049755175
-0.0013924654
-0.061665769
-0.0021783379
-0.060575973
-0.0030244207
-0.065765559
-0.0038790604
-0.067500654
-0.0048180975
-0.07149324
-0.0057576796
-0.074368464
-0.0067787862
-0.07813452
-0.0078216395
-0.081658888
-0.0089376123
-0.085559544
-0.010094555
-0.089543163
-0.011315063
-0.09375648
-0.012590039
-0.098152509
-0.0139278
-0.10275647
-0.015328799
-0.10757323
-0.016796356
-0.11261161
-0.018333471
-0.11788101
-0.019942714
-0.12339073
-0.021628004
-0.12915016
-0.023391898
-0.13517096
-0.025238711
-0.14146334
-0.027171911
-0.14804045
-0.02919541
-0.15491467
-0.031314046
-0.16209937
-0.033531152
-0.16960962
-0.03585189
-0.17745964
-0.038279577
-0.18566545
-0.040818988
-0.19424274
-0.043473309
-0.20320894
-0.046247238
-0.21258075
-0.049143449
-0.22237805
-0.052165805
-0.23261963
-0.055317602
-0.24332696
-0.058600924
-0.25452209
-0.062018604
-0.26622822
-0.065571955
-0.27847061
-0.069262251
-0.29127543
-0.07308895
-0.30467109
-0.077051833
-0.31868655
-0.08114898
-0.3333539
-0.085377015
-0.34870667
-0.089731965
-0.36477962
-0.094208242
-0.38161015
-0.098797802
-0.39923747
-0.10349179
-0.41770317
-0.10827923
-0.43705152
-0.1131476
-0.45732971
-0.11808127
-0.47858806
-0.12306325
-0.50087755
-0.12807249
-0.52425429
-0.13308419
-0.54877711
-0.13807126
-0.57450641
-0.14300204
-0.60150786
-0.14784128
-0.62984981
-0.15254908
-0.65960564
-0.15708019
-0.69085423
-0.16138356
-0.7236783
-0.16539844
-0.75816901
-0.16905445
-0.7944204
-0.17226946
-0.8325343
-0.17496005
-0.87262198
-0.177053
-0.91480631
-0.17848268
-0.95921124
-0.17910224
-1.005963
-0.17846525
-1.0552176
-0.17567424
-1.1072485
-0.1698307
-1.1625191
-0.16163764
-1.2213967
-0.15475055
-1.2837574
-0.15524968
-1.3484009
-0.16339643
-1.4142885
-0.17221465
-1.4824636
-0.17527299
-1.5549262
-0.17125092
-1.6327519
-0.16168534
-1.7159362
-0.14815443
-1.8042253
-0.13131632
-1.8975566
-0.111164
-1.9960984
-0.087397523
-2.1001297
-2.2099785
-0.0005693856
-0.0491254
-0.0012770369
-0.060898537
-0.0019920548
-0.059797166
-0.0027738599
-0.064917441
-0.0035537664
-0.066650977
-0.0044213679
-0.070552544
-0.0052877854
-0.073425334
-0.0062315222
-0.077110288
-0.007198643
-0.080606858
-0.008236866
-0.084431801
-0.0093095512
-0.088376384
-0.010442459
-0.092524403
-0.011627487
-0.096862993
-0.012872018
-0.10140184
-0.01417757
-0.1061517
-0.015547662
-0.1111194
-0.016985291
-0.11631485
-0.018493478
-0.1217473
-0.020075365
-0.127426
-0.021735
-0.13336166
-0.02347537
-0.1395655
-0.025301417
-0.14604865
-0.027217048
-0.15282448
-0.029226294
-0.15990617
-0.031334349
-0.16730761
-0.033545157
-0.17504424
-0.035863633
-0.18313108
-0.03829387
-0.19158462
-0.040840934
-0.20042131
-0.043507734
-0.20965995
-0.046298859
-0.21931868
-0.049218098
-0.22941702
-0.052268515
-0.23997707
-0.055453273
-0.25102068
-0.058774964
-0.26257154
-0.062235126
-0.27465585
-0.06583494
-0.28730003
-0.069575138
-0.30053281
-0.073454722
-0.31438477
-0.077472207
-0.3288883
-0.081625288
-0.34407759
-0.085909417
-0.3599894
-0.090319586
-0.37666138
-0.094848824
-0.39413445
-0.099488226
-0.41245184
-0.10422803
-0.43165833
-0.10905506
-0.45180407
-0.11395653
-0.47293851
-0.11891538
-0.49511638
-0.12391288
-0.51839488
-0.12892704
-0.54283542
-0.13393151
-0.56850184
-0.1388972
-0.59546147
-0.14379127
-0.62378515
-0.14857524
-0.65355044
-0.15320789
-0.68483721
-0.1576413
-0.71773251
-0.16182027
-0.75233104
-0.16567832
-0.78873325
-0.16913915
-0.82704751
-0.17212795
-0.86738883
-0.17458312
-0.90988446
-0.17643821
-0.95466305
-0.17751095
-1.001859
-0.17728441
-1.0516461
-0.17482222
-1.1043119
-0.16942085
-1.160309
-0.16224701
-1.2199347
-0.15770548
-1.2830235
-0.16172849
-1.3484301
-0.17288056
-1.4154258
-0.18334667
-1.4852904
-0.18739688
-1.5598115
-0.18460643
-1.6398068
-0.17685944
-1.7251976
-0.16568872
-1.8158167
-0.15163053
-1.9117098
-0.1346434
-2.0131032
-0.11444197
-2.1203339
-2.233766
-0.00050612092
-0.048562559
-0.0011682121
-0.060180424
-0.0018132939
-0.059092025
-0.0025362698
-0.064132091
-0.0032487945
-0.065872729
-0.0040635363
-0.069669005
-0.0048657486
-0.072550789
-0.0057561185
-0.076144005
-0.0066525588
-0.079630424
-0.0076145611
-0.083385511
-0.0086106075
-0.087291558
-0.0096642964
-0.091377119
-0.010769512
-0.09565912
-0.011932445
-0.10013489
-0.013155381
-0.10481913
-0.014441243
-0.10971801
-0.015793578
-0.11484083
-0.017215884
-0.12019686
-0.018711583
-0.1257954
-0.020284437
-0.1316468
-0.021938937
-0.13776149
-0.023678299
-0.14415183
-0.025507945
-0.15082892
-0.027432435
-0.15780677
-0.029456284
-0.16509924
-0.031584707
-0.17272105
-0.033822767
-0.18068736
-0.036175141
-0.18901501
-0.038646363
-0.19772058
-0.041241124
-0.20682266
-0.043963693
-0.21633977
-0.046817862
-0.2262918
-0.049807241
-0.23670097
-0.052935361
-0.24758911
-0.056204504
-0.25898106
-0.059616776
-0.27090306
-0.063173581
-0.28338215
-0.066875562
-0.29644769
-0.070722036
-0.31013143
-0.074711775
-0.32446617
-0.07884197
-0.33948745
-0.083109491
-0.35523216
-0.087508836
-0.37174006
-0.092033696
-0.38905263
-0.09667656
-0.40721399
-0.10142706
-0.42627141
-0.10627421
-0.44627518
-0.11120476
-0.46727652
-0.11620348
-0.48933163
-0.12125375
-0.51249854
-0.12633498
-0.53684187
-0.13142413
-0.56242697
-0.13649405
-0.58932411
-0.14151386
-0.61760659
-0.14644901
-0.64735423
-0.15125981
-0.67865026
-0.15590146
-0.71158412
-0.16032367
-0.74625194
-0.16446458
-0.78276093
-0.16825544
-0.82122483
-0.17163079
-0.86176349
-0.17453915
-0.90450668
-0.17690616
-0.94958789
-0.17849945
-0.99714904
-0.17872147
-1.0473827
-0.17661012
-1.1005929
-0.17179936
-1.1571968
-0.16602354
-1.217473
-0.16451616
-1.2811376
-0.17250072
-1.3471603
-0.1866063
-1.4151711
-0.19844617
-1.4865717
-0.20337849
-1.5629301
-0.20191016
-1.6448131
-0.19615432
-1.7321146
-0.1875152
-1.824757
-0.17641115
-1.9228775
-0.16275272
-2.0267727
-0.14627787
-2.1368103
-2.2533919
-0.00044625481
-0.048062973
-0.0010682605
-0.059505698
-0.0016520839
-0.058451582
-0.0023288959
-0.063396596
-0.0029831823
-0.06515645
-0.0037529297
-0.068834324
-0.0044938081
-0.071741604
-0.0053285473
-0.075237392
-0.006159953
-0.07872343
-0.007058376
-0.082407484
-0.0079914455
-0.086274603
-0.0089793692
-0.090300737
-0.010018671
-0.094526541
-0.011114234
-0.098940939
-0.012269013
-0.10356059
-0.013486811
-0.1083908
-0.014771016
-0.11344129
-0.016125274
-0.11872106
-0.017553806
-0.12423882
-0.019060301
-0.1300054
-0.020649559
-0.13603012
-0.022326138
-0.14232549
-0.024094982
-0.1489022
-0.025961042
-0.15577417
-0.027929797
-0.16295472
-0.030006895
-0.17045833
-0.032196867
-0.17830127
-0.034505675
-0.1864989
-0.036938174
-0.1950689
-0.039499155
-0.20402987
-0.042193492
-0.21340019
-0.04502495
-0.2232008
-0.047998008
-0.23345311
-0.05111502
-0.24418097
-0.054379461
-0.25540801
-0.057793568
-0.26716157
-0.061358332
-0.27946983
-0.065074359
-0.29236241
-0.068941637
-0.30587154
-0.072958529
-0.32003145
-0.07712306
-0.33487782
-0.081431206
-0.35044937
-0.08587892
-0.36678563
-0.090460291
-0.38392967
-0.095167216
-0.40192748
-0.09999117
-0.42082635
-0.10492253
-0.44067719
-0.10994807
-0.46153432
-0.11505496
-0.48345305
-0.12022652
-0.50649467
-0.12544606
-0.53072297
-0.13069221
-0.55620697
-0.13594089
-0.58301845
-0.14116433
-0.61123317
-0.14633062
-0.64093369
-0.15140312
-0.67220605
-0.15634058
-0.70514116
-0.16109411
-0.73983814
-0.16560811
-0.77640659
-0.16982205
-0.81496633
-0.17368331
-0.85564071
-0.17714729
-0.8985636
-0.18012097
-0.94387218
-0.18229912
-0.99171796
-0.18300049
-1.04231
-0.18129614
-1.0959688
-0.17730381
-1.1530703
-0.17338879
-1.2138736
-0.17571646
-1.2780137
-0.18807609
-1.3444715
-0.20487683
-1.4133802
-0.21777793
-1.4861603
-0.22355827
-1.5641132
-0.22357218
-1.6475912
-0.22002833
-1.7365007
-0.21413599
-1.8308524
-0.20617656
-1.9308769
-0.19604499
-2.0369107
-0.18349544
-2.1493608
-2.26866
-0.00039391723
-0.047618878
-0.00098521552
-0.058864764
-0.0015158478
-0.057867554
-0.0021710177
-0.062686244
-0.0027783787
-0.064490605
-0.0035035619
-0.068047892
-0.0041873218
-0.070993328
-0.004966309
-0.074390573
-0.0057467433
-0.077871588
-0.0065929073
-0.081486059
-0.0074749698
-0.085313238
-0.0084094517
-0.0892826
-0.0093959518
-0.093451793
-0.010438469
-0.097805295
-0.011541042
-0.10235975
-0.012707001
-0.10712115
-0.013940988
-0.11209794
-0.015246807
-0.11729989
-0.016628921
-0.1227351
-0.018092341
-0.12841377
-0.019641313
-0.13434599
-0.021281678
-0.14054261
-0.023018351
-0.1470152
-0.024856758
-0.15377712
-0.026803002
-0.16084094
-0.028862478
-0.16822185
-0.031041758
-0.17593486
-0.033346023
-0.18399672
-0.035780503
-0.192425
-0.038351142
-0.20123756
-0.041062164
-0.21045445
-0.043918231
-0.22009609
-0.046923005
-0.23018481
-0.050080511
-0.24074399
-0.053392686
-0.25179923
-0.056861985
-0.26337726
-0.060490182
-0.2755068
-0.064277474
-0.28821891
-0.068223325
-0.30154641
-0.072326568
-0.31552398
-0.076585196
-0.33018792
-0.080995799
-0.34557811
-0.085554376
-0.36173441
-0.090254993
-0.37870155
-0.095091578
-0.39652531
-0.1000561
-0.41525451
-0.10513914
-0.43494098
-0.11033057
-0.45563923
-0.11561716
-0.47740721
-0.12098563
-0.50030554
-0.12641959
-0.52440027
-0.1319012
-0.54976072
-0.13740975
-0.57646041
-0.14292044
-0.604578
-0.14840542
-0.63419768
-0.1538311
-0.66540889
-0.1591584
-0.69830425
-0.16434111
-0.73298513
-0.16932818
-0.76956284
-0.17407091
-0.8081598
-0.17852976
-0.84890453
-0.1826636
-0.89193363
-0.1863424
-0.9373904
-0.18916489
-0.98543843
-0.19037839
-1.0362987
-0.18919942
-1.0903047
-0.18638748
-1.1477843
-0.18517342
-1.2089534
-0.19217815
-1.2733921
-0.2089135
-1.3402008
-0.22796004
-1.4098932
-0.24163903
-1.4838795
-0.24832062
-1.5631639
-0.25006133
-1.6479282
-0.24899933
-1.7381372
-0.24609132
-1.8338883
-0.24151285
-1.9354785
-0.23513622
-2.0432908
-0.22674092
-2.1577565
-2.2793349
-0.00034307781
-0.047228567
-0.00091035707
-0.058250739
-0.0013909942
-0.057336546
-0.0020384883
-0.061986708
-0.0026011806
-0.063872705
-0.0032904411
-0.067300787
-0.0039274223
-0.070295403
-0.0046658774
-0.073588014
-0.0054064213
-0.077063545
-0.0062095769
-0.080611754
-0.0070524183
-0.084395394
-0.0079467844
-0.088309092
-0.0088952751
-0.092419784
-0.0099012417
-0.096711155
-0.010969139
-0.10119877
-0.012103406
-0.10588861
-0.013307838
-0.11078978
-0.01458812
-0.11591014
-0.015948762
-0.12125895
-0.01739505
-0.12684563
-0.018932419
-0.13268007
-0.020566461
-0.13877293
-0.022303093
-0.14513542
-0.024149167
-0.15177989
-0.026109822
-0.1587206
-0.028192162
-0.1659707
-0.030401938
-0.17354652
-0.032745501
-0.18146418
-0.035228768
-0.18974163
-0.037857071
-0.19839727
-0.040635259
-0.20745158
-0.043568038
-0.21692505
-0.046659397
-0.22684065
-0.049912187
-0.23722279
-0.053329374
-0.24809685
-0.056913118
-0.25949023
-0.060664152
-0.27143295
-0.064583124
-0.28395604
-0.068669619
-0.2970932
-0.072922326
-0.3108798
-0.07733906
-0.32535279
-0.081917564
-0.34055189
-0.086653247
-0.35651903
-0.091541667
-0.37329848
-0.096577118
-0.39093691
-0.10175273
-0.40948387
-0.10706089
-0.42899146
-0.11249258
-0.44951513
-0.118037
-0.47111402
-0.123682
-0.49384937
-0.12941418
-0.51778747
-0.13521759
-0.54299907
-0.14107473
-0.56955816
-0.14696479
-0.59754563
-0.15286367
-0.62704722
-0.15874186
-0.65815474
-0.1645624
-0.69096385
-0.17028247
-0.72557745
-0.17585709
-0.76210857
-0.18124916
-0.80068126
-0.18643376
-0.84142634
-0.19136076
-0.88448432
-0.19584034
-0.93000547
-0.19936126
-0.97816762
-0.20113191
-1.0292049
-0.20072304
-1.0834428
-0.19955374
-1.141191
-0.20201417
-1.2026055
-0.21446472
-1.2670817
-0.23539403
-1.3341611
-0.25609775
-1.4045328
-0.27035711
-1.4795179
-0.27812215
-1.5598421
-0.28190863
-1.6455851
-0.28363285
-1.7367771
-0.28398729
-1.8336079
-0.28305047
-1.9364276
-0.28069138
-2.0456515
-0.27672581
-2.1617222
-2.2851366
-0.00029638132
-0.046887733
-0.00084859878
-0.057654509
-0.0012848189
-0.05685283
-0.0019227475
-0.061299559
-0.0024433624
-0.06329997
-0.0031056835
-0.066583855
-0.003714275
-0.069629246
-0.0044224012
-0.072819318
-0.0051380605
-0.076284091
-0.0059129036
-0.079769643
-0.0067326334
-0.083504732
-0.0076041288
-0.087362728
-0.0085325252
-0.091412353
-0.00952118
-0.095639025
-0.010575193
-0.1000566
-0.011699286
-0.10467139
-0.01289895
-0.10949176
-0.014179338
-0.11452588
-0.015546129
-0.1197825
-0.017005681
-0.12527031
-0.018563596
-0.13099994
-0.020226905
-0.13698059
-0.022001505
-0.14322455
-0.023894288
-0.14974314
-0.025912337
-0.15655038
-0.028061943
-0.16366014
-0.030350099
-0.17108803
-0.032783076
-0.1788508
-0.035366621
-0.18696691
-0.038106697
-0.1954545
-0.041008378
-0.20433484
-0.044075601
-0.21362952
-0.047312007
-0.2233617
-0.05072107
-0.23355588
-0.054305085
-0.24423848
-0.058065362
-0.25543778
-0.062003219
-0.26718366
-0.066118841
-0.27950813
-0.070411468
-0.29244563
-0.07488024
-0.30603144
-0.079523076
-0.32030349
-0.084337346
-0.3353018
-0.089320152
-0.3510683
-0.094467855
-0.36764767
-0.099775443
-0.38508757
-0.1052378
-0.40343722
-0.11084871
-0.42274933
-0.11660113
-0.44307967
-0.12248672
-0.46448807
-0.12849511
-0.48703695
-0.13461527
-0.51079217
-0.14083445
-0.53582513
-0.147138
-0.56221076
-0.15350943
-0.5900306
-0.15992784
-0.6193726
-0.16636714
-0.65032972
-0.17279392
-0.68300029
-0.1791714
-0.71748833
-0.18546333
-0.75391051
-0.19164559
-0.7923918
-0.19770104
-0.83306324
-0.20354993
-0.87606897
-0.20891345
-0.92156668
-0.21318295
-0.96974707
-0.2155967
-1.0208614
-0.21636636
-1.0751933
-0.2175869
-1.1330734
-0.22489108
-1.1945311
-0.24321937
-1.2589441
-0.26777508
-1.326166
-0.28952628
-1.3970776
-0.30431681
-1.4728247
-0.31348748
-1.5538709
-0.31971946
-1.6402787
-0.32456918
-1.7321392
-0.32848859
-1.8297276
-0.33148981
-1.9334322
-0.3334594
-2.0436826
-0.33422929
-2.1609524
-2.2857384
-0.00026002104
-0.046585892
-0.000809538
-0.057063569
-0.0012159703
-0.056401627
-0.0018315697
-0.060637594
-0.0023223542
-0.062760028
-0.0029702549
-0.065884425
-0.0035647885
-0.068980371
-0.0042555895
-0.072071317
-0.0049620079
-0.075517405
-0.0057237848
-0.078944297
-0.0065365705
-0.082624892
-0.0074030203
-0.08642548
-0.0083305127
-0.090410095
-0.0093228836
-0.094567659
-0.010385891
-0.09891012
-0.011525186
-0.10344388
-0.01274684
-0.10817689
-0.014057262
-0.11311696
-0.015462894
-0.1182728
-0.016970005
-0.12365326
-0.018586678
-0.12926714
-0.020318807
-0.13512577
-0.022174618
-0.1412391
-0.024160763
-0.14761996
-0.026284416
-0.15428179
-0.028552997
-0.16123818
-0.030973215
-0.16850538
-0.033551302
-0.17610057
-0.036293815
-0.18404183
-0.039205795
-0.19234874
-0.042291756
-0.20104306
-0.045556133
-0.21014637
-0.04900204
-0.21968308
-0.052632267
-0.22967788
-0.056448624
-0.24015809
-0.06045237
-0.25115241
-0.064644093
-0.26269123
-0.069023741
-0.27480706
-0.07359118
-0.28753421
-0.078345096
-0.30090892
-0.083284214
-0.31496883
-0.088406869
-0.3297541
-0.093710767
-0.34530702
-0.099192772
-0.36167276
-0.10485015
-0.37889818
-0.11067942
-0.39703277
-0.11667612
-0.41612975
-0.12283557
-0.43624458
-0.12915185
-0.45743761
-0.13561783
-0.47977157
-0.14222434
-0.50331329
-0.1489623
-0.52813298
-0.15582022
-0.55430711
-0.16278491
-0.58191743
-0.16983928
-0.6110528
-0.17696009
-0.64180762
-0.18411924
-0.67428121
-0.19128744
-0.70858032
-0.19844362
-0.74482321
-0.20557662
-0.7831375
-0.21266044
-0.8236556
-0.21955794
-0.86652243
-0.22587107
-0.9119044
-0.23094437
-0.95999787
-0.23420513
-1.0110635
-0.2366504
-1.065381
-0.2414383
-1.1232585
-0.25490807
-1.1845049
-0.278932
-1.2487339
-0.30621103
-1.3159834
-0.32851336
-1.3872687
-0.34398906
-1.4635048
-0.35502152
-1.5449527
-0.36414775
-1.6316966
-0.37249171
-1.7239068
-0.38031105
-1.8219266
-0.38759178
-1.9261539
-0.39423117
-2.0370435
-0.40010518
-2.1550784
-2.2807742
-0.00022891243
-0.046317663
-0.00078517629
-0.056468343
-0.0011742092
-0.055970426
-0.0017805286
-0.059987593
-0.0022563743
-0.062237835
-0.0028984037
-0.065193797
-0.0034916597
-0.068335844
-0.0041762675
-0.071332717
-0.0048880106
-0.074748756
-0.0056526513
-0.078119614
-0.00647562
-0.081738569
-0.0073568365
-0.085477352
-0.0083051144
-0.089391134
-0.0093252412
-0.093472823
-0.010423884
-0.097732508
-0.011607639
-0.10217663
-0.012883481
-0.10681277
-0.014258423
-0.11164869
-0.015740461
-0.1166921
-0.017336977
-0.12195245
-0.01905561
-0.12743826
-0.020904548
-0.13316029
-0.022891167
-0.13912926
-0.025023361
-0.14535743
-0.027309009
-0.15185821
-0.029754686
-0.15864644
-0.032367368
-0.1657379
-0.035153462
-0.1731503
-0.038118777
-0.18090222
-0.041267541
-0.18901479
-0.044605034
-0.19750863
-0.048133898
-0.20640788
-0.051857566
-0.21573607
-0.055777412
-0.22551985
-0.059894754
-0.23578648
-0.064210922
-0.24656452
-0.068726154
-0.25788533
-0.073440204
-0.26978167
-0.078352905
-0.28228761
-0.083464012
-0.2954392
-0.088772777
-0.30927435
-0.094278451
-0.32383296
-0.099979813
-0.33915749
-0.10587613
-0.35529228
-0.11196597
-0.37228445
-0.11824745
-0.39018349
-0.12471941
-0.40904135
-0.13137893
-0.42891468
-0.1382236
-0.44986258
-0.14524907
-0.47194877
-0.15245015
-0.49523983
-0.1598197
-0.5198069
-0.16735052
-0.54572544
-0.17503292
-0.57307773
-0.18285241
-0.60195355
-0.1907897
-0.63244762
-0.1988232
-0.6646603
-0.20693567
-0.69870049
-0.21512269
-0.73468699
-0.22338075
-0.77275039
-0.23165248
-0.81302509
-0.23970993
-0.85565943
-0.24703479
-0.90082424
-0.25299062
-0.94873307
-0.25760584
-0.99959779
-0.26255391
-1.0537318
-0.27222384
-1.1114173
-0.29269503
-1.1723425
-0.32184075
-1.2361972
-0.35078915
-1.3033506
-0.3733885
-1.3748095
-0.38995444
-1.4512105
-0.40342999
-1.5327394
-0.41591951
-1.6194946
-0.42814188
-1.7117363
-0.44024009
-1.8098358
-0.45217549
-1.9142193
-0.46387687
-2.0253422
-0.4752586
-2.1436967
-2.2698171
-0.00020249943
-0.046078238
-0.00077504118
-0.055859191
-0.001155804
-0.055549982
-0.0017721529
-0.05933013
-0.0022483999
-0.061717928
-0.0028941199
-0.064502286
-0.0035010994
-0.067680539
-0.0041930757
-0.070589827
-0.0049270425
-0.073961112
-0.005713843
-0.077276161
-0.0065676585
-0.080824955
-0.0074873036
-0.084494531
-0.0084825473
-0.088329135
-0.0095593636
-0.092325425
-0.010725371
-0.096491867
-0.011988248
-0.10083481
-0.01335614
-0.10536137
-0.014837451
-0.11007905
-0.016440279
-0.11499585
-0.018173889
-0.12012002
-0.020046323
-0.12546131
-0.022066368
-0.13102968
-0.024241913
-0.13683673
-0.026581064
-0.14289446
-0.029091321
-0.14921683
-0.031779721
-0.15581907
-0.034652255
-0.16271796
-0.037715016
-0.16993104
-0.040972418
-0.1774785
-0.044429353
-0.18538092
-0.0480885
-0.19366104
-0.051952785
-0.20234269
-0.056024227
-0.21145019
-0.060304031
-0.22101092
-0.064793186
-0.23105223
-0.069492343
-0.24160289
-0.074401517
-0.25269473
-0.079521367
-0.2643597
-0.08485192
-0.27663225
-0.090393794
-0.28954761
-0.096147527
-0.30314352
-0.10211382
-0.31745944
-0.10829379
-0.33253713
-0.11468818
-0.3484209
-0.12129783
-0.36515735
-0.12812407
-0.38279496
-0.13516754
-0.40138582
-0.14242904
-0.42098581
-0.14990856
-0.44165406
-0.15760562
-0.46345381
-0.16551831
-0.48645199
-0.17364427
-0.51071907
-0.18197897
-0.5363313
-0.19051589
-0.56337038
-0.19924363
-0.59192661
-0.2081486
-0.62209383
-0.21721832
-0.65397489
-0.2264512
-0.68767909
-0.23585559
-0.72332555
-0.24542212
-0.76104394
-0.25502926
-0.80097498
-0.26433074
-0.84327276
-0.27275574
-0.88810453
-0.2798163
-0.93567623
-0.28628138
-0.98625367
-0.29496323
-1.0401201
-0.31134217
-1.0973063
-0.33885591
-1.1577165
-0.37191837
-1.2210516
-0.40161897
-1.2879643
-0.42461378
-1.3593396
-0.44289621
-1.4355866
-0.45945769
-1.5168533
-0.47579567
-1.6032901
-0.49232282
-1.6952297
-0.50910496
-1.7930561
-0.52611825
-1.8972063
-0.54332498
-2.0081355
-0.56067166
-2.12635
-2.2523911
-0.00018089274
-0.045862697
-0.00078164696
-0.055224068
-0.0011640465
-0.055130276
-0.0017985568
-0.05865696
-0.0022900001
-0.061185389
-0.0029516673
-0.063797518
-0.0035904387
-0.066996269
-0.0043075411
-0.06982477
-0.0050837924
-0.073134286
-0.0059167062
-0.076389854
-0.0068265581
-0.079858729
-0.0078128705
-0.083448647
-0.0088860497
-0.087192993
-0.010053677
-0.091091206
-0.011324622
-0.095150487
-0.012707912
-0.099376989
-0.014212897
-0.10377753
-0.015849141
-0.10835934
-0.017626251
-0.11313042
-0.019553368
-0.11809943
-0.021639982
-0.12327576
-0.02389468
-0.12867026
-0.026325562
-0.13429496
-0.028940657
-0.1401619
-0.03174658
-0.14628639
-0.034749462
-0.1526841
-0.03795536
-0.15937181
-0.041368058
-0.16636926
-0.044991708
-0.1736962
-0.048829191
-0.18137439
-0.052882873
-0.18942701
-0.05715471
-0.19787819
-0.061644942
-0.20675388
-0.066355541
-0.21607963
-0.071286592
-0.22588455
-0.07643856
-0.2361969
-0.081812705
-0.24704754
-0.087409561
-0.25846895
-0.093231371
-0.27049364
-0.099279767
-0.2831572
-0.10555695
-0.29649654
-0.11206569
-0.31055031
-0.11880947
-0.32535919
-0.12579154
-0.34096735
-0.13301569
-0.35742037
-0.14048594
-0.37476594
-0.14820603
-0.39305589
-0.15617982
-0.41234529
-0.16441137
-0.43269235
-0.17290363
-0.45416047
-0.18165917
-0.47681577
-0.19067826
-0.50072969
-0.19996102
-0.52597682
-0.20950345
-0.55264001
-0.21929923
-0.58080798
-0.22934085
-0.61057539
-0.23963154
-0.6420438
-0.25018608
-0.67532452
-0.26101205
-0.71053977
-0.27206519
-0.74781112
-0.28313128
-0.78728745
-0.29374683
-0.82912313
-0.30337468
-0.87349829
-0.31211875
-0.92061099
-0.32160441
-0.97065275
-0.33546421
-1.0240281
-0.35966379
-1.080703
-0.39352358
-1.1403105
-0.42898748
-1.2029829
-0.45893917
-1.269471
-0.48280939
-1.3404584
-0.5036313
-1.4162202
-0.52392084
-1.4968793
-0.54458972
-1.5826736
-0.56586865
-1.6739572
-0.5877881
-1.7711372
-0.6103556
-1.8746388
-0.63355527
-1.9849358
-0.65738014
-2.1025252
-2.2279644
-0.00016650896
-0.045663728
-0.00081014067
-0.054548225
-0.0012008351
-0.054704569
-0.0018662034
-0.057955301
-0.0023897183
-0.060623283
-0.0030827501
-0.063063987
-0.003774838
-0.066261416
-0.0045388965
-0.069015618
-0.0053806121
-0.072244999
-0.0062868648
-0.075433367
-0.0072819627
-0.078810582
-0.0083676682
-0.082306869
-0.0095553355
-0.085946049
-0.01085453
-0.089729307
-0.012275535
-0.093663141
-0.013828998
-0.09775331
-0.015525511
-0.10200669
-0.017375621
-0.10643054
-0.019389627
-0.11103309
-0.021577364
-0.11582345
-0.023947851
-0.12081182
-0.026509809
-0.12600929
-0.029271139
-0.1314287
-0.03223807
-0.1370837
-0.035416814
-0.14298957
-0.038812093
-0.14916341
-0.042427611
-0.15562294
-0.04626663
-0.16238826
-0.050331319
-0.16948015
-0.054623135
-0.17692099
-0.059142986
-0.1847344
-0.063892085
-0.19294412
-0.068870949
-0.20157668
-0.07408027
-0.21065736
-0.079521295
-0.22021457
-0.085195282
-0.23027643
-0.091104096
-0.24087304
-0.097251014
-0.25203524
-0.10363841
-0.26379621
-0.11027103
-0.27618893
-0.11715314
-0.28925052
-0.12429103
-0.30301731
-0.13168972
-0.31753092
-0.13935607
-0.33283323
-0.14729748
-0.34896881
-0.15552032
-0.36598579
-0.16403217
-0.38393415
-0.17284068
-0.40286829
-0.181953
-0.42284619
-0.19137686
-0.44392974
-0.20111829
-0.46618542
-0.21118285
-0.48968328
-0.22157245
-0.51449928
-0.23228786
-0.54071484
-0.24332902
-0.56841756
-0.25469958
-0.59770179
-0.26641752
-0.62866769
-0.278512
-0.66142534
-0.29097161
-0.69610449
-0.3036781
-0.7328181
-0.31629631
-0.77172665
-0.32833939
-0.81298426
-0.33953641
-0.85673228
-0.35056883
-0.90322429
-0.36425243
-0.95270096
-0.38544966
-1.0053744
-0.41767203
-1.0611475
-0.45641509
-1.1197798
-0.49294849
-1.1816331
-0.52317876
-1.2474682
-0.5487787
-1.3177426
-0.57302548
-1.3926653
-0.59765143
-1.4723769
-0.62316166
-1.5571792
-0.64967498
-1.6474452
-0.6772346
-1.7435775
-0.70586735
-1.846006
-0.73560818
-1.955195
-0.76647577
-2.0716576
-2.1959374
-0.00015882547
-0.045474535
-0.00086381124
-0.05381309
-0.001267782
-0.054267796
-0.0019806169
-0.057208447
-0.002557095
-0.060010614
-0.0032985901
-0.062284493
-0.0040663912
-0.065453483
-0.0049015618
-0.06813812
-0.0058338582
-0.071268041
-0.006844463
-0.074375595
-0.0079596055
-0.077645622
-0.0091845916
-0.081029223
-0.010532081
-0.084542884
-0.012013523
-0.088188964
-0.013640827
-0.091973508
-0.015425736
-0.095902415
-0.017379832
-0.099982721
-0.019514119
-0.10422225
-0.021839079
-0.10862972
-0.024364292
-0.11321515
-0.02709851
-0.11798952
-0.03004906
-0.12296534
-0.03322217
-0.12815647
-0.036623271
-0.13357735
-0.040255792
-0.13924519
-0.044122905
-0.14517728
-0.048225793
-0.15139326
-0.052565731
-0.15791306
-0.05714337
-0.164758
-0.061958748
-0.17195096
-0.067012468
-0.17951491
-0.072304711
-0.18747391
-0.077836829
-0.1958532
-0.08361006
-0.20467805
-0.089627054
-0.21397535
-0.095890334
-0.22377319
-0.10240444
-0.23409948
-0.10917364
-0.24498512
-0.11620468
-0.25646059
-0.12350349
-0.26855941
-0.13107881
-0.28131564
-0.13893793
-0.29476672
-0.14709082
-0.30895126
-0.15554758
-0.32391053
-0.16431811
-0.33968878
-0.17341325
-0.3563326
-0.18284402
-0.37389117
-0.19262159
-0.39241809
-0.20275776
-0.41197005