/*--------------------------------*- C++ -*----------------------------------*\
  =========                 |
  \\      /  F ield         | OpenFOAM: The Open Source CFD Toolbox
   \\    /   O peration     | Website:  https://openfoam.org
    \\  /    A nd           | Version:  12
     \\/     M anipulation  |
\*---------------------------------------------------------------------------*/
FoamFile
{
    format      ascii;
    class       volScalarField;
    location    "0.004";
    object      rho;
}
// * * * * * * * * * * * * * * * * * * * * * * * * * * * * * * * * * * * * * //

dimensions      [1 -3 0 0 0 0 0];

internalField   nonuniform List<scalar> 
16000
(
1.0499144
1.0781698
1.0672255
1.0744481
1.0710766
1.0742379
1.0733509
1.0750643
1.0752624
1.0764385
1.0770991
1.0781331
1.0790379
1.0800672
1.0810969
1.0821784
1.0832898
1.0844382
1.0856219
1.0868429
1.0881025
1.0894026
1.0907445
1.0921291
1.0935567
1.0950267
1.0965382
1.0980897
1.0996797
1.1013067
1.1029695
1.1046665
1.1063957
1.1081551
1.109942
1.1117541
1.1135888
1.1154437
1.1173163
1.1192039
1.121104
1.1230141
1.124932
1.1268558
1.1287843
1.1307166
1.1326522
1.134591
1.1365334
1.1384811
1.1404365
1.1424025
1.1443832
1.1463837
1.1484103
1.1504708
1.1525742
1.1547317
1.1569579
1.159273
1.1617026
1.1642617
1.1669306
1.1696685
1.1725556
1.1760517
1.1810514
1.1880329
1.1955276
1.1996062
1.1963369
1.1872031
1.1776102
1.1711756
1.1680325
1.1668533
1.1665038
1.1664193
1.1664023
1.1663994
1.0493506
1.0783195
1.066845
1.0745412
1.0709076
1.074352
1.0733457
1.07524
1.0754177
1.0766972
1.0774182
1.0785267
1.0795053
1.0806092
1.0817206
1.0828851
1.084084
1.0853224
1.0865984
1.0879133
1.0892681
1.0906642
1.0921027
1.0935846
1.09511
1.0966784
1.0982883
1.0999383
1.1016261
1.1033497
1.105107
1.1068958
1.1087137
1.1105579
1.1124254
1.1143132
1.1162182
1.1181375
1.120068
1.1220069
1.1239515
1.125899
1.1278472
1.129794
1.1317382
1.1336793
1.1356173
1.1375523
1.1394852
1.141418
1.1433535
1.1452954
1.1472482
1.1492178
1.1512111
1.1532364
1.1553033
1.1574236
1.1596128
1.1618914
1.1642834
1.166798
1.1694084
1.1720846
1.174954
1.1785365
1.183711
1.1907456
1.197929
1.2009987
1.1962993
1.1862629
1.1765968
1.1705152
1.1677223
1.1667444
1.1664739
1.1664126
1.1664011
1.1663992
1.0489581
1.0785947
1.0666637
1.0747974
1.0709492
1.0746238
1.0735712
1.0755677
1.0757988
1.0771691
1.0779489
1.0791278
1.0801859
1.0813669
1.0825638
1.0838154
1.0851065
1.0864399
1.087814
1.0892292
1.0906858
1.0921847
1.0937267
1.0953124
1.0969416
1.0986136
1.1003268
1.102079
1.1038678
1.1056905
1.107544
1.1094256
1.1113318
1.1132595
1.115205
1.1171648
1.1191353
1.121113
1.1230946
1.1250769
1.127057
1.1290323
1.1310006
1.1329598
1.1349089
1.1368478
1.1387769
1.1406971
1.1426097
1.1445171
1.1464228
1.1483311
1.1502474
1.152178
1.1541306
1.156114
1.1581384
1.1602164
1.1623643
1.164603
1.1669529
1.169416
1.171961
1.1745771
1.1774521
1.1811746
1.1866005
1.1937363
1.2004628
1.2021322
1.1957455
1.1848599
1.1753533
1.1698001
1.1674244
1.1666506
1.1664503
1.1664077
1.1664002
1.1663991
1.0487706
1.0789983
1.0666484
1.0752306
1.0711777
1.0750609
1.0739819
1.07614
1.0763778
1.0778284
1.0786884
1.079945
1.0810929
1.0823604
1.0836527
1.0850013
1.0863942
1.0878326
1.0893146
1.09084
1.0924084
1.09402
1.095675
1.0973735
1.0991149
1.1008981
1.1027211
1.1045815
1.1064759
1.1084011
1.1103533
1.1123287
1.1143232
1.1163327
1.1183531
1.1203804
1.1224103
1.124439
1.1264628
1.1284786
1.1304833
1.1324745
1.13445
1.1364084
1.1383488
1.1402717
1.1421782
1.1440697
1.1459484
1.1478174
1.1496807
1.1515436
1.1534121
1.1552932
1.1571954
1.159128
1.1611016
1.1631295
1.1652296
1.1674226
1.1697253
1.1721313
1.1746076
1.1771701
1.18008
1.1839993
1.1897269
1.1969108
1.2029192
1.2027844
1.194595
1.1830833
1.1740011
1.1691034
1.1671623
1.1665749
1.1664326
1.1664044
1.1663997
1.1663991
1.0487508
1.0795694
1.0667761
1.0758337
1.0715536
1.0756983
1.0745261
1.0768428
1.0771409
1.078695
1.0796556
1.0810017
1.0822546
1.0836211
1.0850209
1.0864785
1.0879846
1.0895393
1.0911406
1.0927872
1.0944784
1.0962134
1.0979917
1.0998127
1.101675
1.1035771
1.1055165
1.1074899
1.1094936
1.1115234
1.1135746
1.1156426
1.1177224
1.1198092
1.1218981
1.1239845
1.126064
1.1281323
1.1301858
1.1322211
1.1342357
1.1362271
1.1381938
1.1401348
1.14205
1.1439405
1.1458082
1.1476555
1.1494852
1.1513014
1.1531091
1.1549143
1.1567237
1.1585453
1.160388
1.1622616
1.1641773
1.1661494
1.1681971
1.1703413
1.1725929
1.1749369
1.1773431
1.1798696
1.1828687
1.1870692
1.1931277
1.2002129
1.2051097
1.2027596
1.1927852
1.1809843
1.1726021
1.1684529
1.1669394
1.1665155
1.1664198
1.1664021
1.1663994
1.166399
1.0489314
1.0803032
1.0671061
1.0766129
1.0721165
1.0764382
1.0752854
1.0777762
1.0781611
1.0798249
1.0808979
1.0823423
1.0837129
1.0851906
1.0867104
1.08829
1.0899222
1.0916062
1.0933394
1.0951201
1.0969464
1.0988167
1.1007294
1.102683
1.1046753
1.1067039
1.1087655
1.1108561
1.1129713
1.1151059
1.1172543
1.119411
1.1215701
1.1237261
1.1258734
1.128007
1.1301222
1.1322148
1.1342811
1.1363183
1.138324
1.1402964
1.1422348
1.1441389
1.1460098
1.1478492
1.1496601
1.1514457
1.1532102
1.1549586
1.1566969
1.1584319
1.1601711
1.161923
1.1636974
1.1655044
1.1673561
1.169268
1.171261
1.1733544
1.1755515
1.1778274
1.180164
1.1826828
1.1858421
1.1904102
1.1967687
1.203514
1.2067871
1.2018925
1.1903343
1.1786748
1.1712358
1.1678788
1.1667603
1.1664714
1.166411
1.1664006
1.1663992
1.166399
1.0493295
1.081218
1.0676555
1.0775291
1.0728977
1.0774831
1.0763518
1.0789806
1.0794725
1.0812389
1.0824441
1.0839994
1.085504
1.0871092
1.0887648
1.0904823
1.0922563
1.0940848
1.0959647
1.0978935
1.0998682
1.1018862
1.1039446
1.1060408
1.1081714
1.110333
1.1125211
1.1147311
1.1169573
1.1191937
1.1214339
1.1236712
1.1258991
1.1281113
1.130302
1.1324657
1.1345978
1.1366943
1.1387521
1.1407688
1.1427428
1.1446734
1.1465607
1.1484058
1.1502107
1.1519786
1.1537132
1.1554193
1.157102
1.1587676
1.160423
1.162076
1.1637346
1.165408
1.1671064
1.1688409
1.1706246
1.1724747
1.1744129
1.1764547
1.1785919
1.1807928
1.1830674
1.1856271
1.1890382
1.1940474
1.2005903
1.206638
1.2076606
1.2000337
1.187319
1.1762798
1.169973
1.1674018
1.166625
1.1664408
1.1664054
1.1663998
1.1663991
1.166399
1.0499344
1.0823081
1.0684164
1.0785311
1.0738875
1.078739
1.0777185
1.0804578
1.0810883
1.0829728
1.0843359
1.0860202
1.0876781
1.0894301
1.0912395
1.0931131
1.095046
1.0970357
1.0990783
1.10117
1.1033069
1.105485
1.1077001
1.1099478
1.1122235
1.1145223
1.1168387
1.1191666
1.1214994
1.12383
1.1261512
1.1284556
1.130736
1.1329856
1.1351984
1.1373691
1.1394934
1.141568
1.1435907
1.1455601
1.1474756
1.149338
1.1511487
1.1529102
1.1546262
1.156301
1.1579397
1.1595482
1.161133
1.1627016
1.1642618
1.1658221
1.1673913
1.1689789
1.1705957
1.1722537
1.173968
1.1757574
1.1776421
1.1796292
1.1816975
1.1838166
1.1860498
1.1887271
1.1924993
1.197981
1.2044653
1.2092934
1.2074502
1.1971568
1.1838928
1.1739415
1.168877
1.1670321
1.1665299
1.1664212
1.1664021
1.1663993
1.166399
1.166399
1.0507977
1.0836136
1.0694331
1.0798639
1.0751843
1.0803104
1.0794087
1.0822784
1.0830773
1.0850893
1.0866335
1.0884652
1.0902952
1.0922145
1.0941973
1.0962466
1.0983576
1.1005267
1.1027489
1.1050194
1.1073324
1.1096825
1.1120637
1.1144698
1.1168945
1.1193312
1.1217728
1.124212
1.126641
1.1290518
1.1314364
1.1337869
1.1360959
1.1383565
1.140563
1.1427106
1.1447961
1.1468172
1.148773
1.1506637
1.1524904
1.1542554
1.1559619
1.1576144
1.1592178
1.1607781
1.1623016
1.1637958
1.1652682
1.1667274
1.1681821
1.1696412
1.1711142
1.1726109
1.1741428
1.1757232
1.1773695
1.1791012
1.1809328
1.1828577
1.1848433
1.1868809
1.1891201
1.1920268
1.1962772
1.2021592
1.2082348
1.2110582
1.2058465
1.1933213
1.1802783
1.1718022
1.1679935
1.1667677
1.1664682
1.1664096
1.1664003
1.1663991
1.166399
1.166399
1.0519727
1.0851942
1.0707684
1.0815452
1.0768752
1.082231
1.0814623
1.0844841
1.0854859
1.0876373
1.0893888
1.0913915
1.0934164
1.0955277
1.0977073
1.0999551
1.1022659
1.1046345
1.1070546
1.1095196
1.112022
1.1145542
1.1171082
1.1196757
1.1222483
1.1248175
1.1273747
1.1299109
1.1324174
1.1348855
1.1373068
1.1396733
1.1419778
1.1442143
1.1463777
1.1484648
1.1504736
1.1524038
1.1542565
1.1560336
1.1577385
1.1593754
1.1609497
1.1624676
1.1639359
1.1653618
1.1667532
1.1681184
1.1694666
1.1708067
1.1721482
1.1735003
1.1748729
1.1762764
1.177723
1.1792279
1.1808099
1.1824867
1.1842619
1.186111
1.1880004
1.1899767
1.192312
1.19559
1.2004059
1.2064293
1.211574
1.211532
1.2027126
1.1887529
1.176742
1.169985
1.1673399
1.1665945
1.1664319
1.1664035
1.1663995
1.166399
1.166399
1.166399
1.0534545
1.0870607
1.0724262
1.0835866
1.0789581
1.0845192
1.0839375
1.0871131
1.0883627
1.0906744
1.0926642
1.0948693
1.097117
1.0994492
1.1018527
1.1043246
1.1068586
1.1094477
1.1120837
1.1147577
1.1174601
1.1201806
1.1229089
1.1256342
1.1283458
1.1310332
1.1336861
1.1362943
1.1388485
1.1413396
1.1437594
1.1461007
1.1483575
1.1505249
1.1526001
1.1545816
1.15647
1.1582675
1.1599773
1.1616043
1.1631538
1.1646324
1.1660477
1.1674078
1.1687209
1.1699958
1.1712413
1.1724668
1.1736821
1.1748971
1.1761212
1.1773639
1.178635
1.1799458
1.1813102
1.1827448
1.1842675
1.1858892
1.1875972
1.1893535
1.1911471
1.1931208
1.1956952
1.1994909
1.2048507
1.2106147
1.2139131
1.2101593
1.1981394
1.1838298
1.1735472
1.1685714
1.1669011
1.1664916
1.1664127
1.1664006
1.1663991
1.166399
1.166399
1.166399
1.0552621
1.0892334
1.0744159
1.0859476
1.0814836
1.0872235
1.0868905
1.0902324
1.0917817
1.0942829
1.0965447
1.0989886
1.1014906
1.1040756
1.1067324
1.1094557
1.112237
1.115067
1.1179349
1.1208289
1.1237365
1.1266445
1.1295396
1.1324085
1.1352383
1.1380165
1.1407315
1.1433726
1.1459301
1.1483958
1.1507626
1.1530251
1.1551795
1.1572236
1.1591575
1.1609829
1.1627032
1.1643237
1.1658508
1.1672916
1.1686542
1.1699475
1.1711808
1.1723639
1.1735065
1.1746183
1.1757089
1.1767883
1.1778668
1.1789544
1.1800608
1.181195
1.1823669
1.1835891
1.1848776
1.1862493
1.187717
1.1892774
1.1909
1.192551
1.1942833
1.1963714
1.1993675
1.2037978
1.2093934
1.2142747
1.2147376
1.206706
1.1924502
1.1790158
1.1709056
1.1675808
1.1666373
1.166437
1.1664037
1.1663994
1.166399
1.166399
1.166399
1.166399
1.0574365
1.0917585
1.0767945
1.0887414
1.0844518
1.0904229
1.09041
1.0939322
1.0958353
1.0985626
1.1011316
1.103855
1.1066473
1.1095202
1.1124625
1.1154655
1.1185177
1.1216063
1.1247168
1.127834
1.1309419
1.134024
1.1370642
1.1400467
1.1429566
1.1457803
1.1485056
1.1511221
1.1536214
1.1559972
1.1582451
1.160363
1.1623508
1.1642101
1.165945
1.167561
1.1690653
1.1704664
1.1717736
1.1729967
1.1741462
1.1752326
1.1762671
1.1772603
1.1782231
1.1791656
1.1800979
1.1810301
1.1819725
1.1829351
1.183927
1.1849572
1.1860358
1.1871771
1.1883988
1.189715
1.191127
1.192613
1.1941332
1.195688
1.1974458
1.199829
1.2034069
1.2084197
1.213806
1.2167738
1.2132181
1.201319
1.1862452
1.1747497
1.1689391
1.1669651
1.1664964
1.1664118
1.1664002
1.1663991
1.166399
1.166399
1.166399
1.166399
1.0600402
1.0946935
1.0796446
1.0920337
1.087993
1.0942023
1.0945909
1.0983113
1.1006243
1.1036266
1.1065446
1.1095957
1.1127208
1.1159211
1.1191826
1.1224919
1.1258333
1.1291894
1.1325417
1.1358707
1.1391568
1.1423804
1.1455227
1.1485661
1.1514948
1.1542953
1.1569565
1.1594702
1.1618312
1.1640369
1.1660878
1.1679863
1.1697376
1.1713483
1.1728269
1.1741833
1.1754283
1.1765737
1.1776312
1.1786131
1.1795312
1.1803977
1.1812243
1.1820224
1.1828031
1.1835767
1.1843532
1.1851424
1.1859542
1.186798
1.1876824
1.1886165
1.1896116
1.1906833
1.1918485
1.1931128
1.1944597
1.1958519
1.1972688
1.1987868
1.2007199
1.2036048
1.2078798
1.2131351
1.2174079
1.2173863
1.2091297
1.1945049
1.180248
1.1713476
1.1676496
1.1666314
1.1664312
1.166402
1.1663991
1.166399
1.166399
1.166399
1.166399
1.166399
1.0631203
1.0980871
1.0830685
1.0959008
1.0921955
1.098646
1.0995342
1.1034898
1.1062775
1.1096226
1.1129429
1.1163774
1.1198819
1.1234478
1.1270566
1.1306892
1.1343245
1.13794
1.1415125
1.1450182
1.1484342
1.151738
1.1549096
1.1579311
1.160788
1.1634693
1.1659679
1.1682803
1.1704071
1.1723518
1.174121
1.1757236
1.1771704
1.1784734
1.1796459
1.1807014
1.1816542
1.1825183
1.1833075
1.1840352
1.1847143
1.1853573
1.185976
1.1865819
1.1871856
1.1877972
1.1884261
1.1890817
1.1897726
1.1905074
1.1912946
1.192144
1.1930687
1.1940842
1.1952009
1.1964097
1.1976742
1.1989584
1.2003054
1.2019147
1.2042382
1.2077952
1.2125901
1.2174768
1.2196239
1.2151883
1.2027325
1.1871428
1.1750958
1.168954
1.1669208
1.1664754
1.1664061
1.1663991
1.1663989
1.166399
1.166399
1.166399
1.166399
1.166399
1.0667206
1.1019584
1.0871653
1.1004
1.0971637
1.1038813
1.1053938
1.1096519
1.1129889
1.1167572
1.1205381
1.1244094
1.1283332
1.1322917
1.1362602
1.140213
1.1441229
1.1479612
1.1517
1.1553116
1.1587705
1.1620542
1.1651437
1.1680247
1.1706877
1.1731279
1.1753456
1.1773453
1.1791354
1.1807272
1.1821345
1.1833727
1.1844581
1.1854077
1.1862383
1.1869666
1.1876088
1.1881802
1.1886956
1.1891686
1.189612
1.1900379
1.1904576
1.1908818
1.1913204
1.1917827
1.1922773
1.1928124
1.1933955
1.1940342
1.1947375
1.195517
1.1963868
1.1973582
1.1984282
1.199569
1.2007371
1.2019296
1.2032916
1.2051837
1.2080997
1.2123446
1.2172771
1.2206678
1.2194282
1.2100378
1.1948032
1.1802358
1.1711832
1.1675095
1.1665732
1.1664152
1.1663987
1.1663985
1.1663989
1.166399
1.166399
1.166399
1.166399
1.166399
1.0709199
1.1063322
1.0919906
1.1057018
1.1031044
1.1101455
1.1124169
1.1170595
1.1210149
1.1252833
1.1295755
1.1339244
1.1382912
1.1426482
1.1469625
1.1511996
1.1553251
1.1593044
1.1631059
1.1667006
1.170065
1.1731806
1.1760356
1.1786241
1.1809464
1.1830083
1.1848205
1.1863973
1.1877561
1.1889161
1.1898978
1.1907219
1.1914092
1.1919796
1.1924522
1.1928452
1.1931753
1.193458
1.1937077
1.1939372
1.1941587
1.1943829
1.19462
1.1948796
1.1951704
1.1955006
1.1958776
1.1963082
1.1967989
1.197357
1.1979927
1.1987193
1.1995492
1.2004833
1.201499
1.2025539
1.2036245
1.2047915
1.2063347
1.2087282
1.2123707
1.2170183
1.2211818
1.2221105
1.2159979
1.2024631
1.1865443
1.174569
1.1686211
1.1667835
1.1664364
1.1663974
1.1663975
1.1663987
1.166399
1.166399
1.166399
1.166399
1.166399
1.166399
1.0759119
1.1114378
1.0978711
1.112105
1.1103194
1.1177333
1.1208932
1.126005
1.1306365
1.1354737
1.140318
1.1451673
1.149975
1.1547
1.1592983
1.1637262
1.1679433
1.1719127
1.1756048
1.1789968
1.1820744
1.1848311
1.1872687
1.1893954
1.1912254
1.1927773
1.1940732
1.1951371
1.1959942
1.1966701
1.1971897
1.197577
1.1978546
1.1980437
1.1981635
1.198232
1.198265
1.198277
1.1982811
1.1982887
1.1983102
1.198355
1.1984317
1.1985483
1.1987123
1.1989304
1.1992085
1.1995521
1.1999672
1.200462
1.2010486
1.2017398
1.2025403
1.2034338
1.2043793
1.2053384
1.2063489
1.2076206
1.2095657
1.2126367
1.2168921
1.221378
1.22366
1.2205866
1.2095243
1.193592
1.1791726
1.1705274
1.1672243
1.166488
1.1663954
1.1663948
1.1663981
1.1663989
1.166399
1.166399
1.166399
1.166399
1.166399
1.166399
1.0819264
1.1178394
1.1050775
1.1198953
1.119116
1.1269367
1.1311207
1.1368094
1.1421759
1.1476425
1.1530594
1.1583927
1.1635812
1.1685684
1.1733013
1.1777321
1.1818231
1.1855459
1.1888841
1.1918318
1.1943936
1.1965824
1.1984183
1.1999264
1.2011355
1.2020763
1.2027801
1.203278
1.2036001
1.2037747
1.2038284
1.2037856
1.2036683
1.2034965
1.2032882
1.2030592
1.2028238
1.2025943
1.2023818
1.2021958
1.202045
1.2019369
1.2018784
1.2018761
1.2019359
1.2020627
1.2022611
1.2025357
1.2028931
1.2033436
1.2038999
1.2045695
1.2053421
1.2061809
1.2070391
1.2079196
1.2089681
1.2105364
1.213093
1.2168754
1.2213267
1.2245475
1.2239122
1.2156711
1.200882
1.1848912
1.1734702
1.1680979
1.1666144
1.1663951
1.1663886
1.1663963
1.1663988
1.166399
1.166399
1.166399
1.166399
1.166399
1.166399
1.166399
1.0891248
1.1257095
1.113818
1.1292843
1.1298376
1.1381439
1.1435011
1.1499016
1.1560496
1.1621601
1.1680969
1.1737958
1.1791826
1.1841945
1.188782
1.19291
1.19656
1.199728
1.2024239
1.2046685
1.2064911
1.2079266
1.2090137
1.2097922
1.2103019
1.2105811
1.2106661
1.2105905
1.210385
1.2100775
1.2096927
1.2092528
1.2087773
1.2082833
1.207786
1.2072984
1.2068321
1.2063972
1.2060023
1.205655
1.205362
1.205129
1.2049615
1.2048645
1.2048422
1.2048981
1.2050353
1.2052587
1.2055769
1.206002
1.2065438
1.2071977
1.2079323
1.2086969
1.2094675
1.2103345
1.2115829
1.2136605
1.2169253
1.2211622
1.2250345
1.2261141
1.2208089
1.2079962
1.1915172
1.1775947
1.1696835
1.1669161
1.1664082
1.1663774
1.1663918
1.1663982
1.166399
1.166399
1.166399
1.166399
1.166399
1.166399
1.166399
1.166399
1.0976693
1.135176
1.1246596
1.140793
1.1430755
1.151987
1.1586261
1.1658299
1.1727114
1.1793358
1.1855668
1.1913254
1.1965446
1.2011801
1.2052119
1.2086398
1.2114833
1.213775
1.2155584
1.2168828
1.2178008
1.218365
1.2186265
1.2186332
1.2184292
1.2180545
1.2175447
1.2169314
1.2162422
1.2155011
1.2147291
1.2139441
1.2131617
1.2123953
1.2116566
1.2109553
1.2103003
1.2096988
1.2091574
1.2086816
1.2082762
1.2079459
1.2076944
1.2075253
1.2074412
1.2074442
1.2075375
1.2077273
1.2080247
1.2084412
1.2089778
1.2096103
1.2102877
1.2109652
1.2116827
1.212656
1.2142963
1.217044
1.2209495
1.2251266
1.2273986
1.2249357
1.2146477
1.1987768
1.1829588
1.172291
1.1675965
1.1664711
1.1663614
1.1663818
1.1663964
1.1663991
1.1663991
1.166399
1.166399
1.166399
1.166399
1.166399
1.166399
1.166399
1.1082331
1.1470036
1.1384208
1.1552744
1.159701
1.1692949
1.1771566
1.1850604
1.1923912
1.1991313
1.2051705
1.2104558
1.2149655
1.2187078
1.221717
1.2240448
1.2257558
1.2269198
1.2276092
1.2278937
1.2278394
1.2275065
1.2269489
1.2262143
1.2253442
1.2243741
1.2233347
1.2222518
1.2211474
1.2200401
1.2189456
1.217877
1.2168456
1.2158608
1.2149305
1.2140616
1.2132598
1.2125301
1.2118767
1.2113036
1.2108142
1.2104116
1.2100986
1.2098772
1.2097487
1.2097148
1.2097798
1.2099526
1.2102456
1.2106649
1.2111951
1.2117895
1.2123888
1.2129875
1.213732
1.2149796
1.2172016
1.2206431
1.2248335
1.2280414
1.22796
1.2206227
1.2063699
1.1895788
1.1762123
1.16899
1.1666816
1.1663493
1.1663631
1.1663907
1.1663988
1.1663992
1.166399
1.166399
1.166399
1.166399
1.166399
1.166399
1.166399
1.166399
1.1222696
1.1622356
1.156288
1.1737353
1.1806388
1.1908247
1.1994793
1.2075757
1.2147017
1.2208403
1.2259635
1.2300958
1.2332962
1.2356458
1.237241
1.2381817
1.2385676
1.2384919
1.23804
1.2372873
1.2362997
1.2351338
1.2338373
1.2324504
1.2310065
1.2295333
1.2280537
1.2265863
1.2251466
1.2237472
1.2223985
1.2211089
1.2198856
1.2187342
1.2176595
1.2166656
1.2157557
1.2149326
1.2141987
1.2135565
1.2130081
1.2125555
1.2122003
1.2119432
1.2117847
1.2117273
1.2117778
1.2119479
1.2122481
1.2126722
1.213183
1.2137161
1.2142286
1.2147936
1.2156894
1.2173764
1.2202611
1.2242283
1.2281418
1.2297535
1.2257292
1.2139785
1.1973849
1.1817195
1.1715512
1.1672801
1.166376
1.1663346
1.1663766
1.1663972
1.1663994
1.1663991
1.166399
1.166399
1.166399
1.166399
1.166399
1.166399
1.166399
1.166399
1.1411182
1.182118
1.1796535
1.1971996
1.2063283
1.2166265
1.2251388
1.2324361
1.2383684
1.2430018
1.2464296
1.2487815
1.250202
1.2508362
1.2508224
1.2502856
1.2493362
1.2480684
1.2465621
1.2448832
1.2430863
1.2412157
1.2393072
1.2373899
1.2354868
1.2336164
1.2317934
1.2300294
1.2283335
1.2267131
1.2251737
1.2237199
1.2223554
1.2210828
1.2199044
1.2188219
1.2178365
1.2169493
1.2161614
1.2154737
1.2148874
1.2144034
1.2140218
1.2137423
1.2135654
1.2134956
1.2135429
1.2137203
1.2140314
1.2144517
1.2149214
1.2153731
1.2158112
1.2164189
1.2176048
1.219867
1.2233952
1.2275619
1.2303997
1.2296328
1.2211849
1.2061287
1.1890784
1.1758121
1.168744
1.1665624
1.1663048
1.1663485
1.1663901
1.1663995
1.1663994
1.1663991
1.166399
1.166399
1.166399
1.166399
1.166399
1.166399
1.166399
1.166399
1.1672581
1.2074468
1.2096888
1.2265943
1.2361221
1.2453022
1.2523661
1.2576947
1.2614098
1.2637358
1.2648955
1.265105
1.26456
1.2634292
1.2618555
1.2599556
1.2578249
1.2555391
1.2531587
1.2507311
1.2482934
1.2458747
1.2434974
1.2411787
1.2389317
1.2367666
1.2346908
1.2327098
1.2308278
1.2290477
1.2273714
1.2258006
1.224336
1.2229783
1.2217279
1.2205846
1.2195484
1.218619
1.2177965
1.217081
1.2164725
1.2159707
1.2155744
1.2152826
1.2150965
1.2150233
1.2150759
1.2152653
1.2155828
1.2159829
1.2163897
1.2167551
1.2171619
1.2179162
1.2195102
1.2223558
1.2263157
1.2302233
1.2317385
1.2274098
1.2153056
1.1983839
1.1823631
1.1718259
1.167281
1.1663226
1.166304
1.166368
1.1663974
1.1664
1.1663993
1.166399
1.166399
1.166399
1.166399
1.166399
1.166399
1.166399
1.166399
1.166399
1.2033534
1.2400027
1.2453205
1.2596487
1.26815
1.2746017
1.2786993
1.2809606
1.2817251
1.2813342
1.2800691
1.2781609
1.2757939
1.2731116
1.2702254
1.2672197
1.2641589
1.2610913
1.2580533
1.2550717
1.2521666
1.2493523
1.2466396
1.2440357
1.2415458
1.2391731
1.2369198
1.2347867
1.2327743
1.2308822
1.2291101
1.227457
1.2259223
1.2245049
1.2232039
1.2220181
1.2209466
1.2199883
1.2191426
1.2184091
1.2177872
1.2172754
1.2168717
1.2165747
1.2163874
1.2163193
1.2163842
1.2165872
1.2169048
1.2172728
1.2176105
1.2179059
1.2183347
1.2193162
1.2213864
1.2247821
1.2289285
1.232002
1.2317986
1.2239756
1.2092223
1.1917749
1.1775022
1.1693954
1.166617
1.1662592
1.1663197
1.1663839
1.1664001
1.1663999
1.1663991
1.166399
1.166399
1.166399
1.166399
1.166399
1.166399
1.166399
1.166399
1.166399
1.2478013
1.2783537
1.2849897
1.2941875
1.298779
1.3009847
1.3011652
1.2999301
1.2976867
1.294758
1.291381
1.2877293
1.2839291
1.2800705
1.2762182
1.2724177
1.2687011
1.2650905
1.261601
1.2582426
1.2550213
1.2519409
1.2490028
1.2462074
1.2435541
1.2410413
1.2386675
1.2364306
1.2343282
1.2323583
1.2305186
1.2288071
1.2272216
1.2257604
1.2244215
1.2232034
1.2221044
1.2211232
1.2202589
1.2195107
1.2188776
1.2183576
1.2179487
1.2176506
1.2174683
1.2174131
1.2174962
1.2177126
1.2180243
1.2183562
1.2186384
1.2189047
1.2194125
1.2206468
1.2231178
1.2268952
1.2309774
1.2331372
1.2307801
1.2203342
1.2039988
1.1868734
1.1743277
1.1680446
1.1663445
1.1662489
1.166337
1.1663933
1.166401
1.1663998
1.166399
1.166399
1.166399
1.166399
1.166399
1.166399
1.166399
1.166399
1.166399
1.166399
1.2984465
1.3178918
1.3221203
1.3243652
1.3236476
1.3212064
1.3176161
1.3133358
1.3086673
1.3038141
1.2989114
1.2940479
1.2892816
1.2846492
1.2801738
1.2758687
1.271741
1.2677935
1.2640261
1.2604371
1.2570235
1.2537813
1.2507067
1.2477951
1.2450422
1.2424438
1.2399958
1.2376942
1.2355353
1.2335157
1.2316321
1.2298816
1.2282616
1.2267697
1.2254034
1.2241608
1.2230398
1.2220389
1.2211569
1.2203927
1.2197448
1.2192111
1.2187903
1.2184843
1.2183004
1.2182505
1.218343
1.2185594
1.2188483
1.2191304
1.2193555
1.2196058
1.2202018
1.2216517
1.2243808
1.2283005
1.2322032
1.2335535
1.2293422
1.2173739
1.2003921
1.1838599
1.1725485
1.1673712
1.1662322
1.1662484
1.1663498
1.1663981
1.1664013
1.1663996
1.166399
1.166399
1.166399
1.166399
1.166399
1.166399
1.166399
1.166399
1.166399
1.166399
1.3480682
1.3512184
1.3500827
1.3459298
1.3405026
1.334391
1.328031
1.3216488
1.315382
1.3093047
1.3034571
1.2978582
1.2925147
1.2874258
1.2825864
1.2779892
1.2736254
1.2694861
1.2655618
1.2618439
1.2583235
1.2549927
1.2518438
1.2488696
1.2460636
1.2434198
1.2409324
1.2385963
1.2364069
1.2343599
1.2324513
1.2306777
1.229036
1.2275231
1.2261363
1.2248731
1.2237313
1.2227088
1.2218041
1.2210157
1.2203414
1.2197788
1.2193272
1.2189902
1.2187775
1.2187007
1.218757
1.2189354
1.2191658
1.2193687
1.2195086
1.2197041
1.2203076
1.2218469
1.2247369
1.2287709
1.2325175
1.2334024
1.2284892
1.2160921
1.1990628
1.1828547
1.1719742
1.1671366
1.1661763
1.1662426
1.1663547
1.1664004
1.1664015
1.1663996
1.1663989
1.166399
1.166399
1.166399
1.166399
1.166399
1.166399
1.166399
1.166399
1.166399
1.3800942
1.3729895
1.3659226
1.3581953
1.3501787
1.3422628
1.3346032
1.3272697
1.3202889
1.313664
1.3073868
1.3014437
1.2958187
1.290495
1.2854563
1.2806868
1.2761718
1.2718976
1.2678516
1.2640224
1.2603994
1.2569729
1.2537341
1.2506752
1.2477886
1.2450679
1.242507
1.2401005
1.2378434
1.2357313
1.2337602
1.2319265
1.2302271
1.228659
1.2272195
1.2259058
1.2247159
1.2236478
1.2226999
1.2218705
1.2211579
1.2205609
1.2200802
1.2197196
1.2194865
1.219395
1.2194355
1.219597
1.2198056
1.2199869
1.2201287
1.220351
1.2209722
1.222557
1.2255278
1.2297007
1.2337741
1.2349624
1.2304758
1.2182212
1.2009459
1.1841206
1.1725599
1.1672582
1.1661477
1.1662238
1.1663481
1.1664008
1.166402
1.1663996
1.1663989
1.166399
1.166399
1.166399
1.166399
1.166399
1.166399
1.166399
1.166399
1.166399
1.159912
1.2054571
1.2143383
1.2134655
1.2113141
1.20982
1.2084832
1.2072123
1.2058748
1.204545
1.2032046
1.201876
1.2005458
1.1992232
1.1979049
1.1965961
1.1952997
1.1940158
1.1927458
1.1914911
1.1902528
1.189032
1.1878293
1.1866452
1.1854798
1.1843339
1.1832077
1.1821015
1.1810156
1.1799501
1.1789057
1.1778828
1.1768819
1.1759028
1.1749458
1.1740109
1.1730986
1.172209
1.1713425
1.1704994
1.1696805
1.1688865
1.168118
1.1673752
1.1666583
1.1659668
1.1652991
1.1646527
1.1640228
1.1634021
1.1627808
1.162148
1.1614941
1.1608155
1.1601181
1.1594196
1.1587491
1.1581474
1.1576653
1.1573474
1.1571652
1.1568878
1.1560129
1.1539992
1.1508561
1.1474544
1.1450659
1.1450395
1.148623
1.1560069
1.164982
1.1718512
1.1743154
1.1731059
1.1705518
1.1684186
1.1671997
1.1666635
1.1664727
1.1664161
1.1444043
1.1984365
1.2035587
1.2021387
1.2000786
1.1990396
1.1980964
1.1973076
1.1964556
1.1956486
1.1948048
1.1939677
1.1931062
1.1922372
1.1913528
1.1904578
1.1895505
1.1886331
1.1877067
1.186773
1.1858335
1.1848899
1.1839435
1.1829956
1.1820478
1.1811022
1.1801604
1.1792237
1.1782935
1.1773715
1.1764591
1.1755579
1.1746691
1.1737934
1.1729316
1.1720849
1.1712543
1.1704409
1.1696456
1.1688694
1.1681134
1.1673785
1.1666653
1.1659738
1.1653037
1.1646535
1.1640208
1.1634018
1.1627904
1.1621791
1.1615593
1.1609237
1.1602692
1.159601
1.1589342
1.1582942
1.1577152
1.157236
1.1568905
1.1566728
1.156459
1.1559146
1.1545399
1.1520278
1.1487758
1.1458472
1.1442777
1.1450346
1.1492141
1.1569579
1.1661215
1.1730162
1.1752727
1.1737304
1.1708755
1.1685542
1.1672458
1.1666762
1.1664755
1.1664165
1.1321982
1.1911104
1.1940142
1.1926971
1.1906871
1.1899626
1.1891891
1.1886762
1.1880701
1.1875656
1.1870106
1.186488
1.185933
1.1853788
1.1848024
1.1842128
1.1836035
1.1829773
1.1823328
1.1816714
1.1809937
1.180301
1.1795942
1.1788744
1.1781433
1.1774033
1.1766558
1.1759024
1.1751447
1.1743848
1.1736245
1.1728658
1.1721102
1.1713588
1.170613
1.1698746
1.1691452
1.1684262
1.167719
1.1670248
1.1663448
1.16568
1.1650306
1.1643965
1.1637767
1.1631697
1.1625725
1.1619809
1.1613895
1.1607925
1.1601848
1.1595648
1.158937
1.1583143
1.1577184
1.1571774
1.1567224
1.1563777
1.1561415
1.1559397
1.1555578
1.1546129
1.1527078
1.1498464
1.1467483
1.1444821
1.1437959
1.1452777
1.1499442
1.1579807
1.1673098
1.1741874
1.1762089
1.1743228
1.1711744
1.1686756
1.1672859
1.1666869
1.1664778
1.1664169
1.1235797
1.1861299
1.1872571
1.1860906
1.1838833
1.183255
1.182403
1.181959
1.181375
1.1809727
1.1805033
1.1801108
1.179684
1.1792832
1.1788645
1.1784478
1.178016
1.1775743
1.1771183
1.1766484
1.1761631
1.1756626
1.1751463
1.1746142
1.1740675
1.1735076
1.1729351
1.1723509
1.1717562
1.1711527
1.1705423
1.1699265
1.1693067
1.1686842
1.1680604
1.1674373
1.1668166
1.1661998
1.1655881
1.1649826
1.1643844
1.1637941
1.163212
1.1626376
1.1620701
1.1615078
1.1609484
1.1603889
1.159826
1.1592577
1.1586843
1.1581099
1.1575455
1.1570086
1.1565217
1.1561082
1.1557851
1.1555484
1.1553466
1.1550354
1.1543419
1.1529122
1.1505462
1.14757
1.1449006
1.1434315
1.1436006
1.14575
1.1508108
1.1590909
1.1685475
1.1753603
1.1771121
1.174875
1.1714433
1.1687808
1.1673191
1.1666952
1.1664794
1.166417
1.1171435
1.1818032
1.1811416
1.1803934
1.1780022
1.1775267
1.176562
1.1761853
1.1755708
1.1752328
1.1747882
1.1744714
1.1741056
1.1737946
1.1734636
1.1731529
1.172833
1.1725124
1.1721834
1.1718462
1.1714981
1.1711384
1.1707654
1.1703782
1.1699775
1.1695639
1.1691367
1.1686961
1.1682426
1.1677776
1.1673024
1.1668181
1.1663257
1.1658258
1.1653199
1.1648097
1.1642968
1.1637822
1.1632665
1.1627509
1.162236
1.1617225
1.1612103
1.1606992
1.1601884
1.1596776
1.1591655
1.1586516
1.1581359
1.1576212
1.1571127
1.1566191
1.1561546
1.1557356
1.1553786
1.1550929
1.1548715
1.1546721
1.1543906
1.1538316
1.1527186
1.150809
1.1481558
1.145344
1.1433251
1.1427615
1.1437228
1.1464157
1.1517937
1.1602749
1.1698187
1.1765257
1.1779799
1.1753868
1.1716828
1.1688705
1.1673456
1.1667011
1.1664803
1.1664171
1.1126182
1.1777641
1.175403
1.1752972
1.1727149
1.1724435
1.1713458
1.1710598
1.1703844
1.1701019
1.1696483
1.1693793
1.1690375
1.1687887
1.1685099
1.1682635
1.1680112
1.1677687
1.1675229
1.1672755
1.1670225
1.1667632
1.1664951
1.1662166
1.1659282
1.1656293
1.1653186
1.1649954
1.1646599
1.1643128
1.1639549
1.1635868
1.1632086
1.1628207
1.162424
1.16202
1.1616097
1.1611936
1.1607721
1.160346
1.1599159
1.1594823
1.1590455
1.1586055
1.1581623
1.1577169
1.1572702
1.156824
1.1563817
1.1559502
1.1555376
1.155154
1.1548116
1.15452
1.1542821
1.1540861
1.1538938
1.1536245
1.1531334
1.1522129
1.1506501
1.1483777
1.1456967
1.1433436
1.1421315
1.1424613
1.1441268
1.14725
1.1528782
1.1615224
1.1711162
1.1776796
1.1788089
1.1758564
1.1718923
1.1689436
1.1673644
1.1667043
1.1664806
1.166417
1.1096864
1.1737141
1.1697306
1.1704065
1.1676339
1.1676331
1.166419
1.1662579
1.1655212
1.1653089
1.1648379
1.1646225
1.1642894
1.1640871
1.1638463
1.163647
1.1634382
1.1632492
1.1630619
1.162879
1.1626957
1.1625114
1.1623227
1.162128
1.1619273
1.1617195
1.1615028
1.1612758
1.1610385
1.1607914
1.1605348
1.1602685
1.1599921
1.1597054
1.1594091
1.1591042
1.1587914
1.1584707
1.1581422
1.1578069
1.1574653
1.1571182
1.1567664
1.1564102
1.1560507
1.1556901
1.1553313
1.1549778
1.1546347
1.1543105
1.1540129
1.153749
1.1535238
1.1533348
1.1531667
1.1529829
1.1527158
1.1522563
1.151448
1.1501224
1.1481869
1.1457714
1.1433589
1.1416907
1.1413876
1.1425323
1.1447727
1.1482223
1.1540455
1.1628225
1.1724352
1.1788158
1.1795961
1.1762828
1.1720707
1.1689985
1.1673754
1.1667053
1.1664802
1.1664168
1.1081029
1.1694924
1.1640074
1.1655218
1.1625638
1.1628768
1.1615613
1.1615634
1.1607906
1.1606792
1.1602047
1.1600509
1.159726
1.159567
1.1593385
1.1591855
1.1590178
1.1588775
1.1587408
1.1586116