/*--------------------------------*- C++ -*----------------------------------*\
  =========                 |
  \\      /  F ield         | OpenFOAM: The Open Source CFD Toolbox
   \\    /   O peration     | Website:  https://openfoam.org
    \\  /    A nd           | Version:  12
     \\/     M anipulation  |
\*---------------------------------------------------------------------------*/
FoamFile
{
    format      ascii;
    class       volScalarField;
    location    "0.004";
    object      T;
}
// * * * * * * * * * * * * * * * * * * * * * * * * * * * * * * * * * * * * * //

dimensions      [0 0 0 1 0 0 0];

internalField   nonuniform List<scalar> 
16000
(
293.2143
285.9377
288.9116
287.39717
288.3927
287.94887
288.35553
288.26906
288.45724
288.49953
288.62133
288.70352
288.8053
288.90375
289.00851
289.11752
289.23212
289.35239
289.47845
289.61009
289.74701
289.88882
290.03519
290.18582
290.34053
290.49928
290.66208
290.82898
290.99996
291.17488
291.35353
291.53564
291.72096
291.90928
292.10035
292.29392
292.48967
292.68727
292.88641
293.0868
293.28818
293.49034
293.69308
293.89623
294.09961
294.30305
294.50649
294.71002
294.91375
295.11784
295.32247
295.52798
295.7348
295.94347
296.15464
296.36911
296.58788
296.81208
297.04332
297.28371
297.53544
297.8
298.0762
298.36173
298.66713
299.03867
299.55991
300.26483
300.9915
301.35628
300.9792
300.05279
299.10017
298.46661
298.15914
298.04449
298.01031
298.002
298.00033
298.00004
293.25197
285.8377
288.94466
287.34222
288.41376
287.9297
288.37665
288.27888
288.48652
288.53537
288.66311
288.7554
288.86521
288.97299
289.08621
289.20382
289.32686
289.45564
289.59039
289.73099
289.87724
290.02872
290.18506
290.34588
290.51089
290.67993
290.85292
291.02983
291.21059
291.39506
291.583
291.77413
291.96814
292.16472
292.36358
292.56439
292.7668
292.97045
293.17501
293.38013
293.58551
293.79092
293.99615
294.20107
294.40553
294.60936
294.8125
295.01506
295.21724
295.41926
295.6214
295.82401
296.02758
296.23272
296.44013
296.65068
296.86538
297.08541
297.31251
297.54894
297.79667
298.05627
298.32563
298.60356
298.9061
299.28655
299.82739
300.53976
301.23555
301.49208
300.97453
299.95695
298.99765
298.40012
298.12816
298.03357
298.00729
298.00132
298.0002
298.00002
293.30363
285.75686
288.9859
287.30877
288.43958
287.93828
288.40479
288.32004
288.52974
288.58791
288.72437
288.82781
288.94613
289.06383
289.18644
289.31355
289.44604
289.58431
289.72867
289.8791
290.03544
290.19733
290.36436
290.53608
290.71213
290.89222
291.07616
291.2638
291.455
291.64955
291.8472
292.04763
292.25049
292.4554
292.66199
292.86987
293.07865
293.28794
293.49736
293.70655
293.91517
294.12297
294.32976
294.53545
294.73991
294.94302
295.14475
295.34523
295.54474
295.7436
295.94215
296.14081
296.34014
296.54081
296.74358
296.94936
297.15923
297.37442
297.59671
297.82844
298.07138
298.32536
298.58789
298.85971
299.16269
299.55588
300.11797
300.83381
301.47969
301.59251
300.9143
299.81903
298.87744
298.33156
298.10002
298.02466
298.00504
298.00086
298.00012
298.00001
293.36499
285.69405
289.03924
287.29148
288.47712
287.97196
288.45192
288.36876
288.59288
288.66527
288.80758
288.92296
289.05068
289.17918
289.31225
289.44995
289.59301
289.74189
289.89692
290.05816
290.22552
290.39865
290.57715
290.76051
290.94829
291.14008
291.33555
291.53443
291.73646
291.94138
292.14886
292.35855
292.57005
292.78292
292.99674
293.21104
293.4254
293.63941
293.85264
294.06472
294.27531
294.48417
294.69114
294.89615
295.09915
295.30007
295.49893
295.69594
295.89145
296.08586
296.27958
296.47313
296.66715
296.86237
297.05961
297.25983
297.46417
297.67395
297.89098
298.11753
298.35506
298.60272
298.85815
299.12511
299.43254
299.84541
300.43403
301.14685
301.71688
301.64378
300.79387
299.64273
298.74515
298.26409
298.07491
298.01738
298.00334
298.00054
298.00007
298.00001
293.4332
285.6521
289.10584
287.29236
288.53515
288.01751
288.52837
288.45095
288.68011
288.76589
288.91479
289.04332
289.18184
289.32236
289.46729
289.61696
289.772
289.93286
290.0999
290.2732
290.45272
290.63815
290.82907
291.02494
291.22524
291.42942
291.63702
291.84763
292.06086
292.27633
292.49365
292.71241
292.93215
293.15241
293.37269
293.5925
293.81136
294.02883
294.2445
294.45796
294.66893
294.87719
295.08264
295.28526
295.48505
295.68206
295.87639
296.06833
296.25831
296.44682
296.63436
296.82154
297.0091
297.19782
297.38858
297.58237
297.78044
297.98424
298.19561
298.41664
298.64837
298.88924
299.13753
299.40141
299.71821
300.15803
300.7747
301.46849
301.92212
301.62886
300.61077
299.43653
298.609
298.20148
298.05355
298.01165
298.0021
298.00032
298.00004
298
293.50601
285.6339
289.1875
287.32258
288.61754
288.11621
288.62918
288.55946
288.79188
288.89275
289.05025
289.19304
289.34386
289.4977
289.65597
289.81908
289.98762
290.16196
290.34246
290.52922
290.72219
290.92107
291.12544
291.33472
291.54827
291.76546
291.98566
292.2083
292.43284
292.65879
292.88566
293.11297
293.34022
293.56688
293.79244
294.01638
294.2382
294.45744
294.67371
294.88664
295.09599
295.30162
295.50351
295.7017
295.8963
296.08746
296.27541
296.46056
296.6434
296.82451
297.00449
297.18406
297.36403
297.54528
297.72869
297.91532
298.10652
298.30395
298.50945
298.72481
298.95041
299.18412
299.42578
299.68995
300.02321
300.49737
301.13668
301.78712
302.06707
301.53009
300.36601
299.21025
298.4761
298.14645
298.03627
298.00736
298.00124
298.00017
298.00002
298
293.58465
285.64163
289.28473
287.39866
288.72375
288.2241
288.74241
288.69558
288.92995
289.05095
289.21825
289.37646
289.54128
289.70994
289.88321
290.06146
290.24517
290.43466
290.63024
290.83197
291.03977
291.25334
291.47221
291.69574
291.92322
292.15386
292.38691
292.62161
292.85728
293.09327
293.329
293.56391
293.79744
294.02905
294.2582
294.48438
294.7071
294.92593
295.14049
295.35053
295.55587
295.7565
295.95247
296.14394
296.33115
296.51439
296.69403
296.87058
297.04463
297.21686
297.38795
297.55871
297.73007
297.90295
298.07829
298.25717
298.4411
298.63196
298.83161
299.04121
299.26021
299.4863
299.72245
299.99201
300.35041
300.86423
301.51248
302.08671
302.13773
301.33707
300.0681
298.97627
298.35351
298.10058
298.02308
298.00434
298.00068
298.00009
298.00001
298
293.66964
285.67729
289.39624
287.53367
288.85598
288.36892
288.87441
288.8645
289.10153
289.244
289.42328
289.5984
289.77928
289.9646
290.15476
290.35001
290.55076
290.7572
290.96957
291.18785
291.41191
291.64138
291.87573
292.11424
292.35609
292.60037
292.84615
293.09253
293.33865
293.58373
293.82707
294.06803
294.30601
294.54048
294.77092
294.99685
295.21783
295.4335
295.64357
295.84789
296.04646
296.23937
296.42683
296.60912
296.78661
296.95978
297.12915
297.29533
297.45902
297.62096
297.78195
297.9429
298.10478
298.26859
298.43531
298.60612
298.78264
298.96698
299.16083
299.36445
299.57614
299.79437
300.02763
300.31017
300.70327
301.2572
301.88799
302.33421
302.09155
301.04727
299.73188
298.74808
298.24729
298.06464
298.01366
298.00237
298.00034
298.00004
298
298
293.76162
285.74531
289.52531
287.68671
289.01338
288.54728
289.0428
289.07058
289.31157
289.47729
289.67127
289.86496
290.06411
290.26814
290.47726
290.69157
290.91134
291.13664
291.36757
291.604
291.84569
292.09217
292.3428
292.59676
292.85308
293.11073
293.36862
293.62569
293.88092
294.13341
294.38236
294.62706
294.86692
295.10142
295.33012
295.55262
295.76859
295.97779
296.18008
296.37549
296.56418
296.74644
296.92262
297.09317
297.25863
297.41964
297.57686
297.73103
297.88292
298.03337
298.18328
298.33362
298.48539
298.63965
298.79746
298.96014
299.12947
299.30749
299.49544
299.6924
299.89583
300.10683
300.34234
300.64839
301.08576
301.66975
302.24553
302.4862
301.91745
300.6675
299.37853
298.53924
298.16196
298.03854
298.00743
298.00117
298.00015
298.00002
298
298
293.86511
285.85027
289.681
287.87079
289.19313
288.76702
289.25572
289.31931
289.56639
289.75677
289.96844
290.18274
290.40261
290.62772
290.85813
291.09378
291.33473
291.5809
291.83218
292.08829
292.34882
292.61316
292.8805
293.1499
293.42023
293.69032
293.95893
294.22485
294.48697
294.74427
294.99588
295.24108
295.47933
295.71018
295.93331
296.1485
296.35557
296.55448
296.7453
296.92829
297.10383
297.27239
297.43453
297.59085
297.74207
297.88898
298.0324
298.17315
298.3121
298.45015
298.58828
298.7275
298.86884
299.01335
299.16223
299.31703
299.47962
299.65158
299.83312
300.0222
300.21669
300.4232
300.66992
301.01183
301.49863
302.08506
302.56746
302.50659
301.60042
300.21972
299.03307
298.36182
298.09797
298.02106
298.00366
298.00052
298.00006
298.00001
298
298
293.98415
285.99611
289.86931
288.08723
289.40164
289.03116
289.51109
289.61512
289.87184
290.08858
290.32159
290.55918
290.80267
291.05165
291.30601
291.56548
291.82988
292.09892
292.37223
292.64932
292.92954
293.21208
293.49595
293.78002
294.06302
294.34363
294.6205
294.89234
295.15794
295.41626
295.66644
295.90782
296.13995
296.36257
296.57554
296.77887
296.97264
297.15706
297.3325
297.49945
297.65853
297.81046
297.95597
298.09582
298.23089
298.3621
298.4904
298.61671
298.74193
298.86704
298.99303
299.12095
299.25183
299.38674
299.52703
299.67443
299.83073
299.99664
300.17079
300.35058
300.53688
300.74525
301.01658
301.40623
301.93621
302.47885
302.76786
302.3434
301.14869
299.73929
298.7203
298.22389
298.05405
298.01037
298.0016
298.0002
298.00002
298
298
298
294.11965
286.18595
290.0932
288.358
289.64165
289.3443
289.81687
289.96426
290.23558
290.48095
290.73939
291.00354
291.27392
291.54986
291.83104
292.11692
292.40702
292.70074
292.99741
293.29625
293.59631
293.89654
294.19572
294.49254
294.78559
295.07345
295.3547
295.62805
295.8923
296.14648
296.38984
296.6219
296.84241
297.05136
297.24892
297.43538
297.61117
297.7768
297.93295
298.08039
298.22001
298.3527
298.47937
298.60095
298.71842
298.83281
298.94516
299.05645
299.16763
299.27966
299.39353
299.51028
299.63098
299.75681
299.88918
300.02983
300.18006
300.33934
300.50487
300.67487
300.85698
301.07866
301.39072
301.83528
302.37621
302.82822
302.82521
301.99531
300.59349
299.26929
298.46081
298.12626
298.02678
298.0045
298.0006
298.00006
298
298
298
298
294.27373
286.42579
290.35778
288.67827
289.94047
289.71386
290.18177
290.37545
290.66734
290.94423
291.23244
291.52696
291.82783
292.1341
292.44506
292.75986
293.07761
293.39733
293.71796
294.03834
294.35721
294.67323
294.98495
295.29092
295.58963
295.87965
296.1596
296.4283
296.68472
296.9281
297.15797
297.37413
297.57668
297.76597
297.94251
298.10699
298.26018
298.40296
298.5363
298.66126
298.77892
298.89036
298.99663
299.09875
299.19778
299.29482
299.39095
299.48718
299.58446
299.68371
299.78585
299.8919
300.00304
300.12058
300.246
300.38059
300.52455
300.67597
300.83192
300.99425
301.18106
301.43218
301.79639
302.28658
302.78873
303.05131
302.64052
301.46728
299.9901
298.85081
298.26723
298.06346
298.01162
298.00165
298.00018
298.00001
298
298
298
298
294.45053
286.72555
290.66826
289.05969
290.29681
290.14885
290.61651
290.85918
291.17845
291.49073
291.81353
292.14279
292.47814
292.8182
293.16178
293.50757
293.85416
294.20012
294.54391
294.88399
295.21874
295.54657
295.86586
296.17509
296.47279
296.75764
297.02851
297.2845
297.52495
297.74952
297.95817
298.15115
298.329
298.4925
298.6426
298.78036
298.90691
299.02346
299.13124
299.23153
299.32557
299.41457
299.49963
299.58186
299.66233
299.74215
299.82238
299.90404
299.98803
300.07517
300.16633
300.26253
300.36506
300.47538
300.59482
300.72376
300.86073
301.00285
301.14981
301.31095
301.51647
301.81466
302.23817
302.7367
303.12096
303.07234
302.23402
300.80666
299.40516
298.51467
298.1386
298.02782
298.00421
298.00046
298.00003
298
298
298
298
298
294.6548
287.09773
291.02598
289.51069
290.71995
290.65917
291.13336
291.42845
291.78301
292.13591
292.49875
292.86759
293.24146
293.61841
293.99666
294.37428
294.7493
295.11976
295.48362
295.83898
296.18392
296.5167
296.83566
297.1394
297.42669
297.69662
297.94851
298.18202
298.39709
298.59399
298.77326
298.93572
299.08244
299.21464
299.33366
299.44091
299.53783
299.62586
299.70642
299.78093
299.8507
299.91699
299.98094
300.04363
300.10614
300.1695
300.23475
300.3028
300.37447
300.45054
300.53182
300.61937
300.71457
300.81885
300.93296
301.05594
301.18477
301.31727
301.45935
301.63156
301.87491
302.23187
302.69365
303.14469
303.33364
302.8287
301.61345
300.09344
298.89842
298.27706
298.06219
298.01013
298.00113
298.00005
297.99999
298
298
298
298
298
294.88998
287.55857
291.42479
290.0417
291.22303
291.25878
291.7491
292.10164
292.50027
292.90004
293.30852
293.72143
294.13696
294.55253
294.96559
295.37356
295.77382
296.16388
296.54128
296.90384
297.24952
297.57667
297.8839
298.17024
298.43507
298.67816
298.89962
299.09992
299.2798
299.44026
299.58255
299.70806
299.81834
299.91501
299.99973
300.07415
300.13989
300.1985
300.25149
300.30028
300.34623
300.39053
300.4343
300.47858
300.52436
300.57261
300.62422
300.68
300.74069
300.80699
300.87977
300.96017
301.04954
301.14885
301.2577
301.37369
301.49373
301.61922
301.76545
301.9659
302.26242
302.67524
303.13315
303.43085
303.25075
302.32606
300.84986
299.41967
298.5091
298.13008
298.02316
298.00269
298.00009
297.99996
297.99999
298
298
298
298
298
295.16074
288.13477
291.89577
290.67073
291.82595
291.96955
292.48772
292.90369
293.35498
293.8077
294.26643
294.72634
295.18459
295.63781
296.08256
296.51558
296.9336
297.33372
297.71328
298.07014
298.40255
298.7094
298.99003
299.24436
299.47275
299.67603
299.85533
300.01207
300.14788
300.26453
300.36387
300.44781
300.51826
300.57711
300.62617
300.66718
300.7018
300.73156
300.75794
300.78229
300.80585
300.82976
300.85505
300.88266
300.91348
300.94835
300.98802
301.03315
301.0844
301.14248
301.20836
301.28326
301.3682
301.46318
301.56625
301.67414
301.78621
301.91168
302.0771
302.32409
302.68257
303.11929
303.49134
303.55329
302.90668
301.59868
300.05131
298.85941
298.25249
298.05062
298.00633
298.00016
297.99985
297.99997
298
298
298
298
298
298
295.47993
288.85512
292.45492
291.4271
292.55751
292.82006
293.37895
293.8641
294.37537
294.8858
295.39732
295.90432
296.40268
296.88803
297.35604
297.80284
298.22481
298.61911
298.98341
299.31628
299.61693
299.88539
300.12229
300.32889
300.50683
300.65815
300.78507
300.88996
300.97521
301.0432
301.09623
301.13651
301.16613
301.18704
301.20106
301.20987
301.21499
301.21785
301.21974
301.22188
301.22536
301.23118
301.24024
301.25337
301.27133
301.29481
301.32439
301.36064
301.40415
301.45573
301.51648
301.58745
301.66893
301.75945
301.85575
301.95554
302.064
302.20162
302.40524
302.71117
303.11627
303.5255
303.73465
303.35445
302.28412
300.74799
299.33018
298.45387
298.10538
298.01484
298.00043
297.99958
297.99989
297.99999
298
298
298
298
298
298
295.8718
289.67978
293.13601
292.34329
293.45164
293.84161
294.4556
295.01568
295.59246
296.16288
296.72584
297.27471
297.80387
298.30811
298.78255
299.22336
299.62742
299.99283
300.31861
300.6049
300.85261
301.06352
301.23992
301.38456
301.50044
301.59069
301.65842
301.70669
301.73838
301.75619
301.7626
301.75989
301.75009
301.73506
301.71646
301.69575
301.67426
301.65318
301.63357
301.61644
301.60269
301.59316
301.58859
301.58968
301.59704
301.61119
301.6326
301.66177
301.69933
301.74624
301.80357
301.87185
301.95007
302.03519
302.12391
302.21808
302.33252
302.49926
302.75767
303.12174
303.53139
303.81486
303.68853
302.87927
301.46014
299.90566
298.76149
298.20699
298.03424
298.00159
297.999
297.99969
297.99996
298
298
298
298
298
298
298
296.37112
290.64154
293.98315
293.45188
294.54878
295.07297
295.75729
296.39724
297.04085
297.66713
298.27166
298.84679
299.38605
299.88428
300.33731
300.74272
301.09929
301.40735
301.66827
301.88451
302.05917
302.19595
302.29874
302.37161
302.41854
302.44339
302.44973
302.44091
302.41992
302.38945
302.35188
302.3093
302.26355
302.21623
302.16872
302.12222
302.07779
302.03635
301.9987
301.9656
301.93774
301.91577
301.90029
301.89182
301.89082
301.89767
301.91277
301.93663
301.97006
302.01408
302.06942
302.13554
302.20978
302.28831
302.3703
302.46555
302.60059
302.81405
303.13262
303.52696
303.86827
303.94719
303.37651
302.14862
300.56258
299.18743
298.37839
298.07605
298.00578
297.99807
297.9992
297.99987
298
298
298
298
298
298
298
298
297.02606
291.84175
295.03365
294.80195
295.90534
296.56839
297.33329
298.05105
298.75137
299.41512
300.03545
300.60504
301.11848
301.57269
301.96631
302.30011
302.57618
302.79806
302.96999
303.09692
303.18393
303.23624
303.25885
303.25652
303.23363
303.19418
303.14174
303.07948
303.01015
302.93614
302.85951
302.78202
302.70517
302.63022
302.55826
302.4902
302.42681
302.36874
302.31656
302.27078
302.23189
302.20034
302.17656
302.16091
302.15368
302.15513
302.16568
302.18598
302.21702
302.25966
302.31382
302.37738
302.44634
302.51789
302.59711
302.70448
302.87619
303.14744
303.51435
303.88765
304.10369
303.77597
302.78862
301.27245
299.73085
298.65323
298.16044
298.01876
297.99734
297.99818
297.99961
297.99998
298.00001
298
298
298
298
298
298
298
297.88704
293.35041
296.36789
296.46782
297.59547
298.39188
299.23027
300.00447
300.72925
301.38923
301.97837
302.4927
302.93093
303.29466
303.58727
303.81393
303.98065
304.09413
304.16112
304.1883
304.18194
304.1479
304.09142
304.01722
303.92941
303.83162
303.72694
303.61804
303.50718
303.39627
303.28692
303.18047
303.07803
302.98054
302.88878
302.80339
302.7249
302.65374
302.59025
302.53477
302.4876
302.44901
302.41927
302.39855
302.38699
302.38481
302.39249
302.41091
302.44108
302.48336
302.53627
302.59602
302.65841
302.72449
302.80868
302.94292
303.16642
303.49389
303.87765
304.16226
304.08414
303.3622
302.00555
300.389
299.06115
298.3158
298.05266
297.99874
297.99624
297.99895
297.99991
298.00002
298.00001
298
298
298
298
298
298
298
298.93935
295.28074
298.08543
298.5297
299.68519
300.58918
301.46099
302.23755
302.92488
303.51521
304.0083
304.4072
304.71743
304.9468
305.10395
305.19821
305.23862
305.2339
305.19197
305.11999
305.02425
304.91021
304.78257
304.6453
304.5018
304.35489
304.20697
304.06002
303.91569
303.77534
303.6401
303.51089
303.38846
303.27344
303.16633
303.06754
302.97742
302.89622
302.82416
302.76141
302.70817
302.66456
302.6307
302.6066
302.59231
302.58804
302.59443
302.61247
302.64292
302.68507
302.73576
302.79013
302.84592
302.9113
303.01156
303.18558
303.46503
303.83255
304.17325
304.3148
303.85038
302.73271
301.15216
299.62197
298.58752
298.13198
298.0084
297.9937
297.99745
297.9996
298.00002
298.00002
298
298
298
298
298
298
298
298
300.3634
297.74377
300.28257
301.04484
302.18059
303.1402
303.96405
304.6536
305.21726
305.65902
305.9884
306.2173
306.35847
306.42511
306.42958
306.38338
306.29661
306.17811
306.03536
305.87469
305.70134
305.51965
305.33317
305.14483
304.95701
304.77164
304.59031
304.41431
304.24468
304.08228
303.92777
303.78171
303.64453
303.51658
303.39815
303.28946
303.1907
303.10202
303.02354
302.95536
302.89759
302.85031
302.81351
302.78713
302.77117
302.76597
302.77229
302.79104
302.82227
302.86381
302.9109
302.9589
303.01003
303.08169
303.20934
303.43393
303.76135
304.1328
304.39775
304.22798
303.41772
301.99276
300.35318
299.03202
298.29836
298.04266
297.99358
297.99465
297.99868
297.99995
298.00005
298.00001
298
298
298
298
298
298
298
298
302.20219
300.81239
302.96957
303.99973
305.10683
305.91677
306.58037
307.07779
307.42989
307.65428
307.77061
307.79795
307.75357
307.65286
307.50878
307.33227
307.13222
306.91588
306.68904
306.45631
306.22134
305.98702
305.75561
305.52889
305.30824
305.09478
304.88935
304.69263
304.50515
304.32731
304.15943
304.00175
303.85443
303.71762
303.59142
303.4759
303.37111
303.27711
303.19394
303.12168
303.06039
303.01012
302.97086
302.94257
302.92536
302.91971
302.92647
302.94618
302.97781
303.01759
303.0599
303.10199
303.15287
303.24033
303.40426
303.67678
304.04118
304.36819
304.49561
304.00628
302.86219
301.25839
299.69795
298.62526
298.13983
298.00515
297.99034
297.99634
297.99949
298.00008
298.00003
298
298
298
298
298
298
298
298
298
304.48355
304.49607
306.37302
307.28278
308.12234
308.69703
309.08214
309.29759
309.37725
309.34923
309.23845
309.06579
308.84807
308.59875
308.32829
308.04485
307.75464
307.4624
307.17174
306.88536
306.60527
306.33298
306.0696
305.81593
305.57254
305.33986
305.11815
304.90763
304.7084
304.52055
304.34411
304.17908
304.02545
303.88317
303.75221
303.63251
303.52401
303.42666
303.34045
303.26537
303.20144
303.14867
303.1071
303.07684
303.05823
303.05197
303.05881
303.07871
303.10944
303.14613
303.18345
303.22194
303.27701
303.38605
303.59281
303.90327
304.27697
304.55648
304.43054
303.67893
302.28979
300.62466
299.21445
298.3754
298.05838
297.99041
297.99164
297.99778
297.99992
298.0001
298.00002
298
298
298
298
298
298
298
298
298
307.34769
308.63884
309.8869
310.54402
310.99474
311.19516
311.22286
311.11732
310.91656
310.64922
310.33717
309.99684
309.64024
309.27621
308.9111
308.5495
308.19468
307.84894
307.51389
307.19059
306.87976
306.58184
306.29705
306.0255
305.76717
305.522
305.28986
305.07062
304.86412
304.6702
304.4887
304.31946
304.16234
304.01717
303.88382
303.76213
303.65194
303.55314
303.46562
303.38927
303.32403
303.26981
303.22667
303.19488
303.1751
303.16818
303.17464
303.19363
303.22172
303.25357
303.2856
303.32327
303.38728
303.51646
303.75773
304.10102
304.43553
304.65867
304.31534
303.33156
301.79645
300.14992
298.89237
298.23441
298.01975
297.98579
297.99306
297.9987
298.00012
298.00009
298.00001
298
298
298
298
298
298
298
298
298
311.03921
312.72457
313.2344
313.41048
313.36197
313.14621
312.82192
312.42916
311.99613
311.54242
311.08113
310.62119
310.1685
309.72693
309.29898
308.88619
308.48946
308.10924
307.74569
307.39877
307.06827
306.75395
306.45547
306.17247
305.90459
305.65145
305.4127
305.18799
304.97699
304.7794
304.59494
304.42337
304.26444
304.11794
303.98366
303.86138
303.7509
303.65205
303.56465
303.48854
303.42356
303.36954
303.3265
303.2948
303.27528
303.2689
303.27544
303.29364
303.3186
303.34469
303.37033
303.40629
303.47877
303.62373
303.8832
304.24485
304.54108
304.66186
304.17924
303.05248
301.45449
299.85655
298.71152
298.16152
298.00168
297.98448
297.99408
297.99923
298.00021
298.00008
298.00001
298
298
298
298
298
298
298
298
298
315.72289
316.07161
315.81855
315.47282
314.98345
314.42931
313.84381
313.2512
312.66473
312.09255
311.53912
311.00688
310.49693
310.00959
309.54471
309.10187
308.68046
308.27982
307.89923
307.53798
307.19537
306.87074
306.56345
306.27288
305.99849
305.73974
305.49614
305.26724
305.05264
304.85195
304.66484
304.491
304.33018
304.1821
304.04653
303.92323
303.81198
303.71258
303.62486
303.54864
303.48372
303.42993
303.38727
303.35616
303.33741
303.33183
303.34111
303.35943
303.38288
303.40489
303.42572
303.45885
303.5337
303.69051
303.96034
304.31095
304.60063
304.65544
304.11789
302.94428
301.33434
299.76149
298.65504
298.13703
297.99423
297.98376
297.99437
297.99945
298.00026
298.00008
298
298
298
298
298
298
298
298
298
298
317.61186
317.76966
317.23018
316.51365
315.78259
315.05204
314.34114
313.6571
313.00312
312.38014
311.78788
311.22542
310.69158
310.18504
309.70448
309.24859
308.81616
308.40602
308.01712
307.64846
307.29915
306.96835
306.65531
306.35932
306.07975
305.81602
305.5676
305.334
305.11479
304.90956
304.71798
304.53971
304.3745
304.22207
304.08219
303.95463
303.83921
303.73579
303.64429
303.56458
303.4964
303.43932
303.39311
303.35853
303.33738
303.32986
303.33861
303.35609
303.37747
303.39647
303.41731
303.45717
303.53884
303.70113
303.97861
304.36869
304.66939
304.78129
304.27474
303.12344
301.5032
299.88274
298.71563
298.1549
297.99522
297.98136
297.9936
297.99938
298.00031
298.00009
298
298
298
298
298
298
298
298
298
298
316.61321
304.43691
301.92889
301.84629
302.0201
302.01003
301.91282
301.79082
301.6685
301.54799
301.42876
301.30839
301.18845
301.06854
300.94962
300.83136
300.71341
300.59619
300.47989
300.36459
300.25038
300.13732
300.02549
299.91502
299.80598
299.69838
299.59226
299.48768
299.38475
299.28353
299.18406
299.08635
298.99043
298.89637
298.80424
298.71405
298.62578
298.53945
298.4551
298.37277
298.29249
298.21434
298.13835
298.06461
297.99316
297.92399
297.857
297.792
297.72858
297.66613
297.60374
297.54034
297.47497
297.40725
297.33779
297.26839
297.20195
297.14232
297.09418
297.0614
297.04046
297.00741
296.91175
296.70039
296.37672
296.031
295.79646
295.81524
296.22285
297.01208
297.92757
298.58664
298.79315
298.64853
298.39117
298.18616
298.07246
298.02356
298.00649
298.00149
315.30176
301.03863
299.65317
299.919
300.28809
300.40548
300.45812
300.4693
300.46723
300.44725
300.41667
300.37591
300.32786
300.27289
300.21221
300.14658
300.07697
300.00391
299.92793
299.84945
299.7689
299.68662
299.60299
299.51839
299.43309
299.34726
299.26112
299.17495
299.089
299.00347
298.91847
298.83412
298.75056
298.66796
298.5865
298.50626
298.42729
298.34969
298.27357
298.19903
298.12612
298.0549
297.98539
297.91762
297.85154
297.78707
297.72399
297.66199
297.60059
297.53916
297.477
297.41347
297.34829
297.28196
297.21594
297.15272
297.09549
297.04796
297.01313
296.98981
296.96481
296.90392
296.75727
296.49619
296.16392
295.86893
295.71981
295.81881
296.28642
297.11115
298.04467
298.70501
298.88998
298.71086
298.42315
298.19945
298.07694
298.02478
298.00676
298.00153
314.63034
299.06116
298.28676
298.60367
299.04813
299.19065
299.30615
299.36685
299.4205
299.45049
299.4703
299.47743
299.47593
299.46559
299.448
299.42374
299.39362
299.35821
299.31805
299.27357
299.22522
299.17339
299.1185
299.06105
299.00126
298.93935
298.87566
298.81057
298.74437
298.6773
298.60953
298.54121
298.4726
298.40398
298.33557
298.26754
298.19999
298.1331
298.06705
298.00196
297.9379
297.8749
297.81296
297.75205
297.69207
297.63283
297.57404
297.51536
297.45637
297.39661
297.33578
297.27391
297.21153
297.14992
297.09115
297.03788
296.99284
296.95818
296.93326
296.91015
296.86683
296.76494
296.56565
296.27176
295.95839
295.73365
295.67619
295.84831
296.36478
297.21876
298.16774
298.82327
298.98384
298.76929
298.4522
298.21112
298.08076
298.0258
298.00697
298.00156
313.97949
297.43977
297.1357
297.44112
297.96559
298.12372
298.29864
298.39347
298.49117
298.55576
298.61234
298.65371
298.68589
298.70801
298.72207
298.72878
298.72882
298.72276
298.71109
298.69424
298.67267
298.6467
298.61682
298.58348
298.54684
298.50706
298.46456
298.41972
298.37282
298.32406
298.27359
298.22161
298.16843
298.11439
298.05975
298.00467
297.9493
297.89385
297.83858
297.78358
297.72893
297.67466
297.62074
297.56714
297.51372
297.46023
297.4064
297.35195
297.29666
297.24031
297.18315
297.12588
297.0697
297.01641
296.96818
296.92715
296.89463
296.86983
296.84723
296.8121
296.7368
296.58648
296.34246
296.03995
295.77254
295.6302
295.65727
295.90018
296.45583
297.33406
298.29493
298.94242
299.07422
298.82394
298.4785
298.22132
298.08397
298.0266
298.00713
298.00158
313.22465
296.11841
296.28171
296.49851
297.08573
297.22983
297.45308
297.5615
297.69232
297.7772
297.85932
297.92297
297.97805
298.02227
298.05818
298.08674
298.10844
298.12385
298.13333
298.13743
298.13657
298.131
298.12123
298.10767
298.09032
298.06934
298.04516
298.01815
297.98851
297.95636
297.92183
297.88512
297.84658
297.80655
297.76527
297.72287
297.67949
297.63539
297.5908
297.54584
297.50058
297.45506
297.40928
297.36324
297.31683
297.26984
297.22211
297.17353
297.12414
297.074
297.02379
296.97471
296.92822
296.88614
296.85007
296.82087
296.79745
296.77522
296.74359
296.68297
296.56555
296.36814
296.0975
295.81453
295.61601
295.56887
295.67442
295.97141
296.55869
297.45679
298.42523
299.06027
299.1605
298.87442
298.50188
298.23001
298.08653
298.02718
298.00723
298.00158
312.28733
295.04944
295.64752
295.71402
296.3592
296.46758
296.73406
296.84037
296.99854
297.09358
297.19438
297.27237
297.3438
297.40376
297.45476
297.49884
297.53598
297.56688
297.59175
297.61132
297.62597
297.63591
297.64167
297.64362
297.64163
297.63587
297.62677
297.61467
297.59969
297.58188
297.56131
297.5382
297.5129
297.48572
297.45683
297.42632
297.39428
297.361
297.32672
297.29152
297.2555
297.21874
297.18127
297.14321
297.10456
297.06522
297.02521
296.98466
296.94388
296.90309
296.86317
296.82536
296.79087
296.76086
296.7357
296.71427
296.6926
296.66233
296.60909
296.51207
296.35023
296.11834
295.84747
295.61293
295.49731
295.53941
295.71924
296.05921
296.67154
297.58557
298.5578
299.17654
299.24287
298.92067
298.5223
298.23712
298.08838
298.02752
298.00726
298.00158
311.13197
294.19818
295.20666
295.08352
295.78217
295.83451
296.13562
296.22505
296.40376
296.49827
296.61173
296.69623
296.77712
296.84689
296.90733
296.96151
297.00875
297.05011
297.08562
297.1162
297.14212
297.16352
297.18097
297.19474
297.20467
297.21092
297.21393
297.214
297.21119
297.20545
297.19686
297.18561
297.17204
297.15642
297.13886
297.11935
297.09798
297.07503
297.05075
297.02521
296.99853
296.97081
296.94217
296.91286
296.88303
296.85275
296.82219
296.79174
296.76186
296.73274
296.70511
296.67979
296.65713
296.63704
296.61811
296.59696
296.56692
296.51709
296.43189
296.29473
296.09719
295.85303
295.61124
295.44841
295.42839
295.55032
295.78813
296.16085
296.7927
297.7195
298.69229
299.29111
299.32009
298.96251
298.53964
298.24252
298.08953
298.02764
298.00724
298.00156
309.74703
293.52986
294.92206
294.58834
295.33549
295.31461
295.64068
295.70259
295.89413
295.97992
296.09993
296.1843
296.27012
296.34257
296.40848
296.46852
296.52195
296.56999
296.61251
296.65062
296.68448
296.71412
296.74012
296.76274
296.7818
296.79742
296.81005
296.81997
296.8272
296.83162
296.83326
296.83234
296.82918
296.82398
296.8168
296.80757
296.79636
296.78347
296.76914
296.75341
296.73646
296.71836
296.69931
296.67967
296.65974
296.63968
296.61976
296.60046
296.58226
296.5651
296.54922
296.53459
296.52033
296.50475
296.48451
296.4542
296.40557
296.32728
296.20657
296.03581
295.82051
295.59139
295.40752
295.33143
295.39837
295.59487
295.87684
296.27337
296.92059
297.85786
298.82814
299.40304
299.39285
298.99963
298.55361
298.24616
298.09
298.02755
298.00715
298.00153
308.13407
293.01899
294.78007
294.21785
295.00115
294.90029
295.24002
295.26736
295.46243
295.53175
295.65207
295.73153
295.81717
295.88949
295.95583