/*--------------------------------*- C++ -*----------------------------------*\
  =========                 |
  \\      /  F ield         | OpenFOAM: The Open Source CFD Toolbox
   \\    /   O peration     | Website:  https://openfoam.org
    \\  /    A nd           | Version:  12
     \\/     M anipulation  |
\*---------------------------------------------------------------------------*/
FoamFile
{
    format      ascii;
    class       volVectorField;
    location    "0.004";
    object      U;
}
// * * * * * * * * * * * * * * * * * * * * * * * * * * * * * * * * * * * * * //

dimensions      [0 1 -1 0 0 0 0];

internalField   nonuniform List<vector> 
16000
(
(218.82009 -3.1149081e-17 -8.2798488)
(251.70395 0 5.3230529)
(238.83308 0 -7.4360559)
(245.673 4.9636263e-17 3.680863)
(241.35137 -4.8966819e-17 -5.8504355)
(243.38678 0 1.6765167)
(241.652 0 -4.2817122)
(242.08154 8.38579e-17 -0.065584148)
(241.25564 -7.966959e-17 -3.1658294)
(241.11354 0 -1.2883025)
(240.5848 7.1996148e-17 -2.5961688)
(240.23534 -2.0511873e-16 -2.0116169)
(239.79255 1.2982613e-16 -2.4642257)
(239.36801 -1.2349735e-16 -2.4008545)
(238.91621 1.1717101e-16 -2.5694314)
(238.44996 -3.4824361e-18 -2.6446886)
(237.96314 -3.3081752e-18 -2.7526869)
(237.45577 -9.7429389e-17 -2.8494212)
(236.92691 1.908962e-16 -2.9478717)
(236.37647 -9.0572926e-17 -3.044006)
(235.80469 1.7229549e-16 -3.1381836)
(235.21209 -1.6331841e-16 -3.2296711)
(234.59926 0 -3.3179093)
(233.96678 1.5205206e-16 -3.4022741)
(233.31507 -4.1132191e-18 -3.4821375)
(232.64443 -2.6537392e-16 -3.556874)
(231.95506 1.2577741e-16 -3.6258715)
(231.24717 0 -3.6885484)
(230.52111 0 -3.7443478)
(229.7775 2.1848974e-16 -3.792734)
(229.01715 -2.0355583e-16 -3.8331844)
(228.241 0 -3.8651794)
(227.45 0 -3.8882385)
(226.64517 0 -3.9019665)
(225.82764 5.1463683e-18 -3.9060943)
(224.99878 1.559273e-16 -3.9004985)
(224.1601 -1.4271483e-16 -3.8851672)
(223.31317 -1.3982953e-16 -3.8601839)
(222.45954 1.2377963e-16 -3.8257497)
(221.60079 0 -3.782219)
(220.73854 -1.1854225e-16 -3.7301303)
(219.87427 1.1187252e-16 -3.6702106)
(219.00929 -2.1212032e-16 -3.603361)
(218.1449 2.0009143e-16 -3.5306462)
(217.28265 -1.9553907e-16 -3.4532671)
(216.42419 3.5798214e-16 -3.3725581)
(215.57092 5.7015068e-18 -3.2900273)
(214.72372 3.8369112e-19 -3.2074085)
(213.88317 -1.507399e-16 -3.1266722)
(213.04978 1.426942e-16 -3.0499676)
(212.22392 -1.2597931e-16 -2.9795758)
(211.40582 0 -2.9178814)
(210.59573 7.5076851e-18 -2.8673777)
(209.79369 0 -2.8307069)
(208.99938 6.6861066e-18 -2.8107545)
(208.21228 2.081027e-16 -2.8107155)
(207.43169 -3.8032566e-16 -2.8341491)
(206.65664 1.07547e-17 -2.8851919)
(205.88554 1.6906935e-16 -2.9688848)
(205.11633 -1.4998877e-16 -3.0914179)
(204.34688 1.4110775e-16 -3.2593845)
(203.57662 -8.9082333e-18 -3.475671)
(202.81025 0 -3.7350623)
(202.05632 0 -4.0336337)
(201.30704 -1.1260284e-16 -4.4110684)
(200.50749 1.1305015e-16 -5.0068147)
(199.55773 -1.0092699e-16 -6.0378768)
(198.42486 1.9679827e-16 -7.5508856)
(197.31049 -1.9240422e-16 -9.0740078)
(196.64469 8.5308172e-17 -9.5989809)
(196.82303 5.3875913e-18 -8.3232054)
(197.69418 0 -5.7473255)
(198.70177 4.7947822e-18 -3.1404216)
(199.42096 -4.5393033e-18 -1.3703171)
(199.7921 0 -0.48400151)
(199.93921 -3.3844482e-17 -0.14075761)
(199.98539 6.2633443e-17 -0.034085796)
(199.99709 -3.1813705e-17 -0.0069424403)
(199.99951 0 -0.0012000814)
(199.99993 0 -0.00018074403)
(219.03386 0 -11.090578)
(252.50899 -3.7361523e-18 3.2598372)
(238.99676 -1.1964747e-16 -10.338775)
(246.25237 1.1049188e-16 1.5936697)
(241.56652 0 -8.699206)
(243.85144 1.0165194e-16 -0.48450864)
(241.8775 -1.8769936e-16 -7.0246655)
(242.42635 -1.0335694e-19 -2.3511412)
(241.49839 8.4603648e-17 -5.7600371)
(241.35242 0 -3.694215)
(240.78939 -1.5284698e-16 -5.0819296)
(240.40722 1.4952216e-16 -4.4666996)
(239.92891 1.4221542e-16 -4.9072935)
(239.46728 -2.617822e-16 -4.8468438)
(238.97918 1.2033381e-16 -4.9965784)
(238.47576 1.1070363e-17 -5.0665386)
(237.95172 1.156868e-16 -5.1604916)
(237.40657 -1.0301694e-16 -5.2452337)
(236.83927 0 -5.32932)
(236.24949 0 -5.4101003)
(235.63734 5.6961883e-18 -5.4874474)
(235.00327 -1.783938e-16 -5.5606462)
(234.34799 3.3827068e-16 -5.6290289)
(233.67224 -3.1607323e-16 -5.6918829)
(232.97676 1.4284169e-16 -5.7484838)
(232.26214 0 -5.7981178)
(231.52891 1.2460731e-16 -5.840089)
(230.77756 -1.3363995e-16 -5.8737438)
(230.00866 0 -5.8984687)
(229.22299 3.5501543e-18 -5.9136874)
(228.42149 -1.341953e-17 -5.9188596)
(227.6053 0 -5.9134745)
(226.77565 0 -5.8970852)
(225.93391 -1.709624e-16 -5.869357)
(225.08151 3.3951671e-16 -5.8300923)
(224.22008 -1.6302621e-16 -5.7792511)
(223.35129 -1.5945349e-16 -5.7169253)
(222.47688 1.4593361e-16 -5.6433325)
(221.59858 -1.1242394e-16 -5.5588411)
(220.71819 -3.1750536e-19 -5.4640028)
(219.83747 -3.0023307e-19 -5.3595608)
(218.95806 2.3342343e-16 -5.2464513)
(218.08135 -1.101293e-16 -5.1257966)
(217.20855 0 -4.9989067)
(216.341 2.0304206e-16 -4.8672578)
(215.4802 1.2072714e-17 -4.7324644)
(214.62753 -5.0462625e-18 -4.5962693)
(213.78388 -1.6511021e-16 -4.4605702)
(212.94972 0 -4.3274603)
(212.12536 -1.4721972e-16 -4.1992467)
(211.31087 -8.9797768e-18 -4.078444)
(210.5061 2.613619e-16 -3.9676894)
(209.71083 -1.3069391e-16 -3.8696709)
(208.92481 0 -3.787142)
(208.14754 -2.0512478e-17 -3.7230363)
(207.37828 -2.1265063e-16 -3.6805338)
(206.61621 3.6369929e-16 -3.6631254)
(205.86012 -2.1674355e-16 -3.6749598)
(205.10793 0 -3.7213363)
(204.35713 -1.7237875e-16 -3.8087061)
(203.60606 1.8100709e-16 -3.9429471)
(202.85584 2.6963842e-17 -4.124404)
(202.11211 0 -4.3448369)
(201.37917 -1.4372002e-16 -4.6021604)
(200.63688 7.0783908e-18 -4.9491906)
(199.81869 1.1305863e-16 -5.5449761)
(198.834 -2.0062491e-17 -6.604653)
(197.69094 9.5094941e-17 -8.1233134)
(196.63566 -1.0703057e-16 -9.5492579)
(196.1439 5.627513e-18 -9.8060254)
(196.58207 -5.2999667e-18 -8.2137899)
(197.66874 0 -5.4484125)
(198.76668 -4.6837397e-18 -2.8487403)
(199.48574 4.4141503e-18 -1.1843236)
(199.82896 8.3391315e-18 -0.39642005)
(199.95372 9.8751474e-19 -0.10885964)
(199.98968 0 -0.024831692)
(199.99808 3.0275198e-17 -0.0047588642)
(199.9997 -5.7657813e-17 -0.00077189575)
(199.99996 2.5876021e-17 -0.00010831473)
(219.15475 0 -13.942068)
(253.1958 -1.2288483e-16 1.0165344)
(239.09539 2.5013268e-16 -13.292009)
(246.71321 -2.2374953e-16 -0.64964871)
(241.73407 1.1046315e-16 -11.599507)
(244.15829 -3.266507e-18 -2.821336)
(242.05451 9.9600952e-17 -9.7940012)
(242.61661 -9.4349175e-17 -4.8171126)
(241.63168 -5.6109023e-18 -8.4032039)
(241.47072 -5.3279435e-18 -6.248072)
(240.86007 -1.0121727e-17 -7.6470665)
(240.44049 1.3939994e-16 -7.0375463)
(239.9253 -1.4128634e-16 -7.4470505)
(239.42419 1.3869046e-16 -7.394719)
(238.89667 -1.1913322e-16 -7.5233007)
(238.35291 -1.5614965e-17 -7.5863047)
(237.788 0 -7.6654596)
(237.20136 1.1632022e-20 -7.7363466)
(236.59187 -2.2714117e-16 -7.8044044)
(235.95907 -3.7426236e-19 -7.8676851)
(235.30298 1.7406929e-16 -7.9257742)
(234.62401 1.7109423e-17 -7.9778948)
(233.92294 -2.1629451e-17 -8.0232832)
(233.20067 0 -8.0611299)
(232.45821 -2.5107854e-20 -8.0906212)
(231.69648 -1.6608722e-16 -8.1109445)
(230.91638 1.4833433e-16 -8.1213237)
(230.11876 8.2663792e-18 -8.121032)
(229.30454 0 -8.1094106)
(228.47472 -7.4165181e-18 -8.0858623)
(227.63048 -4.7009569e-20 -8.0498622)
(226.7732 -1.9997249e-16 -8.0009509)
(225.90439 2.0140469e-16 -7.9387629)
(225.02574 1.1992508e-17 -7.8630714)
(224.13904 -1.8070766e-16 -7.7738038)
(223.24618 1.4909083e-16 -7.6710649)
(222.34906 -1.8177654e-16 -7.5551195)
(221.4496 1.5232042e-16 -7.4263984)
(220.54972 -1.4420494e-16 -7.2855186)
(219.65135 1.3594186e-16 -7.1333087)
(218.75637 1.6101046e-17 -6.9707935)
(217.86649 0 -6.7991779)
(216.98315 2.0057881e-16 -6.6198476)
(216.10756 -2.4282542e-16 -6.4343941)
(215.24086 0 -6.2446125)
(214.38428 1.8032838e-16 -6.0524549)
(213.53892 -1.5814746e-16 -5.8599604)
(212.70552 1.7078499e-16 -5.6692364)
(211.88441 -1.8062294e-16 -5.482498)
(211.0758 0 -5.3021515)
(210.27957 1.7830516e-16 -5.130849)
(209.49519 -1.3391809e-16 -4.9714163)
(208.72192 0 -4.8267359)
(207.95909 0 -4.6997161)
(207.20584 1.2568502e-16 -4.5933824)
(206.46121 -2.0992819e-16 -4.5109168)
(205.7242 1.2319281e-16 -4.4556958)
(204.99355 1.8569569e-16 -4.4317488)
(204.26696 4.6184275e-19 -4.4444448)
(203.54153 4.5322562e-19 -4.5002931)
(202.81573 -3.2731181e-16 -4.604137)
(202.09192 9.0231706e-17 -4.7540699)
(201.3766 0 -4.9413408)
(200.67112 1.4404866e-16 -5.1703696)
(199.94549 -1.6509031e-16 -5.5092468)
(199.12057 1.1340442e-16 -6.1297549)
(198.10511 1.4066353e-17 -7.2253046)
(196.93834 -8.7318012e-17 -8.7182622)
(195.92946 1.1789284e-17 -9.9692125)
(195.62826 2.2209002e-17 -9.8586123)
(196.34852 -1.0350389e-16 -7.9035095)
(197.65329 9.7836441e-17 -4.9996212)
(198.83204 -7.2715415e-17 -2.4855553)
(199.54367 1.3714717e-16 -0.979468)
(199.85806 -5.6517403e-17 -0.31008958)
(199.96404 -6.0787717e-17 -0.080506189)
(199.99248 5.0227855e-17 -0.017345775)
(199.99869 0 -0.0031353873)
(199.99981 3.2096596e-18 -0.0004784093)
(199.99998 -1.215903e-17 -6.2836468e-05)
(219.15815 0 -16.851791)
(253.76899 0 -1.3376302)
(239.07585 0 -16.362803)
(247.0719 1.0710737e-16 -2.9823637)
(241.78178 -1.2434052e-16 -14.608853)
(244.33551 -2.2153439e-16 -5.2587808)
(242.10737 2.1070522e-16 -12.659751)
(242.69817 -1.2502382e-17 -7.3879308)
(241.64072 5.9342938e-18 -11.126736)
(241.43404 -1.7482095e-16 -8.9027196)
(240.78686 1.7111235e-16 -10.291533)
(240.32585 1.0154967e-17 -9.7020268)
(239.77056 -1.544288e-16 -10.072356)
(239.22598 1.3719566e-16 -10.03011)
(238.65497 1.4107617e-20 -10.136446)
(238.0665 -8.2682329e-18 -10.190756)
(237.45629 0 -10.253854)
(236.82367 -7.4162699e-18 -10.30878)
(236.16756 -2.1147147e-16 -10.358537)
(235.48745 2.1350178e-16 -10.401619)
(234.78331 1.2653251e-17 -10.437381)
(234.05559 -1.1996584e-17 -10.464961)
(233.30511 2.1654598e-16 -10.4835)
(232.53296 -1.7247412e-16 -10.492106)
(231.74041 1.0212486e-17 -10.489877)
(230.92876 1.9395473e-16 -10.475933)
(230.09931 -1.2827015e-16 -10.449434)
(229.25335 0 -10.409616)
(228.39219 1.4828404e-16 -10.355793)
(227.51718 -1.2444034e-16 -10.287388)
(226.62982 2.507929e-16 -10.203921)
(225.73176 -1.3357302e-17 -10.105031)
(224.82484 -2.1067171e-16 -9.9904945)
(223.91105 1.747953e-16 -9.8602546)
(222.99251 -1.8824235e-16 -9.7144347)
(222.07136 -9.5248333e-20 -9.5533524)
(221.14974 2.104779e-16 -9.3775155)
(220.22974 -3.1764458e-16 -9.1876363)
(219.31344 9.3454984e-17 -8.9846522)
(218.40285 3.5448704e-17 -8.7697263)
(217.49986 -5.0081531e-17 -8.5442242)
(216.60615 0 -8.3096757)
(215.72313 -8.9148994e-17 -8.0677798)
(214.85193 1.3948928e-16 -7.8204294)
(213.99349 -2.1076452e-16 -7.5697267)
(213.14873 1.9798858e-16 -7.317941)
(212.31838 -2.1007666e-16 -7.0674119)
(211.50275 3.9512689e-16 -6.8204913)
(210.70192 -3.0969214e-16 -6.5795562)
(209.91587 3.1058826e-16 -6.3470963)
(209.14439 -1.4566734e-16 -6.1257969)
(208.38667 1.3734193e-16 -5.9185328)
(207.64149 -9.6447938e-17 -5.7282793)
(206.90768 3.0322338e-17 -5.5580704)
(206.184 0 -5.4110309)
(205.46906 0 -5.2903771)
(204.7615 0 -5.199423)
(204.05994 2.3447549e-17 -5.142049)
(203.36217 0 -5.1234839)
(202.66516 -1.6557805e-16 -5.1499207)
(201.96754 1.9370334e-16 -5.2247906)
(201.27272 -1.0934826e-16 -5.3440036)
(200.58715 -4.1150149e-19 -5.4995748)
(199.90685 2.5578278e-16 -5.7054885)
(199.1896 3.0424874e-17 -6.0480098)
(198.34445 -1.4043321e-16 -6.710826)
(197.28877 5.3156715e-17 -7.8534796)
(196.11446 -1.4858103e-16 -9.3043356)
(195.212 -4.66726e-17 -10.320549)
(195.19576 -6.5480332e-17 -9.7707213)
(196.23632 -6.0585811e-17 -7.4565895)
(197.73382 5.7503363e-17 -4.4698464)
(198.94352 0 -2.1004388)
(199.61407 0 -0.78050498)
(199.88744 -1.5566887e-17 -0.23315426)
(199.97323 0 -0.057044756)
(199.99474 6.8667661e-18 -0.011586853)
(199.99914 5.1670573e-17 -0.0019711643)
(199.99988 -7.2972055e-17 -0.00028236015)
(199.99999 9.9982937e-24 -3.4683821e-05)
(219.05053 0 -19.940392)
(254.21804 -8.8846104e-18 -3.7575035)
(238.93466 2.6785175e-16 -19.557641)
(247.32366 -2.5053566e-16 -5.4281998)
(241.69641 2.5558923e-16 -17.712176)
(244.41494 -2.3396158e-16 -7.8240653)
(242.0085 -2.2304868e-16 -15.598355)
(242.64914 2.1113455e-16 -10.082372)
(241.47699 0 -13.915164)
(241.24596 0 -11.671529)
(240.55974 1.8098462e-16 -13.017866)
(240.05059 -1.7149774e-16 -12.467711)
(239.45027 -1.0172984e-17 -12.789923)
(238.85661 2.8992936e-17 -12.758147)
(238.23654 -9.1570481e-18 -12.841161)
(237.59772 3.478161e-17 -12.883832)
(236.93653 0 -12.92877)
(236.2523 0 -12.964681)
(235.54404 -2.3753446e-16 -12.9929)
(234.81129 2.1063629e-16 -13.012113)
(234.05407 0 -13.021482)
(233.27285 0 -13.020041)
(232.4686 -1.9160671e-16 -13.006824)
(231.6426 3.6274156e-16 -12.980853)
(230.79642 -1.7156376e-16 -12.941154)
(229.93175 -2.0296157e-17 -12.886797)
(229.05037 -3.8495894e-17 -12.816911)
(228.15404 -1.4587381e-16 -12.730725)
(227.24455 1.2046058e-16 -12.627585)
(226.3237 0 -12.506972)
(225.39337 -3.0888889e-17 -12.368519)
(224.45557 0 -12.21203)
(223.51246 0 -12.037492)
(222.56635 2.0825495e-16 -11.845103)
(221.61964 -2.2075068e-16 -11.635263)
(220.67472 2.3123022e-17 -11.408593)
(219.73389 -2.1818683e-17 -11.165937)
(218.79941 -4.1360729e-17 -10.908376)
(217.87346 -1.8887917e-19 -10.637241)
(216.95803 1.7815204e-19 -10.35409)
(216.05494 -1.6753744e-19 -10.06068)
(215.1657 0 -9.7589111)
(214.29155 -1.2267577e-16 -9.4508438)
(213.43345 1.1517638e-16 -9.1387019)
(212.5921 0 -8.824886)
(211.76804 -5.1132546e-17 -8.5119391)
(210.96154 1.9200919e-16 -8.2024488)
(210.17243 -2.2497629e-16 -7.8989934)
(209.4003 -2.1189036e-16 -7.6041348)
(208.6448 1.5877556e-16 -7.3204673)
(207.90548 1.1213668e-16 -7.0506673)
(207.18135 -1.398364e-16 -6.7975374)
(206.47084 -3.2762442e-17 -6.5640055)
(205.77234 -2.1567106e-16 -6.3531115)
(205.08426 1.1528317e-16 -6.167989)
(204.40478 -1.082769e-16 -6.0118636)
(203.73193 1.0120316e-16 -5.8881175)
(203.06388 2.3756316e-16 -5.8006797)
(202.39858 -1.774958e-16 -5.7545643)
(201.73328 0 -5.7550882)
(201.06718 -3.8865848e-17 -5.8037572)
(200.40491 -7.294759e-17 -5.8946403)
(199.7521 1.3616461e-16 -6.022444)
(199.09665 1.2780699e-16 -6.2143778)
(198.38082 -2.3882826e-16 -6.5772105)
(197.5019 8.3365547e-17 -7.3004567)
(196.39843 5.2238162e-17 -8.4887135)
(195.24004 9.8096821e-17 -9.8551064)
(194.51029 1.3755111e-16 -10.541153)
(194.85101 -1.4969955e-19 -9.5063942)
(196.23819 0 -6.8568874)
(197.88679 0 -3.8699118)
(199.08069 -3.4426646e-17 -1.708342)
(199.68686 9.6362495e-17 -0.5952561)
(199.91447 -9.0158029e-17 -0.1670375)
(199.98092 -8.427084e-17 -0.038366652)
(199.99648 5.2582793e-17 -0.0073175149)
(199.99946 0 -0.0011667774)
(199.99993 4.6132704e-17 -0.00015625726)
(199.99999 -1.0187986e-23 -1.7884369e-05)
(218.83603 0 -23.184016)
(254.53237 -7.0202578e-21 -6.2422479)
(238.66102 9.1180393e-18 -22.8417)
(247.45193 2.906101e-16 -7.9988943)
(241.45343 3.3346868e-19 -20.892917)
(244.26883 -5.0994047e-16 -10.514814)
(241.73226 -3.2320204e-19 -18.603296)
(242.33874 4.5998242e-16 -12.909787)
(241.15868 -2.1166233e-16 -16.784669)
(240.89028 -1.2572999e-17 -14.56749)
(240.15863 1.1909648e-17 -15.836604)
(239.59461 -1.8110196e-16 -15.339243)
(238.94381 1.9297988e-16 -15.605558)
(238.29507 -1.833097e-16 -15.580829)
(237.61987 3.0884011e-16 -15.638792)
(236.9245 -3.1114145e-16 -15.665538)
(236.20606 1.3868283e-16 -15.688999)
(235.46397 0 -15.701777)
(234.69743 0 -15.70407)
(233.90613 1.475194e-17 -15.694562)
(233.09023 -2.8046523e-17 -15.672232)
(232.25037 0 -15.635979)
(231.38769 2.0120258e-16 -15.584726)
(230.50377 4.7810332e-19 -15.517422)
(229.60051 -3.5996557e-16 -15.433045)
(228.68007 1.7008346e-16 -15.330647)
(227.7447 2.0097495e-17 -15.209383)
(226.79675 0 -15.068535)
(225.83853 -1.8032107e-16 -14.907541)
(224.87236 1.3593345e-16 -14.72603)
(223.9006 -2.2546505e-16 -14.523829)
(222.92565 2.1212861e-16 -14.300998)
(221.95003 -2.2963376e-16 -14.057831)
(220.97632 2.1613475e-16 -13.794877)
(220.00715 7.6650039e-17 -13.512918)
(219.04506 0 -13.212981)
(218.09251 0 -12.896346)
(217.15181 4.2653016e-17 -12.564552)
(216.22511 4.0174973e-17 -12.219394)
(215.31431 -3.7825547e-17 -11.862882)
(214.42098 3.5598882e-17 -11.497195)
(213.54636 6.7327449e-17 -11.124637)
(212.69136 -6.3111982e-17 -10.747645)
(211.85663 3.5619633e-16 -10.368781)
(211.04249 -2.7866937e-16 -9.9907243)
(210.24904 5.2240474e-17 -9.6162298)
(209.47603 -4.9279003e-17 -9.2480554)
(208.72277 0 -8.8889316)
(207.98832 2.1640566e-16 -8.5415648)
(207.27177 -1.6208073e-16 -8.2086457)
(206.57229 0 -7.8928319)
(205.88864 0 -7.5967935)
(205.21903 1.3355579e-16 -7.3232898)
(204.56154 -6.2440036e-17 -7.0752092)
(203.91435 0 -6.8555406)
(203.2753 -1.6424166e-16 -6.667427)
(202.64171 1.0213828e-16 -6.5144019)
(202.01097 1.4370948e-16 -6.4006967)
(201.38083 -1.7848024e-16 -6.3311404)
(200.74935 1.6718825e-16 -6.3095611)
(200.11724 -1.5577079e-16 -6.3348411)
(199.49043 2.5358056e-19 -6.3998372)
(198.87156 0 -6.5049176)
(198.23626 6.3616965e-17 -6.6952248)
(197.50869 -2.9661141e-16 -7.0991372)
(196.58057 1.657117e-16 -7.8987204)
(195.435 0 -9.1169429)
(194.34035 -1.4519044e-16 -10.340774)
(193.87873 9.0083911e-17 -10.619123)
(194.65399 1.2516638e-16 -9.0388953)
(196.37281 -1.0582135e-18 -6.1188418)
(198.10809 -7.2527459e-17 -3.2297649)
(199.23603 1.0018371e-16 -1.3304446)
(199.7583 -1.5558379e-16 -0.43203522)
(199.93841 8.6941156e-17 -0.11329741)
(199.98717 2.7006518e-17 -0.024310433)
(199.99779 5.0336181e-17 -0.0043297444)
(199.99968 0 -0.00064335176)
(199.99996 -4.3794838e-17 -8.0069329e-05)
(200 2.0392946e-17 -8.4792652e-06)
(218.50186 0 -26.577345)
(254.70429 9.8905831e-18 -8.8195411)
(238.23828 -3.0835282e-16 -26.236597)
(247.43448 2.5199619e-16 -10.690521)
(241.04772 2.5882996e-16 -24.148361)
(243.98142 -5.0506254e-16 -13.341623)
(241.29895 2.3231149e-16 -21.677758)
(241.91733 2.3524209e-16 -15.883948)
(240.67089 -2.2295533e-16 -19.733378)
(240.34188 3.9706428e-17 -17.589412)
(239.56254 0 -18.748153)
(238.93613 0 -18.314139)
(238.2284 -2.2549301e-17 -18.520417)
(237.51764 -1.7142106e-16 -18.497653)
(236.78019 1.4184187e-16 -18.528908)
(236.0211 1.9268658e-17 -18.534879)
(235.23825 -3.6525051e-17 -18.532564)
(234.43124 3.1128133e-16 -18.517005)
(233.59959 -2.2867489e-16 -18.48766)
(232.74327 2.4823935e-16 -18.443125)
(231.86269 -2.0517088e-16 -18.382204)
(230.95876 2.7845197e-17 -18.303679)
(230.03295 1.5800734e-16 -18.206379)
(229.08719 -1.9872879e-16 -18.089208)
(228.12381 0 -17.951146)
(227.14547 0 -17.791288)
(226.15502 0 -17.608886)
(225.15538 -1.9907008e-16 -17.403365)
(224.14949 1.8743193e-16 -17.174362)
(223.14024 -3.5562169e-17 -16.921757)
(222.13049 0 -16.645697)
(221.12309 -2.8486189e-16 -16.346617)
(220.12086 2.379822e-16 -16.02524)
(219.12665 -5.634915e-17 -15.682578)
(218.14318 1.5925308e-16 -15.319918)
(217.17308 -4.9501256e-17 -14.938801)
(216.2188 -1.8762175e-16 -14.541048)
(215.28259 2.2140522e-16 -14.128737)
(214.36643 -1.6616568e-16 -13.704188)
(213.47192 7.8469056e-17 -13.269896)
(212.60025 -7.3495822e-17 -12.828482)
(211.75221 1.3841331e-16 -12.382648)
(210.92827 -6.4725838e-17 -11.935193)
(210.12858 -2.4393764e-16 -11.488984)
(209.35294 5.1428113e-16 -11.046928)
(208.60086 -2.1420071e-16 -10.611917)
(207.87157 -1.5109408e-16 -10.186788)
(207.16385 9.3745412e-17 -9.77432)
(206.47622 8.843055e-17 -9.3772649)
(205.80715 -1.6533322e-16 -8.9983397)
(205.15525 1.5440941e-16 -8.6401597)
(204.5189 0 -8.3052396)
(203.89613 1.3532091e-16 -7.996094)
(203.28488 -1.8953316e-16 -7.715328)
(202.68315 5.9147347e-17 -7.4656662)
(202.08859 5.501287e-17 -7.2501054)
(201.49798 0 -7.0723179)
(200.90769 0 -6.9368699)
(200.31502 0 -6.848308)
(199.71923 0 -6.8085177)
(199.12366 0 -6.8132325)
(198.53518 -7.250328e-17 -6.8554625)
(197.9501 0 -6.9454678)
(197.32665 -2.257585e-19 -7.151048)
(196.56952 2.3537197e-16 -7.6192876)
(195.57809 -2.1916823e-16 -8.502809)
(194.41168 -1.0312961e-16 -9.7155665)
(193.45075 -1.9100829e-16 -10.708013)
(193.38826 2.6546081e-16 -10.442105)
(194.63666 2.2439052e-19 -8.354383)
(196.63874 7.6294248e-17 -5.2691949)
(198.38131 0 -2.5824768)
(199.3974 0 -0.98517156)
(199.82349 0 -0.29677659)
(199.95831 -1.1168392e-16 -0.072156125)
(199.99193 0 -0.01437936)
(199.99871 -9.6393303e-17 -0.002375084)
(199.99983 1.3435595e-16 -0.00032642351)
(199.99998 8.3242819e-17 -3.7447453e-05)
(200 -1.9294404e-17 -3.6324144e-06)
(218.03757 0 -30.125402)
(254.7261 0 -11.498596)
(237.66419 3.2494298e-16 -29.745501)
(247.18571 1.9482706e-17 -13.509772)
(240.46042 -2.7216678e-16 -27.489287)
(243.49802 0 -16.324413)
(240.70722 1.6292364e-17 -24.827527)
(241.27964 -3.0964121e-17 -19.009551)
(239.98232 0 -22.760024)
(239.58067 1.9500672e-16 -20.73933)
(238.74801 -4.2215201e-16 -21.75941)
(238.05008 1.9991036e-16 -21.393281)
(237.27716 2.3756075e-17 -21.538052)
(236.49611 0 -21.50968)
(235.68811 2.1267237e-17 -21.511155)
(234.85716 -3.4343199e-16 -21.490029)
(234.0019 7.5720346e-17 -21.455805)
(233.12226 2.531475e-16 -21.404902)
(232.21818 2.4039646e-16 -21.336287)
(231.29004 -2.5925372e-16 -21.248435)
(230.33865 0 -21.139983)
(229.36535 -2.9086652e-16 -21.009624)
(228.37206 2.4693102e-16 -20.856127)
(227.36118 -2.0814742e-16 -20.678407)
(226.3356 1.9618031e-16 -20.475517)
(225.29856 -1.8590965e-16 -20.246689)
(224.25354 3.5070136e-16 -19.991386)
(223.20411 -1.6557624e-16 -19.709298)
(222.15385 1.5650677e-16 -19.400409)
(221.10625 -2.9512733e-16 -19.065002)
(220.06469 1.3886373e-16 -18.703696)
(219.03242 1.3113566e-16 -18.317457)
(218.01253 -2.4742729e-16 -17.907578)
(217.00797 5.7370843e-17 -17.475672)
(216.02147 -5.928129e-19 -17.023651)
(215.05556 2.5733558e-16 -16.553681)
(214.11251 0 -16.06821)
(213.19429 2.8331363e-19 -15.569922)
(212.30251 0 -15.061686)
(211.43827 -8.0264029e-17 -14.546486)
(210.60217 -1.5086903e-16 -14.027363)
(209.7944 7.0954866e-17 -13.507379)
(209.01482 0 -12.989627)
(208.26293 -6.2543703e-17 -12.477201)
(207.53787 2.9258578e-16 -11.973139)
(206.83847 -3.2846923e-16 -11.480376)
(206.16333 -3.0789693e-16 -11.001723)
(205.51076 2.872353e-16 -10.53989)
(204.87877 -1.7936976e-16 -10.097546)
(204.26526 0 -9.6773115)
(203.66816 0 -9.281691)
(203.08542 7.3332426e-17 -8.9130161)
(202.51486 6.8455907e-17 -8.5735123)
(201.95433 1.2747717e-16 -8.2654267)
(201.40175 -5.9465119e-17 -7.9911946)
(200.85458 -1.1074743e-16 -7.7537096)
(200.30914 -2.0685855e-16 -7.5567338)
(199.76117 -9.6872613e-17 -7.404825)
(199.20787 1.7908451e-16 -7.301685)
(198.65013 0 -7.2468475)
(198.09414 -7.7813282e-17 -7.2333149)
(197.54595 -1.4469936e-16 -7.2571823)
(196.99051 1.3425104e-16 -7.3442534)
(196.36376 6.1897362e-17 -7.5874419)
(195.55526 5.797106e-17 -8.1423649)
(194.49508 0 -9.1020449)
(193.3534 2.0125824e-16 -10.246918)
(192.62419 1.870154e-16 -10.906458)
(193.06793 -2.5894083e-16 -10.007928)
(194.82628 8.0490182e-17 -7.4603941)
(197.0237 -7.29594e-17 -4.3506596)
(198.68585 1.2195653e-18 -1.9640092)
(199.55239 2.513598e-16 -0.68816238)
(199.87929 -2.3252404e-16 -0.19103228)
(199.97371 5.3857451e-17 -0.042755195)
(199.9953 1.4953881e-16 -0.0078544033)
(199.99931 -4.6165863e-17 -0.0011926333)
(199.99992 -4.2757643e-17 -0.00015007913)
(199.99999 0 -1.5685012e-05)
(200 3.6568605e-17 -1.3739413e-06)
(217.42863 3.9425602e-16 -33.838743)
(254.57667 5.4839361e-19 -14.285433)
(236.92766 -3.6278616e-16 -33.369703)
(246.63118 0 -16.473595)
(239.67888 0 -30.921701)
(242.80099 -2.7088446e-16 -19.487074)
(239.90602 2.7407828e-16 -28.058827)
(240.41626 6.5016002e-17 -22.302815)
(239.06633 -2.4680672e-16 -25.877316)
(238.5769 2.3347423e-16 -24.022974)
(237.68378 -2.4957077e-16 -24.879851)
(236.90463 2.0975675e-16 -24.577278)
(236.05727 -4.9761088e-17 -24.659859)
(235.1968 -4.7237808e-17 -24.615673)
(234.30908 -1.7881293e-16 -24.582067)
(233.39733 1.6889447e-16 -24.525745)
(232.46099 -3.6061279e-16 -24.451349)
(231.50049 6.0622188e-16 -24.355966)
(230.51634 -2.8642298e-16 -24.238182)
(229.50951 -2.7174188e-16 -24.096336)
(228.48142 2.5625227e-16 -23.928943)
(227.434 -3.0600519e-17 -23.734642)
(226.36979 -2.2967671e-16 -23.51223)
(225.29183 2.1635513e-16 -23.26073)
(224.20367 2.5631842e-16 -22.97939)
(223.10923 -1.4446154e-16 -22.667725)
(222.01266 0 -22.325566)
(220.91821 2.5838553e-16 -21.953059)
(219.83009 -3.2453173e-16 -21.55072)
(218.75235 1.1408668e-16 -21.119438)
(217.68882 -2.8867079e-16 -20.660493)
(216.64303 2.0343289e-16 -20.175555)
(215.61821 -6.4129323e-17 -19.666651)
(214.61723 2.40799e-16 -19.136132)
(213.64262 -2.2585642e-16 -18.58664)
(212.69656 -2.1287352e-16 -18.021066)
(211.78092 1.9950071e-16 -17.442532)
(210.89713 -4.6751365e-17 -16.854344)
(210.04613 0 -16.259903)
(209.22829 8.2872663e-17 -15.662631)
(208.44346 -7.7219877e-17 -15.065911)
(207.69102 0 -14.473073)
(206.97007 1.3612889e-16 -13.88739)
(206.27934 -6.3712711e-17 -13.312043)
(205.61721 -1.7844161e-16 -12.75007)
(204.98176 5.5691125e-16 -12.20432)
(204.37094 -2.087243e-16 -11.677457)
(203.78258 9.7261257e-17 -11.172005)
(203.21426 -2.7295876e-16 -10.690408)
(202.6634 -2.9747228e-19 -10.235054)
(202.12736 1.5821884e-16 -9.8082252)
(201.6036 -1.4768506e-16 -9.4120132)
(201.08971 -6.8676702e-17 -9.0483234)
(200.5835 -6.3989591e-17 -8.7190447)
(200.08278 -1.1991448e-16 -8.4263897)
(199.58469 2.2215491e-16 -8.1732692)
(199.08515 0 -7.9634637)
(198.57991 9.6030732e-17 -7.8009034)
(198.06747 -3.5823473e-16 -7.6874053)
(197.55127 2.4886655e-16 -7.6195773)
(197.03891 7.7090005e-17 -7.5898477)
(196.531 1.4362747e-16 -7.6023069)
(195.99422 1.3428465e-16 -7.7047275)
(195.33985 -1.2282381e-16 -8.0122952)
(194.45679 -1.1379211e-16 -8.669678)
(193.34183 -3.2010617e-16 -9.6745475)
(192.3003 -6.7873208e-19 -10.660283)
(191.96462 -9.1602883e-17 -10.846612)
(193.01423 0 -9.2944953)
(195.23034 -2.3253431e-16 -6.3921722)
(197.49926 7.2519792e-17 -3.4178893)
(198.99635 0 -1.4083251)
(199.68907 1.2150004e-16 -0.44945297)
(199.92339 0 -0.11404565)
(199.98472 1.0370151e-16 -0.023316868)
(199.9975 -1.4369995e-16 -0.0039085608)
(199.99966 1.3271849e-16 -0.00053890083)
(199.99996 -8.1706816e-17 -6.1163929e-05)
(200 7.5442522e-17 -5.7147175e-06)
(200 0 -4.40846e-07)
(216.644 -4.1484714e-16 -37.724038)
(254.22858 3.6837441e-16 -17.183795)
(235.99113 -3.3705129e-16 -37.133262)
(245.8373 3.3557941e-16 -19.617556)
(238.71492 3.2122681e-16 -34.443541)
(241.85644 -1.8254828e-17 -22.836177)
(238.87094 -2.8768586e-16 -31.366745)
(239.29167 -2.7305791e-16 -25.766776)
(237.89064 2.9076785e-16 -29.08609)
(237.29818 0 -27.434043)
(236.33594 2.8984009e-17 -28.112161)
(235.46482 0 -27.861483)
(234.53214 -1.3047214e-16 -27.882118)
(233.58176 2.4635572e-16 -27.810576)
(232.60384 0 -27.734384)
(231.60126 0 -27.632797)
(230.57438 0 -27.50748)
(229.52432 3.970817e-17 -27.355787)
(228.4524 0 -27.176031)
(227.36038 -2.4806455e-16 -26.966477)
(226.25049 3.3431383e-16 -26.7256)
(225.12549 1.2645873e-16 -26.452115)
(223.98872 1.7925469e-16 -26.144981)
(222.84403 -2.8167202e-16 -25.803495)
(221.69573 -5.3021673e-17 -25.427292)
(220.54847 -2.5106896e-16 -25.016388)
(219.40711 1.8898959e-16 -24.571206)
(218.27652 -2.2315438e-16 -24.092599)
(217.16147 8.3448415e-17 -23.581853)
(216.06642 7.8878455e-17 -23.040696)
(214.99547 0 -22.47129)
(213.95223 2.8079904e-16 -21.87619)
(212.93979 -2.6380665e-16 -21.258307)
(211.96069 0 -20.620846)
(211.01696 -2.3312263e-16 -19.967259)
(210.11015 2.1833344e-16 -19.301193)
(209.24136 -1.0296152e-16 -18.62644)
(208.41117 1.9265077e-16 -17.946869)
(207.61961 -2.707213e-16 -17.266321)
(206.86606 1.538895e-19 -16.588531)
(206.14938 -1.5813803e-16 -15.917085)
(205.46805 -7.3987119e-17 -15.255418)
(204.82026 -1.3900015e-16 -14.60681)
(204.20392 2.5897482e-16 -13.974357)
(203.61661 -1.2078168e-16 -13.36092)
(203.05567 0 -12.769108)
(202.51843 -5.6608833e-19 -12.201307)
(202.00222 9.8291951e-17 -11.659732)
(201.5043 0 -11.146479)
(201.02175 8.5587987e-17 -10.663574)
(200.55155 8.0256225e-17 -10.212953)
(200.09077 -7.4364253e-17 -9.7963827)
(199.63678 2.7710127e-16 -9.4154375)
(199.18726 -2.5756012e-16 -9.071726)
(198.73987 -1.1992168e-16 -8.7673766)
(198.29134 -1.1145228e-16 -8.505396)
(197.83731 1.0353526e-16 -8.2893261)
(197.37448 1.92089e-16 -8.1217122)
(196.90424 -3.5622597e-16 -8.0013736)
(196.43356 4.1296943e-16 -7.9219463)
(195.96831 -1.5296991e-16 -7.8793685)
(195.49572 1.4189763e-16 -7.8923627)
(194.95684 -1.3141608e-16 -8.0349835)
(194.24317 2.4412446e-16 -8.4347928)
(193.26918 -3.3978175e-16 -9.1947518)
(192.14769 2.0897611e-16 -10.184022)
(191.31744 -3.1186583e-19 -10.91438)
(191.53866 8.9630909e-17 -10.422752)
(193.26939 0 -8.2909016)
(195.82865 0 -5.2138265)
(198.02294 0 -2.5320905)
(199.28601 -1.2749798e-16 -0.94244892)
(199.79977 1.4492684e-19 -0.27241493)
(199.95535 0 -0.062374182)
(199.99193 0 -0.011531171)
(199.99881 9.207785e-17 -0.0017383073)
(199.99986 -1.6966016e-16 -0.0002135152)
(199.99999 0 -2.1299016e-05)
(200 0 -1.7148123e-06)
(200 -1.319847e-16 -1.0984144e-07)
(215.6551 2.8051424e-17 -41.793394)
(253.66115 -7.9874982e-16 -20.214344)
(234.8156 3.5310048e-16 -41.042979)
(244.88805 -2.2103522e-17 -22.944432)
(237.52581 3.791572e-16 -38.054724)
(240.6415 -3.5765721e-16 -26.373547)
(237.5748 0 -34.74884)
(237.87737 -3.2212122e-16 -29.401529)
(236.42242 2.368847e-16 -32.393273)
(235.70954 2.24935e-16 -30.966525)
(234.66586 -2.4285223e-16 -31.460506)
(233.68991 0 -31.242833)
(232.6587 2.8271796e-19 -31.200112)
(231.6061 0 -31.087582)
(230.52611 3.911185e-16 -30.957766)
(229.42173 -7.3883975e-16 -30.797578)
(228.29437 3.4879819e-16 -30.606939)
(227.14612 -4.1164189e-17 -30.383325)
(225.97933 -3.9168685e-17 -30.12492)
(224.79683 3.7274216e-17 -29.830026)
(223.6019 -6.9404369e-17 -29.497257)
(222.39838 -3.2893364e-16 -29.125572)
(221.19057 3.0957668e-16 -28.714336)
(219.98326 5.8317925e-17 -28.263375)
(218.78161 -2.7656133e-16 -27.772984)
(217.59102 -6.8836848e-19 -27.243984)
(216.41694 2.9360428e-16 -26.6777)
(215.26475 -1.8430156e-16 -26.075982)
(214.13952 -7.224313e-19 -25.441173)
(213.04587 0 -24.776092)
(211.98785 0 -24.083984)
(210.96878 -7.2533198e-17 -23.368456)
(209.99123 1.3570614e-16 -22.633411)
(209.05705 0 -21.882962)
(208.16736 -1.200032e-16 -21.121371)
(207.3227 2.2442795e-16 -20.352987)