/*--------------------------------*- C++ -*----------------------------------*\
  =========                 |
  \\      /  F ield         | OpenFOAM: The Open Source CFD Toolbox
   \\    /   O peration     | Website:  https://openfoam.org
    \\  /    A nd           | Version:  12
     \\/     M anipulation  |
\*---------------------------------------------------------------------------*/
FoamFile
{
    format      ascii;
    class       volScalarField;
    location    "0.014";
    object      alphat;
}
// * * * * * * * * * * * * * * * * * * * * * * * * * * * * * * * * * * * * * //

dimensions      [1 -1 -1 0 0 0 0];

internalField   nonuniform List<scalar> 
16000
(
5.1008446e-07
1.1504264e-05
2.2163564e-05
2.787709e-05
2.0131814e-05
2.9403553e-05
1.8835678e-05
2.8405686e-05
1.9781535e-05
3.045717e-05
2.3183843e-05
2.9027127e-05
2.53386e-05
2.6507779e-05
2.5376028e-05
2.5321351e-05
2.5025822e-05
2.4966436e-05
2.4979912e-05
2.5106523e-05
2.5333886e-05
2.5662929e-05
2.6091716e-05
2.6620426e-05
2.7252077e-05
2.7993653e-05
2.88538e-05
2.9846956e-05
3.0990225e-05
3.2301717e-05
3.3801333e-05
3.5515948e-05
3.7480359e-05
3.9737233e-05
4.2338527e-05
4.5345807e-05
4.8831579e-05
5.2881302e-05
5.7599008e-05
6.311153e-05
6.9564577e-05
7.7125438e-05
8.5999666e-05
9.64302e-05
0.00010869418
0.00012311193
0.00014006912
0.00016002167
0.00018351287
0.00021120058
0.00024389473
0.00028260434
0.000328597
0.00038349215
0.00044942201
0.00052927773
0.00062700082
0.00074769382
0.00089761002
0.0010848661
0.0012137367
0.0012139177
0.0012137752
0.0012133328
0.001212743
0.001212122
0.001211566
0.0012111947
0.0012111135
0.001211352
0.0012115057
0.001210489
0.0012097136
0.0012095765
0.0012074773
0.0012028825
0.0011986283
0.0011962996
0.0011892541
0.0011775901
4.4987056e-07
1.0926809e-05
2.2221e-05
2.5159961e-05
1.8167458e-05
2.6256266e-05
1.6852711e-05
2.4774435e-05
1.7730148e-05
2.6912654e-05
2.1252163e-05
2.6331261e-05
2.3406848e-05
2.4216486e-05
2.3335404e-05
2.3208206e-05
2.2973186e-05
2.291229e-05
2.2936688e-05
2.306167e-05
2.3282784e-05
2.3599763e-05
2.401192e-05
2.4519473e-05
2.5125043e-05
2.5835466e-05
2.6658508e-05
2.7607459e-05
2.869906e-05
2.9951555e-05
3.1383986e-05
3.3021423e-05
3.4896915e-05
3.705099e-05
3.9533567e-05
4.240401e-05
4.5732802e-05
4.9602352e-05
5.4112178e-05
5.9385476e-05
6.5566295e-05
7.281616e-05
8.1333768e-05
9.135703e-05
0.00010315901
0.00011704979
0.00013340297
0.00015265915
0.00017533905
0.00020206483
0.00023359123
0.00027084756
0.00031497996
0.00036743539
0.00043009151
0.00050547613
0.00059704961
0.00070938841
0.00084813177
0.0010204811
0.0012134368
0.0012137205
0.0012137047
0.001213351
0.0012128017
0.0012122029
0.0012116404
0.0012112259
0.0012110731
0.0012112635
0.0012114765
0.0012104598
0.0012099061
0.0012095478
0.0012069782
0.00120234
0.0011983456
0.0011953977
0.0011886923
0.0011770091
4.0564728e-07
1.0484035e-05
2.0988291e-05
2.2920893e-05
1.6313001e-05
2.3142879e-05
1.5086538e-05
2.1496932e-05
1.5995688e-05
2.3586068e-05
1.9453958e-05
2.3539988e-05
2.1349838e-05
2.1819755e-05
2.11444e-05
2.0980929e-05
2.0792576e-05
2.0740476e-05
2.0774781e-05
2.0899875e-05
2.1114139e-05
2.1417105e-05
2.1808663e-05
2.2289451e-05
2.2861735e-05
2.3532193e-05
2.4308176e-05
2.5201925e-05
2.6229466e-05
2.7409152e-05
2.8759621e-05
3.03046e-05
3.2075668e-05
3.4111577e-05
3.6460529e-05
3.9180144e-05
4.233963e-05
4.6020199e-05
5.0319016e-05
5.5357363e-05
6.1281359e-05
6.8253312e-05
7.6472541e-05
8.6181188e-05
9.7663224e-05
0.00011123903
0.00012729593
0.00014629245
0.00016876885
0.00019536378
0.00022683839
0.00026410899
0.00030827627
0.00036069053
0.0004230496
0.00049758008
0.00058728883
0.00069617129
0.0008291743
0.00099243699
0.0011948056
0.0012134718
0.0012135441
0.001213272
0.0012127669
0.0012122057
0.0012116713
0.001211263
0.0012111026
0.0012113009
0.0012115705
0.0012106856
0.0012102427
0.0012094661
0.0012064094
0.0012019079
0.0011982376
0.0011944567
0.0011877832
0.0011767395
3.6622074e-07
1.0144114e-05
1.9902915e-05
2.1797823e-05
1.4740218e-05
2.0450869e-05
1.3522207e-05
1.8745084e-05
1.4461307e-05
2.0741163e-05
1.7859398e-05
2.1025333e-05
1.9448387e-05
1.9638428e-05
1.9131337e-05
1.8954591e-05
1.8807629e-05
1.8769517e-05
1.8815175e-05
1.8942476e-05
1.9151671e-05
1.9442445e-05
1.9815038e-05
2.0270759e-05
2.0811785e-05
2.1444616e-05
2.2176507e-05
2.3018859e-05
2.3986905e-05
2.5099063e-05
2.637381e-05
2.7833662e-05
2.9508948e-05
3.1436743e-05
3.3663688e-05
3.624572e-05
3.9250712e-05
4.275888e-05
4.6865427e-05
5.1688925e-05
5.7377161e-05
6.4093321e-05
7.2037086e-05
8.1453003e-05
9.2635714e-05
0.00010591647
0.00012169763
0.00014045988
0.00016277198
0.00018930606
0.00022085457
0.00025836151
0.00030293791
0.00035590523
0.00041886451
0.0004938363
0.00058347475
0.00069127423
0.00082157171
0.000979581
0.0011728581
0.0012132505
0.0012133636
0.0012131501
0.0012126738
0.0012121335
0.0012116251
0.0012112362
0.0012111
0.0012113591
0.0012117201
0.0012111328
0.0012106375
0.0012093269
0.0012058953
0.0012014931
0.0011979189
0.0011934826
0.0011864824
0.0011766807
3.2066606e-07
9.9055899e-06
1.9005651e-05
2.2099238e-05
1.5297896e-05
1.8106325e-05
1.2135352e-05
1.6404931e-05
1.3131675e-05
1.8417536e-05
1.6466622e-05
1.8758786e-05
1.7674879e-05
1.7652288e-05
1.7270524e-05
1.7095412e-05
1.6978376e-05
1.6951768e-05
1.7003698e-05
1.7129294e-05
1.7329832e-05
1.760551e-05
1.7956731e-05
1.8385453e-05
1.8893973e-05
1.948846e-05
2.0176175e-05
2.0967782e-05
2.1877586e-05
2.2923824e-05
2.4124887e-05
2.5502217e-05
2.7084989e-05
2.8908631e-05
3.1018232e-05
3.3467982e-05
3.6324192e-05
3.9665989e-05
4.3587027e-05
4.8202383e-05
5.366082e-05
6.0126447e-05
6.7799619e-05
7.6925764e-05
8.7810232e-05
0.00010079667
0.00011630502
0.00013484342
0.00015701923
0.00018355726
0.00021531148
0.00025329959
0.0002987075
0.00035291738
0.00041754379
0.0004945274
0.00058629495
0.0006959403
0.00082725213
0.0009846098
0.001174238
0.0012130761
0.0012131703
0.0012129822
0.0012125102
0.001211953
0.0012114418
0.0012110594
0.001210955
0.001211306
0.0012117881
0.0012115945
0.0012109261
0.0012090517
0.0012054048
0.0012008577
0.00119746
0.0011926495
0.0011860076
0.0011767652
2.958969e-07
9.7747478e-06
1.8298221e-05
2.179381e-05
1.4873548e-05
1.6036471e-05
1.1985451e-05
1.4500269e-05
1.3239239e-05
1.6350572e-05
1.5275367e-05
1.677692e-05
1.6044523e-05
1.5871231e-05
1.5568337e-05
1.5398469e-05
1.5298887e-05
1.5278541e-05
1.5331859e-05
1.5452772e-05
1.5642823e-05
1.5902895e-05
1.6232914e-05
1.6635652e-05
1.7113164e-05
1.7672079e-05
1.831882e-05
1.9063745e-05
1.9920177e-05
2.0906035e-05
2.2039732e-05
2.334185e-05
2.4840603e-05
2.6569971e-05
2.8573646e-05
3.0904233e-05
3.3626506e-05
3.681854e-05
4.0573123e-05
4.5001886e-05
5.0253612e-05
5.6493519e-05
6.3923371e-05
7.2787785e-05
8.3401736e-05
9.6121134e-05
0.00011138292
0.0001297231
0.00015179006
0.00017837032
0.00021039659
0.00024899242
0.00029547319
0.00035136831
0.00041842994
0.00049867795
0.00059449782
0.00070876675
0.00084485593
0.0010064195
0.001198383
0.0012129879
0.0012129964
0.001212789
0.0012122883
0.0012116601
0.0012110892
0.0012106689
0.0012105703
0.0012109837
0.0012116041
0.0012117743
0.0012108563
0.0012085874
0.0012049059
0.0012003303
0.0011970679
0.0011923329
0.001186095
0.0011770156
2.7154667e-07
9.713125e-06
1.7735895e-05
2.0450272e-05
1.4664772e-05
1.4137562e-05
1.1800105e-05
1.3353337e-05
1.1851368e-05
1.4524525e-05
1.4164742e-05
1.4993922e-05
1.448062e-05
1.4223008e-05
1.3970413e-05
1.3812876e-05
1.3727983e-05
1.3714854e-05
1.3770458e-05
1.3888637e-05
1.4070304e-05
1.4317458e-05
1.4628682e-05
1.4922849e-05
1.5362586e-05
1.5880391e-05
1.6482076e-05
1.7177149e-05
1.797772e-05
1.8900923e-05
1.9965073e-05
2.118987e-05
2.2602574e-05
2.4235622e-05
2.6131235e-05
2.834032e-05
3.0925889e-05
3.3964512e-05
3.7548313e-05
4.2099518e-05
4.7170333e-05
5.3212214e-05
6.0429264e-05
6.906412e-05
7.9439226e-05
9.1922181e-05
0.00010696547
0.00012513128
0.00014710731
0.0001737448
0.00020606329
0.00024531274
0.00029297961
0.00035081681
0.0004208422
0.00050534624
0.00060692535
0.00072852557
0.00087336544
0.0010445944
0.0012132003
0.0012130232
0.0012128769
0.0012125937
0.0012120235
0.0012112649
0.0012105555
0.0012100253
0.0012098822
0.0012103407
0.0012111667
0.0012113887
0.0012102002
0.001207886
0.0012042555
0.0012001629
0.0011969209
0.0011924451
0.0011864519
0.0011771148
2.4349543e-07
9.6833039e-06
1.7231715e-05
1.8272084e-05
1.2806205e-05
1.2267542e-05
9.7545622e-06
1.129412e-05
1.0400959e-05
1.307871e-05
1.3028113e-05
1.3333726e-05
1.2956272e-05
1.2674249e-05
1.246164e-05
1.2324959e-05
1.2257444e-05
1.2255188e-05
1.2242217e-05
1.2343091e-05
1.2505996e-05
1.2734896e-05
1.3025632e-05
1.3378606e-05
1.380032e-05
1.4294977e-05
1.4868547e-05
1.5530501e-05
1.6292343e-05
1.717073e-05
1.8184303e-05
1.9352327e-05
2.0701632e-05
2.2263647e-05
2.4079705e-05
2.6199575e-05
2.8685169e-05
3.1612074e-05
3.5072305e-05
3.9177591e-05
4.4063493e-05
4.9900919e-05
5.6896755e-05
6.5840416e-05
7.6025317e-05
8.8322058e-05
0.00010319733
0.00012123665
0.00014316287
0.00016989013
0.00020252425
0.0002424484
0.00029134191
0.00035123316
0.00042451254
0.00051393105
0.00062259348
0.00075391972
0.00091144628
0.0010982702
0.0012136638
0.0012132184
0.0012128527
0.0012124281
0.0012117415
0.0012107976
0.0012098587
0.0012091306
0.001208873
0.0012093556
0.0012102382
0.0012103579
0.001209161
0.0012067943
0.0012032948
0.0011997634
0.0011966972
0.0011925298
0.0011866391
0.0011766687
2.2367818e-07
9.6489866e-06
1.6657695e-05
1.5654999e-05
1.0620701e-05
1.0951592e-05
8.2056522e-06
1.0196228e-05
9.7711424e-06
1.169745e-05
1.1876246e-05
1.1805343e-05
1.1508993e-05
1.1239206e-05
1.1059954e-05
1.0870813e-05
1.079286e-05
1.0785455e-05
1.0839931e-05
1.0955498e-05
1.1126172e-05
1.1353562e-05
1.1638922e-05
1.1982356e-05
1.2389163e-05
1.2864731e-05
1.3415142e-05
1.4049916e-05
1.4780148e-05
1.5621975e-05
1.6594404e-05
1.7716509e-05
1.9014986e-05
2.0520524e-05
2.2273858e-05
2.4324009e-05
2.6732128e-05
2.9573179e-05
3.293861e-05
3.6939419e-05
4.1712058e-05
4.7425766e-05
5.4291942e-05
6.25561e-05
7.2533487e-05
8.4618538e-05
0.00010016706
0.00011814611
0.00014008432
0.0001669539
0.000199941
0.00024055741
0.00029067727
0.00035262468
0.00042922559
0.00052383719
0.00064035426
0.00078314182
0.00095672267
0.0011649419
0.0012143514
0.0012136046
0.0012129668
0.0012123352
0.0012114837
0.0012103104
0.0012090525
0.0012080345
0.0012075994
0.0012080821
0.0012089543
0.0012088685
0.0012076435
0.0012052219
0.001201883
0.001198767
0.0011959713
0.0011920065
0.0011860488
0.0011751686
2.0605541e-07
9.6165929e-06
1.4170995e-05
1.3602788e-05
8.6224538e-06
9.7812905e-06
7.4587295e-06
9.1387577e-06
9.1444557e-06
1.0465758e-05
1.0711968e-05
1.0418987e-05
1.0166829e-05
9.829567e-06
9.6420474e-06
9.5308794e-06
9.4893961e-06
9.508977e-06
9.583258e-06
9.7098147e-06
9.886358e-06
1.0114767e-05
1.0396527e-05
1.0732289e-05
1.1127777e-05
1.1588713e-05
1.2121357e-05
1.2735426e-05
1.3441756e-05
1.4256009e-05
1.5197575e-05
1.6285652e-05
1.7547047e-05
1.9011993e-05
2.0720918e-05
2.2722465e-05
2.5077382e-05
2.7860398e-05
3.1163167e-05
3.5096995e-05
3.9798296e-05
4.5435758e-05
5.2224664e-05
6.0411217e-05
7.0315285e-05
8.2337784e-05
9.698134e-05
0.00011485113
0.00013798194
0.00016507075
0.0001984721
0.00023981275
0.00029114559
0.00035507508
0.00043486415
0.00053452855
0.00065891878
0.00081372347
0.001005163
0.0012164874
0.0012152733
0.0012142081
0.0012132632
0.0012123713
0.0012113106
0.0012098758
0.00120823
0.0012068374
0.0012061595
0.0012066258
0.0012074226
0.0012069876
0.001205668
0.0012030909
0.0011998157
0.0011970542
0.0011943468
0.0011901754
0.0011837861
0.0011724085
1.903004e-07
9.5791823e-06
1.1371275e-05
1.0957701e-05
7.2280037e-06
8.6876313e-06
6.8350104e-06
8.2088632e-06
8.6189882e-06
9.3464509e-06
9.5482171e-06
9.0656546e-06
8.7807995e-06
8.5456964e-06
8.410285e-06
8.340565e-06
8.3299523e-06
8.3724024e-06
8.4627994e-06
8.6003814e-06
8.7831576e-06
9.0133963e-06
9.2937124e-06
9.6251204e-06
1.0013389e-05
1.0464691e-05
1.0985594e-05
1.1586076e-05
1.2276936e-05
1.3073459e-05
1.3924337e-05
1.4978974e-05
1.6204476e-05
1.7630549e-05
1.9297222e-05
2.1252685e-05
2.3557202e-05
2.6285117e-05
2.952815e-05
3.3397833e-05
3.8031174e-05
4.3939024e-05
5.0705981e-05
5.8878945e-05
6.8780583e-05
8.08171e-05
9.5508314e-05
0.00011348007
0.00013554427
0.00016274576
0.00019820951
0.00024031952
0.00029284345
0.00035861588
0.00044126789
0.00054539701
0.00067675874
0.00084242639
0.0010506696
0.0012179613
0.0012164352
0.0012150505
0.001213786
0.0012126017
0.0012112959
0.0012095802
0.0012075123
0.0012056719
0.0012046989
0.0012050899
0.0012057069
0.0012048601
0.001203269
0.0012003363
0.0011968767
0.0011941774
0.0011913945
0.0011866432
0.0011795849
0.0011670419
1.765601e-07
9.5418637e-06
9.0931372e-06
9.6259595e-06
6.451828e-06
7.6811989e-06
6.300787e-06
7.4066655e-06
8.090814e-06
8.3144869e-06
8.2515341e-06
7.8114862e-06
7.5867666e-06
7.4141496e-06
7.3224881e-06
7.2874953e-06
7.303368e-06
7.3660098e-06
7.4714258e-06
7.6197401e-06
7.809761e-06
8.0439455e-06
8.3256688e-06
8.6565129e-06
9.0423493e-06
9.4494051e-06
9.9567099e-06
1.0542726e-05
1.1218088e-05
1.1997574e-05
1.2898937e-05
1.3945179e-05
1.5162312e-05
1.6580036e-05
1.8238577e-05
2.0186368e-05
2.2484052e-05
2.5206437e-05
2.8446383e-05
3.2316846e-05
3.6956799e-05
4.2539663e-05
4.9278474e-05
5.7429894e-05
6.7319939e-05
8.0050179e-05
9.4878963e-05
0.00011304941
0.00013539188
0.00016298924
0.00019721923
0.0002421148
0.00029579723
0.0003632144
0.00044823065
0.00055581496
0.00069231831
0.00086578867
0.0010861132
0.0012196648
0.0012178394
0.0012161486
0.0012145731
0.001213088
0.0012115141
0.0012095117
0.0012070152
0.0012046896
0.0012034161
0.0012036644
0.00120387
0.0012026156
0.0012004906
0.0011969024
0.0011929338
0.0011900029
0.0011869102
0.0011815149
0.0011737722
0.0011608125
1.643806e-07
9.4935002e-06
7.3280043e-06
8.4400499e-06
5.7724119e-06
6.7957764e-06
5.8422451e-06
6.7012229e-06
7.4366834e-06
7.1394163e-06
7.0623521e-06
6.7123387e-06
6.5387796e-06
6.4183042e-06
6.3642444e-06
6.3596075e-06
6.3993598e-06
6.4809324e-06
6.6012551e-06
6.7611798e-06
6.9602799e-06
7.2011463e-06
7.4563427e-06
7.783845e-06
8.1659388e-06
8.6080268e-06
9.1190302e-06
9.708551e-06
1.0387462e-05
1.1170752e-05
1.2076314e-05
1.3126806e-05
1.4349602e-05
1.5774695e-05
1.7442716e-05
1.9402647e-05
2.1715978e-05
2.445835e-05
2.7724263e-05
3.1628874e-05
3.6312796e-05
4.1950898e-05
4.8764154e-05
5.7012337e-05
6.7028062e-05
7.9233177e-05
9.4164929e-05
0.0001124925
0.00013625628
0.00016435464
0.00019923448
0.00024271385
0.00029997216
0.00036879202
0.00045555259
0.00056529369
0.00070446495
0.00088129662
0.0011061164
0.0012215866
0.0012194842
0.0012175117
0.0012156498
0.0012138749
0.0012120279
0.0012097494
0.0012068428
0.0012040311
0.0012025691
0.0012026039
0.0012020515
0.0012003269
0.0011973927
0.001192847
0.0011881893
0.0011850059
0.001181284
0.0011754483
0.00116738
0.0011552121
1.5363666e-07
9.4322846e-06
5.935762e-06
7.383564e-06
5.1566622e-06
6.0059606e-06
5.4559526e-06
5.9832863e-06
6.5767378e-06
6.120018e-06
6.0083802e-06
5.7490885e-06
5.6213592e-06
5.5452791e-06
5.5247446e-06
5.547747e-06
5.6100479e-06
5.7102386e-06
5.846149e-06
5.9967498e-06
6.2001107e-06
6.4452362e-06
6.735193e-06
7.0738655e-06
7.4667802e-06
7.9197842e-06
8.4416779e-06
9.0427646e-06
9.7341444e-06
1.0530939e-05
1.1451095e-05
1.2517423e-05
1.3695597e-05
1.5127934e-05
1.6804671e-05
1.8775144e-05
2.1101742e-05
2.3860735e-05
2.7147943e-05
3.1080841e-05
3.5802247e-05
4.1804167e-05
4.8737193e-05
5.7135469e-05
6.7338509e-05
7.9775154e-05
9.5001507e-05
0.00011370646
0.00013675914
0.00016678878
0.00020241363
0.0002467884
0.0003022388
0.00037529604
0.00046316625
0.00057373387
0.00071304448
0.00088869147
0.0011101625
0.0012237142
0.0012213646
0.0012191427
0.0012170277
0.0012149867
0.0012128773
0.0012103502
0.0012070802
0.0012041401
0.0012026123
0.0012020426
0.0012004102
0.0011980211
0.0011941007
0.00118851
0.0011833233
0.0011801686
0.0011755393
0.0011695544
0.0011617989
0.0011514572
1.4414823e-07
9.2647609e-06
4.8618938e-06
6.4441612e-06
4.6080322e-06
5.3092436e-06
5.1229729e-06
5.2014791e-06
5.6846965e-06
5.2113151e-06
5.0888605e-06
4.9084939e-06
4.8233823e-06
4.7862161e-06
4.7963763e-06
4.845228e-06
4.9294084e-06
5.0284256e-06
5.1742525e-06
5.357153e-06
5.5784587e-06
5.8402774e-06
6.1464754e-06
6.5011556e-06
6.910481e-06
7.3805817e-06
7.920291e-06
8.5147959e-06
9.2194226e-06
1.0030066e-05
1.0964565e-05
1.2045563e-05
1.3300584e-05
1.4764066e-05
1.6476828e-05
1.8489085e-05
2.0865087e-05
2.3682639e-05
2.7039553e-05
3.1056929e-05
3.5881096e-05
4.1696475e-05
4.8726661e-05
5.7249971e-05
6.761532e-05
8.093499e-05
9.6537832e-05
0.00011571165
0.00013934518
0.00016856304
0.00020670978
0.00025204827
0.00030852207
0.00037894132
0.00047125459
0.00058159981
0.00071913154
0.00089032199
0.0011031122
0.0012260361
0.0012234764
0.0012210427
0.0012187097
0.0012164271
0.001214067
0.0012113525
0.0012079372
0.0012050068
0.0012031832
0.0012015069
0.0011989669
0.0011957415
0.0011908355
0.0011844128
0.0011790805
0.0011761647
0.0011707155
0.0011649203
0.0011579911
0.0011500235
1.3584471e-07
8.8505523e-06
4.1308965e-06
5.6135101e-06
4.119515e-06
4.6965292e-06
4.5807236e-06
4.492997e-06
4.8060272e-06
4.4084882e-06
4.2977332e-06
4.1822378e-06
4.1367528e-06
4.1342843e-06
4.1727921e-06
4.2305602e-06
4.3287111e-06
4.4624957e-06
4.6312306e-06
4.8354572e-06
5.0772199e-06
5.3592132e-06
5.6857663e-06
6.0612882e-06
6.4776518e-06
6.9657738e-06
7.5239704e-06
8.1623193e-06
8.8934348e-06
9.7322658e-06
1.069689e-05
1.1810586e-05
1.3101642e-05
1.4605304e-05
1.6364581e-05
1.8430632e-05
2.0869975e-05
2.3762492e-05
2.7207836e-05
3.1331676e-05
3.6282763e-05
4.2250969e-05
4.947057e-05
5.8227848e-05
6.888629e-05
8.1900953e-05
9.871168e-05
0.0001184533
0.00014277658
0.00017282818
0.00021000972
0.00025851764
0.0003160628
0.00038736563
0.00047555185
0.0005898935
0.00072476247
0.0008901979
0.0010925882
0.0012285474
0.0012258215
0.0012232155
0.0012206931
0.001218182
0.0012155658
0.0012126795
0.0012093027
0.0012063001
0.0012038341
0.0012008439
0.0011976642
0.0011936197
0.0011879227
0.0011809437
0.0011760159
0.0011731497
0.0011675574
0.0011622565
0.0011565646
0.0011510485
1.2882937e-07
8.4683641e-06
3.6482571e-06
4.876412e-06
3.687866e-06
3.981728e-06
4.1038947e-06
3.8424832e-06
3.9999481e-06
3.7113852e-06
3.6264315e-06
3.5631582e-06
3.5537559e-06
3.582701e-06
3.6294212e-06
3.7211232e-06
3.847174e-06
4.0063717e-06
4.1990673e-06
4.4266274e-06
4.6917015e-06
4.9972753e-06
5.3377814e-06
5.7348625e-06
6.1875271e-06
6.7028443e-06
7.2892593e-06
7.9570752e-06
8.7189823e-06
9.5906638e-06
1.0590487e-05
1.1742362e-05
1.30754e-05
1.462601e-05
1.6368262e-05
1.8479196e-05
2.0971036e-05
2.3926073e-05
2.7611584e-05
3.1860098e-05
3.6960881e-05
4.3109199e-05
5.055168e-05
5.958634e-05
7.0590552e-05
8.4039782e-05
0.000100526
0.00012078479
0.00014703085
0.0001780607
0.00021637342
0.00026367759
0.00032505611
0.00039736144
0.00048598076
0.0005999322
0.00073232527
0.00089252606
0.0010857762
0.0012312533
0.0012284106
0.0012256679
0.0012229695
0.0012202237
0.0012173281
0.0012142244
0.0012108858
0.001207569
0.0012040717
0.0012005127
0.0011965827
0.00119189
0.0011858887
0.0011790327
0.0011750184
0.0011718081
0.0011665432
0.0011618698
0.0011576079
0.0011542857
1.2338213e-07
6.7203626e-06
3.2384441e-06
4.2095903e-06
3.3172064e-06
3.3233842e-06
3.6242526e-06
3.2522005e-06
3.3013586e-06
3.1153721e-06
3.0629248e-06
3.042777e-06
3.0572141e-06
3.1064898e-06
3.1942731e-06
3.3159194e-06
3.469338e-06
3.6544835e-06
3.8725539e-06
4.1253932e-06
4.4095798e-06
4.7389735e-06
5.1136833e-06
5.5387392e-06
6.0201104e-06
6.5649919e-06
7.1820779e-06
7.8819048e-06
8.6773446e-06
9.5632192e-06
1.0594255e-05
1.1779039e-05
1.3147345e-05
1.47362e-05
1.6591517e-05
1.8770164e-05
2.134163e-05
2.4392028e-05
2.8027176e-05
3.2376969e-05
3.760279e-05
4.4221455e-05
5.191965e-05
6.1276997e-05
7.2686773e-05
8.6644833e-05
0.00010376685
0.00012481556
0.00015211409
0.00018430047
0.00022395366
0.00027272838
0.00033577701
0.00040940191
0.00049887746
0.00060702017
0.00074399733
0.00090070239
0.0010878112
0.0012341676
0.0012312549
0.0012284001
0.0012255213
0.0012225166
0.0012193097
0.0012158869
0.0012122817
0.0012085191
0.0012045988
0.0012004583
0.0011959784
0.001190978
0.0011853423
0.0011795521
0.0011762383
0.0011724243
0.0011678935
0.0011637849
0.0011608989
0.0011594304
1.1895182e-07
5.0806265e-06
2.8650502e-06
3.5973344e-06
2.8391679e-06
2.7718609e-06
3.110327e-06
2.7254425e-06
2.7166043e-06
2.6128854e-06
2.5963246e-06
2.6054473e-06
2.6530267e-06
2.738888e-06
2.8583241e-06
3.0086606e-06
3.1891958e-06
3.4006407e-06
3.6412762e-06
3.9187645e-06
4.2343352e-06
4.591502e-06
4.9945109e-06
5.448498e-06
5.9596169e-06
6.5352371e-06
7.1842408e-06
7.9052978e-06
8.7310641e-06
9.6693666e-06
1.0740241e-05
1.196839e-05
1.3384743e-05
1.5027842e-05
1.6945559e-05
1.9196895e-05
2.18543e-05
2.500695e-05
2.8764994e-05
3.3264877e-05
3.8676637e-05
4.5212488e-05
5.3535084e-05
6.3263561e-05
7.5144521e-05
8.969769e-05
0.00010756602
0.00012954305
0.00015660102
0.00019161856
0.00023287433
0.00028343814
0.00034514732
0.00042399058
0.00051502081
0.00062414911
0.00076147575
0.0009170447
0.0011017222
0.0012373017
0.0012343513
0.0012313912
0.0012283118
0.0012250113
0.001221456
0.0012176909
0.0012137727
0.0012096944
0.001205404
0.0012008839
0.0011961546
0.0011912362
0.0011862481
0.0011817955
0.0011782291
0.001175132
0.0011711329
0.0011678118
0.0011661754
0.0011660256
1.1431151e-07
4.2591991e-06
2.4769473e-06
3.0313875e-06
2.4484827e-06
2.3113711e-06
2.5705054e-06
2.2625858e-06
2.2399991e-06
2.2001929e-06
2.2147807e-06
2.2608117e-06
2.3469531e-06
2.4657471e-06
2.6143856e-06
2.7918551e-06
2.9984821e-06
3.2331186e-06
3.5018354e-06
3.8059333e-06
4.1484821e-06
4.5331868e-06
4.9644517e-06
5.4475087e-06
5.9886003e-06
6.5952163e-06
7.2681236e-06
8.0312831e-06
8.8925587e-06
9.8685317e-06
1.0979949e-05
1.2252529e-05
1.371839e-05
1.541757e-05
1.7399978e-05
1.9727399e-05
2.2475607e-05
2.5737625e-05
2.9628827e-05
3.4292356e-05
3.9908115e-05
4.7040981e-05
5.5366937e-05
6.5520015e-05
7.7944611e-05
9.3188775e-05
0.00011192851
0.0001349933
0.00016490324
0.00020010366
0.00024327424
0.00029601524
0.00036010563
0.00044161278
0.00053511491
0.0006464984
0.0007859537
0.00094291663
0.0011287848
0.0012406483
0.0012376656
0.0012345849
0.0012312759
0.0012276481
0.0012237179
0.0012195985
0.0012153931
0.0012110937
0.0012066268
0.0012020007
0.0011973473
0.0011928423
0.001188713
0.0011852081
0.0011822809
0.0011794761
0.0011762599
0.001173497
0.0011731082
0.0011737192
1.112785e-07
3.4499926e-06
2.137116e-06
2.4474626e-06
2.1334118e-06
1.9199642e-06
2.0636405e-06
1.870026e-06
1.8653769e-06
1.8773274e-06
1.9241357e-06
2.010783e-06
2.1300268e-06
2.2776051e-06
2.4523805e-06
2.6545979e-06
2.8840612e-06
3.144708e-06
3.4383834e-06
3.767864e-06
4.1364546e-06
4.5479995e-06
5.0069702e-06
5.5186263e-06
6.0892323e-06
6.7215999e-06
7.4319821e-06
8.2284824e-06
9.1247724e-06
1.0137937e-05
1.1289592e-05
1.260656e-05
1.4122355e-05
1.5878659e-05
1.7927345e-05
2.0332969e-05
2.3175516e-05
2.6552468e-05
3.0586129e-05
3.5428647e-05
4.1544229e-05
4.8688214e-05
5.7387602e-05
6.8024545e-05
8.1071435e-05
9.7112314e-05
0.00011686426
0.00014120246
0.00017271977
0.00020984007
0.00025529282
0.00031067623
0.00037775624
0.00046271064
0.00055975409
0.00067478151
0.00081814522
0.00097873295
0.0011682838
0.00124417
0.0012411278
0.0012378892
0.0012343189
0.0012303488
0.0012260477
0.0012215993
0.0012171733
0.0012128008
0.0012084028
0.0012039654
0.0011996493
0.0011957137
0.0011924023
0.0011898249
0.0011876727
0.0011852286
0.0011823296
0.0011803975
0.0011811725
0.0011820482
1.1021478e-07
2.7431185e-06
1.844385e-06
1.8898664e-06
1.8417803e-06
1.5843996e-06
1.647991e-06
1.5572328e-06
1.5862952e-06
1.6355536e-06
1.7238637e-06
1.8431625e-06
1.9896127e-06
2.1614809e-06
2.3590045e-06
2.583361e-06
2.8354457e-06
3.1189776e-06
3.43605e-06
3.7896561e-06
4.1832031e-06
4.6205885e-06
5.1062965e-06
5.6455707e-06
6.2446421e-06
6.9110559e-06
7.6540827e-06
8.4852175e-06
9.4076535e-06
1.0456863e-05
1.1647677e-05
1.3008161e-05
1.4573421e-05
1.6387084e-05
1.8503138e-05
2.1074759e-05
2.4036765e-05
2.7560071e-05
3.1775878e-05
3.6849029e-05
4.2987144e-05
5.0451133e-05
5.956915e-05
7.0750127e-05
8.4501528e-05
0.00010145066
0.00012236611
0.00014947248
0.00018151955
0.00022088915
0.0002690443
0.0003276141
0.00040215807
0.00048766892
0.00058938511
0.00070938052
0.00085805536
0.0010234096
0.0012161997
0.0012478002
0.0012446436
0.001241194
0.0012373337
0.0012330327
0.0012284116
0.0012237136
0.0012191756
0.001214888
0.0012107785
0.0012067704
0.0012029782
0.0011997129
0.0011972507
0.0011955243
0.0011939362
0.0011917367
0.0011891628
0.0011880686
0.0011898329
0.0011907261
1.1224596e-07
2.1251725e-06
1.6005098e-06
1.4631954e-06
1.5428828e-06
1.3024998e-06
1.3434528e-06
1.3282319e-06
1.3926877e-06
1.4787435e-06
1.5976674e-06
1.7420302e-06
1.9103206e-06
2.1025895e-06
2.3200447e-06
2.5644471e-06
2.8375271e-06
3.1424056e-06
3.4815669e-06
3.8580746e-06
4.2753572e-06
4.7373046e-06
5.2483823e-06
5.8138103e-06
6.4398046e-06
7.1339167e-06
7.9054823e-06
8.7661861e-06
9.7307485e-06
1.081779e-05
1.2050801e-05
1.3459409e-05
1.5080661e-05
1.6960687e-05
1.9156662e-05
2.1739439e-05
2.4797234e-05
2.8440961e-05
3.2810497e-05
3.8083405e-05
4.448477e-05
5.2297804e-05
6.1874859e-05
7.3658038e-05
8.8194967e-05
0.00010704159
0.00012943748
0.00015712028
0.00019127234
0.0002332536
0.00028459238
0.00035023444
0.00042604738
0.00051672588
0.00062413841
0.00075730593
0.00090437339
0.0010732407
0.0012545314
0.0012514551
0.0012481195
0.0012444053
0.0012402412
0.0012356558
0.0012308194
0.0012260089
0.0012214906
0.0012173951
0.0012136777
0.0012102279
0.0012070839
0.0012045298
0.0012028499
0.0012018246
0.0012006176
0.0011985879
0.0011964127
0.0011961321
0.0011986126
0.0011994103
1.18611e-07
1.6247309e-06
1.4033902e-06
1.1521814e-06
1.3776004e-06
1.0676536e-06
1.1366848e-06
1.1768151e-06
1.270201e-06
1.385861e-06
1.5272258e-06
1.6909109e-06
1.8772226e-06
2.0872767e-06
2.3227891e-06
2.5857727e-06
2.8784989e-06
3.203271e-06
3.5631525e-06
3.9610911e-06
4.4005052e-06
4.8852657e-06
5.419819e-06
6.0093712e-06
6.6601408e-06
7.3797108e-06
8.1775036e-06
9.0654402e-06
1.0058633e-05
1.117634e-05
1.2442908e-05
1.3889157e-05
1.5553671e-05
1.7484586e-05
1.9741748e-05
2.2399762e-05
2.5552115e-05
2.9316843e-05
3.3843827e-05
3.9323748e-05
4.6313173e-05
5.4555738e-05
6.4693749e-05
7.7209302e-05
9.2701597e-05
0.00011191186
0.00013574608
0.00016529061
0.00020181391
0.00024907944
0.0003045208
0.00037187425
0.00045301014
0.00054972484
0.00066998153
0.00080275248
0.00095382028
0.0011211561
0.0012582321
0.0012550452
0.0012514851
0.0012474801
0.0012430312
0.0012382453
0.0012333379
0.0012285844
0.0012242223
0.0012203703
0.0012170222
0.001214116
0.0012116603
0.0012098257
0.0012088066
0.0012082718
0.0012072811
0.0012054141
0.0012037255
0.0012042138
0.0012071412
0.0012076795
1.3003818e-07
1.3125111e-06
1.2342149e-06
9.9690385e-07
1.0110749e-06
9.3459323e-07
1.0004101e-06
1.085669e-06
1.2013522e-06
1.3379134e-06
1.4961189e-06
1.6756473e-06
1.8776953e-06
2.1037863e-06
2.3557739e-06
2.6357127e-06
2.9458738e-06
3.2887587e-06
3.6671318e-06
4.0840643e-06
4.5429958e-06
5.0478261e-06
5.6030449e-06
6.213926e-06
6.8868019e-06
7.6265842e-06
8.4470742e-06
9.3586216e-06
1.0386369e-05
1.1535074e-05
1.2836679e-05
1.4323381e-05
1.6035488e-05
1.8023326e-05
2.0349693e-05
2.3093274e-05
2.6353372e-05
3.0256227e-05
3.496296e-05
4.0679206e-05
4.7666431e-05
5.6255455e-05
6.6862849e-05
8.0009296e-05
9.6348119e-05
0.00011668843
0.00014328276
0.00017503339
0.00021439255
0.00026296412
0.00032253878
0.00039502775
0.00048228489
0.00059136005
0.00071267092
0.00085042148
0.0010016702
0.0011585835
0.001261793
0.001258479
0.0012546962
0.0012504312
0.0012457643
0.0012408844
0.0012360452
0.0012314977
0.0012274169
0.0012238687
0.0012208357
0.0012183486
0.0012164806
0.0012152675
0.0012147373
0.001214488
0.00121363
0.0012119419
0.0012106904
0.0012117671
0.0012150012
0.0012153354
1.5336745e-07
1.3850916e-06
1.0650259e-06
7.6374512e-07
8.2666747e-07
8.3550334e-07
9.2502943e-07
1.0347568e-06
1.168062e-06
1.3203781e-06
1.4928186e-06
1.6862866e-06
1.9022807e-06
2.1424278e-06
2.4085875e-06
2.7028132e-06
3.0273746e-06
3.3847813e-06
3.777812e-06
4.2095547e-06
4.6834623e-06
5.2034392e-06
5.77397e-06
6.4003129e-06
7.0887839e-06
7.8471536e-06
8.6851793e-06
9.6152859e-06
1.0653411e-05
1.1819978e-05
1.3140994e-05
1.4649413e-05
1.6386625e-05
1.8404483e-05
2.0768001e-05
2.3559139e-05
2.6881983e-05
3.08695e-05
3.5691934e-05
4.1566918e-05
4.8771723e-05
5.8071574e-05
6.9171718e-05
8.2978496e-05
0.00010020481
0.00012173705
0.00014866284
0.00018229196
0.00022417393
0.00027610605
0.00034011245
0.00042216168
0.0005170592
0.00062905455
0.00075744183
0.00089865418
0.0010443951
0.001180439
0.0012650844
0.0012616612
0.0012577118
0.0012532811
0.0012485053
0.0012436349
0.0012389559
0.001234694
0.0012309638
0.0012277742
0.0012251438
0.001222981
0.0012213998
0.0012205385
0.001220282
0.0012202151
0.0012195214
0.0012180316
0.0012170302
0.0012182966
0.0012216963
0.0012221946
1.4705843e-07
8.8937259e-07
8.7507218e-07
6.5169143e-07
7.1205432e-07
7.7722932e-07
8.8688609e-07
1.01462e-06
1.1619089e-06
1.3276122e-06
1.512967e-06
1.7191639e-06
1.9477211e-06
2.200317e-06
2.478832e-06
2.7853526e-06
3.1221896e-06
3.4918498e-06
3.8972232e-06
4.3414087e-06
4.8278928e-06
5.3606064e-06
5.9440556e-06
6.5835162e-06
7.2853246e-06
8.057284e-06
8.9092088e-06
9.8536291e-06
1.091586e-05
1.2102173e-05
1.3445408e-05
1.4979286e-05
1.6746178e-05
1.8799303e-05
2.1205656e-05
2.4050152e-05
2.744117e-05
3.1517741e-05
3.6458432e-05
4.2492113e-05
4.9911152e-05
5.9088012e-05
7.0496602e-05
8.4741375e-05
0.00010258758
0.00012499622
0.00015315673
0.00019017239
0.00023480869
0.00029051881
0.00035967403
0.00044471363
0.00054755099
0.00066846402
0.00080442468
0.0009468436
0.0010799977
0.0011861579
0.0012615944
0.0012645168
0.0012604763
0.001255991
0.0012512209
0.0012464389
0.0012419567
0.0012380082
0.0012346534
0.0012319555
0.0012296459
0.0012276496
0.0012261139
0.0012252565
0.0012250938
0.0012251896
0.0012247726