/*--------------------------------*- C++ -*----------------------------------*\
  =========                 |
  \\      /  F ield         | OpenFOAM: The Open Source CFD Toolbox
   \\    /   O peration     | Website:  https://openfoam.org
    \\  /    A nd           | Version:  12
     \\/     M anipulation  |
\*---------------------------------------------------------------------------*/
FoamFile
{
    format      ascii;
    class       volScalarField;
    location    "0.014";
    object      Ma;
}
// * * * * * * * * * * * * * * * * * * * * * * * * * * * * * * * * * * * * * //

dimensions      [];

internalField   nonuniform List<scalar> 
16000
(
0.64078122
0.75538129
0.71127757
0.73548803
0.72058884
0.72745188
0.72174038
0.72324846
0.72059506
0.72012048
0.71849389
0.71733602
0.71591136
0.71451147
0.71303001
0.7114975
0.70990391
0.70824981
0.70653406
0.70475612
0.70291587
0.7010135
0.69904963
0.69702516
0.69494138
0.69279987
0.69060256
0.68835169
0.68604982
0.6836999
0.68130517
0.67886926
0.67639614
0.67389014
0.67135591
0.66879842
0.66622288
0.66363476
0.66103964
0.65844325
0.65585127
0.65326938
0.65070305
0.64815753
0.64563765
0.64314778
0.64069172
0.63827268
0.63589316
0.63355484
0.63125852
0.62900432
0.62679217
0.62462227
0.62249545
0.62041342
0.6183791
0.61639698
0.61447341
0.61261651
0.61083588
0.6091419
0.60754442
0.60605025
0.60465997
0.60336421
0.60213919
0.60094625
0.59974747
0.5985494
0.59747389
0.59676487
0.59672394
0.59767347
0.59930498
0.60086234
0.60048737
0.59735579
0.58682598
0.57663077
0.64483184
0.76050506
0.71456668
0.73991887
0.7242127
0.7314886
0.72540334
0.72696867
0.72417393
0.72360073
0.72189468
0.7206164
0.71909932
0.71758433
0.71599345
0.71434438
0.71263212
0.71085569
0.7090146
0.7071083
0.705137
0.70310113
0.70100173
0.69884014
0.69661821
0.69433813
0.69200254
0.68961442
0.68717719
0.68469462
0.68217091
0.67961063
0.67701873
0.67440053
0.67176166
0.66910806
0.66644587
0.66378139
0.661121
0.65847104
0.65583776
0.65322714
0.65064486
0.6480961
0.64558544
0.64311669
0.64069282
0.63831586
0.63598691
0.63370591
0.63147167
0.62928197
0.62713409
0.62502543
0.62295402
0.62091883
0.61892024
0.61696064
0.61504485
0.61318021
0.61137638
0.60964485
0.60799779
0.60644543
0.6049923
0.60363325
0.6023492
0.60110822
0.59988312
0.59869714
0.59769239
0.59710267
0.59727752
0.5984156
0.60018711
0.60158092
0.60101607
0.59701383
0.58583509
0.57603207
0.64854177
0.76517519
0.71776033
0.74377111
0.72753658
0.73497508
0.72869175
0.73017205
0.72730042
0.72657815
0.7247936
0.72337759
0.72175137
0.72010738
0.71838919
0.71660714
0.71475846
0.71284207
0.71085772
0.70880519
0.70668502
0.70449804
0.70224575
0.69993002
0.69755333
0.69511855
0.6926291
0.69008881
0.68750203
0.68487353
0.68220854
0.67951273
0.67679217
0.67405329
0.67130287
0.66854792
0.66579562
0.66305323
0.66032799
0.657627
0.65495708
0.65232466
0.64973568
0.64719537
0.64470812
0.64227735
0.63990531
0.63759306
0.63534035
0.63314553
0.63100548
0.62891575
0.62687099
0.62486571
0.62289481
0.62095406
0.61904064
0.61715392
0.61529613
0.61347262
0.61169174
0.60996431
0.60830275
0.6067187
0.60521895
0.60380111
0.60245056
0.6011447
0.59987389
0.59869122
0.59776585
0.59734015
0.59779185
0.59917935
0.60108523
0.6023433
0.60143
0.59654439
0.58475436
0.57539853
0.65183587
0.7693971
0.72050558
0.74704312
0.73037011
0.73796052
0.73149592
0.73285393
0.72990746
0.72900988
0.72713583
0.72556336
0.7238109
0.72202152
0.72015906
0.71822774
0.71622662
0.71415465
0.71201187
0.70979838
0.70751511
0.70516331
0.70274501
0.7002627
0.69771957
0.69511931
0.69246627
0.68976531
0.68702189
0.68424196
0.68143198
0.67859888
0.67575002
0.67289307
0.67003602
0.66718703
0.66435433
0.66154611
0.65877039
0.6560349
0.6533469
0.65071307
0.64813937
0.64563085
0.64319153
0.64082416
0.63853015
0.63630939
0.63416022
0.63207933
0.63006172
0.62810082
0.62618892
0.62431784
0.62247958
0.62066685
0.61887369
0.61709636
0.6153342
0.61359006
0.61187023
0.61018384
0.60854197
0.6069555
0.60543135
0.60396826
0.60255566
0.60118163
0.59985816
0.5986753
0.59782506
0.59757145
0.59828232
0.59991117
0.6019158
0.60305877
0.60171023
0.59592105
0.58361761
0.57468021
0.65469589
0.77310055
0.72291848
0.74971647
0.73253577
0.7403359
0.73373036
0.73491867
0.73190729
0.73080296
0.72883759
0.72709335
0.72519853
0.72325036
0.72122859
0.71913356
0.71696516
0.71472255
0.71240604
0.71001613
0.7075542
0.7050221
0.70242258
0.69975893
0.69703531
0.69425649
0.69142802
0.68855604
0.6856474
0.68270947
0.6797502
0.67677796
0.67380155
0.67083002
0.66787265
0.66493874
0.66203755
0.65917811
0.65636908
0.65361863
0.65093423
0.64832254
0.64578927
0.64333901
0.6409751
0.63869943
0.63651228
0.63441222
0.63239604
0.63045866
0.62859322
0.62679111
0.62504245
0.62333664
0.62166304
0.62001158
0.61837341
0.61674186
0.61511336
0.61348801
0.61186952
0.61026466
0.60868208
0.60713023
0.60561397
0.60413153
0.60267566
0.60124565
0.59987823
0.59869933
0.59792264
0.59786897
0.59881489
0.60064948
0.60267377
0.60360436
0.6017502
0.59505951
0.58232129
0.57386274
0.65710099
0.77620363
0.72486861
0.75192459
0.73444599
0.74203924
0.73528393
0.73633029
0.73320095
0.7319205
0.72984854
0.72792429
0.7258732
0.72375407
0.72155795
0.7192833
0.71693051
0.71449924
0.71199035
0.70940501
0.7067454
0.70401429
0.70121548
0.69835344
0.69543365
0.69246229
0.68944646
0.6863939
0.68331315
0.68021324
0.67710383
0.67399493
0.67089687
0.66782013
0.66477526
0.66177262
0.65882233
0.65593401
0.6531167
0.65037863
0.64772711
0.64516837
0.64270744
0.64034804
0.6380924
0.63594117
0.63389324
0.63194557
0.63009319
0.62832917
0.62664469
0.62502926
0.62347103
0.62195733
0.62047535
0.6190127
0.61755819
0.61610273
0.61464028
0.61316834
0.61168791
0.610203
0.60871923
0.60724153
0.60577128
0.60430491
0.60283791
0.60138084
0.59999705
0.59883821
0.598146
0.5983134
0.59947702
0.60145127
0.60337921
0.60394837
0.60149594
0.5939362
0.58087095
0.57297965
0.65906504
0.77871499
0.7263927
0.75364102
0.73589386
0.74311894
0.73647797
0.73720842
0.73399259
0.73237486
0.73018046
0.72806003
0.72582839
0.72351584
0.7211205
0.71864074
0.71607751
0.71343134
0.71070401
0.70789769
0.70501576
0.70206225
0.69904241
0.69596227
0.692829
0.68965057
0.68643596
0.68319485
0.6799377
0.67667551
0.67341975
0.67018217
0.66697468
0.66380911
0.6606971
0.65764985
0.65467799
0.65179138
0.64899892
0.64630845
0.64372656
0.64125851
0.63890812
0.6366777
0.63456795
0.63257784
0.63070448
0.62894297
0.62728639
0.62572579
0.62425044
0.62284802
0.62150497
0.62020697
0.61893951
0.6176885
0.61644111
0.61518661
0.61391716
0.61262817
0.61131818
0.60998833
0.60864087
0.60727673
0.60589322
0.60448443
0.60304837
0.60160658
0.6002464
0.59914677
0.59861611
0.59898254
0.60035783
0.60239322
0.60410236
0.60417066
0.60103365
0.59258787
0.57937659
0.57213023
0.66067095
0.78069579
0.72753789
0.75490016
0.73689312
0.74392459
0.73702002
0.73713891
0.7340307
0.73217771
0.72982039
0.727474
0.72502485
0.72248491
0.71985582
0.71713687
0.71432973
0.71143607
0.70845886
0.70540166
0.7022694
0.69906779
0.69580394
0.69248586
0.68912283
0.68572501
0.68230364
0.67887062
0.67543863
0.67202074
0.66863035
0.66528091
0.66198574
0.65875778
0.65560943
0.65255227
0.64959692
0.64675283
0.64402817
0.64142965
0.63896249
0.63663029
0.63443506
0.63237711
0.6304551
0.62866591
0.62700451
0.62546389
0.62403499
0.62270684
0.6214668
0.6203009
0.61919419
0.61813109
0.61709598
0.6160738
0.61505088
0.61401568
0.61295941
0.61187615
0.61076248
0.60961688
0.6084382
0.60722327
0.60596543
0.6046566
0.60329791
0.60192396
0.60064214
0.59967211
0.59934032
0.59995129
0.60152136
0.6035471
0.60494453
0.60441314
0.60053232
0.59126848
0.57814965
0.57161133
0.66197796
0.78214959
0.72822118
0.75569218
0.73718991
0.74343646
0.73676761
0.7365243
0.73343321
0.7312466
0.72868043
0.72607414
0.72336675
0.72056091
0.71765959
0.71466357
0.71157562
0.7083989
0.70513803
0.70179844
0.69838709
0.69491195
0.69138249
0.68780926
0.68420414
0.68057993
0.67695049
0.67333025
0.66973424
0.66617766
0.66267573
0.65924335
0.65589491
0.65264395
0.649503
0.6464833
0.64359468
0.64084534
0.63824184
0.63578895
0.63348966
0.6313452
0.62935507
0.62751709
0.62582738
0.62428037
0.62286866
0.62158292
0.62041191
0.61934267
0.61836085
0.61745108
0.61659736
0.61578336
0.61499295
0.61421086
0.61342339
0.61261908
0.61178899
0.61092659
0.61002716
0.60908698
0.60810173
0.60706447
0.60596497
0.60479395
0.60355736
0.60230438
0.60116622
0.60039895
0.60033533
0.60122714
0.6029876
0.60496484
0.60601819
0.60487902
0.60025776
0.59041832
0.57766219
0.57191289
0.66295205
0.78302488
0.72836612
0.75555957
0.73676184
0.74262354
0.73600969
0.73526084
0.73200548
0.72947183
0.72664538
0.72374166
0.72073272
0.71761876
0.71440336
0.71108926
0.70768092
0.70418355
0.70060407
0.69695044
0.69323236
0.68946074
0.68564815
0.68180828
0.67795618
0.67410773
0.67027972
0.66648924
0.66275367
0.65909011
0.65551524
0.65204486
0.64869369
0.64547503
0.64240057
0.63948017
0.63672175
0.63413123
0.63171247
0.62946733
0.62739574
0.62549584
0.62376403
0.62219519
0.62078262
0.6195181
0.61839171
0.61739181
0.61650507
0.61571675
0.61501106
0.61437166
0.61378191
0.61322527
0.61268576
0.61214859
0.61160084
0.61103184
0.6104332
0.6097984
0.60912194
0.60839841
0.60762084
0.60677905
0.60586028
0.60485591
0.60377949
0.60269664
0.60176913
0.60128024
0.60155271
0.60277523
0.60473564
0.60666651
0.6074128
0.60578322
0.60056662
0.5904856
0.57834915
0.57321951
0.663516
0.78318383
0.72790704
0.75384982
0.73559629
0.74088236
0.73438435
0.73304024
0.72964985
0.7267353
0.72359165
0.72034563
0.71698684
0.7135171
0.70994101
0.7062638
0.70249242
0.69863497
0.69470156
0.6907036
0.68665447
0.68256891
0.67846335
0.67435531
0.67026351
0.66620722
0.66220623
0.65828018
0.6544484
0.65072929
0.64714016
0.64369667
0.64041268
0.63729992
0.63436785
0.63162354
0.62907169
0.6267146
0.62455239
0.62258305
0.62080271
0.61920585
0.61778548
0.61653329
0.61543972
0.6144939
0.61368352
0.61299479
0.61241257
0.6119207
0.61150244
0.6111409
0.61081937
0.61052162
0.61023245
0.60993824
0.60962745
0.60929077
0.60892078
0.60851133
0.60805656
0.60754976
0.6069819
0.60634056
0.60561215
0.60479183
0.60390411
0.60303476
0.60238406
0.60224652
0.60292654
0.60453415
0.60672555
0.60864747
0.60919561
0.60727019
0.60172023
0.59176882
0.58060278
0.5757317
0.66358618
0.78249146
0.72671609
0.75194059
0.73386373
0.73823285
0.73182233
0.72986231
0.72623777
0.7229071
0.71938265
0.71573948
0.71197487
0.70809436
0.70410474
0.70001459
0.69583456
0.69157682
0.68725589
0.68288783
0.67849083
0.67408437
0.66968953
0.66532816
0.66102291
0.65679641
0.6526711
0.64866851
0.64480895
0.6411109
0.63759072
0.63426229
0.63113679
0.62822252
0.62552496
0.62304673
0.62078783
0.61874579
0.61691598
0.61529189
0.61386542
0.61262722
0.61156687
0.61067309
0.60993364
0.60933529
0.60886368
0.60850326
0.60823753
0.60804945
0.60792183
0.60783783
0.60778116
0.60773652
0.60769002
0.60762973
0.60754594
0.60743096
0.60727852
0.60708297
0.60683823
0.6065367
0.60616809
0.60571929
0.60517861
0.60454885
0.60387165
0.60326161
0.6029444
0.60322855
0.60438576
0.60643853
0.60891563
0.6108928
0.61137112
0.60936726
0.60373834
0.59424678
0.58413193
0.57889743
0.66313388
0.78091112
0.72469559
0.74900131
0.73121635
0.73458035
0.72820871
0.72558257
0.72163548
0.71783598
0.71385704
0.70974878
0.70551193
0.70115682
0.69669423
0.69213753
0.68750268
0.68280753
0.67807249
0.67331961
0.66857292
0.66385749
0.6591995
0.65462529
0.65016114
0.64583236
0.64166295
0.63767473
0.6338871
0.63031639
0.62697569
0.62387459
0.62101924
0.61841238
0.61605354
0.61393937
0.61206398
0.61041927
0.60899541
0.60778119
0.60676443
0.60593223
0.60527123
0.60476761
0.60440703
0.60417441
0.60405385
0.60402863
0.60408147
0.60419505
0.60435235
0.60453711
0.60473404
0.6049292
0.60511051
0.60526807
0.60539414
0.6054827
0.60552855
0.60552647
0.60547031
0.60535207
0.6051615
0.6048873
0.60452346
0.60408595
0.60364201
0.60333751
0.60340345
0.60418237
0.60587613
0.60843022
0.61126093
0.61337901
0.61387665
0.61192336
0.60638782
0.59754545
0.58829729
0.58204285
0.66214313
0.77833585
0.72177978
0.74504399
0.72757338
0.72980407
0.72338984
0.72004864
0.71566524
0.71132457
0.70680546
0.70215059
0.69736446
0.69246373
0.68746551
0.68239007
0.67726066
0.67210259
0.66694367
0.6618131
0.65674162
0.65176025
0.6469002
0.64219157
0.63766299
0.63334053
0.62924724
0.62540241
0.62182132
0.61851486
0.6154897
0.61274825
0.61028913
0.60810744
0.60619533
0.60454245
0.6031365
0.60196368
0.60100922
0.60025775
0.59969368
0.5993014
0.59906541
0.5989702
0.59900002
0.59913864
0.59936927
0.59967467
0.60003747
0.6004407
0.60086809
0.60130444
0.60173591
0.60215039
0.60253785
0.60289056
0.6032027
0.60346967
0.60368716
0.60385034
0.60395329
0.60398866
0.60394836
0.6038265
0.6036281
0.60338834
0.60320531
0.60325699
0.60374992
0.60509875
0.60737193
0.61045352
0.61367777
0.61600612
0.61653818
0.61459636
0.60922433
0.60104451
0.59228596
0.58454614
0.66054417
0.77458923
0.71791208
0.73990281
0.7227548
0.723732
0.7171623
0.71304008
0.70809112
0.70311271
0.69795317
0.692658
0.6872387
0.68172045
0.67612942
0.6704951
0.66485007
0.65922883
0.65366794
0.64820464
0.64287649
0.63771993
0.63276964
0.62805713
0.62361017
0.6194517
0.61559956
0.61206605
0.60885807
0.60597722
0.6034204
0.60118027
0.59924603
0.59760402
0.59623849
0.59513217
0.59426686
0.5936239
0.59318465
0.59293076
0.59284448
0.59290868
0.5931068
0.59342254
0.59383955
0.59434121
0.59491053
0.59553043
0.59618412
0.59685553
0.59752964
0.59819275
0.59883281
0.59943979
0.60000587
0.60052537
0.60099415
0.60140875
0.60176558
0.60206044
0.6022885
0.60244487
0.60252681
0.60253872
0.60250299
0.60247963
0.60259259
0.60304533
0.60410028
0.60600268
0.60886322
0.61243724
0.61599845
0.61849921
0.61902449
0.61691805
0.61168625
0.60406936
0.59542169
0.58608124
0.65828373
0.7694339
0.71314399
0.73340416
0.7165597
0.71613515
0.70925349
0.70425471
0.69859114
0.69285606
0.68694518
0.68091215
0.6747797
0.66858403
0.66236316
0.65615834
0.65001371
0.64397458
0.63808703
0.63239595
0.62694411
0.6217703
0.61690844
0.61238617
0.60822452
0.60443726
0.60103122
0.59800648
0.59535721
0.5930724
0.5911369
0.58953235
0.58823815
0.58723225
0.58649193
0.58599432
0.5857169
0.58563786
0.58573637
0.58599279
0.58638871
0.58690678
0.58753047
0.5882436
0.58903001
0.5898733
0.59075699
0.59166478
0.59258099
0.59349094
0.59438123
0.59523996
0.59605714
0.59682492
0.59753767
0.59819151
0.59878366
0.5993116
0.59977264
0.60016401
0.60048363
0.60073196
0.6009158
0.60105521
0.60119534
0.6014242
0.60189073
0.60280702
0.60441734
0.60691926
0.61031448
0.61427055
0.61799491
0.62044449
0.62092018
0.61845089
0.61332197
0.60612394
0.59731953
0.58660197
0.65529418
0.76246191
0.70729116
0.72527079
0.70867156
0.70666189
0.69927379
0.69327663
0.68674001
0.68012003
0.67334862
0.6664907
0.65958498
0.65268243
0.6458366
0.63910358
0.63254087
0.6262048
0.62014918
0.61442261
0.6090673
0.60411709
0.59959696
0.59552233
0.59189947
0.58872599
0.58599194
0.583681
0.58177189
0.58023967
0.5790571
0.57819566
0.57762655
0.57732141
0.57725281
0.57739469
0.57772253
0.57821356
0.57884682
0.57960311
0.58046482
0.58141557
0.58243977
0.58352209
0.5846471
0.58579927
0.58696312
0.58812364
0.58926671
0.59037935
0.59145002
0.59246885
0.59342803
0.59432191
0.59514685
0.59590053
0.59658133
0.59718781
0.59771892
0.5981749
0.59855911
0.59888112
0.59916194
0.59944184
0.59979089
0.60032122
0.60119528
0.60261634
0.6047849
0.60781498
0.61162218
0.61579131
0.61947875
0.62150263
0.62181228
0.61897275
0.61391151
0.6069752
0.59793108
0.58628804
0.65142178
0.75301703
0.69978041
0.71505415
0.69863878
0.6948393
0.68671949
0.67958847
0.67202094
0.66439013
0.65666358
0.64892216
0.64122743
0.63365064
0.62626462
0.61914146
0.6123501
0.60595269
0.60000263
0.594542
0.58960081
0.58519621
0.58133321
0.57800546
0.57519699
0.57288391
0.57103642
0.56962064
0.56860036
0.5679385
0.56759832
0.56754428
0.56774275
0.56816231
0.56877404
0.56955153
0.57047085
0.57151052
0.57265128
0.57387588
0.57516867
0.57651509
0.57790104
0.5793125
0.58073523
0.58215493
0.58355757
0.58492979
0.58625925
0.5875349
0.5887472
0.58988846
0.59095308
0.59193751
0.5928399
0.59365936
0.59439552
0.59504874
0.5956211
0.59611838
0.59655281
0.59694717
0.59734045
0.59779472
0.5984015
0.59928576
0.60060341
0.60252247
0.60517781
0.6085975
0.61260814
0.61674517
0.62022802
0.62202286
0.62133473
0.61838388
0.61337722
0.60661981
0.5973956
0.58537925
0.64637921
0.7412493
0.69019081
0.7022036
0.68588741
0.68010392
0.67098378
0.66256337
0.65381155
0.64506162
0.63632705
0.62771312
0.6193109
0.61121494
0.60351513
0.5962924
0.5896155
0.58353751
0.57809482
0.57330625
0.56917426
0.56568636
0.56281771
0.56053363
0.55879254
0.5575484
0.55675316
0.55635854
0.55631761
0.5565858
0.55712169
0.55788734
0.55884846
0.55997437
0.56123784
0.56261484
0.56408428
0.56562773
0.56722903
0.56887388
0.57054923
0.57224269
0.57394197
0.57563453
0.57730757
0.5789483
0.58054438
0.5820843
0.58355766
0.58495542
0.58627015
0.5874964
0.58863075
0.58967165
0.59061889
0.5914731
0.59223583
0.59291061
0.59350498
0.59403342
0.59452073
0.59500606
0.59554735
0.59622473
0.59714026
0.59841287
0.60016784
0.60251577
0.60551426
0.60911127
0.6130721
0.61690747
0.619837
0.62102849
0.61994931
0.61669123
0.61181691
0.60520624
0.59590629
0.5841296
0.63983482
0.72794444
0.67795367
0.68609615
0.66967748
0.66171837
0.65128506
0.64140288
0.63135059
0.62144997
0.61177399
0.60245764
0.59361863
0.58536462
0.57778554
0.57094933
0.56490041
0.55965885
0.55522242
0.551569
0.54866057
0.546447
0.54487023
0.54386773
0.54337567
0.5433313
0.54367478
0.54435038
0.54530724
0.54649963
0.54788703
0.54943389
0.5511093
0.55288652
0.55474259
0.55665787
0.5586156
0.56060147
0.56260314
0.56460961
0.56661058
0.56859585
0.57055486
0.57247662
0.57434984
0.57616342
0.57790682
0.57957044
0.58114587
0.58262613
0.58400603
0.58528233
0.58645378
0.5875207
0.58848459
0.58934808
0.5901159
0.59079684
0.59140679
0.5919722
0.59253321
0.59314597
0.5938836
0.59483389
0.59609181
0.59774785
0.59987573
0.60251695
0.605656
0.60918326
0.61284029
0.61615572
0.6184427
0.61898794
0.61747617
0.61419373
0.6095272
0.60303631
0.59373671
0.58274077
0.6314489
0.71064478
0.66221434
0.66584037
0.64894529
0.63861372
0.62658409
0.61513696
0.60381802
0.5929465
0.58265171
0.57308504
0.56436508
0.55658049
0.54978578
0.54400128
0.53921642
0.53539391
0.53247592
0.53038985
0.52905436
0.52838423
0.52829457
0.52870382
0.52953588
0.53072134
0.53219813
0.5339116
0.53581428
0.53786535
0.54003008
0.5422791
0.5445877
0.54693524
0.54930451
0.55168127
0.55405372
0.55641199
0.55874758
0.56105263
0.56331931
0.56553931
0.56770363
0.56980272
0.57182686
0.57376663
0.57561333
0.57735926
0.57899801
0.58052476
0.58193656
0.58323244
0.58441325
0.58548122
0.58643989
0.58729486
0.58805577
0.58873928
0.58937257
0.58999645
0.5906668
0.59145324
0.59243455
0.59369005
0.59528701
0.59726845
0.59964637
0.60239764
0.60545447
0.6086825
0.61183541
0.61449455
0.61608017
0.61606227
0.61431563
0.61117726
0.60680591
0.60042911
0.59124287
0.5813504
0.62054064
0.6883117
0.64153679
0.640033
0.62221716
0.60939526
0.59570466
0.58286044
0.57065297
0.55937873
0.54918141
0.54018253
0.53244896
0.52599962
0.52080951
0.51681728
0.51393481
0.51205622
0.51106671
0.5108494
0.51129096
0.51228525
0.51373562
0.51555606
0.51767142
0.52001706
0.5225381
0.52518845
0.5279298
0.53073056
0.53356482
0.53641149
0.53925344
0.54207689
0.54487079
0.54762638
0.55033667
0.5529959
0.5555989
0.55814042
0.56061458
0.56301454
0.56533262
0.56756058
0.56969021
0.57171375
0.57362427
0.57541597
0.57708444
0.57862706
0.58004317
0.5813341
0.58250279
0.58355362
0.58449284
0.58533038
0.58608291
0.58677749
0.58745476
0.58817029
0.58899243
0.58999566
0.59125017
0.59280872
0.5946938
0.59689169
0.59935733
0.60202273
0.60479842
0.60755842
0.61009575
0.6120648
0.61300727
0.61256599
0.61076434
0.60790776
0.60386972
0.59763216
0.58871641
0.58010382
0.60596492
0.65884797
0.61401449
0.60689168
0.58787977
0.57268044
0.55775861
0.54422515
0.53204988
0.52144847
0.5124946
0.50520538
0.49953087
0.49537126
0.49259115
0.49103417
0.49053626
0.49093553
0.49207958
0.49382979
0.49606362
0.49867498
0.50157378
0.50468459
0.50794512
0.51130446
0.5147215
0.51816332
0.5216038
0.52502239
0.52840304
0.53173329
0.53500358
0.53820667
0.5413372
0.54439129
0.54736605
0.55025907
0.55306775
0.55578871
0.55841744
0.56094818
0.56337429
0.56568874
0.56788471
0.569956
0.57189738
0.57370489
0.57537617
0.57691082
0.5783105
0.57957873
0.5807207
0.58174338
0.58265679
0.58347686
0.58422931
0.58495344
0.58570386
0.58654837
0.58756039
0.58880642
0.5903322
0.59214969
0.59422898
0.59650353
0.59888906
0.60130055
0.60365652
0.60586217
0.60776143
0.60908611
0.60949782
0.60879004
0.60707857
0.60457395
0.60088003
0.59484978
0.58638182
0.5790848
0.58571386
0.61989724
0.5774561
0.56461748
0.54494047
0.52778306
0.51279365
0.50000657
0.48939317
0.48099518
0.47471513
0.47039224
0.46781446
0.46674637
0.46694889
0.4681942
0.47027514
0.47300977
0.47624275
0.47984417
0.48370741
0.48774617
0.49189154
0.49608913
0.50029652
0.50448105
0.50861792
0.51268858
0.51667939
0.52058054
0.52438515
0.52808852
0.53168768
0.53518098
0.53856773
0.54184796
0.54502194
0.54808966
0.55105025
0.55390151
0.55663975
0.55925996
0.56175634
0.56412291
0.56635408
0.56844506
0.57039222
0.5721934
0.57384829
0.57535864
0.57672829
0.57796294
0.57907015
0.58006018
0.58094812
0.58175768
0.58252532
0.58330305
0.58415749
0.58516305
0.58638782
0.58787628
0.58963645
0.59163342
0.59378946
0.59600076
0.59816811
0.60021585
0.60208969
0.60373406
0.60504282
0.6058205
0.60583723
0.60500383
0.60347196
0.60132594
0.59796558
0.59224215
0.58440214
0.57834066
0.55717629
0.56894458
0.53054388
0.51186826
0.49107799
0.47547702
0.46240138
0.4524473
0.44535085
0.44086684
0.43864724
0.43832627
0.43954424
0.44197273
0.44532559
0.44936231
0.45388637
0.45874057
0.46380137
0.46897308
0.47418262
0.47937491
0.4845091
0.48955543
0.4944928
0.49930673
0.50398784
0.50853054
0.51293207
0.51719167
0.52130998
0.5252886
0.52912972
0.53283602
0.53641037
0.53985563
0.54317424
0.54636773
0.54943619
0.55237806
0.55519009
0.55786776
0.56040593
0.56279946
0.56504381
0.5671354
0.56907202
0.57085324
0.57248065
0.57395801
0.57529112
0.57648768
0.57755785
0.57851589
0.57938338
0.58019342
0.58099421
0.58184941
0.58283321
0.58401845
0.58545723
0.58716092
0.58909264
0.59117334
0.59329236
0.59533042
0.59719535
0.59883765
0.60023667
0.60137227
0.60218059
0.602531
0.6022847
0.60143156
0.6001137
0.59828986
0.59524605
0.58993796
0.58287385
0.57787689
0.51622142
0.50351242
0.46606409
0.44800024
0.43046128
0.41816731
0.40980244
0.40514391
0.4035351
0.40438591
0.40712423
0.41125991
0.41638836
0.42218932
0.42841609
0.43488275
0.44145178
0.44802305
0.45452496
0.46090729
0.46713584
0.47318819
0.47905071
0.48471612
0.49018184
0.49544859
0.50051947
0.50539911
0.51009311
0.51460757
0.51894872
0.52312275
0.52713567
0.53099321
0.53470076
0.53826305
0.54168388
0.5449656
0.54810879
0.55111208
0.55397247
0.55668576
0.55924728
0.56165257
0.56389785
0.56598054
0.56789964
0.5696562
0.5712535
0.57269705
0.57399432
0.57515488
0.57619162
0.57712339
0.57797912
0.57880219
0.57965253
0.58060327
0.58173043
0.58309642
0.58472882
0.58660149
0.58863353
0.5907105
0.59270773
0.59451189
0.59605142
0.59730667
0.59828688
0.59899976
0.59941528
0.59945749
0.59905722
0.59824565
0.5971273
0.59556469
0.59282318
0.58802382
0.58182008
0.57766194
0.45391058
0.42107945
0.3912163
0.37624127
0.3653332
0.36049565
0.35992818
0.36270416
0.36782708
0.37453237
0.38223112
0.39049609
0.39902511
0.40760992
0.41611025
0.42443408
0.43252312
0.44034254
0.44787358
0.45510852
0.46204707
0.46869391
0.47505699
0.48114632
0.48697308
0.49254909
0.49788632
0.50299656
0.50789118
0.51258094
0.51707587
0.52138526
0.52551764
0.52948078
0.53328166
0.53692618
0.54041886
0.54376246
0.54695769
0.55000328
0.55289632
0.55563287
0.55820863
0.56061963
0.5628627
0.564936
0.56683951
0.56857548
0.57014856
0.5715657
0.57283584
0.57397036
0.57498483
0.57590264
0.57675973
0.57760883
0.57851976
0.57957219
0.58083948
0.58236779
0.58415637
0.58614417
0.58821489
0.59022988
0.59206464
0.59362625
0.59486857
0.59579647
0.59644092
0.59682866
0.59695747
0.59679503
0.59631811
0.59556787
0.59460017
0.5932243
0.59076686
0.5865365
0.58120358
0.57764015
0.3574657
0.32383106
0.30611293
0.30157885
0.30295989
0.30925596
0.31848178
0.32936355
0.34102275
0.35290458
0.36467134
0.37612579
0.38715975
0.39772005
0.40778725
0.41736209
0.42645717
0.43509169
0.44328818
0.45107058
0.45846301
0.46548906
0.47217138
0.47853146
0.48458956
0.49036459
0.49587417
0.50113454
0.50616063
0.51096602
0.51556303
0.51996281
0.52417541
0.52820983
0.53207396
0.53577437
0.53931597
0.54270169
0.54593233
0.54900668
0.55192197
0.55467452
0.55726044
0.55967619
0.56191915
0.5639881
0.56588377
0.56760927
0.56917026
0.57057475
0.57183295
0.57295777
0.57396702
0.57488755
0.57576038
0.57664459
0.57761589
0.57875651
0.58013567
0.58178564
0.58368168
0.58573406
0.58780193
0.58973383
0.59141239
0.59276904
0.59377911
0.59446271
0.59486498
0.5950257
0.59496512
0.59468109
0.59417432
0.59347717
0.59259908
0.59133109
0.5891148
0.58545086
0.58091777
0.57773467
0.21762417
0.21633821
0.2217341
0.23518698
0.25257507
0.27105675
0.28942084
0.30701356
0.3236044
0.33912893
0.35361243
0.36711564
0.37971286
0.39148005
0.40248968
0.41280862
0.42249744
0.43161058
0.44019676
0.44829953
0.45595786
0.4632067
0.47007742
0.47659826
0.48279471
0.48868977
0.49430422
0.49965678
0.5047643
0.50964191
0.51430317
0.51876023
0.523024
0.52710421
0.53100935
0.53474642
0.53832064
0.54173512
0.54499078
0.54808654
0.55101981
0.55378718
0.55638508
0.55881038
0.56106085
0.56313565
0.56503589
0.56676503
0.56832908
0.56973643
0.57099774
0.57212672
0.57314241
0.57407352
0.5749636
0.57587495
0.57688662
0.57808259
0.57952946
0.58125025
0.58320508
0.58528859
0.58735015
0.58923448
0.59082354
0.5920568
0.5929289
0.59346976
0.59372809
0.59375395
0.5935852
0.59323845
0.59272365
0.5920582
0.59121612
0.5899936
0.58795425
0.58475079
0.58083454
0.57786554
0.092372372
0.1224201
0.16000766
0.1938155
0.22409603
0.25076006
0.27442962
0.29557274
0.31460733
0.33186111
0.34759835
0.36203083
0.37533056
0.38763846
0.39907122
0.40972642
0.4196864
0.42902129
0.4377913
0.44604849
0.45383825
0.46120037
0.46816995
0.47477809
0.48105248
0.48701783
0.49269623
0.49810743
0.50326908
0.50819698
0.51290526
0.51740665
0.5217126
0.52583341
0.52977808
0.53355404
0.53716678
0.54061957
0.54391333
0.54704689
0.55001755
0.55282174
0.55545572
0.55791605
0.56020011
0.56230659
0.56423605
0.56599138
0.56757794
0.56900348
0.57027806
0.57141501
0.57243362
0.57336364
0.57425081
0.57516109
0.57617898
0.57739386
0.57887449
0.58064267
0.58265605
0.5848024
0.58692304
0.58886609
0.59049849
0.59172788
0.59259227
0.59309042
0.59329876
0.59326085
0.59303313
0.59264467
0.59211185
0.59144322
0.59059648
0.58938169
0.58743193
0.58446965
0.58086432
0.57796556
0.0074022274
0.32429584
0.48270245
0.52203575
0.52913562
0.52938357
0.5292982
0.53062087
0.53231439
0.53398816
0.5355863
0.53714778
0.53866295
0.54015799
0.54164572
0.54313126
0.54461356
0.54609479
0.54757555
0.54905522
0.55053268
0.55200664
0.55347563
0.55493805
0.55639218
0.55783624
0.55926835
0.56068659
0.56208893
0.56347325
0.56483731
0.56617877
0.56749515
0.5687839
0.57004241
0.57126807
0.57245835
0.57361088
0.57472355
0.57579455
0.57682243
0.5778061
0.57874482
0.57963812
0.58048576
0.58128765
0.5820438
0.58275433
0.58341944
0.58403949
0.58461503
0.58514677
0.5856356
0.5860825
0.58648857
0.58685507
0.58718351
0.58747556
0.58773274
0.5879573
0.58815387
0.58832757
0.58848293
0.58862248
0.5887524
0.58887079
0.58898224
0.58907097
0.58914671
0.58920134
0.58919833
0.58921123
0.58904715
0.58903908
0.58862373
0.58884232
0.5885638
0.58926656
0.58996878
0.58802742
0.089252758
0.40917524
0.52786482
0.54863164
0.54848054
0.546474
0.54579839
0.54617791
0.54650668
0.54696309
0.54751677
0.54821889
0.54900516
0.54986272
0.55076972
0.55172456
0.55271957
0.55375248
0.55481849
0.55591299
0.55703191
0.55817149
0.55932817
0.56049858
0.56167942
0.56286751
0.56405969
0.56525282
0.56644375
0.56762929
0.56880617
0.56997109
0.57112068
0.57225153
0.57336024
0.57444348
0.57549805
0.57652097
0.57750954
0.57846145
0.57937477
0.58024799
0.58107997
0.58186996
0.58261744
0.58332214
0.58398394
0.58460289
0.58517917
0.5857131
0.58620521
0.58665614
0.58706668
0.58743768
0.58777012
0.58806513
0.58832417
0.58854876
0.58874012
0.58890031
0.58903391
0.589146
0.58924105
0.58932232
0.58939611
0.58946203
0.58952374
0.5895688
0.58960354
0.58962398
0.58958554
0.58957217
0.58936823
0.58935113
0.58888462
0.58914868
0.58883971
0.58966983
0.59026379
0.58795619
0.17409126
0.48090199
0.54481972
0.55679558
0.55473948
0.55420957
0.55434493
0.554992
0.55545861
0.55607593
0.55663798
0.55725957
0.55788419
0.55854791
0.55923526
0.55995173
0.56069313
0.56146246
0.56225822
0.56307916
0.56392401
0.56479135
0.56567949
0.56658655
0.5675104
0.56844876
0.5693991
0.57035873
0.57132474
0.57229405
0.57326338
0.5742293
0.57518825
0.57613657
0.57707056
0.57798654
0.57888096
0.57975045
0.58059196
0.58140276
0.58218055
0.58292345
0.58363002
0.58429916
0.58493014
0.58552247
0.58607588
0.58659029
0.58706579
0.5875026
0.5879011
0.58826179
0.58858528
0.58887225
0.58912349
0.58934001
0.58952312
0.58967419
0.58979418
0.58988487
0.58995055
0.58999623
0.59002647
0.59004533
0.59005925
0.59006934
0.59007861
0.59007752
0.59006764
0.59005211
0.58997445
0.58993574
0.58968895
0.58966669
0.58914861
0.58945694
0.58913351
0.59006617
0.59055057
0.58785667
0.24516043
0.52097415
0.55975654
0.56648107
0.56365406
0.56410785
0.56407636
0.56471012
0.56495786
0.56543701
0.56580409
0.56626246
0.56670264
0.56717723
0.56766185
0.56816731
0.56869002
0.56923457
0.56980029
0.57038736
0.57099576
0.57162528
0.57227534
0.57294512
0.57363345
0.57433893
0.5750598
0.57579403
0.57653929
0.57729297
0.57805217
0.57881376
0.57957438
0.5803305
0.5810785
0.58181471
0.58253552
0.58323748
0.58391739
0.58457236
0.58519989
0.5857979
0.58636472
0.5868991
0.58740012
0.58786716
0.58829985
0.58869802
0.58906167
0.58939093
0.58968609
0.58994749
0.59017559
0.5903709
0.59053404