/*--------------------------------*- C++ -*----------------------------------*\
  =========                 |
  \\      /  F ield         | OpenFOAM: The Open Source CFD Toolbox
   \\    /   O peration     | Website:  https://openfoam.org
    \\  /    A nd           | Version:  12
     \\/     M anipulation  |
\*---------------------------------------------------------------------------*/
FoamFile
{
    format      ascii;
    class       volScalarField;
    location    "0.106";
    object      alphat;
}
// * * * * * * * * * * * * * * * * * * * * * * * * * * * * * * * * * * * * * //

dimensions      [1 -1 -1 0 0 0 0];

internalField   nonuniform List<scalar> 
16000
(
4.9198552e-07
1.0741466e-05
2.1324165e-05
2.5480539e-05
1.9650969e-05
2.7039615e-05
1.9111462e-05
2.619598e-05
2.045922e-05
2.8189878e-05
2.376206e-05
2.7914e-05
2.5481545e-05
2.6174545e-05
2.5314721e-05
2.5191903e-05
2.4951633e-05
2.4903057e-05
2.4939587e-05
2.5083019e-05
2.5325956e-05
2.5667791e-05
2.6106168e-05
2.6641482e-05
2.7276453e-05
2.8017854e-05
2.8874777e-05
2.9861575e-05
3.099571e-05
3.229601e-05
3.3783151e-05
3.5484535e-05
3.7435496e-05
3.9679586e-05
4.2270417e-05
4.5272008e-05
4.8760699e-05
5.2827609e-05
5.7585584e-05
6.317453e-05
6.9758854e-05
7.7532391e-05
8.6739619e-05
9.7680287e-05
0.00011071156
0.00012626223
0.00014486423
0.00016716624
0.00019395848
0.00022620426
0.00026508275
0.0003120402
0.00036884434
0.00043766039
0.00052114097
0.00062254856
0.00074590712
0.00089619879
0.0010796272
0.0011783626
0.0011792346
0.0011800103
0.0011807081
0.0011812908
0.0011817656
0.0011821304
0.0011823839
0.0011825198
0.0011825209
0.0011823556
0.001181978
0.0011813222
0.0011802651
0.0011786466
0.0011768586
0.0011751369
0.0011735661
0.0011728521
0.001171708
0.0011715077
4.4065393e-07
1.0173587e-05
2.1194631e-05
2.3011397e-05
1.7713114e-05
2.4208185e-05
1.6953046e-05
2.2916689e-05
1.8069432e-05
2.4884033e-05
2.1503592e-05
2.5151154e-05
2.3287269e-05
2.3702233e-05
2.3035489e-05
2.2857452e-05
2.2660616e-05
2.2606599e-05
2.2643726e-05
2.2775898e-05
2.3001138e-05
2.331849e-05
2.3726237e-05
2.4224835e-05
2.4816491e-05
2.5507543e-05
2.6305908e-05
2.7224541e-05
2.8279966e-05
2.9490537e-05
3.0875514e-05
3.2459963e-05
3.4276607e-05
3.6365799e-05
3.8777726e-05
4.157261e-05
4.4822737e-05
4.8613772e-05
5.3050891e-05
5.8266602e-05
6.441894e-05
7.1690507e-05
8.0311648e-05
9.0568258e-05
0.00010280348
0.00011742502
0.00013494037
0.00015597049
0.00018127351
0.00021177422
0.00024860499
0.00029315845
0.00034713896
0.00041263789
0.00049221929
0.00058903937
0.00070699474
0.00085090309
0.0010267429
0.0011777811
0.0011786626
0.0011793969
0.0011800629
0.0011806156
0.0011810618
0.0011813995
0.0011816264
0.0011817354
0.0011817091
0.0011815152
0.0011811056
0.0011804186
0.0011793524
0.0011777569
0.0011760514
0.0011743856
0.001172929
0.0011720676
0.001171384
0.0011715249
3.8889819e-07
9.729884e-06
2.0023427e-05
2.1062845e-05
1.5847844e-05
2.130286e-05
1.508323e-05
1.9910928e-05
1.6235462e-05
2.1828252e-05
1.9594445e-05
2.2388566e-05
2.1083595e-05
2.1218322e-05
2.070912e-05
2.0507625e-05
2.0344638e-05
2.029557e-05
2.0335154e-05
2.046059e-05
2.0671335e-05
2.0966824e-05
2.134566e-05
2.1808539e-05
2.235726e-05
2.2997924e-05
2.3737619e-05
2.4588093e-05
2.5564748e-05
2.6685464e-05
2.7968534e-05
2.9437166e-05
3.1121914e-05
3.3060365e-05
3.5299654e-05
3.7896505e-05
4.0919599e-05
4.4450312e-05
4.8587359e-05
5.3455841e-05
5.9208543e-05
6.601938e-05
7.410654e-05
8.3742916e-05
9.5260377e-05
0.00010904941
0.00012559682
0.00014550014
0.0001694905
0.00019846108
0.00023350505
0.00027597008
0.00032750715
0.00039014556
0.00046637493
0.00055926126
0.00067259265
0.00081105471
0.00098044891
0.0011773853
0.001178265
0.0011789416
0.0011795564
0.001180061
0.0011804614
0.0011807556
0.0011809405
0.001181008
0.0011809398
0.0011807031
0.0011802478
0.0011795123
0.001178416
0.0011768375
0.0011752189
0.0011736438
0.0011722719
0.0011713951
0.0011709722
0.0011712326
3.5148281e-07
9.395948e-06
1.8986453e-05
1.9505397e-05
1.4230596e-05
1.8798879e-05
1.343048e-05
1.7392927e-05
1.4602838e-05
1.923243e-05
1.7874794e-05
1.994209e-05
1.9051836e-05
1.8982981e-05
1.8591633e-05
1.8389062e-05
1.8256086e-05
1.8217637e-05
1.8262837e-05
1.8385558e-05
1.8585872e-05
1.8863687e-05
1.9217963e-05
1.9649772e-05
2.016065e-05
2.0756619e-05
2.144422e-05
2.2234253e-05
2.3141067e-05
2.4182154e-05
2.5375178e-05
2.6741771e-05
2.8310735e-05
3.0117283e-05
3.2205984e-05
3.4630549e-05
3.7456562e-05
4.0762043e-05
4.4640584e-05
4.9210404e-05
5.4620266e-05
6.1037502e-05
6.8670538e-05
7.7780716e-05
8.8691729e-05
0.00010178077
0.00011751822
0.00013648333
0.0001593863
0.00018709695
0.00022067844
0.00026144523
0.00031100871
0.00037135338
0.0004449159
0.00053469824
0.00064441139
0.00077864983
0.00094310043
0.0011447902
0.0011780685
0.0011786712
0.0011792171
0.0011796571
0.0011799957
0.0011802311
0.0011803595
0.0011803715
0.0011802482
0.0011799563
0.0011794448
0.0011786497
0.0011775115
0.0011759509
0.0011744217
0.0011729425
0.001171637
0.0011707688
0.0011705451
0.0011705969
3.1821369e-07
9.1472101e-06
1.8081096e-05
1.9482532e-05
1.4153754e-05
1.661633e-05
1.1981911e-05
1.5233695e-05
1.3202115e-05
1.6994673e-05
1.6349002e-05
1.77422e-05
1.7161322e-05
1.6954912e-05
1.665063e-05
1.6461946e-05
1.6353737e-05
1.632659e-05
1.6376185e-05
1.6495633e-05
1.6685218e-05
1.6945498e-05
1.7275846e-05
1.7677828e-05
1.8152867e-05
1.8706997e-05
1.9346372e-05
2.008104e-05
2.0924316e-05
2.1893263e-05
2.3005128e-05
2.4280242e-05
2.5745957e-05
2.7435445e-05
2.939107e-05
3.1663936e-05
3.4316865e-05
3.7425173e-05
4.1078618e-05
4.5388896e-05
5.0501394e-05
5.6578534e-05
6.3821132e-05
7.2479716e-05
8.2871798e-05
9.5364226e-05
0.00011041387
0.00012858497
0.00015057046
0.00017722192
0.0002095779
0.00024892621
0.00029684602
0.00035528579
0.00042663984
0.00051385861
0.00062059076
0.00075135665
0.00091175106
0.0011086764
0.0011780548
0.0011785692
0.0011790296
0.0011793892
0.0011796512
0.0011798134
0.0011798716
0.0011798153
0.0011796243
0.0011792652
0.0011786871
0.0011778223
0.0011766267
0.0011751038
0.0011736646
0.001172283
0.0011710431
0.0011702112
0.001170108
0.001169882
2.9197463e-07
8.9942056e-06
1.7353648e-05
1.9223614e-05
1.3920319e-05
1.4711929e-05
1.1300022e-05
1.3453075e-05
1.219824e-05
1.5110388e-05
1.5016592e-05
1.5815362e-05
1.5440312e-05
1.5152918e-05
1.4903492e-05
1.47309e-05
1.4638551e-05
1.4618254e-05
1.466837e-05
1.4782232e-05
1.4960071e-05
1.5202999e-05
1.5510632e-05
1.5884945e-05
1.632733e-05
1.6843817e-05
1.7440237e-05
1.8126057e-05
1.8913586e-05
1.9819432e-05
2.0860622e-05
2.2056435e-05
2.3433086e-05
2.5022058e-05
2.6863921e-05
2.9007627e-05
3.1513684e-05
3.4455273e-05
3.7919722e-05
4.201312e-05
4.6877811e-05
5.2673036e-05
5.9594749e-05
6.788372e-05
7.7853458e-05
8.9863932e-05
0.00010436193
0.00012190096
0.00014316093
0.00016898176
0.00020038414
0.00023863784
0.00028529969
0.00034229381
0.00041198702
0.00049729567
0.00060182671
0.00073005102
0.0008875046
0.0010810106
0.0011782122
0.0011786245
0.0011789844
0.0011792497
0.0011794217
0.0011794977
0.0011794732
0.0011793367
0.0011790668
0.0011786295
0.0011779754
0.0011770352
0.0011757653
0.0011743087
0.00117296
0.001171676
0.0011705065
0.0011697128
0.0011696533
0.0011692835
2.6078553e-07
8.9082166e-06
1.6788298e-05
1.8183864e-05
1.3794244e-05
1.2995067e-05
1.1356634e-05
1.2385967e-05
1.1783266e-05
1.349055e-05
1.3824108e-05
1.4117368e-05
1.3849438e-05
1.3526334e-05
1.3307702e-05
1.3151168e-05
1.3070306e-05
1.3055527e-05
1.3105777e-05
1.3214966e-05
1.338294e-05
1.3611276e-05
1.389958e-05
1.4166167e-05
1.4570283e-05
1.5045528e-05
1.5596904e-05
1.6233086e-05
1.6965181e-05
1.7808977e-05
1.8781246e-05
1.9900246e-05
2.1191151e-05
2.2683832e-05
2.4417196e-05
2.6438238e-05
2.8805293e-05
3.1589455e-05
3.4876488e-05
3.9060681e-05
4.3725185e-05
4.92941e-05
5.5961312e-05
6.3959247e-05
7.3598678e-05
8.5236092e-05
9.9311556e-05
0.00011637173
0.00013708722
0.00016229234
0.00019299603
0.00023045779
0.00027622107
0.00033219603
0.00040073492
0.00048473565
0.00058778157
0.00071431515
0.00086984065
0.0010611397
0.0011785234
0.0011788211
0.0011790673
0.0011792262
0.0011792965
0.001179275
0.0011791568
0.0011789297
0.001178571
0.001178046
0.0011773074
0.0011762915
0.0011749444
0.0011735786
0.00117232
0.0011711332
0.0011700395
0.0011692847
0.0011691667
0.0011687598
2.370104e-07
8.8590637e-06
1.6308657e-05
1.6538978e-05
1.2641516e-05
1.1325021e-05
9.8204419e-06
1.1060499e-05
1.0351244e-05
1.2126516e-05
1.262766e-05
1.2561083e-05
1.233502e-05
1.2019769e-05
1.1826176e-05
1.1690427e-05
1.1623615e-05
1.1617492e-05
1.1600031e-05
1.1690508e-05
1.1839761e-05
1.2048337e-05
1.2314167e-05
1.2637669e-05
1.3023757e-05
1.3476073e-05
1.3999931e-05
1.4603927e-05
1.5298562e-05
1.6099149e-05
1.7022679e-05
1.8086871e-05
1.9316406e-05
2.0740146e-05
2.2396038e-05
2.4329846e-05
2.6598616e-05
2.9272177e-05
3.2435759e-05
3.6193184e-05
4.0671061e-05
4.602971e-05
5.2463057e-05
6.070463e-05
7.0107087e-05
8.1481913e-05
9.5266222e-05
0.00011200361
0.00013235921
0.00015716825
0.00018743433
0.00022441492
0.00026964977
0.00032504617
0.00039295565
0.00047627461
0.00057858256
0.00070431663
0.00085897741
0.0010493442
0.0011789675
0.0011791401
0.0011792617
0.0011793038
0.001179263
0.0011791346
0.0011789134
0.0011785868
0.0011781313
0.0011775113
0.0011766803
0.0011755911
0.0011742082
0.0011729241
0.0011717549
0.001170665
0.0011696465
0.0011689195
0.0011687401
0.0011682895
2.1900171e-07
8.8102451e-06
1.5816844e-05
1.4475658e-05
1.0388627e-05
1.0069035e-05
8.0947802e-06
9.4327867e-06
9.635053e-06
1.0911472e-05
1.1415913e-05
1.1116147e-05
1.0909469e-05
1.0627474e-05
1.0459381e-05
1.0274376e-05
1.0196462e-05
1.018455e-05
1.0231553e-05
1.0334326e-05
1.0488612e-05
1.0696653e-05
1.0957374e-05
1.1271112e-05
1.1642721e-05
1.2076828e-05
1.2578791e-05
1.3157245e-05
1.3822278e-05
1.4588716e-05
1.5473884e-05
1.6495224e-05
1.7677253e-05
1.9048143e-05
2.0645266e-05
2.2513671e-05
2.470965e-05
2.7302368e-05
3.0376397e-05
3.4034681e-05
3.8404234e-05
4.3643097e-05
4.9948328e-05
5.7548519e-05
6.6736699e-05
7.7877416e-05
9.221612e-05
0.00010878623
0.00012896614
0.0001535982
0.00018368757
0.00022049796
0.00026557531
0.00032083547
0.0003886433
0.00047191119
0.00057423538
0.00070007142
0.00085494399
0.0010456678
0.0011795209
0.0011795598
0.0011795481
0.0011794655
0.001179306
0.0011790636
0.0011787322
0.001178299
0.0011777403
0.0011770209
0.0011760933
0.0011749258
0.001173559
0.0011723556
0.0011712739
0.0011702811
0.0011693395
0.0011686139
0.0011683644
0.0011678435
2.0048018e-07
8.765331e-06
1.4192618e-05
1.2610363e-05
8.4022094e-06
8.9484013e-06
7.2013481e-06
8.5167471e-06
8.9241878e-06
9.7649068e-06
1.021787e-05
9.8006044e-06
9.6003376e-06
9.2665974e-06
9.0876539e-06
8.9776297e-06
8.9340413e-06
8.9477153e-06
9.0119036e-06
9.1258506e-06
9.286866e-06
9.4948233e-06
9.7519513e-06
1.0058486e-05
1.0419523e-05
1.0840117e-05
1.1325794e-05
1.1885366e-05
1.2528673e-05
1.3270088e-05
1.4127344e-05
1.5117949e-05
1.6266519e-05
1.7600845e-05
1.9158097e-05
2.0983059e-05
2.3131775e-05
2.5673353e-05
2.8692753e-05
3.2293426e-05
3.6602527e-05
4.1777681e-05
4.8019572e-05
5.5556902e-05
6.468531e-05
7.5771642e-05
8.9268138e-05
0.00010570549
0.00012690652
0.00015158306
0.00018176038
0.00021871663
0.00026401461
0.00031959067
0.00038783792
0.00047170328
0.00057482187
0.00070169352
0.00085789626
0.0010503179
0.0011801573
0.0011800561
0.0011799053
0.001179692
0.0011794088
0.0011790474
0.0011786008
0.0011780563
0.00117739
0.0011765685
0.001175547
0.0011742941
0.0011730043
0.0011718806
0.0011708832
0.0011699866
0.0011691323
0.0011683973
0.0011680566
0.0011675527
1.8511789e-07
8.7185001e-06
1.1272821e-05
1.046736e-05
6.9031805e-06
7.9708638e-06
6.5678289e-06
7.6578229e-06
8.3535153e-06
8.7261704e-06
9.0447265e-06
8.5134523e-06
8.2621143e-06
8.0322959e-06
7.901986e-06
7.8320003e-06
7.8171641e-06
7.853477e-06
7.9339302e-06
8.0580809e-06
8.223962e-06
8.4338832e-06
8.6897718e-06
8.9923847e-06
9.3469152e-06
9.7589003e-06
1.0234162e-05
1.0781762e-05
1.1411508e-05
1.2137414e-05
1.2910906e-05
1.3871952e-05
1.4989009e-05
1.6289466e-05
1.7810281e-05
1.9596019e-05
2.1702556e-05
2.4199007e-05
2.7170868e-05
3.072242e-05
3.4982124e-05
4.0423944e-05
4.6668059e-05
5.4221496e-05
6.3382695e-05
7.4522232e-05
8.8104992e-05
0.00010467389
0.00012491328
0.0001496758
0.00018165254
0.00021907605
0.00026498014
0.00032133432
0.0003905756
0.00047570538
0.00058042138
0.00070929601
0.00086799241
0.0010635088
0.0011808486
0.0011806034
0.0011803102
0.001179963
0.001179553
0.0011790702
0.0011785058
0.0011778477
0.0011770719
0.0011761468
0.0011750415
0.001173733
0.0011725471
0.0011715042
0.0011705871
0.0011697807
0.0011690206
0.0011682912
0.0011678465
0.0011674272
1.7148469e-07
8.6747044e-06
8.8970817e-06
8.9103345e-06
6.0774181e-06
7.0681166e-06
6.036215e-06
6.9091682e-06
7.7751701e-06
7.7587549e-06
7.7728998e-06
7.3212901e-06
7.1170435e-06
6.9498969e-06
6.8608989e-06
6.8243919e-06
6.8356021e-06
6.8901433e-06
6.9846862e-06
7.119099e-06
7.2920685e-06
7.5057344e-06
7.763096e-06
8.0654115e-06
8.4179732e-06
8.7885727e-06
9.2516988e-06
9.7865623e-06
1.040284e-05
1.1114084e-05
1.1936612e-05
1.289166e-05
1.4003188e-05
1.529872e-05
1.6815633e-05
1.8599038e-05
2.0705592e-05
2.320543e-05
2.6185882e-05
2.9753567e-05
3.4040122e-05
3.9210056e-05
4.5464931e-05
5.3046388e-05
6.2257949e-05
7.4115745e-05
8.791615e-05
0.00010477141
0.00012537781
0.00015061394
0.00018155204
0.00022157991
0.00026848467
0.00032609138
0.00039689741
0.00048398022
0.00059112594
0.000723011
0.00088541961
0.0010854976
0.0011815663
0.0011811757
0.0011807397
0.0011802573
0.0011797199
0.0011791156
0.0011784334
0.0011776616
0.0011767779
0.0011757502
0.0011745671
0.001173283
0.0011721884
0.0011712283
0.0011703887
0.0011696611
0.0011689826
0.0011682814
0.0011677695
0.0011673852
1.5936817e-07
8.623611e-06
7.081647e-06
7.8286712e-06
5.4214497e-06
6.2616827e-06
5.5822561e-06
6.2484623e-06
7.086079e-06
6.6592119e-06
6.626293e-06
6.2797641e-06
6.1188686e-06
6.0023991e-06
5.9488381e-06
5.9411121e-06
5.9747907e-06
6.0474616e-06
6.1561061e-06
6.3014673e-06
6.4829916e-06
6.7030173e-06
6.9353542e-06
7.2347038e-06
7.584026e-06
7.9881943e-06
8.4553595e-06
8.9942545e-06
9.6148192e-06
1.0330864e-05
1.1158915e-05
1.2120001e-05
1.323955e-05
1.4545553e-05
1.6076097e-05
1.7877258e-05
2.0007087e-05
2.2537323e-05
2.5557939e-05
2.9179066e-05
3.3535762e-05
3.8796345e-05
4.5172836e-05
5.2913061e-05
6.2330114e-05
7.3813376e-05
8.7846482e-05
0.00010501376
0.00012714447
0.00015307921
0.00018489279
0.00022395159
0.00027453238
0.00033387862
0.0004068364
0.00049658283
0.00060702092
0.00074296528
0.00091036407
0.0011165503
0.0011822824
0.0011817472
0.0011811708
0.0011805547
0.0011798911
0.0011791675
0.0011783701
0.001177487
0.0011764998
0.0011753789
0.0011741154
0.0011729344
0.0011719284
0.0011710516
0.001170289
0.0011696295
0.0011690131
0.0011683603
0.0011678452
0.0011674771
1.4863371e-07
8.5625162e-06
5.6860823e-06
6.8487617e-06
4.8392552e-06
5.5461084e-06
5.1976989e-06
5.5751534e-06
6.2168886e-06
5.7054021e-06
5.620891e-06
5.3692964e-06
5.249292e-06
5.1752365e-06
5.1532496e-06
5.1716697e-06
5.2266618e-06
5.3168652e-06
5.4402028e-06
5.5767306e-06
5.762271e-06
5.9863172e-06
6.2515886e-06
6.5615871e-06
6.921303e-06
7.3360462e-06
7.8138968e-06
8.3643212e-06
8.9975333e-06
9.7275613e-06
1.0571111e-05
1.1549518e-05
1.2631239e-05
1.394889e-05
1.5494153e-05
1.7314041e-05
1.9468239e-05
2.2030159e-05
2.5092481e-05
2.8769449e-05
3.3200717e-05
3.8852681e-05
4.5411587e-05
5.3384258e-05
6.3094673e-05
7.4943466e-05
8.9437535e-05
0.00010718711
0.000128939
0.00015704786
0.00019001166
0.00023050045
0.0002802538
0.00034469518
0.00042040713
0.00051354797
0.00062817027
0.00076926323
0.0009429897
0.0011569191
0.0011829706
0.0011822942
0.0011815822
0.0011808359
0.0011800494
0.0011792105
0.0011783032
0.0011773137
0.0011762283
0.0011750335
0.0011737598
0.0011726849
0.0011717642
0.0011709695
0.0011702855
0.0011696876
0.001169114
0.0011685218
0.0011680827
0.0011677327
1.3913428e-07
8.4403412e-06
4.6231245e-06
5.978279e-06
4.3204472e-06
4.9104356e-06
4.8635619e-06
4.8413294e-06
5.3394998e-06
4.8550652e-06
4.7498298e-06
4.5766117e-06
4.4956878e-06
4.4584781e-06
4.4654009e-06
4.5082265e-06
4.5838638e-06
4.6729981e-06
4.805669e-06
4.972648e-06
5.1750767e-06
5.4148301e-06
5.695398e-06
6.0205073e-06
6.3957971e-06
6.8268814e-06
7.3219319e-06
7.8670506e-06
8.5139248e-06
9.2587238e-06
1.0118239e-05
1.1113877e-05
1.227181e-05
1.3624936e-05
1.52125e-05
1.7083126e-05
1.9299291e-05
2.1937264e-05
2.5093516e-05
2.8888208e-05
3.3467542e-05
3.901576e-05
4.5755646e-05
5.3961594e-05
6.3971633e-05
7.6841467e-05
9.1922682e-05
0.00011040409
0.00013306938
0.00016088435
0.00019686998
0.00023912031
0.00029105697
0.00035491166
0.00043758833
0.00053487015
0.00065459237
0.000801958
0.00098340077
0.0011844122
0.0011836071
0.0011827956
0.0011819552
0.0011810847
0.0011801801
0.0011792314
0.0011782215
0.0011771342
0.0011759596
0.0011746989
0.0011735164
0.0011725316
0.0011716915
0.0011709757
0.0011703712
0.0011698312
0.0011692802
0.0011687449
0.0011684392
0.0011681088
1.3078702e-07
8.1120271e-06
3.8930679e-06
5.2068549e-06
3.8598006e-06
4.3483917e-06
4.3307432e-06
4.1775435e-06
4.4935122e-06
4.1035444e-06
4.0037368e-06
3.8932027e-06
3.8491453e-06
3.8446916e-06
3.8783353e-06
3.9296484e-06
4.0184755e-06
4.1403411e-06
4.2945513e-06
4.4815496e-06
4.7031619e-06
4.9618349e-06
5.2615305e-06
5.6062962e-06
5.9884651e-06
6.4369299e-06
6.9500907e-06
7.5374123e-06
8.2107944e-06
8.9844097e-06
9.8755198e-06
1.0906444e-05
1.2104486e-05
1.350386e-05
1.5146603e-05
1.7083211e-05
1.9379618e-05
2.2115815e-05
2.5392392e-05
2.9336845e-05
3.4101419e-05
3.9879872e-05
4.6909787e-05
5.5478134e-05
6.5942373e-05
7.8740931e-05
9.5251693e-05
0.00011461451
0.00013836988
0.00016754328
0.0002033682
0.00024974141
0.00030425933
0.00037130901
0.00045377305
0.00056047528
0.00068622656
0.00084101285
0.001031592
0.001185095
0.001184172
0.0011832344
0.0011822744
0.0011812881
0.0011802719
0.0011792193
0.0011781154
0.0011769406
0.0011756965
0.0011744297
0.0011733693
0.0011724701
0.0011717047
0.0011710628
0.001170535
0.0011700517
0.0011695129
0.0011690156
0.0011688448
0.001168611
1.2367638e-07
7.6994517e-06
3.4330676e-06
4.5232878e-06
3.4513867e-06
3.6890259e-06
3.8610847e-06
3.5693761e-06
3.7280311e-06
3.4509991e-06
3.3728057e-06
3.3120132e-06
3.3017301e-06
3.3268629e-06
3.3683135e-06
3.4515324e-06
3.5665734e-06
3.7122863e-06
3.8889518e-06
4.097805e-06
4.3412691e-06
4.6220921e-06
4.9350442e-06
5.3003299e-06
5.7170317e-06
6.1918036e-06
6.7326407e-06
7.3493576e-06
8.0541128e-06
8.8620056e-06
9.7908775e-06
1.0864044e-05
1.2110102e-05
1.356505e-05
1.5207931e-05
1.7207017e-05
1.9579577e-05
2.2409937e-05
2.5958721e-05
3.0082531e-05
3.5069022e-05
4.1121462e-05
4.8493605e-05
5.7488219e-05
6.8481434e-05
8.1938733e-05
9.8430889e-05
0.00011865793
0.00014476119
0.00017549904
0.00021326113
0.00025967175
0.00031973026
0.00039045107
0.00047744775
0.00059018612
0.00072288981
0.00088625085
0.0010873974
0.0011856868
0.0011846509
0.0011835983
0.0011825287
0.0011814366
0.0011803174
0.0011791673
0.0011779778
0.0011767302
0.001175428
0.0011742713
0.0011733083
0.0011724916
0.0011717965
0.001171223
0.0011707638
0.0011703341
0.0011698164
0.0011693562
0.0011693105
0.0011693078
1.1809113e-07
6.6566342e-06
3.0418291e-06
3.9031767e-06
3.0998e-06
3.0798163e-06
3.3932803e-06
3.0186696e-06
3.0704849e-06
2.8937632e-06
2.8448484e-06
2.8247208e-06
2.8367545e-06
2.880984e-06
2.9609103e-06
3.0721905e-06
3.2128635e-06
3.3828729e-06
3.5833124e-06
3.8158876e-06
4.07741e-06
4.3808013e-06
4.7261963e-06
5.1183462e-06
5.5629228e-06
6.0668062e-06
6.6383647e-06
7.2878067e-06
8.0276905e-06
8.854155e-06
9.8189874e-06
1.0931836e-05
1.2222526e-05
1.3728422e-05
1.5496249e-05
1.7584412e-05
2.0065096e-05
2.3028648e-05
2.6587136e-05
3.0878978e-05
3.6076001e-05
4.269522e-05
5.0456199e-05
5.9935159e-05
7.1528293e-05
8.572796e-05
0.00010313943
0.00012450737
0.00015213042
0.0001846225
0.00022455607
0.0002736478
0.00033726185
0.00041209882
0.00050418945
0.00061753352
0.00076422699
0.00093729113
0.0011504211
0.0011861774
0.0011850368
0.0011838806
0.0011827115
0.0011815247
0.0011803135
0.001179073
0.001177803
0.0011765091
0.0011752273
0.001174193
0.0011733228
0.0011725842
0.0011719574
0.0011714476
0.0011710453
0.0011706605
0.0011701828
0.0011697814
0.0011698368
0.0011699736
1.1359764e-07
4.6797078e-06
2.6880169e-06
3.3284561e-06
2.6517937e-06
2.5694464e-06
2.9001686e-06
2.5282342e-06
2.5230176e-06
2.4247025e-06
2.4087503e-06
2.4160664e-06
2.4590479e-06
2.5374778e-06
2.6470004e-06
2.7851195e-06
2.9511823e-06
3.1458578e-06
3.3675661e-06
3.6234521e-06
3.9147068e-06
4.2446688e-06
4.6173958e-06
5.0378227e-06
5.5119017e-06
6.0468081e-06
6.6512549e-06
7.3247413e-06
8.0983e-06
8.9804448e-06
9.9913702e-06
1.1156157e-05
1.2506414e-05
1.4081833e-05
1.593216e-05
1.8119378e-05
2.0720502e-05
2.3831324e-05
2.7570992e-05
3.2087301e-05
3.7563332e-05
4.4224749e-05
5.2740132e-05
6.2752176e-05
7.500556e-05
9.0021774e-05
0.00010844255
0.00013105897
0.00015884588
0.00019473545
0.00023704343
0.00028907154
0.00035307777
0.00043589675
0.00053357625
0.00065384132
0.00080965834
0.00099347456
0.0011878129
0.0011865638
0.0011853277
0.00118408
0.0011828216
0.00118155
0.0011802593
0.0011789415
0.0011775967
0.001176258
0.0011751239
0.001174183
0.0011733984
0.0011727338
0.0011721745
0.001171726
0.0011713704
0.0011710162
0.0011705821
0.0011702632
0.0011704021
0.001170591
1.0886962e-07
3.8887814e-06
2.3183352e-06
2.7988082e-06
2.286743e-06
2.143173e-06
2.3895891e-06
2.0976828e-06
2.0779879e-06
2.0398562e-06
2.0527076e-06
2.094483e-06
2.1734378e-06
2.282626e-06
2.4194548e-06
2.5829939e-06
2.7735698e-06
2.9901686e-06
3.2384625e-06
3.5197388e-06
3.8369537e-06
4.1936919e-06
4.5942432e-06
5.0437352e-06
5.5483307e-06
6.115475e-06
6.7466396e-06
7.4647858e-06
8.2784552e-06
9.2045934e-06
1.0264519e-05
1.1484844e-05
1.2899034e-05
1.4549154e-05
1.6488137e-05
1.8782233e-05
2.1513663e-05
2.4784289e-05
2.8720755e-05
3.3479542e-05
3.9254833e-05
4.6621778e-05
5.5277339e-05
6.5859646e-05
7.8819234e-05
9.4708413e-05
0.0001142074
0.00013815473
0.00016913682
0.00020560381
0.0002504412
0.0003056001
0.00037348253
0.00046134981
0.00056502257
0.00069273057
0.00085832286
0.0010537823
0.001188168
0.0011868465
0.001185527
0.0011842005
0.0011828636
0.0011815155
0.0011801543
0.0011787757
0.0011773909
0.0011761164
0.0011750856
0.0011742321
0.001173522
0.0011729259
0.0011724322
0.0011720428
0.0011717274
0.0011713947
0.0011710002
0.0011707706
0.0011709877
0.0011711891
1.0569669e-07
3.1328867e-06
1.9994295e-06
2.2623697e-06
1.9875173e-06
1.7784262e-06
1.9149108e-06
1.7325881e-06
1.7286599e-06
1.7389766e-06
1.7817837e-06
1.8614291e-06
1.9712783e-06
2.107385e-06
2.2687244e-06
2.4555609e-06
2.6677816e-06
2.9090971e-06
3.181323e-06
3.487166e-06
3.8298677e-06
4.2132231e-06
4.641684e-06
5.1205247e-06
5.6560761e-06
6.251698e-06
6.9232255e-06
7.6793735e-06
8.5343196e-06
9.5058598e-06
1.0616587e-05
1.1894725e-05
1.3375797e-05
1.5104392e-05
1.7136566e-05
1.9542795e-05
2.2411141e-05
2.584966e-05
2.9993246e-05
3.5007903e-05
4.1369844e-05
4.8851742e-05
5.7986734e-05
6.9162996e-05
8.2856337e-05
9.9652744e-05
0.00012027286
0.00014560573
0.00017834002
0.00021692591
0.00026438834
0.00032279852
0.00039471524
0.00048778804
0.00059772319
0.00073323444
0.000909031
0.0011167759
0.0011884215
0.0011870325
0.0011856418
0.0011842485
0.0011828462
0.0011814315
0.0011800064
0.0011785817
0.0011771931
0.0011760537
0.0011751087
0.0011743298
0.0011736836
0.0011731478
0.0011727149
0.0011723796
0.0011720991
0.0011717861
0.0011714332
0.0011712875
0.0011715637
0.0011717494
1.0439165e-07
2.4713252e-06
1.7238161e-06
1.7470902e-06
1.7117148e-06
1.4663186e-06
1.5273619e-06
1.4418114e-06
1.4687069e-06
1.5138756e-06
1.5952942e-06
1.7054041e-06
1.8407014e-06
1.9996126e-06
2.1824117e-06
2.3902572e-06
2.6240872e-06
2.8874415e-06
3.1824222e-06
3.5119991e-06
3.879585e-06
4.2891167e-06
4.74517e-06
5.2531395e-06
5.8194874e-06
6.452081e-06
7.160631e-06
7.957218e-06
8.846709e-06
9.864126e-06
1.1026309e-05
1.2363197e-05
1.3912516e-05
1.5721605e-05
1.7849707e-05
2.0453986e-05
2.3484918e-05
2.7121938e-05
3.1508931e-05
3.6823326e-05
4.3283582e-05
5.1158284e-05
6.0779189e-05
7.2554625e-05
8.6987482e-05
0.0001046976
0.00012644766
0.00015451584
0.00018762402
0.00022834015
0.00027844176
0.0003401252
0.00042004629
0.00051437223
0.00063065522
0.00077411076
0.00096023895
0.0011805811
0.0011885879
0.0011871373
0.0011856845
0.0011842333
0.0011827779
0.0011813118
0.0011798324
0.0011783705
0.0011770974
0.0011760479
0.0011751822
0.0011744675
0.0011738753
0.0011733899
0.0011730087
0.0011727182
0.001172467
0.0011721769
0.0011718717
0.0011717964
0.0011721032
0.0011722585
1.0600701e-07
1.9044783e-06
1.4941053e-06
1.3520944e-06
1.4308511e-06
1.2045934e-06
1.2437626e-06
1.2289576e-06
1.2885373e-06
1.3680171e-06
1.477979e-06
1.6115419e-06
1.7673669e-06
1.9455596e-06
2.1473195e-06
2.3743765e-06
2.6284755e-06
2.9126528e-06
3.2294272e-06
3.581902e-06
3.9735926e-06
4.4085299e-06
4.8913927e-06
5.4276979e-06
6.0240627e-06
6.6885585e-06
7.4311842e-06
8.2644561e-06
9.2041411e-06
1.0270185e-05
1.1487801e-05
1.2888922e-05
1.4513775e-05
1.6412928e-05
1.8649659e-05
2.1302877e-05
2.4470723e-05
2.827526e-05
3.2867465e-05
3.8434168e-05
4.5206051e-05
5.3466812e-05
6.3563329e-05
7.5925321e-05
9.1080652e-05
0.00011058821
0.00013360614
0.00016188763
0.00019666075
0.00023944317
0.00029210895
0.00036032736
0.00044085432
0.00054013039
0.00066261902
0.00082177961
0.0010100706
0.0011902147
0.0011886854
0.0011871807
0.0011856752
0.001184171
0.0011826669
0.0011811643
0.0011796696
0.001178223
0.0011770618
0.0011760913
0.0011752922
0.0011746337
0.0011740898
0.0011736441
0.0011733036
0.0011730453
0.0011728157
0.0011725518
0.0011723003
0.0011722834
0.0011725975
0.0011727276
1.1169705e-07
1.4391215e-06
1.3077662e-06
1.063702e-06
1.2771127e-06
9.8714528e-07
1.0513331e-06
1.0882853e-06
1.1747344e-06
1.2818174e-06
1.4127709e-06
1.5645075e-06
1.7373866e-06
1.932523e-06
2.1516125e-06
2.3966498e-06
2.6699071e-06
2.973737e-06
3.3112336e-06
3.6854685e-06
4.1000332e-06
4.5590447e-06
5.067287e-06
5.6304102e-06
6.2552027e-06
6.9499603e-06
7.7249826e-06
8.5932488e-06
9.5711608e-06
1.067956e-05
1.1944817e-05
1.3400418e-05
1.5088583e-05
1.7062413e-05
1.9388373e-05
2.2149368e-05
2.5448413e-05
2.9413161e-05
3.4201433e-05
4.0008046e-05
4.7394714e-05
5.6084858e-05
6.670581e-05
7.9708908e-05
9.5649003e-05
0.00011520977
0.00013923445
0.0001687636
0.00020507843
0.00025210389
0.00030754944
0.00037584589
0.00046003679
0.0005639071
0.00069892354
0.0008586293
0.0010561784
0.0011902927
0.001188727
0.0011871805
0.0011856356
0.0011840898
0.001182539
0.0011809878
0.0011794727
0.0011781626
0.0011770743
0.0011761724
0.0011754268
0.0011748125
0.001174314
0.0011739013
0.0011735909
0.0011733533
0.0011731381
0.0011729014
0.001172705
0.0011727355
0.0011730354
0.0011731268
1.2211112e-07
1.1409511e-06
1.1474139e-06
9.2342015e-07
9.3513532e-07
8.635617e-07
9.2481709e-07
1.0037441e-06
1.1109667e-06
1.2375801e-06
1.3843697e-06
1.5511034e-06
1.7389802e-06
1.9495136e-06
2.1845516e-06
2.4461592e-06
2.7366458e-06
3.0585855e-06
3.4148627e-06
3.8087266e-06
4.2438688e-06
4.7245302e-06
5.2556492e-06
5.843074e-06
6.4938551e-06
7.214049e-06
8.0181037e-06
8.9178036e-06
9.9390967e-06
1.1089725e-05
1.2403402e-05
1.3915296e-05
1.5669716e-05
1.7722311e-05
2.0142679e-05
2.3017514e-05
2.6454445e-05
3.0586748e-05
3.5579078e-05
4.163459e-05
4.9003689e-05
5.7994858e-05
6.898781e-05
8.2447879e-05
9.8950442e-05
0.00011920373
0.00014536407
0.00017618103
0.00021407501
0.00026070741
0.00031813548
0.0003889148
0.00047622165
0.00058956411
0.00072374551
0.00088971846
0.0010952834
0.0011903372
0.001188736
0.0011871525
0.0011855765
0.0011840055
0.001182437
0.0011808768
0.0011793708
0.0011781528
0.0011771288
0.0011762815
0.0011755808
0.0011750026
0.0011745277
0.0011741504
0.001173861
0.0011736366
0.0011734322
0.0011732229
0.0011730761
0.0011731389
0.0011734131
0.0011734818
1.4356664e-07
1.1780731e-06
9.8816376e-07
7.0482828e-07
7.6404408e-07
7.7187061e-07
8.5501375e-07
9.5671088e-07
1.0803543e-06
1.221729e-06
1.3819582e-06
1.5619522e-06
1.7632019e-06
1.987336e-06
2.2362318e-06
2.511982e-06
2.8169288e-06
3.1536949e-06
3.5252263e-06
3.9348451e-06
4.3863225e-06
4.8839828e-06
5.4328509e-06
6.0388652e-06
6.7091784e-06
7.4525691e-06
8.2799873e-06
9.205252e-06
1.0245935e-05
1.1424412e-05
1.2769128e-05
1.4316182e-05
1.6111111e-05
1.8211126e-05
2.0687748e-05
2.3630028e-05
2.7148459e-05
3.137974e-05
3.6492611e-05
4.2695044e-05
5.0243227e-05
5.9878614e-05
7.1225434e-05
8.511495e-05
0.00010214036
0.00012303166
0.00014869031
0.00018023038
0.00021903029
0.0002667958
0.00032564793
0.00040189838
0.00049212078
0.0006035605
0.00074137774
0.00091204905
0.0011237123
0.0011903944
0.001188758
0.0011871359
0.0011855229
0.0011839173
0.0011823214
0.0011807589
0.0011793487
0.0011781879
0.0011772144
0.0011764052
0.001175734
0.0011751903
0.0011747362
0.0011743807
0.0011741073
0.0011738909
0.001173696
0.001173511
0.0011734013
0.0011734784
0.0011737203
0.0011737783
1.3689486e-07
7.8577166e-07
8.1064251e-07
6.0098259e-07
6.5778767e-07
7.1805111e-07
8.1975886e-07
9.3819408e-07
1.0748813e-06
1.2288197e-06
1.4012419e-06
1.5933424e-06
1.806643e-06
2.0428387e-06
2.3038471e-06
2.5918177e-06
2.909161e-06
3.2585361e-06
3.6430286e-06
4.0660208e-06
4.5313699e-06
5.0434868e-06
5.6074858e-06
6.2293983e-06
6.91648e-06
7.67763e-06
8.5239478e-06
9.4694527e-06
1.0540614e-05
1.1746796e-05
1.3122978e-05
1.4706192e-05
1.6543092e-05
1.8692239e-05
2.1226772e-05
2.4237701e-05
2.7837886e-05
3.2166909e-05
3.7397071e-05
4.3740734e-05
5.1459359e-05
6.0874544e-05
7.2381622e-05
8.6468668e-05
0.00010373638
0.00012492621
0.00015095408
0.00018455849
0.00022421898
0.00027304156
0.00033320062
0.00040739996
0.00049901388
0.00061226387
0.00075244698
0.00092623077
0.0011420151
0.0011905092
0.0011888452
0.0011871924
0.0011855482
0.0011839123
0.0011822915
0.0011807239
0.0011793812
0.0011782625
0.0011773264
0.0011765449
0.001175892
0.0011753745
0.0011749293
0.0011745863
0.0011743272
0.0011741141
0.0011739299