/*--------------------------------*- C++ -*----------------------------------*\
  =========                 |
  \\      /  F ield         | OpenFOAM: The Open Source CFD Toolbox
   \\    /   O peration     | Website:  https://openfoam.org
    \\  /    A nd           | Version:  12
     \\/     M anipulation  |
\*---------------------------------------------------------------------------*/
FoamFile
{
    format      ascii;
    class       volScalarField;
    location    "0.106";
    object      Ma;
}
// * * * * * * * * * * * * * * * * * * * * * * * * * * * * * * * * * * * * * //

dimensions      [];

internalField   nonuniform List<scalar> 
16000
(
0.62755702
0.74550078
0.70051417
0.72512866
0.71008394
0.71700237
0.71130026
0.71280902
0.71015937
0.7097086
0.70808154
0.7069409
0.70552134
0.70413542
0.70266712
0.70115214
0.69957926
0.69795006
0.6962633
0.69451851
0.6927153
0.69085351
0.68893326
0.6869549
0.68491914
0.68282701
0.68067989
0.67847956
0.6762282
0.67392841
0.67158321
0.66919606
0.66677083
0.66431184
0.66182376
0.65931167
0.65678098
0.65423736
0.65168676
0.64913527
0.64658912
0.64405455
0.6415378
0.63904497
0.63658199
0.63415453
0.63176795
0.62942721
0.62713684
0.62490089
0.62272285
0.6206057
0.61855178
0.61656286
0.6146401
0.61278401
0.61099452
0.60927097
0.60761213
0.60601604
0.60447997
0.60300066
0.60157409
0.60019517
0.59885779
0.59755493
0.59627903
0.59502229
0.5937768
0.59253428
0.59128581
0.59002252
0.58873806
0.58743211
0.58611179
0.58478894
0.58338367
0.58235395
0.58012987
0.58018262
0.63209506
0.7507783
0.70402486
0.72983158
0.7139627
0.72134398
0.7151955
0.71682232
0.71399004
0.71346646
0.71175156
0.71049477
0.70898329
0.70748266
0.70590515
0.70427299
0.70258031
0.700827
0.69901245
0.69713624
0.69519823
0.69319854
0.69113763
0.68901625
0.68683555
0.68459708
0.68230277
0.679955
0.67755663
0.67511092
0.67262164
0.67009301
0.66752968
0.66493674
0.66231966
0.65968426
0.65703667
0.65438326
0.65173056
0.6490852
0.64645381
0.64384297
0.64125909
0.63870837
0.63619668
0.63372952
0.63131193
0.62894848
0.62664319
0.62439951
0.62222029
0.62010777
0.61806357
0.61608871
0.61418359
0.61234801
0.6105812
0.60888185
0.60724813
0.60567758
0.60416705
0.60271283
0.60131063
0.59995515
0.59864014
0.59735849
0.59610257
0.59486454
0.5936365
0.59241031
0.59117715
0.58992806
0.58865635
0.58736157
0.5860491
0.58472002
0.58339575
0.58214111
0.5803859
0.579857
0.63633552
0.75561736
0.70767165
0.73393662
0.71761011
0.72509512
0.71878757
0.72030426
0.71741656
0.71673633
0.71495306
0.71355823
0.7119421
0.71031428
0.70861179
0.70684811
0.70501995
0.70312694
0.70116875
0.69914525
0.69705668
0.69490354
0.69268676
0.6904076
0.68806779
0.68566948
0.68321531
0.6807084
0.67815237
0.67555138
0.67291004
0.6702335
0.66752733
0.66479755
0.66205055
0.65929301
0.65653187
0.65377424
0.65102727
0.64829811
0.64559379
0.64292111
0.64028658
0.63769632
0.63515599
0.63267071
0.63024503
0.62788289
0.62558757
0.62336171
0.62120727
0.61912558
0.61711733
0.61518258
0.61332082
0.61153099
0.6098115
0.60816026
0.60657475
0.60505194
0.60358813
0.60217917
0.60082039
0.59950628
0.59823042
0.59698566
0.59576433
0.59455867
0.5933609
0.59216312
0.59095681
0.58973326
0.58848583
0.58721325
0.58591955
0.58461212
0.58331819
0.58198819
0.58045097
0.57963739
0.64021368
0.7600354
0.71074068
0.73754016
0.72080252
0.72839367
0.72192098
0.72330673
0.72035518
0.71949798
0.71763175
0.71608241
0.71434333
0.7125719
0.7107267
0.70881447
0.70683393
0.70478466
0.7026667
0.70048027
0.69822603
0.69590495
0.69351849
0.69106851
0.68855743
0.68598815
0.68336414
0.68068944
0.67796864
0.67520691
0.67240995
0.66958397
0.66673563
0.66387201
0.66100049
0.65812871
0.65526444
0.65241548
0.64958956
0.64679423
0.64403675
0.64132396
0.63866224
0.6360574
0.63351461
0.63103834
0.62863236
0.62629972
0.6240427
0.62186289
0.61976115
0.61773769
0.6157921
0.61392337
0.61212999
0.61040993
0.6087607
0.60717946
0.60566294
0.60420752
0.602809
0.6014628
0.60016392
0.59890664
0.59768444
0.59649016
0.59531619
0.59415485
0.59299855
0.59183966
0.59067009
0.58948152
0.58826719
0.58702481
0.58575853
0.58448143
0.58320651
0.58186853
0.58046885
0.57945668
0.6437159
0.76396926
0.71357259
0.74050406
0.72338207
0.73112851
0.72453826
0.72573336
0.72273632
0.7216672
0.71970712
0.71798539
0.71610468
0.71417385
0.71216876
0.71009177
0.7079426
0.70572102
0.70342735
0.70106222
0.69862673
0.69612245
0.69355149
0.69091653
0.68822087
0.68546841
0.68266373
0.67981202
0.67691912
0.67399146
0.67103605
0.66806038
0.66507238
0.66208028
0.65909257
0.65611783
0.65316462
0.65024138
0.64735625
0.64451697
0.64173079
0.63900434
0.63634353
0.63375353
0.63123868
0.6288025
0.62644763
0.62417592
0.62198838
0.61988531
0.61786625
0.61593014
0.6140753
0.61229957
0.61060033
0.60897456
0.60741887
0.60592962
0.60450286
0.60313437
0.6018195
0.6005533
0.59933045
0.5981451
0.5969907
0.59586013
0.59474591
0.59364053
0.59253666
0.59142703
0.59030407
0.58916001
0.58798796
0.58678484
0.58555589
0.58431571
0.58306448
0.58174975
0.5804339
0.5793027
0.64679036
0.76733321
0.71594646
0.74300981
0.72561099
0.73321875
0.72650153
0.72750444
0.72446843
0.72317059
0.72110426
0.71919908
0.71716059
0.71505721
0.71287681
0.71061934
0.70828501
0.70587395
0.70338692
0.70082515
0.6981905
0.6954854
0.69271298
0.68987706
0.68698216
0.68403356
0.68103725
0.67799995
0.67492902
0.67183245
0.66871877
0.66559695
0.66247628
0.65936625
0.6562764
0.6532162
0.65019486
0.64722118
0.64430345
0.64144931
0.63866559
0.63595829
0.63333246
0.63079221
0.62834065
0.62597991
0.62371121
0.62153485
0.61945032
0.61745638
0.61555109
0.61373197
0.61199604
0.6103399
0.60875982
0.60725181
0.60581164
0.60443491
0.60311707
0.60185337
0.6006388
0.59946809
0.59833576
0.59723585
0.59616188
0.59510686
0.59406352
0.5930246
0.59198308
0.59093212
0.58986482
0.58877397
0.58765259
0.58649728
0.5853142
0.58411652
0.58289729
0.5816239
0.58037328
0.57915341
0.64940751
0.77010884
0.71786568
0.74501927
0.72737312
0.73464512
0.7279587
0.72858424
0.72555955
0.72398655
0.72179944
0.71969964
0.71748344
0.715189
0.71281186
0.71035148
0.70780861
0.70518416
0.70247976
0.69969764
0.69684079
0.69391294
0.69091862
0.68786318
0.68475281
0.68159452
0.67839612
0.67516613
0.6719138
0.66864888
0.66538163
0.66212259
0.65888244
0.65567185
0.65250129
0.64938086
0.64632008
0.64332779
0.64041197
0.63757961
0.63483668
0.63218799
0.62963724
0.62718695
0.62483855
0.62259241
0.62044791
0.61840355
0.61645706
0.61460548
0.61284532
0.6111726
0.60958302
0.60807198
0.60663474
0.60526639
0.60396196
0.60271643
0.60152474
0.60038177
0.59928223
0.59822068
0.59719154
0.5961889
0.59520639
0.59423728
0.59327459
0.59231139
0.59134104
0.59035721
0.58935372
0.58832396
0.58726105
0.58616169
0.58503232
0.58388259
0.58270319
0.58148369
0.5802903
0.57900441
0.65160725
0.77232549
0.71937197
0.74656011
0.72872485
0.73562819
0.72892245
0.72941532
0.72598923
0.72413633
0.72179295
0.71947244
0.71704427
0.71452699
0.71192032
0.70922441
0.70644078
0.70357145
0.70061924
0.69758774
0.69448149
0.6913059
0.68806735
0.68477316
0.6814316
0.67805181
0.6746438
0.67121827
0.66778653
0.66436033
0.6609517
0.65757272
0.65423536
0.65095121
0.6477313
0.64458593
0.64152443
0.63855506
0.63568485
0.63291953
0.63026351
0.62771981
0.62529014
0.62297494
0.62077346
0.61868393
0.61670359
0.61482894
0.61305576
0.61137937
0.60979465
0.60829622
0.60687854
0.60553594
0.60426278
0.60305344
0.60190235
0.60080403
0.5997531
0.59874421
0.59777195
0.59683082
0.5959153
0.5950196
0.59413762
0.59326294
0.592389
0.59150926
0.59061752
0.58970803
0.58877536
0.58781351
0.58681595
0.58577994
0.5847111
0.58361425
0.58248198
0.58132651
0.58018766
0.57885062
0.65345698
0.77401197
0.72042246
0.74763063
0.72941624
0.73566973
0.72905694
0.72875971
0.72570479
0.72356737
0.72101851
0.71844119
0.71575894
0.71297941
0.71010411
0.70713444
0.70407295
0.70092308
0.69768925
0.69437691
0.69099259
0.68754392
0.68403966
0.68048961
0.67690463
0.67329645
0.66967763
0.66606132
0.66246109
0.6588907
0.65536387
0.651894
0.64849392
0.64517568
0.64195027
0.63882746
0.63581562
0.6329216
0.63015066
0.62750646
0.62499104
0.62260494
0.62034729
0.61821591
0.6162075
0.61431782
0.61254184
0.61087391
0.60930792
0.60783747
0.606456
0.60515688
0.6039335
0.60277938
0.60168819
0.60065379
0.59967027
0.59873191
0.59783318
0.59696868
0.59613305
0.59532089
0.59452685
0.59374541
0.59297081
0.59219708
0.59141811
0.59062788
0.58982066
0.58899132
0.58813516
0.58724678
0.58632045
0.5853542
0.58435165
0.58331207
0.58223415
0.58115113
0.58006427
0.57869
0.65495705
0.77514325
0.72094423
0.74803419
0.72938335
0.73518811
0.72858917
0.72790168
0.72464982
0.72215992
0.71935555
0.7164836
0.71350363
0.71041925
0.70723305
0.70394818
0.70056888
0.69710056
0.69354992
0.68992486
0.68623465
0.68248982
0.67870217
0.67488464
0.67105118
0.66721657
0.66339623
0.65960589
0.65586137
0.65217822
0.64857148
0.64505529
0.64164268
0.63834527
0.63517306
0.63213427
0.62923521
0.6264803
0.62387201
0.62141096
0.61909609
0.61692474
0.61489293
0.6129955
0.61122635
0.60957868
0.60804517
0.60661814
0.60528976
0.60405217
0.60289761
0.60181847
0.60080741
0.59985741
0.59896175
0.59811406
0.59730834
0.59653884
0.59580011
0.59508689
0.59439403
0.59371639
0.59304893
0.59238649
0.59172376
0.59105529
0.59037554
0.589679
0.58896052
0.58821563
0.58744019
0.58662951
0.58577904
0.58488776
0.58395597
0.58297743
0.58196057
0.58095594
0.57991879
0.5785225
0.65604562
0.77561659
0.72085996
0.74690654
0.72857396
0.73381464
0.72732905
0.72604849
0.72266236
0.71979541
0.71667791
0.71346556
0.71013863
0.7067011
0.70315683
0.69951131
0.69577123
0.6919448
0.68804182
0.6840736
0.680053
0.67599434
0.67191323
0.66782639
0.66375138
0.65970632
0.65570957
0.65177931
0.64793322
0.64418806
0.64055934
0.63706094
0.63370488
0.63050104
0.62745705
0.6245782
0.62186745
0.61932552
0.61695104
0.61474074
0.61268972
0.61079166
0.60903917
0.60742399
0.60593725
0.60456974
0.60331209
0.60215493
0.60108907
0.60010556
0.59919583
0.59835173
0.59756554
0.59683004
0.59613846
0.59548451
0.59486231
0.59426639
0.59369156
0.59313289
0.59258558
0.5920449
0.59150623
0.59096489
0.59041608
0.58985494
0.58927653
0.58867597
0.58804873
0.58739093
0.58669891
0.58596872
0.58519746
0.58438486
0.58352682
0.5826127
0.58166317
0.58073975
0.57974888
0.57834826
0.65663033
0.77526442
0.72005502
0.74510058
0.727141
0.73154185
0.72512806
0.72323854
0.71961963
0.71633522
0.71284078
0.70923307
0.7055031
0.70165751
0.69770244
0.69364658
0.6895002
0.68527549
0.68098657
0.67664933
0.67228134
0.66790162
0.66353036
0.65918856
0.65489765
0.65067906
0.64655373
0.64254164
0.63866139
0.63492967
0.63136098
0.62796726
0.62475772
0.62173869
0.61891368
0.61628343
0.61384613
0.61159766
0.60953191
0.6076411
0.60591612
0.6043469
0.60292269
0.60163235
0.60046464
0.59940836
0.59845259
0.59758681
0.59680095
0.59608553
0.59543164
0.59483103
0.59427602
0.59375957
0.59327519
0.59281695
0.59237938
0.59195745
0.59154645
0.59114192
0.59073958
0.59033522
0.58992472
0.58950395
0.5890687
0.58861474
0.58813776
0.58763355
0.58709827
0.58652854
0.58592107
0.58527278
0.58458266
0.58385069
0.58306789
0.58222142
0.58134519
0.58050252
0.57955187
0.57816817
0.65664821
0.7740118
0.71839221
0.74255735
0.72482942
0.72823872
0.72186107
0.71930958
0.71537401
0.71162086
0.70767696
0.70360728
0.69940861
0.69509179
0.69066694
0.68614744
0.68154876
0.67688868
0.67218713
0.66746589
0.66274832
0.65805895
0.65342301
0.64886592
0.64441271
0.6400874
0.63591242
0.63190801
0.62809176
0.62447814
0.62107827
0.61789972
0.61494655
0.61221943
0.60971585
0.60743051
0.60535568
0.60348162
0.60179707
0.60028962
0.59894616
0.59775319
0.59669714
0.59576465
0.59494272
0.59421893
0.59358148
0.59301935
0.59252225
0.59208071
0.59168603
0.59133029
0.59100628
0.59070747
0.59042795
0.5901624
0.58990599
0.5896543
0.58940327
0.58914903
0.58888791
0.58861631
0.5883307
0.58802753
0.58770323
0.58735418
0.58697676
0.58656747
0.58612313
0.58564082
0.58511755
0.58455126
0.58394275
0.58329145
0.58258388
0.58180836
0.58101106
0.58024584
0.57932613
0.57798641
0.65608013
0.77176072
0.71580137
0.73891696
0.72150154
0.723799
0.71737944
0.71411423
0.70975117
0.70545757
0.70097871
0.69636623
0.69162219
0.68676337
0.6818062
0.67677084
0.67167998
0.66655875
0.66143438
0.65633572
0.65129275
0.64633587
0.64149526
0.63680003
0.63227751
0.62795242
0.62384622
0.61997654
0.61635681
0.61299603
0.60989881
0.60706551
0.60449256
0.60217298
0.60009682
0.59825178
0.59662374
0.59519736
0.59395651
0.59288476
0.59196573
0.5911834
0.59052232
0.58996782
0.58950612
0.58912437
0.58881076
0.58855444
0.58834557
0.58817524
0.58803544
0.58791899
0.5878195
0.58773124
0.58764914
0.58756867
0.58748579
0.58739686
0.58729852
0.58718763
0.58706116
0.58691619
0.58674982
0.58655912
0.58634114
0.58609289
0.58581141
0.58549392
0.58513791
0.58474081
0.58430002
0.58381467
0.58328682
0.58271433
0.58208073
0.58137958
0.58066603
0.57997248
0.57907505
0.57780253
0.65486776
0.76834026
0.71222964
0.73409748
0.71699819
0.71805175
0.71148233
0.70743517
0.70251665
0.69758731
0.6924731
0.68722441
0.68185111
0.67637831
0.67083144
0.66523978
0.65963523
0.65405202
0.648526
0.64309392
0.6377925
0.63265744
0.62772233
0.62301764
0.61856978
0.61440032
0.6105255
0.60695595
0.60369672
0.60074751
0.59810314
0.59575419
0.59368769
0.59188788
0.59033693
0.58901568
0.58790423
0.58698249
0.58623061
0.58562938
0.58516043
0.58480649
0.58455143
0.58438042
0.58427985
0.58423742
0.58424201
0.58428368
0.58435356
0.5844438
0.58454746
0.58465844
0.58477141
0.58488168
0.58498515
0.58507824
0.58515778
0.58522096
0.58526523
0.58528818
0.58528747
0.58526089
0.58520618
0.58512101
0.58500305
0.58484991
0.58465927
0.58442905
0.58415731
0.58384184
0.58348066
0.58307412
0.58262463
0.58212753
0.5815657
0.58094219
0.58031607
0.5796861
0.57880467
0.57761932
0.65295642
0.76351177
0.70772108
0.72790676
0.71111121
0.71077162
0.70389992
0.6989744
0.69335098
0.68766783
0.6818069
0.67582433
0.66974158
0.66359462
0.65742064
0.65126054
0.64515763
0.63915674
0.63330314
0.62764106
0.62221234
0.61705494
0.61220164
0.60767902
0.60350675
0.59969727
0.59625583
0.59318089
0.5904648
0.58809468
0.58605336
0.5843204
0.58287311
0.58168738
0.5807385
0.58000183
0.5794533
0.57906985
0.57882966
0.5787124
0.57869934
0.57877335
0.57891892
0.57912211
0.5793705
0.57965305
0.57996003
0.58028293
0.58061429
0.58094767
0.58127748
0.58159889
0.58190779
0.58220064
0.58247441
0.58272651
0.5829547
0.583157
0.58333167
0.58347704
0.5835915
0.58367348
0.58372136
0.58373343
0.58370791
0.58364299
0.58353697
0.58338836
0.58319567
0.58295713
0.58267167
0.5823408
0.58196626
0.58154022
0.58104747
0.58050374
0.57996747
0.57939409
0.5785244
0.57744074
0.65028833
0.75688623
0.70215898
0.7200809
0.7035321
0.70161196
0.69424398
0.68831793
0.68182977
0.67526528
0.66854838
0.66174499
0.65489264
0.64804184
0.64124512
0.634558
0.62803697
0.62173771
0.61571305
0.61001088
0.60467237
0.59973052
0.59520921
0.5911228
0.58747631
0.58426606
0.58148064
0.57910216
0.57710763
0.57547031
0.57416101
0.57314923
0.57240417
0.57189551
0.57159401
0.571472
0.57150362
0.57166506
0.57193459
0.5722926
0.57272149
0.57320565
0.57373128
0.57428627
0.57486008
0.57544355
0.5760288
0.57660909
0.57717865
0.57773261
0.57826688
0.57877801
0.57926315
0.57971994
0.58014641
0.58054097
0.58090227
0.58122918
0.58152068
0.58177584
0.58199374
0.58217344
0.5823139
0.58241401
0.58247251
0.58248813
0.58245972
0.58238627
0.5822666
0.5820995
0.58188504
0.58162571
0.58132173
0.58096227
0.5805361
0.58007215
0.57962451
0.57910514
0.57825061
0.57726269
0.64672873
0.74779487
0.69492936
0.71016755
0.69380381
0.69009694
0.6820084
0.67494831
0.66743763
0.65986746
0.65220062
0.64451815
0.63688024
0.6293575
0.6220215
0.61494356
0.60819148
0.60182664
0.59590142
0.59045713
0.58552283
0.58111487
0.57723724
0.57388266
0.57103402
0.56866627
0.56674825
0.56524465
0.56411766
0.56332847
0.56283854
0.56261048
0.56260877
0.56280025
0.56315436
0.56364333
0.56424214
0.56492846
0.56568256
0.56648707
0.56732688
0.56818888
0.56906177
0.5699359
0.57080306
0.57165632
0.57248986
0.57329887
0.57407937
0.57482812
0.57554251
0.57622047
0.57686037
0.57746098
0.57802135
0.57854082
0.57901887
0.57945514
0.5798493
0.58020109
0.58051021
0.58077631
0.58099891
0.5811774
0.58131106
0.58139913
0.58144091
0.58143572
0.58138262
0.58128101
0.58113221
0.5809393
0.58070059
0.58040343
0.58004227
0.57965604
0.57928949
0.57882149
0.57799471
0.57708693
0.64198924
0.73624843
0.68560294
0.69760518
0.68134627
0.67566463
0.66659097
0.65824497
0.64955896
0.64087587
0.63220616
0.62365481
0.61531136
0.60726951
0.59961778
0.59243622
0.58579242
0.57973871
0.57431052
0.56952603
0.56538687
0.56187988
0.55897939
0.55664992
0.55484891
0.55352929
0.55264178
0.55213677
0.55196584
0.55208286
0.55244471
0.55301174
0.55374803
0.55462134
0.5556031
0.55666816
0.55779458
0.55896337
0.56015818
0.56136503
0.56257208
0.56376933
0.56494842
0.56610242
0.56722564
0.56831344
0.56936211
0.57036874
0.57133109
0.57224746
0.57311665
0.57393785
0.57471059
0.57543463
0.57610995
0.57673672
0.57731516
0.5778456
0.57832834
0.57876368
0.5791519
0.57949315
0.57978746
0.5800347
0.58023462
0.58038697
0.58049144
0.58054753
0.58055452
0.58051245
0.58042367
0.58029122
0.58011156
0.57987235
0.57957518
0.57926429
0.57896822
0.57854202
0.57775201
0.57694056
0.63570993
0.72325499
0.67362094
0.6818046
0.66543994
0.6575922
0.64722203
0.6374193
0.62744047
0.61761183
0.60800385
0.59875095
0.58996915
0.58176521
0.5742277
0.56742377
0.56139683
0.55616636
0.55172942
0.5480634
0.54512971
0.54287771
0.5412487
0.54017949
0.53960541
0.53946278
0.53969064
0.54023203
0.54103469
0.54205145
0.54324026
0.54456407
0.54599054
0.54749171
0.54904355
0.55062559
0.55222049
0.55381369
0.55539304
0.55694848
0.55847175
0.55995615
0.56139633
0.56278806
0.56412808
0.56541395
0.56664393
0.56781685
0.56893203
0.56998918
0.57098835
0.57192984
0.57281417
0.57364198
0.57441407
0.57513128
0.57579451
0.57640465
0.57696254
0.577469
0.57792477
0.57833045
0.5786865
0.57899323
0.57925087
0.57945958
0.5796194
0.57972999
0.57979089
0.5798028
0.57976852
0.57969017
0.57956272
0.57937651
0.57914183
0.57890401
0.57866927
0.57827398
0.57752576
0.57682643
0.62756332
0.70625044
0.6581466
0.66187709
0.64503846
0.63481889
0.62286801
0.61150573
0.60026536
0.58946782
0.57924009
0.5697328
0.56106304
0.55331868
0.54655321
0.54078641
0.53600708
0.53217761
0.52923976
0.52712069
0.52573871
0.52500826
0.52484397
0.5251637
0.5258906
0.52695436
0.52829187
0.52984728
0.53157181
0.53342332
0.53536572
0.53736837
0.53940547
0.54145544
0.54350034
0.54552542
0.54751861
0.54947016
0.55137228
0.55321883
0.55500507
0.55672743
0.55838334
0.55997104
0.56148948
0.56293814
0.56431701
0.56562644
0.56686708
0.56803985
0.56914584
0.57018629
0.57116254
0.57207599
0.57292809
0.57372028
0.57445398
0.57513056
0.57575134
0.57631753
0.57683027
0.57729055
0.57769918
0.57805687
0.57836427
0.57862192
0.57883012
0.57898879
0.57909791
0.57915875
0.57917395
0.57914384
0.57906215
0.57892367
0.57874779
0.57857828
0.57839795
0.57803006
0.57732964
0.57675488
0.61690106
0.68425564
0.63778175
0.6364044
0.61866519
0.60595527
0.59235552
0.57959975
0.56747115
0.55626704
0.54612925
0.53717881
0.52948154
0.52305605
0.51787679
0.51388231
0.51098427
0.50907683
0.50804506
0.50777208
0.50814438
0.50905554
0.51040851
0.5121167
0.51410421
0.51630548
0.51866455
0.52113418
0.5236748
0.52625362
0.52884357
0.53142259
0.53397277
0.53647974
0.53893208
0.54132087
0.54363922
0.54588197
0.54804537
0.55012683
0.55212476
0.55403831
0.55586733
0.55761216
0.5592736
0.56085275
0.56235102
0.56377
0.56511146
0.56637727
0.56756939
0.56868979
0.5697405
0.57072351
0.57164079
0.57249427
0.5732858
0.57401711
0.57468992
0.57530579
0.57586616
0.57637232
0.57682541
0.57722648
0.57757652
0.57787636
0.57812654
0.57832731
0.57847933
0.5785844
0.57864454
0.57865795
0.5786176
0.57852287
0.57839984
0.578288
0.57815324
0.5778216
0.57719043
0.57671238
0.60256898
0.65516424
0.61060664
0.60362751
0.58471004
0.56962396
0.55479596
0.54134741
0.52924318
0.51869978
0.50978988
0.50253061
0.49687174
0.4927137
0.48992113
0.48833807
0.48780064
0.48814725
0.48922564
0.49089725
0.4930394
0.49554573
0.49832565
0.50130309
0.50441489
0.50760916
0.51084367
0.51408431
0.5173038
0.5204805
0.52359743
0.52664146
0.52960259
0.53247337
0.53524843
0.53792411
0.54049809
0.54296919
0.5453371
0.54760221
0.5497655
0.55182839
0.55379267
0.55566037
0.55743375
0.55911521
0.56070728
0.56221252
0.56363356
0.56497302
0.56623352
0.56741762
0.56852787
0.56956671
0.57053654
0.57143965
0.57227822
0.57305432
0.57376993
0.5744269
0.57502691
0.57557152
0.57606214
0.57650009
0.57688661
0.57722272
0.57750917
0.57774665
0.57793651
0.57808101
0.57818143
0.57823445
0.57823335
0.5781814
0.57810662
0.5780395
0.57793479
0.57763807
0.57709128
0.57670158
0.58259317
0.61662894
0.57443075
0.56174667
0.54215796
0.52512817
0.51022447
0.49750892
0.48694947
0.47858894
0.47232976
0.46801196
0.465424
0.46433131
0.46449551
0.46568949
0.4677066
0.47036532
0.47351045
0.47701211
0.48076344
0.48467771
0.48868537
0.49273122
0.49677185
0.50077352
0.50471022
0.50856223
0.51231482
0.51595723
0.5194819
0.52288375
0.5261597
0.52930823
0.53232904
0.53522278
0.53799087
0.54063528
0.54315842
0.54556305
0.54785213
0.55002882
0.55209638
0.55405815
0.5559175
0.5576778
0.55934239
0.5609146
0.56239768
0.56379481
0.5651091
0.56634356
0.5675011
0.56858453
0.56959656
0.57053975
0.57141653
0.57222925
0.57298008
0.57367109
0.57430419
0.57488112
0.57540354
0.57587297
0.57629083
0.57665826
0.57697618
0.57724569
0.57746868
0.57764756
0.57778297
0.5778712
0.57790748
0.5778986
0.57787068
0.57784135
0.57775601
0.57748472
0.57701928
0.57675783
0.5543591
0.56614318
0.52790097
0.50941507
0.48872833
0.4732201
0.4602133
0.45030835
0.44324044
0.43876619
0.43653875
0.43619402
0.43737367
0.43975067
0.44303985
0.44700157
0.45143981
0.45619767
0.46115161
0.46620575
0.47128656
0.47633834
0.48131941
0.48619905
0.49095503
0.49557168
0.50003841
0.50434846
0.50849807
0.5124857
0.51631152
0.51997699
0.5234845
0.52683716
0.53003858
0.53309272
0.53600377
0.53877609
0.54141412
0.54392231
0.54630512
0.54856696
0.55071217
0.55274501
0.55466965
0.55649016
0.55821048
0.55983445
0.56136579
0.56280806
0.56416473
0.56543912
0.56663442
0.56775369
0.56879985
0.56977568
0.5706838
0.57152674
0.57230687
0.5730264
0.57368741
0.57429183
0.57484148
0.57533808
0.57578315
0.57617792
0.57652351
0.57682131
0.57707344
0.57728202
0.57744708
0.57756536
0.57763498
0.57766572
0.5776804
0.57768581
0.57762516
0.57739374
0.57700494
0.57678148
0.51375014
0.50117458
0.46389443
0.44596345
0.4285132
0.41629026
0.40796656
0.40332563
0.40171268
0.40254079
0.40524027
0.40932331
0.41438705
0.42011262
0.4262542
0.43262651
0.43909222
0.44555123
0.45193164
0.45818278
0.46426978
0.47016942
0.47586705
0.48135434
0.48662749
0.49168602
0.49653179
0.50116835
0.50560038
0.50983335
0.51387323
0.51772627
0.52139888
0.52489749
0.52822852
0.53139826
0.53441289
0.53727843
0.54000071
0.5425854
0.54503795
0.54736365
0.54956758
0.55165462
0.55362951
0.55549676
0.55726074
0.55892563
0.56049544
0.56197403
0.56336508
0.56467212
0.56589854
0.56704757
0.56812229
0.56912562
0.57006033
0.57092907
0.57173435
0.57247852
0.57316377
0.57379221
0.57436579
0.57488635
0.57535551
0.57577464
0.57614504
0.57646834
0.5767466
0.57698142
0.5771723
0.57731671
0.57741517
0.57747865
0.57752552
0.57755482
0.57751358
0.57732391
0.57702084
0.57688546
0.45183455
0.41922244
0.38948719
0.37461891
0.36376869
0.35896102
0.35839452
0.36114907
0.36623207
0.37288278
0.38051497
0.38870346
0.39714737
0.40563929
0.41403935
0.42225561
0.43022963
0.43792619
0.44532598
0.45242057
0.45920883
0.4656945
0.47188445
0.47778752
0.48341373
0.48877368
0.49387819
0.49873808
0.50336393
0.50776603
0.51195431
0.51593826
0.519727
0.52332918
0.52675306
0.53000649
0.53309695
0.53603153
0.53881699
0.54145976
0.54396596
0.54634143
0.54859171
0.55072211
0.55273769
0.55464327
0.55644348
0.5581427
0.55974516
0.56125486
0.56267566
0.5640112
0.565265
0.56644039
0.56754056
0.56856853
0.56952716
0.57041921
0.57124726
0.57201378
0.57272106
0.57337132
0.57396664
0.57450893
0.57499991
0.57544111
0.57583404
0.57618048
0.57648234
0.57674079
0.57695519
0.57712401
0.5772492
0.57734068
0.57741119
0.57745519
0.57742971
0.57728293
0.57705342
0.57694761
0.35596427
0.3224565
0.30482551
0.30033872
0.30172255
0.3079943
0.31717441
0.32799566
0.33958344
0.3513857
0.36306626
0.37442881
0.38536549
0.39582314
0.40578208
0.41524265
0.42421688
0.43272326
0.44078356
0.44842083
0.45565822
0.46251827
0.46902253
0.47519137
0.48104387
0.48659787
0.49186994
0.4968755
0.50162889
0.5061434
0.51043143
0.51450449
0.51837334
0.522048
0.52553786
0.5288517
0.53199777
0.53498384
0.53781719
0.54050471
0.54305292
0.54546797
0.54775569
0.54992162
0.55197102
0.55390888
0.55573996
0.5574688
0.5590997
0.5606368
0.56208399
0.56344504
0.56472349
0.56592277
0.56704611
0.56809659
0.56907714
0.56999056
0.57083952
0.57162652
0.57235396
0.57302412
0.57363916
0.57420106
0.57471163
0.57517251
0.5755854
0.57595213
0.57627443
0.57655324
0.57678821
0.57697887
0.57712785
0.57724288
0.57733141
0.57738623
0.57737626
0.57727044
0.57710179
0.57700818
0.21673935
0.21545677
0.22084453
0.23425195
0.25157058
0.26997082
0.28824733
0.30574921
0.32224712
0.33767692
0.35206367
0.36546771
0.37796275
0.38962406
0.40052339
0.4107268
0.42029401
0.42927855
0.43772817
0.44568543
0.45318822
0.46027039
0.4669622
0.47329077
0.47928051
0.48495341
0.49032938
0.49542651
0.50026124
0.50484862
0.5092024
0.51333527
0.5172589
0.52098407
0.5245208
0.5278784
0.53106554
0.53409034
0.5369604
0.53968285
0.5422644
0.54471139
0.54702979
0.54922527
0.55130318
0.55326861
0.55512639
0.55688113
0.55853718
0.56009872
0.56156969
0.56295389
0.56425491
0.56547619
0.56662099
0.56769243
0.56869346
0.5696269
0.57049545
0.57130166
0.57204796
0.5727367
0.57337005
0.57395006
0.57447859
0.57495738
0.5753882
0.57577284
0.57611289
0.57640926
0.57666198
0.57687132
0.57703989
0.57717323
0.57727526
0.5773391
0.57734385
0.57727209
0.57714763
0.57705484
0.09200397
0.12192539
0.15937251
0.19304271
0.22319558
0.24974068
0.27329847
0.29433493
0.31326631
0.33041886
0.34605555
0.36038704
0.37358428
0.38578719
0.3971115
0.40765379
0.41749544
0.42670553
0.43534321
0.44345944
0.45109845
0.45829887
0.46509461
0.47151564
0.47758856
0.48333708
0.48878248
0.49394391
0.49883868
0.50348252
0.50788974
0.51207346
0.51604571
0.51981756
0.52339928
0.52680035
0.5300296
0.53309527
0.53600507
0.5387662
0.54138545
0.5438692
0.54622348
0.54845396
0.55056606
0.55256487
0.55445525
0.5562418
0.55792892
0.55952078
0.56102134
0.5624344
0.56376356
0.56501227
0.5661838
0.56728128
0.56830765
0.56926576
0.57015831
0.57098786
0.57175689
0.57246772
0.57312259
0.57372355
0.57427249
0.5747712
0.57522142
0.5756249
0.57598315
0.57629712
0.57656705
0.5767934
0.57697851
0.57712659
0.57723971
0.57731153
0.57732716
0.57727646
0.57717684
0.57708182
0.01108055
0.29782294
0.47237021
0.52017714
0.52987543
0.53039352
0.53007752
0.53121713
0.53269914
0.53418314
0.53566399
0.53710765
0.53852869
0.53993585
0.54133979
0.5427504
0.54416905
0.54559625
0.54703177
0.54847462
0.54992331
0.55137604
0.55283079
0.55428544
0.55573779
0.55718563
0.55862678
0.56005908
0.56148044
0.5628888
0.56428216
0.56565857
0.56701612
0.56835292
0.56966713
0.57095689
0.5722204
0.57345583
0.57466138
0.57583523
0.57697555
0.57808054
0.57914836
0.58017717
0.58116515
0.58211049
0.58301137
0.58386601
0.58467268
0.58542967
0.5861354
0.58678833
0.58738709
0.58793047
0.58841747
0.5888473
0.58921949
0.58953378
0.58979022
0.58998879
0.59012918
0.59021134
0.59023547
0.5902018
0.59010965
0.58995863
0.58974382
0.58946683
0.58910885
0.58869391
0.58815293
0.58760619
0.58679952
0.58616785
0.58494014
0.5843927
0.58255688
0.58225168
0.57994248
0.57975575
0.064795274
0.38577086
0.52272564
0.5476781
0.54851909
0.54671319
0.54586479
0.54600945
0.54621493
0.54652222
0.546915
0.5474735
0.54815234
0.54892205
0.54975426
0.55064565
0.55158945
0.55258118
0.55361548
0.55468714
0.55579141
0.55692383
0.55808017
0.55925645
0.56044887
0.56165382
0.56286784
0.56408764
0.56531004
0.56653197
0.56775051
0.56896278
0.57016604
0.5713576
0.57253484
0.57369521
0.57483621
0.5759554
0.57705037
0.57811876
0.57915825
0.58016655
0.5811414
0.58208059
0.58298193
0.58384331
0.58466264
0.5854379
0.58616715
0.58684855
0.58748034
0.58806093
0.58858887
0.58906293
0.58948211
0.58984566
0.59015316
0.59040444
0.59059962
0.59073875
0.59082161
0.59084825
0.59081898
0.59073404
0.59059281
0.59039466
0.59013506
0.5898146
0.5894167
0.58896126
0.58838737
0.58780017
0.58697156
0.58629849
0.58506443
0.58447212
0.5826391
0.58231849
0.57994806
0.57986551
0.15071398
0.46690213
0.54231657
0.5550534
0.55368667
0.55276895
0.55276489
0.55332897
0.5537479
0.55427598
0.55478383
0.55535355
0.55594341
0.55657505
0.55723991
0.55794256
0.55867905
0.55944975
0.56025313
0.56108748
0.56195102
0.56284178
0.56375766
0.56469641
0.56565566
0.56663291
0.5676256
0.56863107
0.56964661
0.57066947
0.57169685
0.57272594
0.5737539
0.5747779
0.57579511
0.57680269
0.57779783
0.57877775
0.57973966
0.58068083
0.58159854
0.58249014
0.58335298
0.58418451
0.58498219
0.5857436
0.58646635
0.58714817
0.58778688
0.58838044
0.58892692
0.58942461
0.58987195
0.59026766
0.59061071
0.59090034
0.59113616
0.59131804
0.59144616
0.59152062
0.59154126
0.59150818
0.59142177
0.59128227
0.59108904
0.59084129
0.59053471
0.59016917
0.58972955
0.58923307
0.58862407
0.58799754
0.58714351
0.58643329
0.58518615
0.58455495
0.58271744
0.58238434
0.57995879
0.57996894
0.23329942
0.513924
0.5559991
0.56346171
0.56079211
0.56104003
0.56110144
0.56170424
0.56197938
0.56243596
0.56281425
0.56327292
0.56373419
0.56422728
0.56473762
0.56527311
0.56583106
0.56641369
0.56702086
0.56765249
0.56830829
0.56898775
0.56969013
0.57041445
0.57115951
0.57192391
0.57270603
0.57350408
0.57431606
0.57513984
0.57597314
0.57681354
0.57765851
0.57850542
0.57935154
0.58019411
0.58103027
0.58185715
0.58267183
0.58347141
0.58425295
0.58501356
0.58575035
0.58646049
0.5871412
0.58778979
0.58840363
0.58898023
0.58951719
0.59001227
0.59046343
0.59086878
0.5912267
0.59153583
0.59179511