/*--------------------------------*- C++ -*----------------------------------*\
  =========                 |
  \\      /  F ield         | OpenFOAM: The Open Source CFD Toolbox
   \\    /   O peration     | Website:  https://openfoam.org
    \\  /    A nd           | Version:  12
     \\/     M anipulation  |
\*---------------------------------------------------------------------------*/
FoamFile
{
    format      ascii;
    class       volScalarField;
    location    "0.106";
    object      rho;
}
// * * * * * * * * * * * * * * * * * * * * * * * * * * * * * * * * * * * * * //

dimensions      [1 -3 0 0 0 0 0];

internalField   nonuniform List<scalar> 
16000
(
1.0566759
1.0895691
1.0773751
1.0856837
1.0818251
1.0852808
1.0843017
1.0861329
1.0862834
1.0874986
1.088155
1.0891754
1.090059
1.0910619
1.0920644
1.0931191
1.0942064
1.0953338
1.0964996
1.0977046
1.098949
1.1002326
1.1015553
1.1029166
1.1043161
1.1057527
1.1072254
1.1087327
1.1102732
1.1118447
1.113445
1.1150717
1.1167219
1.1183925
1.1200802
1.1217814
1.1234923
1.1252089
1.126927
1.1286424
1.1303508
1.1320477
1.133729
1.1353904
1.1370278
1.1386373
1.1402152
1.141758
1.1432625
1.144726
1.1461458
1.1475198
1.148846
1.1501229
1.1513491
1.1525238
1.1536461
1.1547157
1.1557321
1.1566952
1.1576049
1.1584613
1.1592644
1.1600144
1.1607113
1.1613551
1.161946
1.1624836
1.1629674
1.1633969
1.1637719
1.164093
1.164363
1.1645857
1.1647662
1.1649168
1.1650673
1.1649422
1.1655838
1.164338
1.0533804
1.0867915
1.0739662
1.0828489
1.0787608
1.0824853
1.0814039
1.083407
1.0835504
1.0848679
1.0855762
1.086672
1.08763
1.0887078
1.0897914
1.0909277
1.0921008
1.0933163
1.0945732
1.0958721
1.0972127
1.0985948
1.1000181
1.1014817
1.1029847
1.104526
1.1061038
1.1077165
1.1093619
1.1110376
1.1127407
1.1144682
1.1162169
1.1179829
1.1197625
1.1215515
1.1233456
1.1251403
1.1269311
1.1287132
1.1304822
1.1322335
1.1339625
1.1356651
1.1373372
1.138975
1.1405749
1.1421339
1.1436492
1.1451182
1.1465389
1.1479096
1.149229
1.1504958
1.1517095
1.1528695
1.1539756
1.1550277
1.1560259
1.1569706
1.1578618
1.1587
1.1594854
1.1602185
1.1608993
1.1615282
1.162105
1.1626297
1.1631017
1.1635206
1.1638862
1.1641991
1.1644615
1.1646773
1.1648531
1.1650045
1.1651034
1.1651305
1.1655028
1.1644708
1.050386
1.0842524
1.0710812
1.0802368
1.0760063
1.0799339
1.078824
1.0809481
1.0811337
1.0825354
1.0833185
1.0844918
1.0855365
1.0866981
1.0878731
1.0891018
1.0903713
1.0916857
1.0930444
1.0944473
1.0958941
1.0973843
1.098917
1.1004911
1.1021053
1.1037579
1.105447
1.1071701
1.1089246
1.1107075
1.1125154
1.1143447
1.1161914
1.1180512
1.1199197
1.121792
1.1236634
1.1255289
1.1273836
1.1292225
1.1310407
1.1328336
1.1345966
1.1363257
1.1380169
1.1396667
1.1412721
1.1428302
1.1443387
1.1457959
1.1472002
1.1485505
1.1498461
1.1510866
1.1522717
1.1534016
1.1544766
1.1554971
1.1564637
1.157377
1.1582376
1.1590461
1.159803
1.1605088
1.161164
1.1617688
1.1623232
1.1628271
1.1632801
1.1636819
1.164032
1.1643313
1.1645818
1.1647874
1.1649563
1.165096
1.1651807
1.1652625
1.1654567
1.1646276
1.0477168
1.081956
1.0683646
1.077889
1.0735222
1.0776828
1.0765503
1.0788134
1.0790507
1.0805494
1.0814214
1.0826842
1.0838301
1.0850888
1.0863687
1.0877028
1.0890813
1.0905068
1.0919787
1.0934967
1.0950602
1.0966682
1.0983198
1.1000133
1.101747
1.1035186
1.1053256
1.1071651
1.1090338
1.1109278
1.1128432
1.1147755
1.11672
1.1186717
1.1206255
1.122576
1.1245178
1.1264455
1.1283538
1.1302374
1.1320915
1.1339112
1.1356923
1.1374308
1.1391232
1.1407665
1.142358
1.1438958
1.1453781
1.1468039
1.1481724
1.1494832
1.1507364
1.1519323
1.1530713
1.1541543
1.155182
1.1561555
1.1570757
1.1579438
1.1587606
1.1595269
1.1602437
1.1609116
1.1615309
1.1621022
1.1626253
1.1631003
1.1635268
1.1639044
1.1642328
1.1645125
1.1647454
1.164936
1.1650917
1.1652146
1.1652935
1.1653846
1.1654707
1.1647831
1.0454151
1.0800395
1.0660496
1.0758725
1.0713652
1.0757983
1.0746566
1.0770641
1.0773743
1.0789775
1.0799571
1.0813191
1.0825797
1.0839463
1.0853416
1.0867912
1.0882881
1.0898341
1.0914286
1.0930708
1.0947602
1.0964953
1.0982745
1.1000959
1.101957
1.1038549
1.1057863
1.1077475
1.1097342
1.1117418
1.1137655
1.1157999
1.1178394
1.1198783
1.1219106
1.1239304
1.1259319
1.1279091
1.1298565
1.1317687
1.133641
1.1354687
1.137248
1.1389752
1.1406475
1.1422626
1.1438186
1.1453143
1.146749
1.1481224
1.1494346
1.1506863
1.1518781
1.1530113
1.154087
1.1551067
1.1560717
1.1569836
1.1578439
1.1586538
1.1594148
1.1601279
1.1607941
1.1614141
1.1619885
1.1625177
1.1630017
1.1634404
1.1638336
1.1641807
1.1644816
1.1647365
1.1649473
1.1651185
1.1652559
1.1653601
1.1654312
1.1655107
1.1655189
1.1649478
1.0435246
1.0785181
1.0641827
1.0743089
1.0697113
1.0743545
1.0732032
1.0757744
1.0761746
1.077887
1.0789865
1.0804511
1.0818333
1.0833144
1.0848322
1.0864058
1.0880306
1.0897073
1.0914351
1.0932131
1.0950398
1.0969133
1.0988313
1.100791
1.102789
1.1048215
1.1068842
1.1089722
1.1110804
1.113203
1.1153341
1.1174674
1.1195964
1.1217144
1.1238149
1.1258914
1.1279375
1.1299471
1.1319148
1.1338353
1.1357039
1.1375168
1.1392704
1.1409622
1.14259
1.1441526
1.145649
1.1470791
1.1484433
1.1497422
1.1509771
1.1521495
1.1532609
1.1543134
1.1553089
1.1562495
1.1571371
1.1579736
1.158761
1.159501
1.1601951
1.1608445
1.1614505
1.1620138
1.162535
1.1630144
1.1634521
1.163848
1.1642017
1.1645127
1.1647808
1.1650061
1.1651905
1.1653381
1.1654526
1.165536
1.1655953
1.1656499
1.1655995
1.165128
1.0420452
1.0774028
1.062752
1.0732174
1.0685264
1.0733781
1.0722758
1.0749742
1.0754797
1.0772802
1.0785065
1.0800777
1.0815917
1.0832
1.0848545
1.0865679
1.0883368
1.090161
1.0920389
1.0939689
1.0959487
1.0979755
1.100046
1.1021561
1.1043016
1.1064772
1.1086776
1.1108965
1.1131276
1.1153638
1.1175982
1.1198232
1.1220315
1.1242158
1.1263688
1.1284837
1.1305539
1.1325735
1.1345371
1.13644
1.1382783
1.1400488
1.1417491
1.1433777
1.1449337
1.1464168
1.1478277
1.1491673
1.1504372
1.1516393
1.1527757
1.153849
1.1548617
1.1558165
1.1567161
1.157563
1.1583597
1.1591086
1.1598118
1.1604714
1.1610889
1.1616659
1.1622034
1.1627024
1.1631633
1.1635864
1.1639717
1.164319
1.164628
1.1648981
1.165129
1.1653206
1.165475
1.1655951
1.1656831
1.1657439
1.165788
1.1658089
1.1657095
1.1653321
1.0409156
1.0766353
1.0616955
1.0725444
1.0677569
1.072832
1.071757
1.0746535
1.0751881
1.0771039
1.0784909
1.0801951
1.0818676
1.0836292
1.0854446
1.0873218
1.0892577
1.0912513
1.0933004
1.0954021
1.0975533
1.0997499
1.1019875
1.1042605
1.1065633
1.1088893
1.1112314
1.1135821
1.1159335
1.1182774
1.1206054
1.1229092
1.1251806
1.1274115
1.1295946
1.1317227
1.1337897
1.1357901
1.137719
1.1395729
1.141349
1.1430452
1.1446606
1.1461951
1.1476494
1.1490247
1.150323
1.1515467
1.1526986
1.1537818
1.1547996
1.1557553
1.1566524
1.1574941
1.1582837
1.1590242
1.1597186
1.1603693
1.1609789
1.1615494
1.1620825
1.1625797
1.1630422
1.1634707
1.1638656
1.1642272
1.1645552
1.1648494
1.1651094
1.1653347
1.1655247
1.1656795
1.1658008
1.1658902
1.1659489
1.1659859
1.1660107
1.1659909
1.1658521
1.1655664
1.0401287
1.0762002
1.0609946
1.0723088
1.0673364
1.0725771
1.0715948
1.0745415
1.0753766
1.0774369
1.0790153
1.0808779
1.0827342
1.0846757
1.0866775
1.0887436
1.0908712
1.0930578
1.0953001
1.0975943
1.0999354
1.1023182
1.1047363
1.1071827
1.1096499
1.1121296
1.1146129
1.1170906
1.1195535
1.1219919
1.1243963
1.1267577
1.1290672
1.1313166
1.1334987
1.1356067
1.1376353
1.1395798
1.1414371
1.1432047
1.1448815
1.1464675
1.1479634
1.1493708
1.1506923
1.1519307
1.1530895
1.1541727
1.1551842
1.1561282
1.1570091
1.1578308
1.1585976
1.1593132
1.1599813
1.1606053
1.1611881
1.1617327
1.1622413
1.1627162
1.163159
1.1635712
1.1639538
1.1643073
1.1646322
1.1649283
1.1651955
1.1654333
1.1656413
1.1658189
1.1659654
1.1660811
1.1661671
1.1662234
1.166251
1.1662635
1.1662648
1.1661986
1.1660303
1.1658355
1.039718
1.0761319
1.0606872
1.0724274
1.0673171
1.0728772
1.0719861
1.075116
1.0761481
1.0783582
1.0801583
1.0822076
1.084275
1.0864256
1.0886417
1.0909244
1.0932698
1.0956741
1.0981326
1.1006394
1.1031881
1.1057712
1.1083803
1.1110064
1.1136397
1.1162699
1.1188863
1.121478
1.124034
1.1265438
1.1289969
1.131384
1.133696
1.1359253
1.1380652
1.1401104
1.1420568
1.1439017
1.1456436
1.1472826
1.1488196
1.1502566
1.1515967
1.1528436
1.1540015
1.1550751
1.1560695
1.1569897
1.1578411
1.1586286
1.1593573
1.1600319
1.160657
1.1612367
1.1617748
1.1622748
1.1627399
1.1631727
1.1635757
1.1639509
1.1642998
1.1646237
1.1649234
1.1651994
1.1654517
1.1656802
1.1658844
1.1660639
1.1662181
1.1663462
1.1664478
1.166523
1.1665724
1.166594
1.16659
1.1665779
1.1665515
1.1664355
1.1662483
1.1661428
1.0397537
1.0765037
1.0608285
1.0727704
1.0677959
1.073582
1.0729618
1.0762613
1.0775618
1.0799491
1.0820057
1.0842762
1.086586
1.0889778
1.0914389
1.0939674
1.0965583
1.0992056
1.1019025
1.1046409
1.1074119
1.1102054
1.1130104
1.1158154
1.118608
1.1213758
1.124106
1.1267863
1.1294045
1.1319492
1.13441
1.1367774
1.1390436
1.141202
1.1432478
1.1451778
1.1469901
1.1486849
1.1502633
1.1517281
1.1530827
1.154332
1.155481
1.1565356
1.1575018
1.158386
1.1591945
1.1599335
1.1606089
1.1612267
1.1617922
1.1623106
1.1627864
1.163224
1.1636271
1.1639992
1.1643433
1.1646619
1.1649573
1.1652311
1.1654847
1.1657193
1.1659352
1.1661328
1.1663119
1.1664721
1.1666127
1.1667333
1.1668331
1.1669113
1.1669675
1.167002
1.1670141
1.1670005
1.1669658
1.1669294
1.1668716
1.1667053
1.1665106
1.1664921
1.0403181
1.0773896
1.061519
1.0737576
1.0689557
1.0749961
1.0746221
1.0780989
1.0797157
1.0823085
1.084656
1.0871862
1.0897729
1.0924415
1.0951813
1.0979876
1.1008528
1.1037684
1.1067246
1.10971
1.1127126
1.115719
1.1187153
1.1216867
1.1246187
1.1274965
1.1303057
1.1330328
1.1356652
1.1381915
1.1406023
1.1428895
1.1450474
1.147072
1.1489615
1.1507157
1.1523364
1.153827
1.155192
1.1564371
1.1575687
1.158594
1.1595205
1.1603556
1.1611072
1.1617827
1.1623894
1.1629341
1.1634233
1.1638633
1.1642594
1.1646169
1.1649402
1.1652336
1.1655005
1.1657442
1.1659673
1.166172
1.1663603
1.1665337
1.1666931
1.1668393
1.1669725
1.1670927
1.1671995
1.1672923
1.1673702
1.1674327
1.1674788
1.1675078
1.1675194
1.1675137
1.1674888
1.1674407
1.1673776
1.1673175
1.1672248
1.167011
1.1668223
1.1668867
1.0414051
1.078794
1.0627552
1.0754153
1.0707762
1.0770578
1.077027
1.0806987
1.0826927
1.085534
1.0882136
1.0910501
1.0939557
1.0969424
1.0999991
1.1031172
1.106286
1.1094927
1.1127237
1.1159636
1.1191963
1.1224049
1.1255719
1.12868
1.131712
1.1346515
1.1374834
1.1401939
1.1427713
1.1452062
1.1474913
1.1496221
1.1515963
1.1534143
1.1550782
1.1565923
1.1579625
1.1591959
1.1603004
1.1612848
1.1621583
1.1629301
1.1636095
1.1642054
1.1647265
1.165181
1.1655767
1.1659207
1.1662195
1.1664792
1.166705
1.1669019
1.167074
1.167225
1.1673581
1.1674761
1.1675813
1.1676754
1.1677599
1.1678359
1.1679042
1.167965
1.1680184
1.168064
1.168101
1.1681287
1.1681463
1.1681527
1.1681471
1.1681287
1.1680974
1.1680531
1.1679922
1.1679119
1.1678235
1.1677406
1.16761
1.1673545
1.1671859
1.1673277
1.0430693
1.0807692
1.064599
1.0777075
1.0733442
1.0798816
1.0802815
1.084173
1.086607
1.0897526
1.0928129
1.0960106
1.0992844
1.1026352
1.1060489
1.1095117
1.1130079
1.1165199
1.1200289
1.123515
1.1269577
1.1303361
1.1336296
1.1368183
1.1398837
1.142809
1.1455799
1.1481848
1.1506151
1.1528654
1.1549332
1.1568193
1.1585267
1.1600611
1.1614299
1.1626421
1.1637077
1.1646376
1.1654429
1.1661348
1.1667246
1.167223
1.1676403
1.1679862
1.1682698
1.1684993
1.1686825
1.1688262
1.1689366
1.1690193
1.1690791
1.1691202
1.1691464
1.1691608
1.1691659
1.1691641
1.1691571
1.1691461
1.1691323
1.1691163
1.1690984
1.1690787
1.1690566
1.1690317
1.1690029
1.1689693
1.1689299
1.1688836
1.1688293
1.1687664
1.1686951
1.1686143
1.1685195
1.1684102
1.1683008
1.1681955
1.1680258
1.1677391
1.1676042
1.1678099
1.0453708
1.0833741
1.0671613
1.0807609
1.0767617
1.0835646
1.0845018
1.0886561
1.0916018
1.0951268
1.0986291
1.1022516
1.1059478
1.1097084
1.1135139
1.1173444
1.1211778
1.1249908
1.1287588
1.1324567
1.1360593
1.1395424
1.142883
1.1460606
1.1490574
1.1518593
1.1544559
1.1568409
1.159012
1.1609703
1.1627206
1.1642701
1.1656287
1.1668077
1.1678199
1.1686786
1.1693975
1.1699904
1.1704707
1.1708513
1.1711443
1.1713611
1.1715124
1.1716077
1.1716558
1.1716645
1.1716411
1.1715916
1.1715215
1.1714357
1.1713382
1.1712326
1.1711219
1.1710084
1.1708943
1.170781
1.1706698
1.1705615
1.1704566
1.1703555
1.170258
1.1701637
1.170072
1.1699819
1.1698925
1.1698024
1.1697106
1.1696157
1.1695167
1.1694132
1.1693053
1.1691908
1.1690652
1.1689311
1.168805
1.1686777
1.1684693
1.1681663
1.1680783
1.1683253
1.0483674
1.0866407
1.0705697
1.0846478
1.0811504
1.0882457
1.0898539
1.0943464
1.0978876
1.101882
1.1058939
1.1100036
1.1141704
1.118375
1.1225911
1.1267911
1.1309455
1.1350237
1.1389947
1.1428284
1.1464961
1.1499721
1.1532345
1.1562658
1.1590538
1.1615912
1.1638757
1.1659101
1.1677008
1.169258
1.1705944
1.1717247
1.1726651
1.1734322
1.174043
1.1745141
1.1748617
1.175101
1.1752466
1.1753116
1.1753084
1.1752478
1.17514
1.1749938
1.1748171
1.1746168
1.1743991
1.1741692
1.1739315
1.17369
1.1734478
1.1732077
1.1729717
1.1727417
1.172519
1.1723045
1.1720988
1.1719023
1.1717151
1.1715369
1.1713673
1.1712057
1.171051
1.1709022
1.170758
1.1706171
1.1704781
1.1703397
1.1702008
1.1700613
1.1699207
1.1697759
1.1696232
1.1694694
1.1693303
1.1691816
1.1689365
1.1686323
1.1686042
1.1688658
1.0521301
1.0905782
1.0749509
1.0895204
1.086717
1.0941707
1.0966004
1.1015261
1.1057441
1.1102957
1.1148781
1.1195248
1.1241937
1.1288546
1.1334712
1.1380059
1.1424199
1.1466749
1.1507349
1.1545672
1.1581444
1.1614449
1.1644541
1.167164
1.1695731
1.171686
1.1735125
1.1750664
1.1763646
1.1774263
1.1782719
1.1789224
1.1793986
1.1797209
1.1799086
1.17998
1.1799518
1.1798395
1.1796571
1.1794172
1.179131
1.1788084
1.1784581
1.1780878
1.177704
1.1773125
1.176918
1.1765246
1.1761359
1.1757545
1.1753827
1.1750224
1.174675
1.1743413
1.1740221
1.1737178
1.1734284
1.1731538
1.1728935
1.1726472
1.1724139
1.1721926
1.1719823
1.1717816
1.1715892
1.1714036
1.1712232
1.1710468
1.1708733
1.1707026
1.1705337
1.1703626
1.1701874
1.1700186
1.1698693
1.1697005
1.169425
1.1691296
1.1691687
1.1694268
1.0568503
1.0953357
1.0805401
1.0957071
1.0937945
1.1016697
1.1050643
1.1105194
1.1154831
1.1206713
1.1258744
1.1310889
1.1362632
1.1413514
1.1463038
1.1510712
1.1556069
1.1598692
1.1638231
1.1674422
1.1707088
1.1736147
1.17616
1.1783528
1.1802071
1.1817423
1.1829811
1.1839485
1.1846706
1.1851737
1.1854837
1.1856252
1.1856214
1.1854938
1.1852621
1.1849439
1.1845552
1.1841102
1.1836213
1.1830995
1.1825541
1.1819936
1.1814248
1.1808538
1.1802857
1.1797247
1.1791742
1.1786373
1.1781161
1.1776125
1.1771277
1.1766628
1.1762184
1.1757947
1.1753919
1.1750097
1.1746477
1.1743053
1.1739819
1.1736764
1.173388
1.1731152
1.1728568
1.1726113
1.1723774
1.1721534
1.1719377
1.171729
1.1715265
1.1713297
1.1711368
1.1709438
1.170751
1.1705719
1.1704137
1.1702269
1.169933
1.1696541
1.1697532
1.1700076
1.0628097
1.10149
1.0877322
1.1035449
1.1027288
1.111067
1.115576
1.1216806
1.1274608
1.1333574
1.1392093
1.1449779
1.1505935
1.1559924
1.161113
1.1659009
1.1703113
1.1743111
1.17788
1.1810098
1.1837039
1.1859754
1.1878455
1.189341
1.1904924
1.1913328
1.1918956
1.192214
1.1923197
1.1922427
1.1920106
1.1916487
1.1911796
1.1906237
1.1899988
1.1893206
1.1886029
1.1878575
1.1870945
1.1863226
1.1855492
1.1847805
1.1840216
1.1832769
1.1825499
1.1818432
1.1811593
1.1804996
1.1798655
1.1792578
1.178677
1.1781232
1.1775965
1.1770964
1.1766226
1.1761743
1.1757508
1.175351
1.1749739
1.1746185
1.1742832
1.1739668
1.1736677
1.1733846
1.1731158
1.1728596
1.1726146
1.1723794
1.1721533
1.1719354
1.1717231
1.1715126
1.1713075
1.171122
1.1709558
1.1707521
1.1704516
1.1702043
1.1703524
1.1705948
1.0701947
1.109576
1.0967296
1.1132646
1.113892
1.122783
1.1285758
1.1354818
1.1421358
1.1487598
1.1552033
1.1613932
1.1672442
1.1726844
1.1776557
1.1821168
1.1860442
1.1894316
1.1922878
1.1946344
1.1965024
1.1979296
1.1989574
1.1996294
1.1999885
1.2000765
1.1999325
1.1995926
1.1990896
1.1984529
1.1977086
1.1968795
1.1959855
1.1950438
1.1940692
1.1930743
1.1920698
1.1910646
1.1900663
1.1890812
1.1881143
1.1871698
1.186251
1.1853607
1.1845007
1.1836726
1.1828774
1.1821156
1.1813877
1.1806936
1.180033
1.1794055
1.1788104
1.178247
1.1777143
1.1772111
1.1767365
1.176289
1.1758675
1.1754704
1.1750964
1.1747439
1.1744112
1.174097
1.1737996
1.1735172
1.1732485
1.1729921
1.1727475
1.1725132
1.1722857
1.1720627
1.1718503
1.1716617
1.171488
1.1712693
1.1709708
1.1707681
1.1709595
1.1711671
1.0791405
1.1194624
1.1081407
1.125413
1.1279297
1.1375106
1.1447118
1.1525193
1.1599931
1.1671958
1.1739743
1.1802387
1.1859108
1.1909392
1.1952979
1.1989845
1.2020175
1.2044312
1.2062716
1.207592
1.208449
1.2089
1.2090004
1.2088026
1.2083545
1.2076996
1.2068765
1.2059191
1.2048569
1.2037155
1.2025165
1.2012785
1.2000171
1.1987454
1.1974744
1.1962131
1.194969
1.1937482
1.1925555
1.1913949
1.1902694
1.1891812
1.1881321
1.1871232
1.1861552
1.1852285
1.184343
1.1834985
1.1826945
1.1819303
1.1812051
1.1805177
1.1798672
1.1792522
1.1786716
1.1781238
1.1776076
1.1771213
1.1766635
1.1762327
1.1758271
1.1754453
1.1750855
1.1747463
1.1744259
1.1741227
1.1738352
1.1735626
1.1733039
1.1730571
1.1728186
1.1725877
1.1723724
1.1721829
1.1720021
1.1717722
1.1714844
1.1713295
1.1715498
1.1717116
1.0903937
1.1320644
1.1228711
1.1409404
1.1457944
1.1561459
1.1646839
1.1732676
1.181237
1.1885674
1.1951335
1.2008742
1.205761
1.2098005
1.2130265
1.2154939
1.2172709
1.218433
1.2190578
1.2192211
1.2189944
1.2184432
1.2176263
1.2165954
1.2153955
1.2140653
1.2126378
1.2111409
1.2095979
1.2080282
1.2064481
1.2048708
1.2033072
1.2017662
1.2002548
1.1987787
1.1973423
1.195949
1.1946014
1.1933013
1.1920499
1.1908479
1.1896956
1.188593
1.1875396
1.1865349
1.185578
1.1846679
1.1838036
1.1829838
1.1822072
1.1814722
1.1807775
1.1801215
1.1795026
1.1789192
1.1783697
1.1778524
1.1773657
1.1769079
1.1764772
1.176072
1.1756907
1.1753317
1.1749933
1.1746738
1.1743721
1.1740872
1.173818
1.1735619
1.1733161
1.1730815
1.1728668
1.1726776
1.1724902
1.1722543
1.1719853
1.1718734
1.1721004
1.1722147
1.1055245
1.1484825
1.1421985
1.160917
1.168452
1.1794564
1.1888443
1.19763
1.2053644
1.2120249
1.2175761
1.2220421
1.2254824
1.2279839
1.2296482
1.2305833
1.2308958
1.2306868
1.2300481
1.2290616
1.2277986
1.2263204
1.2246786
1.2229169
1.2210713
1.2191716
1.2172422
1.2153032
1.2133707
1.2114576
1.2095743
1.2077291
1.2059282
1.2041768
1.2024784
1.2008357
1.1992506
1.1977242
1.1962572
1.1948496
1.1935013
1.1922117
1.1909799
1.189805
1.1886857
1.1876207
1.1866085
1.1856477
1.1847365
1.1838734
1.1830567
1.1822845
1.1815552
1.1808669
1.180218
1.1796066
1.1790309
1.1784891
1.1779796
1.1775005
1.1770501
1.1766267
1.1762286
1.1758542
1.1755018
1.17517
1.1748575
1.1745635
1.1742864
1.1740238
1.1737734
1.1735382
1.1733262
1.1731376
1.1729451
1.1727091
1.1724642
1.1723878
1.1726046
1.1726825
1.1260123
1.1700148
1.1675517
1.1863585
1.1962762
1.2073933
1.2166
1.2244937
1.2309085
1.235911
1.2395974
1.242106
1.2435902
1.2442058
1.2441012
1.243411
1.242254
1.2407319
1.2389307
1.2369217
1.2347636
1.2325041
1.2301818
1.2278278
1.2254668
1.2231184
1.220798
1.2185177
1.2162867
1.2141122
1.2119994
1.2099522
1.2079732
1.2060641
1.2042258
1.2024588
1.2007627
1.199137
1.1975808
1.196093
1.1946723
1.193317
1.1920256
1.1907962
1.1896272
1.1885166
1.1874625
1.1864629
1.185516
1.1846197
1.1837722
1.1829713
1.1822152
1.181502
1.1808297
1.1801964
1.1796003
1.1790395
1.1785122
1.1780165
1.1775508
1.1771132
1.1767021
1.1763159
1.1759528
1.1756116
1.1752911
1.1749903
1.1747074
1.1744401
1.1741874
1.1739533
1.1737443
1.1735561
1.1733609
1.1731314
1.1729151
1.1728665
1.1730569
1.1730847
1.1544758
1.1974563
1.2000223
1.2181551
1.2284373
1.2383306
1.2459484
1.2516878
1.2556778
1.2581577
1.2593645
1.2595305
1.2588648
1.2575492
1.2557368
1.2535534
1.2511013
1.2484622
1.2457009
1.2428682
1.240004
1.237139
1.2342972
1.2314965
1.2287509
1.2260704
1.2234627
1.2209331
1.2184853
1.2161214
1.2138429
1.2116501
1.2095429
1.2075204
1.2055815
1.2037249
1.2019488
1.2002514
1.1986308
1.1970847
1.1956112
1.194208
1.1928728
1.1916034
1.1903976
1.1892531
1.1881676
1.1871391
1.1861651
1.1852437
1.1843727
1.1835499
1.1827732
1.1820407
1.1813503
1.1807001
1.1800881
1.1795125
1.1789713
1.1784627
1.177985
1.1775364
1.1771152
1.1767198
1.1763485
1.1760002
1.1756736
1.1753676
1.1750803
1.1748097
1.1745559
1.1743234
1.1741165
1.1739277
1.1737324
1.1735155
1.1733286
1.1732969
1.1734519
1.1734526
1.1934755
1.2326122
1.2383988
1.2537509
1.2629034
1.2698277
1.2742179
1.276623
1.2774051
1.2769305
1.2754996
1.2733605
1.2707105
1.267704
1.2644599
1.2610693
1.2576009
1.2541065
1.2506248
1.2471844
1.2438062
1.2405056
1.2372932
1.2341764
1.23116
1.2282469
1.2254386
1.2227353
1.2201365
1.2176409
1.2152471
1.2129528
1.210756
1.208654
1.2066445
1.2047246
1.2028918
1.2011433
1.1994764
1.1978883
1.1963764
1.194938
1.1935705
1.1922713
1.1910379
1.1898678
1.1887585
1.1877076
1.1867128
1.1857717
1.1848822
1.1840421
1.1832491
1.1825012
1.1817962
1.1811323
1.1805074
1.1799197
1.1793672
1.1788481
1.1783605
1.1779029
1.1774734
1.1770704
1.1766924
1.1763382
1.1760066
1.1756962
1.1754052
1.1751321
1.1748779
1.1746463
1.1744395
1.174249
1.1740551
1.1738528
1.1736929
1.1736714
1.1737907
1.1737682
1.241192
1.273813
1.2809902
1.2908094
1.2957213
1.2980601
1.298217
1.2968427
1.294372
1.2911509
1.2874327
1.2834038
1.2791987
1.2749144
1.2706198
1.2663638
1.2621804
1.2580932
1.2541178
1.2502647
1.2465398
1.2429464
1.2394858
1.2361574
1.2329598
1.2298908
1.2269475
1.224127
1.2214257
1.2188402
1.2163669
1.2140022
1.2117425
1.2095843
1.2075241
1.2055583
1.2036838
1.2018972
1.2001953
1.198575
1.1970333
1.1955672
1.1941738
1.1928505
1.1915944
1.190403
1.1892736
1.1882037
1.1871909
1.1862329
1.1853272
1.1844718
1.1836642
1.1829025
1.1821846
1.1815083
1.1808717
1.1802729
1.17971
1.1791812
1.1786846
1.1782186
1.1777813
1.1773713
1.1769871
1.1766273
1.1762909
1.1759763
1.1756819
1.1754068
1.175152
1.1749205
1.1747124
1.17452
1.1743298
1.1741436
1.1740045
1.1739787
1.174055
1.1740283
1.2953935
1.3161041
1.3206702
1.3230422
1.3222458
1.3195899
1.3156903
1.3110377
1.305954
1.3006572
1.2952916
1.2899523
1.284701
1.2795773
1.2746055
1.2697997
1.2651674
1.2607111
1.2564306
1.2523235
1.2483859
1.2446133
1.2410006
1.2375426
1.2342336
1.2310684
1.2280415
1.2251478
1.2223821
1.2197395
1.2172153
1.2148049
1.212504
1.2103084
1.2082139
1.2062168
1.2043134
1.2024999
1.200773
1.1991293
1.1975656
1.1960788
1.1946659
1.1933241
1.1920504
1.1908423
1.1896969
1.1886119
1.1875846
1.1866127
1.1856939
1.1848258
1.1840063
1.1832332
1.1825043
1.1818177
1.1811713
1.1805632
1.1799916
1.1794545
1.1789502
1.178477
1.1780332
1.1776172
1.1772276
1.176863
1.1765223
1.176204
1.1759067
1.1756298
1.1753745
1.1751422
1.1749324
1.1747387
1.1745535
1.1743822
1.174257
1.1742201
1.174258
1.1742387
1.3483815
1.3516965
1.3504752
1.3460042
1.3401596
1.3335686
1.3266964
1.3197854
1.3129819
1.3063656
1.2999793
1.2938434
1.2879649
1.282343
1.2769721
1.2718442
1.2669498
1.262279
1.2578214
1.2535673
1.2495068
1.2456309
1.2419309
1.2383984
1.2350257
1.2318055
1.2287309
1.2257955
1.2229931
1.2203182
1.2177651
1.2153289
1.2130046
1.2107878
1.2086739
1.206659
1.204739
1.2029101
1.2011689
1.1995116
1.1979352
1.1964363
1.195012
1.1936591
1.192375
1.1911567
1.1900017
1.1889074
1.1878712
1.1868907
1.1859636
1.1850875
1.1842603
1.1834798
1.1827438
1.1820504
1.1813974
1.1807831
1.1802054
1.1796626
1.1791528
1.1786745
1.1782259
1.1778055
1.1774119
1.1770438
1.1766996
1.1763781
1.176078
1.1757992
1.1755423
1.1753083
1.1750959
1.1749009
1.1747198
1.1745591
1.1744413
1.1743916
1.174399
1.1743857
1.3824991
1.3749094
1.3673603
1.3590797
1.3504754
1.3419626
1.3337077
1.3257856
1.3182248
1.3110286
1.3041887
1.2976903
1.2915164
1.2856489
1.2800703
1.2747634
1.2697123
1.2649022
1.2603192
1.2559506
1.2517847
1.2478106
1.2440183
1.2403986
1.236943
1.2336436
1.2304931
1.2274845
1.2246116
1.2218684
1.2192493
1.216749
1.2143626
1.2120853
1.2099129
1.207841
1.2058658
1.2039833
1.2021899
1.2004822
1.1988568
1.1973105
1.1958402
1.194443
1.193116
1.1918564
1.1906616
1.1895289
1.1884558
1.1874399
1.1864788
1.1855702
1.1847119
1.1839017
1.1831375
1.1824172
1.1817387
1.1811002
1.1804997
1.1799353
1.1794053
1.178908
1.1784418
1.1780052
1.1775967
1.1772149
1.1768582
1.1765252
1.1762147
1.1759267
1.1756617
1.1754203
1.1752011
1.1750009
1.1748183
1.1746604
1.1745439
1.1744847
1.1744744
1.1744653
1.1638227
1.1683223
1.1829182
1.1948169
1.2003327
1.2016061
1.2016811
1.2013531
1.201389
1.2010984
1.2008395
1.2002891
1.1996948
1.19905
1.1983601
1.1976293
1.1968622
1.1960646
1.1952414
1.1943967
1.1935347
1.1926586
1.1917719
1.1908775
1.1899779
1.1890756
1.1881728
1.1872715
1.1863736
1.1854806
1.1845944
1.1837164
1.1828479
1.1819904
1.1811453
1.1803136
1.1794967
1.1786958
1.1779121
1.1771466
1.1764006
1.1756752
1.1749714
1.1742905
1.1736335
1.1730015
1.1723955
1.1718165
1.1712654
1.1707432
1.1702507
1.1697885
1.1693573
1.1689576
1.1685896
1.1682537
1.1679499
1.1676779
1.1674376
1.1672285
1.1670494
1.1668993
1.1667769
1.1666801
1.1666067
1.1665531
1.1665172
1.1664903
1.1664792
1.166454
1.1664628
1.1663918
1.1664399
1.1662281
1.1663869
1.1658579
1.1662724
1.1652586
1.1660917
1.1644957
1.1594989
1.1704188
1.1867488
1.1950988
1.1973678
1.1972769
1.1967453
1.1964947
1.1961747
1.19587
1.1954743
1.1950751
1.1946288
1.1941459
1.1936237
1.1930696
1.1924843
1.1918708
1.1912314
1.1905683
1.1898841
1.1891809
1.1884609
1.1877266
1.18698
1.1862233
1.1854587
1.1846882
1.1839138
1.1831375
1.1823613
1.181587
1.1808163
1.1800511
1.179293
1.1785438
1.177805
1.1770781
1.1763648
1.1756666
1.1749848
1.174321
1.1736766
1.1730529
1.1724512
1.1718729
1.1713191
1.170791
1.1702896
1.1698161
1.1693713
1.1689559
1.1685706
1.168216
1.1678923
1.1675998
1.1673384
1.167108
1.1669083
1.1667385
1.1665977
1.1664845
1.1663974
1.1663345
1.1662932
1.1662698
1.1662621
1.1662617
1.1662741
1.1662726
1.1662989
1.1662512
1.1663074
1.1661203
1.1662763
1.1657797
1.166191
1.1651967
1.1660704
1.1644224
1.1600218
1.1734903
1.1852194
1.1916196
1.192589
1.1921066
1.1915949
1.1913314
1.1910342
1.1907484
1.1904125
1.1900738
1.1896995
1.1893127
1.1888987
1.1884648
1.1880079
1.1875298
1.1870309
1.1865119
1.1859737
1.1854174
1.1848442
1.1842554
1.1836522
1.1830363
1.1824091
1.1817722
1.1811272
1.180476
1.1798201
1.1791614
1.1785017
1.1778427
1.1771862
1.1765341
1.1758882
1.1752501
1.1746217
1.1740047
1.1734008
1.1728117
1.172239
1.1716843
1.1711492
1.1706351
1.1701435
1.1696757
1.1692329
1.1688162
1.1684267
1.1680652
1.1677324
1.167429
1.1671551
1.1669111
1.166697
1.1665124
1.166357
1.1662301
1.1661306
1.166057
1.1660078
1.1659808
1.1659734
1.1659818
1.1660035
1.1660307
1.1660677
1.1660904
1.1661355
1.1661104
1.166177
1.1660121
1.1661692
1.1657008
1.166112
1.1651365
1.1660439
1.1643589
1.1577055
1.1721185
1.1828422
1.1875694
1.1873935
1.1870057
1.186559
1.1863585
1.1860387
1.1857853
1.1854701
1.1851847
1.1848671
1.1845532
1.1842187
1.1838755
1.1835169
1.1831454
1.1827594
1.1823588
1.1819435
1.1815136
1.1810692
1.1806106
1.1801385
1.1796535
1.1791564
1.1786482
1.1781302
1.1776034
1.1770692
1.1765293
1.1759849
1.1754379
1.1748898
1.1743424
1.1737975
1.1732569
1.1727223
1.1721957
1.1716788
1.1711735
1.1706815
1.1702047
1.1697447
1.1693032
1.1688817
1.1684818
1.1681047
1.1677518
1.1674241
1.1671226
1.166848
1.166601
1.166382
1.166191
1.1660282
1.1658932
1.1657857
1.1657048
1.1656493
1.1656178
1.1656086
1.1656194
1.1656474
1.1656889
1.1657411
1.1657969
1.1658593
1.1659065
1.1659714
1.1659685
1.1660472
1.1659029
1.1660642
1.1656212
1.1660352
1.1650775
1.1660151
1.1643005
1.1520023
1.1684723
1.1783756
1.1819302
1.1813767
1.1812941
1.1809306
1.1808706
1.1806263
1.180492
1.1802685
1.1800928
1.1798735
1.1796675
1.1794389
1.1792056
1.1789576
1.178699
1.1784277
1.1781434
1.1778462
1.1775356
1.1772118
1.1768748
1.1765249
1.1761623
1.1757877
1.1754015
1.1750046
1.1745979
1.1741824
1.1737592
1.1733296
1.1728949
1.1724567
1.1720165
1.1715759
1.1711367
1.1707006
1.1702695
1.1698453
1.1694296
1.1690246
1.1686319
1.1682533
1.1678907
1.1675456
1.1672196
1.1669143
1.1666308
1.1663705
1.1661342
1.1659229
1.1657371
1.1655772
1.1654434
1.1653357
1.1652539
1.1651973
1.1651652
1.1651563
1.1651692
1.1652019
1.1652521
1.165317
1.1653928
1.1654766
1.1655616
1.1656502
1.1657223
1.1658076
1.1658266
1.1659185
1.1657943
1.1659612
1.1655419
1.1659605
1.1650204
1.165985
1.1642469
1.1459337
1.1648783
1.1733993
1.1763169
1.1756094
1.175786
1.1754672
1.1755467
1.1753679
1.1753469
1.1752054
1.1751325
1.1750035
1.1748965
1.1747637
1.1746295
1.1744801
1.1743218
1.174152
1.1739709
1.1737785
1.1735744
1.1733585
1.1731308
1.1728913
1.1726402
1.1723776
1.172104
1.1718197
1.1715254
1.1712219
1.1709099
1.1705905
1.1702647
1.1699339
1.1695994
1.1692627
1.1689253
1.1685889
1.1682552
1.1679261
1.1676033
1.1672886
1.1669839
1.166691
1.1664117
1.1661475
1.1659002
1.1656712
1.1654619
1.1652735
1.1651069
1.164963
1.1648424
1.1647455
1.1646725
1.1646233
1.1645976
1.1645948
1.164614
1.164654
1.1647131
1.1647894
1.1648805
1.1649835
1.1650946
1.1652107
1.1653257
1.165441
1.1655384
1.1656445
1.165685
1.1657912
1.165687
1.1658602
1.1654638
1.1658877
1.1649654
1.1659543
1.1641985
1.1406654
1.1614591
1.1684831
1.1711028
1.1702929
1.1706738
1.1703626
1.1705538
1.1704143
1.1704824
1.1704038
1.1704186
1.1703648
1.1703362
1.1702774
1.1702228
1.1701546
1.1700806
1.1699972
1.1699049
1.1698034
1.169692
1.1695707
1.1694392
1.1692975
1.1691455
1.1689832
1.1688109
1.1686287
1.1684371
1.1682366
1.1680277
1.1678114
1.1675884
1.1673599
1.167127
1.1668909
1.166653
1.166415
1.1661782
1.1659444
1.1657153
1.1654925
1.1652779
1.1650731
1.1648799
1.1646999
1.1645346
1.1643855
1.1642538
1.1641409
1.1640475
1.1639746
1.1639226
1.163892
1.1638828
1.1638949
1.1639279
1.1639813
1.1640541
1.1641448
1.1642519
1.1643732
1.1645064
1.1646485
1.1647957
1.1649449
1.1650903
1.1652327
1.1653557
1.1654826
1.1655447
1.1656655
1.1655817
1.1657613
1.1653873
1.165817
1.1649128
1.1659225
1.1641558
1.1357643
1.1583964
1.1638778
1.1663811
1.165464
1.1660094