/*--------------------------------*- C++ -*----------------------------------*\
  =========                 |
  \\      /  F ield         | OpenFOAM: The Open Source CFD Toolbox
   \\    /   O peration     | Website:  https://openfoam.org
    \\  /    A nd           | Version:  12
     \\/     M anipulation  |
\*---------------------------------------------------------------------------*/
FoamFile
{
    format      ascii;
    class       volScalarField;
    location    "0.106";
    object      T;
}
// * * * * * * * * * * * * * * * * * * * * * * * * * * * * * * * * * * * * * //

dimensions      [0 0 0 1 0 0 0];

internalField   nonuniform List<scalar> 
16000
(
294.4402
285.95483
289.22881
287.44801
288.5579
288.04868
288.47123
288.35985
288.5569
288.59069
288.71167
288.79649
288.9019
289.00471
289.11349
289.22561
289.34184
289.46208
289.58638
289.71476
289.84722
289.98376
290.12434
290.26892
290.41741
290.56971
290.7257
290.88521
291.04808
291.21407
291.38295
291.55445
291.72826
291.90404
292.08146
292.26012
292.43962
292.61956
292.7995
292.979
293.15763
293.33494
293.51052
293.68393
293.85478
294.02269
294.18731
294.34833
294.50546
294.65844
294.80706
294.95117
295.09062
295.22535
295.35532
295.48053
295.60104
295.71697
295.82844
295.93569
296.03897
296.13862
296.23498
296.32849
296.41964
296.50897
296.59709
296.6847
296.77258
296.86154
296.95235
297.04553
297.14117
297.23885
297.33777
297.43692
297.54112
297.62072
297.78346
297.81447
294.13066
285.54685
288.98727
287.08851
288.2658
287.71964
288.1774
288.05664
288.26812
288.30745
288.4354
288.52916
288.64175
288.75342
288.87064
288.99177
289.1172
289.24694
289.38099
289.51938
289.66207
289.80905
289.96024
290.11556
290.27491
290.43814
290.60507
290.77552
290.94924
291.12596
291.3054
291.48721
291.67105
291.85653
292.04323
292.23072
292.41856
292.60629
292.79343
292.97952
293.1641
293.3467
293.52689
293.70426
293.87841
294.04899
294.21566
294.37816
294.53622
294.68964
294.83827
294.98199
295.12073
295.25446
295.38321
295.50702
295.62603
295.74036
295.85022
295.95584
296.05753
296.15563
296.25053
296.34266
296.43252
296.52066
296.60771
296.69434
296.78131
296.86944
296.95946
297.05188
297.14679
297.2437
297.34187
297.44101
297.53955
297.63434
297.76708
297.83658
293.83561
285.16725
288.70373
286.77294
287.99015
287.43392
287.90544
287.79241
288.00882
288.05998
288.19347
288.29781
288.41853
288.53998
288.66681
288.79801
288.93379
289.07417
289.21912
289.36865
289.52269
289.6812
289.84406
290.01116
290.18233
290.35739
290.53611
290.71824
290.90348
291.0915
291.28195
291.47443
291.6685
291.86373
292.05964
292.25574
292.45153
292.6465
292.84014
293.03195
293.22146
293.40819
293.59172
293.77163
293.94755
294.11918
294.28621
294.44841
294.6056
294.75763
294.9044
295.04588
295.18205
295.31295
295.43868
295.55935
295.67514
295.78624
295.89289
295.99538
296.09404
296.18924
296.28139
296.37094
296.45839
296.54431
296.62931
296.71406
296.7993
296.88579
296.97424
297.06513
297.1585
297.25387
297.35053
297.44775
297.54388
297.64356
297.76158
297.84957
293.56486
284.82021
288.47666
286.49464
287.74829
287.18203
287.66756
287.56391
287.78576
287.85031
287.99035
288.10651
288.23669
288.36912
288.50685
288.64936
288.7967
288.94889
289.10589
289.26766
289.43411
289.60514
289.78061
289.96034
290.14413
290.33173
290.52284
290.71716
290.91431
291.11388
291.31545
291.51854
291.72264
291.92725
292.13181
292.33579
292.53861
292.73974
292.93863
293.13478
293.32767
293.51687
293.70195
293.88253
294.0583
294.22898
294.39434
294.55423
294.70852
294.85715
295.0001
295.1374
295.26914
295.39542
295.51641
295.63228
295.74328
295.84966
295.95169
296.04971
296.14408
296.23519
296.32347
296.40938
296.49345
296.57623
296.65832
296.74038
296.82311
296.90724
296.99342
297.0821
297.1733
297.26658
297.36114
297.45589
297.55034
297.6504
297.75933
297.86053
293.3184
284.50961
288.26568
286.26258
287.55186
286.97233
287.4681
287.37849
287.60429
287.68491
287.83228
287.96159
288.10261
288.24717
288.39703
288.552
288.71206
288.8772
289.04735
289.22244
289.40235
289.58692
289.77596
289.96925
290.16649
290.36737
290.57151
290.77852
290.98792
291.19924
291.41193
291.62545
291.83921
292.0526
292.26502
292.47586
292.68451
292.8904
293.09297
293.29169
293.4861
293.67575
293.86028
294.03936
294.21274
294.38022
294.54166
294.69698
294.84616
294.98923
295.12626
295.25737
295.38273
295.50253
295.617
295.72641
295.83104
295.93119
296.0272
296.11943
296.20826
296.29412
296.37745
296.45872
296.53845
296.6172
296.69556
296.77414
296.85362
296.93467
297.01789
297.1037
297.19209
297.28264
297.37443
297.46629
297.55876
297.65713
297.76048
297.86924
293.10016
284.24259
288.08715
286.06975
287.38077
286.81136
287.31768
287.24251
287.47164
287.5696
287.72517
287.86842
288.02143
288.17904
288.34212
288.51065
288.68457
288.86383
289.04833
289.23795
289.4325
289.63177
289.83548
290.04332
290.2549
290.4698
290.68756
290.90766
291.12953
291.35256
291.57613
291.79958
292.02224
292.24342
292.46246
292.67869
292.89148
293.10024
293.30441
293.50349
293.69706
293.88473
294.0662
294.24124
294.40969
294.57144
294.72647
294.8748
295.01653
295.15179
295.28074
295.40363
295.52068
295.63219
295.73846
295.83981
295.93658
296.02913
296.11784
296.20308
296.28526
296.36484
296.44224
296.51796
296.59251
296.66644
296.74031
296.81472
296.89028
296.9676
297.04723
297.12954
297.21454
297.30179
297.39025
297.47885
297.56879
297.66426
297.76327
297.87732
292.91316
284.02111
287.94297
285.91396
287.24743
286.70088
287.20486
287.159
287.38741
287.5062
287.67099
287.82896
287.99537
288.16734
288.34514
288.52879
288.71818
288.91321
289.11369
289.31942
289.53014
289.74552
289.96518
290.1887
290.41556
290.64523
290.87709
291.11052
291.3448
291.57922
291.81304
292.04549
292.27582
292.50327
292.72714
292.94672
293.16139
293.37056
293.57371
293.77042
293.96032
294.14314
294.31866
294.48679
294.64748
294.80075
294.94672
295.08553
295.21739
295.34256
295.46131
295.57397
295.68088
295.78238
295.87886
295.97069
296.05826
296.14198
296.22223
296.29942
296.37399
296.44637
296.51701
296.5864
296.65504
296.72346
296.7922
296.86181
296.93284
297.00586
297.08134
297.15959
297.24065
297.32404
297.40867
297.49369
297.58059
297.67228
297.76748
297.88512
292.75536
283.84312
287.82956
285.79399
287.14346
286.62437
287.13149
287.09488
287.35326
287.4932
287.66979
287.84436
288.02664
288.21523
288.41007
288.61113
288.81822
289.03116
289.24966
289.47344
289.70207
289.93514
290.1721
290.4124
290.65537
290.90032
291.14649
291.3931
291.6393
291.88425
292.12709
292.36697
292.60306
292.83457
293.06076
293.28095
293.49454
293.70101
293.89993
294.09096
294.27387
294.44852
294.61486
294.77291
294.9228
295.06471
295.19888
295.32561
295.44523
295.55811
295.66463
295.76522
295.86028
295.95024
296.03553
296.11658
296.1938
296.26763
296.33847
296.40675
296.4729
296.53734
296.60054
296.66296
296.7251
296.78744
296.85051
296.91481
296.98083
297.04906
297.11989
297.19361
297.27024
297.3493
297.42968
297.51082
297.59422
297.68144
297.77296
297.89297
292.62172
283.70659
287.75036
285.71015
287.09019
286.62039
287.1198
287.14079
287.37324
287.53459
287.72657
287.92032
288.12148
288.32947
288.54408
288.76518
288.99249
289.22572
289.46446
289.70828
289.95661
290.20885
290.46431
290.72223
290.98178
291.24209
291.50223
291.76125
292.01816
292.272
292.52182
292.7667
293.00577
293.23823
293.46339
293.68061
293.88939
294.08934
294.28015
294.46167
294.63382
294.79665
294.95028
295.09494
295.23091
295.35854
295.47824
295.59042
295.69557
295.79414
295.88663
295.97351
296.05528
296.13242
296.20537
296.27462
296.34059
296.40371
296.46442
296.52313
296.58025
296.63622
296.69147
296.74645
296.80163
296.85748
296.91448
296.97306
297.03368
297.09672
297.16251
297.23131
297.30312
297.37742
297.45322
297.53026
297.60969
297.69182
297.77978
297.9011
292.51138
283.61368
287.71094
285.67743
287.09148
286.64093
287.15304
287.20703
287.45153
287.63932
287.85029
288.06586
288.28895
288.51927
288.75652
289.00043
289.25059
289.50655
289.76772
290.03349
290.30309
290.57572
290.85046
291.12634
291.40232
291.67732
291.95024
292.21995
292.48536
292.7454
292.99906
293.2454
293.48357
293.71285
293.93262
294.14241
294.34186
294.53077
294.70906
294.87677
295.03407
295.1812
295.31852
295.44645
295.56546
295.67607
295.77881
295.87426
295.96298
296.04554
296.1225
296.1944
296.26176
296.32509
296.38488
296.4416
296.49569
296.54758
296.59767
296.64638
296.69411
296.74126
296.78824
296.83548
296.88343
296.93251
296.98315
297.03576
297.09069
297.14827
297.20874
297.27232
297.33899
297.4082
297.47918
297.55196
297.627
297.70356
297.78799
297.90956
292.4281
283.57258
287.71724
285.76188
287.15202
286.75928
287.24782
287.34457
287.60027
287.81608
288.05012
288.29065
288.53904
288.79493
289.05794
289.32759
289.6033
289.88439
290.17006
290.45942
290.75148
291.04515
291.33925
291.63257
291.92383
292.21175
292.49504
292.77246
293.04281
293.30499
293.55799
293.80094
294.03311
294.25392
294.46295
294.65995
294.84483
295.01765
295.17859
295.32797
295.46622
295.59383
295.71137
295.81947
295.91877
296.00994
296.09366
296.17058
296.24136
296.30663
296.36699
296.423
296.47523
296.52417
296.57031
296.61411
296.65601
296.6964
296.73567
296.77422
296.8124
296.85059
296.88919
296.92857
296.96916
297.01135
297.05551
297.10199
297.15108
297.20303
297.25801
297.31619
297.37749
297.44138
297.50741
297.57582
297.64612
297.71683
297.79776
297.9184
292.37842
283.59628
287.77797
285.90022
287.25965
286.9277
287.41311
287.55596
287.82827
288.07483
288.33635
288.60554
288.88293
289.16797
289.46008
289.75853
290.06248
290.37095
290.68283
290.99691
291.31185
291.62628
291.9387
292.24764
292.55159
292.84908
293.13869
293.41912
293.68915
293.94775
294.19403
294.42729
294.64705
294.85301
295.04504
295.22324
295.38785
295.53925
295.67795
295.80457
295.9198
296.02439
296.11911
296.20476
296.28214
296.35203
296.41519
296.47235
296.52421
296.57142
296.6146
296.65431
296.6911
296.72545
296.75783
296.78868
296.81837
296.8473
296.87582
296.90427
296.93298
296.9623
296.99257
297.02417
297.05744
297.09275
297.13043
297.17076
297.21398
297.26024
297.30967
297.36237
297.41818
297.47663
297.53766
297.60162
297.66691
297.73174
297.80933
297.92769
292.36724
283.69101
287.90324
286.09157
287.43355
287.17779
287.65866
287.85077
288.14597
288.42663
288.72053
289.02275
289.33337
289.6515
289.97626
290.30659
290.64124
290.97884
291.31788
291.65675
291.99373
292.3271
292.65506
292.97588
293.28788
293.58947
293.87921
294.15584
294.41829
294.66575
294.89761
295.11352
295.31337
295.49727
295.66554
295.81865
295.95726
296.08211
296.19405
296.29398
296.38284
296.46158
296.53115
296.59247
296.64644
296.69391
296.73567
296.77248
296.80504
296.834
296.85993
296.8834
296.90489
296.92487
296.94375
296.96191
296.97972
296.9975
297.01557
297.03422
297.05375
297.07446
297.09667
297.12068
297.14683
297.17542
297.20674
297.24103
297.27844
297.31907
297.36301
297.41025
297.46054
297.51357
297.56965
297.62907
297.68911
297.74825
297.82284
297.9374
292.39647
283.86437
288.09814
286.36928
287.68377
287.51238
287.99485
288.23963
288.56538
288.88479
289.21666
289.55703
289.9056
290.261
290.6219
290.98674
291.35375
291.72109
292.08675
292.44866
292.80472
293.15286
293.49103
293.81733
294.13002
294.42757
294.70869
294.97238
295.21794
295.44497
295.65337
295.84329
296.01515
296.16958
296.30738
296.4295
296.53696
296.63087
296.71238
296.78261
296.84271
296.89375
296.93679
296.97281
297.00275
297.02745
297.04773
297.06429
297.07779
297.08885
297.098
297.10573
297.11249
297.11866
297.12462
297.1307
297.13719
297.14438
297.15252
297.16188
297.17271
297.18525
297.19979
297.21658
297.23592
297.25807
297.28328
297.31172
297.34349
297.37865
297.41723
297.45912
297.50401
297.55174
297.60299
297.65775
297.71241
297.76633
297.83839
297.94708
292.47105
284.12959
288.36599
286.73555
288.02181
287.94427
288.43562
288.73729
289.10229
289.46652
289.84265
290.22682
290.61813
291.01461
291.41428
291.81495
292.21425
292.60975
292.99892
293.37923
293.74824
294.1036
294.4432
294.76517
295.06793
295.3503
295.61145
295.85092
296.06863
296.26485
296.44013
296.5953
296.73137
296.84953
296.95106
297.03733
297.10971
297.16957
297.21826
297.25707
297.28723
297.30987
297.32608
297.33682
297.343
297.34542
297.34483
297.34189
297.33717
297.33121
297.32448
297.31739
297.31031
297.30357
297.29748
297.2923
297.28827
297.28562
297.28456
297.28529
297.28803
297.29298
297.30037
297.31042
297.32338
297.33947
297.35888
297.38175
297.40814
297.43807
297.47152
297.50826
297.54795
297.59064
297.63721
297.68715
297.73639
297.7858
297.85562
297.95666
292.59531
284.50514
288.70287
287.20458
288.46192
288.48858
288.9993
289.36379
289.77778
290.19404
290.62094
291.05425
291.49219
291.93207
292.37111
292.80637
293.23479
293.65331
294.05891
294.44872
294.82011
295.17078
295.49882
295.80279
296.08173
296.33513
296.56299
296.76572
296.94408
297.09915
297.23227
297.34493
297.43874
297.51537
297.5765
297.6238
297.65885
297.68319
297.69825
297.70535
297.70571
297.70046
297.69059
297.67701
297.66054
297.6419
297.62172
297.60056
297.57893
297.55724
297.53589
297.51521
297.49548
297.47697
297.4599
297.44448
297.43089
297.4193
297.40988
297.40277
297.39814
297.39617
297.39702
297.40089
297.40797
297.41844
297.43246
297.45011
297.47144
297.49645
297.52504
297.55691
297.5917
297.62971
297.67176
297.71673
297.76056
297.80628
297.87395
297.966
292.77392
285.02082
289.11652
287.79443
289.02541
289.16877
289.71183
290.14626
290.619
291.09435
291.57755
292.06368
292.54989
293.03252
293.50787
293.97213
294.42155
294.85255
295.26183
295.64653
296.00431
296.33343
296.63276
296.90181
297.14069
297.35001
297.53087
297.68472
297.81328
297.91847
298.00232
298.06689
298.11425
298.14638
298.16521
298.17251
298.16996
298.15908
298.14127
298.11779
298.08975
298.05817
298.02393
297.9878
297.95048
297.91255
297.87454
297.8369
297.80001
297.76419
297.72975
297.69692
297.66591
297.6369
297.61007
297.58554
297.56344
297.54391
297.52703
297.51294
297.50174
297.49357
297.48856
297.48685
297.4886
297.49396
297.50302
297.51586
297.53249
297.55291
297.57696
297.60427
297.63457
297.66829
297.70602
297.74592
297.78443
297.82713
297.89277
297.97469
293.0185
285.72374
289.65004
288.53634
289.74323
290.01612
290.60581
291.11708
291.657
292.19713
292.73986
293.27935
293.81129
294.33086
294.83331
295.31408
295.769
296.19447
296.58757
296.94619
297.26907
297.55575
297.80653
298.0224
298.20488
298.35595
298.47787
298.57312
298.64425
298.69383
298.72439
298.73832
298.73789
298.72522
298.70222
298.67065
298.63209
298.58794
298.53945
298.4877
298.43367
298.37819
298.32197
298.26564
298.20975
298.15473
298.10099
298.04884
297.99856
297.95039
297.90451
297.86108
297.82024
297.78211
297.74677
297.71432
297.68482
297.65835
297.63498
297.61478
297.59783
297.58421
297.57401
297.56736
297.56436
297.56511
297.56969
297.57814
297.59047
297.60666
297.6265
297.64961
297.67584
297.70569
297.73932
297.77422
297.80766
297.84763
297.91128
297.9828
293.35593
286.59789
290.33055
289.46753
290.65315
291.06548
291.71754
292.31233
292.92587
293.53361
294.13471
294.72195
295.2894
295.83113
296.34173
296.81662
297.25214
297.64576
297.99604
298.30267
298.5663
298.78845
298.97129
299.1175
299.23011
299.31229
299.36731
299.39836
299.40851
299.40067
299.37752
299.34151
299.29488
299.23961
299.17746
299.11
299.03857
298.96437
298.88842
298.8116
298.73466
298.65825
298.5829
298.50907
298.43714
298.36743
298.30018
298.23562
298.17392
298.1152
298.05957
298.00712
297.95791
297.912
297.86942
297.83021
297.7944
297.76201
297.73307
297.70763
297.68571
297.66738
297.65269
297.64171
297.63453
297.63119
297.63175
297.63624
297.64466
297.65698
297.67294
297.69221
297.71481
297.7412
297.77098
297.80115
297.83
297.86735
297.92875
297.99065
293.82645
287.58491
291.20004
290.62381
291.79929
292.35885
293.09005
293.77409
294.46284
295.13372
295.78216
296.39965
296.97925
297.51495
298.00215
298.43777
298.8203
299.14968
299.42715
299.65504
299.83645
299.97507
300.07493
300.14016
300.17491
300.18314
300.16863
300.13485
300.08497
300.02183
299.94799
299.86567
299.77684
299.68319
299.58619
299.4871
299.38699
299.28678
299.18723
299.08898
298.99258
298.89846
298.80698
298.71844
298.63308
298.55107
298.47256
298.39765
298.32641
298.25891
298.19517
298.13521
298.07903
298.02663
297.978
297.93314
297.89203
297.85466
297.82104
297.79116
297.76503
297.74267
297.72412
297.70941
297.69858
297.69166
297.68866
297.68961
297.69451
297.70329
297.71569
297.73148
297.75083
297.7741
297.8003
297.82613
297.85107
297.88607
297.9444
297.99897
294.48599
288.85785
292.30678
292.05741
293.24264
293.95466
294.7761
295.54697
296.29941
297.01259
297.67925
298.29107
298.84227
299.32912
299.75011
300.10571
300.39811
300.63083
300.80835
300.93578
301.01849
301.0619
301.07126
301.05154
301.00731
300.94274
300.86154
300.76698
300.66194
300.5489
300.43001
300.30709
300.1817
300.05515
299.92854
299.8028
299.67868
299.55681
299.43772
299.3218
299.2094
299.10077
298.99611
298.89557
298.79925
298.70723
298.61955
298.53622
298.45723
298.38258
298.31222
298.24613
298.18425
298.12653
298.07295
298.02343
297.97795
297.93646
297.89894
297.86536
297.83569
297.80994
297.78811
297.7702
297.75622
297.74616
297.74004
297.73786
297.7396
297.74515
297.75429
297.76691
297.78333
297.80372
297.82655
297.84859
297.87052
297.90375
297.95837
298.005
295.39146
290.4775
293.73664
293.84799
295.06219
295.9203
296.8232
297.65648
298.4361
299.14516
299.77733
300.32791
300.79563
301.18192
301.49047
301.72666
301.89696
302.00846
302.06841
302.08389
302.0616
302.00772
301.92781
301.82681
301.70903
301.57821
301.43756
301.28978
301.13719
300.98171
300.82496
300.66825
300.51271
300.35923
300.20854
300.06123
299.91777
299.77854
299.64381
299.5138
299.38865
299.26848
299.15335
299.04327
298.93826
298.83829
298.74331
298.65328
298.56811
298.48775
298.4121
298.34109
298.27463
298.21263
298.15503
298.10174
298.0527
298.00784
297.96711
297.93046
297.89784
297.86924
297.84463
297.82399
297.80729
297.79453
297.78568
297.78074
297.77966
297.78229
297.78845
297.79818
297.81186
297.82944
297.84908
297.86793
297.88775
297.9194
297.96953
298.00844
296.52453
292.5685
295.59527
296.07925
297.32422
298.29935
299.23812
300.07322
300.81109
301.44304
301.9691
302.39221
302.71853
302.95626
303.11485
303.20422
303.23418
303.21406
303.15241
303.05689
302.93423
302.79025
302.62992
302.45741
302.27626
302.08937
301.89917
301.70763
301.51638
301.32673
301.13974
300.95625
300.77695
300.60235
300.43285
300.26875
300.11028
299.95759
299.81076
299.66984
299.53485
299.40575
299.28251
299.16505
299.05329
298.94713
298.84647
298.7512
298.6612
298.57634
298.49653
298.42163
298.35153
298.28612
298.2253
298.16898
298.11705
298.06944
298.02607
297.98689
297.95182
297.92082
297.89385
297.87087
297.85184
297.83672
297.8255
297.81814
297.81456
297.81457
297.81805
297.82515
297.83622
297.85097
297.86749
297.88363
297.90201
297.93229
297.97771
298.00987
298.0629
295.24337
297.97783
298.80407
300.02351
301.05998
301.94473
302.6835
303.28538
303.75432
304.10089
304.33761
304.47844
304.53743
304.52802
304.46253
304.35192
304.20566
304.03185
303.83725
303.62751
303.40723
303.18019
302.94943
302.71743
302.48613
302.25712
302.03162
301.81061
301.59482
301.38482
301.18105
300.9838
300.7933
300.60966
300.43296
300.26322
300.10042
299.94451
299.79539
299.65298
299.51714
299.38776
299.2647
299.1478
299.03691
298.9319
298.83259
298.73884
298.6505
298.56743
298.48947
298.4165
298.34838
298.28499
298.22621
298.17195
298.12209
298.07656
298.03526
297.99813
297.9651
297.93612
297.91112
297.89006
297.8729
297.8596
297.85011
297.84431
297.84202
297.84316
297.84791
297.8565
297.86842
297.88188
297.89557
297.91281
297.94186
297.98315
298.01014
300.04742
298.57184
300.87925
301.99633
303.18539
304.05365
304.76313
305.29232
305.66384
305.89627
306.01099
306.0283
305.96691
305.84327
305.67144
305.46313
305.22796
304.97371
304.70663
304.43167
304.15274
303.87292
303.59459
303.31962
303.0494
302.78504
302.52733
302.27686
302.03405
301.7992
301.57247
301.35397
301.14371
300.94166
300.74776
300.56191
300.38397
300.21379
300.05122
299.89609
299.7482
299.60737
299.47342
299.34616
299.22539
299.11092
299.00258
298.90017
298.80353
298.71248
298.62684
298.54647
298.47121
298.40092
298.33545
298.27468
298.21849
298.16677
298.11941
298.07633
298.03744
298.00266
297.97193
297.94517
297.92233
297.90336
297.88821
297.87682
297.86905
297.86475
297.86388
297.8666
297.87298
297.88231
297.89302
297.90456
297.92046
297.94736
297.98401
298.00806
302.5071
302.5369
304.54932
305.52635
306.42371
307.03711
307.44526
307.66959
307.7467
307.7064
307.57565
307.37669
307.12765
306.84294
306.53384
306.20907
305.87535
305.53777
305.20019
304.86553
304.53593
304.21301
303.89791
303.59146
303.29422
303.00657
302.72871
302.46076
302.20272
301.95454
301.71611
301.48727
301.26787
301.05769
300.85653
300.66416
300.48035
300.30487
300.13748
299.97794
299.82602
299.68149
299.54411
299.41367
299.28995
299.17272
299.06179
298.95695
298.858
298.76477
298.67706
298.59472
298.51757
298.44545
298.37823
298.31577
298.25793
298.2046
298.15566
298.11101
298.07057
298.03423
298.00193
297.97359
297.94915
297.92855
297.91173
297.89861
297.88906
297.88297
297.88035
297.88132
297.88578
297.89296
297.90155
297.91151
297.92619
297.9507
297.9829
298.00441
305.58478
306.98058
308.31095
309.01463
309.4939
309.70424
309.7282
309.60775
309.3837
309.0865
308.73965
308.36065
307.96241
307.55434
307.1433
306.73418
306.3305
305.93472
305.54855
305.17315
304.80926
304.45733
304.11758
303.7901
303.47482
303.17162
302.8803
302.60063
302.33234
302.07514
301.82874
301.59283
301.36711
301.15126
300.94498
300.74796
300.55992
300.38057
300.2096
300.04677
299.89178
299.74439
299.60433
299.47137
299.34526
299.22578
299.1127
299.00582
298.90492
298.80981
298.72031
298.63622
298.5574
298.48366
298.41487
298.35086
298.29152
298.23671
298.18631
298.14022
298.09833
298.06056
298.02681
297.997
297.97108
297.94897
297.93061
297.91589
297.90471
297.897
297.89278
297.89213
297.89489
297.90033
297.90752
297.91667
297.93046
297.95229
297.97983
297.99975
309.55063
311.33761
311.87861
312.06539
312.01044
311.77557
311.42323
310.99592
310.52387
310.02782
309.52185
309.01544
308.5149
308.02437
307.54651
307.08297
306.6347
306.20217
305.78552
305.3847
304.99947
304.62952
304.27447
303.93389
303.60736
303.2944
302.99459
302.70746
302.43259
302.16955
301.91792
301.67731
301.44732
301.22758
301.01773
300.81743
300.62633
300.44413
300.2705
300.10515
299.94779
299.79814
299.65593
299.52091
299.39283
299.27145
299.15655
299.0479
298.94529
298.84852
298.75741
298.67176
298.59141
298.51619
298.44593
298.3805
298.31976
298.26357
298.21182
298.16438
298.12116
298.08205
298.04695
298.0158
297.98851
297.96501
297.94524
297.92909
297.91647
297.90732
297.90166
297.89953
297.90071
297.90469
297.91087
297.91962
297.93284
297.95248
297.97634
297.99487
314.52349
314.89305
314.62054
314.25005
313.72502
313.12939
312.49874
311.8587
311.22347
310.60167
309.99809
309.41529
308.85447
308.31595
307.79958
307.30486
306.83116
306.37772
305.94375
305.52847
305.13107
304.75081
304.38695
304.03878
303.70566
303.38695
303.08205
302.79041
302.51148
302.24478
301.98981
301.74613
301.51331
301.29093
301.07862
300.87598
300.68268
300.49837
300.32273
300.15544
299.99621
299.84476
299.7008
299.56408
299.43435
299.31135
299.19487
299.08467
298.98055
298.8823
298.78973
298.70266
298.6209
298.54429
298.47268
298.40591
298.34385
298.28636
298.23332
298.18462
298.14015
298.09978
298.06343
298.031
298.00241
297.9776
297.95651
297.93907
297.92519
297.91482
297.90793
297.9045
297.90436
297.90713
297.91251
297.92085
297.93342
297.95131
297.97287
297.99212
316.52494
316.69132
316.11275
315.34733
314.56471
313.78115
313.0169
312.27958
311.57265
310.89708
310.25256
309.63815
309.05258
308.49442
307.96226
307.45471
306.97042
306.50814
306.0667
305.64501
305.24205
304.85689
304.48867
304.13657
303.79984
303.47781
303.1698
302.87523
302.59352
302.32415
302.06662
301.82045
301.5852
301.36046
301.14583
300.94092
300.74539
300.55888
300.38107
300.21165
300.05031
299.89678
299.75078
299.61204
299.48032
299.35536
299.23695
299.12485
299.01885
298.91876
298.82438
298.73553
298.65202
298.5737
298.5004
298.43198
298.36831
298.30924
298.25467
298.20446
298.15851
298.1167
298.0789
298.04502
298.01497
297.98871
297.9662
297.9474
297.93225
297.92068
297.91263
297.90805
297.9068
297.90861
297.91333
297.92126
297.93333
297.95016
297.97055
297.99059
310.25353
308.97872
305.30988
302.41142
301.12677
300.83713
300.76856
300.7655
300.6538
300.59684
300.49226
300.42226
300.33594
300.24908
300.16263
300.07574
299.98817
299.89989
299.81092
299.72131
299.63115
299.54055
299.44964
299.35856
299.26743
299.1764
299.08561
298.9952
298.9053
298.81605
298.72758
298.64002
298.55349
298.46813
298.38406
298.3014
298.22028
298.14082
298.06316
297.9874
297.91369
297.84214
297.77289
297.70606
297.64178
297.58016
297.52135
297.46545
297.41259
297.36287
297.31642
297.27333
297.23369
297.1976
297.16511
297.13628
297.11114
297.08969
297.07191
297.05778
297.04728
297.04039
297.03705
297.03727
297.04113
297.04878
297.06065
297.07672
297.09829
297.12379
297.15814
297.19351
297.24808
297.29275
297.38247
297.42897
297.57264
297.60841
297.80408
297.8316
309.48577
306.57982
302.40232
300.33692
299.76396
299.76485
299.86585
299.87695
299.87143
299.84534
299.8218
299.78411
299.74108
299.69329
299.64157
299.58602
299.52712
299.46514
299.40041
299.33324
299.26393
299.19273
299.11992
299.04573
298.9704
298.89416
298.81721
298.73976
298.66202
298.58418
298.50643
298.42894
298.3519
298.27549
298.19987
298.12521
298.05167
297.97943
297.90864
297.83945
297.77203
297.70654
297.64311
297.58191
297.52309
297.46677
297.41311
297.36225
297.3143
297.26939
297.22765
297.18917
297.15406
297.1224
297.09426
297.06968
297.04869
297.0313
297.01746
297.00714
297.00035
296.99703
296.99715
297.00071
297.00781
297.0186
297.0335
297.05253
297.07687
297.10522
297.14197
297.18033
297.23674
297.28466
297.37524
297.42533
297.56881
297.60542
297.80403
297.82476
308.09108
304.50821
301.40953
299.70154
299.37122
299.41138
299.44542
299.41919
299.39069
299.35789
299.32598
299.29086
299.25412
299.21444
299.17257
299.12831
299.08188
299.03324
298.98249
298.92972
298.87504
298.81856
298.76043
298.70076
298.63971
298.57744
298.51409
298.44985
298.38486
298.31932
298.2534
298.18727
298.12112
298.05512
297.98948
297.92436
297.85995
297.79643
297.73399
297.67281
297.61307
297.55494
297.4986
297.44423
297.39198
297.34203
297.29452
297.24962
297.20746
297.16818
297.13191
297.09876
297.06883
297.04222
297.01899
296.99918
296.98282
296.96991
296.9604
296.95427
296.9515
296.95205
296.95589
296.96302
296.97356
296.98768
297.00576
297.02789
297.05513
297.08638
297.12569
297.16698
297.22547
297.27636
297.36822
297.42135
297.56515
297.60241
297.80337
297.81873
306.90655
303.06471
300.23206
298.94358
298.89524
298.91057
298.92776
298.89161
298.87327
298.84407
298.82006
298.79087
298.7615
298.73016
298.69772
298.66365
298.62812
298.591
298.55227
298.51196
298.47006
298.42661
298.38165
298.33525
298.28747
298.23839
298.18813
298.13678
298.08448
298.03136
297.97757
297.92325
297.86857
297.8137
297.75882
297.70409
297.64971
297.59587
297.54276
297.49055
297.43946
297.38967
297.34137
297.29475
297.24999
297.20726
297.16675
297.1286
297.09299
297.06006
297.02994
297.00276
296.97862
296.95761
296.93981
296.92526
296.91398
296.90596
296.90116
296.89954
296.90111
296.90581
296.91361
296.92454
296.93872
296.95632
296.97775
297.00309
297.03335
297.06756
297.10955
297.15376
297.21449
297.2682
297.36157
297.41736
297.56167
297.59947
297.80245
297.81309
306.21466
301.8507
299.26765
298.31302
298.39244
298.36568
298.39234
298.35537
298.34882
298.32434
298.30904
298.28716
298.26666
298.24433
298.2214
298.19723
298.17199
298.14552
298.1178
298.08879
298.05846
298.02681
297.99383
297.95955
297.92397
297.88715
297.84915
297.81002
297.76986
297.72877
297.68684
297.6442
297.60099
297.55736
297.51345
297.46943
297.42548
297.38178
297.3385
297.29585
297.25401
297.21319
297.17358
297.13537
297.09875
297.06391
297.03104
297.0003
296.97186
296.94587
296.92248
296.90182
296.88399
296.86908
296.85717
296.84831
296.8425
296.83974
296.83998
296.8432
296.84937
296.85847
296.87046
296.88539
296.90337
296.92463
296.94952
296.97818
297.01155
297.0488
297.09354
297.14067
297.20375
297.2602
297.3552
297.41341
297.55833
297.59658
297.80127
297.80791
305.64814
300.65895
298.46287
297.70708
297.85867
297.80187
297.84873
297.81229
297.82077
297.80301
297.79881
297.78568
297.77499
297.76218
297.74901
297.73471
297.71945
297.70311
297.68566
297.66709
297.64737
297.62648
297.6044
297.58115
297.55673
297.53115
297.50444
297.47665
297.44783
297.41805
297.38739
297.35595
297.32382
297.29114
297.25803
297.22464
297.19113
297.15765
297.12439
297.09153
297.05926
297.02776
296.99723
296.96786
296.93985
296.91338
296.88863
296.86579
296.84502
296.82647
296.81029
296.79661
296.78554
296.77717
296.77156
296.76876
296.76879
296.77162
296.77721
296.78553
296.79656
296.81028
296.82667
296.84576
296.86772
296.89275
296.92122
296.9533
296.98985
297.0302
297.07775
297.12779
297.19331
297.25248
297.3491
297.4096
297.55512
297.5938
297.79985
297.80317
305.071
299.60979
297.81171
297.15508
297.35449
297.27147
297.33809
297.29998
297.32093
297.30771
297.31255
297.30659
297.30386
297.29877
297.29358
297.28748
297.28058
297.27282
297.26417
297.2546
297.24407
297.23256
297.22005
297.20654
297.192
297.17645
297.15989
297.14235
297.12387
297.10448
297.08425
297.06324
297.04154
297.01926
296.99649
296.97336
296.95002
296.92661
296.90328
296.8802
296.85756
296.83551
296.81426
296.79397
296.77485
296.75706
296.74079
296.72621
296.71348
296.70276
296.69418
296.68787
296.68393
296.68246
296.6835
296.6871
296.69327
296.70198
296.71318
296.72684
296.74295
296.76149
296.78244
296.80586
296.83192
296.86084
296.89299
296.92855
296.96835
297.01184
297.06223
297.11519
297.18319
297.24509
297.34328
297.40596
297.55204
297.59115
297.79817
297.79881
304.59393
298.65842
297.26393
296.65045