/*--------------------------------*- C++ -*----------------------------------*\
  =========                 |
  \\      /  F ield         | OpenFOAM: The Open Source CFD Toolbox
   \\    /   O peration     | Website:  https://openfoam.org
    \\  /    A nd           | Version:  12
     \\/     M anipulation  |
\*---------------------------------------------------------------------------*/
FoamFile
{
    format      ascii;
    class       volScalarField;
    location    "0.036";
    object      k;
}
// * * * * * * * * * * * * * * * * * * * * * * * * * * * * * * * * * * * * * //

dimensions      [0 2 -2 0 0 0 0];

internalField   nonuniform List<scalar> 
16000
(
0.050814799
0.022238081
0.023234116
0.01694373
0.014344358
0.01296108
0.012145191
0.011653237
0.011320583
0.011095123
0.010929316
0.010805268
0.010708588
0.010631879
0.010569762
0.010519243
0.010478167
0.010444114
0.010416012
0.010392915
0.010373974
0.010358532
0.010345886
0.010335757
0.010327762
0.010321617
0.010317119
0.010314093
0.010312399
0.010311906
0.01031249
0.010314045
0.010316486
0.010319739
0.010323742
0.010328436
0.010333768
0.010339686
0.010346137
0.010353076
0.010360464
0.010368265
0.010376461
0.010385044
0.010394015
0.010403382
0.010413176
0.010423439
0.01043422
0.010445556
0.010457464
0.010469913
0.010482793
0.010495884
0.01050884
0.01052118
0.010532305
0.010541538
0.010548171
0.010551518
0.010550954
0.010545954
0.010536171
0.010521443
0.010501701
0.010476852
0.010446423
0.010408179
0.010354647
0.010271549
0.010161
0.010079412
0.010038889
0.010023223
0.010021462
0.010039646
0.010080822
0.010118869
0.010075985
0.010059795
0.046251061
0.020945422
0.021621187
0.016323278
0.013942461
0.012716583
0.011942617
0.011500814
0.011185852
0.010979464
0.010824706
0.010710113
0.010620234
0.010549423
0.010492025
0.010445348
0.01040776
0.010376725
0.010351102
0.010330222
0.010313219
0.010299547
0.010288511
0.01027984
0.010273171
0.010268235
0.010264841
0.010262821
0.010262045
0.010262394
0.010263751
0.010266014
0.010269103
0.010272949
0.010277495
0.010282687
0.010288485
0.010294848
0.010301736
0.010309109
0.010316937
0.0103252
0.010333885
0.010342993
0.010352529
0.010362501
0.01037293
0.010383841
0.010395255
0.010407173
0.010419562
0.010432334
0.010445321
0.010458252
0.010470737
0.010482272
0.010492263
0.010500062
0.010505024
0.01050655
0.010504122
0.010497329
0.01048593
0.010469868
0.010449168
0.010423799
0.010393318
0.010355601
0.010303894
0.010226115
0.010125091
0.01005609
0.010024325
0.010013128
0.010013647
0.010031941
0.010072901
0.010119328
0.010066722
0.010070252
0.04288169
0.020040498
0.020148477
0.015692336
0.013537944
0.012446819
0.011736978
0.011340342
0.011050725
0.010863975
0.010721223
0.010616439
0.01053377
0.010469076
0.010416767
0.010374155
0.010340178
0.01031237
0.010289402
0.010270884
0.01025597
0.010244149
0.010234854
0.010227747
0.010222488
0.010218851
0.010216644
0.01021571
0.010215927
0.010217186
0.010219378
0.010222409
0.010226204
0.010230699
0.010235843
0.010241588
0.0102479
0.01025475
0.010262111
0.010269951
0.010278245
0.010286984
0.010296166
0.010305793
0.010315867
0.010326391
0.010337369
0.010348803
0.010360682
0.010372961
0.010385557
0.010398325
0.010411043
0.010423393
0.010434954
0.010445219
0.010453615
0.010459552
0.010462471
0.010461882
0.010457401
0.010448757
0.010435832
0.010418672
0.010397377
0.010371954
0.010341939
0.010305112
0.010254888
0.010181312
0.010091038
0.010035201
0.010011804
0.010004884
0.010007296
0.010026239
0.010066113
0.01011681
0.010060536
0.010082433
0.039596419
0.0194303
0.018886835
0.015130867
0.013174125
0.012204959
0.011549594
0.011194372
0.010927021
0.010757944
0.01062654
0.010530764
0.010454917
0.010395926
0.010348508
0.010309811
0.01027923
0.010254508
0.010234121
0.010217875
0.010205028
0.010195006
0.010187448
0.010181877
0.010178012
0.010175675
0.010174655
0.010174812
0.010176028
0.010178203
0.010181239
0.010185045
0.01018955
0.010194698
0.010200445
0.010206749
0.010213578
0.01022091
0.010228729
0.010237011
0.010245733
0.010254894
0.010264504
0.010274558
0.010285048
0.010295971
0.010307305
0.010319024
0.010331077
0.010343379
0.010355797
0.010368138
0.010380138
0.010391452
0.010401652
0.01041025
0.010416722
0.01042056
0.010421311
0.010418615
0.010412226
0.010402018
0.010387988
0.010370264
0.010348988
0.01032417
0.01029528
0.010259912
0.010211581
0.010142573
0.010064105
0.01002008
0.010003735
0.0099997898
0.010003512
0.010021789
0.010060069
0.010105438
0.010056491
0.010090569
0.03563412
0.019072884
0.017808391
0.014614289
0.012838189
0.011978131
0.011375424
0.011058017
0.010812458
0.010659763
0.010539419
0.010452194
0.010383003
0.01032947
0.010286832
0.010252037
0.01022477
0.010203051
0.010185281
0.010171279
0.010160519
0.010152358
0.010146575
0.010142541
0.010140128
0.010139141
0.010139359
0.010140657
0.010142923
0.010146064
0.010149989
0.010154612
0.010159865
0.010165698
0.010172074
0.010178962
0.010186328
0.010194152
0.010202423
0.010211126
0.01022024
0.010229765
0.010239716
0.010250081
0.010260837
0.010271971
0.010283438
0.010295175
0.010307098
0.010319079
0.010330945
0.010342467
0.010353352
0.010363246
0.010371734
0.010378367
0.010382693
0.010384297
0.010382849
0.010378129
0.010370037
0.010358582
0.010343869
0.010326075
0.010305348
0.010281664
0.01025437
0.010220779
0.010174422
0.010109854
0.010043526
0.010010014
0.0099994496
0.0099974228
0.01000137
0.010018683
0.01005528
0.010096048
0.010053939
0.010093325
0.033894576
0.018976369
0.017011578
0.01414417
0.01253148
0.01176902
0.011215765
0.010932765
0.010707992
0.010570278
0.010460588
0.010381398
0.010318638
0.01027028
0.01023224
0.010201348
0.010177304
0.010158491
0.010143448
0.010131684
0.010122982
0.010116829
0.010112797
0.010110326
0.010109466
0.010109876
0.010111389
0.010113887
0.010117257
0.010121414
0.010126272
0.01013175
0.010137783
0.010144322
0.010151336
0.010158802
0.010166694
0.01017499
0.010183677
0.010192752
0.010202197
0.010212006
0.010222179
0.010232696
0.010243527
0.010254645
0.010265981
0.010277443
0.010288912
0.010300223
0.010311176
0.010321517
0.010330942
0.010339103
0.010345619
0.010350097
0.010352167
0.010351528
0.010347976
0.010341434
0.010331941
0.010319632
0.010304692
0.010287319
0.010267617
0.010245477
0.01022007
0.010188403
0.010144064
0.01008372
0.010029242
0.010004618
0.0099975885
0.0099968453
0.010000353
0.010016367
0.010050511
0.010087224
0.010052343
0.010089452
0.031467459
0.019051038
0.01645301
0.013716115
0.012250877
0.011576552
0.011070166
0.010818286
0.010613422
0.010489359
0.010389915
0.010318326
0.010261806
0.010218394
0.010184774
0.010157876
0.010136985
0.010121042
0.010108901
0.010099456
0.010092771
0.01008881
0.010086441
0.0100857
0.010086462
0.010088314
0.010091189
0.010094945
0.010099474
0.01010469
0.010110516
0.010116873
0.0101237
0.010130946
0.010138584
0.010146595
0.010154962
0.010163664
0.010172691
0.010182045
0.010191722
0.010201699
0.010211945
0.010222431
0.010233127
0.01024398
0.010254905
0.010265788
0.010276485
0.010286802
0.01029652
0.010305379
0.010313077
0.010319289
0.010323679
0.010325926
0.010325756
0.01032298
0.010317526
0.010309448
0.010298916
0.010286161
0.01027142
0.010254873
0.010236538
0.010216152
0.010192653
0.010162791
0.010120412
0.010064025
0.010020528
0.010002423
0.009997135
0.0099967277
0.0099999013
0.010013918
0.010045112
0.010078644
0.010051535
0.010080946
0.02873411
0.01921522
0.015997444
0.013327035
0.011994478
0.011400225
0.010937656
0.010714272
0.010528243
0.010416801
0.010327252
0.010262946
0.010212553
0.010173971
0.010144607
0.010121839
0.01010403
0.010091118
0.010081948
0.010074967
0.010070358
0.01006857
0.010067885
0.010069146
0.010071452
0.010074812
0.010079102
0.010084159
0.010089877
0.010096171
0.010102967
0.010110193
0.010117789
0.010125706
0.010133916
0.0101424
0.010151147
0.010160143
0.010169382
0.010178871
0.010188615
0.010198581
0.010208709
0.010218958
0.010229294
0.01023963
0.010249868
0.010259885
0.010269518
0.010278559
0.01028678
0.010293927
0.010299712
0.010303865
0.010306084
0.010306136
0.010303847
0.010299143
0.010292072
0.010282807
0.010271615
0.010258795
0.010244599
0.010229153
0.010212349
0.010193707
0.010171854
0.010143367
0.010102789
0.010050451
0.010016608
0.010003158
0.009998538
0.0099975767
0.0099995635
0.010010282
0.01003796
0.010070643
0.010051607
0.010072814
0.026958064
0.019375291
0.015459668
0.012972974
0.01176035
0.011238861
0.010817452
0.010620141
0.010452427
0.010352716
0.01027271
0.010215438
0.010171098
0.010137364
0.010112124
0.010093545
0.010078721
0.010069266
0.010062878
0.010058523
0.010056312
0.010056297
0.010058032
0.010060803
0.010064702
0.010069649
0.010075374
0.010081739
0.010088636
0.010095981
0.010103703
0.010111733
0.010120016
0.010128508
0.01013718
0.010146015
0.010155005
0.010164142
0.010173422
0.010182853
0.01019244
0.010202152
0.01021192
0.010221698
0.010231432
0.010241004
0.010250306
0.010259204
0.010267527
0.010275071
0.010281609
0.010286901
0.010290679
0.010292752
0.010292855
0.010290847
0.010286653
0.010280305
0.010271957
0.010261872
0.010250379
0.010237804
0.010224375
0.010210139
0.010194837
0.010177722
0.010157015
0.010129125
0.01008992
0.010042689
0.010016788
0.010006623
0.0100024
0.0099993715
0.0099982795
0.010004827
0.01002877
0.010064283
0.01006068
0.010065427
0.025231814
0.019522346
0.014760885
0.012650485
0.011548137
0.011092918
0.010710442
0.010536054
0.010386313
0.010297369
0.010226547
0.010176091
0.010137721
0.010108965
0.010087822
0.010073321
0.010061503
0.010055774
0.010051764
0.010050331
0.010050883
0.010052308
0.010055943
0.010060728
0.010066496
0.010073015
0.010080147
0.010087772
0.010095777
0.010104081
0.010112613
0.010121313
0.010130131
0.010139026
0.010147978
0.010156973
0.010166008
0.010175081
0.010184191
0.010193337
0.010202515
0.010211702
0.010220845
0.01022989
0.010238763
0.010247335
0.01025548
0.010263052
0.01026988
0.010275774
0.010280522
0.010283907
0.010285698
0.010285729
0.010283856
0.01028
0.010274175
0.010266509
0.010257238
0.010246681
0.010235189
0.010223067
0.010210486
0.010197394
0.010183379
0.010167406
0.010147237
0.010119034
0.010080304
0.010040251
0.010020353
0.010011728
0.010006496
0.010000311
0.0099950679
0.009997258
0.010018005
0.010060335
0.010079728
0.010057507
0.023672091
0.019644293
0.014199405
0.012357186
0.011357892
0.010961638
0.010616504
0.010462742
0.010329832
0.010250941
0.010188976
0.010145185
0.010112686
0.010089039
0.010072094
0.010061351
0.010053032
0.010050003
0.010048324
0.010048406
0.01005265
0.010057235
0.010062956
0.0100696
0.010077011
0.010085009
0.010093451
0.010102206
0.010111166
0.01012025
0.010129391
0.01013854
0.010147654
0.010156702
0.010165671
0.010174558
0.01018337
0.010192111
0.010200787
0.010209391
0.010217909
0.01022632
0.010234585
0.010242643
0.010250407
0.010257759
0.010264558
0.010270646
0.010275857
0.010280019
0.010282934
0.010284424
0.010284325
0.01028245
0.010278804
0.010273355
0.010266203
0.010257547
0.010247679
0.01023694
0.010225659
0.010214081
0.010202292
0.010190129
0.010177022
0.010161664
0.010141438
0.010112451
0.010073754
0.010041933
0.010025946
0.010017405
0.010009977
0.0099999803
0.0099904936
0.009989228
0.010007279
0.010055123
0.010086396
0.010047433
0.02228306
0.019757541
0.013717223
0.012092204
0.011188953
0.0108447
0.010535076
0.010399942
0.010283073
0.010213676
0.010160279
0.010123074
0.010096343
0.0100778
0.010065228
0.010057692
0.010053847
0.010050217
0.010052447
0.010059456
0.010064625
0.010071271
0.010078914
0.010087323
0.010096279
0.010105604
0.010115155
0.01012481
0.010134465
0.010144044
0.010153491
0.010162769
0.010171851
0.010180718
0.010189372
0.010197823
0.010206087
0.010214182
0.010222119
0.010229899
0.010237506
0.010244916
0.010252084
0.010258943
0.010265404
0.010271359
0.010276667
0.010281169
0.010284704
0.010287111
0.01028822
0.010287877
0.010285989
0.010282456
0.010277265
0.010270494
0.010262305
0.010252951
0.010242747
0.010232021
0.01022105
0.010209988
0.010198816
0.010187249
0.010174553
0.010159157
0.010138259
0.010108586
0.010071245
0.010045907
0.010031988
0.01002269
0.010012715
0.0099990507
0.0099856122
0.0099818675
0.0099978961
0.010046771
0.010082608
0.010040448
0.021030069
0.019823445
0.013273315
0.01185485
0.011040401
0.010742261
0.010466187
0.0103478
0.010246161
0.010185888
0.01014083
0.010110205
0.010089206
0.010075682
0.010067688
0.010062678
0.010064426
0.010067491
0.010072194
0.010077961
0.010085754
0.010094513
0.010104001
0.010113969
0.01012422
0.010134578
0.01014491
0.010155103
0.010165065
0.010174736
0.010184076
0.010193068
0.010201706
0.010209993
0.010217949
0.010225599
0.010232972
0.010240097
0.010246995
0.010253673
0.010260124
0.010266318
0.010272204
0.010277707
0.010282738
0.010287188
0.010290923
0.010293795
0.01029565
0.010296341
0.010295734
0.010293716
0.010290199
0.010285169
0.010278668
0.010270824
0.010261844
0.010252007
0.010241628
0.010230997
0.010220312
0.010209624
0.010198797
0.010187416
0.010174572
0.010158451
0.010136166
0.010105496
0.010071565
0.01005056
0.010037472
0.010027273
0.010015015
0.0099980834
0.0099811855
0.0099758368
0.0099899076
0.010036537
0.010072716
0.010035893
0.019905911
0.019807077
0.012872873
0.011643019
0.010911097
0.010653604
0.010409651
0.010306413
0.010219374
0.010168033
0.010131165
0.010107162
0.010091954
0.010083469
0.010080223
0.010080988
0.01008413
0.010089837
0.010097502
0.010106602
0.010116554
0.010127164
0.010138169
0.010149336
0.010160472
0.010171414
0.010182041
0.010192263
0.010202013
0.010211256
0.010219979
0.010228193
0.01023592
0.010243193
0.01025005
0.010256535
0.010262691
0.010268554
0.010274151
0.010279495
0.01028458
0.010289377
0.010293834
0.010297875
0.010301403
0.010304303
0.010306451
0.010307707
0.010307931
0.01030699
0.010304775
0.010301208
0.010296253
0.010289927
0.010282321
0.0102736
0.010263996
0.010253795
0.010243285
0.010232703
0.010222161
0.010211602
0.010200773
0.010189131
0.010175608
0.010158227
0.010134152
0.010102339
0.010073595
0.010055056
0.010042223
0.010031251
0.010017138
0.0099975326
0.0099779149
0.0099712966
0.0099839346
0.010026974
0.010062159
0.010032551
0.01889486
0.019519353
0.012512382
0.011455304
0.010800692
0.010578911
0.010365587
0.010276304
0.010203244
0.010160826
0.010132064
0.010114755
0.010105412
0.010102072
0.01010318
0.010107676
0.010114758
0.010123746
0.010134041
0.010145234
0.010157008
0.010169034
0.010181058
0.010192863
0.010204277
0.010215167
0.01022544
0.010235043
0.010243949
0.01025216
0.010259702
0.010266619
0.010272966
0.010278803
0.01028419
0.010289187
0.010293846
0.010298211
0.010302309
0.010306153
0.010309732
0.010313018
0.010315958
0.010318476
0.010320472
0.010321831
0.010322426
0.010322126
0.010320802
0.010318341
0.010314654
0.010309692
0.010303455
0.010295996
0.010287434
0.010277958
0.010267806
0.010257249
0.010246538
0.010235844
0.010225199
0.01021445
0.010203242
0.010190918
0.010176309
0.010157476
0.010132164
0.010100894
0.010076434
0.010059203
0.010046389
0.01003473
0.010019264
0.0099977726
0.0099762247
0.0099682514
0.0099794859
0.010018571
0.010052115
0.01002935
0.017981299
0.018565782
0.01218917
0.011290515
0.010709154
0.010518315
0.010334347
0.01025823
0.010198673
0.010165277
0.010144598
0.010134045
0.010130569
0.010132327
0.010137936
0.010146322
0.010156669
0.010168343
0.010180859
0.010193788
0.010206768
0.010219512
0.010231799
0.010243447
0.010254329
0.01026436
0.0102735
0.010281745
0.010289124
0.010295684
0.010301494
0.010306634
0.010311187
0.010315237
0.010318861
0.010322127
0.010325093
0.010327801
0.010330277
0.010332526
0.010334535
0.010336269
0.010337671
0.010338662
0.010339145
0.010339004
0.010338113
0.010336344
0.010333578
0.010329716
0.010324687
0.010318465
0.010311074
0.010302594
0.010293163
0.010282974
0.010272258
0.010261257
0.010250177
0.010239129
0.010228076
0.010216799
0.010204872
0.010191573
0.010175713
0.010155547
0.010129614
0.010100906
0.010079428
0.010062905
0.010049942
0.010037672
0.01002149
0.0099990026
0.0099760631
0.0099670322
0.0099757566
0.010010935
0.01004157
0.010025528
0.017157493
0.017190451
0.011905708
0.011148239
0.010635384
0.010472598
0.010316834
0.010253463
0.010206962
0.010182711
0.010170071
0.010166264
0.010168576
0.01017528
0.010185059
0.010196895
0.010210019
0.010223823
0.010237811
0.010251577
0.010264816
0.010277287
0.010288823
0.010299313
0.010308699
0.010316969
0.010324151
0.010330305
0.010335515
0.010339878
0.010343499
0.010346488
0.010348948
0.010350978
0.010352659
0.010354061
0.010355237
0.010356223
0.010357036
0.010357672
0.010358109
0.010358306
0.0103582
0.010357709
0.010356735
0.010355163
0.01035287
0.01034973
0.01034563
0.010340479
0.010334219
0.01032684
0.010318382
0.010308941
0.010298661
0.010287729
0.010276359
0.010264758
0.010253089
0.010241416
0.01022966
0.010217571
0.010204703
0.010190342
0.010173363
0.010152285
0.010126514
0.010101542
0.01008196
0.010065876
0.010052663
0.010039932
0.010023707
0.010001324
0.0099775432
0.0099670406
0.0099723522
0.010005047
0.010032861
0.010021447
0.016418651
0.016336422
0.011667096
0.011028631
0.010580074
0.010442983
0.010314399
0.01026354
0.01022967
0.010214627
0.010209906
0.010212682
0.010220491
0.010231693
0.010245046
0.010259585
0.010274554
0.010289386
0.01030365
0.010317011
0.010329239
0.010340187
0.010349783
0.010358013
0.010364913
0.010370555
0.01037504
0.010378489
0.010381035
0.010382812
0.010383951
0.010384576
0.010384797
0.010384711
0.010384398
0.010383917
0.01038331
0.010382598
0.010381784
0.010380854
0.010379773
0.010378491
0.010376941
0.010375038
0.010372681
0.010369758
0.010366147
0.010361727
0.010356385
0.010350036
0.010342629
0.010334162
0.010324684
0.010314293
0.010303134
0.010291382
0.010279228
0.01026685
0.010254377
0.010241845
0.010229163
0.010216093
0.010202223
0.010186915
0.010169225
0.010148089
0.010123592
0.010101757
0.010083453
0.010067795
0.010054427
0.010041485
0.010025678
0.010004346
0.0099808728
0.0099682762
0.0099711234
0.010001307
0.010026334
0.010022751
0.01575606
0.015332054
0.011463586
0.010932012
0.010544027
0.010431025
0.010328557
0.010290246
0.010268599
0.0102627
0.010265589
0.010274472
0.010287078
0.01030185
0.010317618
0.010333488
0.0103488
0.010363081
0.01037602
0.010387409
0.010397153
0.010405234
0.010411703
0.010416657
0.010420227
0.010422563
0.010423827
0.010424184
0.010423795
0.010422813
0.010421374
0.0104196
0.010417593
0.010415438
0.010413199
0.010410918
0.010408619
0.010406305
0.010403962
0.010401561
0.010399054
0.01039638
0.010393466
0.010390226
0.010386559
0.010382354
0.010377494
0.010371861
0.010365344
0.010357861
0.010349361
0.010339843
0.010329356
0.010317997
0.010305903
0.010293237
0.010280172
0.010266866
0.010253428
0.010239892
0.010226181
0.010212096
0.010197302
0.010181292
0.010163365
0.01014285
0.010120207
0.010100782
0.010083641
0.010068612
0.010055378
0.010042544
0.010027482
0.010007849
0.0099857444
0.0099712248
0.0099724874
0.009997995
0.010020511
0.010020493
0.015163793
0.014659874
0.011297815
0.010858932
0.010528175
0.010438819
0.010361405
0.010335849
0.010325895
0.010328688
0.010338358
0.010352209
0.010368156
0.010384771
0.010401029
0.010416207
0.010429817
0.010441573
0.01045135
0.010459125
0.010464965
0.010468995
0.010471387
0.010472333
0.010472037
0.010470701
0.010468521
0.010465676
0.010462334
0.01045864
0.010454719
0.010450674
0.010446588
0.010442522
0.010438517
0.010434595
0.010430757
0.010426987
0.010423251
0.010419502
0.010415679
0.01041171
0.010407516
0.010403006
0.010398085
0.010392645
0.010386576
0.010379764
0.010372106
0.010363517
0.010353948
0.010343391
0.010331889
0.010319533
0.010306451
0.010292797
0.010278734
0.01026441
0.010249937
0.010235362
0.010220641
0.010205631
0.010190083
0.01017362
0.010155729
0.010136048
0.010115906
0.010098489
0.010082704
0.010068592
0.01005584
0.010043416
0.010029362
0.010011882
0.0099920384
0.0099763349
0.0099743434
0.0099932614
0.010017452
0.010018515
0.014635959
0.013907792
0.011166055
0.01081193
0.010534266
0.01046963
0.010415922
0.010402989
0.010403573
0.010413665
0.010428243
0.010444828
0.010461619
0.010477445
0.010491564
0.010503535
0.010513149
0.010520366
0.010525286
0.010528076
0.010528953
0.010528162
0.010525955
0.010522583
0.01051828
0.010513264
0.010507727
0.01050184
0.010495748
0.010489573
0.010483413
0.010477344
0.01047142
0.010465675
0.010460124
0.010454764
0.010449575
0.010444519
0.010439542
0.01043458
0.010429555
0.010424386
0.010418984
0.010413259
0.010407118
0.010400463
0.010393193
0.010385205
0.010376402
0.010366704
0.01035606
0.010344457
0.010331929
0.010318558
0.010304462
0.010289792
0.010274706
0.010259359
0.010243879
0.010228337
0.010212734
0.010196982
0.010180911
0.010164256
0.010146703
0.010128256
0.010110813
0.010095277
0.010081061
0.010068094
0.010056107
0.010044371
0.010031539
0.010016259
0.0099988817
0.0099835371
0.00997757
0.0099866442
0.01000794
0.010013851
0.014172055
0.01333076
0.011072995
0.010795629
0.010566022
0.01052744
0.010495143
0.01049343
0.010502008
0.01051646
0.010532639
0.010548497
0.0105627
0.010574515
0.010583604
0.010589892
0.010593482
0.010594587
0.010593495
0.010590516
0.010585964
0.010580139
0.010573321
0.010565764
0.010557691
0.010549297
0.010540746
0.010532175
0.010523693
0.010515387
0.010507321
0.010499539
0.010492065
0.010484906
0.010478049
0.01047147
0.010465125
0.010458956
0.010452892
0.010446847
0.010440731
0.010434448
0.010427905
0.010421009
0.010413672
0.010405806
0.010397323
0.010388133
0.010378154
0.010367315
0.010355568
0.010342898
0.010329333
0.010314947
0.010299852
0.010284196
0.010268142
0.010251856
0.010235488
0.010219147
0.010202877
0.010186646
0.010170357
0.010153886
0.010137144
0.010120313
0.0101053
0.010091648
0.010079077
0.010067379
0.01005634
0.010045515
0.010034073
0.010020987
0.010006065
0.0099917386
0.0099832063
0.0099832062
0.0099961982
0.010006981
0.013777331
0.012871383
0.011020941
0.010815088
0.01064778
0.010615208
0.010600051
0.010605894
0.010617955
0.010632138
0.010645386
0.01065632
0.010664256
0.010668996
0.010670637
0.010669449
0.010665785
0.010660029
0.01065257
0.010643771
0.010633963
0.010623436
0.010612439
0.010601187
0.010589859
0.0105786
0.010567531
0.010556742
0.010546305
0.010536266
0.010526655
0.010517486
0.010508754
0.010500441
0.010492513
0.010484922
0.010477605
0.010470486
0.010463474
0.010456469
0.010449366
0.010442057
0.010434443
0.010426428
0.010417928
0.010408864
0.01039916
0.010388745
0.010377552
0.010365525
0.01035263
0.01033886
0.010324246
0.010308859
0.010292813
0.010276257
0.010259359
0.010242298
0.010225244
0.010208341
0.010191679
0.010175285
0.010159119
0.010143139
0.010127454
0.010112678
0.010099755
0.010087972
0.010077023
0.010066656
0.010056702
0.010046945
0.01003689
0.010025785
0.010013294
0.010000499
0.0099901506
0.0099858697
0.0099900109
0.0099992427
0.013460931
0.012502496
0.011013853
0.010870306
0.010750438
0.010732092
0.010726861
0.010734095
0.01074346
0.010751827
0.010757376
0.010759539
0.010758296
0.010753923
0.010746844
0.010737531
0.010726449
0.010714028
0.010700645
0.010686627
0.01067225
0.010657741
0.010643285
0.01062903
0.010615096
0.010601573
0.01058853
0.010576016
0.010564059
0.010552674
0.010541861
0.010531604
0.010521878
0.010512643
0.010503847
0.010495423
0.010487292
0.010479362
0.010471527
0.010463675
0.010455688
0.010447451
0.010438857
0.010429809
0.010420223
0.010410022
0.01039914
0.010387517
0.010375102
0.010361861
0.01034778
0.010332874
0.01031719
0.010300815
0.010283873
0.010266521
0.010248935
0.0102313
0.010213798
0.01019659
0.010179806
0.010163523
0.010147767
0.010132553
0.010118073
0.010105604
0.010094571
0.010084576
0.010075221
0.010066241
0.010057492
0.010048864
0.01004007
0.010030642
0.010020345
0.01000952
0.0099993084
0.0099921701
0.009991175
0.0099967028
0.013239766
0.012235302
0.011054398
0.01096749
0.010883331
0.010869529
0.010865359
0.010866641
0.010866962
0.01086457
0.010858831
0.010849883
0.010838164
0.010824206
0.010808541
0.010791656
0.01077397
0.010755834
0.010737536
0.010719303
0.010701319
0.010683724
0.010666628
0.01065011
0.010634228
0.010619023
0.010604518
0.010590723
0.010577634
0.01056524
0.010553513
0.01054242
0.010531916
0.010521945
0.01051244
0.010503321
0.010494498
0.010485866
0.010477312
0.010468714
0.01045995
0.0104509
0.010441456
0.010431515
0.010420989
0.010409799
0.010397875
0.010385158
0.010371608
0.010357205
0.010341961
0.010325918
0.010309158
0.010291795
0.01027398
0.010255889
0.010237712
0.01021964
0.010201863
0.010184555
0.010167863
0.010151889
0.010136707
0.010122467
0.01010994
0.010099354
0.010090159
0.010081865
0.010074085
0.01006654
0.010059059
0.010051502
0.010043727
0.010035664
0.010027301
0.010018504
0.010009343
0.010001065
0.0099963374
0.0099969524
0.013111769
0.012068763
0.01114792
0.011095593
0.011031473
0.011013983
0.011001135
0.010989789
0.010976398
0.010960473
0.010942158
0.010921925
0.010900315
0.010877827
0.010854887
0.010831839
0.010808957
0.010786449
0.010764474
0.010743149
0.010722557
0.010702757
0.010683788
0.010665672
0.010648419
0.010632026
0.010616483
0.01060177
0.010587859
0.010574715
0.010562297
0.010550554
0.010539428
0.01052885
0.010518744
0.010509021
0.010499584
0.010490322
0.01048112
0.010471859
0.010462418
0.010452682
0.010442543
0.010431897
0.01042065
0.01040871
0.010395994
0.010382431
0.010367976
0.010352613
0.010336371
0.010319316
0.010301559
0.010283244
0.010264552
0.010245689
0.010226877
0.010208343
0.010190312
0.010172996
0.010156561
0.010141114
0.010126759
0.010113628
0.010103042
0.010094266
0.010086794
0.010080143
0.010073897
0.010067737
0.010061426
0.010054802
0.010047876
0.010040883
0.010033949
0.010026737
0.010018682
0.010009849
0.010002227
0.0099991156
0.013046385
0.011998298
0.011306228
0.01123801
0.011178224
0.011146672
0.011118273
0.011090759
0.011062464
0.011033399
0.011003841
0.010974161
0.010944694
0.01091571
0.010887416
0.01085996
0.010833443
0.010807932
0.010783467
0.010760069
0.010737742
0.010716482
0.010696274
0.010677097
0.010658924
0.010641725
0.010625463
0.0106101
0.01059559
0.010581884
0.010568926
0.010556655
0.010545003
0.010533895
0.010523244
0.01051296
0.01050294
0.010493079
0.010483267
0.010473391
0.010463344
0.010453023
0.010442329
0.010431161
0.01041942
0.010407002
0.010393804
0.010379736
0.010364736
0.010348781
0.010331898
0.010314162
0.01029569
0.010276635
0.010257187
0.010237583
0.010218104
0.010199052
0.010180711
0.010163312
0.010146991
0.010131771
0.010117844
0.010106587
0.01009763
0.010090471
0.010084583
0.010079457
0.010074635
0.010069726
0.010064438
0.010058627
0.010052368
0.010045944
0.010039653
0.010033372
0.010026072
0.010016635
0.010006741
0.010000669
0.013055094
0.011958603
0.011460716
0.011370969
0.011299771
0.011249954
0.011204613
0.011162229
0.011121527
0.011082327
0.011044581
0.011008321
0.010973571
0.010940342
0.010908625
0.010878398
0.010849627
0.010822273
0.010796291
0.010771635
0.010748256
0.010726107
0.010705138
0.010685301
0.010666546
0.010648822
0.010632079
0.010616263
0.010601317
0.010587182
0.010573793
0.010561081
0.01054897
0.010537378
0.010526216
0.010515389
0.010504799
0.010494345
0.010483927
0.01047345
0.010462821
0.010451957
0.010440771
0.010429175
0.01041707
0.010404345
0.010390886
0.010376584
0.010361361
0.010345184
0.010328077
0.010310113
0.010291406
0.010272096
0.010252372
0.01023249
0.010212781
0.010193577
0.010175094
0.010157427
0.010140763
0.010125563
0.01011251
0.010102412
0.010094659
0.010088725
0.010084071
0.010080151
0.010076446
0.010072505
0.010067979
0.010062688
0.010056706
0.010050426
0.010044313
0.010038189
0.010030738
0.010020788
0.010009543
0.01000189
0.01314705
0.011984504
0.011576707
0.011467778
0.011381237
0.011315658
0.011257541
0.011204958
0.011156287
0.011110882
0.011068305
0.011028269
0.010990553
0.010954979
0.010921395
0.010889671
0.010859689
0.010831348
0.010804554
0.010779221
0.010755272
0.010732635
0.01071124
0.010691023
0.010671922
0.010653875
0.010636821
0.010620698
0.010605442
0.010590986
0.010577259
0.010564185
0.010551682
0.010539663
0.010528036
0.010516706
0.010505576
0.010494552
0.010483542
0.010472464
0.010461243
0.010449808
0.010438089
0.010426009
0.010413476
0.010400381
0.010386603
0.010372026
0.010356562
0.010340179
0.010322907
0.010304842
0.010286125
0.010266927
0.010247458
0.010227979
0.010208779
0.010190123
0.010172199
0.010155176
0.010139313
0.010124899
0.010112059
0.010102383
0.010095139
0.010089797
0.010085809
0.010082607
0.0100796
0.010076234
0.010072098
0.010066971
0.010060905
0.010054317
0.010047687
0.010040958
0.010033067
0.01002274
0.010010859
0.010002314
0.013271535
0.012041503
0.011637796
0.011516708
0.011419987
0.011346182
0.011282039
0.011225017
0.011173066
0.011125212
0.011080787
0.011039342
0.011000538
0.010964114
0.010929857
0.01089759
0.010867166
0.010838455
0.010811346
0.010785738
0.010761543
0.010738678
0.010717069
0.010696646
0.010677339
0.010659085
0.010641818
0.010625472
0.010609979
0.010595269
0.010581267
0.010567893
0.010555061
0.010542682
0.010530661
0.010518902
0.010507309
0.010495789
0.010484255
0.01047263
0.010460843
0.01044883
0.010436526
0.010423859
0.010410741
0.010397062
0.010382695
0.010367514
0.01035142
0.010334374
0.01031642
0.010297685
0.010278352
0.010258641
0.010238791
0.010219059
0.010199661
0.01018085
0.010162867
0.010145949
0.010130176
0.010115786
0.010104608
0.010096283
0.010090329
0.010086187
0.01008331
0.010081199
0.010079393
0.01007722
0.010074082
0.010069627
0.010063754
0.010057003
0.010049844
0.010042562
0.010034199
0.010023521
0.010011352
0.010002467
54.424857
312.86284
100.43154
10.931075
0.29358722
0.02189265
0.02134753
0.021078573
0.020879877
0.01976595
0.018269287
0.016972227
0.016002031
0.015380029
0.0149335
0.014499644
0.014071268
0.013695772
0.013386736
0.01313086
0.012913619
0.012726289
0.01256351
0.012421189
0.012295952
0.012185047
0.012086281
0.011997902
0.011918524
0.011847053
0.011782587
0.011724349
0.011671654
0.011623913
0.011580647
0.011541462
0.011506018
0.011474001
0.011445112
0.011419065
0.011395594
0.011374436
0.011355323
0.011337992
0.011322182
0.011307633
0.011294072
0.011281213
0.011268775
0.01125653
0.011244371
0.011232358
0.011220591
0.011208758
0.0111955
0.011178055
0.011152874
0.011117167
0.01107069
0.011016773
0.010961923
0.01091701