/*--------------------------------*- C++ -*----------------------------------*\
  =========                 |
  \\      /  F ield         | OpenFOAM: The Open Source CFD Toolbox
   \\    /   O peration     | Website:  https://openfoam.org
    \\  /    A nd           | Version:  12
     \\/     M anipulation  |
\*---------------------------------------------------------------------------*/
FoamFile
{
    format      ascii;
    class       volScalarField;
    location    "0.036";
    object      omega;
}
// * * * * * * * * * * * * * * * * * * * * * * * * * * * * * * * * * * * * * //

dimensions      [0 0 -1 0 0 0 0];

internalField   nonuniform List<scalar> 
16000
(
1090.7197
2200.9663
1091.8802
653.07845
461.60745
320.57294
243.80262
183.80925
148.26828
119.79606
101.84251
87.053084
76.209922
67.100873
59.693969
53.445218
48.173954
43.677704
39.814918
36.471535
33.562221
31.015053
28.770591
26.781609
25.009972
23.426017
22.00514
20.728351
19.579635
18.544403
17.609377
16.764032
15.999987
15.31016
14.688524
14.129488
13.627792
13.178449
12.77726
12.420712
12.104879
11.825586
11.579796
11.364799
11.177513
11.014751
10.874051
10.753107
10.649721
10.561802
10.487469
10.425052
10.372936
10.329647
10.293849
10.264407
10.240373
10.221155
10.207143
10.200057
10.19871
10.197558
10.193842
10.188001
10.180132
10.170118
10.15778
10.142153
10.119998
10.08509
10.038212
10.00373
9.9872092
9.9819992
9.9828622
9.99356
10.014278
10.03293
10.019298
10.017025
1132.1402
2189.0976
1080.0028
651.95654
460.63581
322.86093
244.23067
185.19933
148.71433
120.57277
102.14861
87.443088
76.409356
67.28077
59.801272
53.517375
48.21069
43.689896
39.80847
36.450968
33.531348
30.977609
28.729482
26.739111
24.967418
23.38444
21.964943
20.689618
19.542544
18.509418
17.576744
16.733675
15.971712
15.283673
14.663578
14.10591
13.605532
13.157415
12.757184
12.401439
12.086561
11.808173
11.563084
11.348699
11.162132
11.000057
10.859967
10.73957
10.636684
10.549208
10.475217
10.413046
10.361062
10.317778
10.281828
10.252071
10.227578
10.207667
10.192293
10.182655
10.179471
10.177563
10.173184
10.166756
10.158454
10.148189
10.135787
10.12033
10.098883
10.066165
10.02329
9.9941996
9.9815682
9.9785136
9.9806711
9.991037
10.011771
10.033904
10.015077
10.022603
1171.9446
2189.0682
1064.5269
647.1645
456.24826
322.43415
242.53438
184.97432
147.90188
120.48318
101.77245
87.287119
76.154898
67.055755
59.55771
53.276172
47.969873
43.453778
39.579568
36.230447
33.320136
30.776889
28.540037
26.561551
24.801655
23.230369
21.822061
20.557199
19.419906
18.39626
17.472741
16.638271
15.884303
15.203585
14.590195
14.038674
13.544027
13.101289
12.70592
12.354498
12.043784
11.769303
11.527691
11.316373
11.132724
10.97332
10.835607
10.717305
10.616259
10.530383
10.457718
10.396616
10.345446
10.30273
10.267095
10.237404
10.212768
10.192547
10.176534
10.165392
10.160295
10.157543
10.152527
10.145622
10.137047
10.126732
10.114493
10.099362
10.078477
10.047474
10.009161
9.9858029
9.9771774
9.9757476
9.9790096
9.9892633
10.009559
10.034143
10.013012
10.028209
1209.9624
2196.1261
1052.1121
642.64096
451.58286
321.90734
240.61283
184.63935
146.98531
120.31744
101.36952
87.086287
75.87603
66.796879
59.286076
53.007107
47.703247
43.193182
39.327758
35.988523
33.088862
30.55738
28.332977
26.367562
24.620583
23.062081
21.666045
20.412695
19.286112
18.272799
17.359285
16.534235
15.789068
15.116431
14.510467
13.965757
13.477443
13.040672
12.65077
12.304161
11.998053
11.727925
11.490231
11.282317
11.101886
10.945429
10.81033
10.694311
10.595241
10.511071
10.439796
10.379796
10.329449
10.2873
10.251987
10.222376
10.197616
10.177112
10.16062
10.148537
10.14176
10.138248
10.132766
10.125619
10.117034
10.106954
10.095158
10.080601
10.060458
10.031341
9.9981152
9.9802794
9.9749481
9.9742068
9.9779888
9.9879527
10.007382
10.030845
10.012222
10.031986
1246.0153
2214.0024
1041.4151
638.04019
446.28766
320.68256
238.07112
183.85218
145.73123
119.89342
100.801
86.723061
75.472852
66.417387
58.910163
52.6434
47.351938
42.855962
39.00662
35.683767
32.800419
30.285721
28.078172
26.129815
24.399386
22.857012
21.476361
20.23745
19.124223
18.123637
17.222393
16.408894
15.674551
15.011898
14.415149
13.878913
13.398449
12.969065
12.586035
12.245472
11.945059
11.680308
11.447527
11.243842
11.067353
10.914497
10.782582
10.669333
10.572632
10.490502
10.420885
10.362205
10.312853
10.271419
10.236567
10.20718
10.182443
10.161813
10.145052
10.13239
10.124488
10.120334
10.11455
10.107379
10.09901
10.089389
10.078238
10.064395
10.045043
10.017787
9.9899006
9.9772011
9.973944
9.9737941
9.9776897
9.9872851
10.005756
10.026859
10.012181
10.033624
1279.9665
2239.5559
1035.8257
634.30656
441.67356
318.88959
235.12263
182.69574
144.25185
119.2526
100.11146
86.220542
74.964834
65.934958
58.444582
52.198408
46.927548
42.452422
38.625182
35.324169
32.461883
29.968241
27.78131
25.853316
24.142589
22.619264
21.256733
20.034872
18.937389
17.951683
17.064763
16.264748
15.543081
14.89215
14.306251
13.780016
13.308794
12.888068
12.513191
12.179841
11.886104
11.627619
11.400648
11.20193
11.030003
10.881307
10.75306
10.642998
10.548992
10.469182
10.401451
10.344278
10.296079
10.255499
10.221252
10.192247
10.167707
10.147137
10.13033
10.117444
10.108931
10.104324
10.098415
10.091429
10.083476
10.074485
10.064105
10.051046
10.032527
10.007095
9.9844593
9.9756296
9.9735646
9.9738111
9.9780041
9.9869666
10.004361
10.023905
10.01222
10.032628
1311.775
2270.2683
1034.9174
630.7991
437.25346
316.51316
232.17977
181.20626
142.66952
118.39886
99.308754
85.577106
74.347287
65.346946
57.88551
51.668605
46.426475
41.979125
38.179926
34.906364
32.070073
29.601954
27.439709
25.535118
23.847458
22.346345
21.0049
19.802935
18.723831
17.755379
16.885046
16.100641
15.393682
14.756382
14.183126
13.668562
13.208114
12.797411
12.432032
12.107315
11.821302
11.569986
11.349754
11.156797
10.990059
10.846083
10.721993
10.615542
10.524556
10.447354
10.381746
10.326288
10.279422
10.239864
10.206394
10.177963
10.153833
10.133557
10.116948
10.104142
10.095486
10.090648
10.08478
10.078146
10.07075
10.062479
10.052881
10.040568
10.022886
9.9991984
9.9813433
9.9750832
9.9735331
9.9745794
9.9786367
9.9865696
10.002628
10.020608
10.012252
10.029409
1341.5553
2303.5439
1035.6153
627.01881
432.95337
313.53571
229.27073
179.53528
140.96742
117.35066
98.407781
84.800595
73.620135
64.654612
57.232245
51.052702
45.84694
41.434294
37.668188
34.427651
31.622404
29.18436
27.051265
25.171242
23.510169
22.034688
20.717566
19.538641
18.480873
17.532341
16.681137
15.914729
15.224766
14.603239
14.044629
13.5436
13.095642
12.696488
12.341991
12.0281
11.75092
11.50766
11.295078
11.108807
10.947864
10.809135
10.689678
10.587249
10.499592
10.425274
10.362025
10.308493
10.263157
10.224804
10.192301
10.164652
10.141165
10.121441
10.105303
10.09285
10.08439
10.079569
10.073881
10.067706
10.060936
10.053385
10.044472
10.032737
10.015844
9.9939563
9.9802782
9.9756467
9.9750114
9.9765176
9.9791176
9.9856125
10.000207
10.017516
10.012773
10.026142
1369.3997
2337.1218
1032.7411
622.50184
427.67158
309.9092
225.41864
177.49097
138.93308
116.13919
97.401366
83.888612
72.774881
63.85215
56.4788
50.344052
45.182431
40.812119
37.081212
33.879271
31.110516
28.707476
26.608927
24.761979
23.131628
21.685665
20.396413
19.243877
18.210563
17.284695
16.455183
15.709155
15.038454
14.4348
13.89278
13.407072
12.973233
12.587095
12.244578
11.941611
11.674556
11.440334
11.236314
11.058217
10.903682
10.770689
10.656403
10.558397
10.47437
10.403197
10.342538
10.291143
10.247538
10.210585
10.179249
10.152599
10.129987
10.11107
10.095681
10.083846
10.075783
10.071184
10.065778
10.060101
10.05395
10.047043
10.038627
10.027165
10.010892
9.991273
9.9811794
9.9779214
9.9777517
9.9781253
9.9791165
9.9838366
9.9970723
10.01563
10.018062
10.023219
1395.3939
2369.3973
1023.1788
616.97396
420.70341
305.89915
220.80443
175.00107
136.92723
114.75868
96.276746
82.834452
71.802096
62.930444
55.616164
49.528807
44.418168
40.098432
36.416641
33.261401
30.536295
28.174318
26.115626
24.305881
22.710697
21.298308
20.040662
18.918061
17.912543
17.012274
16.207109
15.483974
14.834936
14.251367
13.727973
13.259439
12.841388
12.469745
12.140601
11.849946
11.594059
11.369715
11.174824
11.004788
10.857378
10.730599
10.622394
10.529202
10.449158
10.38137
10.323525
10.27447
10.232794
10.197433
10.167464
10.142023
10.120499
10.102606
10.088209
10.077253
10.069779
10.065424
10.060361
10.055154
10.049549
10.043148
10.035002
10.023457
10.007446
9.9910127
9.9835874
9.9811449
9.9803257
9.9791378
9.9786371
9.9814775
9.9930871
10.014678
10.02644
10.02058
1419.6467
2399.9617
1013.244
610.43783
412.11394
301.52366
216.03032
172.33404
134.83137
113.21207
95.018743
81.629719
70.688816
61.867748
54.620728
48.601158
43.554698
39.296446
35.67182
32.571462
29.897271
27.582661
25.569628
23.802558
22.247258
20.872684
19.650618
18.561708
17.58755
16.716045
15.937674
15.240021
14.615129
14.053923
13.551227
13.101736
12.701134
12.345426
12.030878
11.753576
11.509888
11.296372
11.111331
10.95012
10.810339
10.689961
10.587514
10.499556
10.424169
10.359983
10.30521
10.258687
10.219125
10.185532
10.157106
10.133066
10.112816
10.096107
10.082859
10.072986
10.066312
10.062082
10.05737
10.052555
10.047359
10.041265
10.033163
10.021362
10.005448
9.9926725
9.9869442
9.9845103
9.9825959
9.9797691
9.9775889
9.9788719
9.9893769
10.013296
10.028931
10.017166
1442.2991
2429.8291
998.86771
602.27299
402.23193
296.76481
211.10453
169.43626
132.72952
111.5016
93.598596
80.242822
69.396048
60.656483
53.495039
47.556911
42.587404
38.401958
34.844651
31.807932
29.192551
26.932022
24.970648
23.251895
21.741642
20.40897
19.226696
18.17546
17.236429
16.397221
15.646804
14.97727
14.379085
13.8426
13.36274
12.934196
12.552732
12.214405
11.915696
11.652808
11.422238
11.221137
11.046473
10.894537
10.762881
10.649336
10.552935
10.470308
10.399311
10.338953
10.287736
10.243963
10.206683
10.175005
10.148258
10.125769
10.106943
10.091525
10.079485
10.070761
10.065011
10.060821
10.056408
10.051867
10.046894
10.040848
10.032532
10.020516
10.005257
9.9953217
9.9904499
9.9876348
9.9846012
9.9802468
9.9764349
9.9764953
9.9859087
10.010255
10.028117
10.014432
1463.667
2457.5518
980.66381
593.50181
391.99298
291.63712
206.13708
166.35863
130.58936
109.60445
91.949511
78.655806
67.927761
59.289505
52.231501
46.391515
41.512768
37.412645
33.933301
30.96927
28.421356
26.222337
24.318501
22.654108
21.194693
19.906343
18.768228
17.758868
16.858856
16.056064
15.339423
14.700596
14.131536
13.621977
13.16689
12.760935
12.400014
12.080193
11.798218
11.550498
11.333436
11.144095
10.980361
10.838142
10.715031
10.609137
10.518838
10.44175
10.375478
10.318928
10.270958
10.230363
10.195548
10.165902
10.140915
10.120063
10.102762
10.088702
10.077857
10.070197
10.065324
10.061184
10.056964
10.052546
10.047574
10.041284
10.032429
10.020026
10.006273
9.9982149
9.9936647
9.9904358
9.9864531
9.9807232
9.9755188
9.9746721
9.9830346
10.006392
10.024809
10.012592
1483.9653
2479.3599
958.38361
584.16353
381.33853
286.17954
201.20614
163.10443
128.33638
107.42298
90.054113
76.856431
66.269973
57.757608
50.8231
45.099438
40.326647
36.325192
32.935835
30.054172
27.583099
25.454027
23.611377
22.007519
20.605604
19.371006
18.282055
17.319143
16.462254
15.699348
15.01917
14.413575
13.875452
13.394726
12.966086
12.584085
12.244863
11.944452
11.679839
11.447801
11.244829
11.067848
10.91513
10.782751
10.668182
10.569334
10.485222
10.413706
10.352689
10.300174
10.25542
10.21766
10.185671
10.158188
10.134987
10.115772
10.100024
10.087348
10.077671
10.070923
10.066723
10.0626
10.058431
10.053962
10.048764
10.041985
10.032389
10.019498
10.007994
10.000989
9.9965244
9.9929614
9.9882312
9.9814184
9.9748514
9.9732959
9.981004
10.002866
10.020706
10.011253
1503.461
2490.4793
932.11146
574.24276
370.33991
280.41978
196.38184
159.59066
125.8477
104.96283
87.883808
74.825804
64.40924
56.049893
49.261798
43.674686
39.0258
35.137176
31.851458
29.059094
26.674557
24.625168
22.857557
21.321863
19.984045
18.808601
17.773924
16.861432
16.051481
15.331872
14.691141
14.121059
13.613871
13.16335
12.762439
12.405384
12.088704
11.808371
11.561521
11.345432
11.156722
10.993071
10.851331
10.728747
10.622892
10.531365
10.453294
10.387018
10.330678
10.28271
10.241273
10.206214
10.17672
10.151696
10.130308
10.112649
10.098387
10.087055
10.078511
10.072543
10.068621
10.064447
10.06017
10.055471
10.049858
10.042488
10.032368
10.019703
10.010041
10.003574
9.9990957
9.9952457
9.9899789
9.9823942
9.9747776
9.9723751
9.9797112
9.9999583
10.016763
10.010016
1522.3774
2479.6682
902.27853
563.75535
359.04031
274.36235
191.65322
155.68766
123.04467
102.17787
85.407821
72.540302
62.328751
54.154599
47.539765
42.111522
37.607111
33.842206
30.675388
27.992651
25.708098
23.749142
22.064984
20.605325
19.337898
18.227684
17.252254
16.392009
15.632043
14.958387
14.359217
13.826908
13.353948
12.934178
12.561618
12.229891
11.936012
11.67597
11.446826
11.246597
11.071615
10.919918
10.789097
10.67612
10.57888
10.495289
10.423255
10.362092
10.310067
10.266142
10.228444
10.196057
10.168842
10.145997
10.126615
10.110407
10.09748
10.087348
10.079831
10.074606
10.070453
10.066126
10.061592
10.056526
10.050411
10.042482
10.032092
10.020528
10.012143
10.005954
10.00139
9.997282
9.9917235
9.9836937
9.97533
9.9718908
9.9788642
9.9973536
10.012653
10.008462
1540.881
2427.3114
870.49552
552.74067
347.48862
267.91505
186.70544
151.36487
119.8127
99.019097
82.591562
69.974575
60.012133
52.061734
45.65007
40.40018
36.062914
32.451902
29.423956
26.865912
24.695201
22.838014
21.246382
19.870496
18.676937
17.636663
16.725151
15.923055
15.215174
14.589297
14.032921
13.538961
13.100235
12.711075
12.366542
12.059953
11.788593
11.548737
11.337086
11.152396
10.990968
10.850848
10.730413
10.626601
10.537275
10.460725
10.395203
10.339032
10.291079
10.250844
10.21647
10.187042
10.161937
10.141054
10.12344
10.108739
10.096952
10.087808
10.081037
10.076296
10.071755
10.067147
10.062255
10.056771
10.050196
10.041881
10.031558
10.021611
10.014037
10.008023
10.003344
9.9990361
9.9934397
9.9854018
9.9766266
9.9725559
9.9782202
9.9954046
10.009368
10.0068
1558.8295
2393.0273
838.49921
541.12602
335.68155
260.53092
181.60887
146.51747
116.03758
95.427895
79.399508
67.104239
57.443838
49.762913
43.580244
38.552359
34.41483
30.981729
28.113825
25.697503
23.653797
21.909398
20.415293
19.130216
18.018702
17.051946
16.206741
15.464168
14.80911
14.23117
13.71773
13.262007
12.857266
12.497923
12.179212
11.897025
11.647376
11.427167
11.233529
11.063721
10.915429
10.786331
10.675596
10.580483
10.498664
10.428551
10.368611
10.317431
10.273733
10.236858
10.205513
10.178699
10.155815
10.136644
10.120624
10.107277
10.096462
10.088125
10.081811
10.077106
10.072178
10.067189
10.061905
10.056044
10.049182
10.04085
10.031083
10.0225
10.015481
10.009656
10.004914
10.00051
9.9950531
9.987393
9.9788052
9.9742037
9.9783718
9.9942453
10.0071
10.007572
1575.7689
2349.853
805.60848
528.56951
323.51296
251.97368
176.16828
141.02968
111.61051
91.342906
75.798004
63.908489
54.6053
47.243905
41.355823
36.590663
32.68699
29.458267
26.770478
24.511809
22.603038
20.981269
19.595368
18.405109
17.377762
16.486032
15.707674
15.024726
14.42188
13.889292
13.417689
12.998993
12.627091
12.296941
12.004234
11.745055
11.515878
11.313682
11.135902
10.980237
10.844591
10.726878
10.625124
10.538034
10.463204
10.399104
10.34432
10.29761
10.257862
10.224075
10.195462
10.171042
10.150209
10.132521
10.117837
10.105581
10.095654
10.087978
10.082044
10.076831
10.071514
10.066117
10.060468
10.054333
10.04739
10.039343
10.030388
10.022859
10.016356
10.010818
10.006144
10.001776
9.9965906
9.9895533
9.9815245
9.9765979
9.9790006
9.9929936
10.005139
10.006903
1591.0465
2282.6967
771.07283
514.57051
310.21516
242.09365
170.06839
134.76137
106.43091
86.705377
71.761465
60.368504
51.514293
44.552871
39.013404
34.554057
30.917641
27.91667
25.421935
23.334043
21.573921
20.080307
18.805457
17.711626
16.768444
15.95071
15.237283
14.6106
14.058881
13.571249
13.139301
12.755714
12.414724
12.111703
11.842916
11.605072
11.394975
11.209693
11.046819
10.904094
10.779648
10.671836
10.579228
10.499396
10.430929
10.372309
10.322199
10.279432
10.243008
10.212353
10.186117
10.163756
10.144681
10.128467
10.114911
10.103541
10.094241
10.086956
10.081168
10.075421
10.069714
10.063945
10.058002
10.051701
10.044801
10.037132
10.029273
10.022621
10.016712
10.011583
10.007124
10.002918
9.998119
9.9918995
9.9846823
9.9794244
9.9801842
9.9910644
10.004042
10.006394
1603.5665
2213.9499
734.01911
498.5518
296.13546
230.69152
162.8395
127.54535
100.42241
81.486089
67.284922
56.525962
48.233105
41.749049
36.612722
32.495605
29.153155
26.394166
24.108942
22.198933
20.590673
19.226976
18.063082
17.063993
16.202104
15.454923
14.802046
14.230084
13.726062
13.280042
12.884884
12.533824
12.221535
11.943665
11.69678
11.478172
11.285366
11.115397
10.966158
10.835452
10.721397
10.623009
10.537854
10.464617
10.401813
10.348099
10.302206
10.263054
10.229739
10.201491
10.177361
10.15676
10.139182
10.124222
10.111614
10.10099
10.092174
10.085055
10.079083
10.072924
10.066861
10.060801
10.054663
10.048309
10.041578
10.034458
10.027774
10.021932
10.016699
10.012067
10.00794
10.004019
9.9997252
9.9944489
9.9882858
9.9830363
9.9822308
9.9886103
9.9998505
10.004791
1610.5406
2130.7677
694.19099
478.8134
280.99885
217.44422
154.00898
119.24546
93.586232
75.73392
62.453456
52.489533
44.858843
38.918966
34.227897
30.476653
27.4392
24.937253
22.864751
21.133376
19.67518
18.438078
17.381268
16.472722
15.687197
15.004677
14.408987
13.886549
13.426359
13.018252
12.656351
12.334671
12.048401
11.793516
11.566664
11.365225
11.18781
11.031402
10.894203
10.774352
10.670012
10.579419
10.501107
10.433673
10.375818
10.326362
10.284163
10.248064
10.21754
10.19141
10.169056
10.149911
10.133546
10.119643
10.10778
10.097766
10.0894
10.082418
10.075928
10.069474
10.063142
10.056903
10.050697
10.044444
10.03808
10.031667
10.026033
10.020998
10.016468
10.012382
10.008667
10.005139
10.001436
9.9970996
9.992039
9.9872944
9.9850731
9.9873128
9.9950323
10.001863
1606.8167
2028.6134
651.06879
453.05265
264.62572
202.00283
143.33898
109.88922
86.075696
69.578836
57.453553
48.406987
41.510953
36.158001
31.936258
28.561221
25.8293
23.583063
21.718946
20.159544
18.843886
17.725651
16.768598
15.944185
15.229785
14.607434
14.062786
13.58408
13.161569
12.787352
12.454897
12.159114
11.895743
11.66128
11.452756
11.267619
11.103675
10.959091
10.832104
10.721128
10.624652
10.54112
10.468819
10.406523
10.352968
10.307091
10.268178
10.234847
10.206355
10.182023
10.161183
10.14324
10.12793
10.114726
10.103411
10.093789
10.085723
10.078811
10.071972
10.065303
10.058817
10.052526
10.046389
10.04036
10.03446
10.02894
10.024212
10.019985
10.016157
10.012649
10.009408
10.006345
10.003239
9.9997465
9.9956998
9.9915634
9.9886353
9.9886819
9.9926081
9.998531
1586.2405
1897.8973
604.85269
420.591
247.02213
184.16322
131.05637
99.806239
78.24216
63.346481
52.506002
44.443484
38.312682
33.559441
29.809523
26.805605
24.367166
22.363846
20.695134
19.294677
18.10923
17.098453
16.230863
15.481547
14.830534
14.261751
13.762425
13.32268
12.933864
12.589024
12.282154
12.008758
11.76502
11.54782
11.354527
11.182882
11.030891
10.896751
10.77881
10.675538
10.585583
10.508065
10.440947
10.383111
10.333409
10.290791
10.254315
10.223123
10.196339
10.173379
10.153813
10.136908
10.122292
10.109658
10.098763
10.089459
10.081486
10.074531
10.067484
10.060693
10.054161
10.047922
10.041965
10.036271
10.030896
10.026383
10.022483
10.019041
10.015914
10.013016
10.010303
10.007726
10.005145
10.002347
9.9992348
9.9959766
9.9930989
9.9916951
9.9930265
9.9975361
1540.0084
1738.4742
556.69495
382.21219
229.12413
164.20492
117.85136
89.62251
70.541649
57.359487
47.83463
40.759046
35.381229
31.208462
27.909295
25.256804
23.092715
21.304714
19.811349
18.551773
17.480701
16.563465
15.773105
15.088288
14.491823
13.969523
13.508984
13.102276
12.741714
12.421837
12.13666
11.882239
11.655152
11.452594
11.272191
11.111903
10.969923
10.844617
10.734473
10.638075
10.554085
10.481233
10.418293
10.363941
10.317159
10.276946
10.242453
10.213091
10.187803
10.166035
10.14725
10.131013
10.116934
10.104698
10.094164
10.085035
10.077129
10.069903
10.062763
10.055921
10.049421
10.043306
10.037589
10.032312
10.027789
10.024104
10.021016
10.018327
10.015895
10.013627
10.011466
10.009348
10.007191
10.004959
10.002673
10.000289
9.9978134
9.995778
9.9954123
9.997822
1459.986
1577.0556
507.57105
342.69136
205.13279
144.89487
104.66404
80.022756
63.427106
51.930112
43.655137
37.50961
32.827985
29.181477
26.284342
23.942339
22.020332
20.422391
19.079222
17.94002
16.965944
16.127442
15.401386
14.769442
14.216835
13.731511
13.303531
12.924645
12.588144
12.288437
12.020883
11.781822
11.568178
11.377408
11.207352
11.056136
10.922096
10.803704
10.699536
10.608242
10.528552
10.459335
10.399817
10.348366
10.304076
10.265991
10.233266
10.205133
10.18091
10.159948
10.141771
10.125972
10.112299
10.100337
10.089905
10.080828
10.072877
10.065411
10.058168
10.051309
10.044902
10.038993
10.033614
10.028803
10.02512
10.02223
10.019908
10.017952
10.016199
10.014536
10.012879
10.011156
10.009358
10.007587
10.005932
10.00425
10.002227
9.9998707
9.9981777
9.9986595
1347.9722
1488.9091
461.35086
295.26578
181.29348
126.77544
92.7469
71.522626
57.2708
47.35178
40.185644
34.846244
30.755989
27.548026
24.980829
22.890898
21.16446
19.720222
18.497968
17.455653
16.559859
15.785132
15.111401
14.522625
14.005793
13.550261
13.147207
12.789351
12.470772
12.18699
11.933098
11.705893
11.502557
11.320768
11.158548
11.01418
10.88613
10.772996
10.673462
10.586274
10.51022
10.444115
10.386796
10.337286
10.294595
10.257834
10.22619
10.198957
10.175625
10.155366
10.137749
10.122357
10.108871
10.097037
10.086648
10.077534
10.069463
10.061744
10.054371
10.04746
10.04108
10.035237
10.030008
10.025984
10.022991
10.020805
10.019192
10.017931
10.016828
10.015721
10.014496
10.013103
10.011583
10.010072
10.008726
10.007475
10.005766
10.003072
10.000261
9.9992539
1215.4604
1247.9133
421.08107
252.95742
159.1395
111.668
82.883701
64.658794
52.407661
43.825719
37.578288
32.880362
29.247898
26.373042
24.052603
22.148404
20.563817
19.229614
18.095093
17.122326
16.282518
15.553283
14.916911
14.359112
13.868144
13.434233
13.049417
12.70699
12.40141
12.128083
11.883241
11.663735
11.466968
11.290761
11.133258
10.992842
10.868068
10.757611
10.660231
10.574763
10.50015
10.435604
10.379564
10.331148
10.289397
10.253445
10.222487
10.195796
10.172725
10.15272
10.135299
10.120066
10.1067
10.094946
10.084606
10.07552
10.067461
10.059673
10.052242
10.045204
10.038653
10.032787
10.027901
10.024344
10.021847
10.020179
10.01911
10.018402
10.017825
10.017171
10.016285
10.015106
10.013688
10.012233
10.010968
10.009768
10.007942
10.005014
10.001648
9.9997057
1096.3116
1109.9935
388.3125
222.21272
142.55783
100.54082
75.572628
59.65978
48.932567
41.351778
35.776473
31.543136
28.239258
25.601988
23.456588
21.683406
20.198172
18.940115
17.864473
16.937626
16.133844
15.433056
14.819323
14.279855
13.804653
13.383539
13.009324
12.675677
12.377382
12.110086
11.870188
11.654713
11.461194
11.287564
11.132066
10.993171
10.869512
10.759833
10.662956
10.577757
10.503154
10.438107
10.381626
10.332742
10.290547
10.254179
10.22284
10.195799
10.172406
10.152099
10.134406
10.118941
10.105385
10.093485
10.083042
10.073908
10.065891
10.058397
10.05121
10.044454
10.038243
10.032701
10.027881
10.024473
10.022159
10.020716
10.019915
10.019518
10.019273
10.018923
10.018223
10.01712
10.015657
10.014057
10.012536
10.011017
10.008988
10.005898
10.002196
10.000016
1041.5728
1069.0538
363.99527
205.11348
131.66741
92.961888
70.111124
55.681828
45.970587
39.096252
34.023529
30.153685
27.120252
24.688692
22.702965
21.05582
19.671471
18.495093
17.486201
16.614342
15.856198
15.193572
14.611983
14.099666
13.646884
13.245475
12.888508
12.570128
12.285394
12.030166
11.801001
11.595043
11.409924
11.243668
11.094602
10.961278
10.842411
10.736828
10.643431
10.561172
10.489043
10.426069
10.371307
10.323852
10.282836
10.247436
10.216879
10.190453
10.167522
10.147536
10.130047
10.114702
10.101226
10.089405
10.079058
10.070022
10.062048
10.054466
10.047269
10.040563
10.034392
10.028856
10.024751
10.021911
10.020111
10.019165
10.018881
10.018859
10.01912
10.019343
10.019104
10.01832
10.016925
10.015224
10.013462
10.011719
10.009489
10.006212
10.002357
10.000175
28414.141
77501.87
34423.39
9282.8946
1280.5271
623.17557
448.24751
363.28598
301.74488
245.79165
200.04575
165.39956
139.89076
121.12416
106.71049
94.821991
84.670437
75.996854
68.583685
62.195287
56.637537
51.768709
47.480975
43.686158
40.316497
37.304863
34.603799
32.17143
29.974191
27.98563
26.183383
24.547627
23.06096
21.707886
20.476052
19.355214
18.336225
17.41102
16.572293
15.813327
15.128236
14.511325
13.957425
13.46186
13.020006
12.627556
12.280719
11.975447
11.707959
11.474893
11.273013
11.099188
10.950282
10.823417
10.715251
10.622244
10.541162
10.469464
10.41347
10.377532
10.354224
10.336723
10.326856
10.324565
10.325081
10.324139
10.330848
10.345688
10.362653
10.376115
10.381656
10.381392
10.367841
10.316229
10.203186
10.095377
10.032616
9.997651
9.9956245
10.046556
21392.158
54142.05
21694.813
4356.0743
970.73019
543.1873
412.41227
333.90788
275.23981
221.99513
181.61722
151.67441
129.86125
113.65315
100.79222
89.873064
80.504403
72.515776
65.666323
59.728747
54.537468
49.972744
45.939566
42.358942
39.166411
36.306435
33.735545
31.414361
29.313107
27.407951
25.678243
24.105584
22.67386
21.368704
20.178986
19.095228
18.10887
17.212416
16.399003
15.662315
14.996836
14.397123
13.858321
13.375986
12.945665
12.563274
12.225211
11.927512
11.666565
11.439144
11.242107
11.072409
10.927002
10.8031
10.697418
10.606366
10.526893
10.456375
10.40246
10.368832
10.347305
10.332123
10.325001
10.324394
10.325086
10.325654
10.334154
10.348883
10.363933
10.374923
10.378927
10.376621
10.361127
10.298452
10.186066
10.082428
10.025923
9.9958589
9.9957869
10.046526
30126.316
30421.024
11629.213
2259.0497
841.72334
515.50671
403.60875
319.38231
262.23136
210.50843
173.89207
145.81279
125.47336
110.15991
97.811315
87.263559
78.2641
70.601321
64.013857
58.290921
53.281979
48.874148
44.976106
41.511987
38.418224
35.645257
33.150802
30.896292
28.85405
27.001182
25.317756
23.786047
22.390588
21.117562
19.956539
18.898373
17.934821
17.058715
16.263432
15.542881
14.89177
14.304792
13.777298
13.304979
12.883483
12.50888
12.177691
11.885991
11.63029
11.407453
11.214398
11.048141
10.905717
10.784417
10.680805
10.591476
10.513467
10.444136
10.392299
10.360908
10.341273
10.328604
10.323484
10.324451
10.325616
10.327742
10.33732
10.351301
10.364342
10.373178
10.375772
10.371273
10.353569
10.27971
10.169253
10.070735
10.020793
9.9944308
9.996394
10.046403
36215.557
22667.325
7688.5103
1497.8615
777.37478
494.29784
391.79054
304.12157
251.3857
200.11598
166.93684
140.14768
121.27413
106.77937
94.933053
84.766869
76.128281
68.768062
62.424644
56.904414
52.067848
47.807897
44.037146
40.68294
37.684953
34.992734
32.570508
30.379637
28.394078
26.591631
24.953063
23.461258
22.101329
20.859958
19.727386
18.694723
17.754031
16.898441
16.121536
15.417438
14.78106
14.207211
13.691448
13.229576
12.817335
12.450951
12.127051
11.841743
11.591663
11.373762
11.185017
11.022509
10.88343
10.764847
10.663512
10.576075
10.499683
10.43177
10.382324
10.353386
10.335918
10.325862
10.322561
10.324872
10.326584
10.330242
10.340203
10.352955
10.364034
10.370745
10.372269
10.365914
10.345108
10.260461
10.152747
10.05994
10.016851
9.9934844
9.9974755
10.046121
39838.273
19718.542
5601.9937
1272.3482
748.04058
475.5751
383.02417
292.65697
243.49242
192.24641
162.01997
135.8272
118.11407
104.11211
92.614259
82.738093
74.380007
67.249134
61.092176
55.729613
51.028953
46.886856
43.218597
39.953808
37.033991
34.411261
32.047562
29.910459
27.973309
26.214296
24.614715
23.157891
21.829376
20.616235
19.509273
18.499728
17.579928
16.743237
15.983388
15.294679
14.672184
14.110796
13.606257
13.154446
12.751185
12.392837
12.076113
11.797134
11.552664
11.33972
11.155334
10.996654
10.860939
10.745145
10.646145
10.560662
10.485982
10.419674
10.372836
10.346456
10.331382
10.323983
10.322281
10.325667
10.327819
10.332699
10.342626
10.353858
10.363012
10.367765
10.368441
10.359836
10.335171
10.240961
10.136687
10.049766
10.013733
9.9929263
9.9991239
10.045511
42341.737
18474.77
4451.9679
1210.6948
729.70702
459.6184
376.62484
283.54276
237.42708
185.88939
158.1397
132.18447
115.47515
101.79968
90.596165
80.967566
72.844413
65.902775
59.902298
54.673824
50.089525
46.048879
42.469364
39.282452
36.431265
33.869181
31.558021
29.468887
27.575078
25.855253
24.291077
22.866216
21.566591
20.379578
19.296491
18.308614
17.408529
16.589787
15.846239
15.17233
14.563274
14.014024
13.520491
13.078604
12.684255
12.333934
12.024413
11.751821
11.513047
11.305165
11.125266
10.970603
10.838231
10.7253
10.62871
10.545269
10.472419
10.407908
10.363856
10.340133
10.327634
10.322252
10.322183
10.326502
10.329152
10.334901
10.344365
10.35407
10.361376
10.364738
10.364271
10.353044
10.322325
10.221337
10.121178
10.040139
10.011291
9.992701
10.001695
10.044497
44342.144
16604.936
3685.2931
1168.2038
716.79112
448.08361
371.21721
276.14653
232.58452
180.79325
155.03016
129.12589
113.2486
99.778526
88.829457
79.410948
71.484749
64.700901
58.833026
53.719289
49.235167
45.282378
41.780181
38.661522
35.870802
33.362589
31.100026
29.052517
27.1975
25.513142
23.981229
22.585671
21.312684
20.149912
19.089125
18.121584
17.240126
16.438443
15.710477
15.050806
14.454754
13.917317
13.434566
13.00245
12.616927
12.274602
11.97229
11.706121
11.473111
11.270392
11.095158
10.944419
10.815474
10.705471
10.611352
10.530037
10.459137
10.396615
10.35542
10.334451
10.324587
10.3208
10.322085
10.327318
10.330469
10.336679
10.345331
10.353598
10.359212
10.361312
10.359682
10.345614
10.305835
10.201762
10.106463
10.031686
10.009623
9.9927229
10.005646
10.043125
45856.03
14097.889