/*--------------------------------*- C++ -*----------------------------------*\
  =========                 |
  \\      /  F ield         | OpenFOAM: The Open Source CFD Toolbox
   \\    /   O peration     | Website:  https://openfoam.org
    \\  /    A nd           | Version:  12
     \\/     M anipulation  |
\*---------------------------------------------------------------------------*/
FoamFile
{
    format      ascii;
    class       surfaceScalarField;
    location    "0.036";
    object      phi;
}
// * * * * * * * * * * * * * * * * * * * * * * * * * * * * * * * * * * * * * //

dimensions      [1 0 -1 0 0 0 0];

internalField   nonuniform List<scalar> 
31760
(
-0.0006031728
-0.050871553
0.051466315
-0.0015581152
-0.064457092
0.065406863
-0.0025220152
-0.063058274
0.064015926
-0.003530675
-0.068768538
0.06977197
-0.0045874601
-0.070426431
0.071477379
-0.0056773435
-0.07471301
0.075797471
-0.0068299442
-0.077639428
0.078786145
-0.0080253541
-0.081659798
0.082849475
-0.0092758679
-0.085288349
0.086532782
-0.010586162
-0.089415941
0.090720146
-0.011949513
-0.093558313
0.094915312
-0.01337917
-0.097979897
0.099403056
-0.014869087
-0.10256579
0.10404897
-0.01642772
-0.10737889
0.10893057
-0.018054475
-0.11240777
0.11402732
-0.019754071
-0.11766915
0.1193613
-0.021529087
-0.12317114
0.12493842
-0.023382644
-0.12892516
0.13077069
-0.025317897
-0.13494224
0.13686917
-0.02733815
-0.14123367
0.14324527
-0.029446741
-0.14781183
0.14991143
-0.031647323
-0.15468869
0.15687993
-0.033943385
-0.16187782
0.16416418
-0.036338712
-0.1693929
0.17177816
-0.03883616
-0.17724842
0.17973543
-0.041440188
-0.18545846
0.18805167
-0.044154568
-0.19403917
0.19674238
-0.046982603
-0.20300711
0.20582363
-0.049927674
-0.21237907
0.21531232
-0.05299372
-0.22217301
0.22522696
-0.056183955
-0.23240768
0.23558561
-0.059501639
-0.2431027
0.24640793
-0.062949536
-0.25427928
0.25771468
-0.066530675
-0.26595822
0.26952692
-0.070247066
-0.27816318
0.28186735
-0.07410043
-0.29091795
0.29475946
-0.078092206
-0.30424764
0.30822814
-0.082223041
-0.31817921
0.32229959
-0.086492987
-0.33273978
0.33700035
-0.090901049
-0.34795972
0.3523598
-0.095445637
-0.36386954
0.36840787
-0.10012385
-0.38050148
0.38517553
-0.10493174
-0.3978898
0.40269602
-0.10986433
-0.41607024
0.42100404
-0.11491489
-0.43508064
0.44013568
-0.12007551
-0.45495967
0.4601284
-0.12533608
-0.47574875
0.4810214
-0.13068539
-0.49749015
0.50285578
-0.13610985
-0.52022915
0.52567441
-0.14159333
-0.54401189
0.5495208
-0.14711722
-0.56888623
0.57444019
-0.15266061
-0.59490263
0.60048063
-0.15819892
-0.62211278
0.62768983
-0.16370408
-0.65057053
0.65611787
-0.16914448
-0.68033173
0.68581663
-0.17448293
-0.71145567
0.71683934
-0.17967789
-0.74400402
0.74924256
-0.18468208
-0.77804262
0.78308562
-0.18944086
-0.8136427
0.81843128
-0.19389334
-0.85088108
0.85534882
-0.19797037
-0.8898418
0.89391251
-0.20159486
-0.93061712
0.93420482
-0.20468038
-0.97330999
0.97631741
-0.20713101
-1.018036
1.0203545
-0.20884032
-1.0649245
1.0664334
-0.2096909
-1.1141242
1.1146911
-0.20955123
-1.1658062
1.1652851
-0.20828137
-1.2201702
1.2184081
-0.20572059
-1.2774592
1.2742859
-0.20168833
-1.3379597
1.3331895
-0.1959875
-1.4019967
1.3954344
-0.18840185
-1.469894
1.4613367
-0.17868288
-1.5418752
1.5311021
-0.16656898
-1.617911
1.6046975
-0.15171386
-1.6978162
1.6818543
-0.13432273
-1.7810509
1.7625544
-0.11227287
-1.8667605
1.8435236
-0.088995579
-1.9569057
1.9330082
-0.058592291
-2.0424019
2.0113574
-2.1372863
2.1031583
-0.00060570722
-0.050272409
-0.0014695493
-0.063596673
-0.0023508132
-0.062181693
-0.0033022309
-0.067820388
-0.0042591182
-0.069473304
-0.0052957779
-0.073679707
-0.0063445856
-0.076594361
-0.0074740635
-0.080533872
-0.0086272743
-0.084138924
-0.0098547049
-0.088192242
-0.011123776
-0.092293124
-0.012459479
-0.096648126
-0.013851471
-0.10117785
-0.015308914
-0.10592559
-0.016831912
-0.11088903
-0.018424565
-0.11608088
-0.020089018
-0.12151119
-0.021828982
-0.12718984
-0.023647623
-0.13312838
-0.025548462
-0.13933776
-0.027535097
-0.14583028
-0.029610715
-0.15261831
-0.031779354
-0.15971458
-0.03404463
-0.16713318
-0.036411274
-0.17488749
-0.038882022
-0.18299356
-0.041461504
-0.19146566
-0.04415339
-0.20032129
-0.046961912
-0.20957667
-0.049890598
-0.21925045
-0.052943504
-0.22936085
-0.056123955
-0.23992819
-0.059435275
-0.25097366
-0.062880497
-0.26251832
-0.066462122
-0.27458635
-0.070182595
-0.28720155
-0.074043243
-0.30039011
-0.078045781
-0.31417858
-0.082189822
-0.32859612
-0.086475291
-0.34367278
-0.090900994
-0.35944012
-0.095464334
-0.37593177
-0.10016156
-0.39318311
-0.10498836
-0.41123046
-0.10993858
-0.43011349
-0.11500475
-0.44987222
-0.12017793
-0.47054959
-0.12544699
-0.49219011
-0.13079934
-0.51484059
-0.13622032
-0.53854937
-0.14169267
-0.56336706
-0.1471966
-0.58934684
-0.15270927
-0.61654371
-0.15820482
-0.64501489
-0.16365351
-0.67482053
-0.16902123
-0.70602479
-0.17426941
-0.73869447
-0.17935395
-0.77290169
-0.18422453
-0.80872491
-0.18882476
-0.84624821
-0.19309076
-0.88556462
-0.19695117
-0.92677558
-0.20032627
-0.96999434
-0.20312907
-1.0153456
-0.20526247
-1.0629705
-0.20662118
-1.1130268
-0.20708529
-1.1656999
-0.2065266
-1.2211961
-0.20480221
-1.2797703
-0.20175117
-1.341722
-0.1971965
-1.407385
-0.19093915
-1.477095
-0.18275681
-1.5510855
-0.17240837
-1.6293395
-0.15967394
-1.7116495
-0.14430362
-1.797554
-0.12552094
-1.886742
-0.10442336
-1.9786253
-0.078065105
-2.0694551
-2.1680599
-0.00054978774
-0.049727924
-0.0013569307
-0.062791851
-0.0021584378
-0.061382351
-0.0030563938
-0.066924472
-0.0039386402
-0.068593428
-0.0049091195
-0.072711139
-0.0058788429
-0.07562686
-0.0069326886
-0.079482002
-0.0080039885
-0.083069691
-0.0091480301
-0.087050135
-0.010330833
-0.091112292
-0.011576954
-0.095403924
-0.012877131
-0.099879595
-0.01423968
-0.10456494
-0.015665228
-0.10946538
-0.017157331
-0.11459066
-0.018719303
-0.11995109
-0.020354056
-0.12555695
-0.022065823
-0.13141847
-0.023857382
-0.13754804
-0.025733181
-0.14395631
-0.027696694
-0.1506566
-0.029751757
-0.15766129
-0.031903109
-0.16498356
-0.034153976
-0.17263829
-0.03650953
-0.18063959
-0.038973188
-0.18900348
-0.041549992
-0.19774581
-0.044243482
-0.20688431
-0.047058806
-0.216436
-0.049999088
-0.2264211
-0.053068692
-0.23685868
-0.056271484
-0.24777041
-0.059610232
-0.25917841
-0.063088644
-0.27110589
-0.066709038
-0.283578
-0.070473841
-0.2966208
-0.0743838
-0.31026248
-0.07844021
-0.3245316
-0.082642889
-0.33945964
-0.08699045
-0.35507934
-0.091481258
-0.37142454
-0.096112523
-0.38853178
-0.10087949
-0.40643931
-0.105777
-0.42518722
-0.11079808
-0.4448174
-0.11593465
-0.46537388
-0.12117615
-0.48690378
-0.12651153
-0.50945444
-0.13192681
-0.53307726
-0.13740568
-0.55782538
-0.14293069
-0.58375331
-0.14848058
-0.61092016
-0.15403147
-0.63938614
-0.1595561
-0.66921519
-0.16502326
-0.70047596
-0.17039771
-0.73323988
-0.17563819
-0.76758587
-0.18069958
-0.80359721
-0.18552922
-0.84136664
-0.19006903
-0.88099398
-0.19425327
-0.92258994
-0.19801006
-0.96627572
-0.2012593
-1.0121861
-0.20391345
-1.0604709
-0.20587581
-1.1112984
-0.20704475
-1.1648587
-0.20730289
-1.2213727
-0.20652061
-1.2811048
-0.20455922
-1.3443588
-0.20125389
-1.4114875
-0.19643363
-1.4828238
-0.18989748
-1.5586211
-0.18143743
-1.6388615
-0.17085348
-1.7233259
-0.15785381
-1.8116624
-0.14202468
-1.9036549
-0.12358909
-1.9976763
-0.10105945
-2.0927646
-2.1952769
-0.00049931289
-0.049232783
-0.0012478316
-0.062044753
-0.0019756886
-0.060656112
-0.002822965
-0.066078144
-0.0036425625
-0.067775007
-0.0045497202
-0.071804684
-0.0054463129
-0.074731206
-0.0064304861
-0.078498556
-0.0074259357
-0.082074887
-0.008493177
-0.085983375
-0.0095963724
-0.090009532
-0.010760112
-0.094240492
-0.011976313
-0.098663617
-0.013252258
-0.10328911
-0.014589622
-0.10812802
-0.015992154
-0.11318803
-0.017463138
-0.11847989
-0.019005935
-0.1240138
-0.020623998
-0.12979991
-0.022321661
-0.13584973
-0.024102074
-0.14217508
-0.025970288
-0.14878739
-0.027930198
-0.15570017
-0.029985782
-0.16292654
-0.032142196
-0.17048018
-0.034403391
-0.17837641
-0.03677442
-0.18663013
-0.039259642
-0.19525788
-0.041864544
-0.20427625
-0.044592527
-0.21370433
-0.047448785
-0.22356053
-0.050437766
-0.23386464
-0.053563264
-0.24463897
-0.056829291
-0.25590539
-0.060239413
-0.26768753
-0.063796272
-0.28001142
-0.067502303
-0.29290329
-0.071359679
-0.30639156
-0.075369045
-0.32050626
-0.079530794
-0.33527911
-0.083844725
-0.35074338
-0.088308641
-0.36693491
-0.092920299
-0.38389025
-0.097675998
-0.4016491
-0.10257059
-0.42025304
-0.10759847
-0.43974437
-0.11275098
-0.46017028
-0.11802035
-0.48157701
-0.12339509
-0.50401574
-0.12886298
-0.52753871
-0.1344099
-0.55220114
-0.14001881
-0.57806068
-0.14567109
-0.60517834
-0.1513454
-0.63361739
-0.15701604
-0.66344657
-0.16265575
-0.69473664
-0.16823175
-0.72756511
-0.17370744
-0.76201555
-0.17904129
-0.79817702
-0.18418601
-0.83614919
-0.18908854
-0.87603889
-0.19368963
-0.91796452
-0.19792413
-0.96205474
-0.20172
-1.0084528
-0.20499894
-1.0573165
-0.20767756
-1.1088197
-0.20965787
-1.163168
-0.21084397
-1.2205793
-0.21111967
-1.2813362
-0.21036459
-1.3457423
-0.2084362
-1.4141665
-0.20517123
-1.4869551
-0.200414
-1.5643481
-0.19396547
-1.6463595
-0.18564738
-1.7327461
-0.17520073
-1.823216
-0.16231696
-1.9176366
-0.14687806
-2.0138182
-0.12806536
-2.1124615
-2.2187457
-0.00044881626
-0.048787237
-0.0011514439
-0.061342896
-0.0018043425
-0.060004339
-0.002596426
-0.065286302
-0.0033436102
-0.067028102
-0.0041952539
-0.070952875
-0.0050280162
-0.073898422
-0.0059490074
-0.077577401
-0.0068768223
-0.081146642
-0.0078740655
-0.084985525
-0.008906461
-0.088976421
-0.0099970965
-0.09314896
-0.011140113
-0.097519545
-0.012341652
-0.10208634
-0.0136041
-0.10686415
-0.014930548
-0.11185994
-0.016324745
-0.11708383
-0.017790468
-0.12254597
-0.019331408
-0.12825661
-0.020951606
-0.13422689
-0.022655782
-0.14046794
-0.024447298
-0.14699258
-0.026331687
-0.15381212
-0.028313562
-0.1609406
-0.030397474
-0.16839176
-0.032588742
-0.17618013
-0.034892627
-0.18432068
-0.037314131
-0.19283019
-0.03985826
-0.20172524
-0.042530314
-0.21102459
-0.045335288
-0.22074696
-0.048277799
-0.23091248
-0.051362371
-0.24154353
-0.05459356
-0.25266193
-0.057974752
-0.26429243
-0.061509292
-0.27646108
-0.065199976
-0.28919463
-0.069049033
-0.302522
-0.073057581
-0.31647433
-0.077226415
-0.3310836
-0.081554944
-0.34638445
-0.08604251
-0.36241277
-0.090686402
-0.37920713
-0.095483589
-0.39680757
-0.10043034
-0.41525635
-0.10552047
-0.43459824
-0.11074767
-0.4548806
-0.11610378
-0.47615157
-0.12157915
-0.4984639
-0.12716334
-0.52187073
-0.13284302
-0.54643036
-0.13860389
-0.57220162
-0.14442899
-0.59924846
-0.15029893
-0.62763696
-0.15619207
-0.65743855
-0.16208298
-0.68872827
-0.16794242
-0.72158809
-0.17373848
-0.756105
-0.17943346
-0.79237479
-0.18498575
-0.83050207
-0.1903476
-0.87060105
-0.19546646
-0.91279622
-0.20028393
-0.95722353
-0.20473667
-1.0040325
-0.20875563
-1.053388
-0.21226469
-1.105472
-0.21518613
-1.1604922
-0.21742531
-1.2186836
-0.21889554
-1.2803196
-0.21947892
-1.345732
-0.21906157
-1.4152805
-0.21750389
-1.4893313
-0.21466866
-1.5681198
-0.21038273
-1.6516845
-0.2044826
-1.7397715
-0.19674544
-1.8321167
-0.18688736
-1.9286047
-0.17469211
-2.0268044
-0.15963093
-2.1284983
-2.238208
-0.00040273097
-0.048387062
-0.0010651825
-0.060680726
-0.0016575809
-0.059412293
-0.0023935515
-0.064549922
-0.003067348
-0.066354053
-0.0038691595
-0.070150312
-0.0046363116
-0.073130577
-0.0054996851
-0.076713286
-0.0063663518
-0.080278763
-0.0073048312
-0.084045669
-0.0082800079
-0.087999693
-0.0093114105
-0.092115764
-0.010395524
-0.096433404
-0.011536983
-0.10094259
-0.012738639
-0.10565993
-0.014004366
-0.11059136
-0.015337678
-0.11574734
-0.016742471
-0.12113766
-0.018223264
-0.12677193
-0.019784072
-0.13266179
-0.021430017
-0.13881727
-0.023165946
-0.14525146
-0.024997035
-0.15197532
-0.026928433
-0.15900293
-0.028965803
-0.1663475
-0.031115017
-0.17402334
-0.033380877
-0.18204649
-0.035769773
-0.19043211
-0.038287105
-0.19919777
-0.040938369
-0.20836212
-0.043729296
-0.21794362
-0.046664627
-0.22796338
-0.049749948
-0.23844288
-0.052988777
-0.249406
-0.056385875
-0.26087621
-0.059944861
-0.27288068
-0.063668258
-0.2854472
-0.067558411
-0.29860484
-0.071617266
-0.31238511
-0.075845332
-0.3268214
-0.080242997
-0.34194844
-0.084808799
-0.35780395
-0.089541609
-0.37442617
-0.094438831
-0.39185658
-0.09949611
-0.4101392
-0.10470913
-0.42931879
-0.11007295
-0.44944334
-0.11557958
-0.47056411
-0.12122197
-0.49273297
-0.12698961
-0.51600664
-0.13287272
-0.54044282
-0.13885812
-0.56610398
-0.14493139
-0.59305557
-0.15107589
-0.62136625
-0.1572724
-0.65111045
-0.16349891
-0.68236651
-0.16973097
-0.71521947
-0.17593934
-0.74976187
-0.18209188
-0.78609333
-0.18815144
-0.82432447
-0.19407745
-0.86457408
-0.19982369
-0.90697351
-0.20533977
-0.95166405
-0.21057033
-0.9988014
-0.21545544
-1.0485559
-0.21993016
-1.1011158
-0.22392471
-1.1566944
-0.22736635
-1.2155305
-0.23016852
-1.2779113
-0.23224876
-1.3441631
-0.23350252
-1.4146644
-0.23381713
-1.4897854
-0.23307313
-1.5697667
-0.23112409
-1.654663
-0.22781621
-1.7442114
-0.22297738
-1.8381909
-0.21628439
-1.9364014
-0.20755523
-2.0364042
-0.19636741
-2.140719
-2.2533801
-0.00036348149
-0.048025511
-0.00099599123
-0.060048106
-0.0015348805
-0.058873382
-0.0022247271
-0.063859383
-0.0028423317
-0.065735503
-0.0035959846
-0.069395445
-0.0043109825
-0.072414472
-0.0051150771
-0.075908006
-0.0059423136
-0.079449813
-0.0068363424
-0.08314961
-0.007767364
-0.087066411
-0.0087511688
-0.091129403
-0.0097875063
-0.095394215
-0.010880404
-0.099846526
-0.012033952
-0.10450287
-0.01325166
-0.10936977
-0.014538415
-0.11445631
-0.015898345
-0.11977304
-0.017336282
-0.12532884
-0.018857663
-0.13113476
-0.020467131
-0.13720161
-0.022170943
-0.14354086
-0.023974364
-0.15016447
-0.025883153
-0.157086
-0.027903733
-0.16431799
-0.030041829
-0.17187546
-0.032304427
-0.17977315
-0.034697199
-0.18802753
-0.037226007
-0.19665597
-0.039897614
-0.20567619
-0.042717202
-0.21510822
-0.045690563
-0.22497252
-0.048822605
-0.23529145
-0.052118711
-0.24608837
-0.055582225
-0.25738877
-0.05921714
-0.26921912
-0.063026928
-0.28160771
-0.067013659
-0.29458499
-0.07117888
-0.30818294
-0.075523695
-0.32243538
-0.080048557
-0.33737768
-0.084752744
-0.3530487
-0.089635268
-0.36948693
-0.094693571
-0.38673542
-0.099925377
-0.40483792
-0.10532681
-0.42384079
-0.11089309
-0.44379294
-0.11661941
-0.4647457
-0.12249848
-0.48675353
-0.12852348
-0.50987271
-0.13468491
-0.53416382
-0.14097276
-0.55968999
-0.14737552
-0.58651847
-0.15387889
-0.614721
-0.16046722
-0.64437379
-0.16712173
-0.67555884
-0.17382168
-0.70836372
-0.18054274
-0.74288534
-0.18725727
-0.77922754
-0.19393468
-0.81750489
-0.20053969
-0.85784191
-0.20703412
-0.90037396
-0.21337517
-0.94524793
-0.21951669
-0.99262384
-0.22540843
-1.0426771
-0.23099535
-1.0956016
-0.23621916
-1.1516152
-0.24101856
-1.2109613
-0.24532476
-1.2739357
-0.24906709
-1.3408671
-0.25217198
-1.4121363
-0.25454793
-1.488129
-0.2560835
-1.5690979
-0.2566732
-1.65509
-0.25616633
-1.7458567
-0.25442817
-1.8411946
-0.25111691
-1.9407962
-0.24606142
-2.0423998
-0.23892948
-2.1488935
-2.2639824
-0.00032274185
-0.047704116
-0.0009302174
-0.059440141
-0.0014215246
-0.058381601
-0.0020660551
-0.063213843
-0.002641987
-0.065158438
-0.0033710298
-0.068664747
-0.0040559765
-0.07172772
-0.0048442592
-0.075118033
-0.0056323129
-0.078659429
-0.0064813868
-0.082297908
-0.007371514
-0.086173382
-0.008313976
-0.090183712
-0.0093113878
-0.09439324
-0.010367178
-0.098786812
-0.011485822
-0.10337992
-0.012671927
-0.10817894
-0.013929485
-0.11319358
-0.015264516
-0.11843234
-0.016681887
-0.12390526
-0.018187325
-0.12962253
-0.01978672
-0.13559479
-0.021486136
-0.14183331
-0.02329195
-0.14834975
-0.025211484
-0.15515671
-0.027250297
-0.16226849
-0.02941598
-0.16969806
-0.031714789
-0.17746147
-0.034153691
-0.18557449
-0.036739349
-0.19405476
-0.039477996
-0.20292041
-0.04237556
-0.21219175
-0.045438004
-0.22188919
-0.048670701
-0.23203565
-0.052077977
-0.24265551
-0.055664374
-0.25377399
-0.059433731
-0.26541826
-0.063388592
-0.27761786
-0.067531619
-0.2904031
-0.071864586
-0.30380682
-0.076388536
-0.31786353
-0.081103818
-0.3326093
-0.086010965
-0.34808278
-0.09110846
-0.36432449
-0.096395328
-0.38137694
-0.10186968
-0.39928479
-0.10752881
-0.41809522
-0.11336971
-0.43785747
-0.11938863
-0.45862365
-0.12558089
-0.48044923
-0.13194102
-0.50339131
-0.13846288
-0.52751133
-0.14513829
-0.55287459
-0.15195854
-0.57954913
-0.15891283
-0.60760911
-0.16598889
-0.63713256
-0.17317228
-0.66820418
-0.18044561
-0.70091507
-0.1877896
-0.73536481
-0.19518221
-0.77166083
-0.20259837
-0.80992169
-0.21001023
-0.8502757
-0.21738693
-0.89286219
-0.22469422
-0.93783232
-0.23189523
-0.98534947
-0.2389487
-1.0355942
-0.24581107
-1.0887639
-0.25243469
-1.1450821
-0.25876889
-1.2047973
-0.26476435
-1.2682065
-0.27037194
-1.3356406
-0.27552776
-1.4074969
-0.280176
-1.4841512
-0.28421745
-1.5658888
-0.28756342
-1.6527451
-0.29009194
-1.7444711
-0.29169172
-1.8408531
-0.29200091
-1.9415118
-0.29086331
-2.0445188
-0.2880302
-2.1527251
-2.2697093
-0.00028224935
-0.047422704
-0.00087064113
-0.058850935
-0.0013224847
-0.057928887
-0.0019475198
-0.062587475
-0.0025021201
-0.064602249
-0.0032084088
-0.067956628
-0.0038626832
-0.071071449
-0.0046310929
-0.074347533
-0.0053897018
-0.077898061
-0.0062077173
-0.081476765
-0.0070721911
-0.085305487
-0.0079897257
-0.089262414
-0.008965281
-0.093413562
-0.010002293
-0.097745286
-0.011105866
-0.1022714
-0.012280866
-0.10699854
-0.013532994
-0.11193553
-0.014867708
-0.11709115
-0.016291064
-0.12247482
-0.017809897
-0.12809595
-0.019430305
-0.1339659
-0.021159894
-0.14009444
-0.023005115
-0.14649436
-0.024973455
-0.15317722
-0.027072598
-0.16015712
-0.029309443
-0.16744778
-0.031691654
-0.17506451
-0.034226244
-0.18302367
-0.036919814
-0.19134332
-0.039779352
-0.20004118
-0.042811121
-0.20913825
-0.046020401
-0.21865591
-0.04941232
-0.22861719
-0.052991961
-0.23904649
-0.056763303
-0.24997012
-0.060729444
-0.26141607
-0.064893642
-0.27341371
-0.069258176
-0.2859943
-0.073824526
-0.29919145
-0.078594247
-0.31303958
-0.083567838
-0.32757578
-0.08874549
-0.342839
-0.094127462
-0.35886969
-0.099713636
-0.37571072
-0.10550286
-0.39340776
-0.11149424
-0.41200781
-0.11768616
-0.43156078
-0.12407684
-0.45211902
-0.13066404
-0.47373848
-0.13744438
-0.49647752
-0.1444144
-0.52039771
-0.15156944
-0.54556577
-0.15890345
-0.57205132
-0.16640972
-0.59992949
-0.17407931
-0.62928091
-0.18190201
-0.66019202
-0.18986488
-0.69275725
-0.19795431
-0.72707756
-0.20615332
-0.76326457
-0.21444325
-0.80143943
-0.2228038
-0.84173303
-0.23121205
-0.88428817
-0.23964276
-0.92925908
-0.24806738
-0.97681312
-0.25645585
-1.0271332
-0.26477387
-1.0804219
-0.27298702
-1.1369051
-0.28105721
-1.1968379
-0.28895223
-1.2605153
-0.29663602
-1.3282759
-0.30407978
-1.4005127
-0.31123875
-1.4776166
-0.31804423
-1.5598879
-0.32440768
-1.6473687
-0.33023313
-1.7397875
-0.33542244
-1.8368856
-0.33959586
-1.9383627
-0.34269262
-2.0424019
-0.34447785
-2.1518578
-2.2702625
-0.00024530869
-0.047177818
-0.00082306342
-0.058272107
-0.0012457657
-0.057504983
-0.0018974948
-0.061934159
-0.0024356492
-0.064062241
-0.0031189513
-0.067271242
-0.0037505898
-0.070437376
-0.004477544
-0.073616037
-0.0052245997
-0.07714789
-0.0060281496
-0.080669759
-0.0068840321
-0.084445833
-0.0077949758
-0.088347334
-0.0087681626
-0.092435843
-0.0098075446
-0.09670094
-0.010918909
-0.1011546
-0.012108059
-0.10580343
-0.013381279
-0.11065579
-0.014745311
-0.11571998
-0.016207009
-0.1210053
-0.017773154
-0.12652124
-0.019452449
-0.13227721
-0.021251429
-0.13828516
-0.023179055
-0.14455544
-0.02524271
-0.15110117
-0.027450335
-0.15793587
-0.029810148
-0.16507299
-0.032329681
-0.1725285
-0.035016051
-0.18031916
-0.037876821
-0.18846256
-0.040918144
-0.1969778
-0.044145806
-0.20588624
-0.047565677
-0.21520914
-0.051182423
-0.2249707
-0.055000505
-0.23519549
-0.059023496
-0.24591069
-0.063254525
-0.25714472
-0.067696172
-0.26892743
-0.072350507
-0.28129059
-0.07721967
-0.29426771
-0.082304746
-0.30789424
-0.087607071
-0.322207
-0.093127837
-0.33724507
-0.09886794
-0.35304919
-0.10482779
-0.36966269
-0.11100861
-0.38713046
-0.11741123
-0.40549987
-0.12403588
-0.42482146
-0.13088315
-0.44514725
-0.13795322
-0.46653362
-0.14524609
-0.48903923
-0.15276049
-0.51272694
-0.16049582
-0.53766302
-0.16844937
-0.56391939
-0.17661792
-0.59157196
-0.1849972
-0.62070277
-0.19358112
-0.65140053
-0.20236259
-0.68376127
-0.21133239
-0.71788871
-0.22048043
-0.75389617
-0.22979505
-0.79190721
-0.23926261
-0.83205554
-0.24886899
-0.87448523
-0.2585976
-0.91935364
-0.2684301
-0.96683054
-0.27834509
-1.0171026
-0.28831976
-1.0703754
-0.29833079
-1.1268775
-0.3083584
-1.1868644
-0.31838438
-1.2506347
-0.32839821
-1.3185248
-0.33839159
-1.3909292
-0.34833604
-1.4682574
-0.35818869
-1.5508152
-0.36787172
-1.6386631
-0.37729043
-1.7314982
-0.38634096
-1.8289813
-0.39467699
-1.9310531
-0.40233533
-2.0356769
-0.40909656
-2.1459057
-2.2653675
-0.00021342381
-0.04696452
-0.00079300577
-0.057691283
-0.0011939768
-0.057102614
-0.0018566815
-0.061269359
-0.002371386
-0.063545439
-0.0030496658
-0.066590415
-0.0036782855
-0.069806082
-0.0044004221
-0.072891208
-0.0051511489
-0.076393856
-0.0059561957
-0.079861042
-0.0068209298
-0.083577066
-0.0077454449
-0.087418385
-0.0087382655
-0.091438152
-0.009804255
-0.095629608
-0.01095013
-0.10000286
-0.012182663
-0.10456447
-0.013509089
-0.10932232
-0.014936808
-0.11428453
-0.016474323
-0.11945931
-0.018129634
-0.12485662
-0.019911093
-0.13048554
-0.02182771
-0.13635733
-0.02388772
-0.1424831
-0.026099946
-0.14887539
-0.028473222
-0.15554769
-0.031015078
-0.16251472
-0.033733495
-0.169792
-0.036635923
-0.1773968
-0.039729291
-0.18534719
-0.043019021
-0.19366379
-0.046511748
-0.20236669
-0.050211546
-0.21147968
-0.054123433
-0.22102602
-0.058250437
-0.23103221
-0.062595648
-0.24152535
-0.067162291
-0.25253368
-0.07195259
-0.26408805
-0.076968398
-0.27622054
-0.082211785
-0.28896445
-0.087684901
-0.30235511
-0.093389605
-0.31642962
-0.099328034
-0.33122676
-0.10550218
-0.3467874
-0.11191494
-0.36315398
-0.11856892
-0.38037167
-0.12546666
-0.39848788
-0.13261191
-0.41755201
-0.14000708
-0.43761739
-0.1476559
-0.45873914
-0.15556117
-0.48097689
-0.16372589
-0.50439342
-0.17215171
-0.52905646
-0.18084079
-0.55503765
-0.18979428
-0.58241419
-0.19901196
-0.61126977
-0.20849301
-0.64169419
-0.21823582
-0.67378478
-0.22823719
-0.70764752
-0.2384933
-0.74339707
-0.24899934
-0.78115881
-0.25975082
-0.82106691
-0.27074083
-0.86326861
-0.28196208
-0.90792223
-0.2934055
-0.95519998
-0.30506024
-1.0052912
-0.31691509
-1.0584033
-0.32896093
-1.1147658
-0.34119172
-1.1746356
-0.3536136
-1.2383055
-0.3662354
-1.3061164
-0.37906463
-1.378468
-0.39211094
-1.4557647
-0.40534156
-1.5383426
-0.41868488
-1.6262766
-0.43202867
-1.7192519
-0.44528769
-1.8168103
-0.45812165
-1.9191121
-0.47065478
-2.0239815
-0.48269803
-2.1345079
-2.2545541
-0.00019363334
-0.046770777
-0.00079324591
-0.057090282
-0.0011920153
-0.056702279
-0.0018477482
-0.060611262
-0.0023569525
-0.063033977
-0.0030383107
-0.065906438
-0.0036821197
-0.069159427
-0.0044113383
-0.072158707
-0.0051843074
-0.075617369
-0.0060112894
-0.079030161
-0.0069060834
-0.082677986
-0.0078679313
-0.086451826
-0.0089064454
-0.090394462
-0.010027745
-0.094502624
-0.011239601
-0.098784765
-0.01254996
-0.10324726
-0.013967331
-0.10789742
-0.015500617
-0.11274298
-0.017158525
-0.11779232
-0.018951088
-0.12305408
-0.020887197
-0.12853846
-0.022976616
-0.13425584
-0.025228267
-0.14021816
-0.027651361
-0.14643766
-0.03025453
-0.15292839
-0.033045963
-0.15970551
-0.036032802
-0.16678555
-0.039222324
-0.17418563
-0.042620136
-0.18192547
-0.046232401
-0.19002511
-0.050063099
-0.19850679
-0.054116563
-0.20739393
-0.058396304
-0.21671056
-0.062905114
-0.22648389
-0.067645688
-0.23674108
-0.0726205
-0.24751057
-0.077831487
-0.25882371
-0.083281371
-0.27071177
-0.088972359
-0.28320852
-0.094907451
-0.29634851
-0.10108981
-0.31016864
-0.10752307
-0.32470721
-0.11421162
-0.34000431
-0.1211599
-0.35610233
-0.12837291
-0.37304589
-0.13585662
-0.39088142
-0.14361674
-0.40965857
-0.15165964
-0.42943004
-0.15999152
-0.45025115
-0.16861907
-0.47218109
-0.17754866
-0.49528306
-0.18678718
-0.5196244
-0.1963403
-0.54527814
-0.20621385
-0.57232162
-0.21641251
-0.60083996
-0.22694155
-0.63092281
-0.23780426
-0.66266999
-0.24900425
-0.69618776
-0.26054479
-0.73159186
-0.27242901
-0.76900857
-0.28465934
-0.80857352
-0.29723839
-0.85043448
-0.31016773
-0.89475138
-0.32344798
-0.94169804
-0.33707964
-0.99146493
-0.35106402
-1.0442605
-0.36540636
-1.1003136
-0.38011932
-1.1598788
-0.39522953
-1.2232425
-0.41076354
-1.2907537
-0.42676165
-1.362803
-0.44324482
-1.4398093
-0.46021453
-1.5221107
-0.47760389
-1.6098165
-0.49525643
-1.7026334
-0.51310213
-1.7999401
-0.530848
-1.9021472
-0.54857716
-2.0069405
-0.56621013
-2.1172985
-2.2372516
-0.00017491067
-0.046595536
-0.00080278227
-0.056460869
-0.0012073433
-0.056296003
-0.001877325
-0.059939156
-0.0024008728
-0.062508034
-0.003096966
-0.06520758
-0.0037710818
-0.068482319
-0.0045240872
-0.071402336
-0.0053372264
-0.074800533
-0.0062083945
-0.078154905
-0.0071572428
-0.081724637
-0.0081837628
-0.085420354
-0.0092983084
-0.089274467
-0.010508645
-0.093286296
-0.011823877
-0.097462944
-0.0132534
-0.10181049
-0.014807039
-0.10633581
-0.016494987
-0.11104627
-0.018327605
-0.11595005
-0.020314928
-0.12105613
-0.022467476
-0.1263742
-0.024794964
-0.13191545
-0.027306709
-0.13769219
-0.030012028
-0.14371666
-0.032918831
-0.15000428
-0.036034548
-0.15657068
-0.03936653
-0.16343246
-0.042919784
-0.17060905
-0.046699688
-0.17811979
-0.050710321
-0.18598597
-0.054955263
-0.19423032
-0.059437727
-0.2028766
-0.064159256
-0.21195047
-0.069123281
-0.22147724
-0.074331441
-0.2314858
-0.079785903
-0.24200406
-0.085489793
-0.25306236
-0.091445626
-0.26469257
-0.097657837
-0.27692653
-0.10413045
-0.28979914
-0.11086835
-0.30334646
-0.1178773
-0.31760586
-0.12516418
-0.33261633
-0.13273602
-0.34842008
-0.14060093
-0.36506067
-0.14876775
-0.38258376
-0.15724557
-0.40103878
-0.16604407
-0.42047784
-0.17517369
-0.44095552
-0.18464458
-0.46253136
-0.19446771
-0.48526782
-0.2046531
-0.50923331
-0.21521238
-0.53449948
-0.2261556
-0.56114544
-0.23749385
-0.58925563
-0.24923685
-0.61892141
-0.26139549
-0.65024196
-0.27397973
-0.68332503
-0.2869999
-0.71828673
-0.30046745
-0.75525294
-0.31439278
-0.79436112
-0.32878737
-0.83575863
-0.34366264
-0.87960608
-0.3590299
-0.9260781
-0.37490125
-0.97536554
-0.39129258
-1.0276751
-0.40822576
-1.083233
-0.42573284
-1.1422897
-0.44385426
-1.2051308
-0.46264611
-1.2720985
-0.48216692
-1.3435857
-0.50247039
-1.4200101
-0.52357834
-1.50172
-0.54542845
-1.5888628
-0.56783789
-1.6811906
-0.59069189
-1.7779431
-0.61384279
-1.8796439
-0.63716909
-1.9841309
-0.66076379
-2.0938999
-2.2128667
-0.00016154782
-0.046433466
-0.00083211722
-0.055788629
-0.0012501296
-0.055876146
-0.0019491768
-0.059237807
-0.0025030675
-0.061951669
-0.0032283092
-0.06447947
-0.0039536639
-0.067753843
-0.0047517879
-0.070600705
-0.0056282779
-0.073920189
-0.006570824
-0.077208098
-0.0076030071
-0.080687756
-0.008727027
-0.084291157
-0.0099543299
-0.088041461
-0.011294769
-0.091939576
-0.012758997
-0.095991795
-0.014358176
-0.10020369
-0.016103529
-0.10458206
-0.018006387
-0.10913415
-0.020077972
-0.11386825
-0.022329191
-0.11879365
-0.024770258
-0.1239207
-0.027411213
-0.12926077
-0.030261353
-0.1348269
-0.033328318
-0.14063295
-0.036619746
-0.14669435
-0.040141722
-0.15302826
-0.043899233
-0.15965234
-0.047896741
-0.16658654
-0.052137516
-0.17385137
-0.056624047
-0.18146886
-0.061358244
-0.18946231
-0.066342357
-0.1978551
-0.071578003
-0.20667349
-0.077067112
-0.21594245
-0.082812345
-0.22569012
-0.088816554
-0.23594416
-0.095083388
-0.24673412
-0.10161812
-0.25809019
-0.10842532
-0.2700449
-0.11551222
-0.28263048
-0.12288586
-0.29588313
-0.1305557
-0.30983782
-0.13853023
-0.32453447
-0.14682027
-0.34001297
-0.15543766
-0.35631584
-0.1643938
-0.37348917
-0.1737019
-0.39158057
-0.18337572
-0.41064161
-0.193429
-0.43072693
-0.20387677
-0.45189479
-0.21473363
-0.4742082
-0.22601582
-0.49773408
-0.23773827
-0.52254552
-0.24991719
-0.54872063
-0.26256929
-0.5763436
-0.27571095
-0.60550651
-0.28935888
-0.63630869
-0.30353131
-0.66885692
-0.3182462
-0.70326831
-0.33352211
-0.73966888
-0.34937919
-0.77819527
-0.36583844
-0.8189947
-0.38292141
-0.8622279
-0.40065085
-0.90806911
-0.4190539
-0.95670605
-0.43816142
-1.0083439
-0.45801205
-1.0632049
-0.47865512
-1.1215344
-0.50015187
-1.1836147
-0.52258075
-1.2497788
-0.54602337
-1.320421
-0.57055538
-1.395959
-0.59622466
-1.4767437
-0.62300041
-1.5629455
-0.65068637
-1.6544015
-0.67902934
-1.7503421
-0.70808043
-1.8510735
-0.73754308
-1.9550015
-0.76772181
-2.0636939
-2.1808863
-0.00015406885
-0.046278709
-0.00088603316
-0.055054882
-0.0013218202
-0.055438427
-0.0020654894
-0.05849178
-0.0026703913
-0.061344197
-0.0034425161
-0.063704386
-0.0042418122
-0.066951312
-0.0051096006
-0.069729294
-0.0060748206
-0.072950973
-0.007119823
-0.076158676
-0.0082702972
-0.0795324
-0.0095320125
-0.083024053
-0.010917929
-0.086649595
-0.012439946
-0.090410992
-0.014110524
-0.094313966
-0.015942096
-0.098364115
-0.017947065
-0.10256825
-0.02013741
-0.10693404
-0.022524746
-0.11147013
-0.025119916
-0.11618655
-0.027933065
-0.12109437
-0.030972964
-0.12620629
-0.034247328
-0.13153641
-0.037763048
-0.1370994
-0.041524924
-0.14291276
-0.045537403
-0.14899397
-0.049802789
-0.15536283
-0.054323358
-0.1620393
-0.059100642
-0.16904458
-0.064135461
-0.17640142
-0.069429193
-0.18413251
-0.074982804
-0.19226162
-0.080798564
-0.20081369
-0.086878774
-0.2098136
-0.093227388
-0.21928783
-0.099848438
-0.22926391
-0.10674825
-0.23976909
-0.1139331
-0.25083358
-0.12141205
-0.26248709
-0.12919362
-0.27476237
-0.13728953
-0.28769241
-0.14571035
-0.30131331
-0.15446969
-0.31566192
-0.16358179
-0.33077753
-0.17306114
-0.34670235
-0.1829238
-0.36348089
-0.19318665
-0.38115998
-0.20386722
-0.39979048