/*--------------------------------*- C++ -*----------------------------------*\
  =========                 |
  \\      /  F ield         | OpenFOAM: The Open Source CFD Toolbox
   \\    /   O peration     | Website:  https://openfoam.org
    \\  /    A nd           | Version:  12
     \\/     M anipulation  |
\*---------------------------------------------------------------------------*/
FoamFile
{
    format      ascii;
    class       volScalarField;
    location    "0.036";
    object      T;
}
// * * * * * * * * * * * * * * * * * * * * * * * * * * * * * * * * * * * * * //

dimensions      [0 0 0 1 0 0 0];

internalField   nonuniform List<scalar> 
16000
(
294.21474
285.45566
288.72473
286.90341
288.02028
287.49012
287.9136
287.78803
287.98222
288.0096
288.12656
288.20673
288.3081
288.40696
288.51196
288.62043
288.73314
288.84997
288.97098
289.0962
289.22566
289.35935
289.49728
289.63941
289.78569
289.93606
290.0904
290.2486
290.41051
290.57595
290.74472
290.9166
291.09134
291.26867
291.44831
291.62998
291.81337
291.99818
292.18412
292.37088
292.55819
292.74578
292.93342
293.12088
293.30798
293.49458
293.68056
293.86587
294.05049
294.23445
294.41783
294.60074
294.7833
294.96565
295.14787
295.32998
295.51192
295.69347
295.87417
296.05333
296.22989
296.40232
296.56856
296.72595
296.87122
297.0006
297.10983
297.19429
297.24909
297.26912
297.24949
297.18748
297.08724
296.96521
296.84814
296.76659
296.78708
296.7535
297.48969
297.68938
293.80539
284.98587
288.39743
286.48106
287.66081
287.09829
287.55453
287.42205
287.62924
287.66324
287.7869
287.87625
287.98477
288.09252
288.20594
288.32339
288.44522
288.57145
288.7021
288.83717
288.97669
289.12062
289.26894
289.42159
289.57848
289.73952
289.90456
290.07344
290.24597
290.42194
290.60108
290.78314
290.96782
291.15481
291.34379
291.53442
291.72636
291.91927
292.11283
292.30671
292.5006
292.69424
292.88735
293.07971
293.27114
293.46148
293.65063
293.83853
294.02517
294.2106
294.39489
294.57818
294.76059
294.94223
295.12319
295.30348
295.48299
295.66144
295.83836
296.01297
296.18417
296.3504
296.5096
296.65919
296.79612
296.91694
297.01795
297.0952
297.1446
297.16196
297.1433
297.08664
296.99624
296.88754
296.78661
296.72463
296.72364
296.81499
297.4824
297.73997
293.41836
284.55455
288.07082
286.1114
287.32848
286.75852
287.22786
287.10415
287.316
287.36236
287.49159
287.59172
287.70844
287.82604
287.94909
288.07661
288.20876
288.34558
288.48704
288.63316
288.7839
288.93922
289.09905
289.2633
289.43183
289.60452
289.78116
289.96155
290.14545
290.33257
290.52263
290.71529
290.9102
291.107
291.30532
291.50477
291.70497
291.90554
292.10612
292.30636
292.50594
292.70455
292.90195
293.0979
293.29221
293.48476
293.67544
293.86422
294.05112
294.23619
294.41955
294.60132
294.78165
294.96066
295.13842
295.31493
295.49005
295.66348
295.83469
296.00285
296.16681
296.325
296.47539
296.61549
296.74244
296.85316
296.94447
297.01313
297.05584
297.06931
297.05048
296.99798
296.91592
296.81934
296.73479
296.69043
296.69256
296.87407
297.49113
297.76589
293.06846
284.16269
287.80212
285.78852
287.03883
286.46186
286.94423
286.83098
287.04809
287.10832
287.24415
287.35628
287.48255
287.6112
287.74519
287.88403
288.02774
288.17634
288.3298
288.48809
288.65114
288.81888
288.9912
289.16796
289.34898
289.53407
289.72298
289.91544
290.11114
290.30974
290.51088
290.71415
290.91915
291.12545
291.33261
291.5402
291.7478
291.95499
292.16137
292.36658
292.57029
292.77221
292.97207
293.16967
293.36485
293.55749
293.74755
293.93501
294.11994
294.30243
294.48263
294.66068
294.83675
295.01097
295.18342
295.3541
295.52285
295.68935
295.85303
296.01305
296.16824
296.31706
296.45752
296.58726
296.70367
296.80403
296.88565
296.94595
296.98237
296.99241
296.97379
296.92542
296.85079
296.76421
296.69379
296.66774
296.67926
296.91782
297.4988
297.77929
292.7538
283.81419
287.54524
285.51522
286.80148
286.21514
286.70697
286.6083
286.82985
286.90622
287.04949
287.17491
287.3121
287.45294
287.59912
287.75044
287.90688
288.06842
288.23501
288.40659
288.58306
288.7643
288.95015
289.1404
289.33482
289.53314
289.73503
289.94015
290.1481
290.35846
290.57078
290.78458
290.99938
291.21468
291.42999
291.64481
291.85869
292.07118
292.28186
292.49037
292.69639
292.89963
293.09987
293.29694
293.49073
293.68117
293.86828
294.0521
294.23275
294.41038
294.58517
294.75733
294.92703
295.09444
295.25964
295.42262
295.58322
295.7411
295.89568
296.0461
296.19119
296.32944
296.45897
296.57759
296.68291
296.77259
296.84441
296.89637
296.92659
296.93321
296.9145
296.86948
296.80088
296.72183
296.66214
296.65134
296.6759
296.95262
297.50167
297.77822
292.47699
283.51525
287.33488
285.29132
286.58869
286.02332
286.52532
286.44126
286.66772
286.76061
286.91218
287.05165
287.20093
287.3549
287.51436
287.6793
287.84965
288.02536
288.20634
288.39249
288.58364
288.7796
288.98013
289.18496
289.39375
289.60613
289.82169
290.03996
290.26046
290.48267
290.70603
290.92997
291.15394
291.37737
291.5997
291.8204
292.03897
292.25497
292.46797
292.67765
292.88368
293.08586
293.28401
293.47802
293.66785
293.85354
294.03516
294.21284
294.38678
294.5572
294.72433
294.88843
295.04972
295.20838
295.36449
295.51806
295.66891
295.81669
295.96081
296.1004
296.23432
296.3611
296.479
296.586
296.67999
296.75897
296.82118
296.86513
296.88946
296.89279
296.87372
296.83123
296.7672
296.69331
296.642
296.63734
296.67855
296.98127
297.49681
297.76762
292.23957
283.26631
287.16053
285.11415
286.4343
285.88671
286.38298
286.33215
286.55719
286.67199
286.83294
286.98727
287.15011
287.31857
287.4929
287.67309
287.85903
288.05062
288.24769
288.45006
288.65747
288.86964
289.08623
289.30683
289.53102
289.75828
289.98809
290.21985
290.45297
290.6868
290.92068
291.15397
291.38601
291.61617
291.84386
292.06852
292.28966
292.50683
292.71966
292.92785
293.13117
293.32948
293.5227
293.71081
293.8939
294.07208
294.24555
294.41453
294.57931
294.74018
294.89747
295.05146
295.20242
295.35054
295.49594
295.63859
295.77833
295.91478
296.04736
296.17519
296.29714
296.41183
296.51765
296.61279
296.69543
296.7639
296.81683
296.85316
296.87192
296.87202
296.85209
296.81102
296.74996
296.67921
296.63175
296.62818
296.68961
297.00353
297.48507
297.75031
292.03823
283.0646
287.02105
284.97525
286.31191
285.78418
286.29235
286.25393
286.50318
286.63808
286.81111
286.98227
287.1612
287.34648
287.53804
287.73581
287.93961
288.14927
288.36452
288.58507
288.81055
289.04056
289.27461
289.51217
289.75264
289.9954
290.23975
290.48496
290.7303
290.97501
291.21832
291.4595
291.69783
291.93265
292.16334
292.38936
292.61024
292.82561
293.03515
293.23868
293.43607
293.6273
293.81242
293.99155
294.1649
294.33272
294.49532
294.65306
294.80629
294.95542
295.10082
295.24283
295.38176
295.51782
295.65111
295.78161
295.90915
296.03334
296.15356
296.26898
296.37848
296.48076
296.57435
296.65766
296.72915
296.78748
296.8316
296.86079
296.87431
296.87113
296.84972
296.80861
296.74872
296.67952
296.62965
296.62373
296.71191
297.02044
297.46892
297.72957
291.86713
282.90782
286.92067
284.87635
286.24547
285.7684
286.26966
286.25363
286.50475
286.66268
286.85138
287.04194
287.23998
287.44485
287.65635
287.87433
288.09853
288.32865
288.5643
288.80506
289.05042
289.2998
289.55255
289.80798
290.06529
290.3237
290.58234
290.84033
291.0968
291.35086
291.60168
291.84845
292.09043
292.32694
292.55741
292.78136
292.9984
293.20828
293.41082
293.60597
293.79378
293.97438
294.14799
294.3149
294.47547
294.63009
294.77921
294.92328
295.06278
295.19819
295.32992
295.45838
295.58388
295.70664
295.82676
295.9442
296.05876
296.17005
296.27744
296.3801
296.47696
296.56681
296.64831
296.72009
296.78086
296.82958
296.86546
296.88798
296.89649
296.88987
296.86625
296.82361
296.76273
296.69293
296.63836
296.62572
296.73925
297.03511
297.45174
297.71052
291.72513
282.79831
286.86407
284.83539
286.23144
285.75808
286.2756
286.32974
286.56964
286.75426
286.96214
287.17469
287.39482
287.62218
287.85648
288.09743
288.34464
288.59765
288.85592
289.11884
289.38569
289.65569
289.92799
290.20166
290.47574
290.74921
291.02103
291.2902
291.55569
291.81654
292.07186
292.32082
292.56271
292.79692
293.02297
293.24053
293.44936
293.64939
293.84064
294.02327
294.19753
294.36376
294.52238
294.67385
294.81869
294.95745
295.0907
295.219
295.34291
295.46295
295.57962
295.69332
295.80437
295.91297
296.01922
296.12303
296.22419
296.32228
296.41668
296.50656
296.59091
296.66859
296.7384
296.79918
296.84987
296.88963
296.91789
296.93418
296.9378
296.92744
296.90082
296.85533
296.79133
296.7181
296.65863
296.65175
296.75971
297.05077
297.43525
297.69413
291.61579
282.74438
286.85546
284.88802
286.27639
285.88187
286.36237
286.45663
286.70786
286.92063
287.15173
287.38938
287.63494
287.88802
288.14822
288.41507
288.688
288.96634
289.24931
289.53606
289.82561
290.11694
290.40893
290.7004
290.99016
291.277
291.55971
291.83715
292.10823
292.37193
292.62738
292.87383
293.11067
293.33745
293.55388
293.75986
293.95539
294.14066
294.31596
294.48169
294.63836
294.78652
294.9268
295.05984
295.18634
295.30695
295.42235
295.5332
295.64011
295.74363
295.84428
295.94246
296.03847
296.13248
296.22455
296.31456
296.40225
296.48719
296.56876
296.64614
296.71838
296.78443
296.8432
296.89371
296.93508
296.96665
296.98791
296.99837
296.99716
296.98265
296.95219
296.9027
296.83423
296.75603
296.6911
296.67843
296.78297
297.06805
297.42087
297.68194
291.5448
282.75535
286.90453
285.01824
286.36905
286.03739
286.51823
286.65771
286.92734
287.17095
287.42969
287.69614
287.97085
288.25322
288.54268
288.83851
289.13986
289.44578
289.7552
290.06691
290.37966
290.69208
291.00276
291.31029
291.61322
291.91017
292.19983
292.48096
292.75248
293.01345
293.26312
293.5009
293.72645
293.93957
294.1403
294.32884
294.50553
294.67088
294.82549
294.97004
295.10529
295.23202
295.35105
295.4632
295.56925
295.66998
295.76615
295.85843
295.94748
296.03386
296.11806
296.20044
296.28129
296.36071
296.43871
296.51512
296.58965
296.66182
296.73102
296.79646
296.85725
296.91241
296.96099
297.00211
297.03504
297.0592
297.0741
297.0791
297.07309
297.05408
297.01901
296.96462
296.8908
296.80647
296.73403
296.71548
296.81905
297.08663
297.4093
297.67506
291.51564
282.83867
287.01942
285.20824
286.53544
286.28038
286.75657
286.94581
287.23795
287.51582
287.80708
288.1067
288.41477
288.73038
289.05265
289.38052
289.71277
290.04804
290.38487
290.72167
291.05679
291.38854
291.71521
292.03512
292.34668
292.64839
292.9389
293.21706
293.48191
293.73274
293.96907
294.19069
294.39761
294.59005
294.76846
294.93344
295.08574
295.22619
295.35573
295.47531
295.58593
295.68855
295.78414
295.87362
295.95787
296.03772
296.11393
296.1872
296.25816
296.32735
296.39519
296.46202
296.52803
296.59329
296.65772
296.7211
296.78308
296.84318
296.90076
296.95507
297.00527
297.05048
297.08982
297.12253
297.14794
297.16551
297.17467
297.17461
297.1639
297.14014
297.09995
297.03997
296.96025
296.86969
296.79085
296.76638
296.86202
297.10788
297.40139
297.67278
291.52887
283.00227
287.20538
285.47658
286.78188
286.60815
287.08654
287.32835
287.6514
287.96813
288.29746
288.63534
288.98147
289.33447
289.69302
290.05556
290.42038
290.78562
291.14934
291.50952
291.86411
292.21109
292.54849
292.8745
293.18744
293.48589
293.76866
294.03485
294.28387
294.51545
294.72958
294.92657
295.10695
295.27147
295.42104
295.55671
295.67961
295.79093
295.89187
295.98362
296.06733
296.14411
296.215
296.28096
296.34291
296.40166
296.45795
296.51245
296.56571
296.61822
296.67033
296.7223
296.77424
296.82614
296.87784
296.92908
296.97944
297.0284
297.07534
297.11952
297.16017
297.19646
297.22762
297.25294
297.27178
297.28357
297.28762
297.28291
297.26769
297.23917
297.19368
297.12785
297.04195
296.94489
296.85937
296.82809
296.91041
297.13209
297.39789
297.67485
291.59002
283.25902
287.46526
285.83729
287.11375
287.03438
287.52194
287.8207
288.18301
288.54463
288.91828
289.30002
289.68897
290.08314
290.48059
290.87913
291.27644
291.67011
292.05766
292.43663
292.80463
293.15939
293.49887
293.82127
294.12513
294.40934
294.67318
294.91629
295.13872
295.34084
295.52331
295.68709
295.8333
295.96325
296.07833
296.18
296.26971
296.34891
296.41899
296.48129
296.53704
296.58738
296.63336
296.67594
296.71597
296.75422
296.79134
296.82793
296.86446
296.90132
296.93877
296.97698
297.01597
297.05563
297.09574
297.13597
297.17585
297.21484
297.25229
297.2875
297.31973
297.34824
297.37231
297.39126
297.40448
297.41129
297.41087
297.40195
297.38251
297.34943
297.2988
297.22728
297.13534
297.03176
296.9393
296.89997
296.96547
297.15915
297.39819
297.68095
291.70291
283.62645
287.79345
286.30039
287.54891
287.57334
288.08052
288.44208
288.85341
289.26707
289.6915
290.12239
290.55802
290.99567
291.4326
291.86591
292.29257
292.70958
293.11396
293.50291
293.87388
294.22463
294.55335
294.85867
295.13972
295.3961
295.62789
295.83561
296.02013
296.18264
296.32458
296.44756
296.5533
296.64357
296.72017
296.78482
296.83921
296.88493
296.92343
296.95608
296.98409
297.00858
297.03051
297.05075
297.07006
297.08911
297.10844
297.12854
297.14978
297.17243
297.19665
297.2225
297.24991
297.2787
297.30857
297.33911
297.36982
297.40012
297.42936
297.45685
297.4819
297.50379
297.52187
297.53548
297.54397
297.54659
297.54234
297.52971
297.50641
297.46913
297.41381
297.33721
297.23992
297.13053
297.03098
296.98117
297.02817
297.19133
297.40356
297.68917
291.87159
284.1339
288.20136
286.88467
288.10734
288.24824
288.78787
289.2193
289.68929
290.16198
290.64265
291.12634
291.61025
292.09073
292.56412
293.02665
293.47462
293.90451
294.3131
294.69759
295.05571
295.38579
295.6868
295.95833
296.20055
296.41419
296.60042
296.76081
296.89716
297.0115
297.10596
297.18271
297.24391
297.29166
297.32796
297.35468
297.37355
297.38615
297.39391
297.39809
297.39982
297.40007
297.3997
297.39944
297.39991
297.40163
297.40503
297.41047
297.41819
297.42835
297.44101
297.45611
297.47351
297.49293
297.51402
297.5363
297.55923
297.58221
297.60459
297.62567
297.64478
297.66125
297.67443
297.68369
297.68834
297.68751
297.68005
297.66423
297.63754
297.59654
297.53721
297.45648
297.35505
297.24112
297.13527
297.07421
297.10071
297.23011
297.41607
297.69808
292.1073
284.83001
288.72981
287.62085
288.81989
289.0899
289.6761
290.1842
290.7212
291.25853
291.79864
292.33565
292.86532
293.38286
293.88357
294.36294
294.81688
295.24183
295.63496
295.99423
296.31844
296.6072
296.8609
297.08059
297.26787
297.42481
297.55374
297.65724
297.73794
297.79853
297.8416
297.86967
297.8851
297.89009
297.88665
297.8766
297.86158
297.84305
297.82226
297.80033
297.77821
297.75669
297.73646
297.71808
297.70203
297.68868
297.67832
297.67116
297.66734
297.6669
297.66978
297.67585
297.68486
297.69649
297.7103
297.72578
297.74236
297.75941
297.77627
297.79224
297.80666
297.81888
297.82824
297.83411
297.83574
297.83219
297.82213
297.80368
297.77418
297.73013
297.66768
297.58404
297.48002
297.36329
297.25241
297.17971
297.18374
297.27796
297.43826
297.71369
292.4365
285.7011
289.40675
288.54548
289.72365
290.13254
290.78091
291.37232
291.9827
292.58748
293.18586
293.77063
294.33594
294.87587
295.38513
295.85916
296.29439
296.68834
297.03965
297.34805
297.61427
297.83987
298.0271
298.17871
298.29777
298.38754
298.45136
298.49249
298.51412
298.51921
298.51056
298.49071
298.46198
298.42645
298.38595
298.34212
298.29637
298.24992
298.20383
298.15896
298.11607
298.07575
298.03851
298.00474
297.97474
297.94874
297.9269
297.90931
297.89598
297.88684
297.88176
297.8805
297.88276
297.88813
297.89615
297.90627
297.91788
297.93034
297.94297
297.95509
297.96602
297.97511
297.98169
297.98509
297.98451
297.97893
297.96692
297.94646
297.91482
297.86857
297.80412
297.71904
297.61418
297.49639
297.38174
297.29796
297.27888
297.33935
297.47387
297.74003
292.89861
286.67894
290.26914
289.69365
290.8621
291.41765
292.14485
292.82521
293.51058
294.17837
294.8241
295.43927
296.01705
296.55146
297.03798
297.47359
297.85684
298.18772
298.46751
298.69858
298.88409
299.02777
299.13369
299.20604
299.24902
299.26668
299.26283
299.24105
299.20457
299.15635
299.099
299.03485
298.96596
298.89411
298.82084
298.74747
298.67514
298.60478
298.5372
298.47302
298.41277
298.35685
298.30559
298.2592
298.21786
298.18164
298.15058
298.12466
298.10378
298.08779
298.07646
298.06951
298.06655
298.06714
298.07077
298.07686
298.08479
298.0939
298.10351
298.11294
298.1215
298.12851
298.13329
298.1351
298.13311
298.12621
298.11291
298.09113
298.05816
298.01074
297.94565
297.86083
297.75709
297.64032
297.52386
297.43061
297.38934
297.41806
297.5286
297.77688
293.54912
287.94244
291.36787
291.11732
292.29571
293.00315
293.82021
294.58712
295.33606
296.04619
296.71038
297.32035
297.87039
298.35682
298.77819
299.13499
299.42947
299.66515
299.84656
299.97882
300.06733
300.11755
300.13476
300.12397
300.08982
300.03653
299.96787
299.88721
299.7975
299.70131
299.60087
299.49811
299.39465
299.29191
299.19105
299.09306
298.99875
298.90879
298.8237
298.74391
298.66972
298.60135
298.53897
298.48264
298.43241
298.38824
298.35007
298.31776
298.29113
298.26997
298.25397
298.2428
298.23601
298.23315
298.23365
298.23692
298.24233
298.24921
298.25688
298.26465
298.27183
298.27771
298.28158
298.28266
298.28004
298.27258
298.25872
298.23639
298.20298
298.15557
298.09135
298.00865
297.90814
297.79457
297.67877
297.57888
297.51892
297.52074
297.60567
297.81718
294.44498
289.54982
292.78717
292.89565
294.10291
294.95592
295.85414
296.68338
297.45966
298.16611
298.79649
299.34612
299.81381
300.20098
300.51137
300.75032
300.92435
301.04052
301.1061
301.12818
301.11349
301.06821
300.99795
300.90769
300.8018
300.68408
300.5578
300.42576
300.29035
300.15358
300.01715
299.88249
299.7508
299.62304
299.50003
299.38243
299.27074
299.16537
299.06662
298.9747
298.88975
298.81184
298.74097
298.67712
298.6202
298.5701
298.52665
298.48965
298.45886
298.43398
298.41468
298.40056
298.39117
298.38599
298.38446
298.38596
298.38985
298.39546
298.40211
298.40911
298.41576
298.42134
298.4251
298.42623
298.42377
298.41652
298.40289
298.38085
298.348
298.3018
298.23998
298.16118
298.06583
297.95745
297.84459
297.74175
297.66831
297.64624
297.69947
297.86047
295.56862
291.62539
294.63223
295.11161
296.34955
297.31928
298.25347
299.08492
299.82017
300.4505
300.97601
301.39961
301.72749
301.96779
302.12997
302.2239
302.25939
302.24575
302.19153
302.10439
301.99108
301.85744
301.70848
301.54844
301.38088
301.20881
301.03469
300.86062
300.68828
300.51908
300.35419
300.19453
300.04087
299.8938
299.75381
299.62126
299.4964
299.37943
299.27045
299.1695
299.07658
298.99163
298.91456
298.84524
298.78351
298.72916
298.68198
298.64171
298.60805
298.58066
298.55917
298.54316
298.53214
298.52559
298.52292
298.52351
298.52671
298.53184
298.53823
298.54518
298.552
298.55797
298.56231
298.5642
298.56263
298.55636
298.54378
298.52293
298.49164
298.4478
298.38964
298.31604
298.22706
298.1252
298.017
297.91401
297.83167
297.78816
297.80518
297.90627
297.09261
294.28079
296.9976
297.81783
299.03066
300.06188
300.94284
301.67909
302.27975
302.7487
303.09649
303.33558
303.47987
303.54334
303.53941
303.48033
303.37705
303.23902
303.07434
302.88978
302.69101
302.48267
302.26858
302.05185
301.835
301.62008
301.40872
301.20226
301.00174
300.80802
300.62174
300.44343
300.27348
300.11219
299.95975
299.8163
299.68189
299.55655
299.44022
299.33283
299.23426
299.14436
299.06295
298.98983
298.92477
298.86753
298.81784
298.77539
298.73986
298.71088
298.68806
298.67095
298.65906
298.65185
298.64873
298.64907
298.65221
298.65748
298.66418
298.67165
298.67918
298.68607
298.69157
298.69481
298.69478
298.69019
298.67944
298.66066
298.63188
298.59132
298.53752
298.46941
298.38677
298.29139
298.18849
298.08706
297.99837
297.93523
297.91357
297.95083
299.06003
297.58561
299.87869
300.98875
302.17192
303.03646
303.7438
304.27237
304.64471
304.87927
304.99734
305.01909
304.96316
304.84592
304.68137
304.48119
304.25499
304.01053
303.75408
303.49061
303.22408
302.95759
302.69359
302.43401
302.18033
301.9337
301.69503
301.465
301.24411
301.03276
300.8312
300.63963
300.45816
300.28684
300.12567
299.97461
299.83357
299.70243
299.58106
299.46926
299.36685
299.2736
299.18928
299.11363
299.04639
298.98726
298.93594
298.89211
298.85542
298.82549
298.80192
298.78424
298.77198
298.76459
298.76148
298.76202
298.76555
298.77138
298.77881
298.78717
298.79579
298.80399
298.81103
298.81608
298.81808
298.81575
298.80748
298.79148
298.7659
298.72903
298.6794
298.6159
298.53821
298.4479
298.34939
298.24937
298.15488
298.07308
298.0137
297.99061
301.50031
301.52332
303.52413
304.49596
305.38967
306.00157
306.41003
306.63622
306.71659
306.68074
306.55549
306.36297
306.12122
305.84459
305.54433
305.22915
304.90575
304.57925
304.25354
303.93157
303.61554
303.3071
303.00748
302.71757
302.43802
302.16928
301.91165
301.66533
301.43042
301.20697
300.99496
300.79434
300.60502
300.42688
300.25978
300.10357
299.95804
299.82301
299.69824
299.58349
299.47852
299.38306
299.29682
299.21952
299.15085
299.0905
299.03813
298.99342
298.95599
298.92547
298.90145
298.88348
298.87109
298.86373
298.86084
298.8618
298.86593
298.87254
298.88093
298.89041
298.90031
298.90999
298.91877
298.92583
298.93015
298.93042
298.92504
298.91216
298.88987
298.85628
298.8097
298.74892
298.67391
298.58643
298.49034
298.38992
298.28821
298.18785
298.09508
298.02289
304.55566
305.93797
307.26134
307.96236
308.44113
308.65305
308.68022
308.56429
308.34589
308.05524
307.71576
307.34484
306.95535
306.55669
306.15568
305.75725
305.36493
304.98121
304.60785
304.24606
303.89664
303.5601
303.23674
302.92671
302.63004
302.34668
302.07654
301.81946
301.57528
301.34382
301.12487
300.91821
300.72363
300.54091
300.3698
300.21007
300.06147
299.92375
299.79663
299.67983
299.57307
299.47605
299.38846
299.30998
299.24029
299.17905
299.12591
299.08053
299.04255
299.01157
298.98719
298.96898
298.95645
298.94911
298.94639
298.9477
298.95239
298.95976
298.96912
298.97976
298.991
299.00219
299.01268
299.0217
299.02826
299.03108
299.0285
299.01855
298.99898
298.96757
298.92238
298.86223
298.78742
298.70008
298.60363
298.50055
298.39028
298.27174
298.15097
298.04618
308.49399
310.26737
310.80671
310.99473
310.94301
310.71292
310.36652
309.94603
309.48153
308.99364
308.49639
307.99923
307.50846
307.02822
306.56122
306.10911
305.6729
305.2531
304.84991
304.46334
304.09321
303.73928
303.40125
303.07877
302.77149
302.47904
302.20108
301.93725
301.6872
301.45062
301.22717
301.01657
300.8185
300.63268
300.45883
300.29665
300.14587
300.00619
299.87733
299.75898
299.65085
299.5526
299.46393
299.38449
299.31395
299.25196
299.19816
299.1522
299.11371
299.08231
299.05758
299.03909
299.02636
299.01888
299.0161
299.01747
299.0224
299.03027
299.0404
299.05209
299.06464
299.07735
299.08953
299.10039
299.10895
299.11389
299.11346
299.10557
299.08777
299.0573
299.01225
298.95141
298.87516
298.78553
298.68536
298.57654
298.45763
298.32603
298.18703
298.05949
313.4349
313.80087
313.532
313.16671
312.64809
312.05976
311.43701
310.80534
310.17889
309.56625
308.9722
308.39933
307.84885
307.32114
306.81606
306.3332
305.87194
305.43159
305.01143
304.61073
304.22878
303.86487
303.51836
303.18864
302.87512
302.57727
302.29458
302.02659
301.77286
301.53299
301.30659
301.09331
300.89281
300.70477
300.52887
300.36481
300.21228
300.07099
299.94064
299.82091
299.71149
299.61206
299.52229
299.44184
299.37037
299.30752
299.25295
299.20629
299.1672
299.13528
299.11011
299.09124
299.07816
299.07032
299.06714
299.06799
299.07253
299.08028
299.09066
299.10301
299.11664
299.1308
299.1447
299.1575
299.16815
299.17523
299.17671
299.1701
299.15301
299.12353
299.07815
299.01606
298.93738
298.84407
298.73894
298.62368
298.49685
298.35606
298.20644
298.06676
315.42321
315.58852
315.01536
314.25784
313.48333
312.70834
311.95291
311.22466
310.52702
309.861
309.22633
308.62209
308.04705
307.49986
306.97913
306.48353
306.01177
305.56266
305.13509
304.72804
304.34057
303.97181
303.62097
303.28733
302.97024
302.66907
302.38329
302.11237
301.85586
301.61332
301.38435
301.16857
300.96564
300.77523
300.59702
300.43069
300.27596
300.13251
300.00004
299.87826
299.76684
299.66547
299.57381
299.49154
299.41829
299.35374
299.29754
299.24933
299.20877
299.17547
299.14902
299.12893
299.11468
299.10569
299.10137
299.10064
299.10425
299.111
299.12056
299.13251
299.14622
299.16096
299.17588
299.18995
299.20143
299.20919
299.2142
299.21476
299.19433
299.16717
299.12162
299.05855
298.97752
298.88077
298.77118
298.65049
298.51775
298.37114
298.21585
298.07027
312.03635
311.31699
307.6224
304.94034
303.78468
303.53209
303.46564
303.45448
303.34067
303.27705
303.17139
303.09941
303.0133
302.92355
302.83466
302.74563
302.65602
302.56579
302.47498
302.38363
302.29181
302.19961
302.10711
302.01438
301.92151
301.82856
301.73561
301.6427
301.54987
301.45716
301.3646
301.27218
301.17991
301.08779
300.99578
300.90386
300.81197
300.72008
300.62811
300.53599
300.44365
300.35098
300.2579
300.1643
300.07008
299.97512
299.8793
299.78248
299.68453
299.5853
299.48463
299.3824
299.2785
299.17287
299.06557
298.95683
298.84712
298.7373
298.62875
298.52356
298.42464
298.33578
298.26161
298.20749
298.17924
298.18417
298.22891
298.31824
298.45515
298.63568
298.85524
299.07446
299.30197
299.39576
299.51041
299.26901
299.19347
298.1715
297.92261
297.49511
311.74604
308.90555
304.89505
302.96048
302.45969
302.48246
302.5727
302.57004
302.5533
302.51972
302.48759
302.44233
302.39193
302.3382
302.28115
302.22069
302.15719
302.09101
302.02244
301.95176
301.87918
301.80493
301.72918
301.65212
301.57389
301.49464
301.41449
301.33355
301.25191
301.16966
301.08688
301.00362
300.91993
300.83585
300.7514
300.66659
300.58142
300.49587
300.40992
300.32353
300.23664
300.14921
300.06116
299.97243
299.88293
299.79256
299.70124
299.60886
299.51531
299.42047
299.32425
299.22657
299.12738
299.02673
298.92476
298.82183
298.71856
298.61598
298.51563
298.41972
298.33125
298.254
298.19249
298.15179
298.13768
298.15685
298.21512
298.31669
298.46309
298.64945
298.86817
299.08266
299.28749
299.37429
299.44894
299.19966
299.08159
298.08694
297.8767
297.4666
310.54843
306.89282
303.93249
302.31184
302.03916
302.06961
302.08146
302.04564
302.00799
301.9677
301.92835
301.88719
301.8444
301.79914
301.75214
301.70322
301.65243
301.59979
301.54532
301.48907
301.43108
301.37143
301.31016
301.24735
301.18306
301.11738
301.05037
300.9821
300.91266
300.84211
300.77052
300.69795
300.62446
300.5501
300.47491
300.39891
300.32214
300.24459
300.16628
300.08719
300.00729
299.92656
299.84497
299.76246
299.67899
299.59448
299.50888
299.4221
299.33407
299.24472
299.154
299.06189
298.96843
298.87373
298.77806
298.68189
298.58598
298.49152
298.40019
298.31432
298.23694
298.17182
298.12329
298.09618
298.09611
298.1293
298.2007
298.31344
298.46817
298.6588
298.87557
299.08281
299.26715
299.34278
299.38026
299.12169
298.94568
298.00798
297.83877
297.43932
309.48452
305.50809
302.64951
301.4792
301.45699
301.46139
301.46551
301.42643
301.40089
301.36822
301.33925
301.30668
301.27324
301.2384
301.20263
301.1654
301.12675
301.08665
301.04502
301.00185
300.95711
300.91078
300.86287
300.81336
300.76227
300.70963
300.65545
300.59976
300.54261
300.48403
300.42407
300.36277
300.30018
300.23633
300.17128
300.10504
300.03766
299.96915
299.89952
299.82879
299.75695
299.684
299.60992
299.53469
299.45828
299.38065
299.30176
299.22156
299.14001
299.05709
298.9728
298.88718
298.80035
298.71252
298.62405
298.53554
298.4479
298.36245
298.28101
298.20599
298.14047
298.08811
298.05307
298.03995
298.05405
298.10129
298.18563
298.3089
298.471
298.66466
298.87833
299.0766
299.24236
299.30262
299.30494
299.0325
298.77476
297.93265
297.80749
297.41419
308.80656
304.24145
301.67158
300.79167
300.85691
300.82721
300.84184
300.8055
300.79164
300.76591
300.74634
300.72252
300.69876
300.67381
300.64828
300.62156
300.59373
300.56471
300.53442
300.50281
300.4698
300.43536
300.39942
300.36197
300.32297
300.28238
300.24021
300.19644
300.15107
300.10411
300.05558
300.00549
299.95387
299.90073
299.84612
299.79005
299.73254
299.67363
299.61333
299.55165
299.4886
299.4242
299.35843
299.29129
299.22278
299.15287
299.08154
299.00879
298.93459
298.85897
298.78197
298.70372
298.62439
298.5443
298.46392
298.38396
298.30545
298.22985
298.1591
298.09568
298.04265
298.00357
297.9824
297.98353
298.01202
298.07285
298.1694
298.30262
298.47104
298.66644
298.87578
299.06386
299.21781
299.25454
299.22864
298.93327
298.61459
297.86061
297.78306
297.39193
308.23339
303.00308
300.82618
300.1199
300.2426
300.18984
300.22067
300.18637
300.18512
300.16675
300.15712
300.14208
300.12754
300.11186
300.09578
300.07867
300.06059
300.04146
300.02123
299.99983
299.97719
299.95326
299.92797
299.90128
299.87312
299.84345
299.81223
299.77943
299.74501
299.70896
299.67127
299.63192
299.59092
299.54828
299.504
299.45809
299.41057
299.36146
299.31076
299.2585
299.20468
299.14932
299.09242
299.03398
298.974
298.91249
298.84944
298.78486
298.71876
298.65121
298.58231
298.51222
298.44122
298.3697
298.29824
298.22767
298.15913
298.09418
298.03486
297.98372
297.94376
297.91841
297.91143
297.92701
297.96979
298.04389
298.15205
298.29435
298.46806
298.66396
298.86779
299.04478
299.19314
299.19961
299.16307
298.82585
298.48786
297.78121
297.76072
297.37262
307.6661
301.90909
300.11177
299.50153
299.65988
299.58567
299.63146
299.59662
299.60502
299.59147
299.58916
299.581
299.57339
299.56476
299.55592
299.54633
299.53605
299.52497
299.51302
299.50012
299.48622
299.47122
299.45506
299.43768
299.41898
299.39893
299.37744
299.35447
299.32996
299.30389
299.2762
299.24688
299.21589
299.18324
299.14891
299.11289
299.07519
299.03581
298.99476
298.95204
298.90766
298.86163
298.81395
298.76464
298.71368
298.6611
298.6069
298.55112
298.49378
298.43499
298.3749
298.31372
298.25181
298.18964
298.12789
298.06749
298.00969
297.95613
297.90895
297.87068
297.84428
297.833
297.84041
297.87048
297.92734
298.01438
298.13346
298.28387
298.46176
298.65695
298.85418
299.01936
299.14757
299.13802
299.09778
298.7114
298.37494
297.69553
297.73307
297.35614
307.17222
300.89721
299.4889
298.92136
299.10898