/*--------------------------------*- C++ -*----------------------------------*\
  =========                 |
  \\      /  F ield         | OpenFOAM: The Open Source CFD Toolbox
   \\    /   O peration     | Website:  https://openfoam.org
    \\  /    A nd           | Version:  12
     \\/     M anipulation  |
\*---------------------------------------------------------------------------*/
FoamFile
{
    format      ascii;
    class       volScalarField;
    location    "1050";
    object      alphat;
}
// * * * * * * * * * * * * * * * * * * * * * * * * * * * * * * * * * * * * * //

dimensions      [1 -1 -1 0 0 0 0];

internalField   nonuniform List<scalar> 
16200
(
0.0004815284682
0.001645613786
0.002738132555
0.003589866335
0.003850741624
0.003392747353
0.002499678814
0.001370140456
0.0007068123724
0.0001852185636
5.799991562e-06
2.633594982e-06
2.386784361e-06
2.348763366e-06
1.865014074e-06
1.607446444e-06
1.403800243e-06
1.260234592e-06
1.167179365e-06
1.107309029e-06
1.072999524e-06
1.06143276e-06
1.069817472e-06
1.096459529e-06
1.14099931e-06
1.204670521e-06
1.290722423e-06
1.405059023e-06
1.557565826e-06
1.764860015e-06
2.055459672e-06
2.479396157e-06
3.126463142e-06
4.163848495e-06
5.92080649e-06
9.080801535e-06
1.511822819e-05
2.728589449e-05
5.285964278e-05
0.0001083026318
0.0002312829136
0.0005088360198
0.001143705132
0.001165298274
0.001165841947
0.001165497356
0.001164496416
0.001164192126
0.001164203286
0.001164314149
0.001164440659
0.001164554995
0.001164652267
0.00116473653
0.00116481504
0.001164897309
0.001164993672
0.001165121743
0.001165294096
0.001165566532
0.0004701415286
0.001592820203
0.00262093185
0.003370047227
0.003467226137
0.002895705955
0.002023620079
0.001002244921
0.0005538139206
4.08036386e-05
2.670903636e-06
2.194464497e-06
1.999177832e-06
1.962106568e-06
1.659451701e-06
1.426991622e-06
1.242861665e-06
1.113170296e-06
1.030750566e-06
9.789581341e-07
9.504960007e-07
9.42480915e-07
9.521523406e-07
9.777553177e-07
1.018843038e-06
1.076454318e-06
1.153499918e-06
1.255375427e-06
1.391258541e-06
1.576655942e-06
1.83794225e-06
2.220710584e-06
2.805918049e-06
3.743461727e-06
5.327798468e-06
8.1695527e-06
1.358599026e-05
2.448397586e-05
4.736544227e-05
9.693985458e-05
0.0002068606769
0.0004549027522
0.001022311617
0.001165131787
0.001165715814
0.001165492805
0.001164498329
0.001164189152
0.001164200638
0.001164313981
0.001164443478
0.001164560542
0.001164660004
0.001164745798
0.00116482528
0.00116490771
0.001165003904
0.001165131235
0.001165303434
0.001165579654
0.0004604797314
0.001543172923
0.002508418988
0.003152336234
0.003094058695
0.002438186181
0.001548566823
0.0007291904771
0.0003661248183
1.388436545e-05
2.072024203e-06
1.836031848e-06
1.67809237e-06
1.643304636e-06
1.467961284e-06
1.259556848e-06
1.094496227e-06
9.7823147e-07
9.057206682e-07
8.611214637e-07
8.374793841e-07
8.318258858e-07
8.414284501e-07
8.645105735e-07
9.006030844e-07
9.506658896e-07
1.017477048e-06
1.106292946e-06
1.226129979e-06
1.39199395e-06
1.628644077e-06
1.977730831e-06
2.512241161e-06
3.366866418e-06
4.806041212e-06
7.377720241e-06
1.226275261e-05
2.206299885e-05
4.25850307e-05
8.692972947e-05
0.0001849893145
0.0004056824904
0.0009092982202
0.001165060908
0.00116563967
0.001165496214
0.001164514987
0.001164199347
0.001164207965
0.001164320756
0.001164450857
0.001164568937
0.001164669417
0.001164756007
0.001164835987
0.001164918422
0.001165014334
0.001165141009
0.001165313099
0.001165593143
0.0004534846426
0.001497212044
0.002398196254
0.002906564936
0.002720444798
0.00202810288
0.001098545641
0.0005385146601
0.0001778668257
4.899000717e-06
1.726876638e-06
1.552997219e-06
1.424041748e-06
1.391335404e-06
1.300409835e-06
1.112493648e-06
9.638587411e-07
8.592653499e-07
7.952238301e-07
7.566228743e-07
7.368133379e-07
7.327581799e-07
7.417909463e-07
7.622288405e-07
7.937264336e-07
8.373794437e-07
8.961491563e-07
9.755664098e-07
1.084893834e-06
1.238947461e-06
1.461231889e-06
1.790334605e-06
2.293428483e-06
3.094744037e-06
4.438815093e-06
6.832777921e-06
1.136938926e-05
2.045475849e-05
3.945133879e-05
8.043603671e-05
0.0001709122624
0.0003741817423
0.0008372557804
0.001165099965
0.001165629304
0.001165506196
0.001164548926
0.001164226366
0.001164228764
0.001164337367
0.001164465014
0.001164581799
0.00116468165
0.001164767931
0.001164847683
0.001164929749
0.001165025133
0.00116515112
0.001165322971
0.001165606275
0.0004476778939
0.001454564467
0.002292074837
0.002667090204
0.002361147262
0.001672480751
0.0007902676425
0.0004083226795
4.239408679e-05
1.981639315e-06
1.454112301e-06
1.317162873e-06
1.211987572e-06
1.182060582e-06
1.146018758e-06
9.775353169e-07
8.445696766e-07
7.511633702e-07
6.950371981e-07
6.618815435e-07
6.454388597e-07
6.426999198e-07
6.511634124e-07
6.69369123e-07
6.972340581e-07
7.361739669e-07
7.89549429e-07
8.633224164e-07
9.669977844e-07
1.115091955e-06
1.329892604e-06
1.647413503e-06
2.13023032e-06
2.894562729e-06
4.169981651e-06
6.433025638e-06
1.070984283e-05
1.925653186e-05
3.709026304e-05
7.548070964e-05
0.0001600239644
0.0003494843274
0.0007800335659
0.001165219858
0.001165669841
0.001165523452
0.001164595772
0.001164265882
0.001164259536
0.00116436122
0.001164484116
0.001164597871
0.001164695868
0.001164781025
0.001164860035
0.001164941479
0.001165036214
0.001165161536
0.001165333151
0.001165619487
0.0004425230148
0.001414805446
0.002188274362
0.002428476044
0.002014766956
0.001304553324
0.0005847963667
0.000280639028
1.663430681e-05
1.503452863e-06
1.22868969e-06
1.123390808e-06
1.037080685e-06
1.009410612e-06
1.006106925e-06
8.551651959e-07
7.365444164e-07
6.535873472e-07
6.048105509e-07
5.767406648e-07
5.635421405e-07
5.622873055e-07
5.707016174e-07
5.876426226e-07
6.134041973e-07
6.498509327e-07
7.008257481e-07
7.726880121e-07
8.75063406e-07
1.022136648e-06
1.235261768e-06
1.548647631e-06
2.021708716e-06
2.765278529e-06
3.99918839e-06
6.180394561e-06
1.029223318e-05
1.849300608e-05
3.557086703e-05
7.22507728e-05
0.0001528210459
0.0003328897883
0.0007409915716
0.001165405234
0.001165755065
0.001165565352
0.001164652199
0.001164315739
0.001164298976
0.001164391567
0.00116450776
0.001164616953
0.001164711987
0.001164795262
0.001164873053
0.001164953621
0.001165047595
0.001165172264
0.00116534363
0.001165632695
0.0004373251328
0.001376706939
0.00208459691
0.002179780867
0.001688221195
0.000955136844
0.0004394200341
0.000165981275
5.302851576e-06
1.350992289e-06
1.025367181e-06
9.58664845e-07
8.875702914e-07
8.623789683e-07
8.768180658e-07
7.42759176e-07
6.380915014e-07
5.655743121e-07
5.241539446e-07
5.012514934e-07
4.914942577e-07
4.921143558e-07
5.011559504e-07
5.178947464e-07
5.430831234e-07
5.788324011e-07
6.298886028e-07
7.026441609e-07
8.06730345e-07
9.560441157e-07
1.171914265e-06
1.486476114e-06
1.957471189e-06
2.692212849e-06
3.904490092e-06
6.039516699e-06
1.005470266e-05
1.804725227e-05
3.465715148e-05
7.024544635e-05
0.000148202264
0.0003219162645
0.0007144416577
0.001165636009
0.001165872254
0.001165624261
0.001164715181
0.00116437321
0.001164345031
0.001164426986
0.001164535011
0.001164638458
0.001164729652
0.00116481044
0.001164886628
0.001164966121
0.001165059259
0.0011651833
0.001165354431
0.001165645968
0.0004313939432
0.001338314669
0.001977185174
0.001928037445
0.001395953427
0.0006916072891
0.0003404093327
6.22640703e-05
2.353387375e-06
1.050288726e-06
9.000143572e-07
8.180330702e-07
7.597153692e-07
7.373786461e-07
7.597379278e-07
6.418209958e-07
5.505365136e-07
4.881848648e-07
4.538928924e-07
4.36026223e-07
4.29729577e-07
4.324809898e-07
4.427158546e-07
4.601728445e-07
4.858513986e-07
5.230041436e-07
5.76004684e-07
6.516623439e-07
7.596430202e-07
9.137482445e-07
1.134446504e-06
1.45501857e-06
1.930430652e-06
2.666545747e-06
3.874262186e-06
5.993829952e-06
9.971464557e-06
1.787546365e-05
3.426886091e-05
6.930867587e-05
0.0001458504205
0.0003158981401
0.000698955622
0.001165895677
0.001166010836
0.001165693721
0.001164781993
0.001164435913
0.001164395928
0.001164466266
0.001164565088
0.001164661907
0.001164748585
0.001164826409
0.00116490069
0.001164978947
0.001165071201
0.001165194644
0.00116536556
0.001165659314
0.0004248248009
0.001297573106
0.001842549457
0.001674316839
0.001117068443
0.0005155923541
0.000258794256
3.110200959e-05
1.435514994e-06
8.911145125e-07
7.654199266e-07
7.013440144e-07
6.53140555e-07
6.333382896e-07
6.569620042e-07
5.535569961e-07
4.744376003e-07
4.215264621e-07
3.938685879e-07
3.807546209e-07
3.778426624e-07
3.828914665e-07
3.945038072e-07
4.134078384e-07
4.410000466e-07
4.804339207e-07
5.36605634e-07
6.164880985e-07
7.298333784e-07
8.905173611e-07
1.119064812e-06
1.448501209e-06
1.933571684e-06
2.679312336e-06
3.896242862e-06
6.025112919e-06
1.001285772e-05
1.792486152e-05
3.430456249e-05
6.923345621e-05
0.0001453242202
0.0003138655051
0.0006923564223
0.001166169815
0.001166161303
0.0011657677
0.00116485053
0.001164501764
0.001164450021
0.001164508236
0.001164597211
0.001164686806
0.00116476849
0.001164843003
0.001164915154
0.001164992062
0.00116508341
0.001165206297
0.001165377024
0.001165672756
0.0004174450763
0.001254391117
0.001692712082
0.001425169464
0.0008271427541
0.0003900334025
0.000184171192
1.761119939e-05
1.120587204e-06
7.587004871e-07
6.582703839e-07
6.033259512e-07
5.632463959e-07
5.458694006e-07
5.668773867e-07
4.766589333e-07
4.087229883e-07
3.646732233e-07
3.432528102e-07
3.346450297e-07
3.350015254e-07
3.421272234e-07
3.559061914e-07
3.767184821e-07
4.066000252e-07
4.490700044e-07
5.092594248e-07
5.942987982e-07
7.141015662e-07
8.827734197e-07
1.12113619e-06
1.462343643e-06
1.961466578e-06
2.723765542e-06
3.96150667e-06
6.120601553e-06
1.015891232e-05
1.816119251e-05
3.470044012e-05
6.989272463e-05
0.000146357819
0.0003152421126
0.0006933637657
0.001166447046
0.001166316003
0.00116584118
0.001164919145
0.00116456904
0.001164505912
0.001164551882
0.001164630694
0.001164712718
0.001164789105
0.001164860076
0.001164929948
0.001165005434
0.001165095879
0.001165218259
0.001165388827
0.001165686305
0.0004090036091
0.001208266266
0.001532679453
0.001187997295
0.0006017045264
0.0002998876118
0.0001219319668
1.204166966e-05
9.215296052e-07
6.48721194e-07
5.671711715e-07
5.205753198e-07
4.8711381e-07
4.720570571e-07
4.884486552e-07
4.102537703e-07
3.526251414e-07
3.168535317e-07
3.012084567e-07
2.967440803e-07
2.998076417e-07
3.095041591e-07
3.253052186e-07
3.48283894e-07
3.809011586e-07
4.26958867e-07
4.917788048e-07
5.826668562e-07
7.097767376e-07
8.875745322e-07
1.137369843e-06
1.492760015e-06
2.009583074e-06
2.794216358e-06
4.062483074e-06
6.269451238e-06
1.039267221e-05
1.855538544e-05
3.540227058e-05
7.117821414e-05
0.0001487237835
0.0003195325842
0.0007008710372
0.001166718669
0.001166468951
0.001165910098
0.001164986638
0.001164636379
0.001164562446
0.001164596341
0.001164664941
0.001164739255
0.001164810192
0.001164877494
0.001164945003
0.001165019034
0.0011651086
0.001165230529
0.001165400972
0.001165699974
0.0003990635174
0.001157867503
0.001367894625
0.0009516995595
0.0004564328749
0.0002367555387
5.879942166e-05
6.692685394e-06
7.46943671e-07
5.56899598e-07
4.903115848e-07
4.506192042e-07
4.226621804e-07
4.098917223e-07
4.208806824e-07
3.535341293e-07
3.052810462e-07
2.770857495e-07
2.666223456e-07
2.655176412e-07
2.71555108e-07
2.834246946e-07
3.012671209e-07
3.266550107e-07
3.623770623e-07
4.124477665e-07
4.823597619e-07
5.796278336e-07
7.147205116e-07
9.025712794e-07
1.165130273e-06
1.536701608e-06
2.074265122e-06
2.886094895e-06
4.19316476e-06
6.463223059e-06
1.070124646e-05
1.908583532e-05
3.637051902e-05
7.301211414e-05
0.0001522602655
0.0003263865316
0.0007140979678
0.001166978433
0.001166615743
0.001165971354
0.001165052155
0.001164702736
0.001164618709
0.001164640915
0.001164699459
0.001164766092
0.001164831551
0.001164895141
0.001164960262
0.001165032838
0.001165121568
0.001165243106
0.001165413457
0.001165713772
0.0003873133357
0.001100735475
0.001196939358
0.0007228416698
0.0003590426225
0.0001856697409
3.040249579e-05
3.474742746e-06
6.090623057e-07
4.801490648e-07
4.256044555e-07
3.916919362e-07
3.68270423e-07
3.575576749e-07
3.629354349e-07
3.052373415e-07
2.654432631e-07
2.441069258e-07
2.382132265e-07
2.402600779e-07
2.487686451e-07
2.626446985e-07
2.826229165e-07
3.106652403e-07
3.498000801e-07
4.042090237e-07
4.795583974e-07
5.836123655e-07
7.272188618e-07
9.258646824e-07
1.202264377e-06
1.591650991e-06
2.152473774e-06
2.99559772e-06
4.348579513e-06
6.695014864e-06
1.107425398e-05
1.973541192e-05
3.757424493e-05
7.533411612e-05
0.0001568426334
0.0003355351508
0.0007324469283
0.001167222099
0.0011667533
0.001166022696
0.001165115119
0.001164767348
0.001164674003
0.001164685051
0.001164733851
0.001164792961
0.001164853011
0.001164912921
0.001164975674
0.001165046826
0.001165134779
0.001165255987
0.001165426283
0.001165727706
0.0003741768328
0.001035709669
0.001023200556
0.0005466603296
0.0002795760245
0.0001389381462
1.845082157e-05
1.906576977e-06
5.029866285e-07
4.142885045e-07
3.709451038e-07
3.416843135e-07
3.218245239e-07
3.128561121e-07
3.128618486e-07
2.638837445e-07
2.318517997e-07
2.167560296e-07
2.145057374e-07
2.19769109e-07
2.304017478e-07
2.462393752e-07
2.6849501e-07
2.994144599e-07
3.42199696e-07
4.0118004e-07
4.822131901e-07
5.933517983e-07
7.458754023e-07
9.558930628e-07
1.24707151e-06
1.655510339e-06
2.241676148e-06
3.119571496e-06
4.524654533e-06
6.95927934e-06
1.150354535e-05
2.04909888e-05
3.899024296e-05
7.809975287e-05
0.0001623801197
0.0003467842447
0.0007554881574
0.001167447045
0.001166879629
0.001166062597
0.001165175167
0.001164829678
0.001164727813
0.001164728332
0.001164767805
0.001164819646
0.001164874436
0.001164930752
0.001164991197
0.001165060979
0.001165148228
0.001165269172
0.001165439444
0.00116574178
0.0003606863115
0.0009648778898
0.0008340231028
0.0004240955593
0.0002285504998
0.000101822458
1.296741782e-05
1.103645978e-06
4.19667367e-07
3.572607285e-07
3.222508256e-07
2.979997998e-07
2.812141845e-07
2.739573025e-07
2.69334412e-07
2.284666741e-07
2.036574158e-07
1.941967378e-07
1.954569842e-07
2.031658627e-07
2.157170155e-07
2.335468835e-07
2.582251955e-07
2.921942094e-07
3.387906093e-07
4.024917745e-07
4.893693559e-07
6.077970638e-07
7.695266756e-07
9.913460944e-07
1.297858111e-06
1.726511048e-06
2.339743273e-06
3.255384054e-06
4.71803189e-06
7.251527672e-06
1.198268075e-05
2.13424535e-05
4.060105348e-05
8.127621786e-05
0.0001688067427
0.0003599940559
0.0007829142511
0.001167651878
0.001166993579
0.001166090116
0.001165232091
0.001164889375
0.001164779781
0.001164770453
0.001164801089
0.001164845984
0.001164895716
0.001164948569
0.001165006798
0.001165075285
0.001165161912
0.001165282655
0.001165452939
0.001165755998
0.0003474108502
0.0008863781366
0.0006811983471
0.0003522027461
0.0001949109772
5.769322305e-05
8.740155301e-06
6.95713952e-07
3.538603737e-07
3.079660965e-07
2.796187233e-07
2.594111256e-07
2.458712248e-07
2.402461822e-07
2.318305146e-07
1.984534485e-07
1.802832884e-07
1.754166131e-07
1.800563393e-07
1.898157909e-07
2.041845478e-07
2.240684294e-07
2.512839544e-07
2.884113099e-07
3.389072629e-07
4.074071578e-07
5.002166746e-07
6.260556503e-07
7.971803584e-07
1.03110593e-06
1.353455786e-06
1.80315819e-06
2.444890352e-06
3.40085249e-06
4.925969744e-06
7.56817558e-06
1.250666477e-05
2.228221443e-05
4.239398713e-05
8.484033755e-05
0.0001760769329
0.0003750695822
0.000814518338
0.001167836117
0.001167094634
0.001166111891
0.001165285804
0.00116494623
0.001164829673
0.001164811202
0.001164833532
0.001164871849
0.001164916769
0.001164966322
0.001165022451
0.001165089733
0.001165175828
0.001165296433
0.001165466771
0.001165770361
0.0003368635637
0.0007990711649
0.0005596287704
0.0002959806323
0.0001640360366
3.221074757e-05
4.204569061e-06
4.753426161e-07
3.01237882e-07
2.660775445e-07
2.429609671e-07
2.260375727e-07
2.149832284e-07
2.11101431e-07
1.997384845e-07
1.732846561e-07
1.611670163e-07
1.606144843e-07
1.677040553e-07
1.792530706e-07
1.954009593e-07
2.173937979e-07
2.472134345e-07
2.875471989e-07
3.419710774e-07
4.152893803e-07
5.140569872e-07
6.473593692e-07
8.279846882e-07
1.07422657e-06
1.412780131e-06
1.884198862e-06
2.555637454e-06
3.554189117e-06
5.14626088e-06
7.906409803e-06
1.307171105e-05
2.330475806e-05
4.436024326e-05
8.87767317e-05
0.0001841615499
0.0003919517055
0.0008501739193
0.001167999923
0.001167182368
0.001166131948
0.001165336304
0.001165000147
0.001164877352
0.001164850442
0.001164865019
0.001164897153
0.001164937533
0.001164983972
0.001165038132
0.001165104314
0.001165189973
0.001165310505
0.001165480962
0.001165784867
0.0003323438191
0.0007058522122
0.0004678324786
0.000250455094
0.0001345737877
1.941102663e-05
2.033882219e-06
3.485090678e-07
2.57875292e-07
2.300776756e-07
2.110922949e-07
1.969432358e-07
1.879606689e-07
1.856112708e-07
1.724458432e-07
1.52489578e-07
1.455024267e-07
1.48884307e-07
1.579419948e-07
1.711073979e-07
1.890171839e-07
2.131471253e-07
2.455913884e-07
2.891312335e-07
3.474650104e-07
4.255749334e-07
5.30276863e-07
6.710384562e-07
8.612057275e-07
1.119876541e-06
1.474920653e-06
1.968596077e-06
2.670776677e-06
3.713956822e-06
5.377167252e-06
8.264083998e-06
1.367506316e-05
2.440631813e-05
4.649425808e-05
9.307645888e-05
0.0001930449528
0.0004106106724
0.0008898200701
0.001168143909
0.001167256534
0.001166150407
0.001165383652
0.001165051109
0.001164922757
0.001164888096
0.001164895475
0.001164921835
0.001164957962
0.00116500149
0.001165053828
0.001165119021
0.001165204346
0.001165324871
0.001165495524
0.001165799516
0.000336938221
0.0006114442401
0.0003857655075
0.0002167950705
0.0001076597476
1.289290504e-05
1.00431604e-06
2.718264835e-07
2.212451487e-07
1.98833217e-07
1.832641862e-07
1.715883993e-07
1.644928716e-07
1.635680838e-07
1.496601425e-07
1.35758426e-07
1.335754654e-07
1.397208051e-07
1.503814722e-07
1.650501845e-07
1.847097143e-07
2.109785327e-07
2.460323531e-07
2.927420781e-07
3.549320884e-07
4.377700679e-07
5.483434552e-07
6.965173904e-07
8.962177061e-07
1.16738834e-06
1.539128701e-06
2.055509826e-06
2.78934369e-06
3.879027487e-06
5.617358802e-06
8.639624962e-06
1.431484153e-05
2.55846071e-05
4.879319998e-05
9.773600889e-05
0.0002027228847
0.0004310414795
0.000933451107
0.001168268988
0.001167317175
0.001166167374
0.001165427949
0.001165099161
0.001164965882
0.001164924133
0.00116492486
0.001164945856
0.001164978027
0.001165018855
0.001165069525
0.001165133847
0.001165218942
0.001165339534
0.001165510462
0.001165814304
0.0003519907225
0.0005242380833
0.0003324454697
0.0001957806808
6.372387661e-05
9.191207604e-06
5.255483297e-07
2.211574831e-07
1.903299291e-07
1.720683327e-07
1.593636342e-07
1.498733021e-07
1.44468843e-07
1.448798108e-07
1.310913905e-07
1.226861491e-07
1.24464477e-07
1.326374085e-07
1.446600544e-07
1.60771562e-07
1.821693978e-07
2.10557453e-07
2.481791406e-07
2.979953365e-07
3.63961067e-07
4.514367641e-07
5.677918294e-07
7.233036381e-07
9.324999942e-07
1.216205068e-06
1.604803591e-06
2.144279468e-06
2.910594417e-06
4.048550055e-06
5.865867622e-06
9.031961966e-06
1.498992511e-05
2.683860027e-05
5.125654472e-05
0.0001027564135
0.0002132005384
0.0004532595787
0.0009811071867
0.001168376242
0.001167364539
0.001166182946
0.001165469327
0.001165144385
0.001165006762
0.001164958552
0.001164953158
0.001164969197
0.001164997708
0.001165036053
0.001165085213
0.001165148788
0.00116523376
0.001165354493
0.001165525731
0.001165829222
0.0003754577819
0.0004938618359
0.0002938375222
0.0001782681788
3.449341489e-05
3.841033779e-06
3.059819913e-07
1.854809969e-07
1.646190107e-07
1.495680433e-07
1.39173841e-07
1.315265252e-07
1.276206996e-07
1.291601393e-07
1.162832696e-07
1.125539149e-07
1.175364601e-07
1.272164214e-07
1.404717909e-07
1.580003161e-07
1.811177471e-07
2.115855098e-07
2.517116716e-07
3.045499418e-07
3.741916716e-07
4.661972987e-07
5.882284091e-07
7.509887001e-07
9.696291696e-07
1.26588571e-06
1.67148045e-06
2.234404954e-06
3.033978406e-06
4.22191415e-06
6.122038269e-06
9.440456156e-06
1.56998438e-05
2.816835789e-05
5.388575504e-05
0.0001081426276
0.0002244912818
0.0004772981678
0.001032868718
0.001168466842
0.001167398999
0.001166197215
0.001165507934
0.001165186894
0.001165045459
0.001164991381
0.001164980373
0.001164991849
0.001165016995
0.001165053074
0.001165100887
0.00116516384
0.001165248796
0.001165369744
0.001165541296
0.001165844259
0.0004038651391
0.0004378274034
0.0002680123105
0.000160384635
1.89373204e-05
1.482569726e-06
2.068576797e-07
1.585338548e-07
1.431106143e-07
1.305943301e-07
1.220427199e-07
1.159912102e-07
1.13472284e-07
1.147220227e-07
1.047204608e-07
1.051251275e-07
1.122642745e-07
1.231438695e-07
1.375753984e-07
1.565020436e-07
1.813045762e-07
2.137934693e-07
2.563432561e-07
3.121045366e-07
3.853107934e-07
4.817296403e-07
6.093246201e-07
7.792393086e-07
1.007267456e-06
1.316086554e-06
1.738805263e-06
2.325514185e-06
3.159096619e-06
4.398695471e-06
6.385455333e-06
9.864799846e-06
1.644462805e-05
2.957478117e-05
5.668385242e-05
0.0001139027233
0.0002366150575
0.000503204835
0.001088848849
0.001168541978
0.001167420999
0.001166210267
0.001165543927
0.001165226814
0.001165082053
0.001165022659
0.001165006522
0.001165013816
0.001165035886
0.001165069914
0.001165116541
0.001165178997
0.001165264045
0.001165385277
0.001165557147
0.0011658594
0.0004383219663
0.0004091847873
0.0002572751085
0.0001399728092
1.116484539e-05
5.413044433e-07
1.606481295e-07
1.368404535e-07
1.247644355e-07
1.143422279e-07
1.074049398e-07
1.028288301e-07
1.013782251e-07
1.011840559e-07
9.594378229e-08
9.964906219e-08
1.082778989e-07
1.201987e-07
1.357749873e-07
1.560684132e-07
1.825034488e-07
2.169392692e-07
2.618199495e-07
3.203972515e-07
3.970521964e-07
4.977665338e-07
6.308149715e-07
8.077937063e-07
1.045157705e-06
1.366554456e-06
1.806526369e-06
2.417352541e-06
3.285688603e-06
4.578639664e-06
6.655922256e-06
1.030498626e-05
1.722476064e-05
3.105952563e-05
5.965524364e-05
0.0001200475139
0.0002495975313
0.0005310394838
0.001149185963
0.00116860283
0.001167431
0.001166222188
0.001165577465
0.001165264281
0.001165116636
0.001165052442
0.00116503163
0.001165035107
0.00116505438
0.001165086569
0.001165132169
0.001165194256
0.001165279502
0.001165401083
0.001165573241
0.001165874634
0.0004759325575
0.0004017618303
0.0002558147057
9.60822028e-05
5.686612149e-06
2.223383018e-07
1.345263973e-07
1.186589888e-07
1.089355908e-07
1.005301718e-07
9.488033128e-08
9.152321442e-08
9.114191181e-08
9.055797585e-08
8.951091699e-08
9.556099099e-08
1.053286873e-07
1.182084465e-07
1.348945792e-07
1.565068642e-07
1.845075984e-07
2.208063475e-07
2.679198e-07
3.292049148e-07
4.091952953e-07
5.140933685e-07
6.524936139e-07
8.364568251e-07
1.083116787e-06
1.417118451e-06
1.874484127e-06
2.509770209e-06
3.413616742e-06
4.761642172e-06
6.933434492e-06
1.076127097e-05
1.804111575e-05
3.262489312e-05
6.280550894e-05
0.0001265901103
0.0002634691149
0.0005608721287
0.001169773539
0.00116865054
0.001167429438
0.001166233056
0.001165608705
0.001165299434
0.001165149305
0.001165080788
0.00116505573
0.001165055737
0.001165072482
0.001165103038
0.001165147768
0.00116520961
0.001165295161
0.001165417141
0.001165589492
0.00116588996
0.0005328673555
0.0004108247725
0.0002599214923
4.74499855e-05
1.564497858e-06
1.385408223e-07
1.159300355e-07
1.035778994e-07
9.565764649e-08
8.868330279e-08
8.417765715e-08
8.200306579e-08
8.268273099e-08
8.258745251e-08
8.494107406e-08
9.257856421e-08
1.032390311e-07
1.170233134e-07
1.347734452e-07
1.576442872e-07
1.871353309e-07
2.252084525e-07
2.744558634e-07
3.383434718e-07
4.215621626e-07
5.305410665e-07
6.742024587e-07
8.65083073e-07
1.121012511e-06
1.467660165e-06
1.942573883e-06
2.602676506e-06
3.542810051e-06
4.947678558e-06
7.218090478e-06
1.123405231e-05
1.889478655e-05
3.427356361e-05
6.614095556e-05
0.0001335451312
0.0002782634982
0.0005927800904
0.001169854131
0.001168686209
0.001167416696
0.001166242949
0.001165637798
0.001165332407
0.001165180158
0.00116510776
0.001165078858
0.001165075725
0.0011650902
0.001165119321
0.001165163333
0.001165225055
0.001165311014
0.001165433419
0.001165605802
0.001165905377
0.0005889313529
0.0004111627359
0.0002578516443
2.25502648e-05
3.82633385e-07
1.131538627e-07
1.013323565e-07
9.110409275e-08
8.440508609e-08
7.86521094e-08
7.52109324e-08
7.417321479e-08
7.588030133e-08
7.689176104e-08
8.173868435e-08
9.043368163e-08
1.018593053e-07
1.165007661e-07
1.352609238e-07
1.593236979e-07
1.902266905e-07
2.299860746e-07
2.812723559e-07
3.476638744e-07
4.340130838e-07
5.469813361e-07
6.958262011e-07
8.935712573e-07
1.158758592e-06
1.518108855e-06
2.010741049e-06
2.696034724e-06
3.67325829e-06
5.136796786e-06
7.510080148e-06
1.172385235e-05
1.978704949e-05
3.600852199e-05
6.966845547e-05
0.0001409283294
0.0002940167763
0.0006268460356
0.001169919845
0.001168710894
0.001167393062
0.001166251941
0.00116566489
0.001165363334
0.001165209292
0.001165133421
0.001165101052
0.001165095089
0.001165107541
0.001165135419
0.001165178861
0.001165240584
0.001165327047
0.00116544987
0.001165622263
0.00116592085
0.000644839741
0.0004070153494
0.0002461464549
1.137514553e-05
1.501089926e-07
9.837206214e-08
8.915857726e-08
8.065590584e-08
7.493066801e-08
7.022471443e-08
6.780077587e-08
6.786803072e-08
7.055105938e-08
7.297537345e-08
7.948643482e-08
8.893668427e-08
1.010585111e-07
1.165086231e-07
1.362209701e-07
1.614075823e-07
1.936456282e-07
2.350076851e-07
2.882451694e-07
3.570520699e-07
4.464463097e-07
5.633266047e-07
7.172929549e-07
9.218664927e-07
1.19631844e-06
1.56844767e-06
2.078990411e-06
2.789874946e-06
3.805028826e-06
5.329138634e-06
7.809711679e-06
1.22313498e-05
2.071940394e-05
3.783309898e-05
7.3395466e-05
0.0001487565214
0.000310767091
0.0006631568026
0.001169971942
0.001168725622
0.001167358709
0.001166260099
0.001165690114
0.00116539234
0.001165236802
0.001165157835
0.00116512235
0.00116511385
0.001165124514
0.001165151332
0.001165194346
0.001165256191
0.001165343246
0.001165466456
0.00116563897
0.001165936324
0.0006791975673
0.0004018214768
0.0002217180627
6.774149175e-06
1.136655838e-07
8.642879827e-08
7.895587394e-08
7.184070077e-08
6.692680302e-08
6.31719663e-08
6.176494929e-08
6.290441334e-08
6.648349392e-08
7.032941738e-08
7.789742402e-08
8.795285584e-08
1.007219888e-07
1.169308137e-07
1.375365124e-07
1.637800965e-07
1.972798906e-07
2.401669736e-07
2.952760618e-07
3.664196985e-07
4.587848397e-07
5.795124131e-07
7.385517659e-07
9.49932186e-07
1.233670772e-06
1.618671806e-06
2.14733534e-06
2.884232438e-06
3.938191349e-06
5.524846028e-06
8.117290423e-06
1.275721374e-05
2.169332609e-05
3.97505787e-05
7.732936037e-05
0.000157046387
0.0003285523794
0.0007017990039
0.001170011567
0.001168731408
0.001167322147
0.001166267489
0.001165713599
0.001165419542
0.001165262778
0.001165181064
0.001165142789
0.001165132029
0.001165141128
0.001165167061
0.001165209783
0.001165271868
0.001165359591
0.001165483155
0.001165655917
0.001165951757
0.000677387526
0.000402874488
0.0001862874884
2.666241102e-06
9.428340982e-08
7.652409795e-08
7.035226194e-08
6.436196579e-08
6.015821476e-08
5.732026481e-08
5.694537152e-08
5.908922586e-08
6.342189042e-08
6.852917793e-08
7.678935909e-08
8.737438321e-08
1.007471951e-07
1.176650686e-07
1.391073777e-07
1.663453435e-07
2.010399913e-07
2.453828246e-07
3.022939696e-07
3.757070869e-07
4.70981469e-07
5.955048428e-07
7.595827118e-07
9.777630913e-07
1.270825869e-06
1.668808246e-06
2.215821377e-06
2.979175502e-06
4.072850344e-06
5.724098636e-06
8.433162471e-06
1.330215459e-05
2.27103269e-05
4.176425698e-05
8.147745783e-05
0.0001658143762
0.0003474099067
0.0007428574795
0.001170039753
0.00116872892
0.001167287766
0.001166274169
0.001165735461
0.001165445053
0.001165287305
0.001165203164
0.001165162406
0.001165149647
0.001165157391
0.001165182605
0.001165225166
0.001165287605
0.001165376059
0.001165499943
0.001165673101
0.001165967116
0.0006707783076
0.0004072117845
0.0001016343741
9.185676154e-07
8.134758962e-08
6.832340787e-08
6.312042451e-08
5.80384022e-08
5.447918983e-08
5.255507168e-08
5.319713761e-08
5.622624503e-08
6.098806708e-08
6.728510443e-08
7.604771564e-08
8.711461298e-08
1.010486146e-07
1.186271414e-07
1.40852328e-07
1.690267938e-07
2.048556992e-07
2.505926221e-07
3.092449574e-07
3.84869774e-07
4.830018175e-07
6.112799969e-07
7.803727107e-07
1.005357252e-06
1.307793312e-06
1.718878729e-06
2.284483566e-06
3.074755796e-06
4.209086393e-06
5.927042071e-06
8.757621294e-06
1.386679208e-05
2.377174816e-05
4.387709775e-05
8.584640602e-05
0.000175075542
0.0003673739742
0.0007864106482
0.001170057446
0.001168718599
0.001167255417
0.001166280194
0.001165755809
0.001165468974
0.001165310464
0.001165224193
0.001165181236
0.001165166722
0.001165173311
0.001165197963
0.00116524049
0.001165303391
0.001165392625
0.001165516805
0.001165690506
0.001165982339
0.0006583158144
0.0004080470014
5.646402467e-05
3.514318405e-07
7.179013861e-08
6.151602862e-08
5.702784909e-08
5.268883588e-08
4.975460256e-08
4.875826955e-08
5.03501974e-08
5.411261628e-08
5.937731818e-08
6.641732298e-08
7.558827307e-08
8.709849518e-08
1.015529529e-07
1.197468172e-07
1.42705777e-07
1.717649111e-07
2.086748014e-07
2.557524552e-07
3.160942004e-07
3.938826274e-07
4.94830889e-07
6.268333477e-07
8.009279975e-07
1.032732027e-06
1.344602044e-06
1.768924535e-06
2.353376718e-06
3.171045067e-06
4.347000357e-06
6.133840677e-06
9.090971062e-06
1.445173192e-05
2.487885422e-05
4.609183379e-05
9.04422512e-05
0.000184843448
0.0003884752637
0.0008325282501
0.001170065523
0.001168700817
0.001167224964
0.001166285617
0.001165774743
0.001165491404
0.001165332329
0.001165244203
0.001165199313
0.001165183274
0.001165188896
0.001165213134
0.001165255745
0.001165319214
0.001165409258
0.001165533724
0.001165708108
0.001165997388
0.0006396665251
0.0003989864817
2.782800389e-05
1.587528768e-07
6.420855943e-08
5.589123334e-08
5.192612242e-08
4.819018695e-08
4.588553839e-08
4.580976301e-08
4.822773763e-08
5.256554154e-08
5.829549475e-08
6.581818353e-08
7.53457555e-08
8.726459459e-08
1.022016139e-07
1.209696639e-07
1.446187505e-07
1.745173632e-07
2.124626079e-07
2.608360836e-07
3.228245765e-07