/*--------------------------------*- C++ -*----------------------------------*\
  =========                 |
  \\      /  F ield         | OpenFOAM: The Open Source CFD Toolbox
   \\    /   O peration     | Website:  https://openfoam.org
    \\  /    A nd           | Version:  12
     \\/     M anipulation  |
\*---------------------------------------------------------------------------*/
FoamFile
{
    format      ascii;
    class       volScalarField;
    location    "1050";
    object      k;
}
// * * * * * * * * * * * * * * * * * * * * * * * * * * * * * * * * * * * * * //

dimensions      [0 2 -2 0 0 0 0];

internalField   nonuniform List<scalar> 
16200
(
445.1836136
510.6661937
466.198255
422.9766557
366.5632334
280.4715944
158.3514402
46.97138816
5.506969222
0.1933918958
0.002114507118
0.001015736894
0.0009696709577
0.0009443420475
0.0009302449754
0.0009219185186
0.0009165208397
0.0009133049745
0.0009116780301
0.0009111620606
0.0009115105571
0.0009125787488
0.0009142750376
0.0009165476335
0.0009193723865
0.0009227419349
0.0009266556044
0.0009311080061
0.0009360759757
0.0009415038975
0.0009472891316
0.000953274227
0.0009592553548
0.0009650106274
0.0009703382201
0.0009750862737
0.0009791649951
0.0009825420637
0.0009852291341
0.0009872657686
0.0009887037956
0.0009895920002
0.0009899613311
0.0009898055602
0.0009890335574
0.0009873412611
0.0009849765072
0.0009839009692
0.000983477958
0.0009833405228
0.0009833357812
0.0009834084336
0.0009835494052
0.0009837747706
0.000984118942
0.0009846364126
0.0009854089156
0.0009865654048
0.0009883196385
0.0009910931518
466.3182845
528.6371236
475.0588171
422.5871618
354.2985977
252.9023248
120.9495604
27.53239198
2.272418882
0.05185435083
0.001165417316
0.0009984365201
0.0009572005907
0.0009341260136
0.0009213277121
0.0009138871955
0.0009091511396
0.0009064546096
0.0009052654223
0.0009051396475
0.0009058548731
0.0009072850873
0.0009093536383
0.0009120207911
0.0009152717255
0.0009191051365
0.0009235217261
0.0009285105602
0.0009340332781
0.0009400074039
0.000946293272
0.0009526941333
0.0009589773687
0.0009649134111
0.0009703155383
0.0009750621345
0.0009790973523
0.000982417285
0.0009850521012
0.0009870502647
0.0009884657732
0.0009893465425
0.0009897233204
0.0009895969491
0.0009889043145
0.0009874045947
0.0009850536119
0.0009839733818
0.0009835536247
0.0009834232478
0.0009834268268
0.0009835075264
0.0009836552359
0.0009838851457
0.0009842309472
0.0009847464066
0.0009855135589
0.0009866631918
0.0009884176883
0.0009912324567
486.9543791
544.7737683
481.3795896
418.7043147
336.7450049
219.6932727
85.06841832
14.31474302
0.7934035516
0.01184906288
0.001062896451
0.0009834455902
0.0009460676676
0.0009250944191
0.0009135306506
0.0009069293653
0.0009028329961
0.0009006485441
0.0008998993541
0.0009001742109
0.0009012740621
0.0009030910679
0.0009055633871
0.0009086632462
0.0009123845386
0.0009167300589
0.0009216977224
0.000927263938
0.0009333647394
0.0009398783233
0.0009466176649
0.0009533441504
0.0009598041253
0.0009657753138
0.0009711020781
0.000975705205
0.000979569643
0.0009827224718
0.0009852124121
0.0009870956245
0.0009884264915
0.0009892497755
0.0009895927394
0.0009894575698
0.0009888001747
0.0009874462803
0.0009851303758
0.0009840500896
0.0009836331377
0.0009835079305
0.0009835179005
0.0009836051657
0.000983758715
0.0009839928983
0.0009843406257
0.000984854961
0.0009856179661
0.0009867620575
0.0009885170758
0.000991369401
506.153747
557.6829858
484.269246
410.2646566
313.0289226
181.1319384
54.4023531
6.565463099
0.2374144426
0.002704359911
0.001032395566
0.0009701599828
0.000936333495
0.0009173472902
0.0009069651108
0.0009011603851
0.0008976819539
0.0008960010308
0.0008956924386
0.0008963769475
0.0008978784487
0.0009001066149
0.0009030137611
0.0009065827513
0.0009108134936
0.0009157081704
0.0009212546736
0.0009274066354
0.0009340621565
0.0009410492001
0.0009481302303
0.0009550336714
0.0009615033605
0.0009673446812
0.0009724480623
0.0009767836349
0.0009803775602
0.0009832848123
0.000985568617
0.0009872891206
0.0009884981104
0.0009892347458
0.000989520236
0.0009893537986
0.0009887010461
0.0009874300818
0.0009851847664
0.0009841173828
0.0009837077431
0.0009835888921
0.0009836053057
0.0009836989655
0.0009838583348
0.0009840970911
0.0009844474252
0.0009849617456
0.0009857220221
0.0009868620712
0.0009886182965
0.0009915054968
523.5662248
567.6568559
483.8120512
397.7496376
284.6872845
140.591696
31.72486308
2.767081289
0.06515244486
0.001274688334
0.001013528845
0.0009586272106
0.0009280899803
0.0009109789911
0.0009017299153
0.0008966877747
0.0008938129356
0.0008926335856
0.0008927718745
0.0008938800931
0.0008958047981
0.0008984723832
0.0009018479572
0.0009059223998
0.0009106972534
0.0009161674952
0.0009223015683
0.000929017999
0.0009361643569
0.0009435118496
0.0009507783136
0.0009576775709
0.0009639744032
0.0009695211532
0.000974264405
0.0009782249635
0.0009814662263
0.0009840653355
0.0009860947757
0.0009876147342
0.0009886717067
0.0009892974185
0.0009895053934
0.0009892891445
0.0009886180365
0.0009873807213
0.0009852267092
0.0009841803201
0.0009837803024
0.000983667946
0.0009836903103
0.000983789873
0.0009839548277
0.000984198288
0.0009845517701
0.0009850670541
0.0009858259226
0.0009869633825
0.0009887215456
0.0009916408162
538.6373811
574.761614
479.9248083
380.1591395
250.3682582
101.2755184
17.87810622
1.114152391
0.01799290148
0.001118188178
0.0009980793698
0.0009488909353
0.0009214077941
0.0009060649494
0.0008978993781
0.0008935866755
0.0008913008906
0.0008906211817
0.0008912130849
0.000892759858
0.0008951297057
0.0008982638268
0.0009021373788
0.0009067452053
0.0009120845668
0.0009181346605
0.0009248326863
0.0009320486892
0.0009395705316
0.000947115302
0.0009543734019
0.0009610697966
0.000967013948
0.000972119237
0.0009763915358
0.0009798978312
0.0009827310852
0.0009849830499
0.0009867296057
0.0009880270792
0.0009889143454
0.0009894144094
0.0009895322379
0.0009892540631
0.0009885500835
0.0009873293639
0.0009852540067
0.0009842372434
0.0009838497544
0.0009837445059
0.0009837726635
0.0009838778576
0.000984048294
0.000984296652
0.0009846538385
0.00098517104
0.0009859297966
0.0009870661118
0.0009888270442
0.0009917757453
551.1567005
579.3478404
472.8133515
356.5356222
209.708393
67.62432503
9.491204935
0.4385478764
0.005256264229
0.00107367011
0.0009849270321
0.0009408877143
0.0009162460416
0.0009025740013
0.0008954486807
0.0008918420333
0.0008901394209
0.0008899652988
0.0008910240598
0.0008930287126
0.0008958673955
0.0008994937187
0.000903889589
0.000909048764
0.0009149564623
0.0009215649706
0.0009287666956
0.000936371921
0.0009441077008
0.0009516513192
0.0009586919368
0.0009649929941
0.0009704270889
0.0009749747054
0.0009786972219
0.0009816991132
0.0009840935112
0.0009859790444
0.0009874296492
0.0009884946032
0.0009892035107
0.0009895699753
0.0009895901639
0.000989242185
0.0009884944952
0.000987275756
0.0009852697203
0.0009842891965
0.000983916497
0.0009838188191
0.0009838526172
0.000983963205
0.0009841390407
0.0009843924853
0.0009847539032
0.0009852739235
0.0009860338076
0.0009871703812
0.0009889349437
0.0009919104782
560.9308747
581.3299035
462.1142548
327.6219464
166.0058327
40.71604174
4.745598272
0.1790158821
0.002183883265
0.001049979794
0.0009739050217
0.0009345465797
0.0009125428667
0.00090044958
0.0008943247914
0.0008914070458
0.0008902857595
0.0008906254722
0.0008921650493
0.0008946462552
0.0008979753958
0.0009021156015
0.0009070508242
0.0009127663587
0.0009192247705
0.0009263381509
0.000933941606
0.0009417811298
0.0009495333714
0.00095686075
0.0009634811275
0.0009692194709
0.0009740213934
0.0009779323279
0.0009810600544
0.0009835355951
0.000985482682
0.0009869998759
0.0009881548476
0.0009889875416
0.0009895173397
0.0009897482875
0.0009896679986
0.0009892462359
0.0009884475433
0.0009872185192
0.0009852754085
0.0009843364088
0.0009839804457
0.0009838908274
0.0009839302217
0.0009840460668
0.0009842272863
0.0009844860355
0.000984852206
0.0009853759109
0.0009861381138
0.0009872763049
0.0009890453721
0.0009920452126
567.8244665
580.2918883
445.7618956
291.9701158
122.8854627
23.81578119
2.310113564
0.07824680076
0.001603290399
0.001032125571
0.0009648678818
0.0009297762894
0.0009102226286
0.0008996196497
0.0008944540775
0.0008922084778
0.0008916661375
0.0008925274482
0.0008945616786
0.0008975379598
0.000901377707
0.0009060487225
0.0009115298549
0.0009177881243
0.0009247510721
0.0009322778046
0.000940138747
0.0009480215216
0.0009555742696
0.0009624754238
0.0009684988073
0.0009735453781
0.0009776342312
0.0009808669759
0.00098338568
0.0009853366525
0.0009868457022
0.0009880057918
0.000988875268
0.0009894834041
0.0009898390526
0.0009899369657
0.0009897567915
0.0009892602064
0.0009884061128
0.0009871564551
0.0009852734009
0.0009843795404
0.0009840417478
0.0009839605941
0.0009840055896
0.0009841266256
0.0009843132653
0.0009845775598
0.000984948997
0.0009854772172
0.0009862428789
0.0009873839926
0.0009891584242
0.0009921800926
572.1592949
576.4882099
423.4046953
249.1042992
83.68096233
13.57433756
1.108463767
0.03652353413
0.00142163036
0.001017320814
0.0009576217536
0.0009264416863
0.000909169764
0.0008999774789
0.0008957341469
0.000894150071
0.0008941892906
0.0008955839981
0.0008981292746
0.0009016189606
0.000905984888
0.0009111931277
0.0009172088278
0.0009239697366
0.0009313560194
0.000939164379
0.0009471018843
0.0009548152504
0.0009619540934
0.0009682433778
0.000973532307
0.0009778020518
0.0009811376696
0.0009836840973
0.0009856048174
0.0009870512623
0.0009881445021
0.000988967974
0.0009895688628
0.0009899652593
0.0009901556945
0.0009901261869
0.0009898492125
0.000989278963
0.0009883674418
0.0009870883137
0.0009852657031
0.0009844191635
0.0009841005265
0.0009840281696
0.0009840788198
0.0009842050493
0.0009843971986
0.0009846673048
0.0009850445195
0.0009855780554
0.0009863482656
0.0009874935484
0.0009892741712
0.0009923152363
574.1206444
569.9554564
395.2229239
201.7328308
52.08645745
7.401542077
0.5327861331
0.01852457181
0.001342074298
0.001005004949
0.0009520315301
0.0009244337822
0.000909286946
0.000901432057
0.0008980779041
0.0008971497412
0.000897775952
0.0008997160478
0.0009027858305
0.00090680039
0.0009116964955
0.0009174312811
0.000923946515
0.0009311387564
0.0009388299889
0.0009467517345
0.0009545600319
0.0009618880298
0.0009684192217
0.0009739493727
0.0009784119393
0.0009818631507
0.000984441138
0.0009863198579
0.0009876723137
0.0009886468232
0.0009893548296
0.0009898678376
0.0009902210758
0.0009904215879
0.0009904581585
0.0009903088143
0.0009899397449
0.0009892984742
0.0009883293381
0.0009870130207
0.0009852541925
0.0009844558821
0.0009841569591
0.0009840936438
0.0009841500318
0.0009842815124
0.0009844793059
0.0009847555133
0.0009851390135
0.0009856786364
0.0009864544349
0.0009876050698
0.0009893926613
0.0009924507305
573.7505751
560.0585286
360.5594272
153.9375176
32.40329411
4.007330786
0.2633938162
0.01004005533
0.001249799468
0.0009948767449
0.000947963589
0.0009236550419
0.0009104911187
0.0009039062032
0.0009014097327
0.0009011322646
0.0009023483559
0.0009048407149
0.0009084411236
0.0009129819569
0.0009183983399
0.0009246297045
0.0009315830405
0.0009391020029
0.0009469442099
0.0009547832461
0.0009622476507
0.000968989659
0.0009747550985
0.0009794246276
0.0009830142829
0.000985643337
0.0009874876679
0.0009887366008
0.0009895628061
0.0009901054657
0.0009904633259
0.0009906948279
0.0009908232478
0.0009908451708
0.000990740439
0.0009904799158
0.0009900243999
0.0009893156682
0.0009882901183
0.0009869296913
0.0009852404308
0.0009844902414
0.000984211235
0.0009841571265
0.0009842193568
0.0009843561923
0.0009845598035
0.0009848424221
0.0009852327129
0.0009857791669
0.0009865615443
0.0009877186473
0.0009895139229
0.0009925866372
571.171546
545.9491821
317.3080691
109.1515405
20.54053296
2.223286652
0.1374123299
0.006052751095
0.001173438669
0.000986737488
0.0009453094236
0.0009240184343
0.0009127019483
0.0009073198899
0.0009056474688
0.0009060131463
0.0009078187387
0.0009108660537
0.0009149976069
0.0009200572965
0.0009259698681
0.0009326460982
0.0009399462666
0.0009476527482
0.0009554614492
0.0009630069477
0.0009699216938
0.0009759084926
0.0009807948447
0.0009845490579
0.000987259653
0.0009890932254
0.0009902481598
0.0009909175271
0.000991266285
0.0009914205819
0.0009914649243
0.0009914445304
0.0009913712822
0.0009912321729
0.0009909990222
0.0009906363738
0.0009901004852
0.000989328324
0.000988248567
0.0009868376651
0.0009852256853
0.0009845227298
0.0009842635559
0.0009842187497
0.0009842869407
0.0009844292708
0.0009846389055
0.000984928262
0.000985325845
0.000985879848
0.0009866697459
0.0009878343636
0.0009896379652
0.0009927229944
566.7293638
526.5147055
267.2651103
73.69050455
12.04133407
1.209915615
0.07289128495
0.003836573311
0.001112757504
0.0009797862459
0.0009439397764
0.0009254185577
0.0009158227959
0.0009115802434
0.0009107017184
0.000911706432
0.000914103093
0.0009177070664
0.0009223650929
0.0009279249625
0.000934290541
0.0009413322455
0.0009488538783
0.0009565756555
0.0009641460124
0.000971189146
0.0009773744351
0.0009824793648
0.0009864208566
0.0009892477316
0.0009911057056
0.0009921922066
0.0009927147252
0.0009928611264
0.0009927837112
0.0009925935007
0.0009923603857
0.0009921168746
0.0009918643543
0.000991581232
0.0009912322545
0.0009907764576
0.0009901663287
0.0009893349141
0.0009882038539
0.0009867364936
0.0009852109296
0.0009845537663
0.0009843141252
0.0009842786607
0.0009843529397
0.0009845009325
0.0009847168226
0.0009850132571
0.0009854186292
0.0009859808734
0.000986779185
0.0009879522925
0.0009897647806
0.000992859819
561.0592822
500.5415936
215.4815014
48.61133374
7.279674034
0.6781132479
0.03958007257
0.002573351789
0.001069215168
0.0009744415355
0.0009436298902
0.0009277541165
0.0009197688702
0.0009166140125
0.0009165082634
0.0009181524071
0.0009211411197
0.0009252973541
0.0009304653411
0.000936487798
0.0009432361295
0.0009505299304
0.0009581126778
0.0009656521981
0.0009727745367
0.0009791263357
0.0009844416657
0.0009885856272
0.000991561265
0.0009934839787
0.000994539493
0.0009949409959
0.0009948944449
0.0009945762847
0.0009941233263
0.0009936307629
0.0009931543068
0.0009927146875
0.0009923038681
0.0009918927134
0.0009914398183
0.0009908994601
0.0009902210351
0.0009893344613
0.0009881554558
0.0009866259149
0.000985196885
0.0009845837045
0.0009843631437
0.0009843370176
0.000984417518
0.0009845713636
0.0009847937613
0.000985097624
0.0009855112764
0.0009860824283
0.0009868899988
0.0009880724981
0.0009898943454
0.0009929971081
554.7244856
464.748827
167.6803539
34.48225061
4.631582072
0.3910468338
0.02207058766
0.001882965957
0.001040580486
0.0009707938236
0.0009444174016
0.0009309561318
0.0009245131617
0.0009223953036
0.0009230390655
0.0009253165228
0.000928888488
0.0009335789792
0.0009392216573
0.0009456427019
0.0009526697665
0.0009600659675
0.0009675203893
0.0009746692414
0.0009811474553
0.0009866541791
0.0009910057968
0.0009941562319
0.0009961830347
0.000997250994
0.0009975693973
0.0009973548215
0.000996804034
0.0009960782848
0.0009952977189
0.0009945419854
0.0009938535664
0.0009932425604
0.0009926926308
0.0009921681112
0.0009916223012
0.0009910053925
0.0009902642752
0.0009893264076
0.0009881030854
0.000986516569
0.0009851840623
0.0009846128387
0.0009844108059
0.000984393985
0.0009844808449
0.0009846407497
0.0009848699228
0.000985181571
0.0009856039879
0.0009861846886
0.0009870023153
0.0009881950343
0.0009900266233
0.000993134841
548.6663327
417.5910609
126.4502444
23.77276191
2.919450552
0.2258953917
0.01243743443
0.001491325861
0.001021641821
0.000968748327
0.0009462862288
0.0009350341874
0.0009300247281
0.0009289017071
0.0009302675965
0.0009331651611
0.0009373008611
0.0009424906631
0.0009485477975
0.0009552702822
0.0009624352292
0.0009697524264
0.0009768733658
0.0009834308898
0.0009890995143
0.0009936524913
0.0009969943879
0.000999159529
0.001000283641
0.001000563524
0.001000218006
0.0009994578375
0.0009984656922
0.0009973858059
0.0009963216735
0.0009953383137
0.0009944662011
0.000993706025
0.0009930342439
0.0009924095994
0.0009917808681
0.0009910947466
0.0009902961162
0.0009893105057
0.0009880460747
0.000986414779
0.0009851728067
0.0009846414127
0.0009844572981
0.0009844497303
0.0009845430912
0.000984709274
0.000984945502
0.0009852652972
0.0009856969544
0.0009862878194
0.0009871162514
0.0009883199436
0.0009901615684
0.00099327298
544.3562403
360.9004402
92.75288488
15.90901384
1.813911861
0.1281900111
0.006993501742
0.00126622192
0.001009384502
0.0009681772422
0.0009491819701
0.0009399572906
0.0009362849677
0.0009361075283
0.000938170421
0.0009416675173
0.0009463310936
0.0009519595693
0.0009583372522
0.0009652269472
0.000972356128
0.0009793939691
0.0009859789497
0.0009917704107
0.0009965066173
0.001000045375
0.001002374853
0.001003595171
0.001003882572
0.001003450426
0.001002516263
0.001001278821
0.0009999040486
0.0009985187827
0.0009972106646
0.0009960313471
0.0009950006232
0.0009941109733
0.0009933326694
0.0009926197052
0.0009919170157
0.0009911683132
0.0009903168888
0.0009892867574
0.0009879836661
0.0009863206669
0.000985163338
0.000984669629
0.0009845027974
0.0009845044205
0.0009846044269
0.0009847771156
0.0009850206861
0.0009853489918
0.0009857903554
0.000986391974
0.0009872319129
0.0009884472578
0.0009902991215
0.0009934114719
542.7959645
299.4189585
65.97021966
10.79629118
1.128253284
0.07142508049
0.004013530407
0.001145212316
0.001002138073
0.0009690064386
0.0009530863132
0.0009457218014
0.0009432970833
0.0009440107475
0.0009467324784
0.0009507871543
0.000955913383
0.0009618853329
0.0009684537888
0.0009753445314
0.000982244043
0.0009888011603
0.0009946689892
0.0009995591415
0.001003287916
0.00100579728
0.001007146974
0.001007485682
0.001007013721
0.001005948634
0.001004499056
0.001002848104
0.001001144077
0.0009994969887
0.000997979878
0.000996632443
0.0009954651114
0.0009944632753
0.0009935919366
0.0009928010835
0.000992032401
0.0009912270512
0.0009903270879
0.0009892553498
0.0009879153104
0.0009862341396
0.0009851557841
0.0009846976565
0.0009845474711
0.0009845582197
0.0009846650188
0.0009848444475
0.0009850956539
0.0009854328331
0.0009858843585
0.0009864972936
0.0009873493927
0.0009885769964
0.0009904392058
0.0009935502488
543.4103667
238.1333357
50.34715407
7.64894492
0.6956885429
0.03825344278
0.002436205979
0.00108311998
0.0009984224385
0.0009711843834
0.0009580047144
0.0009523380065
0.0009510630506
0.0009525931502
0.000955912047
0.0009604526565
0.0009659445993
0.0009721328302
0.0009787340373
0.0009854401775
0.0009919125989
0.0009978046498
0.001002810007
0.001006710108
0.00100940305
0.001010906058
0.001011334461
0.001010868569
0.001009719037
0.001008098534
0.001006202064
0.001004195501
0.001002209743
0.001000339148
0.0009986436086
0.0009971522911
0.0009958674952
0.0009947685358
0.0009938159508
0.0009929563652
0.0009921287202
0.0009912719941
0.0009903272983
0.0009892165909
0.0009878406246
0.000986154964
0.0009851502077
0.0009847256376
0.0009845914766
0.000984611287
0.0009847250287
0.0009849114362
0.0009851705748
0.0009855169886
0.000985979119
0.0009866039061
0.0009874687703
0.0009887091646
0.0009905817176
0.0009936892282
543.9532963
182.4013739
39.1585348
5.426745543
0.4134046633
0.0190516864
0.001637943132
0.001052760592
0.0009972951448
0.0009746496953
0.0009639092978
0.0009597737548
0.0009595356005
0.0009617852223
0.0009656213829
0.0009705525969
0.0009762888761
0.0009825430372
0.0009890011321
0.0009953315914
0.001001192403
0.001006266769
0.001010308716
0.001013177054
0.001014846362
0.001015394999
0.001014977093
0.001013789835
0.001012043789
0.001009940786
0.001007659733
0.00100534906
0.001003123252
0.001001062464
0.0009992149496
0.000997600694
0.0009962149883
0.0009950319613
0.0009940083834
0.000993088065
0.0009922076339
0.0009913041889
0.0009903181458
0.000989170866
0.0009877593498
0.0009860828241
0.0009851466273
0.0009847536937
0.0009846349614
0.0009846637755
0.0009847846122
0.0009849782397
0.000985245608
0.0009856016136
0.0009860747788
0.0009867119254
0.0009875901106
0.0009888437515
0.0009907265313
0.0009938283139
544.4926182
144.1940594
30.44198406
3.750785907
0.2269689405
0.00864290784
0.001272671886
0.001039032841
0.0009981493221
0.0009792844802
0.0009707092583
0.0009679418061
0.0009686152898
0.0009714847577
0.0009757462191
0.0009809547589
0.0009867941668
0.000992947009
0.0009990784432
0.001004850775
0.001009942664
0.001014088132
0.001017112316
0.001018949527
0.001019639199
0.001019304779
0.001018123873
0.001016298919
0.001014033178
0.00101151422
0.001008904056
0.001006334382
0.001003904661
0.001001682399
0.0009997056593
0.0009979864732
0.0009965141132
0.0009952582933
0.000994172611
0.0009931985271
0.0009922707184
0.0009913246554
0.0009903002628
0.0009891186059
0.0009876713071
0.0009860173605
0.0009851450322
0.0009847819296
0.000984678063
0.0009847158305
0.0009848439168
0.000985045007
0.0009853209022
0.0009856868513
0.0009861714661
0.0009868214507
0.0009877134628
0.0009889807287
0.0009908735166
0.000993967397
542.9441873
124.0085578
24.76832437
2.510407025
0.1104973752
0.003668663222
0.001133916518
0.001033582449
0.001000598045
0.0009849592238
0.0009783044783
0.000976738676
0.000978199657
0.0009815865845
0.0009861664846
0.0009915184609
0.0009973005753
0.001003174557
0.001008800211
0.00101385464
0.001018058303
0.001021209036
0.001023204485
0.001024045526
0.001023821738
0.001022686261
0.001020827608
0.001018445058
0.001015730124
0.001012854603
0.001009963936
0.001007174324
0.001004571765
0.001002212639
0.001000126146
0.000998317459
0.0009967706872
0.0009954517885
0.0009943116914
0.0009932898987
0.0009923194404
0.0009913343625
0.0009902742668
0.0009890602696
0.0009875763555
0.0009859581979
0.0009851453936
0.0009848104366
0.0009847209094
0.000984767589
0.0009849030816
0.0009851118775
0.0009853965946
0.0009857728319
0.0009862692951
0.000986932566
0.0009878388603
0.0009891200511
0.0009910225255
0.0009941063588
537.5790473
115.4206771
20.41516042
1.560741923
0.04381254221
0.001741716495
0.001092387325
0.001032052385
0.001004420424
0.0009916046013
0.0009866024525
0.0009860743166
0.0009882027027
0.0009919864413
0.0009967537845
0.001002092608
0.001007643685
0.001013062642
0.001018022077
0.001022233394
0.001025473127
0.001027607
0.001028599014
0.001028503676
0.001027445749
0.001025594903
0.001023141109
0.001020275006
0.00101717405
0.001013994095
0.001010865009
0.001007888999
0.00100514016
0.001002665164
0.001000485539
0.0009986005403
0.000996989852
0.0009956162325
0.0009944283651
0.0009933641237
0.0009923551459
0.0009913342162
0.0009902407491
0.0009889963363
0.0009874743513
0.0009859049629
0.0009851476718
0.0009848392946
0.0009847636185
0.0009848191792
0.0009849622364
0.0009851789798
0.0009854728105
0.000985859672
0.0009863683647
0.0009870453388
0.000987966319
0.0009892616546
0.000991173378
0.0009942450742
527.3618906
114.5147456
16.63211946
0.8958927125
0.01395945085
0.001249071583
0.001081458887
0.001032880591
0.001009548789
0.0009990936328
0.0009955228
0.0009958746303
0.0009985270222
0.001002562266
0.001007361426
0.001012515811
0.00101766209
0.001022466151
0.00102663044
0.00102991497
0.00103215846
0.001033290978
0.001033332022
0.001032375676
0.001030568534
0.001028086534
0.001025114628
0.001021831664
0.001018400284
0.001014961072
0.001011629688
0.001008495901
0.001005623386
0.001003050383
0.001000791781
0.0009988417348
0.0009971761206
0.0009957549675
0.0009945250697
0.0009934229478
0.0009923790598
0.0009913250568
0.0009902002694
0.0009889273073
0.0009873651092
0.0009858572961
0.0009851518215
0.0009848685743
0.0009848062988
0.0009848707195
0.0009850215007
0.0009852464316
0.0009855496625
0.0009859474741
0.0009864687582
0.0009871598194
0.000988095836
0.0009894054514
0.0009913258685
0.0009943834104
512.2737104
107.1103938
12.69119255
0.4645218581
0.003857424149
0.001171230622
0.001077252811
0.001035456577
0.001015743234
0.001007331927
0.001004973238
0.001006028372
0.001009040559
0.001013164349
0.00101782712
0.001022626401
0.001027209556
0.001031268266
0.001034547938
0.001036864607
0.001038117965
0.00103829374
0.001037454174
0.00103571982
0.001033248305
0.001030214493
0.001026794317
0.001023153426
0.001019439907
0.001015780234
0.001012277357
0.001009010118
0.001006033117
0.001003377281
0.001001051752
0.0009990462733
0.0009973334346
0.0009958709293
0.0009946039608
0.0009934679288
0.00099239229
0.0009913076579
0.000990153352
0.0009888537121
0.0009872483599
0.0009858148571
0.0009851577948
0.0009848983376
0.0009848490491
0.0009849223184
0.0009850809837
0.000985314339
0.0009856272505
0.0009860363262
0.0009865705423
0.0009872760405
0.0009882273888
0.0009895513299
0.0009914798191
0.0009945212193
492.5306681
95.62375994
9.002888495
0.2085094859
0.001693135277
0.001155198498
0.001075441716
0.001039452478
0.001022853054
0.001016181248
0.001014812782
0.001016385177
0.001019583386
0.001023627529
0.0010279879
0.001032276865
0.001036166606
0.001039387044
0.001041734092
0.001043080512
0.001043380429
0.001042664064
0.001041023926
0.001038596038
0.001035541041
0.001032027927
0.001028221514
0.001024274035
0.001020319908
0.001016472872
0.001012824665
0.001009444593
0.001006379375
0.00100365359
0.001001271393
0.0009992186908
0.0009974652274
0.0009959666895
0.0009946669398
0.0009935004536
0.0009923958363
0.0009912827328
0.0009901004856
0.0009887761253
0.0009871237096
0.000985777328
0.000985165543
0.0009849286387
0.0009848919586
0.0009849740743
0.0009851407835
0.0009853827959
0.0009857056607
0.0009861263007
0.0009866737667
0.0009873940157
0.0009883609337
0.0009896991602
0.0009916350774
0.0009946583335
468.7100066
81.92231336
5.959520169
0.09045498893
0.001427562554
0.001144536719
0.001075662209
0.001044644341
0.001030698476
0.001025476128
0.001024878038
0.001026779122
0.001029988936
0.00103379061
0.001037697388
0.001041347455
0.001044449105
0.001046778134
0.001048182768
0.001048587925
0.001047992681
0.001046460268
0.001044102598
0.001041062704
0.001037498751
0.001033571083
0.001029432656
0.001025222824
0.001021063538
0.00101705724
0.001013285856
0.001009810402
0.001006670749
0.001003885957
0.001001455826
0.0009993629158
0.0009975744884
0.0009960444997
0.0009947156833
0.0009935217569
0.0009923906029
0.0009912509413
0.0009900421225
0.0009886951904
0.0009870034024
0.0009857444143
0.0009851750177
0.0009849595245
0.0009849351071
0.0009850260753
0.0009852009871
0.0009854518841
0.0009857849652
0.0009862174545
0.0009867784635
0.0009875137394
0.0009884964055
0.0009898487969
0.0009917914487
0.0009947945778
441.0153227
68.40111542
3.810141327
0.04015638729
0.001319662815
0.001137386295
0.001077587589
0.001050803383
0.001039090522
0.001035041178
0.001034997602
0.001037041617
0.001040096285
0.001043507976
0.001046835096
0.001049751497
0.001052008597
0.001053430514
0.001053914737
0.001053430551
0.00105201167
0.001049743957
0.001046750084
0.001043174067
0.001039168189
0.00103488285
0.001030459287
0.001026024942
0.001021690623
0.001017548859
0.001013673038
0.001010116973
0.001006914574
0.001004080074
0.00100160946
0.0009994823442
0.0009976638146
0.0009961063276
0.0009947516668
0.0009935329369
0.0009923774078
0.0009912128972
0.000989978676
0.0009886111117
0.0009868935178
0.0009857158435
0.0009851861709
0.0009849910351
0.0009849785649
0.0009850783987
0.0009852616699
0.0009855216721
0.0009858652218
0.0009863098275
0.0009868846462
0.0009876351851
0.0009886337164
0.0009900000766
0.0009919487057
0.000994929776
409.2174372
55.43978396
2.432478434
0.01538566903
0.001269671923
0.001133135678
0.001080925965
0.001057710515
0.001047840145
0.001044698899
0.001045000798
0.001047011647
0.001049760942
0.001052659355
0.001055312841
0.001057437343
0.001058829797
0.001059360614
0.00105897027
0.00105766338
0.001055498626
0.001052575958
0.001049022435
0.001044979107
0.001040590549
0.00103599693
0.001031328449
0.001026701809
0.001022217996
0.001017960901
0.001013996496
0.001010372334
0.001007117112
0.001004240827
0.001001736093
0.000999579917
0.0009977354679
0.000996153898
0.0009947761945
0.0009935349759
0.0009923569976
0.0009911691804
0.0009899105425
0.0009885238277
0.0009867933261
0.0009856913646
0.0009851989551
0.0009850232034
0.0009850223924
0.000985131111
0.000985322895
0.0009855922151
0.0009859464727
0.0009864034426
0.0009869923085
0.0009877583047
0.0009887727557
0.0009901528164
0.0009921066083
0.0009950637408
373.3150049
43.63182553
1.493872146
0.006519329556
0.00124425305
0.001131227481
0.001085370525
0.001065137433
0.001056754352
0.001054273721
0.001054726647
0.001056547137
0.001058865959
0.001061158443
0.001063079104
0.001064388314
0.00106492697
0.001064606702
0.001063403223
0.001061347673
0.001058515507
0.001055014247
0.001050970981
0.001046521467
0.001041801848
0.001036942418
0.001032063303
0.001027271686
0.001022659979
0.001018304571
0.001014265
0.001010583349
0.001007283741
0.001004372423
0.001001839013
0.0009996581922
0.0009977914258
0.0009961887282
0.0009947904228
0.0009935287551
0.0009923300567
0.0009911203433
0.000989838114
0.000988433234
0.0009867021624
0.0009856707452
0.000985213323
0.0009850560554
0.0009850666409
0.0009851842677
0.0009853847135
0.0009856635545
0.0009860287443
0.0009864983044
0.0009871014245
0.000987883028
0.0009889133884
0.000990306814
0.000992264898
0.0009951962799
334.3258947
32.84289268
0.8560453813
0.003226488544
0.001229033866
0.001131206504
0.001090640771
0.001072866132
0.001065647835
0.001063601698
0.001064033408
0.001065533126
0.001067327377
0.001068954286
0.001070116273
0.001070616738
0.001070336253
0.001069221062
0.001067274273
0.001064545869
0.001061121649
0.001057112075
0.001052641519
0.001047839304
0.001042833143
0.001037744175
0.001032683532
0.001027750056
0.001023028712
0.001018589387
0.001014486012
0.001010755882
0.001007419074
0.001004478492
0.001001921069
0.0009997193991
0.0009978334227
0.0009962121584
0.000994795383
0.000993515072
0.0009922972205
0.0009910669244
0.0009897617927
0.0009883391512
0.0009866194227
0.00098565377
0.0009852292269
0.0009850896102
0.0009851113513
0.0009852379126
0.0009854471631
0.0009857357164
0.0009861120461
0.000986594398
0.0009872119461
0.0009880092599
0.0009890554542
0.0009904618448
0.0009924232991