/*--------------------------------*- C++ -*----------------------------------*\
  =========                 |
  \\      /  F ield         | OpenFOAM: The Open Source CFD Toolbox
   \\    /   O peration     | Website:  https://openfoam.org
    \\  /    A nd           | Version:  12
     \\/     M anipulation  |
\*---------------------------------------------------------------------------*/
FoamFile
{
    format      ascii;
    class       volScalarField;
    location    "1050";
    object      nut;
}
// * * * * * * * * * * * * * * * * * * * * * * * * * * * * * * * * * * * * * //

dimensions      [0 2 -1 0 0 0 0];

internalField   nonuniform List<scalar> 
16200
(
0.0005123315205
0.001750813543
0.002911466879
0.00381199613
0.004078169005
0.003573882995
0.002603560014
0.001397679483
0.00071199874
0.0001862456605
5.829582594e-06
2.645600759e-06
2.395935899e-06
2.355653367e-06
1.868514885e-06
1.608403278e-06
1.402502545e-06
1.256791031e-06
1.161496966e-06
1.099128978e-06
1.061901634e-06
1.046788301e-06
1.050762233e-06
1.071843265e-06
1.109311131e-06
1.16392358e-06
1.238276754e-06
1.337347972e-06
1.469655892e-06
1.649691246e-06
1.902461648e-06
2.27187342e-06
2.836543114e-06
3.74236357e-06
5.275816294e-06
8.030039587e-06
1.3281442e-05
2.38396524e-05
4.597715506e-05
9.386555148e-05
0.0001998935537
0.0004388367486
0.0009847746046
0.001002209026
0.001001788097
0.001000844466
0.0009995164693
0.0009989180013
0.0009986856706
0.000998607762
0.0009985928027
0.0009986029029
0.0009986238002
0.000998651748
0.0009986879199
0.0009987366284
0.0009988045875
0.0009989030449
0.0009990486669
0.0009992761426
0.0005055265195
0.001712380355
0.002815424422
0.003614022684
0.003705970038
0.003074107358
0.002117913111
0.001026847306
0.0005627464342
4.141386391e-05
2.709584958e-06
2.224695077e-06
2.025044158e-06
1.985460665e-06
1.677197259e-06
1.440159466e-06
1.252175354e-06
1.119221476e-06
1.033852741e-06
9.791084509e-07
9.474610148e-07
9.357900776e-07
9.410746821e-07
9.612623953e-07
9.955492997e-07
1.044520824e-06
1.110482117e-06
1.197982737e-06
1.314958655e-06
1.474983071e-06
1.701239035e-06
2.033769701e-06
2.543444244e-06
3.361005752e-06
4.742546035e-06
7.217830397e-06
1.192705537e-05
2.138088679e-05
4.118459389e-05
8.400043089e-05
0.0001787659599
0.0003923022859
0.0008802339246
0.001002067721
0.001001688994
0.001000851626
0.0009995282659
0.0009989236373
0.0009986894659
0.0009986118094
0.0009985979148
0.0009986092409
0.0009986312221
0.0009986599552
0.0009986965773
0.0009987452924
0.0009988129737
0.0009989109135
0.0009990566279
0.0009992878422
0.0004995169041
0.001673358048
0.002717130117
0.003407436739
0.003330852553
0.002602494504
0.001623544449
0.0007502277335
0.0003747705937
1.420269544e-05
2.118230972e-06
1.875478318e-06
1.712555457e-06
1.675132911e-06
1.494393887e-06
1.28015455e-06
1.11025347e-06
9.900439648e-07
9.14177606e-07
8.663866361e-07
8.3943774e-07
8.301069543e-07
8.353903091e-07
8.532163722e-07
8.827769942e-07
9.246149244e-07
9.809594126e-07
1.056298149e-06
1.158503203e-06
1.300778927e-06
1.50491695e-06
1.807463514e-06
2.272218685e-06
3.016527374e-06
4.270189979e-06
6.508351953e-06
1.075278816e-05
1.925028467e-05
3.700609632e-05
7.529713898e-05
0.0001598261331
0.0003498047608
0.000782863128
0.001001967368
0.001001605992
0.001000848509
0.0009995420436
0.000998934049
0.0009986979195
0.000998619542
0.000998605658
0.000998617328
0.0009986397324
0.0009986688062
0.0009987055909
0.0009987541894
0.000998821518
0.000998918953
0.0009990646428
0.0009992989055
0.0004954221439
0.00163469501
0.002614762715
0.003160698009
0.002943334577
0.002171160425
0.001151168393
0.000556166062
0.0001831763292
5.041751531e-06
1.776135853e-06
1.595848169e-06
1.461796285e-06
1.426376466e-06
1.331148391e-06
1.136703564e-06
9.826954116e-07
8.737983029e-07
8.062093831e-07
7.643189652e-07
7.411673686e-07
7.334502623e-07
7.382272666e-07
7.53530248e-07
7.786965925e-07
8.144376317e-07
8.632058083e-07
9.298028861e-07
1.022382455e-06
1.154006932e-06
1.345328005e-06
1.630109863e-06
2.066936955e-06
2.763880137e-06
3.933235115e-06
6.014437102e-06
9.952546194e-06
1.782458078e-05
3.425191987e-05
6.96285958e-05
0.0001476012519
0.0003225528123
0.0007207085376
0.001001888743
0.00100152752
0.001000814366
0.0009995450877
0.0009989412349
0.0009987058387
0.0009986275115
0.0009986137136
0.0009986256009
0.0009986482855
0.0009986776066
0.000998714519
0.0009987630392
0.0009988300878
0.0009989271273
0.0009990728445
0.0009993099923
0.0004915363578
0.001595738934
0.002510122508
0.002911315667
0.002560969804
0.001789903119
0.0008266443127
0.0004230233461
4.384834847e-05
2.048306459e-06
1.501836511e-06
1.358976381e-06
1.248970534e-06
1.21635243e-06
1.177253558e-06
1.002105799e-06
8.63682225e-07
7.659351258e-07
7.062792574e-07
6.698744371e-07
6.501412181e-07
6.438020049e-07
6.480901812e-07
6.61277835e-07
6.829885267e-07
7.142785864e-07
7.580182259e-07
8.194449835e-07
9.069486786e-07
1.033300118e-06
1.218005578e-06
1.492465934e-06
1.911124642e-06
2.574929619e-06
3.682971626e-06
5.647826587e-06
9.356378286e-06
1.675525373e-05
3.216691223e-05
6.528863278e-05
0.0001381242284
0.0003011540527
0.0006712897644
0.001001833688
0.001001459716
0.001000763061
0.0009995428557
0.000998947876
0.0009987146463
0.00099863654
0.0009986225933
0.0009986343955
0.0009986571092
0.000998686511
0.0009987234669
0.0009987719068
0.0009988387207
0.000998935452
0.0009990812235
0.0009993209827
0.0004872327227
0.001556081286
0.002401653252
0.002654799297
0.002185119082
0.001390829645
0.0006105315625
0.0002912276612
1.724523629e-05
1.557500006e-06
1.271770208e-06
1.161365682e-06
1.070698818e-06
1.040426775e-06
1.035033402e-06
8.777158264e-07
7.538939864e-07
6.668069634e-07
6.146742239e-07
5.834964749e-07
5.671223326e-07
5.62364087e-07
5.666980805e-07
5.787342391e-07
5.984910164e-07
6.274825544e-07
6.690539059e-07
7.288142819e-07
8.152409352e-07
9.407558637e-07
1.123965532e-06
1.394599116e-06
1.804237309e-06
2.44900782e-06
3.519339118e-06
5.410487145e-06
8.971712352e-06
1.606425563e-05
3.081171789e-05
6.244030239e-05
0.0001318259966
0.0002867323741
0.0006375056108
0.001001796653
0.001001401831
0.001000712127
0.0009995339288
0.0009989528477
0.0009987235472
0.0009986460956
0.000998631954
0.0009986434975
0.0009986660746
0.0009986954452
0.0009987323958
0.0009987807715
0.0009988474122
0.0009989439304
0.0009990898078
0.0009993319616
0.0004818732224
0.001514924751
0.00228802425
0.002381119914
0.001826065979
0.001011672387
0.0004575826428
0.0001722203977
5.498334095e-06
1.398869277e-06
1.061759611e-06
9.911557965e-07
9.162578258e-07
8.886111928e-07
9.015336183e-07
7.617070261e-07
6.523515237e-07
5.761024139e-07
5.316131341e-07
5.058142957e-07
4.9303738e-07
4.902707839e-07
4.953301695e-07
5.07261683e-07
5.265503964e-07
5.549588227e-07
5.966909921e-07
6.57354378e-07
7.453896369e-07
8.729064251e-07
1.058441076e-06
1.329809082e-06
1.737065766e-06
2.37315475e-06
3.423054413e-06
5.271487545e-06
8.744677267e-06
1.565011925e-05
2.998215231e-05
6.065136307e-05
0.0001277577721
0.000277152435
0.0006144670202
0.001001773901
0.001001352198
0.001000661271
0.0009995198883
0.0009989565731
0.0009987325871
0.0009986561311
0.0009986417475
0.0009986528795
0.0009986751746
0.0009987044148
0.0009987413183
0.0009987896456
0.0009988561736
0.0009989525701
0.0009990986054
0.0009993429289
0.0004747882678
0.001470543526
0.00216593048
0.002099759676
0.001501380513
0.000726738308
0.000353450619
6.45877497e-05
2.438291819e-06
1.086834612e-06
9.301798798e-07
8.442497777e-07
7.827160335e-07
7.581255478e-07
7.792069417e-07
6.563432701e-07
5.610468658e-07
4.95472425e-07
4.584551172e-07
4.379297097e-07
4.287756459e-07
4.282494437e-07
4.345793131e-07
4.472865486e-07
4.67108102e-07
4.968996947e-07
5.404761294e-07
6.038057479e-07
6.953161522e-07
8.269852161e-07
1.016533268e-06
1.292774427e-06
1.703232289e-06
2.339486023e-06
3.383797052e-06
5.216218507e-06
8.652658942e-06
1.547462519e-05
2.960850886e-05
5.97867748e-05
0.0001256458703
0.0002718411726
0.0006009462612
0.001001761193
0.00100130858
0.001000609574
0.0009995014726
0.0009989590241
0.0009987415492
0.0009986664366
0.0009986518207
0.0009986624456
0.000998684357
0.0009987133973
0.0009987502291
0.0009987985317
0.0009988650114
0.0009989613774
0.0009991076271
0.0009993539075
0.0004661798399
0.001421153792
0.002010766173
0.001814042251
0.001190911011
0.0005373604731
0.0002676145594
3.21406003e-05
1.482452957e-06
9.191659473e-07
7.884786715e-07
7.212729704e-07
6.704025241e-07
6.485641651e-07
6.709121879e-07
5.634623835e-07
4.810619535e-07
4.254653473e-07
3.954244019e-07
3.798731174e-07
3.742400468e-07
3.760872311e-07
3.838354918e-07
3.979876923e-07
4.196586426e-07
4.515878031e-07
4.980594545e-07
5.651545998e-07
6.613386315e-07
7.986198023e-07
9.947368378e-07
1.278238116e-06
1.696405634e-06
2.339979912e-06
3.39068093e-06
5.228614055e-06
8.669658845e-06
1.549174338e-05
2.96026944e-05
5.966736501e-05
0.0001251093376
0.0002699629627
0.0005950704304
0.001001755017
0.001001269091
0.001000556229
0.0009994798688
0.0009989604283
0.0009987503595
0.0009986768816
0.0009986620654
0.000998672126
0.0009986935853
0.0009987223794
0.0009987591292
0.0009988074367
0.0009988739341
0.0009989703587
0.0009991168793
0.0009993649072
0.0004560066348
0.001367191878
0.001837025375
0.001533069398
0.0008720003606
0.0004033503182
0.000189705122
1.812301737e-05
1.152031139e-06
7.789304732e-07
6.748071553e-07
6.173374872e-07
5.750754801e-07
5.558804167e-07
5.754998785e-07
4.82141095e-07
4.116433496e-07
3.654188921e-07
3.419178493e-07
3.310493079e-07
3.28773509e-07
3.327316106e-07
3.426186244e-07
3.586005268e-07
3.824041709e-07
4.170937078e-07
4.671400275e-07
5.387327077e-07
6.404496868e-07
7.84476778e-07
9.887910134e-07
1.282018776e-06
1.711677681e-06
2.368586222e-06
3.435761133e-06
5.297385557e-06
8.778116594e-06
1.567150818e-05
2.990913578e-05
6.018291309e-05
0.000125918293
0.0002710207247
0.0005957371283
0.001001752364
0.001001232061
0.001000500411
0.0009994560896
0.0009989609736
0.0009987589405
0.0009986873385
0.0009986723754
0.0009986818509
0.0009987028219
0.0009987313467
0.0009987680183
0.0009988163666
0.0009988829497
0.00099897952
0.0009991263668
0.000999375939
0.0004441369057
0.001308625827
0.00165135667
0.00126584416
0.0006264452595
0.0003075958206
0.0001248641536
1.232040465e-05
9.417960385e-07
6.619860603e-07
5.777914998e-07
5.292232128e-07
4.940004441e-07
4.77335796e-07
4.922138112e-07
4.117335604e-07
3.522037615e-07
3.147011276e-07
2.97210851e-07
2.90599367e-07
2.910698081e-07
2.975628189e-07
3.093852189e-07
3.273783548e-07
3.536602042e-07
3.915342667e-07
4.456165304e-07
5.222259245e-07
6.301306142e-07
7.818158391e-07
9.95668504e-07
1.300672788e-06
1.744965633e-06
2.420220403e-06
3.51231531e-06
5.412956911e-06
8.963134331e-06
1.598849576e-05
3.048061383e-05
6.123948574e-05
0.0001278760165
0.0002745870092
0.0006019932281
0.001001750862
0.001001196147
0.001000441402
0.0009994310843
0.0009989608759
0.0009987672554
0.0009986977122
0.0009986826656
0.0009986915629
0.000998712036
0.0009987402884
0.0009987768979
0.0009988253288
0.0009988920665
0.000998988867
0.0009991360929
0.0009993870101
0.0004302406088
0.001244547939
0.001461004755
0.001002023338
0.0004692612475
0.0002411242311
5.980678815e-05
6.800174613e-06
7.579563992e-07
5.641626916e-07
4.957599883e-07
4.545679145e-07
4.252028535e-07
4.110145176e-07
4.204177209e-07
3.51550919e-07
3.019634439e-07
2.723851499e-07
2.602295651e-07
2.570312959e-07
2.604397728e-07
2.690164227e-07
2.827319957e-07
3.029007643e-07
3.319307158e-07
3.732968422e-07
4.317447545e-07
5.137586986e-07
6.283690506e-07
7.884583627e-07
1.012958562e-06
1.331442952e-06
1.792992381e-06
2.490813078e-06
3.615020667e-06
5.56788193e-06
9.213382415e-06
1.642379362e-05
3.128265801e-05
6.27694903e-05
0.000130842363
0.0002803592029
0.0006131662144
0.001001748688
0.001001160305
0.001000378601
0.0009994056312
0.0009989603262
0.0009987752838
0.0009987079283
0.0009986928668
0.0009987012147
0.0009987212026
0.0009987491963
0.0009987857707
0.0009988343307
0.0009989012929
0.0009989984047
0.0009991460588
0.0009993981258
0.0004141385837
0.001172788908
0.00126546763
0.0007505160174
0.0003649252017
0.0001875414852
3.068098949e-05
3.502238462e-06
6.129734926e-07
4.823305615e-07
4.266259034e-07
3.916162162e-07
3.670815525e-07
3.551184519e-07
3.589321607e-07
3.003681966e-07
2.596920661e-07
2.3720935e-07
2.296894574e-07
2.296234712e-07
2.35411435e-07
2.458530738e-07
2.614940587e-07
2.840054486e-07
3.159983085e-07
3.610784215e-07
4.241282126e-07
5.118386653e-07
6.335631731e-07
8.026583471e-07
1.03870894e-06
1.372070979e-06
1.853052562e-06
2.576995241e-06
3.739487688e-06
5.756083725e-06
9.519746182e-06
1.696240884e-05
3.228828246e-05
6.472050881e-05
0.0001347093472
0.0002881050206
0.0006287407388
0.001001744508
0.001001123763
0.00100031154
0.0009993803496
0.0009989594922
0.000998783021
0.0009987179339
0.0009987029268
0.0009987107703
0.0009987303029
0.0009987580656
0.0009987946406
0.0009988433804
0.0009989106372
0.0009990081374
0.0009991562645
0.0009994092898
0.0003964332392
0.001092607085
0.001069021176
0.000558998622
0.000280753323
0.0001391034794
1.845656656e-05
1.90445852e-06
5.015981182e-07
4.122923559e-07
3.682818226e-07
3.382588783e-07
3.175262271e-07
3.074474736e-07
3.060154607e-07
2.566974279e-07
2.241052394e-07
2.079803249e-07
2.041037166e-07
2.07150078e-07
2.149233825e-07
2.271348905e-07
2.447808624e-07
2.697831623e-07
3.048942007e-07
3.538364276e-07
4.216496991e-07
5.152701755e-07
6.4442188e-07
8.229954991e-07
1.071389764e-06
1.420691009e-06
1.922906683e-06
2.675987919e-06
3.882133078e-06
5.97268727e-06
9.875074291e-06
1.759284821e-05
3.347722859e-05
6.705384695e-05
0.0001393982344
0.000297656478
0.0006483459014
0.001001737388
0.001001085972
0.001000239882
0.0009993556992
0.0009989585098
0.0009987904716
0.0009987276931
0.000998712808
0.0009987202032
0.0009987393238
0.0009987668943
0.0009988035128
0.0009988524865
0.0009989201074
0.0009990180691
0.0009991667082
0.0009994205038
0.0003784099819
0.001006967284
0.0008597592585
0.0004271270963
0.0002272084719
0.0001009912518
1.284891508e-05
1.091792339e-06
4.143907493e-07
3.519582122e-07
3.166254551e-07
2.918646213e-07
2.74395152e-07
2.66136156e-07
2.602975763e-07
2.194786955e-07
1.94293874e-07
1.838057242e-07
1.833512591e-07
1.88700588e-07
1.982124789e-07
2.12175751e-07
2.319127643e-07
2.595124381e-07
2.978351187e-07
3.50724251e-07
4.234008978e-07
5.230770969e-07
6.59883199e-07
8.482920044e-07
1.10950112e-06
1.47574254e-06
2.000684048e-06
2.785482113e-06
4.040011714e-06
6.213754584e-06
1.02737184e-05
1.830625314e-05
3.483423672e-05
6.974091672e-05
0.0001448517076
0.0003088925262
0.0006717161176
0.001001726712
0.001001046566
0.001000163397
0.0009993320033
0.000998957485
0.0009987976462
0.0009987371846
0.0009987224854
0.0009987294958
0.0009987482576
0.0009987756829
0.0009988123936
0.0009988616575
0.0009989297112
0.0009990282026
0.0009991773873
0.0009994317677
0.0003606762466
0.0009141371021
0.00069184571
0.0003497510002
0.000191737771
5.665199946e-05
8.572381161e-06
6.810868326e-07
3.457013612e-07
3.00095005e-07
2.716652778e-07
2.511414158e-07
2.370494115e-07
2.305033129e-07
2.211749392e-07
1.880990239e-07
1.696031478e-07
1.636330577e-07
1.663837394e-07
1.736057341e-07
1.847179427e-07
2.004488108e-07
2.223390155e-07
2.525913915e-07
2.941641485e-07
3.510339076e-07
4.286228467e-07
5.344413581e-07
6.790533418e-07
8.775540148e-07
1.152011367e-06
1.535915128e-06
2.084824017e-06
2.903569642e-06
4.210724214e-06
6.47614429e-06
1.071129587e-05
1.909596414e-05
3.634819233e-05
7.276147326e-05
0.0001510300819
0.0003217306954
0.000698672325
0.001001712105
0.001001005315
0.001000088054
0.0009993094717
0.0009989564968
0.0009988045591
0.0009987463978
0.0009987319443
0.0009987386381
0.0009987571009
0.0009987844344
0.0009988212899
0.0009988709017
0.0009989394556
0.0009990385403
0.0009991882993
0.0009994430803
0.0003458245711
0.0008134728887
0.0005594043918
0.0002896986495
0.0001596039258
3.129025421e-05
4.078734341e-06
4.601562688e-07
2.909407391e-07
2.56253964e-07
2.332231859e-07
2.161326919e-07
2.04628943e-07
1.998689733e-07
1.879507918e-07
1.619114364e-07
1.493882865e-07
1.475497852e-07
1.525589291e-07
1.613649863e-07
1.740053991e-07
1.915185363e-07
2.155867852e-07
2.485011007e-07
2.933197169e-07
3.541643039e-07
4.366722679e-07
5.486688554e-07
7.011738864e-07
9.09947437e-07
1.197970805e-06
1.600115358e-06
2.174036559e-06
3.028691059e-06
4.392341127e-06
6.757390571e-06
1.118448005e-05
1.99571311e-05
3.801135624e-05
7.610201704e-05
0.0001579078576
0.0003361194406
0.0007291046258
0.001001693374
0.001000961782
0.001000017376
0.0009992882265
0.0009989556022
0.0009988112269
0.0009987553311
0.0009987411786
0.0009987476258
0.0009987658542
0.0009987931533
0.0009988302093
0.0009988802277
0.0009989493472
0.0009990490839
0.0009991994438
0.0009994544389
0.000337079815
0.0007085119715
0.0004600695205
0.0002417533767
0.0001294472242
1.864182548e-05
1.950133456e-06
3.333873653e-07
2.460540257e-07
2.188436114e-07
2.000573999e-07
1.858484505e-07
1.764890042e-07
1.732767242e-07
1.59918646e-07
1.403473126e-07
1.327874419e-07
1.346141635e-07
1.413819467e-07
1.515779414e-07
1.657008388e-07
1.849923487e-07
2.112291745e-07
2.467808429e-07
2.948104726e-07
3.595936001e-07
4.469929412e-07
5.651618915e-07
7.255970791e-07
9.447442622e-07
1.246584997e-06
1.667440218e-06
2.267270026e-06
3.159593284e-06
4.583342511e-06
7.055609128e-06
1.169084108e-05
2.088642196e-05
3.9818795e-05
7.975461673e-05
0.0001654711859
0.0003520325163
0.0007629595417
0.00100167047
0.001000915481
0.0009999513701
0.0009992683234
0.0009989548402
0.000998817667
0.0009987639892
0.0009987501886
0.0009987564599
0.0009987745206
0.0009988018457
0.0009988391596
0.0009988896432
0.0009989593918
0.0009990598349
0.00099921082
0.0009994658396
0.0003372384931
0.0006045447681
0.0003732361956
0.0002067397106
0.0001023319091
1.223355331e-05
9.511852571e-07
2.567871531e-07
2.084078983e-07
1.86648341e-07
1.713450125e-07
1.596750764e-07
1.522415738e-07
1.504409736e-07
1.366726603e-07
1.229911111e-07
1.1995197e-07
1.24283092e-07
1.324376042e-07
1.438943102e-07
1.594646306e-07
1.805133037e-07
2.088854018e-07
2.470270257e-07
2.98210497e-07
3.668718855e-07
4.591076234e-07
5.834112024e-07
7.517735848e-07
9.813608486e-07
1.29720122e-06
1.737157976e-06
2.363684003e-06
3.295291194e-06
4.782562525e-06
7.369413383e-06
1.22287103e-05
2.188178699e-05
4.176794017e-05
8.371603338e-05
0.0001737160356
0.0003694649905
0.0008002311092
0.001001643452
0.001000866048
0.0009998899254
0.0009992497714
0.0009989542362
0.0009988238972
0.0009987723816
0.0009987589793
0.0009987651445
0.0009987831056
0.0009988105186
0.0009988481486
0.0009988991557
0.0009989695944
0.0009990707947
0.0009992224243
0.0009994772771
0.0003471880574
0.0005100330995
0.0003166031652
0.000184190958
5.981369217e-05
8.610177186e-06
4.912769465e-07
2.061512467e-07
1.768541798e-07
1.592777695e-07
1.468712195e-07
1.374204506e-07
1.31690599e-07
1.311863127e-07
1.178136349e-07
1.09348568e-07
1.09940341e-07
1.16052162e-07
1.253495626e-07
1.379925334e-07
1.549815512e-07
1.777537215e-07
2.082117895e-07
2.488798164e-07
3.031435956e-07
3.756055281e-07
4.72603687e-07
6.029831311e-07
7.792470238e-07
1.019310145e-06
1.349294547e-06
1.808691284e-06
2.46262763e-06
3.4350385e-06
4.989148203e-06
7.697851616e-06
1.279707594e-05
2.294226955e-05
4.385821822e-05
8.798694913e-05
0.0001826465214
0.0003884295407
0.0008409527842
0.001001612455
0.001000813219
0.000999832857
0.0009992325468
0.0009989538059
0.0009988299354
0.000998780521
0.0009987675594
0.0009987736867
0.0009987916162
0.0009988191795
0.000998857184
0.000998908772
0.0009989799591
0.0009990819633
0.0009992342449
0.0009994887447
0.0003645192184
0.0004723166772
0.0002753662978
0.000165431285
3.194713304e-05
3.549521095e-06
2.820861399e-07
1.704675876e-07
1.507699111e-07
1.364199292e-07
1.263384506e-07
1.187440594e-07
1.145021314e-07
1.150729412e-07
1.027971875e-07
9.866138446e-08
1.021067487e-07
1.094979615e-07
1.198048355e-07
1.335960606e-07
1.51973992e-07
1.764246628e-07
2.089068615e-07
2.520255041e-07
3.092844272e-07
3.85457819e-07
4.87133127e-07
6.23518031e-07
8.076452147e-07
1.058204535e-06
1.402456147e-06
1.881600017e-06
2.563615767e-06
3.578295513e-06
5.202515628e-06
8.040344887e-06
1.339548885e-05
2.406785075e-05
4.609077152e-05
9.257142974e-05
0.0001922738001
0.000408954114
0.0008851926239
0.001001577655
0.001000756803
0.0009997799361
0.0009992166055
0.0009989535577
0.0009988357988
0.0009987884221
0.0009987759401
0.0009987820955
0.0009988000603
0.0009988278362
0.0009988662731
0.0009989184979
0.000998990489
0.000999093339
0.0009992462647
0.000999500234
0.0003856253512
0.0004113185134
0.0002469702167
0.0001467371418
1.729514613e-05
1.350626175e-06
1.879527712e-07
1.435636515e-07
1.291100584e-07
1.172961918e-07
1.090607007e-07
1.030530296e-07
1.001579579e-07
1.005270095e-07
9.103715775e-08
9.061792321e-08
9.592611262e-08
1.043041269e-07
1.155578683e-07
1.304699452e-07
1.501982056e-07
1.762711438e-07
2.10705596e-07
2.561906854e-07
3.163526573e-07
3.96142767e-07
5.02405294e-07
6.447213564e-07
8.366693206e-07
1.097739341e-06
1.456371574e-06
1.955553113e-06
2.666292688e-06
3.724682129e-06
5.422287482e-06
8.396600099e-06
1.402393251e-05
2.525923858e-05
4.846808851e-05
9.747622942e-05
0.0002026146917
0.0004310790387
0.0009330468262
0.001001539261
0.001000696657
0.0009997309132
0.0009992018904
0.000998953495
0.0009988415043
0.0009987961009
0.0009987841339
0.0009987903807
0.0009988084467
0.0009988364964
0.0009988754226
0.0009989283386
0.0009990011859
0.0009991049182
0.0009992584711
0.0009995117353
0.0004113417131
0.0003775234963
0.0002333824909
0.0001262132021
1.004949194e-05
4.858965152e-07
1.43790549e-07
1.220408391e-07
1.108211055e-07
1.010838226e-07
9.444159821e-08
8.986886202e-08
8.800239744e-08
8.718402545e-08
8.201412859e-08
8.447887508e-08
9.103233989e-08
1.002465112e-07
1.12410939e-07
1.284097471e-07
1.494384771e-07
1.77068227e-07
2.133764775e-07
2.611397635e-07
3.241106492e-07
4.074226198e-07
5.181839495e-07
6.663595493e-07
8.660889165e-07
1.137686628e-06
1.510813204e-06
2.030319392e-06
2.770420859e-06
3.873963713e-06
5.648274461e-06
8.766583422e-06
1.468278081e-05
2.651779221e-05
5.099385282e-05
0.0001027104652
0.0002136909436
0.0004548552358
0.0009846332836
0.0010014975
0.001000632663
0.000999685533
0.0009991883383
0.0009989536179
0.0009988470675
0.0009988035735
0.0009987921543
0.0009987985532
0.000998816784
0.0009988451676
0.0009988846386
0.0009989382981
0.0009990120506
0.0009991166957
0.0009992708486
0.0009995232385
0.0004387760252
0.0003640097065
0.0002284465938
8.536524354e-05
5.04270022e-06
1.965746792e-07
1.185657225e-07
1.04177281e-07
9.522598609e-08
8.743838294e-08
8.205935214e-08
7.865796992e-08
7.779034558e-08
7.671980377e-08
7.524563655e-08
7.970178835e-08
8.717899677e-08
9.715089767e-08
1.10190363e-07
1.272311453e-07
1.495018416e-07
1.786176222e-07
2.167189059e-07
2.666725133e-07
3.32360968e-07
4.191049417e-07
5.342835586e-07
6.882554296e-07
8.957360664e-07
1.177887916e-06
1.565631354e-06
2.105756701e-06
2.875867436e-06
4.026033759e-06
5.880452079e-06
9.150486875e-06
1.537274517e-05
2.784542859e-05
5.367276024e-05
0.000108285234
0.0002255283892
0.0004803423244
0.001002177877
0.001001452611
0.001000564705
0.0009996435447
0.0009991758834
0.0009989539241
0.0009988525035
0.0009988108564
0.0009988000148
0.0009988066236
0.000998825081
0.0009988538568
0.0009988939262
0.0009989483793
0.0009990230824
0.0009991286642
0.0009992833707
0.000999534735
0.0004825642039
0.0003658626371
0.0002284277082
4.152042648e-05
1.366078083e-06
1.205814023e-07
1.005590318e-07
8.947562932e-08
8.225396144e-08
7.585769612e-08
7.158456923e-08
6.928937975e-08
6.938306646e-08
6.880250909e-08
7.024290758e-08
7.600727871e-08
8.418974111e-08
9.48684864e-08
1.087410022e-07
1.267713796e-07
1.502207996e-07
1.807499164e-07
2.205641171e-07
2.726231516e-07
3.409429633e-07
4.310360987e-07
5.505590709e-07
7.102737147e-07
9.2548604e-07
1.218229458e-06
1.620723277e-06
2.181773536e-06
2.982556833e-06
4.180854835e-06
6.118884933e-06
9.548626303e-06
1.609472711e-05
2.924439251e-05
5.651013581e-05
0.000114212935
0.0002381556881
0.0005076062123
0.001002147554
0.00100140485
0.001000492645
0.0009996047083
0.0009991644601
0.0009989544099
0.0009988578259
0.0009988179653
0.0009988077289
0.0009988146025
0.0009988333459
0.0009988625702
0.0009989032897
0.000998958584
0.0009990342794
0.0009991408121
0.0009992960041
0.0009995462168
0.0005235672679
0.000359645808
0.000222932953
1.942251234e-05
3.287824745e-07
9.689827018e-08
8.646086097e-08
7.739970809e-08
7.136557591e-08
6.614441956e-08
6.287812798e-08
6.161666959e-08
6.261301463e-08
6.301326786e-08
6.653301036e-08
7.314231863e-08
8.191848556e-08
9.326177023e-08
1.07920864e-07
1.268852281e-07
1.514492549e-07
1.833204343e-07
2.247710295e-07
2.788562179e-07
3.497286128e-07
4.430970489e-07
5.669016616e-07
7.323167675e-07
9.552531459e-07
1.25863816e-06
1.676029104e-06
2.258324764e-06
3.0904658e-06
4.338452059e-06
6.363716885e-06
9.961424998e-06
1.684978752e-05
3.071719374e-05
5.951179429e-05
0.0001205069487
0.0002516035767
0.0005367174159
0.001002113586
0.00100135449
0.001000416299
0.0009995687979
0.000999154005
0.0009989550704
0.0009988630475
0.0009988249153
0.0009988153095
0.0009988225001
0.0009988415862
0.0009988713132
0.000998912732
0.0009989689126
0.0009990456376
0.0009991531239
0.0009993087381
0.0009995576714
0.0005625337345
0.000349387024
0.0002092943474
9.638783006e-06
1.268699482e-07
8.284760281e-08
7.480364549e-08
6.7370983e-08
6.228345269e-08
5.805706413e-08
5.572692627e-08
5.543910827e-08
5.726653144e-08
5.886279156e-08
6.373274397e-08
7.092904665e-08
8.023953832e-08
9.220599072e-08
1.076036528e-07
1.274464944e-07
1.530631004e-07
1.862092236e-07
2.292258419e-07
2.852659454e-07
3.586218752e-07
4.552029755e-07
5.832390339e-07
7.543260096e-07
9.849937449e-07
1.299086681e-06
1.731539525e-06
2.335422274e-06
3.199637507e-06
4.498931033e-06
6.615193519e-06
1.038944136e-05
1.763917992e-05
3.226664125e-05
6.268405692e-05
0.0001271815755
0.0002659045595
0.0005677500501
0.001002076228
0.001001301832
0.001000335418
0.0009995356029
0.000999144457
0.0009989559003
0.0009988681796
0.0009988317203
0.0009988227687
0.0009988303258
0.000998849809
0.0009988800904
0.0009989222552
0.0009989793645
0.000999057151
0.000999165583
0.0009993215838
0.0009995690794
0.0005813227816
0.0003384357121
0.000185379249
5.645436119e-06
9.446650126e-08
7.15685185e-08
6.512549559e-08
5.899203364e-08
5.468892285e-08
5.134728848e-08
4.992215553e-08
5.054906525e-08
5.311681965e-08
5.587931164e-08
6.158297478e-08
6.924063873e-08
7.904435247e-08
9.159278437e-08
1.076812704e-07
1.283488429e-07
1.549593445e-07
1.893182423e-07
2.338369588e-07
2.91768525e-07
3.675478878e-07
4.672889605e-07
5.99517091e-07
7.762589889e-07
1.014677945e-06
1.339558794e-06
1.787253513e-06
2.413083432e-06
3.310118241e-06
4.662398759e-06
6.873559541e-06
1.083322758e-05
1.846414085e-05
3.38955082e-05
6.603317916e-05
0.0001342510082
0.0002810909815
0.000600778063
0.001002035716
0.00100124722
0.001000256925
0.0009995049287
0.0009991357588
0.0009989568935
0.0009988732327
0.0009988383935
0.0009988301179
0.0009988380882
0.0009988580203
0.0009988889051
0.0009989318599
0.0009989899373
0.0009990688117
0.0009991781741
0.0009993345358
0.0009995804205
0.0005687581922
0.0003331164989
0.0001531363918
2.184862106e-06
7.70385557e-08
6.229754612e-08
5.704788948e-08
5.195973015e-08
4.83346666e-08
4.582107641e-08
4.528267454e-08
4.674051116e-08
4.991387748e-08
5.368428089e-08
5.991929053e-08
6.797608715e-08
7.823729768e-08
9.132760385e-08
1.080614778e-07
1.29503836e-07
1.57054829e-07
1.925710087e-07
2.385358257e-07
2.983043857e-07
3.764569776e-07
4.793159858e-07
6.15708171e-07
7.981000935e-07
1.044303023e-06
1.380065769e-06
1.843197987e-06
2.491354412e-06
3.421984733e-06
4.828995371e-06
7.139095641e-06
1.129337284e-05
1.932593901e-05
3.560658156e-05
6.956537622e-05
0.0001417292531
0.0002971946282
0.0006358739111
0.001001992266
0.001001190748
0.001000184248
0.0009994765964
0.0009991278565
0.000998958044
0.0009988782157
0.0009988449466
0.0009988373673
0.000998845795
0.0009988662249
0.0009988977595
0.0009989415456
0.0009990006273
0.0009990806097
0.000999190882
0.0009993475771
0.0009995916773
0.0005524941718
0.0003306355481
8.214052616e-05
7.401062519e-07
6.534978019e-08
5.468683181e-08
5.032620561e-08
4.607650295e-08
4.305495885e-08
4.133890592e-08
4.164580957e-08
4.381556316e-08
4.732613184e-08
5.202426602e-08
5.863662229e-08
6.705393683e-08
7.77385386e-08
9.133215566e-08
1.0866872e-07
1.308398326e-07
1.592829489e-07
1.959069171e-07
2.432686598e-07
3.04827226e-07
3.853108751e-07
4.91254228e-07
6.31791267e-07
8.198374901e-07
1.073866757e-06
1.420615593e-06
1.899392173e-06
2.570268491e-06
3.535294658e-06
4.998833372e-06
7.412039241e-06
1.177039094e-05
2.022570138e-05
3.740236861e-05
7.328629506e-05
0.0001496291304
0.0003142447639
0.0006731045788
0.001001946087
0.001001132363
0.001000116954
0.0009994504418
0.0009991206995
0.0009989593454
0.0009988831367
0.0009988513903
0.0009988445263
0.0009988534529
0.0009988744269
0.0009989066548
0.0009989513102
0.0009990114291
0.0009990925329
0.0009992036906
0.0009993606907
0.0009996028286
0.0005319820104
0.0003254534583
4.486860955e-05
2.784278966e-07
5.670938305e-08
4.842197494e-08
4.472162252e-08
4.115297305e-08
3.869913954e-08
3.776452339e-08
3.883783942e-08
4.158205687e-08
4.547865394e-08
5.07421986e-08
5.765684012e-08
6.640396622e-08
7.747967422e-08
9.15407615e-08
1.0944113e-07
1.322997917e-07
1.615924281e-07
1.992812155e-07
2.479978812e-07
3.113071831e-07
3.940878766e-07
5.0309051e-07
6.477620714e-07
8.414761362e-07
1.103383838e-06
1.461233397e-06
1.955872704e-06
2.649876699e-06
3.650123693e-06
5.172042084e-06
7.692637995e-06
1.22647853e-05
2.116449114e-05
3.928518269e-05
7.720107415e-05
0.0001579621956
0.000332267571
0.000712529647
0.001001897386
0.00100107199
0.001000054649
0.0009994263139
0.0009991142407
0.0009989607909
0.0009988880026
0.0009988577341
0.0009988516028
0.0009988610676
0.0009988826291
0.0009989155905
0.0009989611504
0.0009990223354