/*--------------------------------*- C++ -*----------------------------------*\
  =========                 |
  \\      /  F ield         | OpenFOAM: The Open Source CFD Toolbox
   \\    /   O peration     | Website:  https://openfoam.org
    \\  /    A nd           | Version:  12
     \\/     M anipulation  |
\*---------------------------------------------------------------------------*/
FoamFile
{
    format      ascii;
    class       volScalarField;
    location    "1050";
    object      T;
}
// * * * * * * * * * * * * * * * * * * * * * * * * * * * * * * * * * * * * * //

dimensions      [0 0 0 1 0 0 0];

internalField   nonuniform List<scalar> 
16200
(
294.4547465
294.4691995
294.331994
293.9811685
293.2576991
291.7563101
288.5641558
282.7302686
279.3537763
279.0824129
279.184812
279.2777613
279.3933715
279.5208759
279.6705789
279.8419581
280.0415037
280.2727148
280.5416076
280.8539484
281.2166208
281.6369781
282.1229649
282.6827858
283.3244736
284.0551548
284.8798926
285.8000461
286.8111353
287.9004929
289.0454693
290.2135443
291.3655345
292.4615832
293.4677684
294.360719
295.1289969
295.7717696
296.2961448
296.7142993
297.0409935
297.2916303
297.4808903
297.6218851
297.7257543
297.8015825
297.8565506
297.8961852
297.9246545
297.9450503
297.9596387
297.9700676
297.977529
297.9828918
297.9867807
297.9896738
297.9918299
297.9935345
297.9949785
297.9970963
293.6219968
293.5978599
293.4013154
292.9542803
292.0494086
290.1448688
286.135907
280.2427812
278.1273408
278.0489907
278.1548307
278.2573365
278.3823929
278.5210741
278.6842946
278.8719684
279.0910263
279.345658
279.6424907
279.988118
280.3902336
280.8571081
281.3975761
282.02067
282.7350084
283.5478051
284.4633087
285.4806605
286.5912514
287.7761653
289.0050359
290.2380477
291.4316378
292.5460899
293.5518131
294.4320694
295.1821276
295.8063835
296.3151042
296.7217412
297.0410032
297.2875436
297.4750763
297.6158278
297.7202546
297.7969815
297.8529111
297.8934258
297.9226339
297.9436161
297.9586515
297.9694099
297.9771074
297.9826317
297.9866321
297.9895902
297.9918064
297.9935323
297.9949909
297.9972381
292.8889288
292.811763
292.5390405
291.9763764
290.8572725
288.4727194
283.4548704
278.3247412
277.1242832
277.1710909
277.2849737
277.3966399
277.5336713
277.686571
277.8666196
278.0743432
278.3170812
278.5998061
278.9298051
279.3145835
279.7627362
280.2835386
280.8867772
281.5822751
282.3790001
283.2836788
284.2987104
285.4194309
286.6310185
287.9061706
289.2055416
290.4825149
291.6914344
292.7958604
293.7733405
294.6155708
295.3253073
295.9122702
296.3896688
296.7719172
297.0733556
297.3075699
297.4869907
297.6226428
297.7240005
297.7989585
297.8539135
297.8939177
297.9228738
297.9437411
297.9587299
297.9694724
297.9771654
297.9826867
297.986683
297.9896317
297.9918471
297.9935615
297.9949874
297.9972172
292.2964626
292.1587533
291.796227
291.0871773
289.6898417
286.7367055
280.8061594
276.9434164
276.4041269
276.488845
276.6102064
276.7328515
276.8830058
277.051694
277.2504596
277.4806216
277.7499523
278.0643148
278.4317257
278.8606708
279.3606936
279.9420627
280.6153965
281.39098
282.2774878
283.2800985
284.3977997
285.6200658
286.9236538
288.2714292
289.6155116
290.9051765
292.0966654
293.160503
294.0836326
294.8668488
295.5199655
296.057139
296.49362
296.8440703
297.1219548
297.3394379
297.5074041
297.6354639
297.7319283
297.8038078
297.8568642
297.8957157
297.9239796
297.9444337
297.9591757
297.9697696
297.9773709
297.982833
297.9867886
297.9897066
297.9919062
297.9936054
297.9950025
297.9972446
291.8509784
291.6491731
291.1888949
290.3089608
288.5499444
284.8263411
278.5517263
276.1038592
275.9206165
276.0175083
276.1496703
276.2851825
276.4505708
276.637585
276.8578919
277.1137471
277.4133643
277.7635799
278.1732101
278.6517783
279.2097943
279.8584215
280.6088297
281.4711997
282.4529727
283.5563612
284.774988
286.0901718
287.4683882
288.8624861
290.2183218
291.4852062
292.625625
293.6200725
294.4660127
295.1729721
295.7567107
296.2345922
296.6229041
296.9358683
297.1856551
297.3827635
297.536379
297.6545816
297.7444167
297.8119132
297.8621092
297.8991106
297.926184
297.9458733
297.9601233
297.9703991
297.977793
297.983118
297.9869808
297.9898347
297.9919943
297.9936664
297.9950241
297.9972604
291.5664485
291.300313
290.7391405
289.6733421
287.4847519
282.738255
277.0617187
275.6460351
275.6792505
275.7708482
275.9172743
276.0670864
276.249166
276.4563908
276.7004714
276.9847616
277.3179758
277.7080056
278.1645131
278.6980228
279.3198756
280.0418216
280.8750499
281.828779
282.9079209
284.109891
285.4206746
286.8113315
288.2373418
289.6433178
290.9729931
292.1806465
293.238838
294.1397739
294.8912623
295.5102629
296.0168657
296.4302197
296.7666232
297.0392256
297.2585678
297.4333323
297.5709462
297.6779322
297.760047
297.8223082
297.8689945
297.9036623
297.9291924
297.9478638
297.9614427
297.9712758
297.9783767
297.9835065
297.9872379
297.9900027
297.9921051
297.9937419
297.9950562
297.9972867
291.4380795
291.1021339
290.4284309
289.1368979
286.4203717
280.6376313
276.1287719
275.4080176
275.6241607
275.7321572
275.9025498
276.0687602
276.2698439
276.5001196
276.7712757
277.0878552
277.4590815
277.8938746
278.4026826
278.9968766
279.6883819
280.4890986
281.4095129
282.456728
283.6314369
284.9240717
286.3107532
287.7510917
289.1906953
290.5697309
291.835021
292.9503737
293.9008882
294.6906935
295.3366504
295.8612952
296.2872948
296.6342471
296.9175946
297.1489381
297.336983
297.4885469
297.6093211
297.7043128
297.778023
297.8344747
297.8771887
297.9091624
297.9328758
297.9503266
297.9630875
297.9723726
297.9791068
297.9839906
297.9875561
297.9902089
297.9922382
297.9938311
297.9950965
297.9973162
291.4666972
291.054015
290.2506652
288.6603846
285.2125616
278.8559951
275.8137735
275.6542512
275.7932144
275.9254958
276.0935492
276.2787823
276.5017136
276.7583164
277.0601868
277.4130918
277.8267692
278.3111262
278.8773407
279.5374529
280.3036326
281.1872791
282.1971041
283.3365126
284.5999139
285.9685179
287.4070301
288.8640414
290.2784796
291.5912673
292.7574945
293.7537765
294.5785249
295.2466519
295.7820532
296.2107876
296.5564533
296.8379774
297.0692941
297.2601481
297.4173241
297.5458099
297.6496463
297.7324158
297.7974382
297.8477935
297.8862743
297.9153331
297.9370516
297.9531436
297.9649819
297.9736423
297.9799542
297.9845528
297.9879253
297.9904478
297.992391
297.993933
297.9951451
297.9973514
291.6486613
291.1607538
290.2074763
288.2447749
283.7997629
277.6690209
275.7797494
275.9756584
276.145631
276.2899468
276.4788249
276.6850308
276.932032
277.2176113
277.5532757
277.9460501
278.4062232
278.9446223
279.5730173
280.3037607
281.1486386
282.1175359
283.2159464
284.4417048
285.780813
287.2034964
288.6628176
290.0987513
291.44841
292.6590379
293.6980877
294.5564776
295.2451158
295.7876237
296.2126182
296.5477367
296.8161389
297.0352497
297.2170736
297.3693537
297.4969712
297.6031847
297.6905115
297.7612307
297.8175808
297.8617711
297.8959148
297.9219482
297.9415705
297.9562175
297.967064
297.975046
297.9808954
297.9851793
297.9883378
297.9907152
297.9925618
297.9940466
297.9952014
297.9973915
291.9576564
291.3874094
290.2502524
287.8426067
282.2997273
277.1829732
276.3977225
276.4960611
276.6695635
276.8311821
277.0379018
277.267511
277.5413136
277.8590436
278.2321484
278.6688784
279.1800389
279.777171
280.472307
281.2775255
282.2033614
283.2569588
284.4389795
285.739746
287.1349883
288.5831594
290.027216
291.4027678
292.6507911
293.7296882
294.621622
295.3315195
295.8807943
296.299255
296.6179926
296.8645825
297.0607207
297.2217873
297.3576422
297.4740117
297.5739684
297.6591835
297.7308022
297.7899372
297.8378574
297.8759861
297.9058161
297.9288059
297.946296
297.9594579
297.969275
297.9765464
297.9819072
297.9858562
297.9887856
297.9910068
297.9927485
297.994171
297.9952649
297.9974366
292.3822207
291.7176999
290.3311327
287.2950762
280.951206
277.0793113
276.9956595
277.1590955
277.3450486
277.525562
277.7534588
278.0091784
278.3128625
278.6662279
279.0806637
279.5655022
280.1319223
280.7918444
281.5571082
282.4388093
283.4452276
284.5793761
285.8353048
287.1939087
288.6194031
290.0591719
291.4495324
292.7272317
293.8425208
294.7682207
295.5016215
296.0599281
296.4724193
296.7725497
296.9919459
297.1568738
297.2868862
297.3950292
297.4889681
297.572494
297.6470151
297.7127804
297.7697236
297.8179319
297.8578197
297.8901122
297.9157449
297.9357429
297.951116
297.9627891
297.9715649
297.9781113
297.9829695
297.9865714
297.9892618
297.9913188
297.9929495
297.9943054
297.9953354
297.9974868
292.9144665
292.1453583
290.4504988
286.5218031
280.0517472
277.7618536
277.7873025
277.9571325
278.156963
278.3588391
278.6101003
278.8947674
279.2314782
279.6238569
280.083218
280.61978
281.244928
281.9705968
282.8078996
283.7660877
284.8499351
286.0566486
287.3717393
288.7651227
290.1894876
291.583762
292.8827028
294.0299442
294.9891455
295.7488261
296.3201321
296.7299206
297.0125418
297.2028402
297.331469
297.4225369
297.4930751
297.5537076
297.6099732
297.6638718
297.7153188
297.7633139
297.8067378
297.8447895
297.8771401
297.903903
297.9255207
297.9426294
297.9559391
297.9661484
297.9738913
297.9797127
297.9840644
297.9873138
297.9897598
297.9916477
297.9931629
297.994449
297.9954124
297.9975419
293.5441013
292.6383697
290.5608351
285.585118
279.870678
278.5096098
278.6977164
278.8733956
279.0902812
279.3157838
279.5928135
279.9090097
280.2815812
280.7159564
281.2234157
281.8148768
282.501714
283.2953661
284.2054302
285.2381273
286.393138
287.6599763
289.0138944
290.4132832
291.8011068
293.112295
294.2858553
295.2771772
296.0655416
296.6545435
297.0667412
297.3356797
297.4982098
297.5887605
297.6359553
297.661251
297.6790186
297.6975146
297.7202975
297.7477534
297.7784861
297.8104151
297.8415185
297.8702347
297.8955956
297.9171843
297.935011
297.9493675
297.9606948
297.9694859
297.9762201
297.9813279
297.985177
297.9880741
297.990274
297.9919902
297.9933873
297.9946008
297.9954956
297.9976022
294.2668424
293.1650836
290.5487086
284.6476924
279.8881167
279.465546
279.7102962
279.8938728
280.1299207
280.3808819
280.6858393
281.0360631
281.4474776
281.9271528
282.4862966
283.1361577
283.8876201
284.7508212
285.7327498
286.8351441
288.0508265
289.3598607
290.7263185
292.0981495
293.412332
294.605392
295.6259564
296.4442955
297.0554814
297.4761068
297.7371274
297.8759264
297.9297331
297.9312549
297.906439
297.8738791
297.8453195
297.8267974
297.8200788
297.8241275
297.8364128
297.853933
297.8739009
297.8941099
297.9130474
297.9298403
297.9441237
297.9558863
297.9653302
297.9727632
297.978524
297.982938
297.9862949
297.9888443
297.9907994
297.9923435
297.9936213
297.9947603
297.9955846
297.9976674
295.0688667
293.705438
290.3522457
283.9876539
280.7204512
280.5290895
280.8032763
281.0016301
281.2597363
281.5392502
281.8757397
282.2638823
282.7184128
283.247687
283.8626166
284.5742412
285.3923223
286.324759
287.3746733
288.5376994
289.7980602
291.1252074
292.4725233
293.7804966
294.9852749
296.0305819
296.8785691
297.5154292
297.9504879
298.2104195
298.3315208
298.3525756
298.3096045
298.2327555
298.1449857
298.0620219
297.9931275
297.9423211
297.9097818
297.8932395
297.8891963
297.8938726
297.9038387
297.9163462
297.9294214
297.941802
297.9527993
297.9621375
297.9698075
297.9759518
297.9807823
297.9845283
297.987408
297.9896177
297.991332
297.9927052
297.9938635
297.9949266
297.9956792
297.9977378
295.9369765
294.2004326
289.9999417
283.9059719
281.6747856
281.6944514
281.9766584
282.1943405
282.4777567
282.7892924
283.1610682
283.5908764
284.0922871
284.6745565
285.3480573
286.1230551
287.007434
288.0056801
289.1154857
290.3246441
291.6074649
292.9228443
294.2157676
295.42382
296.4878663
297.3633216
298.0277652
298.4824544
298.7483185
298.8589543
298.8532784
298.7695878
298.6416287
298.4965409
298.3542271
298.2276797
298.1238926
298.0450887
297.9900648
297.9554951
297.9370648
297.9303445
297.9313696
297.936939
297.9446921
297.953036
297.9610039
297.9680905
297.9741011
297.9790314
297.9829795
297.9860874
297.988508
297.9903888
297.991868
297.9930729
297.9941128
297.9950991
297.9957787
297.9978131
296.8584953
294.6373168
289.6189412
283.9956461
282.8095072
282.9439359
283.2338082
283.4755331
283.7865345
284.1324894
284.5421867
285.0162536
285.5671442
286.2046061
286.9380913
287.7762462
288.7239081
289.7806036
290.936924
292.1715163
293.448583
294.718176
295.9207766
296.9963224
297.8952171
298.5872481
299.065334
299.3435709
299.4513642
299.4262884
299.3076936
299.1320693
298.9302692
298.7262725
298.5370304
298.3730156
298.2391927
298.1362133
298.0616853
298.0113885
297.980325
297.9635266
297.9565864
297.9559286
297.9588687
297.963535
297.9687231
297.9737289
297.9781954
297.9819885
297.9851044
297.9876068
297.9895888
297.991153
297.9924043
297.9934448
297.9943679
297.995277
297.9958815
297.9978936
297.7734952
295.0023443
289.3762337
284.5033068
284.065888
284.2713776
284.5728253
284.8419035
285.182864
285.5658336
286.0163414
286.5374878
287.1404766
287.8348596
288.6284019
289.5269364
290.5308569
291.6332793
292.8165456
294.0498586
295.2885408
296.476993
297.5559518
298.4726195
299.1902375
299.6936663
299.9895038
300.1017333
300.0651589
299.9188743
299.7010709
299.4456123
299.1801904
298.9256763
298.6962763
298.5001964
298.3406169
298.2168309
298.1254334
298.0614526
298.0193235
297.9936347
297.9796165
297.9733841
297.9719842
297.9733106
297.9759565
297.9790465
297.9820822
297.9848148
297.9871497
297.9890802
297.9906453
297.9919066
297.9929383
297.9938191
297.9946279
297.9954594
297.995992
297.9979792
298.5849196
295.3144159
289.3818981
285.7475227
285.4319829
285.6755636
285.9931911
286.2934639
286.6675092
287.0907289
287.5852192
288.1559666
288.8125438
289.5633787
290.4136256
291.365145
292.4127407
293.5421553
294.7270892
295.9280752
297.0940408
298.1678856
299.0953723
299.8347089
300.3634253
300.6804497
300.803432
300.7631452
300.597113
300.3440857
300.0400542
299.7158407
299.3959542
299.0983406
298.8347192
298.6112931
298.4296918
298.2880441
298.1820882
298.1062244
298.0544204
298.0209026
298.0006057
297.9893923
297.984087
297.9823869
297.9827138
297.9840451
297.985759
297.9875059
297.9891106
297.9905032
297.9916738
297.9926467
297.9934679
297.9941942
297.9948919
297.9956461
297.996113
297.9980699
299.2656558
295.6088811
289.8051818
286.8812299
286.9028467
287.1665531
287.503133
287.8376292
288.2470654
288.7124464
289.2521838
289.8724172
290.5806865
291.3834054
292.2823116
293.2743348
294.3478055
295.4805496
296.6379636
297.7737504
298.8339563
299.7644665
300.5200653
301.0720637
301.411978
301.5506201
301.5137008
301.3359582
301.0555249
300.7095291
300.3311745
299.9481224
299.581839
299.2475981
298.9549087
298.7082247
298.5078392
298.3508889
298.2323906
298.1462232
298.0859712
298.0455673
298.0197074
298.0040491
297.9952342
297.9907962
297.9890116
297.9887317
297.9892274
297.9900606
297.9909847
297.991873
297.9926716
297.993371
297.9939911
297.9945687
297.9951589
297.995837
297.9962428
297.9981655
299.8801511
295.9016606
290.448087
288.2817773
288.4703938
288.7477363
289.1070666
289.4768165
289.9218451
290.4288132
291.01233
291.6789122
292.4337163
293.2802976
294.2161561
295.2323471
296.3100004
297.4190261
298.517842
299.5562815
300.481643
301.2468749
301.8183938
302.1809829
302.3384969
302.3108667
302.1289871
301.8292453
301.4488689
301.022587
300.5805733
300.1474064
299.741744
299.3764693
299.0591522
298.7927317
298.5763551
298.4063169
298.2770286
298.1819373
298.1143156
298.06786
298.0370752
298.0174534
298.0054875
297.9985752
297.9948707
297.9931168
297.9924918
297.9924798
297.9927709
297.9931878
297.9936368
297.9940775
297.9945063
297.9949415
297.9954282
297.996032
297.9963786
297.9982657
300.51917
296.2569435
291.1447213
289.8121139
290.1195555
290.4124345
290.7956519
291.2006525
291.6805718
292.227432
292.8520957
293.5605468
294.3550727
295.2353885
296.1937663
297.2145669
298.2715269
299.3276522
300.3369015
301.2489962
302.0164952
302.6023596
302.9856043
303.163404
303.1495172
302.9701675
302.6589732
302.2522401
301.7853133
301.2901363
300.7938484
300.3181444
299.8791507
299.4876428
299.1495042
298.8663685
298.636403
298.4551887
298.3166295
298.213817
298.139771
298.088
298.0528571
298.029703
298.0149097
298.005763
298.000314
297.9972133
297.9955587
297.9947662
297.9944697
297.9944468
297.9945679
297.9947648
297.9950122
297.9953113
297.9956989
297.9962304
297.9965197
297.9983701
301.166172
296.7517892
292.3740094
291.4552062
291.8342181
292.146969
292.5551585
292.9955291
293.5100035
294.0951163
294.7580111
295.5029689
296.3286704
297.2299113
298.1929527
299.1952651
300.2040312
301.1775323
302.0686239
302.8307119
303.4247172
303.8250487
304.0227922
304.0254834
303.854106
303.5386482
303.1135393
302.6138285
302.0724328
301.5184036
300.9759925
300.4642714
299.9971229
299.5834822
299.2277736
298.930508
298.6890159
298.4982729
298.3517586
298.2422718
298.1626293
298.1061916
298.0671934
298.0408919
298.0235625
298.0123987
298.0053656
298.0010353
297.9984357
297.9969233
297.9960822
297.9956497
297.995464
297.9954317
297.9955075
297.9956771
297.9959703
297.9964319
297.9966648
297.9984788
301.8798696
297.404188
293.7690037
293.1854068
293.6066725
293.944437
294.378887
294.854924
295.4036235
296.0245453
296.7210235
297.4944217
298.3390493
299.2441415
300.1898276
301.1474454
302.0794765
302.9423997
303.6914286
304.2867328
304.6993505
304.9151074
304.935571
304.7761962
304.4626776
304.0267247
303.5022202
302.9222456
302.3170648
301.7129146
301.13139
300.5892231
300.0983295
299.6660469
299.2955398
298.9863542
298.7351041
298.5362515
298.3829206
298.2676704
298.1831558
298.1226224
298.0802144
298.051109
298.0315048
298.0185206
298.0100498
298.0045973
298.0011311
297.9989553
297.9976102
297.9967968
297.9963246
297.9960773
297.9959911
297.996038
297.9962416
297.9966351
297.9968096
297.9985924
302.6953872
298.489896
295.2711495
294.9981945
295.4406841
295.8093517
296.2702448
296.780144
297.3600492
298.0108341
298.7319227
299.5209052
300.367325
301.2548147
302.1579854
303.0435676
303.8717932
304.6003954
305.1898709
305.6090888
305.8395902
305.8774748
305.7326534
305.4260831
304.986057
304.4444955
303.8338615
303.184914
302.5252566
301.8784984
301.2638459
300.6959712
300.1850776
299.7371197
299.3541744
299.0349563
298.7754648
298.5697251
298.4105632
298.2903423
298.2015894
298.1374631
298.0920399
298.0604368
298.0387924
298.0241656
298.0143901
298.0079141
298.0036535
298.0008669
297.9990557
297.9978888
297.9971495
297.9967008
297.9964621
297.9963931
297.9965122
297.9968385
297.9969553
297.9987115
303.5875771
299.6239951
296.9348971
296.8960355
297.3463417
297.7465475
298.2306597
298.7683873
299.3720247
300.0421875
300.7743197
301.561753
302.3892126
303.2351819
304.0699386
304.85764
305.5589159
306.1354616
306.5550632
306.7960019
306.8496024
306.7204474
306.4245453
305.986243
305.4348103
304.8013578
304.11644
303.4083889
302.7022768
302.0193275
301.3766336
300.7870686
300.2593504
299.7982365
299.4048629
299.0772254
298.8107941
298.5992208
298.4350818
298.3105803
298.2181442
298.1508678
298.1027789
298.0689511
298.0454771
298.0293682
298.0184089
298.0109996
298.0060114
298.0026629
298.0004212
297.9989263
297.9979384
297.9973015
297.9969196
297.9967416
297.9967812
297.9970402
297.9971022
297.9988359
304.5810028
300.7352282
298.7329628
298.866792
299.3181595
299.7454469
300.2472725
300.8042639
301.4213735
302.0977301
302.8247232
303.5912375
304.3775179
305.157878
305.8999593
306.5676553
307.1244609
307.538031
307.7843883
307.8508856
307.7372027
307.4543932
307.0225176
306.4676312
305.8188374
305.1058189
304.357012
303.5983814
302.8526723
302.1389835
301.4725562
300.8647014
300.322849
299.8507187
299.448629
299.1139516
298.8416981
298.6252005
298.4568245
298.3286441
298.2330113
298.1629748
298.1125305
298.0767213
298.0516068
298.0341607
298.0221277
298.0138677
298.0082133
298.0043482
298.0017091
297.9999105
297.9986916
297.9978791
297.997363
297.9970829
297.9970477
297.9972386
297.997252
297.9989629
305.7047856
301.946667
300.6359671
300.8880179
301.3388037
301.7868123
302.2998139
302.8663998
303.4851994
304.1529592
304.8571418
305.5824362
306.3054331
306.9977467
307.626376
308.1571714
308.5584054
308.8047828
308.8805346
308.7810113
308.5125072
308.0906306
307.5378086
306.8805738
306.1471285
305.3654112
304.5617205
303.7598093
302.9803326
302.2405206
301.5540027
300.9307345
300.3770284
299.8957
299.4863547
299.1458187
298.8687044
298.6480679
298.4760976
298.3447632
298.2463604
298.1739083
298.1213836
298.0838105
298.0572252
298.0385731
298.0255664
298.0165312
298.0102671
298.0059274
298.0029219
298.0008425
297.9994091
297.9984331
297.9977915
297.9974161
297.9973106
297.9974326
297.9974104
297.9990894
306.9327944
303.4460333
302.6163757
302.9435937
303.3910785
303.851996
304.3678721
304.9326472
305.5395842
306.182512
306.8453476
307.5092775
308.1484609
308.733531
309.2327832
309.6157966
309.8567612
309.9376378
309.8501117
309.5960782
309.1867071
308.6405263
307.9810512
307.2344616
306.4276417
305.5866821
304.7358416
303.8968656
303.0885615
302.3265296
301.6230011
300.9867551
300.4231305
299.9341524
299.5187995
299.1734183
298.8922713
298.6681756
298.4931699
298.3591404
298.2583425
298.183779
298.1294185
298.0902759
298.0623725
298.0426329
298.0287435
298.0190023
298.0121807
298.0074054
298.0040624
298.0017233
298.0000913
297.9989632
297.9982046
297.9977408
297.9975689
297.9976216
297.9975766
297.9992111
308.2318933
305.0944396
304.6446933
305.0173448
305.4567884
305.9211313
306.4298204
306.9798232
307.559997
308.1611698
308.764371
309.3483278
309.8862019
310.349325
310.7088658
310.9392515
311.0209489
310.9426919
310.7024518
310.3071385
309.7712604
309.1149827
308.3620123
307.5376694
306.6673317
305.7752762
304.8838849
304.0131169
303.1801637
302.3992109
301.6812769
301.0341172
300.4622191
299.9669116
299.5466192
299.1972636
298.9127984
298.6858325
298.508278
298.3719548
298.2690918
298.1926861
298.1367075
298.0961692
298.0670852
298.0463655
298.0316763
298.0212925
298.0139614
298.0087864
298.0051329
298.0025543
298.0007385
297.9994692
297.9986017
297.9980563
297.9978216
297.9978053
297.9977495
297.999331
309.5995351
306.8543085
306.6946364
307.0890459
307.5159867
307.97276
308.4628372
308.9842064
309.5222584
310.0651913
310.5920641
311.0803576
311.5036321
311.8352953
312.0504249
312.1287456
312.0567343
311.8289949
311.448481
310.9257156
310.2773032
309.524114
308.689467
307.7975553
306.8722169
305.9360298
305.0096914
304.1115923
303.2575201
302.4604344
301.7303003
301.0739788
300.4952075
299.9946984
299.5703822
299.2178012
298.930635
298.7013098
298.5216305
298.3833653
298.2787278
298.2007184
298.1433154
298.1015375
298.0713968
298.0497942
298.0343809
298.0234126
298.0156161
298.0100749
298.006136
298.0033367
298.0013511
297.999951
297.9989825
297.998362
297.9980674
297.9979834
297.9979284
297.9994481
311.0283067
308.6919742
308.743459
309.1390599
309.5468006
309.9839575
310.4430503
310.9218677
311.4032054
311.873245
312.3100636
312.69105
312.9913108
313.187269
313.2583944
313.1896104
312.9727348
312.6071662
312.0996014
311.4630092
310.7151569
309.87699
308.9711038
308.020464
307.0474314
306.0730414
305.1165051
304.194848
303.3226419
302.511784
301.771321
301.1073283
300.5228789
300.0181338
299.5905801
299.2354196
298.9460862
298.7148455
298.5334113
298.3935127
298.2873569
298.2079551
298.1493008
298.1064231
298.0753375
298.0529404
298.0368719
298.0253724
298.0171514
298.0112751
298.0070741
298.0040717
298.0019295
298.0004083
297.9993467
297.9986574
297.9983052
297.998156
297.9981123
297.9995608
312.498041
310.5730285
310.7734584
311.1422363
311.5233491
311.9294497
312.3458976
312.7697435
313.1820461
313.5676708
313.9046587
314.1712903
314.3450391
314.405839
314.3375705
314.1298854
313.7790824
313.2882914
312.6668885
311.9293854
311.0940575
310.1815358
309.2135298
308.2117871
307.1973079
306.1897579
305.2070518
304.2650342
303.3772259
302.554601
301.8054026
301.1350113
300.545907
300.0377547
299.6076406
299.2504578
298.9594195
298.7266492
298.5437833
298.4025218
298.295074
298.2144677
298.1547165
298.1108646
298.0789352
298.0558239
298.0391632
298.0271815
298.0185736
298.0123908
298.0079496
298.0047607
298.0024743
298.0008414
297.999694
297.9989419
297.9985338
297.9983233
297.9983004
297.999667
313.9643327
312.4581456
312.7314601
313.0746833
313.4213968
313.7865138
314.1504642
314.5093216
314.8432825
315.1366286
315.3681854
315.5178564
315.5659447
315.4959973
315.2959924
314.9596462
314.4868534
313.8835361
313.1609042
312.3343581
311.4222536
310.4446928
309.4224552
308.3761436
307.3255397
306.2891109
305.2836504
304.3239842
303.4227236
302.5900383
301.8334635
301.1577617
300.5648794
300.0540319
299.6219401
299.263216
298.9708729
298.736908
298.5528922
298.4105055
298.301965
298.2203208
298.1596106
298.1148975
298.0822155
298.058463
298.0412677
298.0288486
298.0198887
298.0134261
298.008765
298.005405
298.0029861
298.0012502
298.0000244
297.9992147
297.9987522
297.9984858
297.9984912
297.9997636
315.4271458
314.3130652
314.605013
314.9150172
315.2206641
315.5365193
315.8402025
316.126789
316.3764047
316.5733899
316.6979431
316.7320124
316.6588572
316.465446
316.1433545
315.6896494
315.1070167
314.4034056
313.5912294
312.6863314
311.7068931
310.6723952
309.602717
308.5174246
307.4352295
306.3735626
305.3482518
304.3732452
303.4603656
302.619078
301.8562911
301.1762127
300.5803062
300.0673764
299.633809
299.2739588
298.9806571
298.7457885
298.5608687
298.4175647
298.3081076
298.2255733
298.1640273
298.1185544
298.0852024
298.0608748
298.0431976
298.0303824
298.0211024
298.0143847
298.0095227
298.006006
298.0034654
298.0016349
298.0003377
297.9994753
297.9989597
297.9986443
297.9986816
297.9998479
316.8695118
316.0980952
316.3737165
316.645506
316.90441
317.1646996
317.4028099
317.6128988
317.7756118
317.8758024
317.8953689
317.8184457
317.6311286
317.3234449
316.890005
316.3305577
315.6499084
314.8574461
313.966343
312.9926032
311.9541013
310.869685
309.7584056
308.6389152
307.5289998
306.4452007
305.402518
304.4141433
303.4912135
302.6425738
301.8745739
301.1909213
300.5926387
300.0781535
299.6435426
299.2829235
298.9889618
298.7534412
298.567831
298.4237917
298.3135727
298.2302793
298.1680072
298.1218655
298.087918
298.0630756
298.0449643
298.0317909
298.0222204
298.0152704
298.010225
298.0065652
298.0039131
298.001996
298.000634
297.9997229
297.9991558
297.9987994
297.998866
297.9999212
318.2754119
317.7815324
318.021359
318.2510455
318.4596939
318.6608622
318.8310359
318.9636025
319.0401354
319.0462781
318.9657415
318.7847931
318.4921044
318.0803382
317.5466004
316.892752
316.1251895
315.2543163
314.2937674
313.2595444
312.1691654
311.0408819
309.8930109
308.7434145
307.6090866
306.5058097
305.4478755
304.4478225
303.5161887
302.6612709
301.8889171
301.2023803
300.6022782
300.0866897
299.6514056
299.290324
298.9959584
298.7600024
298.5738866
298.4292704
298.3184251
298.2344883
298.1715879
298.124859
298.0903831
298.0650804
298.0465789
298.0330819
298.023248
298.0160869
298.0108745
298.0070839
298.0043299
298.0023337
298.0009134
297.999957
297.9993405
297.998951
297.9990401
297.9999955
319.6265171
319.3399854
319.5355944
319.7208759
319.8781107
320.0193763
320.1221258
320.1790953
320.1729856
320.090344
319.9166596
319.6401735
319.2518202
318.746483
318.1232934
317.3857653
316.5414924
315.6015965
314.579991
313.4925939
312.3565704
311.1896393
310.0094838
308.8332939
307.6773922
306.5569171
305.4855539
304.4752767
303.5360983
302.6758275
301.8998592
301.2110308
300.6095863
300.0932808
299.6576389
299.2963553
299.0018039
298.7655975
298.5791347
298.4340785
298.3227254
298.2382467
298.1748046
298.1275612
298.0926174
298.0669038
298.0480518
298.034263
298.0241906
298.0168379
298.0114736
298.0075639
298.0047167
298.0026488
298.0011758
298.0001769
297.9995138
297.9990987
297.9992056
298.000062
320.9066172
320.7570147
320.9077301
321.0483922
321.1555882
321.2390007
321.2774872
321.2632376
321.1801629
321.0157505
320.7571649
320.3944202
319.9203993
319.331835
318.6294962
317.818197
316.9064443
315.905883
314.8305997
313.6964021
312.5201374
311.3190674
310.1103408
308.9105834
307.7355542
306.5998466
305.5166275
304.4973814
303.5516593
302.6868329
301.9078861
301.2172737
300.6148933
300.0981983
299.6624646
299.3011982
299.0066443
298.7703434
298.5836682
298.4382892
298.3265304
298.2415987
298.1776909
298.1299977
298.0946399
298.0685599
298.0493934
298.0353415
298.0250536
298.0175271
298.0120248
298.0080067
298.0050746
298.0029417
298.0014213
298.0003824
297.9996762
297.9992413
297.9993563
298.0001224
322.1019102
322.0223926
322.1343126
322.232839
322.2935355
322.3232298
322.3024253
322.222917
322.0698604
321.8316674
321.4970248
321.0575013
320.5076329
319.8456849
319.0737546
318.1976926
317.2267216
316.1728865
315.0503949
313.8749515
312.6631365
311.4318331
310.1977485
308.9770418
307.7850026
306.6357642
305.542051
304.5149225
303.5635208
302.6948253
301.9134444
301.2214797
300.6185064
300.1016956
299.6660909
299.3050223
299.0106169
298.7743506
298.5875751
298.4419719
298.3298944
298.2445861
298.1802792
298.1321931
298.0964692
298.0700624
298.0506139
298.0363251
298.0258423
298.0181583
298.0125308
298.0084141
298.0054048
298.0032133
298.0016502
298.0005734
297.9998275
297.999377
297.9994952
298.0001806
323.2030901
323.1404232
323.2197117
323.2795041
323.297919
323.2789366
323.2047356
323.0667739
322.8513735
322.5477876
322.1460321
321.6390098
321.0226456
320.2964749
319.4636831
318.5309646
317.5081239
316.4075334
315.2435037
314.0316632
312.7883824
311.5302416
310.2735916
309.0342113
307.8270021
306.6657116
305.5626861
304.5286155
303.5722796
302.7003034
301.9169509
301.2239968
300.620715
300.1040122
299.6687148
299.3079887
299.0138525
298.7777241
298.5909393
298.445193
298.3328696
298.2472497
298.1826007
298.1341711
298.0981232
298.0714249
298.0517233
298.037221
298.0265621
298.0187355
298.0129944
298.0087879
298.0057084
298.0034645
298.0018626
298.0007498
297.9999678
297.9995051
297.9996246
298.0002336
324.1719319
324.1217917
324.1715799
324.1964971
324.1772897
324.1151977
323.9939584