/*--------------------------------*- C++ -*----------------------------------*\
  =========                 |
  \\      /  F ield         | OpenFOAM: The Open Source CFD Toolbox
   \\    /   O peration     | Website:  https://openfoam.org
    \\  /    A nd           | Version:  12
     \\/     M anipulation  |
\*---------------------------------------------------------------------------*/
FoamFile
{
    format      ascii;
    class       volVectorField;
    location    "1050";
    object      U;
}
// * * * * * * * * * * * * * * * * * * * * * * * * * * * * * * * * * * * * * //

dimensions      [0 1 -1 0 0 0 0];

internalField   nonuniform List<vector> 
16200
(
(184.0859634 -7.285674711e-17 -1.499830331)
(219.5426281 3.516126035e-17 -1.426630732)
(239.4985411 -2.441352285e-20 -1.601677705)
(255.2149865 0 -1.774656432)
(269.7884318 0 -1.96434545)
(284.9084851 -2.523053848e-17 -2.193683548)
(300.7003087 2.885514996e-17 -2.513633317)
(313.3062365 6.222665237e-17 -2.894323364)
(317.0433665 -1.210768623e-16 -3.022576453)
(317.0358759 1.083753053e-16 -2.998373262)
(316.7215756 -4.612704861e-17 -3.053419964)
(316.4236317 0 -3.030861259)
(316.0554508 0 -3.092076894)
(315.6499473 -5.360793707e-17 -3.093135914)
(315.1724388 4.474183327e-17 -3.150478537)
(314.6252541 0 -3.180893183)
(313.9866142 0 -3.24383982)
(313.2451012 8.190211224e-19 -3.303877536)
(312.3803594 4.438434791e-17 -3.385755419)
(311.3728576 -3.604042877e-17 -3.478419789)
(310.1987838 0 -3.591240662)
(308.8323101 -2.489047494e-17 -3.722189661)
(307.244821 2.227300112e-17 -3.874241694)
(305.4058545 3.791007489e-17 -4.046178082)
(303.2842153 -3.184664911e-17 -4.235752673)
(300.8501795 -2.723899248e-17 -4.436505232)
(298.0791818 2.290209937e-17 -4.636968088)
(294.9573984 0 -4.818796785)
(291.4894882 0 -4.956080848)
(287.707823 5.730724274e-17 -5.016422013)
(283.6807654 -3.611624129e-17 -4.965610495)
(279.5150681 -1.039716763e-17 -4.776638947)
(275.3473561 0 -4.440687558)
(271.3244241 -4.587830328e-17 -3.974364084)
(267.5790478 5.150518248e-17 -3.418109509)
(264.2108079 -8.875417829e-17 -2.825795933)
(261.2775902 7.482874396e-17 -2.250632641)
(258.7972577 0 -1.733617997)
(256.7553451 0 -1.298140077)
(255.1148035 0 -0.9507226921)
(253.8253528 7.750059614e-17 -0.6855729151)
(252.8314265 -1.309768164e-16 -0.4901403578)
(252.0781786 1.10212528e-16 -0.349758329)
(251.5154951 0 -0.2506236728)
(251.1001344 1.56761312e-16 -0.1812240507)
(250.7964552 -1.318994711e-16 -0.1326997299)
(250.5760778 -4.948440059e-20 -0.09858162169)
(250.4170503 1.871094363e-16 -0.07432827374)
(250.3027572 -3.153102538e-16 -0.05682954464)
(250.2208434 2.655771102e-16 -0.04398483353)
(250.1622363 2.238928122e-16 -0.03438196676)
(250.1203295 3.777405818e-16 -0.02706878138)
(250.0903387 -3.188295608e-16 -0.02139578986)
(250.0687737 8.082208173e-16 -0.01691855145)
(250.0531233 -4.557864294e-16 -0.0133308843)
(250.0414482 0 -0.01042390689)
(250.0326518 1.638506977e-16 -0.007996845694)
(250.025541 0 -0.005961377415)
(250.0196916 -4.753436566e-16 -0.003624895432)
(250.0130885 -3.971171377e-19 -0.003754081848)
(188.2775968 -1.538094505e-16 -4.162231907)
(224.8690412 1.504330215e-16 -4.422921057)
(245.4142333 -5.442598059e-17 -4.919714689)
(261.5880368 -4.885588843e-17 -5.310993117)
(276.6688428 5.047365482e-17 -5.704795011)
(292.3721352 0 -6.15067521)
(308.2088455 0 -6.714806969)
(318.4191163 6.696175733e-17 -7.14765754)
(320.3815183 -6.253210501e-17 -7.233529315)
(320.2332814 0 -7.197170619)
(319.8993791 0 -7.264891354)
(319.5796466 0 -7.232599392)
(319.184652 -6.635768044e-17 -7.298736496)
(318.7479644 5.536742057e-17 -7.293690214)
(318.2316804 -1.419207985e-18 -7.350092862)
(317.6379311 -1.189270751e-18 -7.37499014)
(316.9427952 0 -7.43206732)
(316.1331769 -2.523289515e-18 -7.483356632)
(315.186473 0 -7.553544711)
(314.0806213 1.175420439e-18 -7.630833413)
(312.7890054 4.002234046e-18 -7.723430811)
(311.282672 -2.891265156e-17 -7.828330213)
(309.5297585 -1.744877652e-17 -7.946715082)
(307.4965985 3.862860696e-17 -8.075263687)
(305.1493391 0 -8.208557428)
(302.4569904 6.962186465e-18 -8.335844934)
(299.3964791 -1.184654233e-17 -8.439860418)
(295.9600631 0 -8.495101516)
(292.1651103 -3.469316563e-17 -8.467720488)
(288.0645789 1.447895733e-17 -8.318231672)
(283.7536665 -3.779683964e-17 -8.00909668)
(279.366005 1.076556665e-17 -7.517022404)
(275.0560746 -3.689981929e-17 -6.845315201)
(270.9728151 -1.573164891e-17 -6.028995722)
(267.2354429 0 -5.128540063)
(263.9204112 4.597456507e-17 -4.214910178)
(261.0610541 -3.875361341e-17 -3.352961665)
(258.6554502 0 -2.589645302)
(256.6768484 1.121305771e-16 -1.949644142)
(255.0830928 -9.48616326e-17 -1.437471264)
(253.8240128 8.016052912e-17 -1.043228042)
(252.8469763 2.706253117e-16 -0.7491537981)
(252.1009907 -1.13872826e-16 -0.5350573921)
(251.5395047 0 -0.3818790639)
(251.1220426 4.852829779e-16 -0.2734781821)
(250.8148368 -5.443770698e-16 -0.1971589133)
(250.5906448 -3.435545332e-16 -0.1434215947)
(250.4281076 3.854144191e-16 -0.1054150748)
(250.3108605 0 -0.07832094146)
(250.2265979 -2.727923423e-16 -0.0588019684)
(250.1661988 2.295336107e-16 -0.04456548929)
(250.1229704 5.796247926e-16 -0.03403902628)
(250.0920323 3.253722958e-16 -0.02613953716)
(250.0698195 -2.740687035e-16 -0.02011909954)
(250.0537219 9.239807905e-16 -0.0154643419)
(250.0417905 -7.793026786e-16 -0.01181757244)
(250.0327651 -4.933753919e-16 -0.008889648948)
(250.025577 5.558574382e-16 -0.00653803849)
(250.019651 1.058119098e-15 -0.003915131244)
(250.0125844 9.803955575e-17 -0.003889532361)
(192.3562296 -1.588966485e-19 -6.923601787)
(230.0704501 1.615561154e-16 -7.6866282)
(251.1944786 -2.363304856e-16 -8.492739295)
(267.8434951 1.075829038e-16 -9.129489858)
(283.4633527 1.130491918e-16 -9.759465327)
(299.6360103 -2.55643216e-16 -10.45793283)
(315.0140484 2.832971571e-16 -11.2718943)
(322.3734065 3.681075588e-19 -11.66982674)
(323.0930956 -2.636131523e-16 -11.73655911)
(322.8421171 1.146996782e-16 -11.68311736)
(322.4883536 0 -11.75895466)
(322.1422616 7.861434062e-17 -11.71199596)
(321.7120735 -6.553072721e-17 -11.77781475)
(321.2347833 -2.608421387e-18 -11.76242697)
(320.6692254 4.815974082e-17 -11.81209237)
(320.0170532 3.762682503e-18 -11.82700745)
(319.252167 -3.276964924e-17 -11.87318405)
(318.3595022 1.73140498e-18 -11.91183896)
(317.3140066 -4.649790832e-17 -11.96679358)
(316.0907488 3.653170487e-17 -12.02606481)
(314.6599519 -2.660515698e-20 -12.09619172)
(312.9891457 -2.098109669e-17 -12.17288522)
(311.0428934 1.753876418e-17 -12.2547357)
(308.7842729 0 -12.3352352)
(306.1773509 -4.243308678e-17 -12.40422264)
(303.1915575 7.000931546e-18 -12.44464695)
(299.8085985 3.68589813e-17 -12.43118248)
(296.0321422 2.129810581e-17 -12.32903009)
(291.8996492 1.839166369e-17 -12.09517998)
(287.4927588 -1.484553339e-17 -11.68417201)
(282.93908 1.943593969e-19 -11.05995767)
(278.3987275 -4.477451733e-17 -10.21111362)
(274.0369589 3.813921082e-17 -9.161764245)
(269.9940241 -9.82270875e-17 -7.970989397)
(266.3652305 2.765924226e-17 -6.720017485)
(263.1968029 0 -5.493364186)
(260.4940657 -8.06872476e-17 -4.361916703)
(258.2344443 -6.854558903e-17 -3.373036867)
(256.3793097 -1.602025829e-20 -2.548536005)
(254.8822573 4.906770865e-17 -1.888513645)
(253.6941883 -8.258290844e-17 -1.378097662)
(252.7664456 -6.972613256e-17 -0.9944834787)
(252.0529965 2.351229728e-16 -0.7126429369)
(251.5120105 2.97154488e-16 -0.5090854546)
(251.1069095 -1.66561512e-16 -0.3637896574)
(250.8068379 2.803193904e-16 -0.2608010268)
(250.5865818 5.890939487e-16 -0.1879935089)
(250.4261098 -3.961202742e-16 -0.1364672175)
(250.3098835 6.657225726e-16 -0.09985209989)
(250.2260875 -2.796785497e-16 -0.07366242938)
(250.165879 -4.698996826e-16 -0.05477090225)
(250.1227164 1.973305999e-16 -0.04100657398)
(250.0917979 -6.630525546e-16 -0.03086150773)
(250.069598 0 -0.02328760077)
(250.0535178 -1.871152888e-15 -0.01756144203)
(250.0416273 7.85836918e-16 -0.01317739081)
(250.0326161 3.300421758e-16 -0.00975215155)
(250.0254845 -1.386141692e-16 -0.007083595894)
(250.0196634 -9.315526216e-16 -0.004137857822)
(250.0126114 0 -0.004021867103)
(196.1196775 -3.43631358e-16 -9.812483986)
(234.8240026 -1.694168476e-19 -11.18504895)
(256.4644336 0 -12.29362861)
(273.6173928 1.162098256e-19 -13.19761444)
(289.8441983 -1.271524693e-16 -14.08901959)
(306.3335537 1.43419976e-16 -15.06319669)
(320.2732741 -3.014876309e-19 -16.04569896)
(324.9572651 -5.977950191e-19 -16.32402023)
(325.0399356 1.06312622e-18 -16.38838787)
(324.7609105 1.156715854e-16 -16.31568654)
(324.3815268 -9.745499415e-17 -16.40185993)
(324.0048721 1.276295998e-18 -16.34270144)
(323.5354054 -6.80372289e-17 -16.40975323)
(323.0122425 5.86058845e-17 -16.38744918)
(322.3909664 4.771532602e-17 -16.43276275)
(321.6723015 -4.242775896e-17 -16.44112199)
(320.8278239 -4.187638598e-18 -16.47908042)
(319.8401224 0 -16.50765021)
(318.6814454 0 -16.54884252)
(317.3236863 0 -16.59033117)
(315.7336743 -3.815608148e-17 -16.63641555)
(313.8753224 1.416726057e-17 -16.68103921)
(311.7098533 3.63824854e-17 -16.71944623)
(309.1979772 -2.039972051e-17 -16.74081425)
(306.3036135 2.61470205e-17 -16.72873548)
(303.0000047 1.481796161e-17 -16.65815141)
(299.2788896 -2.543454708e-17 -16.49412249)
(295.1626354 2.139730802e-17 -16.19173186)
(290.7171519 -1.841644632e-17 -15.69993569)
(286.059064 -3.038034716e-19 -14.97183743)
(281.3483791 2.680792469e-17 -13.98087505)
(276.7634092 4.619354121e-17 -12.73637882)
(272.4663688 0 -11.28925032)
(268.5750895 6.748420201e-17 -9.723419889)
(265.1518232 0 -8.137082469)
(262.2091647 0 -6.622293663)
(259.7252947 2.082412955e-16 -5.25005338)
(257.6598628 3.517591837e-17 -4.063640492)
(255.9655124 2.392006971e-16 -3.079265586)
(254.594174 5.057339641e-17 -2.291414753)
(253.4996806 5.543496824e-16 -1.680127689)
(252.6386614 -2.156606511e-16 -1.218080614)
(251.9710255 -1.211489104e-16 -0.8762127839)
(251.4604721 -9.171802136e-16 -0.6274416098)
(251.0750157 -1.739385098e-19 -0.4486018847)
(250.7873178 7.201426941e-16 -0.321062914)
(250.5746995 6.05065828e-16 -0.2304982379)
(250.4188675 -1.117659775e-15 -0.1662540746)
(250.3054285 -5.117193644e-16 -0.1206033791)
(250.2232969 2.862441184e-16 -0.08803608422)
(250.1640824 -1.200302232e-15 -0.06466714379)
(250.1215191 0 -0.04777379435)
(250.0909705 1.349438263e-15 -0.03545110719)
(250.0690099 1.130397535e-15 -0.02636746298)
(250.0530937 9.464182225e-16 -0.01959843927)
(250.0413291 0 -0.01449656837)
(250.0323907 6.621705606e-16 -0.01058502953)
(250.025331 6.915505035e-17 -0.007617669556)
(250.0196071 -2.078036807e-15 -0.00437085597)
(250.0124764 3.17485078e-15 -0.004160038003)
(199.5086647 -7.277822334e-16 -12.87634666)
(239.1147606 3.731788138e-16 -14.87991717)
(261.2259922 -1.407371293e-16 -16.31005413)
(278.8632329 -6.473378929e-22 -17.50331901)
(295.7060549 0 -18.68160143)
(312.3750592 3.140949167e-19 -19.95247225)
(323.7182533 3.150945704e-21 -20.96369161)
(326.4092823 0 -21.10792213)
(326.2397289 -2.203503744e-18 -21.18920019)
(325.9413105 -1.183112077e-16 -21.09897804)
(325.5273466 9.938613048e-17 -21.19584172)
(325.1136888 0 -21.12610992)
(324.5976415 -7.167341345e-17 -21.19377838)
(324.0200624 -1.949522934e-18 -21.16550929)
(323.3334694 4.563473689e-17 -21.20522902)
(322.5372206 -8.196337049e-17 -21.20610167)
(321.6005214 7.29426999e-17 -21.23344803)
(320.5032332 3.614830922e-18 -21.24907003)
(319.2146418 0 -21.27258408)
(317.7031362 4.123703304e-17 -21.29143314)
(315.9319858 -4.328262621e-17 -21.3071472)
(313.8616399 3.684205605e-17 -21.31108283)
(311.4507386 -3.720708455e-17 -21.29380176)
(308.6593157 0 -21.23842937)
(305.4541386 -1.794346752e-17 -21.12043489)
(301.8170038 0 -20.90499485)
(297.75656 2.63170235e-17 -20.54636836)
(293.3224474 -2.214179157e-17 -19.98993858)
(288.6167422 0 -19.18034147)
(283.7933709 0 -18.07707263)
(279.0382373 0 -16.67307409)
(274.533805 0 -15.00646862)
(270.4232953 0 -13.15761799)
(266.7901705 1.054218775e-16 -11.2323473)
(263.658314 -1.491964739e-16 -9.339514156)
(261.0071118 1.015390594e-16 -7.571859994)
(258.791186 -1.716732784e-16 -5.99491887)
(256.9567608 -1.822399332e-16 -4.644197463)
(255.451451 -9.203178482e-17 -3.528352497)
(254.2281038 -1.558283043e-16 -2.635602398)
(253.2450661 -5.698547282e-16 -1.941092644)
(252.4651705 -2.955711707e-16 -1.413650214)
(251.8548389 4.356892112e-16 -1.021048832)
(251.3837322 8.373187422e-16 -0.7334884034)
(251.0248486 -7.038240441e-16 -0.525432217)
(250.75474 -7.389025754e-16 -0.3761973689)
(250.5536105 -8.683494168e-16 -0.2697277455)
(250.4052136 1.040699417e-15 -0.1939536602)
(250.296561 1.221659841e-15 -0.1400237392)
(250.217505 -1.462501109e-16 -0.1015588434)
(250.1602697 1.347165151e-15 -0.07401725622)
(250.1189862 -1.844910537e-15 -0.05418904848)
(250.0892724 -2.914292281e-15 -0.03981325328)
(250.0678639 -1.002677408e-15 -0.02930046446)
(250.0523214 0 -0.02154111052)
(250.0408168 1.595117076e-15 -0.01575606025)
(250.0320472 -4.980878262e-16 -0.01137880589)
(250.0251072 -2.070572674e-16 -0.008126752143)
(250.0195246 1.832991209e-15 -0.004600191952)
(250.012381 -3.03412974e-15 -0.004296708874)
(202.4001884 1.879869522e-19 -16.08895321)
(242.8332282 0 -18.7521664)
(265.3843917 1.504857816e-19 -20.52061335)
(283.5081956 -1.450441539e-19 -22.0265941)
(300.9180047 -3.144894073e-19 -23.51780822)
(317.4040226 0 -25.07433245)
(325.7975907 7.042031732e-19 -25.97834681)
(327.0143439 -1.302984635e-18 -26.0089694)
(326.6582132 1.13137999e-18 -26.10562107)
(326.3467739 -9.516698935e-19 -25.99625805)
(325.8870771 0 -26.10071397)
(325.4316736 8.490811716e-17 -26.01917908)
(324.8638125 -7.090300378e-17 -26.08284453)
(324.2251435 6.140985255e-17 -26.04634488)
(323.4652898 -4.981307536e-17 -26.07667128)
(322.5815925 5.24153526e-18 -26.06745215)
(321.5407315 0 -26.0810967)
(320.3194115 -6.319376376e-17 -26.08081383)
(318.8837839 4.987073719e-17 -26.08284449)
(317.1987069 -1.05770705e-17 -26.07369851)
(315.2242302 8.918473948e-18 -26.05091139)
(312.9181914 0 -26.00183386)
(310.2382524 0 -25.91079825)
(307.1464916 0 -25.75324387)
(303.6168452 0 -25.49496553)
(299.6460922 -6.370526194e-17 -25.09015161)
(295.2682334 -3.910743834e-19 -24.48228312)
(290.5686965 -2.325051323e-17 -23.61003023)
(285.689945 2.754144875e-19 -22.42107441)
(280.8186465 1.683742911e-17 -20.8919164)
(276.1528493 -2.929892291e-17 -19.04472175)
(271.8612735 1.247428576e-16 -16.95083808)
(268.0531127 -8.535085936e-17 -14.7178711)
(264.769612 -7.22006677e-17 -12.46677671)
(261.9957002 1.228557372e-16 -10.30914679)
(259.6816261 -1.043277606e-16 -8.331805493)
(257.7641788 0 -6.590464469)
(256.1814552 -1.879645846e-16 -5.110564178)
(254.8799828 -2.853443201e-16 -3.892383095)
(253.8160058 1.068459853e-16 -2.917949274)
(252.9537168 1.065259365e-19 -2.158087208)
(252.262755 2.655270374e-16 -1.578582175)
(251.7162899 -5.1062027e-16 -1.144915855)
(251.2900457 4.295328511e-16 -0.8254012927)
(250.9620904 1.442610517e-15 -0.5928546362)
(250.7129799 1.514003782e-16 -0.4251314752)
(250.5259393 -1.269237028e-16 -0.304901258)
(250.3869155 0 -0.2190144289)
(250.2844647 -1.6044796e-15 -0.157734124)
(250.2095006 1.491916519e-16 -0.113977068)
(250.1549631 2.246043744e-15 -0.0826561669)
(250.1154602 3.127516352e-15 -0.06014818445)
(250.0869252 4.176337705e-15 -0.0438845976)
(250.0663017 0 -0.03204980528)
(250.0512881 0 -0.02336950369)
(250.0401431 -1.605605147e-15 -0.01694606067)
(250.0316104 1.664866613e-16 -0.01213017707)
(250.0248234 -2.756070243e-16 -0.00860922226)
(250.0194015 -1.820461359e-15 -0.004822270102)
(250.0122455 -5.849502508e-18 -0.004430996454)
(204.7497086 -1.994976836e-19 -19.43209099)
(245.9784779 2.170131773e-16 -22.7804928)
(268.9698508 -3.389189006e-16 -24.91173845)
(287.6382416 1.653285278e-16 -26.75938021)
(305.5610602 3.526724263e-19 -28.60169252)
(320.9836811 1.924137936e-16 -30.3497615)
(326.6307119 -1.90219758e-16 -31.04786638)
(327.0892623 1.34910238e-18 -30.9829827)
(326.3371272 -1.468783169e-16 -31.08295458)
(326.0329327 1.239270209e-16 -30.9477912)
(325.496601 -1.620779736e-18 -31.05620404)
(324.9919424 0 -30.96607117)
(324.3638231 -3.794468152e-21 -31.02609777)
(323.6536739 -3.809497521e-18 -30.98409426)
(322.8085682 3.191369639e-18 -31.00569938)
(321.8233018 3.228232807e-17 -30.98703655)
(320.6621157 -3.604750205e-17 -30.98564783)
(319.2984438 0 -30.96621746)
(317.6954762 6.442342704e-18 -30.94058836)
(315.8148668 -3.27445587e-17 -30.89364206)
(313.6141209 3.656789737e-17 -30.81806109)
(311.0497298 1.564117567e-17 -30.69611917)
(308.0806542 0 -30.50462031)
(304.6748619 -2.263027403e-17 -30.20976109)
(300.8193875 0 -29.76627424)
(296.5340795 -3.791292719e-19 -29.11695603)
(291.8871575 2.789287653e-17 -28.19672152)
(287.0056922 4.777091814e-17 -26.94406755)
(282.070399 -4.093501177e-17 -25.32035407)
(277.288426 0 -23.33019502)
(272.851285 0 -21.03148125)
(268.8962923 9.795174559e-19 -18.52798217)
(265.4879358 -7.078771837e-19 -15.94781202)
(262.6229604 3.752297778e-17 -13.41809824)
(260.2511692 -1.589784888e-16 -11.0452805)
(258.3001953 -2.697636532e-17 -8.904964283)
(256.6955323 2.052645882e-16 -7.040287676)
(255.3723199 -2.706501552e-16 -5.4656891)
(254.2794462 2.599762824e-16 -4.173174353)
(253.3784958 2.751512073e-17 -3.1391866)
(252.6403774 -9.237974108e-17 -2.331032752)
(252.0417662 3.884643542e-17 -1.712307956)
(251.5625058 6.543029717e-17 -1.247024756)
(251.1842256 -9.339207151e-16 -0.9023576806)
(250.8899312 -7.379936544e-16 -0.650121436)
(250.6641147 0 -0.4672410782)
(250.4930155 1.037972966e-15 -0.3355282307)
(250.3648101 0 -0.2410683017)
(250.2696577 0 -0.1734686993)
(250.1995985 0 -0.1251051288)
(250.1483495 -4.18961958e-15 -0.0904583405)
(250.1110493 -1.588520566e-15 -0.0655690647)
(250.0839893 -2.823012003e-15 -0.04761331949)
(250.0643555 -2.494820934e-15 -0.0345841698)
(250.0500093 -1.827703669e-15 -0.02506576631)
(250.0393156 0 -0.01805714319)
(250.0310828 0 -0.01283531556)
(250.0244827 1.376021714e-16 -0.00906296757)
(250.0192456 1.809388007e-15 -0.005035007488)
(250.0120963 -1.1564129e-17 -0.004562718213)
(206.5276872 2.120971109e-19 -22.92449643)
(248.5512693 0 -26.9389321)
(272.0307948 1.82273792e-19 -29.48073013)
(291.3136588 -1.005530253e-21 -31.70167098)
(309.6288751 -2.004150815e-16 -33.93425075)
(322.8338485 2.08980504e-16 -35.67459913)
(326.1573788 0 -36.12150683)
(325.7269854 0 -35.98542811)
(325.312213 1.502206434e-16 -36.11197846)
(324.9194208 2.085856603e-19 -35.96338028)
(324.3864361 -1.056890762e-16 -36.07577119)
(323.8231728 0 -35.97814661)
(323.1247952 2.316350392e-18 -36.03030945)
(322.3314637 6.628037875e-17 -35.9795682)
(321.3881619 -5.55172324e-17 -35.9865118)
(320.2866719 5.492251171e-18 -35.95171178)
(318.9889034 -4.652462874e-18 -35.92638435)
(317.464901 7.849541607e-18 -35.87682675)
(315.675025 -5.295376265e-17 -35.80984887)
(313.5781195 -3.85339044e-19 -35.70797683)
(311.1301542 8.517729377e-17 -35.55795915)
(308.2883427 -4.790946986e-17 -35.33537261)
(305.0165549 0 -35.00768988)
(301.2942133 -2.853176487e-19 -34.53022787)
(297.1290692 1.968973437e-17 -33.84603926)
(292.5728458 3.375079652e-17 -32.88818865)
(287.7350043 0 -31.58867916)
(282.7845859 0 -29.89598655)
(277.9306007 -2.150635477e-17 -27.79712043)
(273.3822571 1.812174625e-17 -25.33335611)
(269.3047276 0 -22.5994111)
(265.7901464 -1.329066215e-16 -19.725326)
(262.8536915 1.357492868e-16 -16.84995662)
(260.4506419 -1.919144192e-17 -14.09728142)
(258.5026731 -6.810052247e-19 -11.56203631)
(256.9224478 -2.218420759e-16 -9.305168376)
(255.6305466 -4.446323623e-16 -7.35613958)
(254.5636327 4.137043015e-16 -5.718619282)
(253.6756494 -3.328122591e-17 -4.377146875)
(252.9348492 0 -3.303531321)
(252.3192788 -4.733380256e-17 -2.462475898)
(251.8125616 -5.971145165e-16 -1.816211399)
(251.4009076 0 -1.328013367)
(251.071504 0 -0.9645575064)
(250.8120026 -7.541334505e-16 -0.6972031133)
(250.6106282 0 -0.5023967179)
(250.4565147 -9.265505857e-16 -0.3614526082)
(250.340013 1.661746166e-15 -0.2599694054)
(250.2528735 -9.261812092e-17 -0.187106705)
(250.1882743 -2.397529579e-15 -0.1348504324)
(250.1407329 2.193145949e-15 -0.09735674552)
(250.1059441 -3.545949384e-15 -0.0704055072)
(250.0805819 0 -0.05096908812)
(250.0620952 2.373403102e-15 -0.03688465294)
(250.0485253 5.89772779e-15 -0.02661885131)
(250.0383564 0 -0.01908337806)
(250.0304746 1.67317757e-16 -0.01349197851)
(250.0240898 -1.374306756e-16 -0.009487445079)
(250.0190566 1.799635881e-15 -0.005238877974)
(250.0119235 5.871413231e-15 -0.004692170841)
(207.7117989 -9.217220857e-16 -26.52308563)
(250.5302333 2.545143694e-16 -31.2165582)
(274.5993047 -2.008747342e-19 -34.21548001)
(294.5274996 4.024835539e-19 -36.84737217)
(312.8713283 4.278195277e-19 -39.47101557)
(323.3587618 -2.210627225e-16 -40.97407626)
(324.4210891 2.058085425e-16 -41.21986755)
(324.1403014 0 -41.04829199)
(323.6110168 1.533940321e-16 -41.20052618)
(323.1860454 2.381979959e-19 -41.03190181)
(322.5841962 -1.062983879e-16 -41.14073471)
(321.9553827 0 -41.03094608)
(321.1787608 2.383591194e-18 -41.06800052)
(320.292358 0 -41.00273739)
(319.2394757 -2.49903738e-20 -40.98698336)
(318.0083272 0 -40.92731684)
(316.5585239 -3.821652427e-17 -40.86735519)
(314.8566968 -1.511582208e-19 -40.77461022)
(312.8608029 2.028193184e-17 -40.6498635)
(310.5279337 4.619616471e-17 -40.47185504)
(307.8145818 -4.847691195e-17 -40.21977527)
(304.6821128 -1.668954556e-17 -39.86067251)
(301.104387 -2.840114603e-17 -39.35130524)
(297.0791726 2.386742036e-17 -38.6355963)
(292.6432316 2.07272974e-17 -37.64627467)
(287.8877964 1.807877524e-17 -36.31140634)
(282.9661532 0 -34.56934819)
(278.0822447 -5.211885368e-17 -32.39078366)
(273.4563579 8.920574472e-17 -29.79870744)
(269.2786945 5.718592356e-17 -26.87443882)
(265.6712758 1.460339744e-16 -23.74464191)
(262.6735818 1.106011248e-16 -20.55553896)
(260.2530891 0 -17.44604393)
(258.330682 0 -14.52895058)
(256.8084961 1.003748424e-16 -11.88285089)
(255.5917689 2.551018578e-16 -9.552544159)
(254.6016646 1.915956742e-16 -7.554108145)
(253.7798182 3.234086278e-16 -5.88151013)
(253.087055 5.462971348e-16 -4.513046403)
(252.4990018 4.599842348e-16 -3.416993282)
(252.0008638 -4.837951238e-17 -2.556361434)
(251.5828735 6.908558881e-16 -1.892760422)
(251.2371342 -1.093065679e-15 -1.38934585)
(250.9559256 -5.734253017e-17 -1.012816308)
(250.731157 8.171604205e-16 -0.734517399)
(250.5544989 -8.057448902e-17 -0.5307857598)
(250.4177871 6.741890288e-17 -0.3827373471)
(250.3134316 -3.608914288e-15 -0.2757197114)
(250.2347118 0 -0.1986248631)
(250.175918 2.514718095e-15 -0.143183121)
(250.1323623 -2.095001422e-15 -0.1033236747)
(250.1003002 6.969910614e-15 -0.07463524032)
(250.0767976 -1.808345998e-16 -0.05393558666)
(250.0595764 -2.247241421e-15 -0.03894018108)
(250.0468672 -3.83843273e-15 -0.02802179731)
(250.0372824 -3.367802481e-15 -0.02002075364)
(250.0297933 0 -0.01409856547)
(250.0236484 0 -0.009882006729)
(250.0188371 -3.582161918e-15 -0.005433852453)
(250.01173 -5.806322108e-15 -0.00481918257)
(208.3763717 6.786719031e-20 -30.21431061)
(252.0388026 -2.770714726e-16 -35.62563061)
(276.7757927 0 -39.12822843)
(297.3158748 4.519680481e-19 -42.22064083)
(314.9004154 -9.397336787e-19 -45.12395978)
(322.4704389 0 -46.21954016)
(322.2460863 -2.125049777e-16 -46.35761677)
(321.8395299 1.842020009e-16 -46.14530547)
(321.2866271 -1.246021082e-18 -46.30174506)
(320.8082906 0 -46.11567466)
(320.1455186 3.467707033e-18 -46.21572542)
(319.4416994 9.274398571e-17 -46.09411803)
(318.576731 -2.153346605e-18 -46.11116843)
(317.5851221 2.659486652e-19 -46.02697611)
(316.4089322 -5.834346746e-17 -45.98135819)
(315.0324342 0 -45.8877201)
(313.4132208 4.86280916e-18 -45.78089134)
(311.514984 -8.213594953e-18 -45.62866735)
(309.2943712 -2.806254664e-17 -45.42464038)
(306.7086267 1.162364813e-17 -45.14218888)
(303.7177332 2.022300058e-17 -44.75159679)
(300.2915425 4.098475539e-21 -44.21021151)
(296.4198646 0 -43.4637165)
(292.1263806 2.509585368e-17 -42.44562955)
(287.4847218 4.304643353e-19 -41.08212217)
(282.6300921 -1.812567489e-17 -39.30430922)
(277.7556252 0 -37.06881314)
(273.0854922 1.071725977e-16 -34.38023162)
(268.8299411 -1.140651403e-16 -31.30335173)
(265.1406637 -5.835808584e-17 -27.95655439)
(262.0857625 -1.326815732e-16 -24.48866216)
(259.6515255 1.522982722e-17 -21.05028242)
(257.7643393 -3.608990763e-17 -17.77074991)
(256.3200191 -3.065412816e-16 -14.74594744)
(255.2098832 -2.934609874e-16 -12.03617852)
(254.3383319 -1.895147192e-16 -9.670287543)
(253.6313669 3.687664893e-16 -7.652261802)
(253.0379457 3.52128762e-16 -5.967922556)
(252.5267962 -1.132881732e-15 -4.590719415)
(252.0811043 -4.397929016e-16 -3.486500355)
(251.692945 -2.465865256e-17 -2.617414446)
(251.3586491 -4.148628905e-17 -1.945078455)
(251.075645 1.113958469e-15 -1.433022313)
(250.8407763 9.056767684e-16 -1.048373707)
(250.6497723 4.895407465e-17 -0.7628066481)
(250.4974168 0 -0.5528363266)
(250.3780135 -2.195627312e-15 -0.3996187733)
(250.2858766 1.834526962e-15 -0.2884426303)
(250.2157203 -9.570311967e-17 -0.2080827264)
(250.162893 -1.10334616e-20 -0.150128346)
(250.123474 1.990543804e-16 -0.1083669345)
(250.0942679 -3.638625131e-15 -0.07825820137)
(250.0727294 0 -0.05650987334)
(250.0568549 2.570231087e-15 -0.04074736173)
(250.045067 -1.247037329e-16 -0.0292717732)
(250.0361108 3.281491456e-15 -0.0208672817)
(250.0290469 -2.689031678e-15 -0.01465424251)
(250.0231625 0 -0.01024630953)
(250.0185883 3.567245433e-15 -0.005619886685)
(250.0115145 5.759114011e-15 -0.00494356219)
(208.5635435 -5.213727794e-16 -33.99318758)
(253.1595846 -3.027026364e-16 -40.16897388)
(278.6315477 2.531613789e-16 -44.22712986)
(299.7481853 -4.959933293e-19 -47.83913573)
(315.5127211 -2.576834286e-16 -50.7585151)
(319.6869903 4.863716774e-16 -51.37656153)
(319.3912794 -2.178371008e-16 -51.49245725)
(318.9862108 1.469897904e-18 -51.26652106)
(318.3800162 -1.580135716e-16 -51.43215341)
(317.8438208 -3.108036494e-19 -51.22472653)
(317.1091048 1.091984583e-16 -51.30687599)
(316.3203464 -9.784661983e-17 -51.16778788)
(315.3560583 7.942459794e-17 -51.15575777)
(314.2462469 0 -51.0435494)
(312.9323183 -4.951102915e-17 -50.95631362)
(311.3946294 9.506832703e-17 -50.81429502)
(309.5894251 -2.98817416e-17 -50.6423641)
(307.4784354 3.408686575e-17 -50.40729618)
(305.0185675 -2.860533397e-17 -50.09445582)
(302.1696445 -2.471982523e-17 -49.67051091)
(298.8987327 2.060035601e-17 -49.09592867)
(295.1893438 1.783212567e-17 -48.3177537)
(291.0541696 0 -47.27114016)
(286.5507208 0 -45.88200769)
(281.7954412 -4.374803038e-17 -44.07678232)
(276.9664583 -3.817085695e-17 -41.80080482)
(272.2849889 0 -39.04148884)
(267.9749061 -1.108936826e-16 -35.84546991)
(264.2148793 -9.539859784e-17 -32.31871413)
(261.1038656 2.026827911e-17 -28.60784591)
(258.6526829 1.209819617e-16 -24.87135999)
(256.7999085 -1.015011715e-16 -21.25303319)
(255.4405545 -1.857449805e-16 -17.86538067)
(254.4552261 3.122983812e-16 -14.78429905)
(253.7322079 2.815009611e-16 -12.051692)
(253.1802316 2.376006939e-16 -9.681868136)
(252.7330669 -4.258138691e-16 -7.668603109)
(252.3483407 -3.165368422e-16 -5.991317434)
(252.0030361 5.685737582e-16 -4.619997778)
(251.6876845 -2.992675603e-17 -3.519070234)
(251.4007315 8.30145671e-16 -2.650528334)
(251.1439967 4.225567705e-17 -1.97649756)
(250.9196234 2.238325758e-20 -1.461257951)
(250.7284735 -9.808656373e-16 -1.072667553)
(250.5696463 -4.982107726e-17 -0.7829821214)
(250.4406921 -1.455364682e-20 -0.5691121516)
(250.3381297 4.496521777e-15 -0.4124370118)
(250.258004 0 -0.2983378866)
(250.1963501 -9.71039642e-17 -0.2155939844)
(250.1495035 1.617054816e-16 -0.155748396)
(250.1142691 2.083575077e-15 -0.1125189625)
(250.087977 0 -0.08129008119)
(250.0684588 0 -0.05869866838)
(250.05398 -1.524724087e-16 -0.04230842592)
(250.0431532 4.142501042e-15 -0.03036899619)
(250.0348571 1.030077527e-16 -0.0216224655)
(250.0282428 2.610431408e-15 -0.01515869428)
(250.0226354 -1.096767701e-15 -0.01058013488)
(250.0183118 -1.777171264e-15 -0.005796839989)
(250.011277 -5.739980952e-15 -0.005064951719)
(208.2837699 0 -37.85631963)
(253.9584329 6.440323286e-19 -44.85779559)
(280.1701749 0 -49.53277241)
(301.5933099 -2.791550962e-16 -53.67202781)
(314.8576638 7.736187247e-19 -56.33465329)
(316.6882348 5.050994235e-16 -56.56133113)
(316.0205034 -2.231917466e-16 -56.67290191)
(315.5921452 -1.921968026e-16 -56.39357538)
(314.9287466 -2.91892982e-18 -56.56060954)
(314.3248084 1.393961013e-16 -56.3347155)
(313.5100221 0 -56.39263305)
(312.6252533 1.000368458e-16 -56.23203117)
(311.5500075 -8.639016345e-17 -56.18234252)
(310.30901 6.873266398e-17 -56.03175646)
(308.8437306 -5.033882165e-17 -55.88852151)
(307.1308411 0 -55.67933921)
(305.1259389 -1.023769378e-17 -55.4185735)
(302.7899068 -3.50566878e-17 -55.070916)
(300.0817853 -3.197880298e-19 -54.61281792)
(296.9670805 6.273341833e-17 -54.00306437)
(293.4246227 -2.124091589e-17 -53.19165051)
(289.4580998 -1.808615691e-17 -52.11537078)
(285.1109331 1.570581968e-17 -50.70095056)
(280.4813761 -1.321331343e-17 -48.87239345)
(275.7301111 6.916464471e-17 -46.56665149)
(271.0695267 -2.010839729e-17 -43.75612394)
(266.7300567 -8.44365883e-17 -40.46906332)
(262.9125907 8.543806294e-17 -36.79610308)
(259.7467309 7.265937003e-17 -32.87717245)
(257.2719747 -1.05069665e-17 -28.87449867)
(255.4454695 -1.052543725e-16 -24.9436227)
(254.1676777 -1.199920402e-16 -21.2125854)
(253.313071 1.890662429e-16 -17.77280733)
(252.7561011 1.712497823e-16 -14.67955431)
(252.3882534 0 -11.95773799)
(252.1262204 0 -9.609281905)
(251.9132662 -4.097093845e-16 -7.619855231)
(251.7162141 3.447886795e-16 -5.964191465)
(251.5201575 5.981200907e-16 -4.610066425)
(251.3224914 -5.027847196e-16 -3.521338601)
(251.1274096 -1.61215474e-15 -2.660410311)
(250.9415719 6.662328613e-16 -1.990293518)
(250.7712273 1.189806952e-15 -1.476287982)
(250.620724 -3.020627754e-17 -1.087193198)
(250.4920938 0 -0.7960248076)
(250.3853124 4.233818474e-17 -0.5802443781)
(250.2988607 -2.299184519e-15 -0.4215902359)
(250.2303345 5.904703514e-17 -0.3056515854)
(250.1769673 -4.919978749e-17 -0.221307375)
(250.1360018 0 -0.1601308486)
(250.1049173 0 -0.1158296905)
(250.0815389 1.127116487e-16 -0.08375816978)
(250.0640568 2.981920989e-15 -0.06051603317)