/*--------------------------------*- C++ -*----------------------------------*\
  =========                 |
  \\      /  F ield         | OpenFOAM: The Open Source CFD Toolbox
   \\    /   O peration     | Website:  https://openfoam.org
    \\  /    A nd           | Version:  12
     \\/     M anipulation  |
\*---------------------------------------------------------------------------*/
FoamFile
{
    format      ascii;
    class       volScalarField;
    location    "50";
    object      k;
}
// * * * * * * * * * * * * * * * * * * * * * * * * * * * * * * * * * * * * * //

dimensions      [0 2 -2 0 0 0 0];

internalField   nonuniform List<scalar> 
16200
(
308.716883
366.4237655
367.8430327
374.0667077
369.0713153
332.3590257
237.4192897
106.6422913
19.88665742
0.9256078292
0.03419970012
0.01802434638
0.005932466698
0.001239769558
0.001028256465
0.001000658404
0.0009909776538
0.0009854317286
0.0009822418403
0.0009804291112
0.0009794833339
0.0009790817417
0.0009791190473
0.0009794799301
0.0009800771761
0.0009808815301
0.0009818698339
0.0009830018857
0.0009842335084
0.0009855146873
0.0009867955771
0.000988026569
0.0009891634056
0.0009901700934
0.0009910246959
0.0009917134908
0.000992230756
0.0009925660654
0.0009927026108
0.000992605387
0.0009922199603
0.0009914670134
0.0009902349725
0.0009883396933
0.0009858957009
0.000984563854
0.0009839480836
0.0009836585926
0.00098352309
0.000983468617
0.0009834688114
0.0009835212173
0.0009836370279
0.0009838400391
0.0009841658637
0.0009846696623
0.0009854313992
0.0009865801637
0.0009883287653
0.0009910995494
323.6432576
381.1052985
379.3640137
381.0899411
367.1940378
312.3827732
196.6125598
68.02589814
9.500050848
0.3046296564
0.03143151533
0.01728521148
0.004927409064
0.001210225488
0.001021441891
0.0009964138915
0.0009877699979
0.0009829107108
0.0009801998409
0.0009787294792
0.0009780491874
0.0009778576021
0.0009780796189
0.0009786141869
0.0009793707981
0.000980322671
0.0009814470119
0.0009826976244
0.0009840270922
0.0009853814278
0.00098670828
0.0009879588705
0.0009890946658
0.0009900870364
0.0009909207707
0.0009915879211
0.0009920875202
0.0009924126806
0.0009925490732
0.0009924635732
0.0009921037767
0.0009913932567
0.0009902300603
0.0009884641438
0.0009860304609
0.0009846631523
0.0009840332115
0.000983741139
0.0009836086763
0.000983559972
0.0009835667303
0.0009836256793
0.0009837468015
0.0009839534794
0.0009842800343
0.0009847813307
0.0009855370049
0.0009866785589
0.0009884270639
0.0009912384173
340.5597939
397.5942216
391.4714199
386.7538805
360.6477973
283.1182192
150.5590611
38.42052988
4.172382873
0.1268102394
0.0308368062
0.01641966274
0.004108018313
0.001181597024
0.001015035811
0.0009925369985
0.0009848814215
0.0009806774258
0.0009784174304
0.0009772728445
0.0009768529548
0.0009768736481
0.0009772823643
0.0009779922356
0.0009789095951
0.0009800079984
0.0009812630389
0.0009826241103
0.0009840384495
0.0009854473026
0.0009867980697
0.0009880449182
0.0009891567928
0.0009901126355
0.0009909053768
0.0009915339111
0.0009920009666
0.0009923032374
0.0009924278994
0.0009923438433
0.0009919994737
0.0009913198142
0.0009902076614
0.000988535307
0.0009861445134
0.0009847512519
0.0009841112329
0.0009838177794
0.0009836887247
0.000983645536
0.0009836589866
0.000983724226
0.0009838512121
0.0009840616608
0.0009843902483
0.0009848901073
0.0009856418746
0.0009867778782
0.0009885266801
0.00099137565
358.8642889
415.1863004
403.2598811
389.4148102
346.7851882
243.6444546
104.4847805
21.42938046
1.833725158
0.0790059125
0.03014307711
0.01529271417
0.003438956758
0.001154075761
0.001009114358
0.0009890949996
0.0009823758824
0.0009787902222
0.0009769533169
0.0009761150749
0.000975943777
0.0009761690129
0.0009767583513
0.0009776377152
0.0009787106097
0.000979947825
0.0009813230228
0.0009827789809
0.0009842579826
0.0009856978508
0.000987047303
0.0009882656767
0.000989330325
0.0009902296922
0.000990964673
0.0009915403669
0.0009919631611
0.0009922322609
0.0009923361443
0.0009922449034
0.0009919075392
0.0009912495184
0.0009901751068
0.0009885580513
0.0009862356589
0.0009848279562
0.0009841824706
0.0009838894852
0.0009837642623
0.0009837267492
0.0009837466382
0.0009838183834
0.0009839512293
0.0009841662707
0.0009844974012
0.0009849972103
0.000985746187
0.0009868781699
0.0009886280478
0.0009915118502
378.4843882
434.2340371
414.4028497
387.5341786
322.9285586
195.2651513
62.68810052
10.42747934
0.7753332445
0.06507136363
0.02915264885
0.01394506433
0.00290019286
0.001128273678
0.001003714372
0.0009860820409
0.0009802470992
0.0009772451003
0.0009758079295
0.000975261042
0.0009753295809
0.0009757541968
0.0009765196098
0.0009775638547
0.0009787861959
0.0009801527564
0.0009816337062
0.0009831643839
0.0009846828557
0.0009861254194
0.0009874449422
0.0009886080804
0.0009896024745
0.0009904262878
0.0009910883331
0.0009915990814
0.000991967804
0.0009921953061
0.0009922708197
0.000992165151
0.0009918275666
0.0009911835692
0.0009901385717
0.0009885683534
0.0009863069437
0.0009848944172
0.0009842473903
0.0009839563234
0.000983835378
0.0009838036028
0.0009838299037
0.0009839082066
0.00098404713
0.0009842672206
0.0009846016928
0.0009851025947
0.0009858501998
0.0009869796824
0.0009887314349
0.0009916473303
398.7553926
454.3349637
423.4936382
379.2366249
287.9280975
143.236078
34.65381099
4.693326131
0.3446583927
0.05783253425
0.0276632777
0.01241300357
0.002469496487
0.001104593691
0.0009988725691
0.0009835014353
0.0009784954407
0.0009760394736
0.0009749755895
0.0009747047721
0.0009750028382
0.0009756222485
0.0009765598483
0.0009777639127
0.0009791279872
0.0009806111201
0.0009821789919
0.0009837594328
0.0009852881745
0.0009867026808
0.0009879631355
0.0009890458214
0.0009899496606
0.0009906824465
0.0009912600732
0.0009916972347
0.0009920051156
0.0009921852167
0.0009922269366
0.0009921013816
0.0009917578568
0.0009911215739
0.0009900987408
0.0009885676041
0.0009863585973
0.0009849506519
0.0009843061212
0.0009840185207
0.0009839023527
0.0009838763963
0.0009839091071
0.0009839940116
0.0009841392308
0.0009843648146
0.0009847033694
0.0009852064392
0.0009859540664
0.0009870825391
0.0009888370349
0.0009917823841
418.9872739
474.6256643
428.5130808
362.3456228
242.4781913
94.62634358
18.7867543
2.081580046
0.1822974132
0.05292613698
0.02570115416
0.0108200731
0.002127270767
0.001083284081
0.000994595616
0.0009813335313
0.0009771007758
0.0009751545318
0.0009744389007
0.000974430494
0.0009749550322
0.0009757682444
0.0009768757081
0.0009782339627
0.0009797293518
0.0009813117814
0.0009829422745
0.0009845424053
0.00098604865
0.0009874028831
0.0009885758125
0.0009895551297
0.0009903513665
0.0009909811616
0.0009914662299
0.000991824145
0.0009920669271
0.0009921959266
0.0009922001728
0.0009920507312
0.0009916967959
0.0009910630431
0.0009900561275
0.0009885572173
0.0009863927557
0.0009849976429
0.0009843591843
0.0009840764617
0.0009839655403
0.0009839454975
0.000983984622
0.0009840761808
0.0009842278969
0.0009844593884
0.0009848027251
0.0009853089794
0.0009860579479
0.000987186862
0.000988945001
0.000991917233
438.4481923
494.2404036
428.8995811
335.7458039
189.9486088
53.33494309
8.960048631
0.8914166725
0.120667184
0.04879390426
0.0233775764
0.009155094568
0.001858007264
0.001064495161
0.0009908736174
0.0009795569829
0.000976048616
0.0009745771013
0.0009741956612
0.000974441021
0.0009751875885
0.0009761928361
0.0009774657096
0.0009789680976
0.0009805786715
0.0009822369413
0.0009838998106
0.0009854849013
0.0009869336318
0.0009881957441
0.0009892550914
0.0009901118014
0.0009907874777
0.0009913062404
0.0009916940257
0.0009919698837
0.000992145628
0.0009922217253
0.0009921863801
0.0009920103601
0.0009916426726
0.0009910072988
0.0009900109851
0.000988538302
0.0009864111546
0.0009850361208
0.0009844069692
0.0009841304419
0.000984025231
0.0009840112153
0.0009840567784
0.0009841550552
0.0009843134674
0.0009845512624
0.0009849000408
0.0009854104434
0.0009861620127
0.0009872927676
0.0009890554599
0.0009920520644
456.0051292
511.7613227
423.6634829
300.5695508
138.9147053
31.16076254
4.269509771
0.42674748
0.09670386136
0.04472319101
0.02079773457
0.007480971055
0.001648405236
0.001048246842
0.0009877133065
0.0009781800108
0.0009753524988
0.0009743282571
0.0009742661939
0.000974752529
0.0009757086704
0.0009768982806
0.0009783268867
0.0009799569933
0.0009816590811
0.0009833627546
0.0009850225314
0.0009865547254
0.0009879105151
0.0009890508725
0.0009899744571
0.0009906938374
0.0009912403703
0.000991643856
0.0009919327178
0.0009921261428
0.0009922348194
0.0009922577459
0.0009921819533
0.0009919777326
0.0009915938895
0.000990953631
0.0009899634336
0.0009885117755
0.0009864158485
0.0009850670216
0.0009844499819
0.0009841808232
0.0009840817504
0.0009840738774
0.0009841259132
0.0009842309789
0.0009843962816
0.0009846407584
0.0009849956034
0.0009855110661
0.0009862664343
0.0009874003682
0.0009891685092
0.0009921870266
470.2649626
526.2548467
411.2172557
256.7876776
93.06658114
17.31234305
1.997200134
0.2410684727
0.08382682815
0.04038495779
0.01806910611
0.005928943341
0.001486298505
0.001034448988
0.0009851269926
0.000977201373
0.0009750104264
0.0009744093579
0.0009746552262
0.0009753736443
0.0009765258913
0.0009778810258
0.0009794476606
0.0009811837601
0.0009829468012
0.0009846585806
0.0009862759572
0.0009877166832
0.0009889459604
0.0009899389386
0.0009907096145
0.0009912819493
0.0009916951164
0.0009919825728
0.0009921735303
0.0009922861436
0.0009923292396
0.0009922999259
0.0009921838218
0.000991950634
0.0009915489993
0.000990901342
0.0009899135022
0.0009884783488
0.0009864088206
0.0009850912565
0.0009844887084
0.0009842279444
0.0009841353973
0.0009841337848
0.0009841923393
0.000984304275
0.0009844766629
0.0009847281867
0.0009850896925
0.0009856110798
0.0009863713844
0.0009875097735
0.0009892842198
0.0009923222358
480.8186226
537.1047974
390.1723146
207.4180468
54.90762902
8.605677926
0.9237207202
0.1681861738
0.07451616305
0.03591557913
0.01533196796
0.004635520752
0.0013625445
0.001023120399
0.0009831991196
0.000976660862
0.0009750311177
0.0009747932886
0.0009753250409
0.0009762798522
0.0009776298338
0.00097913377
0.0009808105817
0.0009826228183
0.0009844117572
0.000986089194
0.0009876223356
0.0009889346572
0.0009900080225
0.0009908334159
0.0009914397009
0.0009918602871
0.0009921398531
0.0009923134945
0.0009924096943
0.0009924446381
0.00099242476
0.0009923450123
0.0009921894679
0.0009919271994
0.0009915067411
0.0009908497872
0.0009898611752
0.0009884385622
0.0009863919858
0.0009851097287
0.0009845236381
0.0009842721415
0.0009841864636
0.000984191227
0.0009842563565
0.0009843752534
0.0009845549225
0.0009848138479
0.0009851825822
0.0009857107142
0.0009864770321
0.000987621087
0.0009894026412
0.0009924577779
488.3499633
542.3600081
360.5631976
158.4695275
33.62796666
4.494689458
0.5041171311
0.1389598492
0.06661952154
0.03143014823
0.01268764479
0.003630056523
0.001269686906
0.001014347249
0.0009823076698
0.0009768717307
0.0009756013973
0.0009755739848
0.0009762854781
0.0009774274952
0.0009789769655
0.0009806372544
0.0009823979706
0.000984242696
0.0009860177218
0.0009876170601
0.0009890235486
0.0009901738025
0.0009910677733
0.0009917116832
0.0009921478325
0.0009924165935
0.0009925657128
0.0009926300993
0.0009926362657
0.0009925977521
0.0009925182684
0.0009923904872
0.0009921968866
0.0009919059016
0.00099146605
0.0009907983975
0.0009898064236
0.0009883928208
0.0009863671266
0.0009851233016
0.0009845552452
0.0009843137398
0.0009842352286
0.0009842464792
0.0009843182496
0.0009844442092
0.0009846313585
0.0009848980313
0.0009852745378
0.0009858101928
0.00098658354
0.0009877344026
0.0009895238029
0.0009925937135
493.4542586
539.5514002
321.0048573
111.779757
20.21000101
2.397851246
0.3289174706
0.1210693892
0.05893196396
0.02689946418
0.01014334924
0.002875767466
0.001199556822
0.001007190247
0.0009817224674
0.0009774383518
0.0009766739307
0.0009770178348
0.000977770573
0.0009789009859
0.0009805306178
0.0009823389235
0.000984184616
0.0009860126756
0.0009877221052
0.0009892018573
0.0009904429079
0.0009914027128
0.00099210063
0.000992555715
0.0009928213147
0.0009929421003
0.0009929665788
0.000992927965
0.0009928498784
0.0009927427876
0.0009926075236
0.0009924344674
0.0009922045236
0.0009918855175
0.0009914260452
0.0009907466829
0.0009897492209
0.0009883414243
0.0009863358634
0.0009851327785
0.0009845839778
0.0009843530476
0.0009842819557
0.0009842998013
0.000984378288
0.0009845114224
0.0009847062545
0.0009849810136
0.0009853658147
0.0009859097328
0.0009866910736
0.0009878498073
0.0009896477157
0.000992730079
496.2601805
528.2343453
273.289075
71.23920647
11.54477002
1.311736722
0.2462942118
0.1065307665
0.05117971186
0.02239445393
0.007841534818
0.002326403069
0.001146192677
0.00100120779
0.0009811307748
0.0009779817724
0.0009777983643
0.0009785537124
0.0009796141075
0.0009809393552
0.0009824059646
0.0009841896051
0.0009861126272
0.0009879001735
0.0009894825886
0.0009908013667
0.0009918463001
0.0009925947244
0.000993087108
0.0009933522409
0.0009934514359
0.0009934311654
0.0009933386984
0.0009932044261
0.000993048467
0.0009928780131
0.0009926910035
0.0009924756022
0.0009922112098
0.0009918650917
0.0009913860161
0.0009906942351
0.0009896895557
0.0009882845992
0.0009862996427
0.0009851388947
0.0009846102546
0.0009843903559
0.0009843268951
0.0009843514396
0.0009844367275
0.000984577159
0.0009847798806
0.0009850630591
0.0009854566578
0.0009860095424
0.0009867997852
0.0009879673798
0.0009897743726
0.0009928668906
497.1972276
509.5524181
223.9035858
48.10708355
6.849315701
0.7909328516
0.2003097911
0.09306685149
0.043510147
0.01802341294
0.005960803117
0.001934774639
0.001105883952
0.0009967100134
0.0009810532041
0.000978784887
0.0009789952557
0.0009800047626
0.000981444035
0.0009830772207
0.0009847458802
0.0009862536948
0.0009881117839
0.0009898517027
0.0009912599481
0.0009923768428
0.0009932042858
0.0009937287609
0.0009940130833
0.0009940925116
0.0009940330206
0.0009938807756
0.0009936802325
0.0009934582046
0.0009932309817
0.0009930024508
0.0009927677525
0.0009925129657
0.0009922160898
0.000991843891
0.0009913453975
0.0009906407187
0.0009896274335
0.0009882225203
0.0009862597333
0.0009851423097
0.0009846344582
0.0009844259346
0.0009843702807
0.0009844016263
0.0009844938096
0.0009846416704
0.0009848524927
0.0009851444185
0.0009855472995
0.00098610982
0.0009869098178
0.0009880871889
0.0009899037522
0.0009930041471
497.4915077
481.6511173
175.6093652
33.57066226
4.147000198
0.5171584839
0.1686558552
0.08015203683
0.03608522599
0.01390008914
0.004527168477
0.001658634016
0.001075692654
0.000993592299
0.0009814790616
0.000979949456
0.0009805027278
0.0009817609845
0.0009833647366
0.0009851111862
0.0009870749517
0.0009886156439
0.0009901511714
0.0009917970473
0.0009930171095
0.0009938970869
0.0009944935495
0.0009947898001
0.0009948695208
0.0009947717342
0.0009945638086
0.0009942899961
0.0009939908114
0.0009936890711
0.0009933971375
0.0009931156948
0.0009928372508
0.0009925459667
0.0009922185611
0.0009918213671
0.0009913037505
0.0009905858665
0.0009895628798
0.0009881553302
0.0009862172335
0.0009851436083
0.0009846569364
0.0009844600345
0.0009844123335
0.0009844505815
0.0009845497636
0.0009847051951
0.0009849243328
0.0009852253294
0.0009856379606
0.0009862107535
0.0009870213069
0.000988209293
0.0009900358171
0.0009931418281
498.4554479
441.7042195
130.0428262
22.51774318
2.495686302
0.3747859582
0.1445829275
0.06803176135
0.02901303166
0.01041258685
0.00348175297
0.001464677584
0.001053280812
0.0009917894929
0.0009825786248
0.0009815748551
0.0009823215837
0.0009837425423
0.0009855033262
0.000987331315
0.00098926708
0.0009910010986
0.0009922301316
0.0009936900617
0.0009947204379
0.000995339236
0.000995697083
0.0009957684746
0.0009956518661
0.0009953883573
0.0009950438056
0.000994659437
0.0009942711246
0.0009938975405
0.0009935471917
0.0009932177502
0.0009928992987
0.0009925742656
0.0009922182169
0.0009917971183
0.0009912607392
0.00099052947
0.0009894959385
0.0009880831506
0.0009861730783
0.0009851433
0.0009846780005
0.0009844928863
0.00098445326
0.0009844985126
0.0009846048053
0.0009847679571
0.0009849956288
0.0009853060151
0.0009857288486
0.0009863125185
0.0009871343766
0.0009883337386
0.000990170515
0.0009932798947
500.7696417
389.053345
91.00124818
14.15330758
1.518638015
0.2915235538
0.1231533884
0.05623770533
0.02231062468
0.007692256016
0.002734636811
0.001327567452
0.001036554183
0.0009908065772
0.0009840162608
0.0009836135054
0.0009845916413
0.0009859904111
0.0009877935907
0.000989682148
0.0009915833152
0.0009931947693
0.0009943709394
0.0009955164731
0.0009963372146
0.00099668645
0.0009968041631
0.0009966602879
0.000996359222
0.0009959433084
0.0009954746589
0.000994990786
0.0009945225826
0.0009940846304
0.0009936817717
0.0009933089085
0.0009929539273
0.0009925977116
0.0009922148019
0.0009917708601
0.0009912161138
0.0009904713732
0.0009894266726
0.000988006089
0.0009861280528
0.000985141825
0.000984697929
0.0009845247031
0.0009844932554
0.0009845456164
0.0009846591391
0.0009848301678
0.0009850665946
0.0009853866853
0.000985820158
0.0009864152784
0.0009872491392
0.0009884605593
0.0009903077802
0.0009934182922
505.0170972
324.19811
64.67798167
9.163401285
0.9559534331
0.2345733171
0.1028506954
0.04468912949
0.01644419465
0.005689190418
0.002207418181
0.001230397548
0.001024257178
0.0009904324819
0.0009855813363
0.0009857752154
0.000987059474
0.0009885994658
0.0009902427712
0.0009920982374
0.0009939287726
0.0009953378697
0.0009965534602
0.0009972593346
0.0009978393711
0.0009979272666
0.000997810332
0.0009974648049
0.0009969934525
0.0009964392732
0.0009958591116
0.0009952864143
0.0009947470375
0.0009942516638
0.0009938017341
0.0009933896469
0.0009930013244
0.0009926162877
0.0009922081739
0.000991742399
0.0009911696936
0.0009904114651
0.0009893551639
0.0009879242406
0.0009860828016
0.0009851395567
0.0009847169683
0.0009845556814
0.0009845325028
0.0009845920783
0.0009847129569
0.0009848920249
0.0009851374299
0.0009854675349
0.0009859120689
0.0009865191833
0.0009873656935
0.000988589775
0.0009904475322
0.0009935569505
511.7880994
252.0215334
48.77180483
6.16102187
0.6365100527
0.1922669625
0.08361291897
0.03362376826
0.01188659026
0.00426053956
0.001838823829
0.001161689503
0.001015595049
0.0009908079332
0.0009874806995
0.0009880577656
0.0009895374533
0.0009912822772
0.0009928844842
0.0009945435063
0.0009962510596
0.0009974551929
0.0009985199774
0.000998894984
0.0009992144973
0.0009990565373
0.0009987160241
0.0009981846394
0.0009975583227
0.0009968800717
0.0009962005619
0.0009955490754
0.0009949465766
0.0009944001265
0.0009939080641
0.0009934605549
0.000993041781
0.000992630072
0.000992198275
0.0009917116126
0.000991121354
0.0009903496739
0.0009892815142
0.0009878376857
0.0009860378428
0.0009851368099
0.0009847353381
0.0009845860038
0.0009845711757
0.0009846380737
0.0009847664388
0.0009849537128
0.0009852083207
0.0009855487453
0.000986004747
0.0009866243692
0.0009874841243
0.0009887213915
0.0009905896751
0.0009936957867
519.3841982
185.2021154
37.61215452
4.216435248
0.4490625894
0.1572061394
0.06526522122
0.02418107639
0.008567805425
0.003257808936
0.001582540226
0.001113311772
0.001009807619
0.0009918327941
0.0009897012845
0.0009905736319
0.0009921484429
0.0009939001854
0.0009956177415
0.0009969921658
0.0009985041582
0.0009994762843
0.001000228805
0.001000416547
0.001000462533
0.001000074025
0.0009995248865
0.0009988244706
0.0009980587841
0.0009972701605
0.0009965027232
0.0009957816765
0.0009951233695
0.0009945315613
0.0009940018001
0.0009935222791
0.0009930756499
0.0009926392064
0.0009921851085
0.0009916784329
0.0009910710161
0.0009902859625
0.0009892058489
0.0009877464859
0.0009859935798
0.0009851338462
0.0009847532333
0.0009846158395
0.000984609437
0.0009846837667
0.0009848197525
0.0009850154025
0.0009852794384
0.0009856304831
0.0009860983445
0.0009867309576
0.000987604502
0.0009888554001
0.000990734098
0.0009938347044
527.202892
144.9939994
28.77366832
2.868459302
0.3243778097
0.1254357812
0.0479249595
0.0171268541
0.006218709714
0.002561110677
0.001404957834
0.001079533556
0.00100628439
0.0009934128453
0.0009921995741
0.0009932701211
0.0009948739401
0.0009965786103
0.0009982189372
0.0009993946309
0.001000654339
0.001001373124
0.0010018185
0.001001809628
0.001001586072
0.001000982939
0.001000242714
0.0009993902608
0.0009985004184
0.00099761426
0.0009967693848
0.0009959871249
0.000995279566
0.000994647499
0.0009940839848
0.0009935754868
0.0009931033175
0.0009926438743
0.0009921687227
0.0009916428347
0.0009910186382
0.0009902203241
0.0009891283209
0.0009876506769
0.0009859503172
0.000985130883
0.0009847708293
0.000984645347
0.0009846474404
0.0009847293108
0.0009848730535
0.0009850772519
0.0009853509412
0.0009857129007
0.0009861929984
0.000986839055
0.0009877268819
0.000988991776
0.0009908806766
0.0009939735942
532.357939
124.4274099
23.29227375
1.954798597
0.2390056359
0.09666591474
0.03411034964
0.01207288112
0.004586386336
0.002080241502
0.001282301854
0.00105628861
0.001004535852
0.000995454245
0.0009949185832
0.0009960956913
0.0009976620347
0.000999251307
0.001000671198
0.001001706679
0.001002678024
0.001003126975
0.001003271736
0.00100306908
0.001002589754
0.001001789317
0.001000876583
0.0009998886379
0.0009988890017
0.0009979170758
0.0009970042348
0.0009961682146
0.0009954172229
0.0009947494072
0.0009941556275
0.0009936208373
0.0009931251809
0.0009926442829
0.0009921491963
0.0009916048247
0.0009909642081
0.0009901527766
0.0009890491155
0.0009875502585
0.0009859082765
0.0009851281008
0.0009847882841
0.0009846746737
0.0009846853286
0.0009847748479
0.0009849264842
0.000985139405
0.0009854229729
0.0009857961359
0.0009862888301
0.0009869487518
0.0009878513027
0.0009891304772
0.0009910292709
0.000994112336
532.7674399
115.6151926
19.18527351
1.310636163
0.1795860331
0.07096111323
0.02381009304
0.008552775001
0.003465681027
0.001749453396
0.001197880145
0.001040645442
0.001004159672
0.0009978609745
0.0009977945668
0.0009989900699
0.001000453915
0.001001866768
0.001003035734
0.001003899935
0.001004557342
0.00100472938
0.00100458887
0.001004196988
0.001003480429
0.001002501267
0.001001434362
0.001000326441
0.0009992302219
0.0009981831293
0.0009972107634
0.0009963275697
0.0009955382677
0.0009948386661
0.0009942176862
0.0009936589669
0.0009931416359
0.0009926406527
0.00099212663
0.0009915644354
0.0009909077386
0.0009900833605
0.0009889684582
0.0009874451853
0.0009858676174
0.0009851256539
0.0009848057433
0.0009847039578
0.0009847232348
0.000984820508
0.0009849801751
0.0009852019935
0.0009854956638
0.0009858803121
0.0009863859461
0.000987060123
0.0009879777843
0.000989271444
0.0009911797267
0.0009942507982
527.6704399
113.6475282
15.65685344
0.88140645
0.1362574538
0.04998454799
0.01647287887
0.006147818025
0.0027003684
0.001522243452
0.001140067095
0.001030478531
0.001004823565
0.001000534307
0.001000758107
0.00100189023
0.001003190822
0.001004378698
0.001005279995
0.001005957253
0.001006279934
0.001006177276
0.00100577261
0.001005200486
0.001004267263
0.001003127732
0.001001924024
0.001000710358
0.0009995294697
0.0009984166374
0.0009973921922
0.0009964676018
0.0009956444718
0.0009949165501
0.0009942710525
0.0009936904769
0.0009931530661
0.0009926332085
0.0009921011399
0.0009915217197
0.0009908492637
0.0009900121346
0.0009888866251
0.0009873353555
0.00098582846
0.0009851236793
0.0009848233421
0.0009847333274
0.00098476128
0.0009848664087
0.0009850342431
0.0009852651352
0.0009855691301
0.0009859655372
0.0009864844362
0.000987173224
0.0009881063287
0.0009894145972
0.0009913318743
0.00099438884
517.4469779
108.3599052
12.2039632
0.6141754907
0.1011100885
0.0340883897
0.01142861947
0.004519448065
0.002177711141
0.001366184713
0.001100749415
0.001024238587
0.001006249019
0.001003375936
0.00100373865
0.001004735114
0.001005821726
0.001006750789
0.001007376206
0.001007819919
0.001007841814
0.001007474539
0.00100683106
0.001006088925
0.001004960682
0.001003677632
0.00100235315
0.001001046685
0.0009997917253
0.0009986214533
0.0009975514479
0.0009965904966
0.0009957374431
0.0009949842201
0.0009943165463
0.0009937159275
0.0009931598372
0.0009926221734
0.0009920728513
0.000991476746
0.0009907888343
0.0009899391702
0.0009888039527
0.0009872253687
0.0009857909075
0.0009851223063
0.0009848412089
0.0009847629012
0.0009847995743
0.0009849126557
0.0009850887936
0.0009853289357
0.0009856434744
0.0009860519045
0.0009865843734
0.0009872880936
0.0009882369186
0.0009895598385
0.0009914855285
0.0009945263134
502.2803343
100.1718535
9.229078685
0.4214794931
0.07320014829
0.02294404269
0.008037531061
0.003417684531
0.001820045979
0.001259074817
0.001074301483
0.001020794801
0.001008204975
0.001006292044
0.001006668859
0.001007470198
0.001008305717
0.001008956492
0.001009299314
0.001009479124
0.001009249485
0.00100863053
0.00100777321
0.001006872022
0.001005570151
0.001004159539
0.001002728907
0.001001341192
0.001000021497
0.0009988010391
0.0009976911441
0.0009966982101
0.000995818624
0.0009950427234
0.0009943549134
0.0009937358352
0.0009931622935
0.0009926077658
0.000992041896
0.0009914295963
0.0009907265165
0.0009898645463
0.0009887206619
0.0009871195551
0.0009857550677
0.0009851216637
0.0009848594654
0.0009847927876
0.0009848382157
0.0009849593424
0.0009851439195
0.0009853934875
0.000985718785
0.0009861394914
0.0009866858138
0.000987404752
0.0009883695169
0.0009897070499
0.0009916404894
0.0009946630621
482.1670369
87.46750664
6.865995451
0.2856420076
0.05153408263
0.0155267267
0.005774355838
0.00267019952
0.001574828008
0.001185729923
0.001056807033
0.001019315891
0.00101049746
0.001009196607
0.001009489077
0.00101005144
0.001010613808
0.001010979742
0.00101104229
0.001010973184
0.001010508852
0.001009657136
0.001008609324
0.001007560543
0.001006104578
0.001004581616
0.001003057868
0.001001599082
0.00100022282
0.0009989584761
0.0009978136116
0.0009967924836
0.0009958893029
0.0009950930019
0.0009943868302
0.0009937506748
0.0009931607583
0.0009925901985
0.0009920084116
0.0009913803649
0.0009906623912
0.0009897883512
0.0009886368345
0.0009870179722
0.000985721069
0.0009851218846
0.000984878228
0.0009848230847
0.0009848772907
0.0009850065512
0.0009851997026
0.0009854588709
0.0009857951365
0.0009862283594
0.0009867887955
0.0009875231983
0.000988504066
0.0009898560936
0.0009917965423
0.0009947989214
457.3809302
74.37466597
4.956408277
0.1903137477
0.03506057833
0.01067197003
0.004259784752
0.002160855426
0.001406388078
0.001135681204
0.001045516492
0.001019179756
0.001012962641
0.00101201331
0.001012150251
0.00101244708
0.001012728623
0.001012814255
0.00101260838
0.001012315144
0.001011628523
0.001010567261
0.001009350253
0.001008165805
0.001006572921
0.001004951496
0.001003346041
0.001001824961
0.001000399253
0.0009990964751
0.0009979209007
0.0009968748509
0.0009959506202
0.0009951358944
0.0009944129053
0.0009937608794
0.000993155533
0.0009925696772
0.0009919725393
0.0009913291568
0.0009905965515
0.0009897106846
0.0009885525788
0.0009869207463
0.000985689066
0.0009851231053
0.0009848976048
0.0009848538784
0.0009849168736
0.0009850543529
0.0009852562128
0.0009855251533
0.0009858725886
0.0009863185535
0.0009868933375
0.0009876434115
0.0009886404847
0.0009900068109
0.0009919534574
0.0009949337191
427.7345372
62.41594086
3.455614384
0.124693564
0.02336529505
0.007493255307
0.003241576149
0.001812580174
0.001290612117
0.001101730287
0.001038506252
0.001019923917
0.001015470084
0.00101468206
0.001014616978
0.001014638122
0.001014643343
0.001014462466
0.00101401107
0.001013531764
0.001012621432
0.001011373035
0.001010006733
0.001008698371
0.001006983789
0.001005275812
0.001003598726
0.001002022883
0.001000553909
0.0009992174089
0.0009980148033
0.0009969466636
0.0009960035869
0.0009951721511
0.0009944336893
0.0009937668477
0.0009931469027
0.0009925464047
0.0009919344276
0.0009912760911
0.0009905291065
0.0009896316574
0.0009884680207
0.0009868280756
0.0009856592354
0.0009851254606
0.0009849176934
0.0009848852427
0.0009849570278
0.000985102808
0.0009853135092
0.0009855923891
0.000985951186
0.0009864101011
0.0009869994392
0.0009877653488
0.0009887786687
0.0009901590211
0.0009921109889
0.0009950672772
394.4443073
51.06177493
2.284643484
0.0803312157
0.01576270805
0.005401881032
0.00255344
0.001573561213
0.001210957699
0.001078855614
0.001034411609
0.001021205216
0.001017919929
0.001017161309
0.00101686885
0.001016617559
0.001016360365
0.001015933515
0.001015268449
0.001014633822
0.001013500323
0.001012085731
0.001010588965
0.001009167267
0.001007345067
0.001005560342
0.001003820493
0.001002196439
0.001000689524
0.0009993233657
0.0009980969049
0.0009970091198
0.0009960491046
0.0009952024464
0.0009944496828
0.0009937689482
0.0009931351366
0.00099252058
0.0009918942302
0.0009912212977
0.0009904601766
0.000989551384
0.0009883832844
0.0009867401991
0.0009856317571
0.0009851290729
0.0009849385752
0.0009849172374
0.0009849978053
0.0009851519664
0.000985371639
0.0009856606192
0.0009860309577
0.0009865030113
0.0009871070794
0.0009878889443
0.0009889184913
0.0009903125199
0.0009922688778
0.000995199412
358.3695433
40.54088763
1.45920721
0.05233519953
0.01083690324
0.004013701211
0.002085417676
0.001409208451
0.001156228825
0.001063584126
0.001032271648
0.001022777263
0.001020239497
0.001019425405
0.001018898523
0.001018388383
0.001017889004
0.001017241112
0.001016394818
0.001015604225
0.001014277026
0.001012716447
0.001011106281
0.001009580379
0.001007663195
0.001005810394
0.001004015342
0.001002348765
0.001000808498
0.0009994161823
0.0009981686045
0.0009970632839
0.0009960879808
0.0009952273912
0.0009944613458
0.0009937675261
0.000993120495
0.0009924924036
0.0009918521107
0.000991164923
0.0009903898996
0.0009894699855
0.0009882984829
0.0009866573542
0.0009856067901
0.0009851340411
0.0009849603123
0.0009849499081
0.0009850392472
0.0009852018676
0.0009854306375
0.0009857298701
0.0009861119153
0.0009865972738
0.0009872162142
0.0009880141073
0.0009890597978
0.0009904670793
0.0009924268507
0.0009953299348
320.6230168
31.12045442
0.8975962779
0.03424705022
0.007628299185
0.003082853871
0.001764805614
0.001295706907