/*--------------------------------*- C++ -*----------------------------------*\
  =========                 |
  \\      /  F ield         | OpenFOAM: The Open Source CFD Toolbox
   \\    /   O peration     | Website:  https://openfoam.org
    \\  /    A nd           | Version:  12
     \\/     M anipulation  |
\*---------------------------------------------------------------------------*/
FoamFile
{
    format      ascii;
    class       volScalarField;
    location    "50";
    object      nut;
}
// * * * * * * * * * * * * * * * * * * * * * * * * * * * * * * * * * * * * * //

dimensions      [0 2 -1 0 0 0 0];

internalField   nonuniform List<scalar> 
16200
(
0.0004429862557
0.001540587827
0.002615780009
0.003401505985
0.003584508174
0.003339168122
0.002782101827
0.002144697653
0.0009247096312
0.000148942387
1.007845509e-05
9.636978645e-06
9.402122187e-06
3.958765386e-06
2.101789911e-06
1.5878952e-06
1.302505091e-06
1.138488557e-06
1.085757079e-06
1.091478153e-06
1.118431267e-06
1.155951136e-06
1.202659277e-06
1.260177694e-06
1.334391053e-06
1.433960138e-06
1.568207782e-06
1.7462425e-06
1.983387802e-06
2.310379213e-06
2.777927337e-06
3.463211723e-06
4.507331473e-06
6.209986632e-06
9.196982534e-06
1.477936347e-05
2.589897149e-05
4.918861889e-05
9.945565998e-05
0.0002114898655
0.000466355382
0.001002840309
0.001002416493
0.001001362291
0.000999994913
0.0009992577361
0.000998925616
0.0009987758363
0.0009987083841
0.000998678683
0.0009986672704
0.0009986663715
0.0009986733035
0.0009986887549
0.0009987146184
0.0009987556141
0.0009988174722
0.0009989115345
0.0009990539295
0.0009992798788
0.0004375584648
0.00151101116
0.002530086091
0.003187639664
0.003258663055
0.002931203024
0.002334742591
0.001542222974
0.0006065918178
5.474177435e-05
9.465017064e-06
9.685807386e-06
8.818257876e-06
3.574006668e-06
1.87109374e-06
1.401313695e-06
1.16384218e-06
1.023433142e-06
9.760723911e-07
9.841021685e-07
1.011710729e-06
1.048854988e-06
1.094930705e-06
1.150889276e-06
1.221529735e-06
1.314828657e-06
1.44092735e-06
1.610904226e-06
1.839952887e-06
2.154757059e-06
2.600986333e-06
3.251699313e-06
4.237011221e-06
5.825314041e-06
8.581751403e-06
1.370522606e-05
2.385831481e-05
4.502327733e-05
9.067388816e-05
0.0001919810764
0.0004214319274
0.0009477424578
0.001002396499
0.001001412593
0.00100004789
0.000999287112
0.0009989432598
0.0009987881627
0.0009987184825
0.0009986880998
0.0009986766031
0.0009986759651
0.0009986830922
0.0009986987764
0.0009987245437
0.0009987652455
0.0009988264093
0.0009989197475
0.000999062028
0.0009992913267
0.0004332637163
0.001482853627
0.002446066384
0.002969025239
0.0029272584
0.002526317889
0.001951877325
0.001054993996
0.0003668901662
2.405745035e-05
9.582571321e-06
9.766009696e-06
8.396820994e-06
3.217224671e-06
1.673156869e-06
1.223299507e-06
1.020822715e-06
9.142325242e-07
8.784390636e-07
8.875135879e-07
9.128880539e-07
9.465271711e-07
9.8959837e-07
1.042925528e-06
1.110102116e-06
1.198028082e-06
1.316612293e-06
1.478175901e-06
1.698642733e-06
2.002656572e-06
2.431817831e-06
3.054755313e-06
3.992176322e-06
5.487727676e-06
8.056780662e-06
1.279983972e-05
2.214549007e-05
4.154063212e-05
8.322390628e-05
0.0001753144309
0.0003831817619
0.0008580411033
0.001002367607
0.001001433904
0.00100009059
0.0009993118498
0.0009989588195
0.0009987992972
0.0009987277779
0.000998696704
0.0009986852661
0.0009986847265
0.0009986922276
0.0009987079246
0.0009987338877
0.0009987742789
0.0009988352182
0.0009989280432
0.0009990701695
0.0009993025485
0.0004301696645
0.001456452805
0.00236272093
0.002749597808
0.002602511898
0.002136904249
0.001618276561
0.0007582638646
0.0002004930122
1.557302355e-05
9.807622485e-06
9.835834003e-06
8.114717516e-06
2.802066091e-06
1.495182766e-06
1.077398767e-06
8.939406099e-07
8.157718876e-07
7.939846877e-07
8.046563749e-07
8.277474439e-07
8.573709093e-07
8.964012816e-07
9.464997827e-07
1.010831192e-06
1.095258625e-06
1.208758512e-06
1.363995905e-06
1.5777224e-06
1.873971829e-06
2.291584795e-06
2.895354707e-06
3.798850317e-06
5.22774694e-06
7.659908035e-06
1.212238152e-05
2.087461432e-05
3.896961256e-05
7.776382439e-05
0.0001632235839
0.0003553840748
0.0007933806465
0.001002333897
0.001001428903
0.001000121648
0.0009993316959
0.0009989723151
0.0009988096104
0.0009987366588
0.0009987051108
0.0009986936555
0.0009986933245
0.0009987010784
0.0009987170005
0.000998743034
0.0009987833149
0.0009988439328
0.0009989363725
0.0009990784509
0.0009993136896
0.0004267926604
0.001431268555
0.002280346813
0.002529816891
0.002288390355
0.001781645233
0.001162985267
0.000503142324
9.738119974e-05
1.336928241e-05
1.006932721e-05
9.88098519e-06
7.949192741e-06
2.37505213e-06
1.308957004e-06
9.45969122e-07
7.807449433e-07
7.241498143e-07
7.160862958e-07
7.292248381e-07
7.508288715e-07
7.772928189e-07
8.124146756e-07
8.589536902e-07
9.203871056e-07
1.002124644e-06
1.112168891e-06
1.262846201e-06
1.471371848e-06
1.761818209e-06
2.171325032e-06
2.76141758e-06
3.639667235e-06
5.017683298e-06
7.343478398e-06
1.158420987e-05
1.986482236e-05
3.692735273e-05
7.34114551e-05
0.0001535332813
0.0003331140751
0.0007412847405
0.001002298798
0.001001417905
0.00100014268
0.0009993471699
0.0009989838564
0.000998818968
0.0009987449894
0.0009987131192
0.0009987016959
0.0009987015945
0.0009987096178
0.000998725791
0.0009987519622
0.0009987922273
0.0009988526269
0.0009989448079
0.0009990869043
0.0009993247661
0.0004225490637
0.001405322727
0.002184141479
0.002307009112
0.001979700796
0.001488083098
0.0007987255593
0.0003106431033
4.748364228e-05
1.254462848e-05
1.031630725e-05
9.880388745e-06
7.881578423e-06
1.999701008e-06
1.130211862e-06
8.272806236e-07
6.841014741e-07
6.427671973e-07
6.444887832e-07
6.595540276e-07
6.800043217e-07
7.044034368e-07
7.366717316e-07
7.802308554e-07
8.391389039e-07
9.188989874e-07
1.026902615e-06
1.174915807e-06
1.380230969e-06
1.667189552e-06
2.072098984e-06
2.654095998e-06
3.516098307e-06
4.859060246e-06
7.108266202e-06
1.118534015e-05
1.91148597e-05
3.540486898e-05
7.015171198e-05
0.0001462573048
0.0003163233819
0.0007018113187
0.001002262631
0.001001401616
0.001000153712
0.0009993581555
0.0009989933716
0.0009988273365
0.0009987527525
0.0009987207123
0.0009987093793
0.0009987095251
0.000998717844
0.0009987343045
0.0009987606736
0.0009988010102
0.0009988613102
0.0009989533544
0.0009990955424
0.0009993358108
0.0004171156493
0.001377014931
0.00206808727
0.002084612364
0.00167894851
0.001219914938
0.0005641968952
0.0001742332419
2.700823158e-05
1.231179187e-05
1.05316931e-05
9.844280348e-06
7.894233669e-06
1.678503971e-06
9.699410342e-07
7.188182661e-07
6.004996114e-07
5.707194888e-07
5.77823626e-07
5.938213745e-07
6.134483254e-07
6.36840224e-07
6.676589069e-07
7.094138269e-07
7.665832328e-07
8.45049556e-07
9.520533522e-07
1.098898432e-06
1.302713198e-06
1.588081192e-06
1.991107661e-06
2.569217896e-06
3.421748248e-06
4.741456528e-06
6.936289484e-06
1.089317406e-05
1.856114223e-05
3.427169476e-05
6.770709023e-05
0.0001407585481
0.0003035464562
0.0006715612161
0.001002225625
0.001001380756
0.001000155858
0.0009993650929
0.0009990010204
0.0009988347817
0.0009987599824
0.0009987279213
0.0009987167337
0.000998717149
0.000998725786
0.0009987425681
0.0009987691942
0.000998809686
0.0009988699932
0.0009989620201
0.000999104374
0.0009993468392
0.0004104607067
0.001347357723
0.00194979439
0.001865289398
0.001415786566
0.0008220592586
0.0003667111144
8.77642748e-05
1.920377921e-05
1.235327668e-05
1.070564515e-05
9.71105235e-06
5.878279566e-06
1.345923345e-06
8.23426306e-07
6.169061624e-07
5.246548661e-07
5.05523093e-07
5.158513427e-07
5.325133544e-07
5.518372008e-07
5.748919594e-07
6.052002564e-07
6.462059315e-07
7.025342398e-07
7.803980686e-07
8.872127218e-07
1.034088301e-06
1.237929706e-06
1.52351147e-06
1.926878494e-06
2.504834103e-06
3.353757276e-06
4.660354931e-06
6.819761098e-06
1.069357242e-05
1.817645754e-05
3.347161144e-05
6.595581383e-05
0.0001367680267
0.0002941610397
0.0006490740554
0.001002187866
0.001001355877
0.001000150012
0.0009993682863
0.0009990068964
0.0009988413279
0.0009987666864
0.0009987347534
0.0009987237711
0.0009987244819
0.0009987334632
0.0009987506021
0.0009987775421
0.00099881827
0.0009988786885
0.0009989708125
0.0009991134094
0.0009993578681
0.0004023497456
0.00131583175
0.001825462283
0.001642392519
0.001187955985
0.0005976329169
0.0002346130751
4.717442954e-05
1.666199694e-05
1.248988119e-05
1.081940191e-05
9.435359919e-06
3.982588233e-06
1.057818252e-06
6.940891186e-07
5.256009306e-07
4.567233547e-07
4.470540733e-07
4.596518782e-07
4.769706164e-07
4.964787412e-07
5.195492404e-07
5.49609641e-07
5.903450158e-07
6.465489898e-07
7.244872709e-07
8.317668717e-07
9.795895666e-07
1.184718572e-06
1.472032883e-06
1.877841552e-06
2.458479825e-06
3.308571317e-06
4.610307985e-06
6.749715939e-06
1.057086191e-05
1.793135621e-05
3.294545712e-05
6.477374213e-05
0.0001340120611
0.0002875419042
0.0006329127543
0.001002149367
0.001001327429
0.001000137252
0.0009993681639
0.0009990111673
0.0009988470457
0.0009987729015
0.0009987412354
0.0009987305159
0.0009987315493
0.0009987409008
0.0009987584315
0.00099878574
0.0009988267808
0.0009988874103
0.0009989797397
0.0009991226565
0.00099936891
0.0003923963936
0.001281009675
0.001693973003
0.001419780024
0.000928348538
0.0004293606342
0.000137218079
2.945027826e-05
1.582562825e-05
1.261615398e-05
1.085464231e-05
9.078325542e-06
2.79295537e-06
8.516241249e-07
5.914842053e-07
4.523609462e-07
4.010071152e-07
3.972425571e-07
4.100401038e-07
4.270280635e-07
4.468266425e-07
4.705504444e-07
5.008363416e-07
5.415062574e-07
5.979859354e-07
6.766514093e-07
7.850408235e-07
9.345387332e-07
1.141993621e-06
1.432361552e-06
1.842299151e-06
2.428107713e-06
3.283366758e-06
4.587161176e-06
6.719544924e-06
1.051373804e-05
1.780500386e-05
3.265195781e-05
6.40742992e-05
0.0001323006632
0.0002832577071
0.0006220796722
0.001002110091
0.001001295746
0.001000118622
0.0009993651456
0.0009990139969
0.0009988520014
0.0009987786579
0.000998747388
0.0009987369875
0.0009987383725
0.0009987481213
0.0009987660793
0.000998793809
0.000998835236
0.000998896172
0.0009989888109
0.0009991321201
0.0009993799745
0.00037948192
0.001238907768
0.001550797765
0.001213534426
0.0006429113457
0.0002890325518
7.539169113e-05
2.25877768e-05
1.559513194e-05
1.270489233e-05
1.07964395e-05
8.729960936e-06
1.871113388e-06
7.007615472e-07
5.080775143e-07
3.946446341e-07
3.573828228e-07
3.568027816e-07
3.680421325e-07
3.829465742e-07
4.018756456e-07
4.264486505e-07
4.580269065e-07
4.993042372e-07
5.562876763e-07
6.361318857e-07
7.462871052e-07
8.980842117e-07
1.108677843e-06
1.403217931e-06
1.818715078e-06
2.41176212e-06
3.275517053e-06
4.587155139e-06
6.723438419e-06
1.051252093e-05
1.777993817e-05
3.255708169e-05
6.378713167e-05
0.0001314812784
0.0002809649858
0.000615787828
0.001002069979
0.001001261071
0.001000095132
0.0009993596532
0.0009990155579
0.0009988562672
0.0009987839907
0.0009987532342
0.0009987432066
0.0009987449732
0.0009987551475
0.0009987735683
0.0009988017704
0.0009988436537
0.0009989049867
0.0009989980353
0.000999141804
0.0009993910683
0.0003646466174
0.001187550974
0.00139522412
0.001012961501
0.0004786437658
0.0001979123946
4.697433848e-05
2.049952537e-05
1.557203164e-05
1.27254489e-05
1.060975095e-05
8.415356318e-06
1.243163731e-06
5.74531984e-07
4.304511723e-07
3.410863475e-07
3.166971394e-07
3.20239762e-07
3.322281944e-07
3.459935365e-07
3.629919781e-07
3.869667509e-07
4.200223785e-07
4.63067162e-07
5.211111323e-07
6.023076375e-07
7.14715556e-07
8.69392493e-07
1.083761818e-06
1.383395344e-06
1.805677053e-06
2.407700412e-06
3.282754542e-06
4.607148395e-06
6.75669289e-06
1.055957552e-05
1.78426689e-05
3.263496731e-05
6.385932094e-05
0.0001314398737
0.0002804084051
0.0006134528471
0.001002028967
0.001001223573
0.00100006772
0.0009993520912
0.0009990160212
0.0009988599167
0.0009987889357
0.0009987587975
0.0009987491939
0.0009987513729
0.0009987620017
0.000998780921
0.0009988096452
0.0009988520512
0.0009989138657
0.0009990074199
0.0009991517102
0.0009994021962
0.0003496622365
0.001128128324
0.00123302569
0.0007631649657
0.0003596287772
0.0001314241182
3.428802505e-05
1.974406478e-05
1.553141976e-05
1.26300033e-05
1.022697781e-05
5.353934401e-06
8.568611069e-07
4.724359309e-07
3.617498535e-07
2.92587983e-07
2.772895825e-07
2.831295077e-07
2.969768542e-07
3.131493839e-07
3.308668177e-07
3.536872816e-07
3.867849766e-07
4.319158327e-07
4.91964194e-07
5.747089802e-07
6.895400255e-07
8.476111147e-07
1.066299707e-06
1.371771641e-06
1.801891879e-06
2.414369215e-06
3.303110004e-06
4.644489791e-06
6.815450694e-06
1.064879966e-05
1.79826426e-05
3.286570825e-05
6.425059881e-05
0.0001320903823
0.0002813962342
0.0006146366886
0.001001986993
0.001001183364
0.001000037238
0.0009993428352
0.0009990155488
0.0009988630214
0.0009987935279
0.0009987641007
0.0009987549698
0.0009987575927
0.0009987687058
0.0009987881592
0.0009988174537
0.0009988604462
0.0009989228252
0.0009990169715
0.0009991618395
0.0009994133608
0.0003349908961
0.00106032174
0.001069940232
0.00055093593
0.0002683099315
8.660476558e-05
2.856845936e-05
1.936576693e-05
1.539462222e-05
1.237477333e-05
9.711554083e-06
3.245180849e-06
6.124516158e-07
3.919859316e-07
3.06573995e-07
2.5510958e-07
2.455431326e-07
2.507285967e-07
2.638377736e-07
2.813349798e-07
3.019565289e-07
3.264831167e-07
3.59398686e-07
4.054938357e-07
4.679333645e-07
5.527548411e-07
6.700568215e-07
8.319001108e-07
1.055415741e-06
1.367337527e-06
1.806231109e-06
2.430430769e-06
3.334936053e-06
4.697030681e-06
6.896683704e-06
1.077554032e-05
1.819199906e-05
3.323473455e-05
6.493183623e-05
0.0001333708969
0.0002837906707
0.0006190231375
0.001001944008
0.001001140518
0.001000004441
0.0009993322273
0.0009990142923
0.0009988656492
0.0009987978017
0.0009987691669
0.0009987605547
0.0009987636534
0.0009987752812
0.000998795304
0.0009988252156
0.0009988688553
0.000998931877
0.0009990266968
0.0009991721906
0.0009994245633
0.0003216329135
0.0009879033547
0.0008769477006
0.0004290782627
0.0002080347184
6.084703188e-05
2.587387511e-05
1.904610746e-05
1.512332911e-05
1.190641955e-05
9.146432351e-06
2.027914906e-06
4.532101996e-07
3.272784154e-07
2.619762808e-07
2.261266452e-07
2.205922634e-07
2.250802175e-07
2.371094766e-07
2.537272912e-07
2.751174286e-07
3.025891344e-07
3.374453373e-07
3.838557448e-07
4.48106823e-07
5.356504517e-07
6.556672134e-07
8.215038887e-07
1.050317851e-06
1.36921319e-06
1.81766181e-06
2.454767713e-06
3.376900532e-06
4.763093255e-06
6.998110786e-06
1.093640814e-05
1.846516931e-05
3.373191816e-05
6.588300477e-05
0.0001352389179
0.0002874963591
0.0006263897326
0.001001899971
0.001001095081
0.0009999699894
0.0009993205712
0.0009990123879
0.0009988678626
0.0009988017896
0.0009987740183
0.0009987659687
0.0009987695756
0.0009987817486
0.0009988023759
0.0009988329498
0.0009988772945
0.0009989410322
0.0009990366013
0.000999182762
0.0009994358048
0.0003103381898
0.0009122601745
0.0007091921083
0.0003508515828
0.0001606179671
4.553297771e-05
2.436596125e-05
1.86564065e-05
1.467409655e-05
1.11585996e-05
5.485959959e-06
1.13599151e-06
3.439301427e-07
2.724303602e-07
2.242248985e-07
2.02316364e-07
1.997883425e-07
2.036818453e-07
2.15008255e-07
2.315291662e-07
2.526931143e-07
2.81534513e-07
3.184915785e-07
3.665008666e-07
4.321191318e-07
5.226446639e-07
6.458324672e-07
8.157868014e-07
1.050302732e-06
1.376650727e-06
1.835381757e-06
2.486478846e-06
3.427971327e-06
4.841432931e-06
7.118116606e-06
1.112910869e-05
1.879852417e-05
3.435081064e-05
6.709146273e-05
0.0001376673703
0.0002924508234
0.0006365845384
0.001001854856
0.001001047087
0.0009999344477
0.0009993081325
0.0009990099577
0.000998869719
0.0009988055229
0.0009987786777
0.0009987712325
0.0009987753795
0.0009987881283
0.0009988093945
0.0009988406744
0.0009988857794
0.0009989503022
0.0009990466901
0.0009991935506
0.000999447084
0.0003017476581
0.0008289195815
0.0005679936824
0.0002899204795
0.0001208705283
3.726801328e-05
2.344339123e-05
1.814292239e-05
1.397768146e-05
1.032614333e-05
3.204972988e-06
6.637387327e-07
2.655999246e-07
2.242482738e-07
1.907090515e-07
1.809139639e-07
1.816900815e-07
1.858127903e-07
1.96277421e-07
2.127461378e-07
2.344949649e-07
2.638508862e-07
3.017891638e-07
3.526486943e-07
4.199864652e-07
5.132346828e-07
6.400107254e-07
8.14215223e-07
1.054759014e-06
1.389026942e-06
1.858718717e-06
2.524858014e-06
3.487377362e-06
4.931168609e-06
7.255627117e-06
1.135221347e-05
1.918993595e-05
3.508774985e-05
6.855002159e-05
0.000140640261
0.0002986143697
0.0006495022598
0.001001808651
0.001000996558
0.0009998982934
0.0009992951385
0.0009990071078
0.0009988712703
0.0009988090313
0.0009987831671
0.0009987763661
0.0009987810849
0.0009987944397
0.0009988163785
0.0009988484067
0.0009988943243
0.0009989596976
0.000999056967
0.0009992045525
0.0009994583977
0.0002973135633
0.0007335254819
0.0004577946199
0.0002383593777
8.964155429e-05
3.256751213e-05
2.25761515e-05
1.737645247e-05
1.292886724e-05
6.53325904e-06
1.940591923e-06
4.234811778e-07
2.111770181e-07
1.850146387e-07
1.624283699e-07
1.611200114e-07
1.646104587e-07
1.701896115e-07
1.808420269e-07
1.970412157e-07
2.192844463e-07
2.490055231e-07
2.886580623e-07
3.418544529e-07
4.115090308e-07
5.070779492e-07
6.376443754e-07
8.163135511e-07
1.063163267e-06
1.405817459e-06
1.887126598e-06
2.569348092e-06
3.554537034e-06
5.031670763e-06
7.409928739e-06
1.160485048e-05
1.963821566e-05
3.594076119e-05
7.025465056e-05
0.0001441476868
0.0003059589221
0.0006650589082
0.001001761352
0.001000943511
0.000999861921
0.0009992817807
0.0009990039302
0.0009988725635
0.0009988123438
0.0009987875093
0.0009987813898
0.0009987867112
0.0009988007014
0.0009988233456
0.0009988561628
0.0009989029428
0.000998969228
0.0009990674346
0.0009992157631
0.0009994697409
0.0002991675102
0.0006252764682
0.0003730428855
0.0001990678028
6.713511103e-05
2.948031865e-05
2.151929579e-05
1.622796549e-05
1.045578331e-05
3.754869271e-06
1.091008641e-06
2.90888216e-07
1.725282342e-07
1.542175864e-07
1.401440159e-07
1.440336364e-07
1.491425898e-07
1.559652897e-07
1.675552283e-07
1.842745238e-07
2.068654231e-07
2.372882307e-07
2.792278466e-07
3.335903753e-07
4.060018683e-07
5.038441755e-07
6.3823702e-07
8.216488224e-07
1.07506494e-06
1.426570334e-06
1.920136681e-06
2.619469946e-06
3.628953995e-06
5.142407529e-06
7.580433808e-06
1.188632425e-05
2.014245094e-05
3.690831713e-05
7.220197745e-05
0.0001481805903
0.0003144567684
0.0006831674649
0.001001712973
0.001000887958
0.0009998256491
0.0009992682169
0.0009990005034
0.0009988736414
0.0009988154884
0.0009987917263
0.0009987863235
0.0009987922769
0.000998806931
0.0009988303123
0.0009988639578
0.0009989116474
0.0009989789016
0.0009990780945
0.0009992271766
0.0009994811075
0.000310119859
0.0005139327938
0.0003154368214
0.0001688476824
5.202948051e-05
2.724545519e-05
2.014414452e-05
1.378158337e-05
6.032008997e-06
2.207597276e-06
5.945669022e-07
2.117038126e-07
1.435870845e-07
1.297426598e-07
1.225080056e-07
1.2939613e-07
1.359054709e-07
1.435993495e-07
1.560658413e-07
1.73740908e-07
1.969997752e-07
2.284884993e-07
2.719914467e-07
3.275502301e-07
4.026687661e-07
5.031740148e-07
6.413965837e-07
8.298187348e-07
1.090050136e-06
1.450856394e-06
1.95729621e-06
2.674738743e-06
3.710098817e-06
5.262773882e-06
7.766424208e-06
1.219570447e-05
2.070129187e-05
3.798801014e-05
7.43866554e-05
0.0001527253483
0.0003240693899
0.0007037150268
0.001001663536
0.001000829906
0.0009997897271
0.0009992545749
0.0009989968946
0.0009988745434
0.0009988184926
0.0009987958404
0.0009987911866
0.0009987977996
0.0009988131448
0.0009988372941
0.0009988718055
0.0009989204495
0.0009989887257
0.0009990889471
0.0009992387857
0.0009994924902
0.000330060194
0.0004704021751
0.0002741311969
0.0001436513036
4.203039707e-05
2.522120233e-05
1.575664386e-05
7.732685821e-06
3.432972915e-06
1.312126239e-06
3.539777173e-07
1.617646416e-07
1.212783762e-07
1.101212035e-07
1.084513176e-07
1.167305122e-07
1.245146021e-07
1.332680307e-07
1.465300354e-07
1.649543958e-07
1.891958377e-07
2.217029649e-07
2.661489729e-07
3.236783248e-07
4.011923078e-07
5.047103256e-07
6.467819986e-07
8.404273852e-07
1.107700382e-06
1.478220939e-06
1.998102244e-06
2.734576388e-06
3.797290068e-06
5.391926348e-06
7.966812855e-06
1.253145741e-05
2.13123284e-05
3.917543342e-05
7.679923133e-05
0.000157759609
0.0003347395297
0.000726548578
0.001001613081
0.001000769354
0.0009997543424
0.0009992409559
0.0009989931611
0.0009988753061
0.0009988213832
0.0009987998733
0.0009987959973
0.0009988032956
0.000998819358
0.0009988443052
0.0009988797188
0.0009989293594
0.0009989987062
0.0009990999918
0.0009992505817
0.0009995038807
0.0003551584091
0.0004102177323
0.0002448843191
0.0001206578887
3.454337288e-05
1.869438162e-05
9.688496205e-06
4.360044111e-06
1.986264745e-06
6.574622531e-07
2.294487292e-07
1.286941503e-07
1.035902784e-07
9.492131289e-08
9.719287072e-08
1.059734787e-07
1.147609146e-07
1.246388189e-07
1.386303359e-07
1.577518249e-07
1.830062626e-07
2.165484041e-07
2.620330078e-07
3.216641358e-07
4.014268964e-07
5.080709946e-07
6.540326547e-07
8.53058427e-07
1.127558128e-06
1.508139807e-06
2.04194468e-06
2.798239771e-06
3.889601921e-06
5.528661404e-06
8.179977379e-06
1.289120293e-05
2.19716983e-05
4.046352073e-05
7.942501254e-05
0.0001632503943
0.0003463886292
0.0007514738327
0.001001561665
0.001000706286
0.0009997196287
0.0009992274391
0.0009989893528
0.0009988759639
0.0009988241863
0.0009988038456
0.0009988007728
0.00099880878
0.0009988255846
0.0009988513586
0.0009988877095
0.0009989383861
0.0009990088485
0.0009991112269
0.0009992625552
0.0009995152689
0.000386062497
0.0003757276159
0.0002341958833
9.993750296e-05
2.541371025e-05
1.31495386e-05
5.986468639e-06
2.539110726e-06
1.169766905e-06
3.579579162e-07
1.599354351e-07
1.056719659e-07
8.973681143e-08
8.38459185e-08
8.809717233e-08
9.695008948e-08
1.065129768e-07
1.173855631e-07
1.320591733e-07
1.519873784e-07
1.782109187e-07
2.128538355e-07
2.595543055e-07
3.211144712e-07
4.030707695e-07
5.128725887e-07
6.627605796e-07
8.672691651e-07
1.14912048e-06
1.540013817e-06
2.088102694e-06
2.86482319e-06
3.985875553e-06
5.671440333e-06
8.403804238e-06
1.327179458e-05
2.26742306e-05
4.184285098e-05
8.224483249e-05
0.0001691561433
0.0003589227826
0.0007782730155
0.001001509365
0.00100064067
0.0009996856757
0.0009992140858
0.0009989855134
0.0009988765495
0.0009988269267
0.0009988077765
0.0009988055285
0.0009988142664
0.0009988318372
0.0009988584662
0.0009988957879
0.0009989475374
0.0009990191564
0.0009991226492
0.0009992746953
0.0009995266441
0.0004191560727
0.0003623740224
0.0002315754785
7.97588447e-05
1.84929156e-05
9.056109827e-06
3.756097159e-06
1.540010489e-06
5.671104498e-07
2.136573286e-07
1.180546777e-07
8.886735577e-08
7.883224481e-08
7.574869863e-08
8.073413762e-08
8.949067779e-08
9.962593462e-08
1.113433634e-07
1.267345695e-07
1.475099874e-07
1.746310123e-07
2.103878378e-07
2.583121848e-07
3.216938852e-07
4.058031546e-07
5.187549141e-07
6.725741327e-07
8.826044315e-07
1.171861147e-06
1.573202576e-06
2.135794981e-06
2.933333286e-06
4.084830682e-06
5.818557192e-06
8.635939699e-06
1.366972503e-05
2.3414147e-05
4.330298525e-05
8.523787747e-05
0.0001754330493
0.0003722477732
0.0008067419481
0.001001456281
0.00100057245
0.0009996525403
0.0009992009456
0.0009989816828
0.000998877094
0.0009988296279
0.0009988116838
0.0009988102786
0.000998819767
0.0009988381273
0.0009988656386
0.0009989039632
0.0009989568202
0.0009990296314
0.0009991342538
0.00099928699
0.000999537994
0.0004635313423
0.0003629094181
0.0002302336617
5.722623825e-05
1.342815476e-05
6.120854058e-06
2.407119546e-06
9.101213325e-07
3.03326544e-07
1.388595727e-07
9.109343122e-08
7.607609079e-08
7.024307515e-08
6.961894186e-08
7.478232744e-08
8.340539681e-08
9.395916165e-08
1.06412465e-07
1.225379896e-07
1.441222603e-07
1.720248563e-07
2.088921478e-07
2.58024212e-07
3.231100668e-07
4.093249006e-07
5.253866845e-07
6.831013954e-07
8.986260878e-07
1.195271212e-06
1.607085475e-06
2.18426646e-06
3.00281502e-06
4.185249091e-06
5.968411157e-06
8.874203132e-06
1.408179901e-05
2.418624598e-05
4.483472501e-05
8.83863766e-05
0.0001820452435
0.0003862919132
0.0008367424035
0.001001402547
0.00100050154
0.0009996202593
0.0009991880612
0.0009989778987
0.0009988776267
0.0009988323113
0.0009988155827
0.000998815035
0.0009988252927
0.000998844465
0.0009988728853
0.0009989122433
0.0009989662395
0.0009990402742
0.0009991460339
0.0009992994263
0.000999549306
0.0005042297528
0.0003605852025
0.0002238522518
3.441806937e-05
9.553176196e-06
4.0736334e-06
1.581213215e-06
4.741278752e-07
1.807795731e-07
9.743946018e-08
7.286402109e-08
6.595153051e-08
6.343053672e-08
6.473645709e-08
6.997356358e-08
7.849337986e-08
8.935430407e-08
1.02436923e-07
1.19261207e-07
1.415339559e-07
1.701855736e-07
2.080990564e-07
2.584285853e-07
3.251187367e-07
4.133976533e-07
5.324825222e-07
6.940281532e-07
9.149732819e-07
1.218939972e-06
1.641173027e-06
2.232936407e-06
3.072558111e-06
4.286258129e-06
6.119903509e-06
9.117168831e-06
1.450604506e-05
2.498746271e-05
4.643299503e-05
9.168136516e-05
0.0001889768075
0.0004010315512
0.0008682567626
0.00100134833
0.001000430524
0.0009995888626
0.0009991754736
0.0009989741979
0.0009988781753
0.000998834996
0.0009988194868
0.0009988198087
0.0009988308534
0.0009988508597
0.0009988802146
0.0009989206348
0.0009989757989
0.0009990510838
0.0009991579815
0.0009993119894
0.0009995605678
0.0005454767727
0.0003568437974
0.0002125156535
2.024969086e-05
6.595575619e-06
2.651642655e-06
8.809244595e-07
2.706929707e-07
1.184467059e-07
7.304355787e-08
6.019237213e-08
5.773301423e-08
5.797638948e-08
6.06911843e-08
6.608086002e-08
7.455589329e-08
8.564651878e-08
9.925703779e-08
1.166979882e-07
1.395180846e-07
1.689463454e-07
2.078136223e-07
2.593295262e-07
3.275306899e-07
4.17838308e-07
5.398414849e-07
7.051492825e-07
9.314328479e-07
1.242647538e-06
1.675228899e-06
2.281559289e-06
3.142310903e-06
4.3876158e-06
6.272828998e-06
9.36472099e-06
1.494256637e-05
2.58183038e-05
4.809943732e-05
9.512771346e-05
0.0001962418478
0.0004165111136
0.0009014269847
0.001001293734
0.001000361837
0.0009995583848
0.0009991632263
0.0009989706167
0.0009988787653
0.0009988376985
0.0009988234073
0.0009988246087
0.0009988364574
0.0009988573194
0.0009988876337
0.0009989291433
0.0009989855014
0.000999062058
0.0009991700866
0.0009993246636
0.0009995717663
0.0005818038655
0.0003484855643
0.0001965348524
1.203979669e-05
4.366816461e-06
1.66977278e-06
4.681273164e-07
1.681084435e-07
8.417537103e-08
5.794787145e-08
5.129371081e-08
5.131838131e-08
5.355746779e-08
5.728042289e-08
6.292175463e-08
7.141420309e-08
8.268208801e-08
9.672884113e-08
1.146896141e-07
1.379672504e-07
1.681630253e-07
2.079244054e-07
2.605925801e-07
3.302318162e-07
4.225290358e-07
5.473748119e-07
7.163921006e-07
9.479601338e-07
1.266391383e-06
1.709303081e-06
2.33027067e-06
3.212334376e-06
4.489781317e-06
6.427974849e-06
9.61819858e-06
1.53937772e-05
2.668328781e-05
4.98432416e-05
9.874571569e-05
0.0002038874144
0.0004328472659
0.0009365565734
0.001001238786
0.00100029549
0.0009995288749
0.0009991513681
0.0009989671916
0.0009988794201
0.000998840433
0.0009988273542
0.0009988294434
0.0009988421129
0.0009988638514
0.0009988951488
0.0009989377727
0.0009989953474
0.0009990731931
0.0009991823383
0.000999337432
0.0009995828873
0.0005778579811
0.0003430214629
0.0001749103006
7.418742002e-06
2.788997582e-06
8.124348644e-07
2.666681536e-07
1.118905375e-07
6.386440712e-08
4.821251311e-08
4.501076485e-08
4.643042146e-08
4.994107176e-08
5.439688837e-08
6.035328992e-08
6.89168573e-08
8.032832982e-08
9.4733715e-08
1.131278728e-07
1.368275158e-07
1.677461651e-07
2.083901623e-07
2.621654113e-07
3.332029574e-07
4.274544795e-07
5.551190843e-07
7.27837001e-07
9.646895006e-07
1.290395423e-06
1.743737005e-06
2.379581925e-06
3.28338364e-06
4.593870314e-06
6.587032388e-06
9.880242841e-06
1.586412641e-05
2.759043535e-05
5.168009173e-05
0.0001025686831
0.0002119876326
0.0004502132331
0.0009740659746
0.001001183531
0.001000231535
0.0009995003987
0.0009991399523
0.0009989639576
0.0009988801598
0.0009988432111
0.0009988313354
0.0009988343201
0.0009988478265
0.0009988704618
0.0009989027647
0.0009989465255
0.0009990053361
0.0009990844826
0.0009991947241
0.0009993502765
0.0009995939153
0.0005640715589
0.0003414150844
0.0001476367458
4.800366841e-06
1.579902645e-06
4.218941597e-07
1.619943824e-07
7.914983309e-08
5.1045814e-08
4.169109954e-08
4.04961739e-08
4.276705257e-08
4.69705171e-08
5.196782862e-08
5.826247361e-08
6.693951944e-08
7.847774725e-08
9.318582239e-08
1.11960319e-07
1.361278695e-07
1.676690556e-07
2.092124119e-07
2.640493502e-07
3.36479196e-07
4.326801483e-07
5.631751976e-07
7.396512743e-07
9.818568439e-07
1.315002968e-06
1.779021681e-06
2.430186989e-06
3.35644779e-06
4.701295648e-06
6.752088593e-06
1.015405322e-05
1.635892313e-05
2.854926762e-05
5.362842694e-05
0.0001066353317
0.0002206272804
0.0004688011431
0.001001810124
0.001001128025
0.001000170067
0.0009994730374
0.0009991290342
0.0009989609468
0.0009988810013
0.0009988460426
0.0009988353584
0.0009988392456
0.0009988536047
0.0009988771559
0.0009989104849
0.0009989554029
0.000999015465
0.0009990959182
0.000999207229
0.0009993631767
0.0009996048347
0.0005467345872
0.000337637312
8.213887461e-05
3.198867128e-06
7.742320044e-07
2.367869733e-07
1.044447733e-07
5.888541498e-08
4.246380575e-08
3.714997576e-08
3.717728524e-08
4.000885741e-08
4.453563606e-08
4.992747096e-08
5.655050638e-08
6.537403347e-08
7.703972592e-08
9.201961125e-08
1.111616606e-07
1.358541299e-07
1.679309854e-07
2.103889809e-07
2.662655089e-07
3.401044709e-07
4.383001313e-07
5.716628189e-07
7.52011794e-07
9.997136733e-07
1.340561145e-06
1.815640799e-06
2.482750836e-06
3.432452022e-06
4.813348851e-06
6.925019926e-06
1.044247458e-05
1.68828534e-05
2.956819233e-05
5.570444993e-05
0.0001109795044
0.0002298796354
0.0004887722985
0.001001758128
0.001001072323
0.001000111207
0.000999446876
0.0009991186645
0.0009989581854
0.0009988819574
0.0009988489346
0.0009988394294
0.0009988442258
0.0009988594526
0.0009988839376
0.0009989183117
0.000998964404