/*--------------------------------*- C++ -*----------------------------------*\
  =========                 |
  \\      /  F ield         | OpenFOAM: The Open Source CFD Toolbox
   \\    /   O peration     | Website:  https://openfoam.org
    \\  /    A nd           | Version:  12
     \\/     M anipulation  |
\*---------------------------------------------------------------------------*/
FoamFile
{
    format      ascii;
    class       volScalarField;
    location    "50";
    object      omega;
}
// * * * * * * * * * * * * * * * * * * * * * * * * * * * * * * * * * * * * * //

dimensions      [0 0 -1 0 0 0 0];

internalField   nonuniform List<scalar> 
16200
(
588395.7175
234331.0757
140624.6059
107398.2414
93797.9338
84344.7391
69771.33115
49025.4136
21505.84004
6214.536021
3393.347473
1870.331672
630.9710276
123.6000637
66.38852566
44.75009305
30.88748595
21.61502059
15.61461401
11.55978773
8.773089538
6.811396465
5.397026983
4.355833803
3.575331693
2.980987175
2.522009121
2.163333095
1.880530778
1.656779981
1.480939204
1.345138464
1.241992533
1.163949881
1.105138893
1.061964953
1.03192256
1.012440668
1.000688156
0.9940247348
0.9904503854
0.9886589161
0.9878478455
0.9869951183
0.9859007163
0.985295203
0.9850063587
0.9848642276
0.9847950669
0.9847698101
0.9847812586
0.9848346209
0.9849437492
0.9851317883
0.9854325204
0.9858964979
0.9865980789
0.9876551923
0.9892646795
0.9918137756
617771.6394
247910.5397
149941.1483
115602.7199
101177.7157
88757.61354
69927.53832
44108.99027
15661.35673
5564.848052
3320.809157
1784.591701
558.7735279
119.7251504
65.74569317
44.32671516
30.47086106
21.24163726
15.34141193
11.3647045
8.630181425
6.702717912
5.311933668
4.28813997
3.521328924
2.938293326
2.488883873
2.13820975
1.861906065
1.64323599
1.471198884
1.338243654
1.237399221
1.161272575
1.103895092
1.061589784
1.031953362
1.012595592
1.000837369
0.9941319455
0.9905142718
0.9886850017
0.9878626485
0.987069816
0.9859832425
0.9853656076
0.985074179
0.9849347196
0.9848708055
0.9848519995
0.9848701044
0.9849297607
0.9850440137
0.985235491
0.9855370438
0.9859987971
0.986694981
0.9877455735
0.9893550512
0.9919413796
648212.5957
262578.9744
160041.2084
124432.3414
108586.5932
91876.5476
67796.90163
36417.77113
11372.2941
5271.142102
3218.009569
1681.307233
489.2349516
115.5010243
64.91392313
43.75143287
29.95486291
20.80412207
15.02467002
11.13925142
8.464993662
6.577526078
5.214740542
4.211555613
3.460607383
2.890295935
2.451477558
2.109697307
1.840706531
1.627796615
1.460069874
1.330304736
1.23198487
1.157927199
1.102121979
1.060830577
1.031730791
1.01259723
1.000901978
0.9941955443
0.9905578603
0.9887071718
0.9878687764
0.9871198716
0.9860551865
0.9854293753
0.9851369382
0.9850004723
0.9849417894
0.9849291902
0.984953939
0.9850197965
0.9851395504
0.9853347877
0.9856381769
0.9860987894
0.9867912711
0.9878367966
0.9894466978
0.992067569
679038.2468
278048.6614
170676.0524
133436.0277
115033.1484
92876.70567
62576.8223
28261.1126
9146.080148
5073.254545
3073.433664
1554.795878
423.7925413
111.004209
63.88608491
43.00409345
29.32524361
20.30229325
14.66703676
10.88471871
8.277591372
6.435273793
5.10480519
4.125573929
3.392831524
2.836800387
2.409657474
2.077661175
1.816799974
1.610373316
1.447527686
1.321348003
1.225801267
1.153970624
1.099865749
1.059714075
1.031266167
1.012448826
1.000880749
0.9942132522
0.9905788632
0.9887192216
0.9878695209
0.9871475136
0.9861157003
0.9854865608
0.9851949405
0.9850620929
0.9850086643
0.9850022179
0.9850334313
0.9851055968
0.9852309671
0.9854305777
0.9857364384
0.9861971016
0.9868870948
0.9879289583
0.9895399575
0.9921928024
710109.7634
294366.4212
181727.993
142173.5801
119464.8769
91023.0976
53902.74694
20724.71116
7961.837054
4867.229342
2895.193317
1411.303029
364.84118
106.4261911
62.70196407
42.11106384
28.59477702
19.74728112
14.27696789
10.60658122
8.071768707
6.278710623
4.984092746
4.031648275
3.319181807
2.778843537
2.364319072
2.042812874
1.790710505
1.591350884
1.43387047
1.311613457
1.219043302
1.149556884
1.097239418
1.058315429
1.030605358
1.012176141
1.000787442
0.9941922359
0.9905806027
0.9887229576
0.9878676639
0.9871686415
0.9861662379
0.9855378059
0.9852485443
0.9851197814
0.9850716534
0.9850712721
0.9851088746
0.9851873793
0.9853185675
0.9855229829
0.9858320485
0.9862938135
0.9869826371
0.9880222357
0.9896350664
0.9923173766
740760.5071
311492.8503
192982.6929
150087.8806
121375.819
86186.42201
43386.38045
15108.41889
7258.465783
4610.143246
2681.509675
1256.327447
313.3251177
101.9058095
61.3659413
41.08165618
27.77109319
19.14552969
13.85866097
10.30761283
7.84987088
6.10997848
4.854290001
3.93098086
3.240542034
2.717161813
2.316117911
2.005703892
1.762856504
1.571029156
1.41931887
1.301272068
1.211846192
1.144791102
1.094319224
1.056683803
1.029776667
1.011794071
1.000629012
0.9941352725
0.9905640256
0.9887184922
0.9878635705
0.987183951
0.9862070058
0.9855832431
0.9852979502
0.985173798
0.985131055
0.9851366695
0.9851806016
0.9852654719
0.9854026708
0.9856122996
0.9859252526
0.9863891096
0.9870780421
0.9881167471
0.9897322057
0.9924415531
770423.1106
329187.7842
203952.4651
156268.5313
120406.1351
77470.05522
33298.22347
11947.08899
6749.698239
4298.81674
2440.362999
1099.122812
269.471472
97.56953944
59.8866966
39.92784158
26.8689709
18.50738953
13.41681908
9.990406076
7.614105236
5.931228514
4.717223437
3.824964707
3.15796811
2.652619025
2.265812248
1.966990042
1.733759994
1.549792231
1.404150361
1.290530187
1.204368192
1.13979457
1.091193932
1.054878937
1.028816857
1.011323364
1.000416258
0.9940476351
0.990531472
0.9887066568
0.987857527
0.9871941431
0.9862390424
0.9856234223
0.9853435224
0.9852244632
0.9851871898
0.9851987478
0.9852489588
0.9853402256
0.9854836139
0.9856988376
0.9860163197
0.9864832042
0.9871734606
0.9882126069
0.9898315198
0.9925655379
798459.5739
346858.2654
214134.3752
159922.5443
116740.7034
64879.68177
24433.53441
10156.94227
6283.51236
3949.875448
2183.668155
942.7499964
233.2065256
93.52595162
58.28220762
38.66142664
25.90291623
17.8424092
12.95467667
9.656589136
7.366132296
5.744179717
4.574429914
3.714868719
3.072483012
2.586028372
2.214097475
1.927259346
1.703876345
1.527954801
1.388626501
1.279572185
1.196744272
1.134667975
1.087936822
1.052950587
1.027756916
1.010781771
1.000158564
0.9939339019
0.9904849807
0.9886881556
0.9878497019
0.9871997801
0.9862632036
0.9856587749
0.9853855592
0.9852720492
0.9852403412
0.9852578094
0.9853142649
0.985411966
0.9855617175
0.9857828975
0.9861055133
0.9865763102
0.9872690489
0.9883099239
0.9899331253
0.992689502
823657.1779
363998.6801
223322.4545
161604.243
110550.2741
52140.30495
18198.08964
9046.160901
5803.857826
3580.753919
1922.26287
792.8654677
204.0816116
89.76050227
56.55154483
37.28095375
24.8784019
17.15370734
12.47409048
9.308034855
7.108160398
5.550745257
4.427428744
3.6019437
2.985108007
2.518301125
2.161755333
1.887191359
1.673772997
1.505945985
1.372947559
1.268571484
1.189097228
1.129501307
1.08461348
1.050944061
1.026625795
1.01018633
0.9998651865
0.9937987465
0.9904267287
0.9886638099
0.9878402023
0.9872013357
0.9862804797
0.985689816
0.9854244017
0.9853168484
0.9852907993
0.985314156
0.9853768334
0.9854810129
0.9856372967
0.9858647771
0.9861930982
0.9866686447
0.9873649664
0.9884088025
0.9900371118
0.9928135814
844654.3722
380396.4472
230970.6876
161307.2171
100249.6124
40321.2164
14554.93437
8185.609338
5296.903657
3201.051433
1664.643163
653.0877654
180.5039989
86.17223508
54.6697198
35.77689224
23.79625747
16.44298509
11.97697454
8.947796269
6.843363902
5.353265841
4.277783081
3.487382342
2.896887266
2.450277649
2.109474223
1.847354204
1.643907687
1.484110332
1.357392819
1.257677702
1.181529291
1.124368016
1.08127752
1.048897055
1.025448159
1.009551908
0.9995444008
0.9936464444
0.9903587632
0.9886344388
0.9878290927
0.987199189
0.9862918246
0.9857170432
0.9854603754
0.9853591353
0.9853388331
0.9853680687
0.9854369585
0.985547669
0.9857106531
0.9859447644
0.9862793338
0.9867604228
0.9874613719
0.9885093433
0.9901435455
0.9929378826
860993.7805
396600.1673
236720.6627
160605.3851
85404.66642
29774.07863
12252.2881
7445.893208
4778.168169
2826.909367
1420.094835
530.9898619
161.6590632
82.71339198
52.65414892
34.16979773
22.67267497
15.7171595
11.46710241
8.57949064
6.574775528
5.153969089
4.127213495
3.372424911
2.808773391
2.382745828
2.057886093
1.808247454
1.614673386
1.462739325
1.342158976
1.24701574
1.174123255
1.119326675
1.077971978
1.046840501
1.024244799
1.008891372
0.9992035481
0.9934808791
0.9902829947
0.9886008558
0.9878164156
0.9871936405
0.9862981572
0.9857409447
0.9854937996
0.9853991749
0.9853847006
0.9854198147
0.98549492
0.9856122231
0.9857820759
0.986023138
0.9863644733
0.9868518567
0.9875584217
0.9886116409
0.990252472
0.9930624851
873287.7758
412578.4968
241738.1592
156441.8068
70256.77355
22710.50011
10731.75583
6778.686175
4278.152208
2469.86558
1195.84756
431.3610007
146.785924
79.42554651
50.55362984
32.50373812
21.53815935
14.99009985
10.95229021
8.207619334
6.304320957
4.954338171
3.977138255
3.258267636
2.721671228
2.316418579
2.007550554
1.770292557
1.586387873
1.442066411
1.32740298
1.23668328
1.166942043
1.114421257
1.074729605
1.04479865
1.023032563
1.008215463
0.9988489169
0.993305458
0.9902011427
0.988563838
0.9878022054
0.9871849278
0.9863003339
0.9857619855
0.9855249809
0.9854372202
0.985428646
0.9854696466
0.9855509827
0.9856749496
0.9858518414
0.9861001653
0.9864487618
0.986943153
0.9876562673
0.9887157823
0.9903639185
0.9931874447
882103.8106
427055.7718
246122.4022
146468.6694
56196.84044
18245.13856
9592.779697
6131.938411
3794.370692
2129.806584
991.8227486
353.5946193
134.8537073
76.1948309
48.33235752
30.77510187
20.39835364
14.26861116
10.44223036
7.839358382
6.03528721
4.755460134
3.828544457
3.146030234
2.636483197
2.251940705
1.95894238
1.733830364
1.559293773
1.422265982
1.313241853
1.226751979
1.160030585
1.109682956
1.071574231
1.042789898
1.021824761
1.007532959
0.9984857946
0.9931231175
0.9901147246
0.9885241108
0.9877864956
0.9871732391
0.9862991354
0.9857805988
0.9855542078
0.9854735099
0.9854708988
0.985517802
0.9856053965
0.9857361081
0.9859202123
0.986176102
0.9865324351
0.9870345117
0.9877550585
0.9888218474
0.9904778951
0.9933127952
887688.3377
438913.8037
252986.1466
129305.7915
43027.74016
15146.24181
8621.193349
5500.983609
3324.518857
1809.685991
807.4438706
294.6801724
124.9877464
72.89633354
45.94190101
28.96563637
19.23847598
13.53890097
9.934542395
7.479401673
5.772316019
4.55968186
3.682437108
3.036636206
2.554060585
2.189891281
1.912438399
1.699115546
1.533561093
1.403455842
1.299754507
1.217269426
1.153417861
1.105131955
1.068522055
1.040827576
1.020631575
1.006850857
0.9981185331
0.9929363403
0.9900250538
0.9884823372
0.9877693245
0.9871587274
0.9862952621
0.9857971832
0.9855817501
0.985508268
0.9855116755
0.9855645051
0.9856583972
0.9857959444
0.985987438
0.9862511919
0.9866157185
0.987126125
0.9878549358
0.9889299085
0.990594396
0.9934385516
890696.8357
448911.0042
255321.4812
112117.2703
32923.9069
12998.70885
7741.777767
4886.397479
2877.021765
1513.755908
651.707998
250.2562718
116.6196995
69.49097371
43.39753082
27.1147338
18.07881947
12.80389781
9.426080545
7.123630333
5.516726284
4.369990159
3.540548075
2.930919504
2.475071247
2.130753968
1.868319366
1.666318139
1.509294485
1.385704197
1.287009578
1.208262603
1.147119643
1.100779518
1.065583112
1.038920871
1.019460572
1.006174622
0.997750658
0.9927471959
0.9899332506
0.9884391119
0.9877507361
0.9871415201
0.9862893325
0.9858120988
0.9856078564
0.9855417032
0.9855511784
0.9856099661
0.9857102069
0.9858546901
0.986053754
0.9863256659
0.9866988266
0.9872181753
0.9879560315
0.9890400288
0.9907134008
0.9935647116
892446.8003
454877.9695
247618.8936
95683.3713
25819.03053
11357.8885
6921.781312
4296.220541
2459.110574
1245.684014
528.05743
217.0985207
109.3461383
65.96193918
40.73523068
25.27968264
16.95190766
12.08158477
8.927604831
6.773615057
5.266388532
4.187486497
3.404677922
2.829759686
2.399957562
2.074868306
1.826776046
1.635531761
1.486542143
1.36903619
1.274999102
1.199741605
1.141141156
1.09662992
1.062762605
1.037075666
1.018317178
1.005508437
0.997384984
0.9925573902
0.9898402606
0.988394961
0.9877307812
0.9871217276
0.9862818865
0.985825669
0.9856327545
0.9855740101
0.9855895978
0.9856543832
0.9857610347
0.9859125638
0.986119383
0.9863997423
0.9867819622
0.9873108356
0.9880584697
0.9891522617
0.9908348752
0.9936912559
894071.5746
454671.6184
228951.1842
77668.68768
20647.59985
10056.5049
6167.321362
3749.768637
2075.668396
1008.371327
434.4030854
192.0210026
102.894299
62.30619691
37.99795234
23.5096976
15.87837817
11.38198648
8.44680621
6.435582604
5.023627952
4.01205277
3.275443091
2.733926897
2.329052703
2.022431449
1.787917599
1.606787825
1.465307201
1.353447354
1.263720149
1.19170372
1.13547982
1.092682328
1.06006218
1.035295349
1.017205152
1.004855452
0.9970237352
0.9923683174
0.9897468747
0.9883503432
0.9877095171
0.9870994488
0.9862733889
0.9858381794
0.9856566513
0.9856053683
0.9856271111
0.9856979423
0.9858110772
0.9859697705
0.9861845337
0.9864736265
0.9868653162
0.9874042674
0.9881623643
0.9892666497
0.9909587707
0.993818149
895879.6825
447209.8343
198781.821
59378.0187
16941.22806
8951.360873
5455.021347
3236.431914
1725.644194
815.2641252
363.6460697
172.4681416
96.94645131
58.46261883
35.20409996
21.83108068
14.87057248
10.71675953
7.987029504
6.111856941
4.79188044
3.84451897
3.153032468
2.643925174
2.262650793
1.97352831
1.751773436
1.580066498
1.445556789
1.338914139
1.253153742
1.184136563
1.130127247
1.088932147
1.057480839
1.0335814
1.016126934
1.004217969
0.9966686402
0.9921811041
0.989653748
0.988305654
0.9876870077
0.9870747734
0.9862642352
0.9858498814
0.9856797348
0.985635945
0.9856638852
0.985740818
0.9858605188
0.9860265027
0.9862494021
0.9865475107
0.9869490671
0.9874986209
0.988267818
0.9893832238
0.9910850257
0.9939453407
897823.0685
431433.5129
173379.4804
46031.55887
14239.24707
7956.946459
4779.463805
2753.834392
1409.913257
667.3033508
310.7107678
156.6619364
91.14501379
54.42757494
32.40054207
20.25065257
13.92335271
10.09044599
7.552403615
5.804535254
4.572382517
3.686140892
3.03824508
2.560045499
2.200963038
1.9281649
1.718304215
1.555309705
1.427233291
1.325385753
1.243270265
1.177021352
1.125071278
1.085372349
1.055015811
1.031933949
1.015083977
1.003597633
0.9963210245
0.9919966508
0.9895614172
0.9882612288
0.9876633234
0.9870477836
0.986254756
0.9858609931
0.9857021743
0.9856658947
0.9857000759
0.9857831742
0.9859095321
0.98608294
0.9863141708
0.986621574
0.9870333804
0.9875940338
0.9883749215
0.9895020023
0.9912135653
0.9940727675
899989.7509
406290.4119
154616.7141
36488.63748
12233.64228
7056.845304
4150.730695
2308.739466
1150.206243
554.5683544
270.9549778
143.4754332
85.06299703
50.26174326
29.67681653
18.7804225
13.03379873
9.499915091
7.144153442
5.515916474
4.366381917
3.537995514
2.931512189
2.482318502
2.144015513
1.886274316
1.68741325
1.532428441
1.410259648
1.312806212
1.234032485
1.170334643
1.120297002
1.081994107
1.052662989
1.030352064
1.014076929
1.002995531
0.9959818646
0.9918156581
0.9894703126
0.9882173479
0.9876385419
0.9870185528
0.9862452234
0.9858717033
0.9857241233
0.9856953611
0.9857358299
0.9858251645
0.9859582784
0.9861392498
0.9863790097
0.9866959826
0.9871184086
0.9876906311
0.9884837526
0.9896229905
0.9913443005
0.9942003531
901285.1525
376844.775
137204.9403
29351.87598
10684.23381
6233.094573
3570.327769
1905.870915
948.9677001
469.7721852
240.333739
132.1157657
78.85181722
46.0405788
27.11263931
17.42670255
12.20488782
8.945660543
6.762254067
5.247192298
4.174931654
3.400802004
2.832920768
2.410657024
2.091654627
1.847732186
1.65896981
1.511314926
1.394549744
1.301113544
1.225399285
1.164050573
1.115788079
1.078787638
1.050417464
1.028834097
1.013105844
1.002412314
0.9956518501
0.9916386556
0.9893807703
0.9881742409
0.9876127493
0.9869871437
0.9862358562
0.9858821742
0.9857457205
0.9857244779
0.9857712836
0.9858669319
0.9860069075
0.9861955871
0.9864440757
0.9867708891
0.9872042909
0.9877885241
0.9885943754
0.9897461798
0.9914771291
0.9943280097
901832.8194
353456.1965
117499.0233
23773.4916
9390.44982
5467.246708
3032.994343
1580.022914
793.7117936
406.7296552
215.9894105
122.0918613
72.49719336
41.85174387
24.7590258
16.18554141
11.4367939
8.430497378
6.407222592
4.998555089
3.998432545
3.274605054
2.742316168
2.34491286
2.043650048
1.812365124
1.632819376
1.491847623
1.380010753
1.290241896
1.217326993
1.158141569
1.111527108
1.075742404
1.048273674
1.027377787
1.012170253
1.001848244
0.9953314124
0.9914660168
0.9892930399
0.9881320922
0.9875860422
0.9869536056
0.9862268269
0.985892545
0.985767092
0.9857533693
0.9858065653
0.9859086098
0.9860555582
0.986252095
0.9865095132
0.9868464334
0.9872911529
0.9878878105
0.9887068402
0.9898715471
0.9916119357
0.9944556378
899467.3065
331163.8661
99456.37567
19560.21053
8300.079276
4771.817991
2552.530245
1318.209728
675.6086987
358.4308174
195.9298917
113.0850737
66.13410313
37.81563647
22.63863634
15.05244911
10.72864956
7.955237392
6.079808615
4.769935284
3.836703895
3.15913299
2.659412676
2.284841991
1.999745588
1.779963914
1.608792461
1.473897471
1.366546898
1.280123907
1.209770868
1.152579212
1.107496114
1.072847407
1.046225594
1.025980396
1.01126926
1.001303255
0.9950207589
0.991297977
0.9892072926
0.988091047
0.9875585294
0.9869179698
0.9862182688
0.9859029359
0.9857883532
0.9857821511
0.9858417933
0.985950321
0.9861043578
0.9863089047
0.9865754536
0.9869227416
0.9873791061
0.9879885729
0.9888211817
0.9899990536
0.9917485908
0.9945831278
892724.1296
319049.3399
82846.74019
16432.4868
7390.805462
4151.876382
2146.578056
1112.92573
587.8592572
320.3853853
178.8169465
104.6537092
59.89503269
34.06815002
20.75157864
14.02251017
10.07941886
7.519573255
5.779979205
4.561065627
3.689303063
3.05398773
2.583901464
2.230100423
1.959648169
1.750296784
1.586711319
1.457332345
1.354062035
1.270692296
1.202686121
1.147334855
1.103676895
1.070091412
1.044266894
1.024638828
1.010401627
1.000777009
0.9947199093
0.991134654
0.9891236325
0.9880512205
0.9875303362
0.9868802458
0.9862102857
0.9859134524
0.9858096101
0.9858109308
0.9858770778
0.9859921785
0.9861534229
0.9863661354
0.9866420163
0.9869999267
0.9874682477
0.9880908794
0.9889374181
0.9901286441
0.991886952
0.9947103604
881174.2526
313156.7344
68004.18899
14236.05314
6633.074957
3599.207403
1817.509259
957.4781723
519.8951385
289.0834979
163.8100755
95.94735909
53.94341902
30.70456295
19.08623183
13.09129128
9.487890471
7.122701851
5.507214481
4.371477499
3.555622666
2.958628722
2.515322326
2.18029128
1.923045572
1.723124542
1.566397905
1.44202201
1.342462643
1.261881816
1.196029211
1.142380468
1.100051569
1.067463303
1.042391185
1.023349804
1.009565896
1.000268978
0.9944287444
0.9909760757
0.98904211
0.9880127088
0.9875016077
0.9868404157
0.9862029614
0.9859241894
0.9858309612
0.9858398077
0.9859125189
0.9860342847
0.9862028589
0.9864238946
0.9867093072
0.9870780875
0.9875586597
0.9881947808
0.9890555508
0.9902602458
0.9920268622
0.9948372072
865174.2534
300511.2367
54517.93805
12726.82033
5967.005883
3108.897026
1562.495262
841.8451824
465.557159
262.2766738
150.4109645
87.2953735
48.41075647
27.76166518
17.62460499
12.25385375
8.952252944
6.763416595
5.26061988
4.200210193
3.43480331
2.872367704
2.453134225
2.134981089
1.889613005
1.698204946
1.547675604
1.427838925
1.331658098
1.253629399
1.189757971
1.137688756
1.096602664
1.064952169
1.040592107
1.02210995
1.008760464
0.9997785023
0.9941470453
0.9908222048
0.9889627355
0.9879756005
0.9874725143
0.9868005271
0.9861963697
0.985935236
0.9858524985
0.9858688733
0.985948208
0.9860767323
0.9862527605
0.9864822782
0.98677742
0.9871573089
0.9876504089
0.9883003119
0.9891755632
0.9903937684
0.9921681507
0.9949635324
844981.9338
280716.2523
43427.75948
11516.177
5379.399308
2692.148538
1374.17722
751.5150214
420.23335
238.6150883
138.2800112
78.80681624
43.39780232
25.2298587
16.34721263
11.50503865
8.470200147
6.440003661
5.038796105
4.04602967
3.325860209
2.794422499
2.396757843
2.093733011
1.859032882
1.675304436
1.530376698
1.41466304
1.321563737
1.245876289
1.183833095
1.133234221
1.093313851
1.06254781
1.038863683
1.020916046
1.007983751
0.9993048933
0.9938745581
0.9906729754
0.9888854968
0.9879399908
0.9874431735
0.9867625077
0.9861905844
0.985946678
0.9858743079
0.9858982108
0.9859842267
0.9861196035
0.9863032117
0.9865413704
0.9868464352
0.9872376612
0.9877435456
0.98840749
0.9892974204
0.9905291033
0.9923106329
0.9950891928
820409.1961
250993.1991
34935.25635
10516.63119
4852.09313
2368.668652
1233.00141
679.1143073
381.4325326
217.4432086
126.7905968
70.73454986
38.96171751
23.07274826
15.23459618
10.83914995
8.038801461
6.150253034
4.839958336
3.907510811
3.227737991
2.72398255
2.345612671
2.056123604
1.831003197
1.65420392
1.514345724
1.402384151
1.312102402
1.238569167
1.178219007
1.128993814
1.090170418
1.060241093
1.037200587
1.019765223
1.007234341
0.9988475268
0.9936110498
0.9905283258
0.988810375
0.9879059978
0.9874136402
0.9867264046
0.9861856859
0.9859586005
0.9858964701
0.9859278956
0.9860206477
0.9861629711
0.9863542861
0.9866012438
0.9869164202
0.9873192002
0.9878381041
0.9885163138
0.9894210683
0.9906661233
0.9924541107
0.9952140378
791510.9684
216822.1934
28336.85758
9645.799923
4356.283428
2135.628895
1122.860987
619.0678343
347.620354
198.4985658
114.9235924
63.25112312
35.1155389
21.24294679
14.26758076
10.2496522
7.654418093
5.891512046
4.662060654
3.783107627
3.139349175
2.660257485
2.299136419
2.021753742
1.805242251
1.634702846
1.499441702
1.390903236
1.303205325
1.231660822
1.17288439
1.124947366
1.087159604
1.058024194
1.035598323
1.018655099
1.006511076
0.9984059081
0.9933563496
0.9903882228
0.9887373533
0.9878737782
0.9873839791
0.9866922929
0.9861817637
0.9859710874
0.9859190587
0.9859579938
0.9860575339
0.9862068979
0.9864060465
0.986661959
0.9869874285
0.9874019658
0.9879341008
0.9886267628
0.9895464317
0.9908046821
0.9925983719
0.9953379106
758298.3584
182815.4165
23406.19447
8858.3855
3919.249978
1955.242747
1033.491127
568.1524455
318.0503226
181.7779911
103.4994578
56.53519024
31.83843372
19.69470651
13.42907227
9.730061788
7.313285472
5.661090098
4.503111732
3.671429645
3.0596853
2.602541295
2.256826919
1.990272957
1.78150349
1.616628134
1.485543983
1.380136152
1.294814617
1.225111892
1.167803431
1.121078463
1.084271185
1.055891008
1.034053507
1.017583965
1.005813177
0.9979797393
0.9931103869
0.9902526833
0.988666422
0.987843538
0.9873542607
0.9866602774
0.9861789149
0.9859842191
0.9859421397
0.9859885626
0.9860949394
0.9862514374
0.9864585453
0.9867235644
0.9870595
0.9874859819
0.9880315341
0.9887387968
0.9896734144
0.9909446133
0.9927431909
0.9954606487
721454.8274
151232.6189
19823.99804
8130.114213
3597.325727
1811.631788
958.525492
524.1913059
292.2285204
166.8383007
92.79907364
50.66954747
29.07928525
18.38439912
12.70248237
9.273232448
7.011182084
5.456110903
4.361115361
3.571170624
2.987779261
2.550175349
2.218217838
1.96136035
1.75956385
1.599824367
1.472545534
1.370008916
1.286879922
1.218888552
1.16295425
1.117373413
1.081496814
1.053836714
1.032563591
1.016550621
1.005140148
0.997568874
0.99287317
0.9901217643
0.9885975644
0.9878146796
0.9873245533
0.9866304789
0.9861772354
0.9859980679
0.9859657687
0.9860196494
0.9861329087
0.9862966333
0.9865118239
0.9867860956
0.9871326593
0.9875712556
0.9881303832
0.9888523541
0.9898018991
0.9910857298
0.9928883291
0.995582085
681578.0647
122964.2069
17404.26407
7428.771226
3344.25247
1690.818445
893.5481983
485.857446
269.8697604
152.3477606
83.18816217
45.67173162
26.77569986
17.27457362
12.07308828
8.872310641
6.744035948
5.273877663
4.234261029
3.481126052
2.922777346
2.502578194
2.182902154
1.934737739
1.73923243
1.584159257
1.460355996
1.36045969
1.279359633
1.212963285
1.158319388
1.113821534
1.078830174
1.051857852
1.031126895
1.015554377
1.004491775
0.9971733072
0.9926447767
0.989995558
0.9885307856
0.9877854113
0.9872949185
0.9866030152
0.9861768097
0.9860126929
0.9859899896
0.9860512913
0.9861714772
0.9863425192
0.9865659122
0.9868495745
0.9872069154
0.9876577756
0.9882306068
0.9889673508
0.989931744
0.9912278231
0.9930335346
0.9957020477
639396.6982
98754.78772
15912.86306
6880.960208
3139.449154
1586.626361
836.296316
452.2763646
250.6947044
138.5319981
74.77555565
41.48871835
24.86161997
16.33262123
11.52734053
8.520581816
6.507884482
5.111836143
4.120851575
3.400142317
2.86391656
2.459224871
2.150521943
1.910161326
1.720343682
1.569519355
1.448898319
1.351436373
1.272219095
1.207313542
1.153884814
1.110414438
1.07626646
1.049951946
1.029742337
1.014594874
1.003868007
0.9967931069
0.9924253139
0.9898741696
0.9884661722
0.9877557975
0.9872654036
0.9865779772
0.9861776985
0.9860281337
0.9860148311
0.9860835134
0.9862106683
0.9863891161
0.9866208249
0.9869140058
0.9872822572
0.9877455076
0.9883321377
0.9890836745
0.9900627777
0.9913706593
0.9931785367
0.9958203569
595894.9331
78998.89121
14890.20178
6456.445788
2971.739686
1497.241471
786.3040458
423.1992595
233.6582568
125.8966385
67.58694033
38.02936963
23.27308281
15.5303112
11.05286877
8.2116145
6.298953402
4.967598792
4.01931454
3.327144477
2.810497399
2.419637491
2.120755592
1.887411876
1.70274924
1.555803655
1.438104074
1.342892917
1.265427826
1.201919614
1.149638326
1.107144853
1.073801528
1.048116888
1.028408998
1.01367179
1.003268775
0.9964283042
0.9922148558
0.9897576796
0.9884037928
0.9877259015
0.9872360329
0.9865554086
0.9861799306
0.9860444098
0.986040309
0.9861163312
0.9862504969
0.9864364349
0.9866765651
0.9869793801
0.9873586573
0.9878343991
0.9884348882
0.9892011911
0.9901948079
0.991513986
0.9933230546
0.9959368319
551516.5718
63724.60001
14270.81916
6125.463321
2833.86523
1421.906934
743.7911727
398.6404382
216.5167501
114.5022857
61.52588591
35.18319262
21.95047592
14.84253312
10.63807525
7.939111201
6.11351782
4.838819473
3.928105072
3.261101523
2.761838315
2.383352244
2.093288424
1.866278227
1.686305604
1.542914561
1.427907345
1.334784965
1.25895642
1.196762425
1.145567997
1.104005545
1.071431164
1.046350438
1.027125797
1.012784637
1.002693868
0.9960788273
0.992013407
0.9896461247
0.9883436898
0.9876957857
0.9872067998
0.986535297
0.9861835014
0.9860615206
0.9860664267
0.9861497508
0.986290968
0.9864844751
0.9867331221
0.9870456719
0.9874360701
0.9879243767
0.9885387475
0.989319742
0.9903276181
0.9916575305
0.9934667964
0.9960512904
506644.1753
52774.75772
13942.41213
5861.998017
2720.987232
1359.921983
708.9630567
378.3512374
200.1009387
104.4711521
56.46208024
32.84312304
20.84314487
14.24872352
10.27328765
7.697659851
5.948320669
4.723419629
3.845838422
3.201108635
2.717330782
2.349953707
2.06783539
1.84657359
1.670885394
1.530765596
1.418249769
1.327073226
1.252778792
1.191824983
1.141663114
1.100989924
1.069151457
1.04465045
1.025891619
1.011932834
1.00214298
0.9957445263
0.9918209162
0.989539506
0.9882858858
0.9876655143
0.9871776577
0.9865175811
0.9861883781
0.9860794497
0.9860931773
0.9861837692
0.9863320766
0.9865332237
0.9867904704
0.9871128387
0.9875144302
0.9880153446
0.98864358
0.9894391423
0.990460966
0.9918009996
0.9936094584
0.9961635508
461972.841
45086.08509
13753.20354
5653.292501
2630.498907
1310.930726
681.9009149
359.9524188
184.8827706
95.77852797
52.25868572
30.91491638
19.90943448
13.73246716
9.950716164
7.482708289
5.800512007
4.619530804
3.771264392
3.14633885
2.676422117
2.319066208
2.044143321
1.828127587
1.656373255
1.519278155
1.409078156
1.31972189
1.246871144
1.187091753
1.137913854
1.098091862
1.066958724
1.043014859
1.024705344
1.011115752
1.001615747
0.9954252022
0.9916372963
0.9894378022
0.988230395
0.9876351572
0.9871485092
0.9865021677
0.9861945104
0.9860981708
0.9861205465
0.9862183749
0.9863738061
0.9865826533
0.9868485676
0.9871808185
0.98759365
0.988107182
0.9887492233
0.9895591789
0.9905945822
0.9919440783
0.9937507254
0.9962734314
417933.7063
39665.65577
13601.0163
5486.354559
2559.62391
1273.940918
661.9966993
340.7046925
171.072514
88.34201075
48.76822093
29.31258781
19.11303288
13.27949281
9.663517777
7.29011139
5.667398541
4.525391133
3.703231505
3.096016986
2.63859973
2.290352745
2.022000459
1.810783488
1.642664638
1.508381505
1.400345091
1.312699347
1.241212712
1.182549385
1.134311863
1.095306219
1.064849949
1.041442029
1.023566108
1.010332904
1.001111881
0.9951206938
0.9914624775
0.9893410024
0.9881772459
0.9876048003
0.9871191914
0.9864889555
0.9862018423
0.9861176516
0.9861485115
0.9862535438
0.9864161234
0.9866327164
0.9869073472
0.9872495215
0.9876736103
0.9881997326
0.9888554752
0.9896795967
0.9907281557
0.9920864141
0.9938902575
0.9963807361
374941.3288
35826.86921
13425.98298
5356.062163
2508.345887
1249.024499
647.6085681
322.3262513
158.6945586
82.03433006
45.86781882
27.97001839
18.42702517
12.87941501
9.406729848
7.116733706
5.546853128
4.439608763
3.640831868
3.049528952
2.603459426
2.263552168
2.001240242
1.794419861
1.629677926
1.498021487
1.392014781
1.30598217
1.235788517
1.178188565
1.130851561
1.092629718
1.062823348
1.039931125
1.02247355
1.009584094
1.000631253
0.9948309241
0.9912964322
0.9892491204
0.9881264938
0.9875745574
0.9870894519
0.9864778528
0.9862103233
0.9861378616
0.9861770464
0.9862892445
0.9864589838
0.9866833508
0.9869667266
0.9873188394
0.9877541709
0.9882928169
0.9889621094
0.9898001167
0.9908613545
0.9922276415
0.9940277122
0.9964852729
333099.1579
33059.0817
13171.57527
5253.3615
2474.69157
1235.436497
631.0134965
304.0281666
147.708715
76.68433821
43.43684246
26.82939974
17.82774164
12.52238882
9.175319506
6.959447785
5.436805319
4.360839069
3.583149886
3.006317633
2.570637333
2.238415898
1.981661224
1.778936764
1.617344771
1.488153983
1.384058859
1.299552448
1.230587638
1.174002951
1.127529527
1.090060594
1.060878203
1.038482045
1.021427787
1.008869426
1.000173909
0.9945559138
0.9911391869
0.9891622041
0.9880782325
0.9875445948
0.9870589151
0.986468788
0.9862199133
0.9861587726
0.9862061211
0.9863254353
0.9865023292
0.9867344787
0.9870266044
0.9873886428