/*--------------------------------*- C++ -*----------------------------------*\
  =========                 |
  \\      /  F ield         | OpenFOAM: The Open Source CFD Toolbox
   \\    /   O peration     | Website:  https://openfoam.org
    \\  /    A nd           | Version:  12
     \\/     M anipulation  |
\*---------------------------------------------------------------------------*/
FoamFile
{
    format      ascii;
    class       volScalarField;
    location    "0.12";
    object      k;
}
// * * * * * * * * * * * * * * * * * * * * * * * * * * * * * * * * * * * * * //

dimensions      [0 2 -2 0 0 0 0];

internalField   nonuniform List<scalar> 
16000
(
0.04938771
0.021622266
0.022477159
0.016524421
0.014020149
0.012692407
0.011903921
0.011432246
0.011112696
0.010897527
0.0107388
0.010620671
0.010528475
0.010455493
0.010396763
0.010349226
0.010310409
0.010278629
0.01025268
0.010231217
0.010213692
0.010199405
0.010187914
0.010178683
0.010171506
0.01016599
0.010161971
0.010159277
0.010157767
0.010157311
0.010157785
0.010159086
0.010161133
0.010163857
0.010167198
0.0101711
0.010175505
0.010180357
0.0101856
0.010191179
0.01019703
0.010203083
0.010209273
0.010215531
0.010221781
0.010227951
0.010233979
0.010239814
0.010245412
0.010250725
0.010255706
0.010260303
0.010264463
0.010268136
0.010271278
0.010273849
0.010275812
0.010277124
0.010277736
0.010277585
0.010276583
0.010274623
0.010271612
0.010267447
0.01026202
0.010255209
0.010246849
0.010236671
0.010224249
0.01020895
0.010189854
0.010165124
0.010132851
0.010106881
0.010086182
0.010071732
0.010062879
0.010073446
0.010046894
0.010065233
0.045169374
0.020451263
0.021032304
0.015979096
0.013675457
0.01248984
0.011741631
0.011315912
0.011012223
0.010814328
0.010665892
0.010556528
0.010470754
0.01040326
0.010349015
0.010305328
0.010269843
0.010240942
0.010217609
0.010198461
0.01018303
0.010170638
0.010160929
0.010153323
0.010147688
0.010143615
0.010140946
0.010139517
0.010139193
0.010139853
0.010141375
0.010143659
0.010146619
0.010150186
0.0101543
0.010158904
0.010163943
0.010169361
0.010175102
0.010181112
0.010187331
0.010193693
0.010200131
0.010206581
0.010212972
0.010219231
0.010225298
0.010231122
0.010236662
0.010241878
0.010246726
0.010251161
0.010255135
0.010258601
0.010261518
0.010263849
0.01026556
0.010266612
0.010266962
0.010266553
0.010265305
0.010263116
0.010259887
0.01025551
0.010249875
0.010242858
0.010234297
0.010223937
0.010211348
0.010195859
0.010176628
0.010152366
0.010121336
0.010096523
0.010076894
0.010062523
0.010055908
0.010061544
0.010046331
0.010065309
0.042328522
0.019624982
0.019702737
0.015417035
0.013323089
0.012263334
0.011573556
0.011189791
0.010909485
0.010729798
0.010592543
0.010492387
0.010413515
0.010351801
0.010302348
0.010262744
0.010230814
0.010204982
0.010184432
0.010167753
0.01015456
0.010144181
0.010136367
0.010130482
0.010126475
0.010123924
0.010122678
0.010122581
0.010123504
0.01012533
0.010127946
0.010131248
0.010135151
0.010139584
0.010144487
0.010149801
0.010155472
0.010161444
0.010167661
0.010174069
0.010180614
0.010187228
0.01019385
0.010200417
0.010206864
0.010213119
0.010219125
0.010224834
0.010230207
0.01023521
0.010239806
0.010243958
0.010247622
0.010250755
0.010253321
0.010255285
0.010256617
0.010257285
0.010257248
0.010256454
0.010254833
0.010252286
0.010248715
0.010244008
0.010238047
0.010230709
0.010221833
0.01021117
0.010198303
0.010182528
0.010162955
0.010138791
0.010109155
0.010085747
0.010067275
0.010053974
0.010048671
0.010051811
0.010046115
0.010064022
0.039177497
0.019067052
0.018550365
0.014912887
0.013003964
0.012058429
0.011419603
0.011074589
0.01081512
0.010651953
0.010525384
0.010433744
0.010361457
0.010305212
0.010260344
0.010224646
0.01019614
0.010173266
0.010155413
0.010141137
0.010130135
0.010121717
0.010115764
0.010111571
0.010109159
0.010108103
0.010108255
0.010109466
0.010111608
0.010114571
0.010118244
0.010122524
0.010127325
0.010132573
0.010138205
0.010144163
0.010150391
0.010156835
0.010163439
0.010170149
0.010176914
0.010183672
0.010190362
0.010196927
0.010203306
0.010209434
0.010215253
0.010220721
0.010225803
0.010230471
0.010234696
0.010238445
0.010241684
0.010244374
0.01024648
0.010247974
0.010248828
0.010249014
0.010248497
0.01024723
0.010245147
0.010242159
0.010238166
0.010233053
0.010226697
0.010218971
0.010209715
0.010198685
0.010185481
0.010169405
0.010149461
0.010125175
0.010097103
0.010075121
0.010057883
0.010045753
0.010040939
0.010043093
0.010044708
0.010062679
0.035658654
0.018749818
0.017558822
0.014445662
0.012706811
0.011864601
0.011275173
0.010965912
0.010726976
0.010579287
0.010463197
0.010379683
0.010313843
0.01026291
0.01022254
0.010190669
0.010165538
0.01014558
0.010130397
0.010118506
0.010109695
0.010103236
0.01009914
0.010096655
0.010095824
0.010096264
0.010097813
0.010100326
0.010103678
0.010107761
0.010112467
0.010117694
0.010123352
0.010129364
0.010135666
0.010142198
0.010148904
0.01015573
0.010162622
0.010169527
0.010176397
0.010183176
0.010189807
0.010196236
0.010202412
0.010208275
0.010213772
0.010218863
0.01022352
0.01022772
0.010231443
0.010234665
0.010237355
0.010239483
0.010241017
0.010241929
0.010242199
0.010241801
0.010240705
0.010238869
0.010236232
0.010232712
0.010228211
0.010222611
0.010215782
0.010207593
0.010197886
0.010186418
0.010172802
0.010156388
0.010136081
0.010111406
0.010085252
0.010064748
0.010048839
0.010037861
0.01003331
0.010035258
0.01004125
0.010056487
0.033073523
0.018676862
0.016823008
0.014017331
0.012433294
0.011684245
0.011141628
0.010865151
0.010645973
0.010512542
0.010406615
0.010330771
0.010271168
0.010225351
0.010189351
0.010161205
0.010139379
0.010122283
0.010109732
0.010100203
0.010093576
0.010089098
0.010086828
0.010086118
0.01008681
0.01008874
0.010091677
0.010095479
0.010100018
0.010105189
0.010110886
0.010117005
0.010123454
0.010130154
0.010137038
0.010144044
0.010151117
0.010158204
0.010165254
0.010172216
0.010179046
0.010185696
0.010192115
0.010198255
0.010204072
0.010209515
0.010214538
0.010219105
0.010223195
0.010226792
0.010229881
0.010232448
0.01023447
0.010235921
0.010236772
0.010237001
0.010236588
0.010235513
0.010233749
0.010231258
0.010227984
0.010223852
0.010218768
0.01021261
0.010205242
0.010196526
0.010186305
0.010174338
0.010160244
0.010143445
0.010122873
0.010097855
0.010073715
0.010054748
0.010040231
0.010030341
0.010025981
0.010028069
0.010037318
0.010047376
0.031088346
0.018771995
0.016300196
0.013624567
0.012181209
0.011516684
0.01101875
0.01077217
0.010572023
0.010451672
0.010355567
0.010286993
0.010233435
0.010192581
0.010160857
0.01013637
0.010117814
0.010103561
0.010093625
0.010086465
0.010082021
0.010079662
0.010079114
0.010080437
0.010082438
0.010085852
0.010090166
0.010095234
0.010100927
0.010107139
0.010113765
0.010120699
0.010127849
0.010135131
0.010142478
0.010149828
0.010157125
0.010164321
0.010171368
0.01017822
0.01018484
0.010191186
0.010197218
0.010202894
0.01020818
0.010213037
0.010217425
0.010221316
0.010224691
0.010227545
0.01022987
0.010231658
0.010232895
0.010233559
0.010233626
0.010233076
0.010231889
0.010230051
0.010227538
0.010224315
0.01022033
0.010215515
0.010209777
0.010202997
0.01019503
0.01018573
0.010174938
0.010162422
0.010147794
0.010130539
0.010109813
0.010084807
0.010062634
0.010045251
0.010032153
0.010023315
0.01001918
0.010021296
0.010032171
0.010038788
0.02895046
0.018955249
0.015878759
0.013264963
0.01194913
0.01136171
0.010905999
0.010686846
0.010504816
0.010396572
0.010309984
0.010248388
0.010200735
0.010164753
0.010137256
0.010116407
0.010101116
0.010089729
0.010082367
0.010077619
0.010075312
0.010075588
0.010076347
0.010079093
0.010083086
0.010087964
0.010093626
0.010099918
0.010106708
0.010113884
0.010121343
0.01012898
0.010136701
0.010144421
0.010152072
0.010159593
0.010166933
0.010174047
0.010180894
0.010187438
0.010193646
0.010199488
0.010204936
0.010209959
0.010214531
0.010218625
0.010222213
0.01022527
0.010227788
0.010229764
0.010231199
0.010232092
0.010232436
0.010232214
0.010231405
0.01022999
0.010227952
0.010225278
0.010221946
0.010217925
0.010213167
0.010207607
0.010201158
0.010193701
0.010185086
0.010175153
0.010163742
0.010150634
0.010135439
0.010117658
0.010096811
0.010072337
0.010052119
0.010036344
0.010024663
0.010016855
0.010013027
0.01001509
0.010025816
0.010031242
0.026749483
0.019144755
0.015394229
0.012935341
0.011735431
0.01121856
0.010802705
0.010608451
0.010444375
0.010347465
0.010270091
0.01021525
0.010173386
0.010142216
0.01011892
0.010101714
0.010089679
0.010081231
0.010076219
0.010073979
0.010073237
0.01007577
0.01007915
0.010083647
0.010089141
0.010095459
0.010102415
0.010109855
0.010117642
0.010125664
0.010133816
0.010141995
0.010150108
0.010158071
0.010165818
0.010173292
0.010180449
0.01018725
0.010193664
0.010199667
0.010205236
0.010210355
0.010215007
0.010219174
0.010222842
0.010225997
0.01022862
0.010230695
0.010232217
0.010233192
0.010233624
0.010233519
0.010232875
0.010231681
0.010229919
0.01022757
0.010224617
0.010221047
0.010216842
0.010211972
0.01020639
0.010200036
0.01019283
0.010184652
0.010175349
0.01016475
0.010152681
0.010138943
0.010123174
0.010104831
0.010083784
0.010060571
0.010042273
0.010028108
0.010017812
0.010011013
0.010007564
0.010009531
0.010019515
0.010024121
0.025161597
0.019316891
0.014721723
0.012632959
0.011540011
0.011087717
0.010709679
0.010537998
0.010391264
0.010304798
0.010236316
0.010188045
0.010151859
0.010125454
0.010106345
0.010092806
0.010083952
0.010078638
0.010074971
0.010075347
0.010079079
0.010082672
0.010087792
0.010093993
0.010101035
0.010108713
0.01011686
0.010125319
0.010133951
0.010142641
0.010151285
0.010159784
0.010168049
0.010176
0.010183579
0.010190736
0.010197436
0.010203654
0.01020937
0.010214574
0.010219258
0.01022342
0.010227057
0.010230166
0.010232745
0.010234791
0.010236297
0.010237254
0.010237661
0.010237526
0.010236861
0.010235674
0.010233968
0.010231736
0.010228962
0.010225626
0.010221711
0.010217204
0.010212087
0.01020633
0.010199889
0.010192706
0.010184707
0.010175776
0.010165757
0.010154471
0.010141727
0.01012733
0.01011099
0.010092142
0.010070704
0.01004959
0.01003318
0.010020606
0.010011637
0.010005826
0.010002827
0.010004566
0.01001344
0.010017543
0.023634624
0.019459477
0.0141827
0.012355657
0.011363374
0.010969208
0.010627438
0.010476191
0.010345679
0.010268974
0.010209087
0.010167262
0.010136671
0.010115014
0.010100087
0.010090284
0.010084275
0.010082634
0.010083373
0.010085911
0.010089996
0.010095885
0.010102854
0.010110682
0.010119147
0.01012805
0.010137219
0.010146498
0.010155747
0.010164851
0.010173708
0.010182231
0.010190337
0.010197958
0.010205046
0.010211565
0.010217495
0.010222825
0.010227554
0.010231687
0.010235233
0.010238205
0.010240617
0.010242477
0.010243798
0.010244585
0.010244843
0.010244569
0.010243764
0.010242439
0.010240606
0.010238276
0.010235455
0.01023214
0.010228315
0.010223961
0.010219058
0.010213589
0.010207537
0.010200873
0.010193554
0.010185522
0.010176708
0.010167004
0.010156255
0.010144274
0.010130857
0.010115792
0.010098873
0.010079701
0.010058023
0.010039449
0.010024904
0.010013881
0.010006167
0.010001313
0.0099988414
0.010000269
0.010007663
0.010011507
0.022267269
0.019589179
0.01371459
0.012103615
0.01120548
0.010862941
0.010555816
0.010422786
0.010307954
0.010240477
0.01018891
0.010153458
0.010128413
0.010111514
0.010100778
0.010094835
0.010092704
0.010093338
0.010096467
0.010101606
0.010108289
0.010116075
0.010124763
0.010134074
0.010143783
0.010153687
0.010163618
0.010173423
0.010182965
0.010192134
0.010200839
0.010209004
0.010216566
0.010223474
0.010229696
0.010235216
0.010240033
0.010244156
0.010247603
0.010250397
0.010252564
0.010254134
0.010255132
0.010255581
0.010255504
0.010254915
0.010253826
0.010252239
0.010250157
0.010247588
0.010244545
0.010241039
0.010237077
0.010232657
0.010227767
0.010222383
0.010216484
0.010210048
0.010203057
0.010195482
0.010187279
0.010178393
0.010168758
0.010158274
0.010146791
0.010134122
0.010120056
0.010104354
0.010086828
0.010067484
0.010046582
0.010030194
0.010017479
0.010007955
0.010001414
0.0099974598
0.0099955641
0.0099967101
0.010002588
0.010006358
0.021037545
0.019677481
0.013285502
0.011876865
0.011065919
0.010769058
0.010494934
0.010378336
0.010278441
0.010219832
0.010176363
0.010147274
0.010127765
0.010115659
0.010109157
0.010106946
0.010108089
0.01011195
0.010117856
0.010125354
0.010134067
0.01014368
0.010153889
0.010164433
0.010175087
0.010185652
0.010195965
0.010205881
0.010215277
0.010224058
0.010232149
0.010239497
0.010246065
0.010251827
0.010256776
0.010260919
0.010264279
0.010266886
0.010268776
0.010269991
0.010270573
0.010270563
0.010270001
0.010268919
0.010267346
0.010265303
0.010262806
0.010259862
0.010256472
0.01025264
0.010248376
0.010243689
0.010238586
0.010233065
0.010227114
0.01022071
0.010213826
0.010206437
0.01019852
0.010190046
0.010180971
0.01017124
0.01016079
0.010149533
0.010137327
0.010123986
0.010109302
0.010093042
0.010074954
0.01005529
0.01003626
0.010021889
0.010010913
0.010002823
0.0099973758
0.0099942427
0.0099929254
0.0099939029
0.0099985034
0.010002174
0.019928929
0.019684535
0.012896328
0.011673452
0.01094391
0.010687392
0.010444902
0.010343197
0.010257609
0.010207691
0.010172182
0.010149488
0.010135549
0.01012829
0.01012607
0.010127677
0.010132217
0.01013901
0.010147512
0.010157266
0.010167881
0.010179023
0.01019041
0.010201788
0.010212938
0.010223672
0.010233839
0.010243316
0.010252008
0.010259843
0.010266778
0.010272792
0.01027788
0.010282049
0.01028532
0.010287729
0.010289319
0.010290141
0.010290249
0.010289699
0.010288544
0.010286836
0.010284621
0.010281939
0.010278821
0.010275294
0.010271372
0.010267065
0.010262371
0.010257291
0.010251825
0.010245981
0.010239761
0.010233164
0.010226179
0.010218782
0.010210944
0.010202631
0.010193817
0.01018447
0.010174549
0.010163998
0.010152755
0.010140742
0.010127834
0.010113849
0.010098577
0.010081831
0.010063417
0.010043506
0.010027095
0.010014554
0.010005191
0.0099984537
0.0099940369
0.0099916357
0.0099908509
0.0099918197
0.0099954526
0.0099989511
0.018930509
0.019474152
0.012545085
0.011492281
0.010839256
0.010618258
0.010406032
0.010318034
0.010246183
0.010204955
0.010177327
0.010161101
0.010152784
0.010150416
0.010152485
0.010157851
0.010165666
0.010175284
0.010186157
0.010197835
0.01020994
0.010222145
0.010234177
0.010245793
0.0102568
0.010267033
0.010276374
0.010284737
0.010292065
0.010298332
0.010303531
0.010307682
0.010310817
0.010312979
0.010314219
0.010314595
0.010314171
0.010313014
0.010311189
0.010308761
0.010305789
0.010302332
0.010298435
0.010294141
0.010289483
0.010284487
0.010279166
0.010273527
0.010267567
0.010261281
0.010254662
0.010247708
0.010240419
0.010232793
0.010224817
0.010216471
0.010207721
0.010198528
0.01018886
0.010178682
0.010167952
0.010156619
0.010144618
0.010131877
0.010118294
0.010103705
0.010087892
0.010070679
0.01005221
0.010033409
0.01001905
0.010008202
0.010000288
0.0099948022
0.0099913636
0.0099896131
0.0099892605
0.0099904124
0.0099935531
0.0099969777
0.0180269
0.01863227
0.012229065
0.011332661
0.010752213
0.010562039
0.010378873
0.010303811
0.010245233
0.010212801
0.010193031
0.010183337
0.01018066
0.010183156
0.010189421
0.010198378
0.010209209
0.010221279
0.010234063
0.010247115
0.010260068
0.010272615
0.010284509
0.010295546
0.010305573
0.010314479
0.010322194
0.010328688
0.010333959
0.01033803
0.010340943
0.010342759
0.010343545
0.010343375
0.010342325
0.01034047
0.010337888
0.010334653
0.010330835
0.010326501
0.010321711
0.01031652
0.010310976
0.010305115
0.01029897
0.010292563
0.010285905
0.010278999
0.010271839
0.010264415
0.010256711
0.010248716
0.010240425
0.010231832
0.010222924
0.010213683
0.010204075
0.010194058
0.010183589
0.010172631
0.010161142
0.010149074
0.010136362
0.010122934
0.010108707
0.01009355
0.010077278
0.010059692
0.010041009
0.010024668
0.01001216
0.010002825
0.0099961856
0.0099918157
0.0099892962
0.0099881435
0.0099880868
0.0099895589
0.009992716
0.0099962361
0.017210039
0.017276687
0.011950329
0.011194332
0.010681863
0.010519678
0.010364484
0.010301948
0.010256211
0.010232703
0.01022075
0.01021757
0.01022044
0.010227624
0.010237799
0.010249941
0.010263255
0.010277123
0.010291036
0.010304576
0.010317414
0.010329291
0.010340016
0.010349455
0.010357526
0.01036419
0.010369448
0.010373336
0.010375912
0.010377251
0.010377439
0.010376571
0.010374743
0.010372049
0.010368579
0.010364419
0.010359648
0.01035434
0.010348563
0.01034238
0.010335844
0.010329004
0.0103219
0.010314567
0.010307028
0.010299303
0.010291399
0.010283315
0.010275043
0.010266564
0.010257859
0.010248908
0.010239696
0.01023021
0.01022044
0.010210367
0.010199962
0.010189181
0.010177975
0.010166297
0.010154106
0.010141358
0.01012799
0.010113929
0.010099098
0.010083399
0.01006671
0.010049082
0.010031179
0.010017173
0.010006377
0.0099984031
0.009992868
0.0099894501
0.009987748
0.0099871734
0.0099873404
0.0099891153
0.0099926512
0.00999644
0.016475827
0.016414465
0.011715013
0.0110777
0.010629109
0.010492572
0.010364367
0.01031413
0.010280816
0.010266297
0.010262037
0.010265203
0.01027332
0.010284743
0.010298213
0.010312753
0.010327598
0.010342167
0.01035601
0.010368776
0.010380215
0.01039016
0.010398517
0.01040525
0.01041037
0.010413925
0.010415993
0.010416673
0.010416076
0.01041432
0.010411523
0.010407799
0.010403259
0.010398004
0.010392127
0.010385712
0.010378833
0.010371555
0.010363938
0.010356033
0.010347884
0.01033953
0.010331002
0.010322325
0.010313519
0.010304594
0.010295555
0.010286399
0.010277112
0.010267675
0.010258061
0.010248244
0.010238199
0.010227907
0.010217352
0.010206517
0.010195379
0.010183896
0.010172018
0.010159689
0.01014686
0.010133491
0.010119528
0.010104895
0.01008952
0.01007334
0.010056271
0.010038543
0.010022913
0.010010835
0.010001619
0.0099948745
0.0099903076
0.0099876812
0.009986635
0.0099865625
0.0099869637
0.0099889995
0.0099930218
0.0099971849
0.015816402
0.01541312
0.011514103
0.010983291
0.010594905
0.010482421
0.010380168
0.010342268
0.010320969
0.010315371
0.010318487
0.010327515
0.01034017
0.010354886
0.01037048
0.01038605
0.010400915
0.010414592
0.01042675
0.010437168
0.010445727
0.010452394
0.010457195
0.010460208
0.010461541
0.010461322
0.010459695
0.010456804
0.010452797
0.010447812
0.01044198
0.010435421
0.010428242
0.01042054
0.010412398
0.01040389
0.010395075
0.010386007
0.010376731
0.010367285
0.0103577
0.010348003
0.010338213
0.010328347
0.010318416
0.010308426
0.010298376
0.01028826
0.010278063
0.010267764
0.010257335
0.010246743
0.010235957
0.010224948
0.010213692
0.010202172
0.010190365
0.010178243
0.010165755
0.010152844
0.010139447
0.010125521
0.010111024
0.010095889
0.010080032
0.010063433
0.010046284
0.01002922
0.010015927
0.010005573
0.0099977663
0.0099921312
0.0099884315
0.0099864832
0.0099859295
0.009986236
0.0099870294
0.0099891783
0.0099933944
0.0099977737
0.015226099
0.014733932
0.011350015
0.010911794
0.010580295
0.010491433
0.01041408
0.010388724
0.010378906
0.010381775
0.010391433
0.010405176
0.010420906
0.010437184
0.010452972
0.010467535
0.010480369
0.010491174
0.010499808
0.010506233
0.010510495
0.010512703
0.010513007
0.010511582
0.010508611
0.01050428
0.010498765
0.010492234
0.010484842
0.010476728
0.010468016
0.010458814
0.010449214
0.010439297
0.010429129
0.010418766
0.010408253
0.010397626
0.010386912
0.010376136
0.010365315
0.010354463
0.010343589
0.0103327
0.010321797
0.010310881
0.010299948
0.010288987
0.010277985
0.010266919
0.010255763
0.010244482
0.01023304
0.010221401
0.010209533
0.010197407
0.010185004
0.0101723
0.010159258
0.010145826
0.010131936
0.010117525
0.01010255
0.010086982
0.010070755
0.010053794
0.010036499
0.010021646
0.010010113
0.010001275
0.0099946937
0.0099900357
0.0099871089
0.0099857726
0.0099856396
0.009986215
0.0099872542
0.0099896659
0.0099939145
0.0099982425
0.014699278
0.013982182
0.01121942
0.010865853
0.010587115
0.010522957
0.010469163
0.010456222
0.010456728
0.010466667
0.010480991
0.010497212
0.010513514
0.010528717
0.010542064
0.010553103
0.010561608
0.010567528
0.010570946
0.010572012
0.010570929
0.010567922
0.010563229
0.010557082
0.010549699
0.010541282
0.010532012
0.010522049
0.010511532
0.010500582
0.0104893
0.010477771
0.010466066
0.010454242
0.010442345
0.01043041
0.010418466
0.01040653
0.010394615
0.010382731
0.010370881
0.010359067
0.010347288
0.01033554
0.010323819
0.010312118
0.010300428
0.010288737
0.010277031
0.010265289
0.010253486
0.010241591
0.010229568
0.010217377
0.010204977
0.010192332
0.010179411
0.01016619
0.010152642
0.010138735
0.010124413
0.010109601
0.010094221
0.010078248
0.010061741
0.010044868
0.01002821
0.010015416
0.010005409
0.0099978365
0.0099922875
0.0099884643
0.0099861966
0.009985349
0.0099855768
0.0099863769
0.0099876726
0.0099903175
0.0099945205
0.0099987034
0.014235616
0.013400553
0.011126992
0.010850187
0.010619249
0.010581061
0.010548532
0.010546606
0.010554891
0.010568959
0.010584639
0.010599873
0.010613313
0.010624215
0.010632229
0.010637268
0.010639422
0.01063889
0.010635947
0.010630889
0.010624014
0.010615608
0.010605936
0.010595237
0.010583721
0.010571571
0.010558941
0.010545962
0.010532743
0.010519371
0.010505921
0.01049245
0.010479001
0.010465609
0.010452297
0.010439084
0.010425978
0.010412983
0.010400098
0.01038732
0.01037464
0.010362049
0.010349536
0.010337091
0.010324699
0.01031235
0.010300028
0.01028772
0.010275409
0.010263077
0.010250703
0.010238259
0.010225714
0.010213031
0.010200168
0.010187079
0.010173724
0.010160065
0.010146074
0.010131727
0.010117
0.010101846
0.010086182
0.010069909
0.010053035
0.010036099
0.010021684
0.01001039
0.010001693
0.009995163
0.0099904596
0.0099873305
0.0099856357
0.0099851255
0.0099856735
0.0099866384
0.0099881876
0.0099910451
0.0099951665
0.0099990146
0.013840532
0.012938842
0.011075215
0.010869904
0.010701789
0.01066879
0.01065325
0.010658678
0.010670228
0.010683793
0.010696293
0.010706339
0.010713236
0.010716775
0.010717042
0.010714297
0.010708881
0.010701167
0.010691531
0.010680325
0.010667864
0.010654427
0.01064025
0.010625536
0.010610451
0.010595136
0.010579701
0.010564237
0.010548815
0.01053349
0.010518302
0.010503283
0.010488453
0.010473823
0.0104594
0.010445183
0.010431167
0.010417343
0.0104037
0.010390222
0.010376892
0.010363693
0.010350606
0.010337611
0.010324689
0.010311821
0.01029899
0.010286176
0.010273362
0.010260529
0.010247658
0.010234727
0.01022171
0.010208577
0.010195292
0.010181812
0.010168092
0.010154081
0.010139735
0.010125018
0.010109907
0.01009439
0.010078464
0.010062122
0.010045436
0.010029011
0.010016414
0.010006443
0.0099988231
0.0099931569
0.0099891472
0.0099865867
0.0099853421
0.0099850151
0.0099858056
0.0099869025
0.0099886994
0.0099917691
0.0099958248
0.0099992384
0.013523261
0.0125673
0.011068188
0.010924967
0.01080413
0.010785406
0.010779608
0.010786222
0.010794854
0.010802362
0.010806911
0.010807925
0.01080537
0.010799516
0.010790779
0.01077962
0.010766495
0.010751823
0.010735971
0.010719254
0.010701935
0.010684232
0.010666318
0.010648334
0.010630387
0.010612565
0.010594933
0.010577538
0.010560416
0.01054359
0.010527075
0.010510875
0.010494993
0.010479423
0.010464154
0.010449175
0.010434469
0.010420016
0.010405796
0.010391787
0.010377965
0.010364305
0.010350781
0.01033737
0.010324045
0.010310783
0.01029756
0.010284354
0.010271142
0.010257905
0.010244623
0.010231274
0.010217839
0.010204294
0.010190612
0.010176761
0.010162701
0.010148389
0.010133772
0.010118797
0.010103413
0.01008758
0.010071288
0.01005463
0.010038062
0.010023574
0.010012247
0.010003402
0.0099966641
0.0099917032
0.0099882572
0.0099861455
0.0099852289
0.0099850326
0.0099859565
0.0099871051
0.0099890182
0.0099922095
0.0099963079
0.009999525
0.013300648
0.012297861
0.01110877
0.011021932
0.010936811
0.010922375
0.010917454
0.010917901
0.010917259
0.010913769
0.010906782
0.010896431
0.010883145
0.010867449
0.010849868
0.010830878
0.010810892
0.010790251
0.010769232
0.010748053
0.010726886
0.010705864
0.010685086
0.010664625
0.010644533
0.010624846
0.010605588
0.010586771
0.010568401
0.010550474
0.010532985
0.01051592
0.010499265
0.010483002
0.01046711
0.010451567
0.010436349
0.010421429
0.010406782
0.010392378
0.010378191
0.010364191
0.010350348
0.010336633
0.010323017
0.010309471
0.010295968
0.010282481
0.010268982
0.010255449
0.010241856
0.010228184
0.01021441
0.010200513
0.010186471
0.010172263
0.010157861
0.010143234
0.010128348
0.010113159
0.010097619
0.010081678
0.01006531
0.010048621
0.010032276
0.010019349
0.010009078
0.010001133
0.0099951096
0.0099907095
0.0099877024
0.0099859354
0.0099852929
0.0099854033
0.0099861538
0.0099873685
0.0099892717
0.0099923001
0.0099961336
0.0099992868
0.013172445
0.012129309
0.011202613
0.011149682
0.011084512
0.011066219
0.011052415
0.011040018
0.011025439
0.011008187
0.010988396
0.010966532
0.010943129
0.010918679
0.010893602
0.010868233
0.010842836
0.010817613
0.010792712
0.010768241
0.010744276
0.010720867
0.010698046
0.01067583
0.010654225
0.010633227
0.010612827
0.010593011
0.010573762
0.010555058
0.010536877
0.010519194
0.010501984
0.01048522
0.010468874
0.010452918
0.010437322
0.010422056
0.01040709
0.010392393
0.010377935
0.010363684
0.010349608
0.010335675
0.010321855
0.010308116
0.010294427
0.010280758
0.010267077
0.010253358
0.010239571
0.010225691
0.010211691
0.010197547
0.010183236
0.010168735
0.010154024
0.010139079
0.010123879
0.0101084
0.010092619
0.010076513
0.010060103
0.0100436
0.01002808
0.010016203
0.010006771
0.0099995198
0.0099940625
0.009990115
0.0099874589
0.0099859378
0.0099854022
0.0099856409
0.0099864476
0.0099877245
0.0099896741
0.0099925732
0.0099961343
0.0099991512
0.013106178
0.012057258
0.011360394
0.011291712
0.011230729
0.01119818
0.011168632
0.011139864
0.011110179
0.011079589
0.011048361
0.011016861
0.010985416
0.01095429
0.010923682
0.010893731
0.010864532
0.010836143
0.010808596
0.010781904
0.010756064
0.010731066
0.010706888
0.010683507
0.010660895
0.010639022
0.010617855
0.010597363
0.010577514
0.010558274
0.01053961
0.010521491
0.010503883
0.010486755
0.010470074
0.010453808
0.010437924
0.010422392
0.010407179
0.010392252
0.01037758
0.010363131
0.010348873
0.010334774
0.010320802
0.010306924
0.010293111
0.010279328
0.010265546
0.010251731
0.010237854
0.010223884
0.010209788
0.010195539
0.010181106
0.01016646
0.010151575
0.010136423
0.010120982
0.010105231
0.010089159
0.010072773
0.01005616
0.010039734
0.010025294
0.010014067
0.010005227
0.0099984536
0.0099933968
0.0099897848
0.0099874011
0.0099860732
0.0099856352
0.009985933
0.0099867736
0.0099881008
0.0099900164
0.0099926574
0.0099958353
0.0099988513
0.013114334
0.012016364
0.011514851
0.01142421
0.011351694
0.011300698
0.011254039
0.011210234
0.011167984
0.011127105
0.011087542
0.011049319
0.011012453
0.010976949
0.010942789
0.010909943
0.010878371
0.010848026
0.010818855
0.010790806
0.010763824
0.010737857
0.010712851
0.010688755
0.010665522
0.010643103
0.010621453
0.010600529
0.01058029
0.010560696
0.010541707
0.010523286
0.010505398
0.010488007
0.010471078
0.010454577
0.010438472
0.010422728
0.010407314
0.010392198
0.010377347
0.01036273
0.010348315
0.010334071
0.010319968
0.010305973
0.010292058
0.01027819
0.010264339
0.010250474
0.010236564
0.010222578
0.010208484
0.010194249
0.010179841
0.010165227
0.010150371
0.010135238
0.010119794
0.010104005
0.010087844
0.010071311
0.010054512
0.010037982
0.010024037
0.010013127
0.010004565
0.0099980231
0.0099931644
0.0099897247
0.0099874862
0.0099862703
0.0099858823
0.0099862118
0.0099870901
0.009988473
0.0099903974
0.0099929026
0.0099958306
0.0099987227
0.01320593
0.012041445
0.011630763
0.011520551
0.011432639
0.011365728
0.011306176
0.011252055
0.01120173
0.011154546
0.011110057
0.011067967
0.011028049
0.010990116
0.01095401
0.010919592
0.01088674
0.010855342
0.0108253
0.010796522
0.010768925
0.010742433
0.010716976
0.010692489
0.01066891
0.010646184
0.010624257
0.010603081
0.010582609
0.010562797
0.010543604
0.010524989
0.010506914
0.010489342
0.010472239
0.010455567
0.010439295
0.010423387
0.010407813
0.010392538
0.010377533
0.010362766
0.010348205
0.010333822
0.010319585
0.010305465
0.010291434
0.010277461
0.010263519
0.010249578
0.010235609
0.010221584
0.010207475
0.01019325
0.010178882
0.01016434
0.010149593
0.010134608
0.010119353
0.010103797
0.010087913
0.010071694
0.010055221
0.010038926
0.010024707
0.010013685
0.010005025
0.0099984163
0.0099935112
0.0099900423
0.009987784
0.0099865446
0.0099861412
0.0099864555
0.0099873478
0.0099887566
0.0099906475
0.0099929875
0.0099956839
0.0099985671
0.013330564
0.012097862
0.011691529
0.011569179
0.011471073
0.011395845
0.011330209
0.011271592
0.011217938
0.011168259
0.01112188
0.011078342
0.011037299
0.010998482
0.010961671
0.010926683
0.010893362
0.010861573
0.010831199
0.010802133
0.010774283
0.010747563
0.010721898
0.010697218
0.010673458
0.010650558
0.010628464
0.010607125
0.010586493
0.010566522
0.010547171
0.010528397
0.010510164
0.010492432
0.010475167
0.010458333
0.010441897
0.010425824
0.010410082
0.010394639
0.010379463
0.010364524
0.010349791
0.010335234
0.010320823
0.010306529
0.010292322
0.010278174
0.010264057
0.010249942
0.0102358
0.010221603
0.010207322
0.010192929
0.010178394
0.010163687
0.010148778
0.010133636
0.010118231
0.010102532
0.010086515
0.010070182
0.010053641
0.010037433
0.010023886
0.010013215
0.010004832
0.0099984032
0.009993613
0.009990208
0.009987974
0.0099867258
0.0099863084
0.0099865973
0.009987486
0.0099888999
0.0099907612
0.0099929953
0.0099955569
0.0099984476
65.923035
359.52916
120.79216
14.558034
0.40176094
0.021334501
0.020074134
0.019778022
0.019521287
0.018467362
0.017133288
0.015946985
0.015047561
0.014477866
0.014073078
0.01368972
0.01331671
0.012985741
0.012707553
0.012474744
0.012276929
0.012106361
0.011957824
0.011827546
0.01171253
0.0116103
0.011518861
0.011436622
0.011362338
0.011295028
0.011233876
0.011178168
0.011127285
0.011080705
0.011038016
0.010998885
0.010963026
0.010930186
0.010900134
0.010872659
0.010847583
0.010824729
0.010803927
0.010785014
0.010767838
0.010752245
0.010738074
0.010725172
0.010713402
0.010702646
0.010692792