/*--------------------------------*- C++ -*----------------------------------*\
  =========                 |
  \\      /  F ield         | OpenFOAM: The Open Source CFD Toolbox
   \\    /   O peration     | Website:  https://openfoam.org
    \\  /    A nd           | Version:  12
     \\/     M anipulation  |
\*---------------------------------------------------------------------------*/
FoamFile
{
    format      ascii;
    class       volScalarField;
    location    "0.12";
    object      omega;
}
// * * * * * * * * * * * * * * * * * * * * * * * * * * * * * * * * * * * * * //

dimensions      [0 0 -1 0 0 0 0];

internalField   nonuniform List<scalar> 
16000
(
1089.6111
2188.3773
1070.7687
643.99664
454.41391
315.97222
239.75488
180.98777
145.80164
118.03795
100.29335
85.83914
75.131487
66.183725
58.8844
52.734233
47.54288
43.115345
39.311129
36.018201
33.152463
30.642953
28.431302
26.470982
24.724487
23.162644
21.761298
20.501792
19.368309
18.346415
17.423061
16.587952
15.832888
15.150928
14.536145
13.983029
13.486395
13.041353
12.64381
12.290315
11.97699
11.699758
11.455651
11.241967
11.055637
10.893541
10.75326
10.632496
10.529042
10.440807
10.365917
10.302733
10.249726
10.20555
10.169036
10.139288
10.115729
10.098171
10.087014
10.082889
10.083132
10.082717
10.08176
10.080413
10.078582
10.076214
10.073224
10.069482
10.06478
10.058823
10.051208
10.041199
10.02807
10.018041
10.010648
10.00642
10.005256
10.013587
10.006179
10.018871
1131.2703
2179.6308
1060.7417
644.40294
454.55104
318.86841
240.80877
182.79518
146.6238
119.06276
100.82941
86.39755
75.487267
66.492326
59.106969
52.906778
47.668681
43.20646
39.375079
36.060595
33.178131
30.656437
28.436189
26.470147
24.719768
23.155504
21.752501
20.491751
19.35752
18.335615
17.412721
16.578189
15.823673
15.142122
14.527643
13.974795
13.478501
13.033811
12.636445
12.283073
11.970108
11.693255
11.449392
11.235938
11.049998
10.888304
10.748392
10.627982
10.524893
10.437032
10.362492
10.299644
10.246956
10.203086
10.166836
10.137269
10.113761
10.096007
10.08415
10.078809
10.07868
10.078229
10.077182
10.075747
10.073827
10.071371
10.068296
10.064479
10.059716
10.053693
10.046036
10.036251
10.023722
10.014234
10.00735
10.003167
10.002948
10.009004
10.006684
10.01973
1171.3371
2181.0551
1049.539
640.76798
451.19052
319.11716
239.70928
182.981
146.17373
119.21634
100.67226
86.405383
75.381543
66.391855
58.973784
52.762224
47.513491
43.046272
39.213869
35.900615
33.02125
30.504643
28.290905
26.332569
24.5903
23.034467
21.639756
20.386883
19.260141
18.245695
17.330162
16.502627
15.754673
15.079158
14.470231
13.922502
13.431031
12.990911
12.597686
12.248003
11.938651
11.665221
11.424411
11.213662
11.030336
10.871055
10.733308
10.614834
10.513489
10.427209
10.354063
10.29245
10.240848
10.197935
10.162514
10.133627
10.110626
10.093177
10.081269
10.075243
10.074608
10.074047
10.072862
10.071288
10.06923
10.066635
10.063422
10.059473
10.054596
10.048467
10.040683
10.030964
10.019115
10.010279
10.003938
10.000239
10.000558
10.005437
10.007481
10.019981
1209.6243
2189.1981
1039.6406
637.31941
447.41206
319.15771
238.30904
183.00543
145.58196
119.26858
100.4637
86.351208
75.234717
66.244226
58.800375
52.579176
47.323063
42.853257
39.022276
35.712552
32.838306
30.32867
28.123147
26.17418
24.441564
22.895637
21.510647
20.267018
19.14898
18.143101
17.236015
16.416518
15.676132
15.007598
14.405115
13.863323
13.37741
12.942573
12.554207
12.2088
11.903586
11.634099
11.396849
11.189204
11.008847
10.85231
10.717022
10.600734
10.501338
10.416818
10.345214
10.284959
10.234539
10.19266
10.158134
10.129981
10.107529
10.090416
10.078562
10.072126
10.070892
10.07017
10.068815
10.067069
10.064842
10.062077
10.058697
10.054587
10.049569
10.043328
10.035414
10.02567
10.014574
10.0064
10.000634
9.9974601
9.9979645
10.002332
10.007594
10.02012
1245.9488
2207.3667
1031.2587
633.57642
442.8792
318.45856
236.22817
182.54393
144.61249
119.0429
100.06755
86.120791
74.949272
65.964784
58.512341
52.292429
47.039839
42.576436
38.754906
35.455879
32.592986
30.095844
27.903393
25.968185
24.249208
22.716845
21.344975
20.113778
19.007323
18.012611
17.116423
16.307266
15.576632
14.917127
14.323008
13.788933
13.3102
12.882159
12.50014
12.160314
11.860391
11.595929
11.363287
11.159618
10.983
10.82991
10.697704
10.584146
10.487151
10.404789
10.335063
10.27645
10.227445
10.186793
10.153323
10.126049
10.104272
10.087612
10.075955
10.06936
10.067539
10.066596
10.065036
10.063084
10.060655
10.057689
10.054109
10.049807
10.044615
10.038245
10.030213
10.020349
10.010142
10.002651
9.9974965
9.9948388
9.9954349
9.9996906
10.006784
10.017931
1280.1666
2233.0704
1027.3199
630.57497
438.84809
317.13279
233.66601
181.67445
143.36639
118.57687
99.52803
85.736152
74.544519
65.570654
58.124098
51.915131
46.675294
42.226022
38.420731
35.138549
32.292368
29.812506
27.637362
25.719627
24.017796
22.502233
21.146502
19.930602
18.838342
17.857151
16.974094
16.177372
15.458485
14.80988
14.225883
13.70116
13.231092
12.811198
12.436879
12.103867
11.81027
11.551771
11.32468
11.125771
10.953556
10.804518
10.675928
10.565568
10.471352
10.391479
10.323905
10.267164
10.219764
10.180489
10.148201
10.121914
10.100909
10.084785
10.073406
10.066762
10.064505
10.063288
10.061493
10.059305
10.056647
10.053452
10.049648
10.045129
10.039733
10.033212
10.025109
10.015166
10.005871
9.9990861
9.9945612
9.992391
9.9930472
9.9972762
10.005652
10.014158
1312.2337
2263.9624
1027.353
627.74138
434.89439
315.16837
230.99228
180.43188
141.93026
117.87283
98.853981
85.196056
74.01667
65.059737
57.632477
51.444353
46.226405
41.799108
38.016724
34.757646
31.93369
29.47606
27.322738
25.425888
23.7449
22.249591
20.91322
19.715692
18.640468
17.67535
16.807841
16.025819
15.320838
14.685155
14.11317
13.599558
13.139766
12.729452
12.364235
12.039506
11.753327
11.501731
11.281154
11.087836
10.920688
10.776296
10.651847
10.545145
10.454071
10.377001
10.311838
10.257185
10.211566
10.173805
10.142811
10.11761
10.097465
10.081951
10.070924
10.064333
10.061754
10.060221
10.058162
10.055713
10.0528
10.049356
10.045305
10.040549
10.034928
10.028226
10.020094
10.010226
10.001826
9.9957606
9.9918667
9.990163
9.9909017
9.9950562
10.003994
10.01124
1342.2573
2297.5115
1029.0126
624.60524
431.01995
312.55801
228.34793
178.95403
140.42216
116.95404
98.06235
84.509093
73.366965
64.434199
57.037696
50.879639
45.69216
41.294577
37.540871
34.311054
31.514897
29.084506
26.957877
25.083421
23.427112
21.95574
20.642199
19.466391
18.411338
17.465115
16.615831
15.851013
15.162327
14.541798
13.98391
13.483343
13.035603
12.636444
12.281757
11.967529
11.689911
11.446136
11.233005
11.046222
10.88477
10.745573
10.625763
10.523148
10.435537
10.36155
10.299022
10.246642
10.202952
10.16682
10.137211
10.113174
10.093961
10.079122
10.068498
10.062033
10.059241
10.057359
10.055011
10.052278
10.049093
10.045382
10.041067
10.036059
10.030202
10.023289
10.015139
10.005567
9.9980528
9.9927115
9.9894373
9.9881808
9.989041
9.9930861
10.001807
10.008469
1370.3357
2331.5105
1027.6734
620.7027
426.27147
309.24665
224.83326
177.08613
138.58835
115.84949
97.149301
83.674667
72.588618
63.689504
56.334868
50.215369
45.066949
40.707384
36.9852
33.790747
31.028299
28.630491
26.536303
24.693042
23.065807
21.62249
20.335526
19.184963
18.153353
17.228903
16.400519
15.655382
14.985339
14.382133
13.840343
13.354657
12.920641
12.534141
12.191111
11.88752
11.619771
11.384817
11.180056
11.001284
10.846149
10.712643
10.598003
10.499869
10.416012
10.345342
10.285634
10.235676
10.194036
10.159622
10.131464
10.108648
10.090423
10.076312
10.066131
10.059837
10.056917
10.054663
10.052006
10.048973
10.045501
10.041511
10.036922
10.03165
10.025556
10.018421
10.010213
10.001242
9.9945917
9.9899699
9.9872947
9.986463
9.9874733
9.9913889
9.999594
10.006192
1396.5699
2364.3154
1019.0045
615.71819
419.81089
305.49122
220.47756
174.74255
136.6883
114.56467
96.104564
82.687641
71.673621
62.817695
55.51598
49.438702
44.336903
40.024222
36.34812
33.197609
30.476449
28.117646
26.061482
24.253836
22.660355
21.249351
19.992873
18.871246
17.866548
16.966914
16.162171
15.439301
14.790357
14.206735
13.683119
13.214198
12.795597
12.423256
12.093288
11.801727
11.544894
11.319606
11.123783
10.952924
10.804811
10.677462
10.568857
10.475564
10.39577
10.328603
10.271867
10.224442
10.184938
10.152301
10.125635
10.104073
10.086873
10.073531
10.063824
10.057721
10.054729
10.052092
10.049112
10.045767
10.041998
10.037724
10.032856
10.027312
10.020986
10.013657
10.00531
9.9972821
9.9914729
9.9875552
9.985453
9.9850238
9.9862097
9.98995
9.9974997
10.003985
1421.0747
2395.1842
1010.2134
609.66952
411.70066
301.32736
215.85481
172.20447
134.69359
113.09841
94.91512
81.540835
70.610241
61.798206
54.558498
48.544766
43.503375
39.249121
35.62773
32.52977
29.857482
27.544302
25.532264
23.765937
22.211134
20.836858
19.614984
18.526166
17.552038
16.680466
15.901884
15.203918
14.578592
14.016857
13.513506
13.063232
12.661717
12.304975
11.989294
11.710799
11.465902
11.251212
11.065032
10.90282
10.762207
10.641178
10.538277
10.450186
10.375044
10.31152
10.257914
10.213097
10.175784
10.144955
10.119791
10.099492
10.083331
10.070787
10.06158
10.055666
10.052623
10.049605
10.046292
10.042628
10.038557
10.033999
10.028858
10.023042
10.016479
10.009033
10.000619
9.9937055
9.9887177
9.9854784
9.9839179
9.9838704
9.9852157
9.9887886
9.9955898
10.001848
1443.9726
2425.1255
996.87547
602.10465
402.17899
296.75852
211.06134
169.41029
132.67285
111.45688
93.553766
80.203936
69.360803
60.624642
53.466033
47.530298
42.562645
38.378686
34.822422
31.786182
29.171117
26.910574
24.948903
23.229731
21.718935
20.385621
19.202674
18.150739
17.211015
16.371089
15.619905
14.94951
14.350379
13.812896
13.33195
12.902223
12.519477
12.179772
11.879607
11.615222
11.383156
11.180593
11.004551
10.8514
10.718734
10.604407
10.507439
10.424587
10.35378
10.294033
10.243908
10.201788
10.166695
10.137677
10.113999
10.094946
10.079814
10.06808
10.059402
10.053667
10.050549
10.047161
10.043511
10.039526
10.035154
10.030314
10.024912
10.018842
10.012033
10.004525
9.9964774
9.9905271
9.9863378
9.9837439
9.9826845
9.9830238
9.9845484
9.9879143
9.9939957
9.9998245
1465.5724
2453.3982
979.63055
593.58974
392.12598
291.78231
206.19647
166.41666
130.60137
109.61821
91.955598
78.660429
67.9305
59.291079
52.232163
46.391603
41.512081
37.411237
33.931131
30.96617
28.417166
26.216912
24.311679
22.645862
21.18499
19.895205
18.755642
17.744853
16.843472
16.039331
15.321338
14.681115
14.110592
13.599559
13.14294
12.735386
12.372793
12.051232
11.767455
11.517907
11.29904
11.107958
10.942563
10.798867
10.674506
10.567607
10.476568
10.39908
10.332843
10.276771
10.229745
10.190598
10.157773
10.130557
10.108325
10.090475
10.07634
10.065402
10.057286
10.051733
10.048458
10.044722
10.040738
10.036435
10.031765
10.026651
10.021
10.01471
10.007679
10.000044
9.9928299
9.9877667
9.9843332
9.9823528
9.9817448
9.9824355
9.9841474
9.9873145
9.9927672
9.9984079
1486.1128
2476.2968
958.21764
584.53044
381.62899
286.44658
201.34797
163.23157
128.40796
107.48765
90.104972
76.899628
66.306665
57.789367
50.850856
45.123939
40.348435
36.344495
32.952815
30.068831
27.595484
25.464125
23.619175
22.013016
20.608816
19.372005
18.280886
17.315849
16.456935
15.692063
15.009954
14.402424
13.862321
13.379623
12.948983
12.564943
12.223633
11.921088
11.654301
11.420074
11.214944
11.035892
10.881191
10.74702
10.630909
10.530807
10.445715
10.37355
10.312292
10.260019
10.215973
10.17939
10.149057
10.123668
10.102831
10.086119
10.072929
10.062743
10.055205
10.049886
10.046314
10.042254
10.037944
10.033333
10.028374
10.022995
10.017107
10.010625
10.003474
9.995752
9.9896833
9.9854283
9.9826926
9.9812901
9.9811017
9.9820935
9.9839927
9.9870109
9.9917509
9.997201
1505.8512
2489.1988
932.67817
574.81945
370.75411
280.7868
196.59015
159.77585
125.97251
105.07263
87.974698
74.903894
64.476939
56.109484
49.314833
43.722312
39.068862
35.17618
31.886819
29.091044
26.703209
24.650598
22.879812
21.341015
20.000148
18.821767
17.784235
16.868954
16.056332
15.334137
14.690885
14.11832
13.60866
13.155653
12.752247
12.392685
12.073469
11.790578
11.541151
11.322479
11.131224
10.965094
10.821009
10.696271
10.588515
10.495405
10.416053
10.348833
10.291942
10.243864
10.202818
10.1686
10.14038
10.117021
10.097568
10.081912
10.069606
10.0601
10.053106
10.048123
10.044095
10.039732
10.035111
10.030202
10.024966
10.019338
10.013229
10.006562
9.9994046
9.9921857
9.9870191
9.9835126
9.9814015
9.9805157
9.9807589
9.9819693
9.9840243
9.9870307
9.9914254
9.9965497
1525.0075
2482.0344
903.37986
564.50774
359.54771
274.80757
191.91723
155.92251
123.21789
102.32849
85.535254
72.65068
62.42544
54.240449
47.616796
42.181256
37.670672
33.900401
30.728749
28.04153
25.752729
23.78969
22.101556
20.638046
19.366852
18.253007
17.274062
16.410417
15.647149
14.970292
14.368008
13.83264
13.356653
12.933867
12.558293
12.223567
11.926676
11.663621
11.431469
11.228235
11.050305
10.895738
10.762174
10.646644
10.547095
10.4615
10.387824
10.325369
10.27245
10.228044
10.190337
10.158411
10.132063
10.110444
10.092541
10.077885
10.066396
10.057497
10.050925
10.046204
10.041793
10.037137
10.032225
10.027035
10.021534
10.015672
10.009376
10.002563
9.9953315
9.9892045
9.9848469
9.9820088
9.980459
9.9799633
9.9806196
9.982046
9.9842003
9.9872363
9.9914873
9.9964122
1543.7521
2434.5621
871.74761
553.626
348.06767
268.42215
187.01978
151.64438
120.03081
99.207669
82.753185
70.11551
60.136461
52.172776
45.750254
40.491384
36.146455
32.528757
29.494831
26.931301
24.755438
22.893354
21.296989
19.916546
18.718574
17.674014
16.758346
15.952217
15.240419
14.610731
14.05065
13.553055
13.110748
12.718036
12.369959
12.059862
11.784997
11.541647
11.326534
11.138393
10.973587
10.830182
10.706585
10.599806
10.50776
10.428785
10.361186
10.303338
10.254124
10.213034
10.178259
10.148877
10.124238
10.104157
10.087601
10.07405
10.063308
10.054973
10.048714
10.044139
10.039395
10.034464
10.029284
10.023834
10.018086
10.012001
10.005535
9.9987187
9.9918503
9.9867584
9.9831469
9.9808869
9.9798589
9.9797658
9.9806924
9.9822993
9.9845078
9.9875936
9.9918615
9.9966715
1561.9548
2398.3918
839.84502
542.12045
336.31711
261.0893
181.97188
146.83875
116.29769
95.652461
79.593714
67.274536
57.594833
49.898312
43.70287
38.664289
34.517614
31.076537
28.201529
25.778741
23.729017
21.978948
20.479425
19.189125
18.072561
17.100908
16.250946
15.503749
14.84419
14.261853
13.744128
13.284201
12.875325
12.511898
12.189143
11.902936
11.649287
11.425093
11.227499
11.053789
10.901676
10.768876
10.654561
10.55606
10.471106
10.398158
10.335734
10.282468
10.237119
10.199027
10.166915
10.139777
10.116978
10.098234
10.082905
10.070377
10.060331
10.052548
10.046536
10.041919
10.036906
10.031719
10.026295
10.02061
10.014639
10.00836
10.001741
9.9948903
9.9890304
9.9847996
9.9818873
9.9801202
9.9794456
9.9798235
9.980951
9.982707
9.9849446
9.9880559
9.9923893
9.9971478
1579.157
2357.0083
807.03492
529.65483
324.19396
252.57469
176.58039
141.3909
111.91046
91.602201
76.023681
64.107188
54.78205
47.402729
41.49984
36.722258
32.807951
29.569969
26.873977
24.607902
22.69231
21.064147
19.672174
18.47609
17.443119
16.545937
15.762274
15.074155
14.466267
13.928749
13.452316
13.028876
12.652302
12.317537
12.020266
11.756565
11.522903
11.316259
11.134074
10.974063
10.834155
10.712304
10.606574
10.515699
10.43734
10.370017
10.312368
10.263197
10.221433
10.186099
10.1564
10.131344
10.110282
10.092719
10.078439
10.066763
10.057432
10.050189
10.04447
10.039563
10.034337
10.028919
10.023276
10.017384
10.011214
10.004768
9.9981307
9.9915813
9.9867435
9.9832683
9.9809921
9.9797327
9.9793301
9.980031
9.9813622
9.9832329
9.9855042
9.9886096
9.9928846
9.9975423
1594.6889
2289.2051
772.57084
515.72482
310.93759
242.73029
170.53132
135.16215
106.76932
86.998499
72.017507
60.594362
51.715373
44.73358
39.177248
34.703763
31.055275
28.043821
25.539856
23.44368
21.675986
20.175331
18.89383
17.793643
16.844335
16.020659
15.301445
14.669109
14.111853
13.61879
13.181509
12.792675
12.446512
12.138381
11.864539
11.621693
11.406644
11.216464
11.048755
10.901274
10.772174
10.659842
10.562877
10.478909
10.406568
10.34439
10.291086
10.245543
10.206801
10.17431
10.146733
10.123499
10.103971
10.087662
10.074309
10.063364
10.054596
10.047788
10.042328
10.037118
10.031708
10.026091
10.020255
10.014186
10.007864
10.001268
9.9945788
9.9890094
9.9849427
9.9821124
9.9803579
9.979566
9.9793975
9.9803963
9.9818836
9.98383
9.9861438
9.9892565
9.9934121
9.997877
1607.467
2220.5339
735.54693
499.75889
296.89378
231.36285
163.35468
127.98623
100.79796
81.81156
67.569343
56.776728
48.456221
41.949421
36.79428
32.661437
29.305613
26.535035
24.239646
22.320572
20.704078
19.332773
18.161731
17.155835
16.28739
15.53385
14.874769
14.296731
13.786743
13.334851
12.93391
12.577149
12.259232
11.975798
11.723408
11.499353
11.301164
11.125881
10.971409
10.835572
10.716511
10.613268
10.523454
10.445792
10.378842
10.32131
10.271973
10.229803
10.193942
10.16365
10.13799
10.116357
10.098195
10.083029
10.070515
10.060218
10.0519
10.045383
10.040085
10.034627
10.029049
10.023272
10.017276
10.011044
10.004608
9.9980512
9.9916394
9.9869783
9.9835906
9.9813105
9.9799771
9.9795322
9.979858
9.9808492
9.9824728
9.9844646
9.9868212
9.9899449
9.9939527
9.9981808
1614.7001
2137.1937
695.73445
480.05894
281.80505
218.15334
154.57591
119.72592
93.996099
76.088457
62.762615
52.761781
45.10094
39.136309
34.424758
30.656411
27.604464
25.08997
23.006488
21.265368
19.79837
18.553179
17.488806
16.573081
15.78065
15.091426
14.489184
13.960315
13.493794
13.079438
12.711365
12.383586
12.091287
11.830436
11.597679
11.390397
11.207215
11.04512
10.902335
10.777024
10.667378
10.571664
10.488454
10.416383
10.354196
10.300756
10.254963
10.215702
10.182497
10.154196
10.130199
10.109933
10.092934
10.078812
10.067046
10.057347
10.049439
10.043092
10.037804
10.032148
10.026405
10.020493
10.014387
10.008041
10.001457
9.9948732
9.9894315
9.9854174
9.9826077
9.9808096
9.979854
9.9795585
9.9802158
9.9813821
9.9830725
9.9850987
9.9874975
9.9906266
9.9944816
9.9984064
1611.2327
2034.9434
652.61834
454.32342
265.4928
202.75314
143.95377
110.4055
86.514179
69.956682
57.782531
48.696695
41.768741
36.389544
32.145991
28.752678
26.005289
23.745706
21.869921
20.300207
18.97528
17.848569
16.883625
16.051741
15.330163
14.700839
14.149363
13.663938
13.234795
12.854018
12.515067
12.212852
11.943109
11.702335
11.487563
11.296247
11.126201
10.975611
10.842736
10.726023
10.623995
10.535136
10.457764
10.390696
10.332705
10.282767
10.240213
10.203686
10.172477
10.145941
10.123427
10.104338
10.088399
10.075015
10.063885
10.054705
10.047235
10.041066
10.035562
10.029769
10.023862
10.017802
10.011593
10.00523
9.9987399
9.9923889
9.9877448
9.984295
9.9819322
9.9805036
9.9799228
9.9799254
9.9806311
9.9819175
9.9836414
9.9856838
9.9881272
9.9912673
9.9949877
9.9985848
1590.8961
1904.0077
606.41056
421.87809
247.96027
184.95595
131.70927
100.34985
78.701127
63.740997
52.849861
44.746824
38.582987
33.802425
30.029668
27.006509
24.551749
22.534459
20.853552
19.442356
18.247295
17.227759
16.35204
15.595043
14.936657
14.360704
13.854344
13.407661
13.01198
12.660336
12.346713
12.066614
11.816226
11.592431
11.392604
11.214496
11.056129
10.915721
10.791649
10.682415
10.586712
10.503712
10.431405
10.368719
10.314543
10.267864
10.227772
10.193436
10.163996
10.138891
10.117715
10.099718
10.084511
10.071746
10.06111
10.052364
10.045144
10.039116
10.033451
10.027562
10.021539
10.015346
10.008983
10.002488
9.9960569
9.9905622
9.9864912
9.9835493
9.9815786
9.9804382
9.9800203
9.980274
9.9811048
9.9824464
9.9841682
9.9861881
9.988626
9.9917434
9.995386
9.9987768
1544.8606
1744.0874
558.27531
383.51425
230.14179
165.037
118.52673
90.181867
71.013252
57.765286
48.189217
41.072363
35.660655
31.459775
28.137097
25.46479
23.283856
21.481407
19.975523
18.704942
17.624041
16.697868
15.899228
15.206595
14.602629
14.073032
13.605315
13.191511
12.823908
12.497042
12.204913
11.943582
11.709628
11.500254
11.313096
11.146127
10.997561
10.865788
10.749331
10.646811
10.556936
10.478485
10.410276
10.351023
10.29975
10.255491
10.217431
10.18502
10.157197
10.133424
10.113161
10.095961
10.081401
10.069116
10.058906
10.050382
10.043317
10.03734
10.031532
10.025563
10.019475
10.013237
10.006841
10.00033
9.9939954
9.9891856
9.9855797
9.983039
9.981395
9.9805267
9.9802708
9.9806643
9.9815846
9.9829585
9.9846699
9.986662
9.9890483
9.9920273
9.9954685
9.9987269
1464.9052
1581.3366
509.19056
344.03105
206.18618
145.7394
105.34668
80.58877
63.906601
52.343508
44.016469
37.82878
33.112619
29.437637
26.516827
24.15494
22.216041
20.603577
19.247775
18.097463
17.113455
16.265921
15.531495
14.891649
14.331454
13.838743
13.403497
13.017418
12.673769
12.366946
12.092301
11.84618
11.625514
11.42777
11.250801
11.092753
10.951982
10.826991
10.716389
10.618863
10.533187
10.458281
10.393435
10.33704
10.288235
10.246107
10.209846
10.178714
10.152047
10.1292
10.109693
10.093093
10.079115
10.067264
10.057285
10.048923
10.041927
10.035929
10.029969
10.023885
10.017696
10.01139
10.004976
9.9985432
9.9925646
9.9882153
9.9849733
9.9827302
9.9813283
9.9806712
9.9805641
9.9810595
9.982038
9.9834263
9.9851305
9.9871167
9.9894777
9.9923437
9.9955968
9.9987127
1352.7994
1493.7645
463.05333
296.63034
182.35666
127.61471
93.427922
72.092141
57.755452
47.769472
40.549871
35.167592
31.042676
27.806386
25.215752
23.106185
21.36309
19.904527
18.66971
17.616325
16.710612
15.92685
15.244733
14.64803
14.123576
13.66061
13.250231
12.88511
12.5593
12.268322
12.00725
11.772893
11.562439
11.373581
11.204358
11.053073
10.918221
10.798427
10.692411
10.598958
10.516897
10.445079
10.382383
10.327876
10.280612
10.239747
10.204509
10.174236
10.148463
10.126351
10.107466
10.091366
10.077679
10.066083
10.056293
10.048053
10.041111
10.03509
10.029018
10.02282
10.016506
10.010076
10.003569
9.9971678
9.9916631
9.9876038
9.98463
9.9826042
9.9813743
9.9808249
9.9808676
9.9814287
9.9824451
9.9838376
9.9855362
9.9875143
9.9898235
9.9925324
9.9955664
9.9986181
1220.0545
1251.2857
422.87124
254.35168
160.1902
112.49611
83.562628
65.229246
52.89296
44.243595
37.942896
33.202668
29.536137
26.633436
24.289891
22.366248
20.765087
19.416589
18.269588
17.285783
16.436072
15.697803
15.05304
14.4873
13.98869
13.547317
13.155142
12.805411
12.492554
12.21197
11.959891
11.733176
11.52924
11.345918
11.181376
11.034019
10.902427
10.785303
10.68144
10.589708
10.509087
10.438844
10.377424
10.323991
10.277628
10.237514
10.202894
10.173085
10.14748
10.12554
10.106782
10.090785
10.07718
10.065647
10.055906
10.047707
10.040795
10.034794
10.028726
10.022512
10.01616
10.009664
10.003073
9.996621
9.9913281
9.987404
9.9845524
9.982633
9.9814986
9.9810313
9.9811344
9.9817313
9.9827645
9.9841591
9.9858596
9.9878454
9.9901371
9.9927559
9.9956371
9.9985854
1100.6409
1113.6059
390.20836
223.63027
143.60358
101.37097
76.253778
60.229408
49.416142
41.768793
36.141248
31.866649
28.5295
25.864931
23.696761
21.904311
20.402564
19.130196
18.042015
17.104053
16.290284
15.580384
14.958189
14.410718
13.927834
13.499205
13.11757
12.776551
12.470906
12.196278
11.949072
11.726325
11.525587
11.344812
11.182264
11.036438
10.905993
10.789701
10.686409
10.595022
10.514483
10.443781
10.381953
10.328068
10.281255
10.240704
10.20567
10.175476
10.149512
10.127234
10.108163
10.091875
10.078001
10.066217
10.056244
10.04783
10.040733
10.034614
10.028668
10.022548
10.01632
10.009965
10.003522
9.9971759
9.9917615
9.9877812
9.9848729
9.9829106
9.9817498
9.9812727
9.9813731
9.9819707
9.9829824
9.9843671
9.9860646
9.988052
9.9903166
9.9928473
9.9956076
9.9985293
1045.7863
1072.2969
365.9545
206.54431
132.731
93.814502
70.803661
56.25316
46.452179
39.510789
34.386821
30.476762
27.411003
24.952891
22.944951
21.278927
19.878322
18.687788
17.666442
16.783516
16.015423
15.34373
14.753742
14.233502
13.77311
13.364278
12.999984
12.674315
12.382301
12.119795
11.883359
11.670154
11.477833
11.304441
11.148332
11.008084
10.882438
10.770249
10.670443
10.582001
10.503936
10.4353
10.375177
10.322694
10.277027
10.237407
10.203122
10.173527
10.148036
10.126126
10.107336
10.091255
10.077527
10.065838
10.055915
10.047516
10.0404
10.034235
10.028215
10.022032
10.015746
10.009343
10.002876
9.9965792
9.9914736
9.9876591
9.9848733
9.9829728
9.9818336
9.9813632
9.9812974
9.9820994
9.9830552
9.9844359
9.986129
9.9881177
9.9903679
9.9928505
9.9955506
9.9984755
31285.927
78943.074
36858.81
10649.351
1401.1409
610.18868
433.34235
349.85122
289.84777
235.8055
192.16033
158.97967
134.44292
116.23183
102.21052
90.750531
81.056194
72.783341
65.695648
59.581521
54.264827
49.610078
45.512253
41.886029
38.666178
35.788312
33.207127
30.8827
28.783227
26.883607
25.162404
23.600505
22.181227
20.8899
19.715011
18.646871
17.676744
16.796885
16.000222
15.280327
14.631598
14.048469
13.525875
13.059256
12.644125
12.27624
11.95176
11.666652
11.417235
11.200153
11.012134
10.850062
10.710967
10.592324
10.491621
10.406683
10.337373
10.283215
10.244199
10.222915
10.215738
10.213433
10.210957
10.20771
10.204086
10.200175
10.195196
10.188267
10.178217
10.168584
10.1506
10.138719
10.107013
10.097008
10.055041
10.06608
9.9969484
10.010148
9.980998
10.001911
19985.981
59195.051
24459.484
5049.0814
970.15394
527.85474
397.07328
320.74951
263.53256
212.33634
174.1678
145.40378
124.40065
108.64325
96.196469
85.760581
76.867084
69.266291
62.732099
57.067586
52.11897
47.769857
43.928038
40.517609
37.476781
34.752566
32.303607
30.09256
28.091364
26.277441
24.631005
23.134343
21.772093
20.53076
19.400045
18.370979
17.435409
16.58614
15.81654
15.120597
14.493076
13.928643
13.422543
12.970456
12.56807
12.211343
11.896609
11.619942
11.377835
11.167064
10.984457
10.827004
10.691839
10.576545
10.478694
10.396032
10.328181
10.275303
10.237485
10.217429
10.21086
10.208706
10.206248
10.203062
10.199525
10.195686
10.191267
10.184975
10.175605
10.166251
10.14915
10.137452
10.105754
10.095847
10.055038
10.066383
9.9970985
10.010654
9.9818144
10.002423
28292.076
35116.276
13403.454
2532.3695
834.4249
498.04354
387.08149
305.51295
250.18015
200.79885
166.42686
139.3264
119.84966
104.97522
93.104687
83.078995
74.560611
67.281025
61.012458
55.569412
50.808748
46.621022
42.918325
39.628047
36.689473
34.055438
31.685867
29.544358
27.604905
25.845851
24.248107
22.794643
21.470788
20.26364
19.163597
18.161998
17.251017
16.423772
15.673873
14.995555
14.383799
13.833393
13.339791
12.898813
12.506253
12.158205
11.851113
11.581118
11.344841
11.139142
10.96092
10.807243
10.675335
10.56287
10.467345
10.386704
10.319992
10.268101
10.231203
10.212095
10.205978
10.203957
10.201538
10.198426
10.19498
10.191231
10.187127
10.181514
10.17286
10.163806
10.147568
10.136048
10.10446
10.094636
10.054911
10.066548
9.9972426
10.011136
9.9825794
10.002946
35767.723
23880.933
8304.2098
1539.2666
753.10583
474.86466
374.73058
289.63339
239.03509
190.17143
159.42803
133.42943
115.52989
101.44708
90.151932
80.530973
72.3755
65.395925
59.376261
54.141563
49.55754
45.521181
41.948843
38.771218
35.930867
33.380029
31.084873
29.009112
27.12833
25.421568
23.870414
22.458458
21.171657
19.997648
18.927485
17.95274
17.065902
16.26037
15.529965
14.869153
14.273108
13.736723
13.255656
12.825851
12.443198
12.103922
11.804572
11.541349
11.311002
11.110472
10.936727
10.786913
10.65841
10.548755
10.455631
10.377036
10.311686
10.260812
10.224868
10.206725
10.201067
10.199183
10.196807
10.193776
10.190424
10.186765
10.182747
10.177802
10.169896
10.161162
10.145749
10.13442
10.103071
10.093471
10.054663
10.066591
9.9973949
10.011604
9.9833497
10.003475
40237.263
20375.662
5850.0916
1225.0559
719.02207
457.33246
365.08634
277.25056
230.92723
182.05699
154.47327
128.8487
112.27316
98.646067
87.780273
78.457918
70.584918
63.835336
58.008755
52.937336
48.493306
44.578131
41.111102
38.025288
35.265204
32.785693
30.550953
28.530609
26.69974
25.037797
23.526879
22.15104
20.896724
19.751989
18.708424
17.757723
16.892646
16.106807
15.394186
14.749438
14.167888
13.644504
13.175124
12.755781
12.382446
12.051459
11.759454
11.502678
11.278003
11.082435
10.913005
10.766941
10.641707
10.534797
10.444017
10.367426
10.303533
10.253623
10.218595
10.201275
10.196142
10.19439
10.192064
10.189121
10.185865
10.182299
10.178364
10.173864
10.166731
10.158344
10.143712
10.132581
10.101617
10.092258
10.054272
10.066477
9.9975512
10.012057
9.9841056
10.003972
43015.588
19019.047
4502.8303
1153.4679
698.71435
439.09948
357.65049
267.50041
224.72461
175.57715
150.58684
124.97415
109.58409
96.232142
85.738809
76.659826
69.023984
62.465119
56.80087
51.867721
47.543062
43.73178
40.355489
37.349182
34.659102
32.24145
30.060469
28.089113
26.302514
24.680585
23.205781
21.862532
20.63769
19.519659
18.500499
17.571953
16.727036
15.959529
15.26354
14.633889
14.066023
13.554961
13.09671
12.687367
12.322972
11.999969
11.715061
11.464536
11.245383
11.054661
10.889473
10.747156
10.625052
10.520845
10.432385
10.357781
10.295468
10.246485
10.212359
10.195823
10.191217
10.189583
10.187316
10.184465
10.181308
10.177835
10.173983
10.169698
10.163358
10.155345
10.141446
10.130492
10.100008
10.090745
10.053715
10.066184
9.9977123
10.012502
9.9848526
10.00454
45219.809
17113.089
3616.5888
1102.9458
683.51629
426.53127
351.77408
259.67681
219.9165
170.41971
147.49568
121.71675
107.35528
94.150484
83.980057
75.097546
67.660111
61.259677
55.731932
50.915816
46.69293
42.970752
39.672723
36.735371
34.106308
31.742988
29.610962
27.681733
25.934276
24.348073
22.905705
21.591877
20.393784
19.300112
18.303336
17.395189
16.568933
15.818472
15.138019
14.522538
13.967568
13.468165
13.020495
12.620692
12.264858
11.949531
11.671467
11.426993
11.213208
11.027228
10.866262
10.727487
10.608473
10.506933
10.420764
10.348127
10.287494
10.239411
10.206169
10.190482
10.186296
10.184767
10.182566
10.179812
10.176756
10.173375
10.169608
10.165357
10.159778
10.152174
10.138998
10.128111
10.098146
10.088768
10.052977
10.06572
9.9978796
10.012949
9.9856019
10.005291
46847.806
14479.556
3049.8649
1071.9569
671.93603