/*--------------------------------*- C++ -*----------------------------------*\
  =========                 |
  \\      /  F ield         | OpenFOAM: The Open Source CFD Toolbox
   \\    /   O peration     | Website:  https://openfoam.org
    \\  /    A nd           | Version:  12
     \\/     M anipulation  |
\*---------------------------------------------------------------------------*/
FoamFile
{
    format      ascii;
    class       volScalarField;
    location    "0.12";
    object      T;
}
// * * * * * * * * * * * * * * * * * * * * * * * * * * * * * * * * * * * * * //

dimensions      [0 0 0 1 0 0 0];

internalField   nonuniform List<scalar> 
16000
(
294.88904
286.4815
289.70773
287.9634
289.06257
288.55885
288.97769
288.86774
289.06324
289.0969
289.21699
289.30118
289.40578
289.50778
289.61568
289.72686
289.84211
289.9613
290.0845
290.21173
290.34298
290.47826
290.61752
290.76071
290.90776
291.05857
291.213
291.37092
291.53212
291.6964
291.86352
292.03321
292.20516
292.37905
292.55453
292.73122
292.90872
293.08663
293.26451
293.44195
293.61849
293.7937
293.96718
294.13849
294.30724
294.47307
294.63563
294.7946
294.9497
295.10069
295.24735
295.38952
295.52707
295.65991
295.78798
295.91126
296.02977
296.14357
296.25273
296.35739
296.45772
296.5539
296.64615
296.73473
296.81992
296.90202
296.98136
297.05823
297.13295
297.20582
297.27716
297.34727
297.41633
297.48437
297.55137
297.61674
297.69251
297.73232
297.8825
297.86415
294.58473
286.08065
289.48206
287.60923
288.77522
288.23489
288.68865
288.56941
288.77923
288.81837
288.94538
289.03844
289.15015
289.26093
289.37719
289.49731
289.62167
289.75028
289.88314
290.02027
290.16166
290.30726
290.45702
290.61086
290.76865
290.93027
291.09554
291.26426
291.43619
291.61108
291.78864
291.96852
292.15038
292.33384
292.51848
292.70389
292.88961
293.0752
293.26018
293.4441
293.6265
293.80692
293.98493
294.16013
294.33212
294.50056
294.66512
294.82552
294.98153
295.13292
295.27956
295.42131
295.55811
295.6899
295.8167
295.93852
296.05543
296.16753
296.27493
296.3778
296.47632
296.57072
296.66123
296.7481
296.83165
296.91218
296.99002
297.0655
297.13893
297.21061
297.28084
297.34996
297.41817
297.48544
297.5518
297.61876
297.6865
297.74684
297.86233
297.88343
294.29442
285.70677
289.21688
287.2982
288.50387
287.95353
288.42099
288.30944
288.52413
288.57502
288.7075
288.81106
288.93084
289.0513
289.17708
289.30717
289.44178
289.58092
289.72457
289.87274
290.02536
290.18237
290.34368
290.50916
290.67865
290.85197
291.0289
291.20917
291.39249
291.57855
291.76698
291.95739
292.14935
292.34244
292.53616
292.73005
292.9236
293.11632
293.3077
293.49725
293.68449
293.86896
294.05024
294.22792
294.40164
294.57108
294.73596
294.89605
295.05116
295.20114
295.34591
295.4854
295.61961
295.74855
295.87229
295.9909
296.10452
296.21328
296.31735
296.41692
296.51221
296.60346
296.69092
296.77487
296.85562
296.93349
297.00883
297.08196
297.1532
297.22284
297.29118
297.35855
297.42514
297.49096
297.55628
297.6222
297.68713
297.75502
297.85203
297.89643
294.02778
285.36389
288.98477
287.02393
288.26585
287.70539
288.18684
288.08454
288.30462
288.36877
288.50774
288.62299
288.75213
288.88347
289.02003
289.16132
289.30737
289.45821
289.61379
289.77407
289.93896
290.10837
290.28215
290.46013
290.6421
290.82782
291.017
291.20931
291.4044
291.60187
291.80127
292.00215
292.20401
292.40633
292.60858
292.81022
293.0107
293.20947
293.406
293.59979
293.79035
293.97722
294.16
294.33832
294.51185
294.68033
294.84353
295.00129
295.15351
295.3001
295.44104
295.57637
295.70614
295.83045
295.94941
296.06319
296.17195
296.2759
296.37522
296.47016
296.56097
296.6479
296.73122
296.81122
296.88822
296.96254
297.03453
297.10453
297.17286
297.2398
297.30564
297.37067
297.43511
297.49903
297.56279
297.62687
297.69063
297.76123
297.84784
297.90405
293.78488
285.05729
288.77833
286.79524
288.07241
287.49859
287.99026
287.90187
288.12583
288.20591
288.35214
288.48042
288.62029
288.76364
288.91223
289.06586
289.2245
289.38816
289.55676
289.73023
289.90844
290.09126
290.27847
290.46985
290.66512
290.86397
291.06602
291.27086
291.47805
291.6871
291.89748
292.10864
292.32001
292.53098
292.74096
292.94934
293.15554
293.35898
293.55911
293.75541
293.94742
294.13471
294.31692
294.49371
294.66485
294.83014
294.98943
295.14266
295.28979
295.43085
295.5659
295.69506
295.81847
295.9363
296.04874
296.15602
296.25835
296.35599
296.44918
296.53819
296.62328
296.70474
296.78284
296.85788
296.93018
297.00007
297.06789
297.13399
297.19868
297.26225
297.32495
297.38706
297.44878
297.51026
297.57184
297.63364
297.69623
297.76661
297.84621
297.91019
293.56941
284.79335
288.6024
286.60467
287.90392
287.33956
287.84184
287.76773
287.99483
288.09225
288.2466
288.38871
288.54046
288.69675
288.85843
289.0255
289.19786
289.37551
289.55831
289.74616
289.93887
290.13621
290.33793
290.54369
290.75313
290.96584
291.18132
291.39909
291.61857
291.83917
292.06027
292.28121
292.50133
292.71996
292.93644
293.15011
293.36036
293.56659
293.76826
293.96488
294.15603
294.34132
294.52047
294.69325
294.85949
295.01909
295.17202
295.31832
295.45805
295.59136
295.7184
295.83938
295.95452
296.06408
296.16832
296.26752
296.36196
296.45192
296.5377
296.61957
296.69784
296.7728
296.84473
296.91392
296.98069
297.04536
297.10828
297.16979
297.2302
297.28979
297.34879
297.40743
297.46592
297.52447
297.58333
297.6425
297.70348
297.77239
297.84677
297.91559
293.38456
284.57416
288.45974
286.45053
287.77174
287.23019
287.73098
287.68534
287.91183
288.0297
288.1932
288.34989
288.51492
288.68544
288.8617
289.04373
289.23141
289.42465
289.62327
289.82705
290.03574
290.24901
290.46648
290.68773
290.91226
291.13953
291.36893
291.59984
291.83156
292.06337
292.29455
292.52435
292.752
292.97679
293.19799
293.41493
293.62699
293.83358
294.03422
294.22846
294.41595
294.59642
294.76967
294.93559
295.09414
295.24535
295.38931
295.52618
295.65614
295.77945
295.89637
296.0072
296.11225
296.21184
296.30631
296.39599
296.48119
296.56225
296.63947
296.71317
296.78364
296.8512
296.91611
296.97868
297.03919
297.09797
297.15535
297.21167
297.26722
297.32229
297.37708
297.43176
297.48655
297.54169
297.59734
297.65358
297.71242
297.77878
297.84874
297.9211
293.22841
284.39784
288.34759
286.33171
287.6689
287.15478
287.65741
287.62182
287.87779
288.01687
288.19203
288.36515
288.54589
288.73284
288.92596
289.1252
289.33039
289.54134
289.75777
289.97938
290.20577
290.4365
290.67106
290.90888
291.1493
291.39164
291.63515
291.87904
292.12249
292.36467
292.60472
292.8418
293.07511
293.30385
293.52731
293.74481
293.95576
294.15965
294.35606
294.54466
294.72523
294.89761
295.06177
295.21773
295.3656
295.50557
295.63787
295.76278
295.88063
295.99177
296.09658
296.19543
296.28871
296.37682
296.46013
296.53902
296.61384
296.68495
296.75267
296.81732
296.87921
296.93862
296.99585
297.05116
297.10483
297.15717
297.20849
297.2591
297.30932
297.35941
297.40954
297.45986
297.51054
297.56184
297.61386
297.66688
297.72313
297.78606
297.852
297.92681
293.09607
284.26241
288.26898
286.24841
287.61547
287.1495
287.6454
287.66754
287.89757
288.05755
288.24794
288.44003
288.63944
288.84557
289.05824
289.2773
289.50247
289.73348
289.9699
290.21131
290.45715
290.70682
290.95963
291.21484
291.47161
291.72909
291.98636
292.24247
292.49646
292.74737
292.99426
293.23623
293.47243
293.70207
293.92446
294.139
294.34517
294.54259
294.73097
294.91016
295.08009
295.24079
295.39239
295.53511
295.66924
295.7951
295.9131
296.02364
296.12717
296.22416
296.31505
296.40032
296.4804
296.55575
296.62677
296.69386
296.7574
296.81774
296.87523
296.93017
296.98287
297.03361
297.08264
297.13023
297.17663
297.22212
297.26697
297.31151
297.35602
297.40075
297.44586
297.49147
297.53772
297.5848
297.63285
297.68243
297.73564
297.7944
297.85647
297.9329
292.98657
284.16986
288.22941
286.21477
287.61594
287.17269
287.67839
287.73118
287.97433
288.16054
288.3697
288.58338
288.80448
289.0327
289.26776
289.50937
289.75713
290.0106
290.26919
290.53228
290.79912
291.06891
291.34075
291.61366
291.88663
292.15858
292.42842
292.69506
292.95739
293.21437
293.46501
293.70838
293.94365
294.17011
294.38715
294.59431
294.79125
294.97776
295.15376
295.31932
295.47457
295.61978
295.75528
295.88149
295.99887
296.10792
296.20917
296.30317
296.39047
296.47161
296.54713
296.61753
296.6833
296.74492
296.80281
296.85739
296.90902
296.95806
297.00484
297.04965
297.09278
297.13449
297.17502
297.2146
297.25345
297.29182
297.32996
297.36816
297.40669
297.4458
297.48563
297.52628
297.56783
297.6104
297.65421
297.70015
297.74988
297.80388
297.8622
297.93946
292.90339
284.12796
288.2346
286.29636
287.6748
287.28611
287.77086
287.86703
288.12046
288.33441
288.5664
288.80479
289.05091
289.30443
289.56496
289.83203
290.10504
290.38334
290.66613
290.95253
291.24154
291.53209
291.82302
292.11313
292.40115
292.68581
292.96586
293.24005
293.50721
293.76626
294.01621
294.2562
294.48551
294.70358
294.90999
295.10452
295.28706
295.45768
295.61656
295.76403
295.90049
296.02643
296.14242
296.24905
296.34698
296.43685
296.5193
296.595
296.66456
296.72859
296.78766
296.84231
296.89305
296.94034
296.98462
297.02628
297.06569
297.10316
297.13901
297.17352
297.20693
297.23949
297.2714
297.30285
297.33405
297.3652
297.39651
297.42824
297.46065
297.49397
297.52835
297.56388
297.60056
297.63842
297.67782
297.71993
297.7658
297.81465
297.86925
297.94637
292.85302
284.14975
288.29315
286.43333
287.78062
287.4517
287.93304
288.07466
288.3447
288.5891
288.84829
289.11503
289.38986
289.67221
289.96151
290.25705
290.55797
290.86332
291.17199
291.48279
291.79439
292.10541
292.41441
292.7199
293.02041
293.31448
293.60072
293.87784
294.14465
294.40013
294.64341
294.87381
295.09086
295.29425
295.48389
295.65986
295.82239
295.97188
296.10883
296.23384
296.3476
296.45083
296.5443
296.62879
296.70507
296.77392
296.83608
296.89224
296.94308
296.98923
297.03128
297.06975
297.10515
297.13792
297.16847
297.19716
297.22433
297.25026
297.27524
297.29951
297.32328
297.34675
297.37011
297.39351
297.41711
297.44108
297.46559
297.49085
297.51712
297.54459
297.57346
297.60379
297.63551
297.66855
297.70346
297.74158
297.78322
297.82681
297.87779
297.95356
292.84046
284.24152
288.41526
286.62023
287.95088
287.6975
288.17436
288.36481
288.65746
288.93561
289.22684
289.52626
289.83394
290.14902
290.47061
290.79765
291.12891
291.46304
291.79853
292.13379
292.46713
292.79683
293.12114
293.43833
293.74674
294.04482
294.33115
294.60449
294.86379
295.10825
295.33728
295.55055
295.74794
295.92958
296.09577
296.24699
296.38388
296.50719
296.61774
296.71643
296.80417
296.8819
296.95055
297.01103
297.0642
297.1109
297.1519
297.18794
297.21969
297.24775
297.2727
297.29504
297.31522
297.33366
297.35072
297.36671
297.38194
297.39664
297.41104
297.42536
297.43977
297.45444
297.4695
297.48507
297.50128
297.51825
297.53611
297.55505
297.57525
297.59695
297.62032
297.64546
297.67221
297.70045
297.73088
297.76485
297.80192
297.84032
297.88801
297.96104
292.86759
284.41074
288.60611
286.89324
288.19651
288.02672
288.50512
288.74773
289.0706
289.38711
289.7159
290.05307
290.39828
290.75022
291.10753
291.46867
291.83192
292.19541
292.55718
292.91519
293.26735
293.61161
293.94596
294.26853
294.5776
294.87166
295.14946
295.41001
295.65263
295.87693
296.0828
296.27043
296.44021
296.59278
296.72892
296.84957
296.95575
297.04854
297.12907
297.19846
297.25782
297.30821
297.35067
297.38617
297.4156
297.4398
297.45955
297.47555
297.48842
297.49874
297.50703
297.51372
297.51922
297.52389
297.52802
297.53189
297.53573
297.53974
297.54409
297.54896
297.55448
297.56077
297.56793
297.57606
297.58522
297.5955
297.607
297.61984
297.6342
297.65027
297.66827
297.68828
297.71012
297.7337
297.75976
297.78942
297.82155
297.85505
297.90008
297.9686
292.93927
284.67045
288.86914
287.25341
288.52882
288.45197
288.93914
289.23809
289.5998
289.96066
290.33324
290.71374
291.10123
291.49378
291.88942
292.28599
292.68114
293.07245
293.45743
293.83359
294.19851
294.54989
294.88563
295.2039
295.50316
295.78223
296.04031
296.27696
296.4921
296.686
296.85922
297.01256
297.14704
297.26383
297.3642
297.44949
297.52106
297.58025
297.6284
297.66678
297.69658
297.71893
297.73489
297.74539
297.75134
297.7535
297.7526
297.74927
297.74407
297.7375
297.72999
297.72193
297.71364
297.7054
297.69745
297.69001
297.68324
297.6773
297.67231
297.66839
297.66563
297.66412
297.66392
297.66508
297.66764
297.67166
297.67717
297.68426
297.69307
297.70377
297.7166
297.73162
297.74869
297.7678
297.78969
297.81492
297.84182
297.87075
297.91373
297.97637
293.05988
285.03899
289.20083
287.71515
288.96191
288.98826
289.49458
289.85573
290.26593
290.67828
291.10113
291.53024
291.96387
292.39935
292.83392
293.26467
293.68859
294.10265
294.50386
294.88939
295.25666
295.60339
295.92772
296.22823
296.50397
296.75446
296.97971
297.1801
297.35642
297.50973
297.64135
297.75276
297.84554
297.92136
297.98186
298.02869
298.06342
298.08755
298.10249
298.10954
298.10991
298.10469
298.09487
298.08133
298.06486
298.04616
298.02584
298.00445
297.98245
297.96024
297.93818
297.91656
297.89563
297.87559
297.85663
297.83887
297.82244
297.80743
297.79393
297.78199
297.77169
297.76305
297.75611
297.75089
297.74739
297.74563
297.74561
297.74737
297.75101
297.75669
297.7646
297.77482
297.78729
297.80218
297.82015
297.84091
297.86244
297.88707
297.92828
297.98425
293.23399
285.54571
289.60737
288.2962
289.51685
289.65882
290.19715
290.62758
291.09596
291.56683
292.0454
292.5268
293.00818
293.48596
293.95643
294.41587
294.86055
295.28694
295.69179
296.0723
296.42614
296.75161
297.04762
297.31367
297.54989
297.75688
297.93575
298.08791
298.21509
298.31917
298.40217
298.46611
298.51305
298.54494
298.56366
298.571
298.56858
298.55792
298.54039
298.51721
298.48951
298.45825
298.4243
298.38843
298.3513
298.31348
298.27547
298.2377
298.20052
298.16425
298.12912
298.09536
298.06312
298.03255
298.00375
297.97679
297.95174
297.92865
297.90754
297.88845
297.87138
297.85636
297.84337
297.8324
297.82343
297.81643
297.81139
297.8083
297.80722
297.80827
297.8116
297.81726
297.82533
297.83624
297.85048
297.8669
297.88315
297.9036
297.94277
297.99211
293.47287
286.23758
290.1324
289.02758
290.22442
290.49477
291.07931
291.58587
292.12079
292.65581
293.19332
293.72753
294.25418
294.76851
295.26581
295.7416
296.19175
296.61271
297.00162
297.35641
297.67582
297.95942
298.20751
298.42107
298.60163
298.75112
298.8718
298.96611
299.03658
299.08576
299.11612
299.13005
299.12978
299.1174
299.09481
299.06374
299.02573
298.98217
298.93428
298.88315
298.82971
298.77478
298.71907
298.66318
298.60762
298.55283
298.49918
298.44697
298.39646
298.34784
298.30128
298.25689
298.21478
298.17501
298.13762
298.10263
298.07006
298.03989
298.01213
297.98676
297.96375
297.9431
297.92476
297.9087
297.89488
297.88322
297.87369
297.86625
297.86092
297.85779
297.85691
297.85833
297.86227
297.86938
297.88
297.89225
297.90371
297.92017
297.95645
298.00125
293.80307
287.10114
290.80284
289.94648
291.12228
291.53081
292.17714
292.76646
293.37428
293.97627
294.57158
295.15309
295.71492
296.25122
296.75666
297.2267
297.65776
298.04732
298.39399
298.69746
298.95838
299.17827
299.35927
299.50405
299.61558
299.69704
299.75163
299.78252
299.79274
299.78517
299.76246
299.72703
299.68109
299.62659
299.56529
299.4987
299.42818
299.35488
299.27982
299.20385
299.12772
299.05204
298.97734
298.90407
298.83258
298.76317
298.69607
298.63148
298.56955
298.51037
298.45404
298.40058
298.35004
298.30241
298.25767
298.21581
298.17678
298.14055
298.10706
298.07627
298.04814
298.02261
297.99963
297.97914
297.96106
297.94532
297.93183
297.92054
297.91145
297.90458
297.89993
297.89749
297.89762
297.9011
297.90803
297.91619
297.92368
297.93733
297.97047
298.00889
294.26477
288.07449
291.66061
291.08835
292.25415
292.80861
293.53333
294.2111
294.89346
295.55802
296.20028
296.81183
297.3858
297.91627
298.39868
298.83002
299.20878
299.53493
299.8097
300.03539
300.21509
300.35244
300.45144
300.51618
300.55076
300.55912
300.54497
300.51175
300.46261
300.40037
300.32752
300.24628
300.15858
300.06611
299.97031
299.87241
299.77348
299.67441
299.57596
299.47875
299.3833
299.29004
299.19933
299.11142
299.02655
298.94489
298.86654
298.7916
298.72012
298.65213
298.58763
298.52659
298.46899
298.41477
298.36387
298.31623
298.27177
298.23042
298.19209
298.15671
298.12422
298.09453
298.06757
298.04326
298.02151
298.00221
297.98528
297.97064
297.95826
297.9481
297.94009
297.93425
297.93099
297.93103
297.93414
297.93812
297.94224
297.95439
297.98501
298.01459
294.91351
289.33161
292.75336
292.50493
293.68048
294.38614
295.20034
295.96425
296.70984
297.41646
298.07694
298.68307
299.22912
299.71143
300.12849
300.4808
300.77051
301.00112
301.17709
301.30346
301.38556
301.42876
301.43825
301.41896
301.37542
301.31174
301.23161
301.13826
301.03453
300.92289
300.80545
300.68401
300.56011
300.43505
300.30992
300.1856
300.06287
299.94233
299.82448
299.70972
299.59837
299.49069
299.38684
299.28698
299.19119
299.09951
299.01198
298.9286
298.84932
298.77412
298.70293
298.63568
298.57228
298.51264
298.45666
298.40425
298.35529
298.30967
298.26731
298.22809
298.19193
298.15874
298.12841
298.10085
298.07595
298.0536
298.0337
298.01615
298.00091
297.98787
297.97694
297.96815
297.96195
297.95884
297.95818
297.95798
297.95892
297.96978
297.99832
298.02037
295.80623
290.93207
294.16613
294.27552
295.47988
296.33059
297.22572
298.05171
298.82451
299.52733
300.15393
300.69967
301.16329
301.54623
301.85213
302.08634
302.25528
302.36597
302.42559
302.44118
302.41936
302.36626
302.28739
302.18763
302.07127
301.942
301.803
301.65694
301.50612
301.35243
301.19747
301.04255
300.88877
300.737
300.58798
300.44227
300.30034
300.16255
300.02917
299.90039
299.77636
299.65718
299.54289
299.4335
299.32901
299.22936
299.13451
299.04437
298.95886
298.87788
298.80131
298.72905
298.66097
298.59694
298.53683
298.48052
298.42787
298.37877
298.33308
298.29068
298.25147
298.21534
298.18218
298.15188
298.1243
298.09935
298.07689
298.05684
298.03912
298.02359
298.01013
297.99883
297.9901
297.98417
297.98006
297.97608
297.97392
297.98234
298.007
298.02546
296.92626
293.00011
296.00424
296.48357
297.71877
298.68583
299.61692
300.44512
301.17692
301.80368
302.32544
302.74513
303.06886
303.30477
303.46223
303.55108
303.58105
303.5614
303.5006
303.40624
303.285
303.14265
302.9841
302.8135
302.63434
302.44951
302.26139
302.07196
301.88281
301.69524
301.5103
301.32881
301.15145
300.97872
300.81102
300.64864
300.49179
300.3406
300.19517
300.05554
299.92168
299.79359
299.67119
299.5544
299.44313
299.33727
299.23669
299.14126
299.05084
298.9653
298.88448
298.80823
298.73641
298.66886
298.60543
298.54597
298.49034
298.43838
298.38996
298.34496
298.30323
298.26466
298.22913
298.19651
298.16667
298.13949
298.11484
298.09264
298.07277
298.05508
298.03946
298.02604
298.01512
298.00667
297.99953
297.99243
297.98772
297.99338
298.01309
298.0279
298.44715
295.64811
298.36316
299.18255
300.39338
301.42131
302.29936
303.03249
303.62982
304.09526
304.43931
304.67439
304.81436
304.87317
304.86416
304.79954
304.69019
304.54552
304.37354
304.18097
303.9734
303.7554
303.53071
303.30235
303.07276
302.84389
302.61728
302.39416
302.17547
301.96195
301.75417
301.55254
301.35736
301.16882
300.98706
300.81214
300.64407
300.48282
300.32833
300.1805
300.03924
299.9044
299.77584
299.65343
299.53699
299.42636
299.32136
299.22184
299.12761
299.0385
298.95434
298.87495
298.80016
298.72981
298.66371
298.60171
298.54366
298.48938
298.43874
298.39158
298.34777
298.30718
298.26967
298.2351
298.20335
298.17427
298.14775
298.12368
298.10193
298.08236
298.0649
298.04968
298.03688
298.02621
298.01646
298.00678
297.99996
298.00297
298.01758
298.02635
300.41341
298.94618
301.23969
302.34764
303.52837
304.39055
305.09511
305.62067
305.98971
306.22071
306.33489
306.35241
306.29186
306.16955
305.99945
305.79318
305.56028
305.30849
305.04398
304.77169
304.49548
304.21841
303.94283
303.67058
303.40307
303.14137
302.88626
302.63834
302.39801
302.16556
301.94115
301.72486
301.51673
301.31672
301.12474
300.94069
300.76444
300.59583
300.43469
300.28084
300.13409
299.99424
299.86109
299.73445
299.6141
299.49984
299.39148
299.2888
299.19162
299.09973
299.01294
298.93106
298.85391
298.7813
298.71305
298.649
298.58896
298.53278
298.48029
298.43135
298.38581
298.34352
298.30435
298.26814
298.23476
298.20408
298.17595
298.15027
298.12688
298.10567
298.08661
298.06982
298.05536
298.04277
298.03092
298.0194
298.01096
298.01109
298.02009
298.02351
302.85219
302.88061
304.8804
305.85092
306.74271
307.35217
307.75785
307.98098
308.05791
308.01829
307.88888
307.69177
307.44498
307.16282
306.85647
306.5346
306.20388
305.86936
305.53488
305.20331
304.87679
304.55691
304.24481
303.94131
303.64695
303.36211
303.08699
302.82168
302.5662
302.32049
302.08442
301.85786
301.64062
301.4325
301.23327
301.04272
300.86061
300.68669
300.52073
300.36247
300.21167
300.0681
299.9315
299.80166
299.67832
299.56127
299.45027
299.34512
299.24559
299.15147
299.06256
298.97865
298.89956
298.82508
298.75505
298.68926
298.62756
298.56976
298.51571
298.46524
298.41821
298.37446
298.33385
298.29623
298.26146
298.2294
298.1999
298.17283
298.14803
298.1254
298.10492
298.08668
298.07064
298.05632
298.04283
298.03014
298.02066
298.01817
298.02156
298.01949
305.9065
307.29301
308.61618
309.31562
309.79231
310.0017
310.02592
309.90669
309.68457
309.38983
309.04582
308.66991
308.27493
307.87025
307.46265
307.05701
306.6568
306.26446
305.8817
305.50965
305.14905
304.80034
304.46375
304.13933
303.82703
303.52673
303.23821
302.96124
302.69555
302.44086
302.19686
301.96324
301.73969
301.52591
301.32157
301.12639
300.94004
300.76224
300.5927
300.43113
300.27726
300.13081
299.99152
299.85913
299.7334
299.61407
299.50091
299.39369
299.29218
299.19616
299.10542
299.01976
298.93897
298.86286
298.79123
298.72391
298.66071
298.60146
298.546
298.49416
298.44578
298.40072
298.35882
298.31994
298.28392
298.25063
298.21993
298.19167
298.16568
298.14185
298.12015
298.10058
298.08302
298.06706
298.05218
298.03859
298.02802
298.02282
298.02232
298.01183
309.84348
311.62292
312.1616
312.34773
312.29364
312.06068
311.71101
311.28687
310.81832
310.32598
309.82384
309.32132
308.82468
308.33804
307.86404
307.40429
306.95975
306.53088
306.11781
305.72048
305.33866
304.97202
304.62019
304.28274
303.95923
303.64921
303.35222
303.06783
302.79558
302.53505
302.28584
302.04752
301.81971
301.60205
301.39415
301.19567
301.00627
300.82562
300.65341
300.48932
300.33307
300.18436
300.04291
299.90847
299.78076
299.65953
299.54454
299.43555
299.33234
299.23466
299.14232
299.0551
298.9728
298.89521
298.82215
298.75344
298.68888
298.62832
298.57156
298.51847
298.46887
298.4226
298.37952
298.33948
298.30233
298.26792
298.23613
298.2068
298.17979
298.15498
298.13229
298.11164
298.09285
298.07563
298.05966
298.04511
298.03291
298.02405
298.01748
298.00844
314.78879
315.15789
314.88797
314.52018
313.99877
313.40718
312.78083
312.1452
311.51442
310.89705
310.29785
309.71937
309.16277
308.6284
308.11608
307.62532
307.15547
306.70578
306.27547
305.86373
305.46979
305.09287
304.73225
304.38723
304.05715
303.74138
303.43932
303.15041
302.87411
302.60992
302.35737
302.11599
301.88535
301.66504
301.45467
301.25386
301.06225
300.8795
300.70527
300.53925
300.38113
300.23062
300.08744
299.9513
299.82194
299.69912
299.58256
299.47205
299.36735
299.26822
299.17445
299.08584
299.00217
298.92325
298.84888
298.77889
298.71308
298.65129
298.59334
298.53907
298.48832
298.44093
298.39674
298.35561
298.31739
298.28192
298.24907
298.21871
298.19069
298.1649
298.14125
298.11961
298.09982
298.08167
298.06501
298.04988
298.03659
298.02532
298.01556
298.00582
316.77999
316.94632
316.37233
315.61177
314.83421
314.05571
313.29648
312.56409
311.86198
311.19111
310.55118
309.94123
309.35999
308.80606
308.278
307.77444
307.29403
306.83552
306.39774
305.9796
305.58009
305.19828
304.8333
304.48434
304.15065
303.83155
303.52637
303.23453
302.95544
302.68859
302.43346
302.18959
301.95654
301.73387
301.52119
301.31811
301.12428
300.93934
300.76296
300.59482
300.43462
300.28206
300.13685
299.99872
299.86741
299.74266
299.62422
299.51185
299.40532
299.30441
299.20889
299.11856
299.03321
298.95264
298.87667
298.8051
298.73776
298.67447
298.61506
298.55937
298.50724
298.4585
298.41301
298.37062
298.33118
298.29454
298.26055
298.22908
298.20001
298.1732
298.14854
298.1259
298.10512
298.08608
298.06871
298.05298
298.03873
298.02578
298.01417
298.0045
310.45835
309.19837
305.56216
302.69096
301.41837
301.13144
301.06379
301.06052
300.95005
300.89262
300.78667
300.7197
300.63319
300.54824
300.46276
300.3766
300.28977
300.20223
300.11401
300.02516
299.93577
299.84595
299.75583
299.66553
299.57519
299.48496
299.39498
299.30537
299.21628
299.12783
299.04017
298.95341
298.86769
298.78312
298.69984
298.61796
298.53762
298.45893
298.38201
298.307
298.23401
298.16317
298.09461
298.02846
297.96483
297.90386
297.84567
297.79039
297.73812
297.68899
297.64311
297.60058
297.56148
297.52592
297.49395
297.46564
297.44103
297.42015
297.40301
297.38965
297.3801
297.37441
297.37258
297.37463
297.38062
297.39049
297.40465
297.42242
297.4457
297.471
297.50578
297.53626
297.58706
297.6155
297.69289
297.70725
297.82099
297.81047
297.94754
297.94418
309.69881
306.82028
302.684
300.63742
300.07018
300.07147
300.17139
300.18241
300.17705
300.15149
300.12877
300.09103
300.04846
300.00091
299.94956
299.89449
299.83612
299.77468
299.71051
299.64392
299.5752
299.50462
299.43244
299.35889
299.28422
299.20863
299.13236
299.0556
298.97855
298.90141
298.82435
298.74757
298.67124
298.59553
298.52062
298.44666
298.37382
298.30227
298.23216
298.16365
298.0969
298.03206
297.96928
297.90871
297.85049
297.79478
297.74171
297.69142
297.64404
297.5997
297.5585
297.52056
297.48598
297.45483
297.42719
297.40312
297.38266
297.36582
297.35262
297.34308
297.33725
297.33514
297.33677
297.34214
297.3513
297.36421
297.38121
297.40175
297.42745
297.45532
297.49186
297.52474
297.57635
297.60742
297.68418
297.70122
297.81413
297.80413
297.94543
297.93532
308.32452
304.775
301.70423
300.00924
299.68237
299.72271
299.75686
299.73107
299.70307
299.67073
299.63918
299.60455
299.56825
299.52906
299.4877
299.44391
299.39796
299.34981
299.29955
299.24727
299.19311
299.13715
299.07954
299.02041
298.95992
298.8982
298.83542
298.77174
298.70734
298.64239
298.57706
298.51153
298.44598
298.3806
298.31556
298.25104
298.18724
298.12433
298.06249
298.00191
297.94275
297.88521
297.82945
297.77564
297.72395
297.67455
297.62758
297.58321
297.54158
297.50282
297.46706
297.43441
297.40498
297.37885
297.3561
297.33677
297.32091
297.30855
297.29967
297.29431
297.2925
297.29426
297.2996
297.3085
297.32103
297.33714
297.35712
297.38052
297.40877
297.43919
297.4777
297.51282
297.56555
297.59885
297.67594
297.69492
297.80758
297.7979
297.94266
297.92724
307.15672
303.35095
300.53897
299.26073
299.21337
299.22911
299.24651
299.21092
299.19303
299.16439
299.14086
299.11209
299.08315
299.05225
299.02024
298.9866
298.9515
298.9148
298.87651
298.83662
298.79516
298.75214
298.70762
298.66166
298.61432
298.5657
298.5159
298.46502
298.4132
298.36056
298.30725
298.25343
298.19924
298.14487
298.09049
298.03627
297.9824
297.92907
297.87646
297.82477
297.77418
297.7249
297.67709
297.63096
297.58669
297.54445
297.50441
297.46675
297.43161
297.39915
297.3695
297.34277
297.31908
297.29852
297.28115
297.26705
297.25624
297.24874
297.24455
297.2437
297.24621
297.25211
297.26138
297.27403
297.2901
297.30956
297.33267
297.35902
297.38991
297.4229
297.46349
297.50081
297.55486
297.59023
297.66764
297.68841
297.80107
297.79173
297.93945
297.9197
306.47694
302.15211
299.58786
298.63989
298.71816
298.69225
298.71907
298.68273
298.67656
298.65261
298.6377
298.61621
298.59609
298.57415
298.55159
298.52779
298.50292
298.4768
298.44943
298.42077
298.39079
298.35948
298.32685
298.29291
298.25769
298.22123
298.18358
298.14482
298.10503
298.0643
298.02275
297.9805
297.93768
297.89444
297.85093
297.80731
297.76377
297.72047
297.67761
297.63537
297.59395
297.55354
297.51434
297.47654
297.44034
297.40591
297.37345
297.34312
297.31509
297.28951
297.26653
297.24626
297.22883
297.21431
297.2028
297.19433
297.18896
297.18669
297.18752
297.19147
297.19857
297.20884
297.22227
297.23885
297.25863
297.28157
297.30791
297.33729
297.37089
297.40648
297.44923
297.48873
297.54423
297.58156
297.65943
297.6818
297.79464
297.78563
297.93593
297.91267
305.9196
300.9744
298.79403
298.04331
298.19277
298.13722
298.18399
298.14821
298.15692
298.13963
298.13572
298.12288
298.11249
298.09998
298.0871
298.07309
298.0581
298.04202
298.02484
298.00653
297.98706
297.96642
297.94461
297.9216
297.89743
297.87211
297.84566
297.81813
297.78958
297.76007
297.72968
297.69851
297.66667
297.63427
297.60146
297.56837
297.53516
297.50199
297.46905
297.43651
297.40455
297.37338
297.34317
297.31413
297.28645
297.26031
297.2359
297.21339
297.19296
297.17475
297.1589
297.14556
297.13482
297.12677
297.1215
297.11905
297.11946
297.12274
297.12889
297.13791
297.14985
297.16471
297.18247
297.20315
297.22676
297.2533
297.28296
297.31545
297.35182
297.39004
297.43494
297.47668
297.53369
297.57291
297.65126
297.67515
297.78826
297.77965
297.93219
297.90609
305.35207
299.9372
298.1506
297.49966
297.69715
297.61561
297.68189
297.64444
297.6655
297.65267
297.6577
297.65196
297.64945
297.64457
297.63959
297.63368
297.62698
297.61939
297.61092
297.60151
297.59115
297.57981
297.56746
297.5541
297.53973
297.52434
297.50794
297.49057
297.47225
297.45303
297.43297
297.41214
297.39063
297.36853
297.34596
297.32304
297.2999
297.2767
297.25359
297.23074
297.20832
297.1865
297.16548
297.14544
297.12655
297.10901
297.09299
297.07867
297.0662
297.05574
297.04742
297.04136
297.03768
297.03646
297.03777
297.04166
297.04816
297.05727
297.06898
297.08331
297.10029
297.11992
297.14219
297.1671
297.19467
297.2249
297.25796
297.29361
297.33278
297.37367
297.4207
297.46472
297.52326
297.56433
297.64319
297.66854
297.78194
297.77379
297.92827
297.89992
304.88264
298.99761
297.60944
297.00295
297.23924