/*--------------------------------*- C++ -*----------------------------------*\
  =========                 |
  \\      /  F ield         | OpenFOAM: The Open Source CFD Toolbox
   \\    /   O peration     | Website:  https://openfoam.org
    \\  /    A nd           | Version:  12
     \\/     M anipulation  |
\*---------------------------------------------------------------------------*/
FoamFile
{
    format      ascii;
    class       volVectorField;
    location    "0.12";
    object      U;
}
// * * * * * * * * * * * * * * * * * * * * * * * * * * * * * * * * * * * * * //

dimensions      [0 1 -1 0 0 0 0];

internalField   nonuniform List<vector> 
16000
(
(215.00543 -3.1429199e-17 -8.3514503)
(251.86125 0 5.3622721)
(238.00287 0 -7.5440436)
(245.64121 4.9744563e-17 3.7761752)
(240.96648 -4.9100208e-17 -5.9322913)
(243.16635 0 1.7505246)
(241.37739 0 -4.3094541)
(241.88157 8.4044063e-17 -0.02539175)
(241.044 -7.9848419e-17 -3.1455115)
(240.92263 0 -1.2597423)
(240.41037 7.2148303e-17 -2.5523831)
(240.06393 -2.0555051e-16 -1.9728985)
(239.6216 1.3010079e-16 -2.4094566)
(239.19414 -1.2375447e-16 -2.3456693)
(238.7387 1.1741912e-16 -2.5051749)
(238.26948 -3.4830543e-18 -2.57558)
(237.78171 -3.3087419e-18 -2.6773356)
(237.27631 -9.7635037e-17 -2.7682761)
(236.75275 1.9128779e-16 -2.860871)
(236.21088 -9.0758616e-17 -2.9511538)
(235.65056 1.7263231e-16 -3.0395083)
(235.07173 -1.6364179e-16 -3.1252362)
(234.47438 0 -3.2078396)
(233.85862 1.5232067e-16 -3.2867369)
(233.22464 -4.1242832e-18 -3.3613387)
(232.57274 -2.6584486e-16 -3.4310238)
(231.90333 1.2600109e-16 -3.4951645)
(231.21694 0 -3.5531204)
(230.51424 0 -3.6042545)
(229.79602 2.1881345e-16 -3.6479392)
(229.0632 -2.0387713e-16 -3.6835685)
(228.31686 0 -3.7105678)
(227.55819 0 -3.7284041)
(226.78852 0 -3.7366004)
(226.00931 5.1432795e-18 -3.7347454)
(225.22216 1.5608669e-16 -3.7225055)
(224.42873 -1.4288558e-16 -3.6996357)
(223.63081 -1.3994129e-16 -3.6659878)
(222.83026 1.2391076e-16 -3.6215194)
(222.02899 0 -3.5663016)
(221.22896 -1.1858832e-16 -3.5005198)
(220.43214 1.1193524e-16 -3.4244779)
(219.64048 -2.1213132e-16 -3.338595)
(218.85593 2.0014258e-16 -3.2434018)
(218.08035 -1.9546234e-16 -3.1395335)
(217.31553 3.5786065e-16 -3.0277182)
(216.56319 5.6028542e-18 -2.9087657)
(215.8249 2.9394492e-19 -2.7835526)
(215.10211 -1.5062473e-16 -2.6530056)
(214.3961 1.4245292e-16 -2.518085)
(213.70801 -1.2583157e-16 -2.3797673)
(213.03879 0 -2.2390262)
(212.38922 7.4782799e-18 -2.096817)
(211.75988 0 -1.9540597)
(211.15121 6.6546038e-18 -1.8116258)
(210.56343 2.0721102e-16 -1.6703275)
(209.99662 -3.7873155e-16 -1.5309077)
(209.45069 1.0939733e-17 -1.3940313)
(208.92541 1.6829469e-16 -1.2602772)
(208.42033 -1.489601e-16 -1.1301493)
(207.93479 1.4031363e-16 -1.0040542)
(207.46804 -8.8288621e-18 -0.88235177)
(207.01915 0 -0.76531724)
(206.58697 0 -0.65314841)
(206.17015 -1.1125762e-16 -0.54598084)
(205.76719 1.1193882e-16 -0.44387533)
(205.37646 -9.9184876e-17 -0.34682181)
(204.99624 1.9360447e-16 -0.25475303)
(204.62471 -1.8893927e-16 -0.16758457)
(204.26005 8.376002e-17 -0.085262695)
(203.90043 5.2889715e-18 -0.0078232027)
(203.54425 0 0.064496272)
(203.19029 4.7549023e-18 0.13140067)
(202.8379 -4.5163772e-18 0.19314782)
(202.48618 0 0.2504443)
(202.1378 -3.3771244e-17 0.29874529)
(201.73566 6.2498576e-17 0.33211515)
(201.51794 -3.1759585e-17 0.45934685)
(200.79149 0 0.20057148)
(200.9681 0 0.97998344)
(216.31988 0 -11.165302)
(253.49489 -3.7303933e-18 3.3211668)
(238.92283 -1.1988099e-16 -10.463759)
(247.10394 1.1053227e-16 1.6943124)
(242.07425 0 -8.7894089)
(244.50444 1.0169457e-16 -0.40330679)
(242.51122 -1.8778944e-16 -7.0502366)
(243.10353 -1.0176835e-19 -2.3014813)
(242.17447 8.4629578e-17 -5.7315152)
(242.05365 0 -3.6531147)
(241.50046 -1.5286907e-16 -5.0236025)
(241.12501 1.4953505e-16 -4.4113455)
(240.65064 1.4222071e-16 -4.8343315)
(240.18881 -2.6180839e-16 -4.7711628)
(239.69892 1.2035474e-16 -4.9105366)
(239.19341 1.1064621e-17 -4.9735307)
(238.66841 1.157009e-16 -5.0596584)
(238.12451 -1.0304531e-16 -5.1368067)
(237.56133 0 -5.2132905)
(236.97875 0 -5.2864163)
(236.37672 5.6859517e-18 -5.3560668)
(235.75523 -1.7837317e-16 -5.4215354)
(235.11442 3.3822885e-16 -5.482191)
(234.45451 -3.1604788e-16 -5.5373534)
(233.77584 1.4285102e-16 -5.5863281)
(233.07885 0 -5.6284065)
(232.36416 1.245881e-16 -5.662872)
(231.63248 -1.335966e-16 -5.689015)
(230.88468 0 -5.70614)
(230.12177 3.5303044e-18 -5.7135778)
(229.34492 -1.3390809e-17 -5.7106964)
(228.55543 0 -5.6969168)
(227.75475 0 -5.6717202)
(226.94445 -1.7086774e-16 -5.6346688)
(226.12623 3.3928493e-16 -5.585413)
(225.30192 -1.6292188e-16 -5.5237055)
(224.47341 -1.5931649e-16 -5.449414)
(223.6427 1.4581728e-16 -5.3625271)
(222.81182 -1.1230865e-16 -5.2631641)
(221.98285 -2.8350156e-19 -5.1515794)
(221.15786 -2.6514384e-19 -5.0281631)
(220.33891 2.3310623e-16 -4.8934407)
(219.52801 -1.0998265e-16 -4.7480674)
(218.72711 0 -4.5928193)
(217.93805 2.0264239e-16 -4.4285836)
(217.16257 1.1948541e-17 -4.2563432)
(216.40225 -5.128389e-18 -4.0771597)
(215.65856 -1.6475299e-16 -3.8921558)
(214.93275 0 -3.7024943)
(214.22594 -1.4674161e-16 -3.5093584)
(213.53904 -8.8674059e-18 -3.3139316)
(212.87278 2.6043978e-16 -3.1173762)
(212.2277 -1.3025187e-16 -2.920816)
(211.60417 0 -2.7253194)
(211.00236 -2.0407517e-17 -2.5318846)
(210.4223 -2.1146142e-16 -2.34143)
(209.86384 3.6170565e-16 -2.1547835)
(209.32669 -2.1552992e-16 -1.9726752)
(208.81043 0 -1.7957318)
(208.31448 -1.7099182e-16 -1.6244872)
(207.83806 1.7968677e-16 -1.4593599)
(207.38028 2.6715357e-17 -1.3007013)
(206.94014 0 -1.1487805)
(206.51642 -1.4203917e-16 -1.0037709)
(206.1077 7.3313284e-18 -0.86577881)
(205.71243 1.1182385e-16 -0.73482977)
(205.3289 -1.9756209e-17 -0.61087171)
(204.95534 9.3089386e-17 -0.49378974)
(204.58995 -1.0522298e-16 -0.38344393)
(204.2309 5.5136143e-18 -0.27971996)
(203.87639 -5.2022631e-18 -0.18261938)
(203.52471 0 -0.092383762)
(203.17456 -4.6413372e-18 -0.0091778957)
(202.82559 4.3897679e-18 0.067692456)
(202.47663 8.3132293e-18 0.13775629)
(202.12007 9.8498483e-19 0.19495721)
(201.75834 0 0.25854121)
(201.44128 3.0239796e-17 0.34695635)
(200.87993 -5.7582033e-17 0.16968781)
(200.8672 2.5864779e-17 0.86424102)
(217.49751 0 -14.052205)
(254.97824 -1.2270222e-16 1.0828097)
(239.89933 2.502065e-16 -13.468737)
(248.36159 -2.2346021e-16 -0.55638738)
(243.07095 1.1035912e-16 -11.722876)
(245.6376 -3.2678801e-18 -2.7479515)
(243.51701 9.9462815e-17 -9.8391418)
(244.13517 -9.4200991e-17 -4.774219)
(243.14942 -5.5919563e-18 -8.3816245)
(243.00538 -5.3095275e-18 -6.2118679)
(242.417 -1.0086151e-17 -7.5931092)
(242.00571 1.3915516e-16 -6.9861894)
(241.49602 -1.4105422e-16 -7.3778144)
(240.99585 1.3843437e-16 -7.3214201)
(240.46704 -1.189235e-16 -7.4393111)
(239.92095 -1.5586413e-17 -7.4940908)
(239.35412 0 -7.5644774)
(238.76712 -1.2467943e-20 -7.6266414)
(238.15967 -2.2669445e-16 -7.6859195)
(237.53174 -3.6491968e-19 -7.7402853)
(236.88338 1.7375534e-16 -7.7893059)
(236.21474 1.7067236e-17 -7.8321882)
(235.52609 -2.1587672e-17 -7.8681799)
(234.81783 0 -7.8964949)
(234.09046 7.5135713e-21 -7.9163418)
(233.34465 -1.6571288e-16 -7.9269263)
(232.58121 1.4804708e-16 -7.9274628)
(231.80111 8.2628306e-18 -7.9171826)
(231.00546 0 -7.8953528)
(230.19555 -7.412725e-18 -7.8612828)
(229.37282 -8.7520019e-22 -7.8143444)
(228.53885 -1.9953045e-16 -7.7539843)
(227.69537 2.0095363e-16 -7.6797386)
(226.84426 1.1906822e-17 -7.5912523)
(225.9875 -1.8025851e-16 -7.488287)
(225.12716 1.4876981e-16 -7.3707389)
(224.2654 -1.8126864e-16 -7.2386464)
(223.40443 1.5193694e-16 -7.0921996)
(222.54647 -1.4385663e-16 -6.9317429)
(221.69373 1.3557858e-16 -6.7577796)
(220.84841 1.6030026e-17 -6.5709681)
(220.01262 0 -6.3721144)
(219.18838 1.9995915e-16 -6.1621638)
(218.3776 -2.4203057e-16 -5.9421864)
(217.58205 0 -5.71336)
(216.80332 1.7962514e-16 -5.4769523)
(216.04284 -1.5762778e-16 -5.2342964)
(215.30186 1.7006597e-16 -4.98677)
(214.5814 -1.7988426e-16 -4.7357709)
(213.88231 0 -4.4826941)
(213.20522 1.773713e-16 -4.2289095)
(212.55058 -1.3330197e-16 -3.9757397)
(211.91864 0 -3.7244422)
(211.30947 0 -3.4761936)
(210.72296 1.248917e-16 -3.232075)
(210.15886 -2.0857434e-16 -2.9930649)
(209.61679 1.2243681e-16 -2.7600293)
(209.09621 1.8425699e-16 -2.5337183)
(208.5965 1.9540536e-19 -2.3147613)
(208.11689 1.7362483e-19 -2.1036789)
(207.65648 -3.2430665e-16 -1.900867)
(207.21424 8.9501562e-17 -1.7066323)
(206.78909 0 -1.5212056)
(206.37971 1.4224012e-16 -1.3447102)
(205.98466 -1.6316185e-16 -1.1771989)
(205.60231 1.1151656e-16 -1.0186439)
(205.2309 1.3159876e-17 -0.86893862)
(204.86864 -8.6047305e-17 -0.72791237)
(204.51373 1.1554844e-17 -0.59536297)
(204.16439 2.1728622e-17 -0.47111604)
(203.81888 -1.0217821e-16 -0.35514565)
(203.47548 9.6095842e-17 -0.2476547)
(203.13293 -7.2398808e-17 -0.14861736)
(202.7907 1.3636935e-16 -0.057408227)
(202.44649 -5.623052e-17 0.024417651)
(202.09483 -6.0662102e-17 0.094681077)
(201.74716 5.0117683e-17 0.17434956)
(201.39131 0 0.24087084)
(200.91903 3.2067788e-18 0.14006376)
(200.80153 -1.2160891e-17 0.74161617)
(218.51566 0 -17.007978)
(256.31084 0 -1.2923999)
(240.65521 0 -16.606574)
(249.44237 1.0679018e-16 -2.9094629)
(243.88411 -1.2399523e-16 -14.781982)
(246.60596 -2.2084017e-16 -5.2082465)
(244.34361 2.1003612e-16 -12.743474)
(244.99031 -1.244004e-17 -7.3724448)
(243.94055 5.9237265e-18 -11.14057)
(243.76924 -1.7419365e-16 -8.9007649)
(243.1411 1.705346e-16 -10.272875)
(242.68847 1.0134896e-17 -9.6854424)
(242.13861 -1.5389633e-16 -10.03782)
(241.59481 1.3671027e-16 -9.9898561)
(241.02197 -1.3946198e-20 -10.085043)
(240.43018 -8.1984604e-18 -10.129685)
(239.81653 0 -10.182755)
(239.18156 -7.4012242e-18 -10.22751)
(238.52511 -2.1067462e-16 -10.266954)
(237.84729 2.1272506e-16 -10.299507)
(237.14828 1.2627087e-17 -10.324508)
(236.42838 -1.1971493e-17 -10.341076)
(235.68804 2.1572146e-16 -10.348358)
(234.92784 -1.7183427e-16 -10.345477)
(234.14852 1.0190239e-17 -10.331551)
(233.35099 1.9321711e-16 -10.305715)
(232.53632 -1.2781449e-16 -10.267121)
(231.70577 0 -10.21496)
(230.86076 1.4768234e-16 -10.148476)
(230.0029 -1.2396256e-16 -10.066987)
(229.13395 2.4982456e-16 -9.9698972)
(228.25585 -1.3348508e-17 -9.8567197)
(227.37065 -2.0984638e-16 -9.7270915)
(226.48055 1.7404424e-16 -9.5807921)
(225.58783 -1.8749198e-16 -9.4177539)
(224.69486 -2.8911039e-20 -9.2380781)
(223.80403 2.0959104e-16 -9.0420405)
(222.91775 -3.1630589e-16 -8.8300964)
(222.03841 9.30953e-17 -8.6028818)
(221.16833 3.5244032e-17 -8.361209)
(220.30975 -4.9836455e-17 -8.1060599)
(219.46477 0 -7.8385708)
(218.63536 -8.867438e-17 -7.5600176)
(217.8233 1.3888342e-16 -7.2717938)
(217.0302 -2.0969431e-16 -6.9753885)
(216.25743 1.970292e-16 -6.6723623)
(215.50616 -2.0897384e-16 -6.364318)
(214.77733 3.9293583e-16 -6.0528758)
(214.07167 -3.0792968e-16 -5.7396468)
(213.38968 3.0878027e-16 -5.4262075)
(212.73165 -1.4493185e-16 -5.1140768)
(212.09767 1.3642072e-16 -4.8046959)
(211.48766 -9.5902327e-17 -4.4994093)
(210.90135 3.0070466e-17 -4.1994538)
(210.33833 0 -3.9059441)
(209.79805 0 -3.6198696)
(209.27985 0 -3.3420879)
(208.78298 2.3276408e-17 -3.0733236)
(208.30657 0 -2.8141678)
(207.84971 -1.6381474e-16 -2.5650895)
(207.41134 1.9176937e-16 -2.3264307)
(206.99031 -1.0793462e-16 -2.0984256)
(206.58546 -1.144852e-19 -1.8812385)
(206.19543 2.5251598e-16 -1.6749247)
(205.81871 2.9655324e-17 -1.4794666)
(205.45365 -1.3849316e-16 -1.2947706)
(205.09845 5.1934926e-17 -1.1206677)
(204.75131 -1.4589958e-16 -0.95692539)
(204.41043 -4.5586918e-17 -0.80327705)
(204.07411 -6.4080757e-17 -0.65949211)
(203.74067 -6.0088844e-17 -0.5255069)
(203.40846 5.6310053e-17 -0.40144207)
(203.07621 0 -0.28715151)
(202.74295 0 -0.18234431)
(202.40606 -1.5518458e-17 -0.088702096)
(202.06339 0 -0.004704166)
(201.72164 6.854049e-18 0.084444824)
(201.35497 5.161055e-17 0.14255888)
(200.93635 -7.2887236e-17 0.10698775)
(200.74022 -1.3397927e-20 0.61645517)
(219.3587 0 -20.161415)
(257.47328 -8.828505e-18 -3.744555)
(241.28038 2.6701061e-16 -19.880844)
(250.30292 -2.4941334e-16 -5.3884234)
(244.46431 2.5449852e-16 -17.956675)
(247.37374 -2.3284713e-16 -7.8216442)
(244.97223 -2.2195969e-16 -15.753855)
(245.63613 2.1011498e-16 -10.128769)
(244.525 0 -14.002695)
(244.31569 0 -11.739527)
(243.6455 1.8006841e-16 -13.066853)
(243.14473 -1.7059005e-16 -12.517335)
(242.54993 -1.0134298e-17 -12.820695)
(241.95727 2.8824468e-17 -12.780411)
(241.33544 -9.1219593e-18 -12.850835)
(240.69308 3.4596581e-17 -12.881603)
(240.02784 0 -12.914419)
(239.34022 0 -12.93802)
(238.63019 -2.3626593e-16 -12.953807)
(237.89798 2.0953589e-16 -12.960422)
(237.14393 0 -12.95702)
(236.36853 0 -12.942616)
(235.57244 -1.9064466e-16 -12.916227)
(234.75652 3.6078819e-16 -12.876873)
(233.92178 -1.7064045e-16 -12.823573)
(233.06946 -2.0215872e-17 -12.755381)
(232.20097 -3.8287551e-17 -12.671394)
(231.31793 -1.450748e-16 -12.570779)
(230.42217 1.1978191e-16 -12.452786)
(229.51567 0 -12.316777)
(228.60062 -3.0676803e-17 -12.16224)
(227.67932 0 -11.988817)
(226.75423 0 -11.796313)
(225.82789 2.070876e-16 -11.584719)
(224.9029 -2.1949719e-16 -11.354221)
(223.9819 2.3025543e-17 -11.105207)
(223.06752 -2.1725696e-17 -10.838276)
(222.16233 -4.1070692e-17 -10.554231)
(221.26882 -8.3394585e-20 -10.254078)
(220.38935 7.9214842e-20 -9.9390063)
(219.52612 -7.4749416e-20 -9.6103836)
(218.68115 0 -9.2697236)
(217.85623 -1.219154e-16 -8.9186699)
(217.05292 1.1448474e-16 -8.5589619)
(216.27255 0 -8.1924079)
(215.51616 -5.0739551e-17 -7.8208575)
(214.78457 1.907064e-16 -7.4461648)
(214.07834 -2.235638e-16 -7.0701641)
(213.39778 -2.1032362e-16 -6.6946402)
(212.74298 1.5768915e-16 -6.321304)
(212.11384 1.1121134e-16 -5.9517704)
(211.51005 -1.3881983e-16 -5.5875412)
(210.93112 -3.2546482e-17 -5.2299886)
(210.37645 -2.138019e-16 -4.8803485)
(209.84529 1.143495e-16 -4.5397098)
(209.33679 -1.0724553e-16 -4.2090151)
(208.85002 1.0031197e-16 -3.8890596)
(208.38397 2.3502676e-16 -3.5804922)
(207.9376 -1.7578067e-16 -3.2838201)
(207.50981 0 -2.9994212)
(207.0994 -3.84663e-17 -2.7275456)
(206.70517 -7.2001574e-17 -2.4683301)
(206.32584 1.3453681e-16 -2.221843)
(205.96004 1.2586874e-16 -1.9880525)
(205.60624 -2.3521676e-16 -1.7668533)
(205.26277 8.2381001e-17 -1.5580741)
(204.92783 5.1352288e-17 -1.3614738)
(204.59958 9.6000622e-17 -1.1767525)
(204.27628 1.3458274e-16 -1.0035792)
(203.9563 2.3433861e-20 -0.84166872)
(203.63807 0 -0.69090162)
(203.32007 0 -0.55129879)
(203.00095 -3.4245772e-17 -0.4226969)
(202.67929 9.6079569e-17 -0.30513147)
(202.35283 -8.9856751e-17 -0.19975595)
(202.02138 -8.4107318e-17 -0.10298059)
(201.68547 5.2481959e-17 -0.0068209982)
(201.31964 0 0.050745492)
(200.93685 4.6082956e-17 0.06907031)
(200.69151 2.4132954e-20 0.49261416)
(220.00501 0 -23.48693)
(258.43849 1.9215735e-20 -6.2733654)
(241.71429 9.08632e-18 -23.251603)
(250.99747 2.8887655e-16 -8.0060988)
(244.88779 3.3204176e-19 -21.235451)
(247.91157 -5.0668607e-16 -10.585908)
(245.35754 -3.2225033e-19 -18.859637)
(246.04277 4.5698802e-16 -13.047444)
(244.87166 -2.1025812e-16 -16.965671)
(244.61718 -1.2471659e-17 -14.727468)
(243.90342 1.1845446e-17 -15.973914)
(243.34941 -1.798629e-16 -15.475096)
(242.7059 1.9162246e-16 -15.721509)
(242.06013 -1.8207125e-16 -15.684885)
(241.38493 3.0670193e-16 -15.728257)
(240.68744 -3.0901124e-16 -15.740658)
(239.96586 1.3772282e-16 -15.74978)
(239.22068 0 -15.748186)
(238.45205 0 -15.736144)
(237.66041 1.467024e-17 -15.712311)
(236.84635 -2.7815282e-17 -15.675627)
(236.01063 0 -15.624947)
(235.15426 1.9973937e-16 -15.55914)
(234.27844 4.6982596e-19 -15.477099)
(233.3846 -3.5746703e-16 -15.377749)
(232.47439 1.6890458e-16 -15.26008)
(231.54968 1.9984785e-17 -15.123171)
(230.61256 0 -14.966206)
(229.66533 -1.7901738e-16 -14.788505)
(228.71046 1.3499114e-16 -14.589547)
(227.75058 -2.2384565e-16 -14.368988)
(226.78846 2.106975e-16 -14.126691)
(225.82694 -2.2802446e-16 -13.862728)
(224.86893 2.1463615e-16 -13.577409)
(223.91735 7.6084974e-17 -13.271275)
(222.97507 0 -12.94511)
(222.04487 0 -12.599933)
(221.12943 4.240578e-17 -12.236988)
(220.23124 3.9940288e-17 -11.857728)
(219.35257 -3.7602576e-17 -11.463791)
(218.49548 3.5386826e-17 -11.056979)
(217.66174 6.6758275e-17 -10.639219)
(216.85286 -6.2703955e-17 -10.212538)
(216.07004 3.5352184e-16 -9.7790249)
(215.31418 -2.7653437e-16 -9.3407911)
(214.58592 5.1903898e-17 -8.8999435)
(213.88558 -4.8835433e-17 -8.4585459)
(213.21324 0 -8.0185923)
(212.56875 2.1464511e-16 -7.5819787)
(211.95172 -1.6077195e-16 -7.150483)
(211.36157 0 -6.7257439)
(210.79757 0 -6.3092511)
(210.25884 1.3228268e-16 -5.9023327)
(209.7444 -6.18277e-17 -5.506153)
(209.25317 0 -5.12171)
(208.78401 -1.6244675e-16 -4.7498382)
(208.33574 1.011202e-16 -4.3912143)
(207.90713 1.4193094e-16 -4.0463618)
(207.49696 -1.7655187e-16 -3.71566)
(207.10399 1.6502019e-16 -3.3993594)
(206.72692 -1.5392889e-16 -3.0975839)
(206.36447 6.3260755e-20 -2.8103494)
(206.01533 0 -2.5376058)
(205.67811 6.256479e-17 -2.2792165)
(205.35131 -2.9169558e-16 -2.0349768)
(205.03325 1.6313786e-16 -1.8046266)
(204.72215 0 -1.5878472)
(204.41619 -1.4183609e-16 -1.3842683)
(204.11365 8.8105296e-17 -1.1934973)
(203.81299 1.2324942e-16 -1.0151929)
(203.5128 3.274268e-20 -0.84916343)
(203.2117 -7.1331471e-17 -0.69533788)
(202.90826 9.975464e-17 -0.5536064)
(202.60073 -1.5495715e-16 -0.42418357)
(202.28742 8.6663846e-17 -0.30746948)
(201.96886 2.6922531e-17 -0.19928277)
(201.64114 5.0245295e-17 -0.097099747)
(201.28302 0 -0.034614789)
(200.92597 -4.3751223e-17 0.024060732)
(200.64641 2.0385064e-17 0.37217667)
(220.43757 0 -26.980998)
(259.19816 9.8243583e-18 -8.9073953)
(241.94862 -3.0633332e-16 -26.746284)
(251.50776 2.5013921e-16 -10.765534)
(245.11614 2.569274e-16 -24.613162)
(248.20835 -5.011181e-16 -13.504755)
(245.54058 2.3049894e-16 -22.048069)
(246.19286 2.3336186e-16 -16.128327)
(244.97834 -2.2115928e-16 -20.014619)
(244.66214 3.9365623e-17 -17.852049)
(243.90399 0 -18.982483)
(243.29131 0 -18.543484)
(242.59419 -2.2389106e-17 -18.729252)
(241.88954 -1.699771e-16 -18.692006)
(241.15471 1.4067001e-16 -18.70756)
(240.39551 1.9081848e-17 -18.698021)
(239.61077 -3.6171256e-17 -18.680426)
(238.80113 3.0861167e-16 -18.649713)
(237.96706 -2.26789e-16 -18.605353)
(237.10932 2.4615005e-16 -18.545893)
(236.22886 -2.0341073e-16 -18.470063)
(235.32688 2.7578023e-17 -18.376567)
(234.40483 1.5667978e-16 -18.26414)
(233.46441 -1.9706473e-16 -18.131587)
(232.50756 0 -17.977785)
(231.53647 0 -17.801725)
(230.5536 0 -17.602536)
(229.56158 -1.973608e-16 -17.379514)
(228.56328 1.8591733e-16 -17.132147)
(227.5617 -3.5226306e-17 -16.860141)
(226.56 0 -16.563446)
(225.56138 -2.8238439e-16 -16.24227)
(224.56911 2.3601729e-16 -15.897087)
(223.58641 -5.5821248e-17 -15.528652)
(222.61644 1.578632e-16 -15.137996)
(221.66221 -4.9057776e-17 -14.726411)
(220.72659 -1.8607588e-16 -14.295446)
(219.81217 2.1950407e-16 -13.846874)
(218.92131 -1.6479209e-16 -13.382668)
(218.05606 7.7728237e-17 -12.904967)
(217.21815 -7.2938517e-17 -12.416037)
(216.40895 1.3710256e-16 -11.918228)
(215.6295 -6.4245814e-17 -11.413941)
(214.8805 -2.4179038e-16 -10.905579)
(214.16231 5.0984736e-16 -10.395512)
(213.47499 -2.1234365e-16 -9.8860399)
(212.81831 -1.4963211e-16 -9.3793644)
(212.19178 9.3035755e-17 -8.877556)
(211.59468 8.7509115e-17 -8.382536)
(211.02612 -1.637084e-16 -7.8960589)
(210.48504 1.5295676e-16 -7.4196999)
(209.97027 0 -6.9548502)
(209.48053 1.3387611e-16 -6.5027127)
(209.01448 -1.8751549e-16 -6.0643055)
(208.57075 5.8434041e-17 -5.6404667)
(208.14792 5.4460291e-17 -5.2318622)
(207.74461 0 -4.8389966)
(207.35941 0 -4.4622223)
(206.99095 0 -4.1017514)
(206.63789 0 -3.7576747)
(206.29888 0 -3.4299644)
(205.97259 -7.1547073e-17 -3.1184945)
(205.6577 0 -2.8230815)
(205.35286 -5.1538273e-20 -2.543471)
(205.05658 2.3101607e-16 -2.2793505)
(204.76727 -2.1490294e-16 -2.0303655)
(204.48316 -1.0003336e-16 -1.7961153)
(204.20247 -1.8599584e-16 -1.576161)
(203.92352 2.592637e-16 -1.3700515)
(203.64486 4.0498411e-20 -1.177388)
(203.36526 7.4669637e-17 -0.99789719)
(203.08351 0 -0.83144011)
(202.79811 0 -0.6779809)
(202.50714 0 -0.53772494)
(202.20943 -1.1142837e-16 -0.41037774)
(201.90538 0 -0.29229099)
(201.58849 -9.6258259e-17 -0.18438648)
(201.2431 1.3418645e-16 -0.11236443)
(200.90649 8.316684e-17 -0.02917033)
(200.60119 -1.9289036e-17 0.25665723)
(220.65978 0 -30.651655)
(259.75822 0 -11.649742)
(241.98949 3.2229824e-16 -30.37237)
(251.83716 1.9335456e-17 -13.68262)
(245.16009 -2.6970755e-16 -28.100088)
(248.32189 0 -16.600595)
(245.52628 1.6160076e-17 -25.315359)
(246.21655 -3.0631737e-17 -19.363373)
(244.84007 0 -23.129009)
(244.45281 1.9308862e-16 -21.096248)
(243.64343 -4.1803452e-16 -22.08822)
(242.96172 1.9794597e-16 -21.716655)
(242.20135 2.3493957e-17 -21.843757)
(241.42806 0 -21.80133)
(240.62381 2.1081686e-17 -21.788194)
(239.79328 -3.4005365e-16 -21.752363)
(238.936 7.4970284e-17 -21.703525)
(238.05284 2.5060402e-16 -21.638022)
(237.14471 2.3799007e-16 -21.554828)
(236.2128 -2.5670643e-16 -21.452371)
(235.25858 0 -21.329218)
(234.28377 -2.880288e-16 -21.183959)
(233.29041 2.4455616e-16 -21.015255)
(232.28083 -2.0612559e-16 -20.821885)
(231.25761 1.942784e-16 -20.602764)
(230.22362 -1.8411228e-16 -20.356973)
(229.18197 3.4731933e-16 -20.083815)
(228.13596 -1.6389749e-16 -19.782818)
(227.08906 1.5500511e-16 -19.453782)
(226.04487 -2.9222984e-16 -19.096795)
(225.00704 1.3754196e-16 -18.712256)
(223.97923 1.2989542e-16 -18.300883)
(222.96501 -2.450757e-16 -17.863712)
(221.96784 5.6903022e-17 -17.402094)
(220.991 -5.7076292e-19 -16.917686)
(220.0375 2.5496931e-16 -16.412409)
(219.11005 0 -15.888437)
(218.21104 1.9080947e-19 -15.34815)
(217.34247 0 -14.794084)
(216.50593 -7.9584704e-17 -14.228898)
(215.70262 -1.4956323e-16 -13.655317)
(214.93333 7.0218323e-17 -13.076082)
(214.19846 0 -12.493913)
(213.49804 -6.187473e-17 -11.911454)
(212.83174 2.8960949e-16 -11.331243)
(212.19895 -3.2513852e-16 -10.755675)
(211.59878 -3.0464512e-16 -10.186979)
(211.03012 2.8444807e-16 -9.6271928)
(210.49168 -1.7750988e-16 -9.0781517)
(209.98204 0 -8.5414806)
(209.49966 0 -8.0185906)
(209.04296 7.2443695e-17 -7.5106811)
(208.61028 6.7606516e-17 -7.0187465)
(208.19999 1.2599739e-16 -6.5435847)
(207.81046 -5.8752474e-17 -6.0858092)
(207.44007 -1.0944371e-16 -5.6458626)
(207.08727 -2.0408752e-16 -5.2240315)
(206.75054 -9.52068e-17 -4.8204596)
(206.42842 1.7676598e-16 -4.435162)
(206.11951 0 -4.0680467)
(205.82244 -7.6560442e-17 -3.7189156)
(205.53588 -1.4231138e-16 -3.387489)
(205.25856 1.322195e-16 -3.0734421)
(204.98918 6.1330154e-17 -2.7763961)
(204.72633 5.703778e-17 -2.4959283)
(204.46848 0 -2.2315877)
(204.21395 1.9663423e-16 -1.9828926)
(203.96101 1.8245709e-16 -1.7493391)
(203.70803 -2.5389041e-16 -1.5304231)
(203.45365 7.8516025e-17 -1.3256861)
(203.19682 -7.2780658e-17 -1.134777)
(202.93651 -4.2602482e-20 -0.9575177)
(202.67121 2.5013065e-16 -0.79391604)
(202.39902 -2.3180849e-16 -0.64399758)
(202.11905 5.3666271e-17 -0.50702283)
(201.8309 1.4926357e-16 -0.38061273)
(201.52713 -4.6104476e-17 -0.266925)
(201.19885 -4.2705718e-17 -0.18041487)
(200.88011 0 -0.080354728)
(200.55352 3.658904e-17 0.1468912)
(220.68204 3.919544e-16 -34.508939)
(260.12382 5.4041969e-19 -14.507706)
(241.8157 -3.5924318e-16 -34.145658)
(251.97975 0 -16.763111)
(244.94377 0 -31.663581)
(248.10101 -2.6802918e-16 -19.869541)
(245.20697 2.7114528e-16 -28.63771)
(245.72985 6.4308387e-17 -22.758853)
(244.43043 -2.4408471e-16 -26.342724)
(243.96548 2.3087234e-16 -24.485242)
(243.09442 -2.4674629e-16 -25.317661)
(242.33093 2.073929e-16 -25.009248)
(241.49527 -4.9200324e-17 -25.077304)
(240.64169 -4.6654646e-17 -25.020212)
(239.75654 -1.7679358e-16 -24.973435)
(238.84365 1.6698615e-16 -24.90363)
(237.90323 -3.5660069e-16 -24.815648)
(236.93656 5.9942198e-16 -24.706526)
(235.94509 -2.8321903e-16 -24.574848)
(234.93061 -2.6872311e-16 -24.418905)
(233.89522 2.5341061e-16 -24.237132)
(232.84138 -3.017517e-17 -24.028053)
(231.77185 -2.2715845e-16 -23.790327)
(230.68974 2.1398662e-16 -23.522806)
(229.59843 2.5348409e-16 -23.224557)
(228.50157 -1.4293535e-16 -22.894904)
(227.40303 0 -22.533472)
(226.30682 2.5561172e-16 -22.140209)
(225.21709 -3.2105536e-16 -21.715418)
(224.13796 1.1297003e-16 -21.259769)
(223.07356 -2.8560279e-16 -20.774307)
(222.02785 2.0121995e-16 -20.260451)
(221.00461 -6.3400918e-17 -19.719978)
(220.00735 2.3826172e-16 -19.15499)
(219.03923 -2.2349542e-16 -18.567898)
(218.10303 -2.106355e-16 -17.961359)
(217.20108 1.9742435e-16 -17.338239)
(216.33525 -4.6304928e-17 -16.701554)
(215.50694 0 -16.05441)
(214.71704 8.1934441e-17 -15.399949)
(213.96599 -7.6477616e-17 -14.741292)
(213.25378 0 -14.081485)
(212.57998 1.3465865e-16 -13.423453)
(211.9438 -6.2990028e-17 -12.769957)
(211.34415 -1.7662529e-16 -12.123568)
(210.77964 5.5092387e-16 -11.486636)
(210.24871 -2.0626503e-16 -10.861275)
(209.7496 9.6206958e-17 -10.249358)
(209.28046 -2.6975361e-16 -9.6525074)
(208.83938 -1.8227606e-19 -9.0721018)
(208.42438 1.5640572e-16 -8.5092847)
(208.03353 -1.4590675e-16 -7.9649737)
(207.66488 -6.7903083e-17 -7.4398759)
(207.31658 -6.325043e-17 -6.9345043)
(206.9868 -1.1809411e-16 -6.4491944)
(206.6738 2.1931725e-16 -5.9841232)
(206.37594 0 -5.5393258)
(206.09164 9.4777181e-17 -5.1147122)
(205.81942 -3.5265649e-16 -4.7100828)
(205.55788 2.4544174e-16 -4.3251507)
(205.30568 7.5958576e-17 -3.9595398)
(205.06154 1.4110535e-16 -3.6128139)
(204.82426 1.3109781e-16 -3.2845077)
(204.59263 -1.2130694e-16 -2.9741183)
(204.36536 -1.1241434e-16 -2.6811158)
(204.14102 -3.1270196e-16 -2.404956)
(203.91805 -3.9547713e-20 -2.1450814)
(203.69479 -8.9364916e-17 -1.9009293)
(203.46964 0 -1.6719474)
(203.24137 -2.2972079e-16 -1.4576199)
(203.00908 7.0834039e-17 -1.2575336)
(202.77191 0 -1.0714956)
(202.52846 1.2117833e-16 -0.89948291)
(202.277 0 -0.74122585)
(202.01657 1.0351464e-16 -0.59592404)
(201.74552 -1.4344338e-16 -0.46281579)
(201.45699 1.3254476e-16 -0.34326367)
(201.14928 -8.1624682e-17 -0.24086382)
(200.8471 7.5381859e-17 -0.13075171)
(200.50325 0 0.043540897)
(220.49312 -4.1176827e-16 -38.559891)
(260.28327 3.6380663e-16 -17.4992)
(241.39232 -3.332816e-16 -38.096321)
(251.87159 3.3142665e-16 -20.020302)
(244.44426 3.1736802e-16 -35.2874)
(247.65079 -1.8043351e-17 -23.323338)
(244.64458 -2.8416885e-16 -32.04106)
(245.11322 -2.6975662e-16 -26.345368)
(243.7285 2.8711955e-16 -29.675505)
(243.15599 0 -28.020831)
(242.21275 2.8649203e-17 -28.678413)
(241.35486 0 -28.421074)
(240.4312 -1.2885238e-16 -28.429635)
(239.48505 2.4329243e-16 -28.346292)
(238.50682 0 -28.258099)
(237.4999 0 -28.144064)
(236.46528 0 -28.006005)
(235.4049 3.9180245e-17 -27.84124)
(234.32091 0 -27.648063)
(233.21591 -2.4504874e-16 -27.424673)
(232.09288 3.3016288e-16 -27.16944)
(230.95517 1.2492736e-16 -26.880936)
(229.80649 1.7714061e-16 -26.557942)
(228.6509 -2.7823763e-16 -26.199546)
(227.49271 -5.2433494e-17 -25.805153)
(226.33647 -2.4813171e-16 -25.374544)
(225.18686 1.8675122e-16 -24.9079)
(224.04863 -2.2057003e-16 -24.405838)
(222.92651 8.2528612e-17 -23.869409)
(221.8251 7.8024318e-17 -23.30011)
(220.74879 0 -22.699866)
(219.70169 2.7756111e-16 -22.070997)
(218.68749 -2.6068541e-16 -21.416195)
(217.70947 0 -20.738457)
(216.77037 -2.3045669e-16 -20.041043)
(215.87238 2.1585844e-16 -19.327401)
(215.01713 -1.0172079e-16 -18.601098)
(214.20564 1.9044745e-16 -17.865753)
(213.4384 -2.6759348e-16 -17.124968)
(212.71533 1.2691237e-19 -16.38226)
(212.03587 -1.5634832e-16 -15.641007)
(211.39901 -7.3171353e-17 -14.904396)
(210.80339 -1.3732704e-16 -14.175387)
(210.24729 2.560069e-16 -13.45668)
(209.72877 -1.1946863e-16 -12.750696)
(209.2457 0 -12.059568)
(208.79583 -3.7556375e-19 -11.385138)
(208.37684 9.7187556e-17 -10.728964)
(207.98636 0 -10.092327)
(207.62206 8.4531914e-17 -9.4762492)
(207.28167 7.9034511e-17 -8.8815114)
(206.96296 -7.3383814e-17 -8.3086723)
(206.66382 2.7321469e-16 -7.7580903)
(206.38223 -2.5398931e-16 -7.2299454)
(206.1163 -1.1812415e-16 -6.7242597)
(205.86424 -1.097358e-16 -6.2409191)
(205.6244 1.0189331e-16 -5.7796911)
(205.39522 1.8901352e-16 -5.3402423)
(205.17526 -3.5061031e-16 -4.9221551)
(204.96319 4.063321e-16 -4.5249484)
(204.75773 -1.5056059e-16 -4.1480719)
(204.55771 1.395541e-16 -3.7909395)
(204.36203 -1.2918556e-16 -3.4529544)
(204.1696 2.3924811e-16 -3.1334972)
(203.97927 -3.3211634e-16 -2.8319396)
(203.78978 2.0473165e-16 -2.5476526)
(203.59967 -7.5939277e-20 -2.2800114)
(203.40739 8.7505049e-17 -2.0284026)
(203.21142 0 -1.7922293)
(203.01059 0 -1.570926)
(202.80414 0 -1.3640469)
(202.59138 -1.2715875e-16 -1.1713916)
(202.37114 1.300526e-20 -0.99280412)
(202.142 0 -0.82768736)
(201.90258 0 -0.67560252)
(201.64968 9.1945643e-17 -0.53733201)
(201.3785 -1.6942677e-16 -0.41164245)
(201.09409 0 -0.2933992)
(200.80742 0 -0.17941135)
(200.45024 -1.3196948e-16 -0.052899761)
(220.06027 2.7789925e-17 -42.813774)
(260.20049 -7.8768583e-16 -20.646399)
(240.69187 3.486867e-16 -42.189253)
(251.2443 -2.178465e-17 -23.459253)
(243.63139 3.7407385e-16 -39.030071)
(246.86892 -3.5277133e-16 -27.000476)
(243.77575 0 -35.561419)
(244.1126 -3.1776077e-16 -30.124201)
(242.67625 2.3359829e-16 -33.123783)
(241.97993 2.2186926e-16 -31.695932)
(240.95097 -2.3949099e-16 -32.173406)
(239.98459 0 -31.948219)
(238.95852 1.8819584e-19 -31.895076)
(237.90621 0 -31.771598)
(236.82173 3.8575095e-16 -31.630553)
(235.70845 -7.2871697e-16 -31.458592)
(234.56835 3.4403105e-16 -31.255708)
(233.40422 -4.0640035e-17 -31.019323)
(232.21925 -3.8614965e-17 -30.747558)
(231.01709 3.6698285e-17 -30.438605)
(229.80185 -6.853773e-17 -30.09093)
(228.57804 -3.2466662e-16 -29.703305)
(227.35053 3.055693e-16 -29.274873)
(226.12448 5.7604311e-17 -28.805207)
(224.90526 -2.7297704e-16 -28.294336)
(223.69834 -6.9450996e-19 -27.74281)
(222.50919 2.8992988e-16 -27.151687)
(221.3432 -1.8197016e-16 -26.52256)
(220.20551 -6.0756464e-19 -25.857531)
(219.10095 0 -25.159195)
(218.03388 0 -24.430585)
(217.00818 -7.1599324e-17 -23.675121)
(216.02708 1.3404696e-16 -22.896545)
(215.09316 0 -22.098835)
(214.20833 -1.1847304e-16 -21.286122)
(213.37378 2.2168387e-16 -20.46261)
(212.58999 -1.0385565e-16 -19.632479)
(211.85681 -1.9462995e-16 -18.799815)