/*--------------------------------*- C++ -*----------------------------------*\
  =========                 |
  \\      /  F ield         | OpenFOAM: The Open Source CFD Toolbox
   \\    /   O peration     | Website:  https://openfoam.org
    \\  /    A nd           | Version:  12
     \\/     M anipulation  |
\*---------------------------------------------------------------------------*/
FoamFile
{
    format      ascii;
    class       volScalarField;
    location    "0.037";
    object      nut;
}
// * * * * * * * * * * * * * * * * * * * * * * * * * * * * * * * * * * * * * //

dimensions      [0 2 -1 0 0 0 0];

internalField   nonuniform List<scalar> 
16000
(
4.5751099e-07
9.8257829e-06
1.9639483e-05
2.3359093e-05
1.8145898e-05
2.4772605e-05
1.7631398e-05
2.4010359e-05
1.8859227e-05
2.5830546e-05
2.193158e-05
2.5617895e-05
2.3451708e-05
2.4036014e-05
2.3258041e-05
2.3129621e-05
2.290386e-05
2.285072e-05
2.2875948e-05
2.2998237e-05
2.3211042e-05
2.3513758e-05
2.3904029e-05
2.4382052e-05
2.4949893e-05
2.5613617e-05
2.6381284e-05
2.7265805e-05
2.8282866e-05
2.9449311e-05
3.0783658e-05
3.2310568e-05
3.4061862e-05
3.6076695e-05
3.8403108e-05
4.1098196e-05
4.4229658e-05
4.7877861e-05
5.2141934e-05
5.7144147e-05
6.3027061e-05
6.9957743e-05
7.814623e-05
8.7848193e-05
9.9364956e-05
0.00011305442
0.00012935637
0.00014880001
0.00017202043
0.00019977941
0.00023299321
0.00027276407
0.00032041287
0.00037753288
0.00044605914
0.00052836779
0.00062740212
0.00074684628
0.00089138809
0.0010239192
0.0010237127
0.001023207
0.0010226544
0.0010219632
0.0010211312
0.0010200919
0.001018666
0.0010165682
0.0010136283
0.0010100868
0.0010066513
0.001005009
0.0010045608
0.0010044333
0.0010052159
0.0010075259
0.0010098327
0.0010116662
0.0010072796
0.0010077964
4.2014774e-07
9.3363106e-06
1.9613959e-05
2.1232609e-05
1.6404912e-05
2.2220081e-05
1.5685269e-05
2.1053179e-05
1.6697415e-05
2.2847935e-05
1.9899747e-05
2.3112475e-05
2.1464431e-05
2.1788484e-05
2.1183004e-05
2.1001745e-05
2.081216e-05
2.0751341e-05
2.077441e-05
2.0883769e-05
2.1077531e-05
2.1354622e-05
2.1713225e-05
2.2153646e-05
2.2677353e-05
2.328974e-05
2.3997811e-05
2.4812925e-05
2.5749756e-05
2.682445e-05
2.805391e-05
2.9460277e-05
3.1072519e-05
3.2926295e-05
3.5065787e-05
3.7543731e-05
4.0422992e-05
4.3777537e-05
4.7697733e-05
5.2296904e-05
5.7708961e-05
6.4087156e-05
7.1624199e-05
8.0557651e-05
9.1169238e-05
0.00010378952
0.00011882634
0.00013677241
0.00015822074
0.00018388394
0.0002146215
0.00025147373
0.00029569341
0.00034880013
0.00041264731
0.00048951886
0.0005822491
0.00069437643
0.00083037353
0.00099598257
0.0010218108
0.0010213165
0.00102081
0.001020185
0.0010194334
0.0010184784
0.0010171363
0.0010151429
0.0010124078
0.0010092804
0.001006396
0.001004979
0.0010045829
0.00100448
0.0010053194
0.0010073417
0.0010098488
0.0010112002
0.0010070647
0.0010082179
3.7975308e-07
8.9635765e-06
1.8573848e-05
1.9412489e-05
1.4717622e-05
1.9590452e-05
1.3988665e-05
1.83299e-05
1.5039408e-05
2.0070349e-05
1.8166763e-05
2.05902e-05
1.9446054e-05
1.9515884e-05
1.9050589e-05
1.8848259e-05
1.8687708e-05
1.8629879e-05
1.8653295e-05
1.8754564e-05
1.8932701e-05
1.9186963e-05
1.9515756e-05
1.9919727e-05
2.0399983e-05
2.0961484e-05
2.1610492e-05
2.2357103e-05
2.3214862e-05
2.4199292e-05
2.5326177e-05
2.661567e-05
2.8094395e-05
2.9795035e-05
3.175843e-05
3.4033432e-05
3.6678766e-05
3.9763406e-05
4.3370495e-05
4.7604983e-05
5.2593903e-05
5.8479962e-05
6.5441538e-05
7.3700404e-05
8.3523079e-05
9.5218615e-05
0.0001091692
0.00012583846
0.00014578629
0.00016968765
0.00019835848
0.00023279312
0.00027419575
0.00032403675
0.00038411928
0.00045667451
0.0005444792
0.00065100078
0.00078060507
0.00093885704
0.001020273
0.0010197933
0.0010193282
0.0010187599
0.0010180714
0.0010171716
0.0010158715
0.0010139321
0.0010113417
0.001008557
0.0010061583
0.0010049303
0.0010045784
0.0010044807
0.0010053798
0.0010072325
0.001009944
0.0010110878
0.001006974
0.0010084171
3.3828586e-07
8.6817077e-06
1.7654783e-05
1.8435431e-05
1.3273708e-05
1.7313695e-05
1.2481824e-05
1.6042772e-05
1.3563391e-05
1.7709678e-05
1.6596694e-05
1.8356405e-05
1.7580616e-05
1.7470473e-05
1.7108924e-05
1.6906079e-05
1.677099e-05
1.6721034e-05
1.6747191e-05
1.6843733e-05
1.7009673e-05
1.7244971e-05
1.7548208e-05
1.7920418e-05
1.8362361e-05
1.8879172e-05
1.9476168e-05
2.0162771e-05
2.0951382e-05
2.1857059e-05
2.2894843e-05
2.4083245e-05
2.5447036e-05
2.7016439e-05
2.8829574e-05
3.0932109e-05
3.3379414e-05
3.6236748e-05
3.9581773e-05
4.3512236e-05
4.8150309e-05
5.3631221e-05
6.0122636e-05
6.7833756e-05
7.7021092e-05
8.7978693e-05
0.00010107065
0.0001167408
0.00013552709
0.00015808112
0.00018519179
0.00021782743
0.00025716662
0.00030465689
0.00036208203
0.00043165482
0.00051613549
0.00061896958
0.0007444795
0.00089815104
0.0010190971
0.0010186359
0.0010182085
0.0010176878
0.0010170442
0.0010161706
0.0010148812
0.0010129805
0.0010105301
0.0010080377
0.0010059966
0.0010048665
0.0010045057
0.0010044797
0.0010053387
0.0010070801
0.00100981
0.001010949
0.0010070452
0.0010084762
3.0385245e-07
8.4839104e-06
1.6883555e-05
1.8387283e-05
1.3636578e-05
1.5331176e-05
1.1152873e-05
1.408127e-05
1.2298456e-05
1.5684473e-05
1.520004e-05
1.6349768e-05
1.5844945e-05
1.5615186e-05
1.5327952e-05
1.5136843e-05
1.5021717e-05
1.4979859e-05
1.5007442e-05
1.5098749e-05
1.5252541e-05
1.546961e-05
1.5748708e-05
1.6091224e-05
1.6497737e-05
1.6973493e-05
1.7523419e-05
1.8156164e-05
1.8883097e-05
1.9718829e-05
2.0677909e-05
2.1777521e-05
2.3040936e-05
2.449631e-05
2.6179505e-05
2.8133517e-05
3.0410861e-05
3.3073928e-05
3.6196383e-05
3.9869475e-05
4.4211618e-05
4.9352707e-05
5.5452414e-05
6.2709021e-05
7.1372074e-05
8.1724801e-05
9.4117659e-05
0.00010897995
0.00012683381
0.0001483155
0.00017419565
0.00020542713
0.00024317492
0.00028887733
0.00034431566
0.0004117052
0.00049381809
0.00059412004
0.00071695283
0.00086781304
0.0010182612
0.0010178156
0.0010174148
0.0010169249
0.0010163002
0.0010154174
0.0010140994
0.0010122123
0.001009889
0.0010076337
0.0010058416
0.0010047871
0.0010043811
0.001004425
0.0010051514
0.0010068065
0.0010096253
0.001010904
0.0010077326
0.0010083607
2.7923116e-07
8.3684654e-06
1.6272933e-05
1.7982618e-05
1.3287101e-05
1.3599742e-05
1.0928734e-05
1.2457252e-05
1.2147115e-05
1.4017424e-05
1.397489e-05
1.4588078e-05
1.4256618e-05
1.3957965e-05
1.3715958e-05
1.3538944e-05
1.3436746e-05
1.3400151e-05
1.3426927e-05
1.3511784e-05
1.36538e-05
1.3853872e-05
1.4111096e-05
1.4426708e-05
1.4801882e-05
1.5241643e-05
1.5750657e-05
1.6336865e-05
1.7010773e-05
1.7786541e-05
1.8678459e-05
1.9702666e-05
2.0881281e-05
2.2240797e-05
2.3815287e-05
2.5645618e-05
2.7782008e-05
3.0284702e-05
3.322489e-05
3.668845e-05
4.079073e-05
4.5658376e-05
5.1446149e-05
5.8343132e-05
6.6594887e-05
7.6478179e-05
8.8334456e-05
0.00010258419
0.0001197399
0.00014043116
0.0001654195
0.00019565334
0.00023229672
0.00027679461
0.00033093805
0.00039696948
0.00047769877
0.00057665093
0.00069824817
0.00084808617
0.0010177055
0.0010172857
0.0010168968
0.0010164168
0.0010157823
0.0010148561
0.0010134769
0.0010115841
0.0010093791
0.0010073089
0.0010056707
0.0010046862
0.0010042183
0.0010042181
0.0010047926
0.0010063741
0.0010093624
0.0010110545
0.0010086584
0.0010080305
2.5565155e-07
8.306489e-06
1.5794726e-05
1.6863432e-05
1.3178882e-05
1.2017514e-05
1.0851866e-05
1.1521902e-05
1.0961941e-05
1.2482649e-05
1.2841263e-05
1.3018936e-05
1.2773123e-05
1.2450206e-05
1.2235259e-05
1.2074223e-05
1.1982712e-05
1.1951397e-05
1.1978275e-05
1.2058113e-05
1.2191047e-05
1.2377064e-05
1.2615654e-05
1.2833058e-05
1.3173026e-05
1.3574497e-05
1.40417e-05
1.4581885e-05
1.5204436e-05
1.5922765e-05
1.675091e-05
1.7704044e-05
1.8803276e-05
2.0073574e-05
2.1547435e-05
2.3263871e-05
2.5271067e-05
2.762732e-05
3.0402333e-05
3.3933105e-05
3.7846044e-05
4.2499557e-05
4.8046403e-05
5.4668203e-05
6.2608329e-05
7.2140949e-05
8.3602495e-05
9.7409302e-05
0.00011406908
0.00013421191
0.00015859753
0.00018817869
0.0002241274
0.00026790695
0.00032133739
0.0003866988
0.00046686326
0.00056545049
0.00068702115
0.00083736057
0.0010174032
0.0010169908
0.0010165963
0.0010161015
0.0010154262
0.0010144263
0.001012965
0.0010110552
0.0010089535
0.0010070148
0.0010054772
0.0010045358
0.0010039993
0.0010038413
0.0010042823
0.0010058009
0.0010089869
0.0010111907
0.0010098774
0.0010072052
2.3058002e-07
8.2721399e-06
1.5374521e-05
1.5211714e-05
1.154724e-05
1.0464046e-05
8.9193079e-06
9.7651057e-06
9.6526358e-06
1.1253572e-05
1.1709173e-05
1.1576039e-05
1.13642e-05
1.1053548e-05
1.0861087e-05
1.0719801e-05
1.0641226e-05
1.0617892e-05
1.0583582e-05
1.0645994e-05
1.0761161e-05
1.0929016e-05
1.1148283e-05
1.1416871e-05
1.1739843e-05
1.2120121e-05
1.256195e-05
1.3072504e-05
1.3660607e-05
1.4339238e-05
1.5122629e-05
1.6025436e-05
1.7068276e-05
1.8275161e-05
1.967767e-05
2.1313659e-05
2.3230109e-05
2.5484143e-05
2.8144979e-05
3.1296306e-05
3.503943e-05
3.9502106e-05
4.4837392e-05
5.1654354e-05
5.9377702e-05
6.8672579e-05
7.9874475e-05
9.3399855e-05
0.00010975616
0.00012958104
0.00015363957
0.00018289753
0.00021854597
0.00026207589
0.00031535102
0.0003807105
0.00046111114
0.00056030205
0.00068303962
0.00083538828
0.001017284
0.0010168667
0.0010164479
0.0010159129
0.0010151666
0.0010140688
0.0010125188
0.0010105922
0.0010085747
0.0010067181
0.0010052935
0.0010043568
0.0010037053
0.0010033594
0.0010036787
0.0010051398
0.0010084524
0.0010111892
0.0010106664
0.0010057739
2.1123026e-07
8.2329501e-06
1.48985e-05
1.3345956e-05
9.4910182e-06
9.3082191e-06
7.4276614e-06
8.8042517e-06
8.9491174e-06
1.0086369e-05
1.0571077e-05
1.0241006e-05
1.0040868e-05
9.7630269e-06
9.5931721e-06
9.4074807e-06
9.3191803e-06
9.2909115e-06
9.3155382e-06
9.3898556e-06
9.5106637e-06
9.6777215e-06
9.8911088e-06
1.0150813e-05
1.0460635e-05
1.0824328e-05
1.1246243e-05
1.1733587e-05
1.2294803e-05
1.2942424e-05
1.3690988e-05
1.4554884e-05
1.555455e-05
1.6713348e-05
1.8062308e-05
1.9638617e-05
2.1488561e-05
2.3668676e-05
2.6247617e-05
2.9308373e-05
3.295273e-05
3.7306676e-05
4.252644e-05
4.8791175e-05
5.6330428e-05
6.5428455e-05
7.7099728e-05
9.0496526e-05
0.00010673165
0.0001264569
0.0001504499
0.00017969812
0.00021542146
0.00025915229
0.00031281345
0.00037882457
0.00046025432
0.00056101736
0.00068612053
0.00084199342
0.001017276
0.0010168473
0.0010163861
0.0010157874
0.0010149454
0.0010137339
0.0010120991
0.0010101646
0.0010082114
0.0010064175
0.0010051252
0.0010041692
0.0010033707
0.0010028451
0.0010030602
0.0010044697
0.0010077078
0.0010108495
0.0010111115
0.0010049361
1.9482465e-07
8.1935194e-06
1.3096593e-05
1.1690026e-05
7.669775e-06
8.3028893e-06
6.7195395e-06
7.8976274e-06
8.3430556e-06
9.0282516e-06
9.4382832e-06
9.0186081e-06
8.8221746e-06
8.4998005e-06
8.3208574e-06
8.2045488e-06
8.1484084e-06
8.1438327e-06
8.1851771e-06
8.2701253e-06
8.3956262e-06
8.56332e-06
8.7738306e-06
9.0271001e-06
9.327418e-06
9.6789543e-06
1.0086212e-05
1.0556559e-05
1.1098202e-05
1.172326e-05
1.2446635e-05
1.3282771e-05
1.4252164e-05
1.5377813e-05
1.6690541e-05
1.8227284e-05
2.0034102e-05
2.216751e-05
2.4696573e-05
2.7704855e-05
3.1294473e-05
3.5591398e-05
4.0755607e-05
4.6967168e-05
5.445916e-05
6.3519891e-05
7.4503449e-05
8.7822877e-05
0.00010495572
0.00012479575
0.0001489817
0.00017853163
0.00021470616
0.0002590932
0.00031369391
0.00038103412
0.00046432705
0.00056769406
0.00069644767
0.00085746524
0.0010173241
0.0010168691
0.0010163496
0.0010156694
0.0010147183
0.0010133905
0.0010116819
0.00100975
0.0010078372
0.0010061814
0.0010049954
0.0010040108
0.0010030763
0.0010023887
0.0010025011
0.0010038588
0.0010068719
0.0010098123
0.001011191
0.0010043758
1.7971646e-07
8.1505202e-06
1.0394127e-05
9.5098244e-06
6.3677515e-06
7.3935555e-06
6.1377085e-06
7.1014276e-06
7.7795167e-06
8.0519367e-06
8.3357179e-06
7.8224442e-06
7.5791405e-06
7.3535116e-06
7.2196497e-06
7.1405533e-06
7.1118392e-06
7.1276493e-06
7.18333e-06
7.2778098e-06
7.4091173e-06
7.5787053e-06
7.7882242e-06
8.0380995e-06
8.3326595e-06
8.6765161e-06
9.0744477e-06
9.5340388e-06
1.006346e-05
1.0674488e-05
1.1323753e-05
1.213348e-05
1.3074696e-05
1.4170039e-05
1.5450143e-05
1.6951772e-05
1.8720875e-05
2.0814064e-05
2.3301022e-05
2.6266278e-05
2.9813457e-05
3.433824e-05
3.9506377e-05
4.5736745e-05
5.3266405e-05
6.2389295e-05
7.347406e-05
8.6949296e-05
0.00010335828
0.00012338158
0.0001492111
0.00017937937
0.00021639092
0.00026190574
0.00031802549
0.00038741245
0.00047346297
0.00058055266
0.00071435688
0.00088227713
0.001017373
0.0010168779
0.0010162884
0.0010155168
0.0010144576
0.0010130284
0.0010112633
0.0010093452
0.0010074562
0.001006024
0.0010049312
0.001003918
0.0010028541
0.0010020473
0.0010020566
0.0010032997
0.0010061039
0.0010086855
0.0010098765
0.0010038841
1.6645491e-07
8.1064618e-06
8.2297087e-06
8.2918529e-06
5.678935e-06
6.5463429e-06
5.6342668e-06
6.4004847e-06
7.2213482e-06
7.1471797e-06
7.1470068e-06
6.7138394e-06
6.5135667e-06
6.3464028e-06
6.2509103e-06
6.2028648e-06
6.1977035e-06
6.2314718e-06
6.3005547e-06
6.4046758e-06
6.5424627e-06
6.7156783e-06
6.9267092e-06
7.1764361e-06
7.4692814e-06
7.7766061e-06
8.1637694e-06
8.6120085e-06
9.129375e-06
9.7272214e-06
1.0419197e-05
1.1223065e-05
1.2158718e-05
1.3248899e-05
1.4524611e-05
1.6023112e-05
1.7791078e-05
1.9886103e-05
2.2379633e-05
2.5358492e-05
2.892949e-05
3.3225731e-05
3.8409633e-05
4.467505e-05
5.2265473e-05
6.2018399e-05
7.3326861e-05
8.7103974e-05
0.0001039117
0.00012446542
0.0001496459
0.00018225259
0.000220505
0.00026764526
0.00032590039
0.00039810303
0.00048787598
0.00059990241
0.0007402815
0.00091700733
0.0010173794
0.0010168334
0.0010161686
0.0010153055
0.0010141513
0.0010126501
0.0010108536
0.0010089592
0.0010072141
0.0010059575
0.0010049482
0.0010039104
0.0010027331
0.0010018478
0.0010017572
0.0010027529
0.0010053222
0.001007678
0.0010091504
0.0010033561
1.5456773e-07
8.0482926e-06
6.5776885e-06
7.2720817e-06
5.0679594e-06
5.7975933e-06
5.1998339e-06
5.7771789e-06
6.5524205e-06
6.1182669e-06
6.0747277e-06
5.7422075e-06
5.5823782e-06
5.4627097e-06
5.4003528e-06
5.3792826e-06
5.3952705e-06
5.4457918e-06
5.5280146e-06
5.6423646e-06
5.7881582e-06
5.967265e-06
6.1564849e-06
6.4037331e-06
6.6937635e-06
7.0306104e-06
7.4211244e-06
7.8725951e-06
8.3933043e-06
8.994824e-06
9.6909766e-06
1.0499341e-05
1.1441107e-05
1.2539433e-05
1.3825957e-05
1.5338822e-05
1.7125994e-05
1.9246596e-05
2.1774603e-05
2.4800236e-05
2.8433791e-05
3.2812459e-05
3.8108917e-05
4.4524009e-05
5.2311879e-05
6.1789146e-05
7.3350004e-05
8.7472039e-05
0.00010566937
0.00012697631
0.00015313065
0.00018530023
0.000227099
0.00027639209
0.00033743746
0.00041327413
0.00050779628
0.00062604956
0.00077462224
0.0009621622
0.0010173137
0.0010167103
0.001015974
0.0010150303
0.0010138014
0.0010122603
0.0010104693
0.001008587
0.0010070917
0.0010059868
0.0010050483
0.0010039952
0.0010027507
0.001001755
0.0010015879
0.0010022767
0.001004672
0.0010069256
0.0010082332
0.001002658
1.4396324e-07
7.9774039e-06
5.2940638e-06
6.3559688e-06
4.5142429e-06
5.1259494e-06
4.8275177e-06
5.138535e-06
5.7219394e-06
5.2244764e-06
5.1345583e-06
4.8914835e-06
4.7698833e-06
4.6898889e-06
4.6570022e-06
4.6602913e-06
4.6960816e-06
4.7629054e-06
4.8587043e-06
4.9658241e-06
5.1155497e-06
5.2984698e-06
5.5167799e-06
5.7733635e-06
6.0723728e-06
6.41823e-06
6.8177235e-06
7.2787905e-06
7.8099574e-06
8.4229829e-06
9.1318475e-06
9.9544028e-06
1.0862977e-05
1.1970668e-05
1.3269284e-05
1.4797879e-05
1.6605977e-05
1.875438e-05
2.1319748e-05
2.4396372e-05
2.8099275e-05
3.2818562e-05
3.8283909e-05
4.4917653e-05
5.2986228e-05
6.2820115e-05
7.4839654e-05
8.95533e-05
0.00010758849
0.0001309228
0.00015833729
0.00019212299
0.00023384482
0.00028822967
0.00035275277
0.00043307806
0.00053341489
0.00065922027
0.00081763577
0.0010177669
0.0010171589
0.0010164977
0.0010157014
0.0010146991
0.0010134224
0.0010118629
0.0010101152
0.0010083537
0.0010070735
0.0010061024
0.0010052251
0.0010041692
0.0010028784
0.0010017758
0.0010015076
0.0010018876
0.0010042012
0.001006352
0.0010071856
0.0010019673
1.3450077e-07
7.8356486e-06
4.3145218e-06
5.5375189e-06
4.0203097e-06
4.5273344e-06
4.4989185e-06
4.4447685e-06
4.8893807e-06
4.4272218e-06
4.3194262e-06
4.1496952e-06
4.0646013e-06
4.0189658e-06
4.012946e-06
4.0388334e-06
4.0936466e-06
4.1602878e-06
4.2648664e-06
4.3991137e-06
4.5638637e-06
4.7606091e-06
4.9922355e-06
5.2618389e-06
5.5741452e-06
5.9338515e-06
6.3478292e-06
6.8040345e-06
7.3465252e-06
7.9717749e-06
8.6938611e-06
9.5307179e-06
1.0504255e-05
1.164199e-05
1.297669e-05
1.4548935e-05
1.6410851e-05
1.8625995e-05
2.1274737e-05
2.4457101e-05
2.8294702e-05
3.2940825e-05
3.8580766e-05
4.544313e-05
5.381015e-05
6.4567896e-05
7.7173319e-05
9.2632169e-05
0.0001116178
0.00013497105
0.00016528212
0.00020104895
0.00024530208
0.00030017521
0.00037192319
0.00045760399
0.00056482231
0.00069948145
0.0008693213
0.0010175514
0.0010169082
0.0010161952
0.0010153547
0.001014321
0.0010130333
0.0010114797
0.0010097668
0.0010082542
0.0010071448
0.0010062897
0.0010054675
0.0010044219
0.0010030993
0.0010018788
0.0010014447
0.0010015941
0.0010039533
0.0010060397
0.0010061325
0.0010014547
1.260992e-07
7.4967776e-06
3.6581354e-06
4.8104529e-06
3.5785422e-06
3.9950673e-06
3.9852274e-06
3.8162201e-06
4.0915686e-06
3.7222507e-06
3.6205759e-06
3.5092846e-06
3.4584926e-06
3.4432135e-06
3.4618119e-06
3.4961265e-06
3.5632705e-06
3.6590978e-06
3.7828245e-06
3.9347006e-06
4.1161883e-06
4.3293037e-06
4.5773573e-06
4.863741e-06
5.1819137e-06
5.556341e-06
5.9856093e-06
6.4776848e-06
7.0425792e-06
7.6922082e-06
8.4410865e-06
9.3079753e-06
1.0315816e-05
1.1493351e-05
1.2875878e-05
1.450579e-05
1.6438469e-05
1.8741081e-05
2.1498131e-05
2.4816797e-05
2.8825085e-05
3.3686171e-05
3.9600419e-05
4.6810498e-05
5.56199e-05
6.640282e-05
8.0329884e-05
9.6693654e-05
0.00011682235
0.00014163057
0.00017223974
0.00021208085
0.00025931989
0.00031799353
0.00039104396
0.00048682465
0.0006019419
0.00074666154
0.00092931693
0.0010172423
0.0010165638
0.0010158109
0.0010149416
0.0010139003
0.0010126389
0.001011146
0.0010095144
0.0010082512
0.0010072916
0.0010065339
0.0010057614
0.0010047356
0.0010033908
0.0010020582
0.0010014318
0.0010014277
0.0010037779
0.0010058145
0.001005252
0.0010010844
1.1884857e-07
7.0941284e-06
3.2155721e-06
4.1627277e-06
3.1845166e-06
3.3727629e-06
3.5299482e-06
3.240732e-06
3.3725921e-06
3.1099035e-06
3.0289761e-06
2.9638439e-06
2.9442299e-06
2.9560717e-06
2.9825565e-06
3.0454465e-06
3.1358761e-06
3.2526847e-06
3.3959954e-06
3.5667877e-06
3.7670688e-06
3.9991421e-06
4.2586439e-06
4.562532e-06
4.9100645e-06
5.3068587e-06
5.759666e-06
6.2767726e-06
6.8684409e-06
7.5474095e-06
8.3287415e-06
9.2321147e-06
1.0281674e-05
1.1507824e-05
1.2893102e-05
1.4579274e-05
1.658126e-05
1.8970508e-05
2.1967311e-05
2.5451733e-05
2.9667557e-05
3.4788256e-05
4.1031009e-05
4.8656018e-05
5.7988268e-05
6.9432628e-05
8.3489893e-05
0.00010078109
0.00012316951
0.00014966944
0.00018241743
0.00022295946
0.00027583654
0.00033884767
0.00041737619
0.00052053407
0.00064444775
0.00080024717
0.00099679786
0.0010168493
0.0010161385
0.0010153598
0.0010144783
0.0010134483
0.0010122361
0.0010108512
0.0010093958
0.0010083245
0.0010074972
0.0010068188
0.0010060897
0.0010050903
0.0010037372
0.0010023005
0.0010014596
0.0010013877
0.0010034394
0.0010053058
0.0010046602
0.0010008731
1.1299545e-07
6.076915e-06
2.8357372e-06
3.572934e-06
2.8426049e-06
2.7981836e-06
3.0778546e-06
2.7204377e-06
2.7561936e-06
2.5867684e-06
2.5332642e-06
2.5055611e-06
2.5067336e-06
2.5362654e-06
2.5968178e-06
2.6843865e-06
2.7971437e-06
2.9349493e-06
3.0986784e-06
3.2897563e-06
3.5055954e-06
3.7569488e-06
4.0440046e-06
4.3707907e-06
4.7421168e-06
5.163815e-06
5.6429772e-06
6.1882535e-06
6.8102864e-06
7.5061357e-06
8.3190988e-06
9.2576432e-06
1.0347097e-05
1.1619224e-05
1.3113798e-05
1.4880616e-05
1.6981345e-05
1.9493321e-05
2.2512686e-05
2.6158496e-05
3.0578976e-05
3.621574e-05
4.2838192e-05
5.0942615e-05
6.0877637e-05
7.3079801e-05
8.8090962e-05
0.00010658554
0.00013059109
0.0001590081
0.0001941708
0.00023774769
0.00029468384
0.00036251168
0.00044707977
0.0005527663
0.00069166089
0.00085922819
0.0010171019
0.0010163862
0.001015652
0.0010148637
0.0010139906
0.0010129951
0.0010118495
0.0010105753
0.0010093681
0.0010084547
0.0010077382
0.0010071223
0.0010064299
0.0010054656
0.0010041406
0.0010026537
0.0010015984
0.0010015683
0.0010030427
0.0010047014
0.0010042348
0.0010008028
1.0804105e-07
4.285929e-06
2.4875878e-06
3.0251313e-06
2.4132405e-06
2.3164884e-06
2.6057276e-06
2.2577731e-06
2.2433147e-06
2.1461252e-06
2.1229274e-06
2.120578e-06
2.1496011e-06
2.2092689e-06
2.2955993e-06
2.4063247e-06
2.5408324e-06
2.6996699e-06
2.8816043e-06
3.0925523e-06
3.3335904e-06
3.6075746e-06
3.9179722e-06
4.2689917e-06
4.6657026e-06
5.114212e-06
5.6219336e-06
6.1888112e-06
6.8406208e-06
7.5848894e-06
8.4388296e-06
9.4238543e-06
1.0566988e-05
1.1902225e-05
1.3472259e-05
1.5330419e-05
1.7543155e-05
2.0193371e-05
2.3384517e-05
2.7245389e-05
3.1936164e-05
3.7655196e-05
4.4980476e-05
5.3622225e-05
6.4232444e-05
7.7282379e-05
9.3357765e-05
0.00011318905
0.00013768844
0.0001695034
0.00020732043
0.00025421915
0.00031247422
0.00038856674
0.00047958062
0.00059321664
0.00074243168
0.00092192754
0.0010165932
0.0010158716
0.0010151286
0.0010143482
0.0010135053
0.0010125725
0.0010115303
0.0010104028
0.0010093924
0.0010086106
0.0010079827
0.0010074161
0.0010067571
0.0010058363
0.0010045717
0.0010031042
0.0010018936
0.0010015598
0.0010026422
0.0010040989
0.0010037688
0.0010008522
1.0284166e-07
3.5402573e-06
2.1280792e-06
2.5214364e-06
2.0615277e-06
1.913265e-06
2.1230137e-06
1.8524071e-06
1.8262139e-06
1.7839024e-06
1.786995e-06
1.8154469e-06
1.8758823e-06
1.9620902e-06
2.0717646e-06
2.2040884e-06
2.3593563e-06
2.5368562e-06
2.741263e-06
2.9737663e-06
3.2369242e-06
3.533827e-06
3.868162e-06
4.2443259e-06
4.6675933e-06
5.1443295e-06
5.6761684e-06
6.2821123e-06
6.9697398e-06
7.7535633e-06
8.6518647e-06
9.6875164e-06
1.0889348e-05
1.2293687e-05
1.3946371e-05
1.5904954e-05
1.8241133e-05
2.10441e-05
2.4425204e-05
2.8522683e-05
3.3508918e-05
3.9883829e-05
4.7403739e-05
5.6630957e-05
6.797626e-05
8.1947813e-05
9.9177637e-05
0.0001204533
0.00014811649
0.00018093087
0.00022157864
0.00027199742
0.00033461312
0.00041634793
0.00051398707
0.0006356587
0.00079504184
0.0009859394
0.0010160512
0.0010153287
0.0010145928
0.0010138364
0.0010130407
0.0010121863
0.0010112607
0.0010102855
0.0010094294
0.0010087534
0.0010081949
0.0010076701
0.0010070461
0.0010061711
0.0010049584
0.0010035104
0.0010022108
0.0010016509
0.0010021853
0.0010033149
0.001003141
0.0010010401
9.9015617e-08
2.82751e-06
1.816953e-06
2.0175351e-06
1.7694575e-06
1.5675697e-06
1.6786122e-06
1.5091939e-06
1.4979004e-06
1.4990478e-06
1.5289036e-06
1.5901525e-06
1.6769899e-06
1.7860034e-06
1.9163449e-06
2.0682877e-06
2.2418843e-06
2.4402242e-06
2.6649425e-06
2.9184067e-06
3.2034372e-06
3.5233248e-06
3.8819202e-06
4.2837734e-06
4.7343347e-06
5.2367877e-06
5.8042703e-06
6.4444719e-06
7.1695952e-06
7.9949776e-06
8.9401188e-06
1.0029455e-05
1.1293832e-05
1.2772099e-05
1.4513274e-05
1.6579202e-05
1.9047498e-05
2.2013925e-05
2.5598583e-05
2.9950126e-05
3.5484691e-05
4.2022745e-05
5.0037157e-05
5.9884739e-05
7.20065e-05
8.6950217e-05
0.0001053957
0.00012818937
0.00015779319
0.00019296306
0.00023653043
0.00029054835
0.00035757749
0.00044490012
0.00054903461
0.00067841067
0.00084721676
0.0010162367
0.0010154973
0.0010147812
0.0010140644
0.0010133421
0.0010126008
0.0010118264
0.0010110122
0.0010101771
0.0010094407
0.0010088476
0.0010083439
0.0010078552
0.0010072672
0.0010064451
0.001005298
0.0010038867
0.0010025281
0.0010017271
0.0010017459
0.0010023701
0.0010024832
0.001001314
9.6780414e-08
2.2066157e-06
1.5461448e-06
1.5373897e-06
1.5003516e-06
1.2722593e-06
1.3172242e-06
1.2353895e-06
1.2516072e-06
1.2836797e-06
1.3466317e-06
1.4336787e-06
1.5418874e-06
1.6700004e-06
1.8183368e-06
1.9879613e-06
2.1798244e-06
2.3968901e-06
2.6410656e-06
2.9149563e-06
3.221549e-06
3.5642797e-06
3.9471343e-06
4.3748003e-06
4.8528807e-06
5.3881845e-06
5.9891067e-06
6.6660928e-06
7.4240268e-06
8.2921246e-06
9.2855473e-06
1.0430411e-05
1.1759739e-05
1.3315151e-05
1.5148959e-05
1.7396438e-05
2.0021607e-05
2.3181265e-05
2.7005101e-05
3.1654043e-05
3.7327547e-05
4.4272556e-05
5.2796221e-05
6.3279409e-05
7.6194792e-05
9.2129353e-05
0.00011181082
0.00013733094
0.00016765354
0.00020517532
0.0002516323
0.00030917533
0.00038406626
0.00047303368
0.00058318916
0.00071950233
0.00089640942
0.0010156706
0.0010149496
0.0010142477
0.0010135563
0.0010128712
0.0010121834
0.0010114819
0.0010107628
0.0010100425
0.001009399
0.0010088712
0.001008411
0.0010079527
0.0010073988
0.0010066335
0.0010055675
0.0010042128
0.0010027815
0.0010017726
0.0010014707
0.0010015701
0.0010016244
0.0010011926
9.6922285e-08
1.6764455e-06
1.3173517e-06
1.1695293e-06
1.2301323e-06
1.0252592e-06
1.0520246e-06
1.0331249e-06
1.0776807e-06
1.1391503e-06
1.2260354e-06
1.3326294e-06
1.457944e-06
1.60219e-06
1.7664835e-06
1.9523789e-06
2.1614841e-06
2.3963958e-06
2.6593728e-06
2.9531527e-06
3.2808338e-06
3.6459624e-06
4.0526466e-06
4.5057183e-06
5.0109589e-06
5.5754054e-06
6.2077625e-06
6.9189244e-06
7.7226291e-06
8.6362915e-06
9.6819943e-06
1.0887802e-05
1.2289221e-05
1.3931094e-05
1.5869817e-05
1.8176103e-05
2.0938401e-05
2.4267347e-05
2.8300651e-05
3.3209801e-05
3.9207948e-05
4.6559107e-05
5.5588625e-05
6.6702124e-05
8.0401377e-05
9.8113264e-05
0.00011915749
0.00014516239
0.00017731546
0.0002170842
0.00026627607
0.00033018321
0.00040594234
0.0004994988
0.00061491531
0.0007644327
0.00094041258
0.0010151219
0.0010144224
0.0010137413
0.0010130772
0.0010124271
0.0010117858
0.0010111446
0.0010104989
0.0010098634
0.0010092938
0.001008818
0.0010083926
0.0010079596
0.001007437
0.0010067275
0.0010057527
0.0010045121
0.0010031488
0.0010019625
0.001001252
0.0010009607
0.0010007632
0.0010004736
1.0024444e-07
1.2434915e-06
1.1276178e-06
9.0032133e-07
1.0730512e-06
8.2169852e-07
8.7012167e-07
8.9614571e-07
9.6338475e-07
1.0478572e-06
1.152117e-06
1.2738148e-06
1.4134009e-06
1.5719289e-06
1.7509265e-06
1.9521724e-06
2.1776861e-06
2.4295887e-06
2.7105834e-06
3.0234185e-06
3.3712854e-06
3.7578373e-06
4.1873104e-06
4.6646937e-06
5.1959646e-06
5.7884097e-06
6.4510598e-06
7.1952859e-06
8.0354739e-06
8.989941e-06
1.008195e-05
1.1341147e-05
1.2805096e-05
1.4521284e-05
1.6549477e-05
1.8964666e-05
2.1860606e-05
2.5354213e-05
2.959098e-05
3.4751702e-05
4.1339609e-05
4.9138464e-05
5.8720294e-05
7.0515135e-05
8.5054592e-05
0.00010299637
0.00012515358
0.00015252975
0.00018635766
0.00023028931
0.00028231013
0.00034650144
0.00042563583
0.00052306013
0.00064905321
0.00079690687
0.00097755383
0.0010146047
0.0010139272
0.0010132688
0.0010126315
0.0010120116
0.0010114065
0.0010108106
0.0010102174
0.0010096378
0.0010091275
0.0010086936
0.0010082978
0.0010078899
0.0010074016
0.0010067534
0.0010058819
0.0010047828
0.0010035393
0.001002313
0.0010013129
0.0010007245
0.0010004134
0.0010001918
1.0684952e-07
9.617582e-07
9.620056e-07
7.6192637e-07
7.653044e-07
7.0182785e-07
7.4848581e-07
8.0962902e-07
8.9402623e-07
9.9455842e-07
1.1119694e-06
1.2462394e-06
1.3984938e-06
1.5701077e-06
1.7627358e-06
1.9782237e-06
2.2186357e-06
2.4862739e-06
2.7837204e-06
3.1138839e-06
3.4800686e-06
3.8860642e-06
4.3362745e-06
4.8358984e-06
5.3911835e-06
6.0077941e-06
6.6979967e-06
7.4723904e-06
8.3530567e-06
9.3482581e-06
1.0487295e-05
1.1801528e-05
1.3330678e-05
1.5124907e-05
1.7247326e-05
1.9777036e-05
2.2812871e-05
2.6478008e-05
3.0925634e-05
3.6345993e-05
4.2975107e-05
5.1105569e-05
6.109965e-05
7.3403753e-05
8.8571565e-05
0.00010728588
0.00013154785
0.00016029446
0.0001957732
0.00023954667
0.00029351568
0.00035998439
0.0004417266
0.00054721121
0.00067095571
0.00082199368
0.0010057052
0.0010141375
0.0010134755
0.0010128361
0.001012221
0.0010116247
0.0010110442
0.0010104775
0.0010099194
0.0010093737
0.0010089108
0.0010085128
0.0010081474
0.0010077715
0.0010073279
0.0010067498
0.0010059825
0.0010050149
0.0010038986
0.0010027322
0.001001637
0.0010007782
0.0010003553
0.0010000613
1.214561e-07
9.6536782e-07
8.0246811e-07
5.6469397e-07
6.0888405e-07
6.1274109e-07
6.775064e-07
7.5733619e-07
8.5521075e-07
9.6794383e-07
1.0966075e-06
1.2420726e-06
1.4056872e-06
1.5889213e-06
1.7934609e-06
2.0211853e-06
2.2741998e-06
2.5548638e-06
2.8658297e-06
3.2100904e-06
3.5910434e-06
4.0125804e-06
4.479215e-06
4.9962649e-06
5.5701133e-06
6.2085688e-06
6.9213492e-06
7.720709e-06
8.6222427e-06
9.6458588e-06
1.0816961e-05
1.2167936e-05
1.3739862e-05
1.558465e-05
1.7767598e-05
2.0370529e-05
2.3495633e-05
2.7270159e-05
3.1852211e-05
3.7437896e-05
4.4270255e-05
5.3025718e-05
6.3405682e-05
7.6179624e-05
9.1918833e-05
0.00011132583
0.00013526468
0.0001647949
0.00020121135
0.00024608798
0.00030133452
0.00037265821
0.0004565941
0.00055932517
0.00068473829
0.00083737734
0.001014457
0.001013751
0.0010130939
0.0010124625
0.0010118578
0.0010112735
0.0010107035
0.0010101467
0.0010096071
0.0010090872
0.0010086623
0.0010082994
0.0010079694
0.0010076339
0.0010072435
0.0010067429
0.0010060869
0.0010052599
0.0010042859
0.0010032179
0.0010021315
0.0010011483
0.0010004412
0.0010001396
1.1129699e-07
6.2275157e-07
6.3627057e-07
4.6784275e-07
5.1157616e-07
5.5837753e-07
6.3810213e-07
7.3153662e-07
8.4013767e-07
9.6329998e-07
1.1021563e-06
1.2578088e-06
1.4316304e-06
1.6251482e-06
1.8400877e-06
2.078384e-06
2.342209e-06
2.6339718e-06
2.9564471e-06
3.3127015e-06
3.7062273e-06
4.1410167e-06
4.6216903e-06
5.1536823e-06
5.7435065e-06
6.3991248e-06
7.1304426e-06
7.9499584e-06
8.8803921e-06
9.9316537e-06
1.1134454e-05
1.25222e-05
1.4137215e-05
1.603295e-05
1.8276583e-05
2.0952256e-05
2.4164984e-05
2.8045488e-05
3.2756146e-05
3.8498301e-05
4.5521242e-05
5.4133106e-05
6.4714131e-05
7.7734524e-05
9.3772876e-05
0.00011354095
0.00013791203
0.00016942711
0.00020671305
0.00025259491
0.00030898727
0.00037818512
0.00046292916
0.00056647542
0.00069266983
0.00084602115
0.0010141905
0.0010134863
0.0010128279
0.0010121935
0.0010115832
0.0010109927
0.0010104162
0.0010098473
0.0010092954
0.0010088117
0.0010084177
0.0010080882
0.0010077954
0.001007505
0.0010071739