/*--------------------------------*- C++ -*----------------------------------*\
  =========                 |
  \\      /  F ield         | OpenFOAM: The Open Source CFD Toolbox
   \\    /   O peration     | Website:  https://openfoam.org
    \\  /    A nd           | Version:  12
     \\/     M anipulation  |
\*---------------------------------------------------------------------------*/
FoamFile
{
    format      ascii;
    class       volScalarField;
    location    "0.037";
    object      p;
}
// * * * * * * * * * * * * * * * * * * * * * * * * * * * * * * * * * * * * * //

dimensions      [1 -1 -2 0 0 0 0];

internalField   nonuniform List<scalar> 
16000
(
89307.772
89434.055
89445.549
89580.262
89606.454
89733.735
89784.335
89900.793
89974.722
90085.476
90177.539
90288.212
90394.193
90509.178
90626.075
90748.36
90874.684
91005.635
91141.094
91281.147
91425.802
91575.063
91728.91
91887.303
92050.173
92217.427
92388.942
92564.565
92744.111
92927.363
93114.071
93303.953
93496.694
93691.948
93889.34
94088.467
94288.902
94490.197
94691.889
94893.502
95094.556
95294.569
95493.06
95689.564
95883.625
96074.812
96262.717
96446.963
96627.212
96803.166
96974.575
97141.24
97303.023
97459.849
97611.703
97758.63
97900.726
98038.126
98170.991
98299.492
98423.792
98544.022
98660.269
98772.558
98880.97
98985.53
99086.332
99183.512
99277.209
99367.46
99454
99536.199
99613.285
99684.064
99744.6
99783.384
99884.422
99676.417
100138.09
99470.43
88934.916
89078.064
89087.366
89233.837
89261.594
89399.581
89452.573
89580.142
89657.907
89778.64
89877.077
89996.603
90110.86
90234.656
90360.768
90492.5
90628.68
90769.782
90915.727
91066.564
91222.289
91382.879
91548.285
91718.431
91893.214
92072.496
92256.107
92443.846
92635.474
92830.716
93029.265
93230.773
93434.865
93641.127
93849.121
94058.38
94268.417
94478.728
94688.798
94898.108
95106.141
95312.384
95516.342
95717.536
95915.514
96109.853
96300.165
96486.104
96667.364
96843.69
97014.881
97180.79
97341.335
97496.497
97646.316
97790.895
97930.382
98064.968
98194.871
98320.321
98441.544
98558.732
98672.039
98781.575
98887.427
98989.68
99088.426
99183.769
99275.785
99364.412
99449.307
99529.942
99605.715
99673.767
99731.316
99787.362
99834.255
99718.769
100073.95
99467.741
88593.397
88751.863
88760.999
88920.657
88948.71
89100.322
89155.163
89294.946
89377.708
89508.875
89615.151
89744.243
89868.103
90001.783
90138.351
90280.759
90428.039
90580.541
90738.199
90901.027
91068.991
91242.035
91420.074
91602.992
91790.638
91982.826
92179.333
92379.897
92584.217
92791.951
93002.719
93216.104
93431.651
93648.874
93867.262
94086.276
94305.365
94523.965
94741.512
94957.444
95171.212
95382.286
95590.161
95794.364
95994.459
96190.051
96380.793
96566.384
96746.578
96921.184
97090.066
97253.15
97410.425
97561.937
97707.794
97848.156
97983.227
98113.249
98238.495
98359.247
98475.791
98588.384
98697.25
98802.574
98904.5
99003.151
99098.627
99191.004
99280.283
99366.29
99448.592
99526.648
99599.308
99664.688
99721.175
99778.788
99801.487
99738.183
100022.44
99452.46
88288.797
88457.913
88468.128
88642.906
88670.548
88838.219
88895.401
89049.334
89138.039
89281.198
89396.81
89536.82
89671.863
89816.839
89965.31
90119.792
90279.52
90444.731
90615.368
90791.409
90972.793
91159.429
91351.192
91547.919
91749.406
91955.407
92165.631
92379.744
92597.365
92818.07
93041.392
93266.825
93493.827
93721.826
93950.226
94178.415
94405.773
94631.678
94855.52
95076.704
95294.661
95508.857
95718.795
95924.027
96124.154
96318.834
96507.779
96690.762
96867.616
97038.233
97202.567
97360.628
97512.488
97658.273
97798.157
97932.361
98061.144
98184.798
98303.641
98418.004
98528.221
98634.613
98737.467
98837.037
98933.533
99027.114
99117.89
99205.909
99291.104
99373.201
99451.695
99526.017
99595.198
99656.434
99710.8
99763.783
99774.914
99744.359
99975.541
99423.324
88024.199
88208.116
88215.565
88408.846
88435.477
88621.305
88680.803
88850.743
88946.578
89103.062
89229.683
89381.678
89529.264
89686.653
89848.166
90015.845
90189.133
90368.181
90552.929
90743.325
90939.271
91140.63
91347.221
91558.816
91775.138
91995.859
92220.599
92448.927
92680.363
92914.38
93150.403
93387.824
93625.998
93864.259
94101.922
94338.301
94572.709
94804.478
95032.962
95257.551
95477.677
95692.824
95902.53
96106.399
96304.097
96495.36
96679.989
96857.854
97028.89
97193.094
97350.521
97501.283
97645.543
97783.509
97915.428
98041.582
98162.283
98277.867
98388.689
98495.119
98597.533
98696.296
98791.753
98884.213
98973.94
99061.124
99145.884
99228.238
99308.061
99385.001
99458.493
99527.807
99591.402
99647.525
99699.068
99744.394
99747.717
99740.205
99925.502
99378.833
87803.656
88005.253
88010.299
88224.702
88250.443
88456.557
88519.008
88706.687
88810.54
88980.597
89119.142
89283.544
89444.594
89615.299
89790.903
89972.955
90161.061
90355.283
90555.532
90761.701
90973.628
91191.102
91413.859
91641.577
91873.876
92110.317
92350.405
92593.587
92839.259
93086.767
93335.415
93584.476
93833.195
94080.806
94326.542
94569.646
94809.383
95045.053
95276.002
95501.63
95721.402
95934.851
96141.588
96341.299
96533.75
96718.787
96896.328
97066.367
97228.96
97384.223
97532.33
97673.498
97807.986
97936.086
98058.116
98174.418
98285.347
98391.279
98492.597
98589.699
98682.986
98772.855
98859.687
98943.831
99025.579
99105.145
99182.636
99258.042
99331.183
99401.659
99468.868
99531.905
99589.065
99639.314
99685.051
99720.674
99716.722
99725.554
99866.575
99319.716
87627.137
87849.353
87851.668
88090.463
88115.047
88345.11
88410.028
88615.468
88728.136
88912.125
89064.265
89242.256
89418.476
89604.244
89795.766
89994.12
90199
90410.371
90628.082
90851.94
91081.692
91317.022
91557.55
91802.829
92052.348
92305.528
92561.729
92820.251
93080.34
93341.201
93602.002
93861.889
94119.998
94375.473
94627.475
94875.198
95117.886
95354.841
95585.436
95809.122
96025.437
96234.011
96434.565
96626.911
96810.953
96986.677
97154.148
97313.503
97464.937
97608.7
97745.083
97874.414
97997.046
98113.35
98223.708
98328.512
98428.157
98523.042
98613.571
98700.153
98783.2
98863.121
98940.314
99015.138
99087.898
99158.798
99227.924
99295.215
99360.435
99423.156
99482.77
99538.195
99587.506
99630.149
99668.474
99691.891
99680.047
99701.015
99796.036
99248.319
87488.894
87735.385
87733.745
88001.697
88023.334
88279.117
88346.67
88571.801
88696.64
88896.702
89065.623
89259.651
89453.764
89657.293
89867.375
90084.669
90308.902
90539.932
90777.514
91021.344
91271.044
91526.163
91786.174
92050.471
92318.378
92589.144
92861.954
93135.936
93410.171
93683.705
93955.566
94224.781
94490.39
94751.464
95007.126
95256.559
95499.027
95733.882
95960.578
96178.67
96387.824
96587.817
96778.529
96959.942
97132.133
97295.261
97449.559
97595.323
97732.896
97862.661
97985.029
98100.427
98209.295
98312.07
98409.188
98501.077
98588.156
98670.838
98749.53
98824.636
98896.564
98965.717
99032.48
99097.204
99160.174
99221.565
99281.413
99339.585
99395.768
99449.505
99500.175
99546.536
99586.668
99620.4
99648.749
99657.523
99636.82
99667.16
99713.653
99166.126
87385.914
87660.772
87655.093
87958.312
87974.817
88258.93
88333.798
88581.292
88722.079
88940.342
89129.597
89342.578
89557.667
89782.084
90013.75
90252.975
90499.451
90752.906
91012.968
91279.185
91551.017
91827.838
92108.929
92393.488
92680.632
92969.404
93258.784
93547.706
93835.074
94119.776
94400.711
94676.806
94947.036
95210.446
95466.167
95713.431
95951.587
96180.103
96398.581
96606.749
96804.464
96991.703
97168.558
97335.22
97491.969
97639.158
97777.202
97906.556
98027.712
98141.175
98247.462
98347.088
98440.556
98528.357
98610.958
98688.809
98762.334
98831.942
98898.026
98960.971
99021.161
99078.97
99134.755
99188.829
99241.435
99292.693
99342.565
99390.819
99437.041
99480.716
99521.159
99557.008
99586.525
99609.802
99625.957
99617.672
99587.277
99624.786
99619.95
99075.166
87321.418
87629.246
87619.785
87960.229
87976.246
88292.87
88379.14
88651.404
88812.679
89051.704
89265.195
89500.483
89739.878
89988.584
90245.108
90509.466
90781.248
91060.021
91345.235
91636.24
91932.281
92232.499
92535.933
92841.53
93148.158
93454.618
93759.664
94062.028
94360.438
94653.647
94940.456
95219.739
95490.467
95751.726
96002.736
96242.862
96471.622
96688.693
96893.901
97087.224
97268.772
97438.78
97597.587
97745.623
97883.386
98011.43
98130.344
98240.736
98343.223
98438.417
98526.916
98609.294
98686.1
98757.849
98825.02
98888.059
98947.379
99003.362
99056.373
99106.76
99154.863
99201.009
99245.505
99288.61
99330.499
99371.22
99410.636
99448.397
99483.971
99516.731
99545.848
99569.884
99587.38
99598.403
99600.25
99574.015
99534.042
99571.762
99515.999
98982.887
87304.909
87651.855
87638.328
88019.686
88039.84
88392.549
88493.251
88792.435
88978.919
89241.171
89482.777
89744.068
90011.349
90288.036
90572.987
90865.927
91166.274
91473.364
91786.401
92104.463
92426.503
92751.359
93077.764
93404.362
93729.735
94052.421
94370.946
94683.85
94989.724
95287.233
95575.15
95852.382
96117.993
96371.218
96611.478
96838.384
97051.733
97251.503
97437.836
97611.023
97771.484
97919.743
98056.41
98182.156
98297.692
98403.755
98501.084
98590.413
98672.454
98747.889
98817.365
98881.489
98940.82
98995.872
99047.111
99094.955
99139.782
99181.934
99221.724
99259.449
99295.388
99329.804
99362.936
99394.968
99426
99455.984
99484.675
99511.595
99536.08
99557.345
99574.341
99585.547
99589.782
99587.507
99572.498
99529.334
99481.369
99511.035
99411.716
98903.173
87342.498
87735.969
87718.874
88148.042
88172.443
88564.163
88684.224
89012.115
89229.704
89518.601
89792.761
90084.583
90383.986
90692.918
91010.345
91335.679
91668.064
92006.514
92349.885
92696.884
93046.086
93395.951
93744.849
94091.086
94432.941
94768.696
95096.68
95415.3
95723.087
96018.724
96301.079
96569.231
96822.483
97060.369
97282.654
97489.324
97680.567
97856.753
98018.407
98166.177
98300.814
98423.137
98534.012
98634.328
98724.976
98806.835
98880.754
98947.544
99007.972
99062.751
99112.538
99157.934
99199.481
99237.661
99272.9
99305.567
99335.986
99364.439
99391.175
99416.421
99440.38
99463.236
99485.146
99506.209
99526.432
99545.668
99563.556
99579.495
99592.687
99602.16
99606.608
99604.477
99594.972
99577.741
99544.813
99487.127
99432.62
99448.966
99315.022
98839.999
87433.721
87882.343
87861.898
88345.094
88378.281
88813.148
88960.287
89319.753
89575.526
89895.881
90207.734
90535.498
90872.029
91218.094
91572.533
91934.342
92302.25
92674.816
93050.426
93427.315
93803.598
94177.301
94546.397
94908.85
95262.663
95605.924
95936.853
96253.857
96555.562
96840.852
97108.885
97359.111
97591.264
97805.349
98001.624
98180.566
98342.84
98489.26
98620.756
98738.335
98843.056
98935.994
99018.225
99090.799
99154.73
99210.979
99260.449
99303.977
99342.333
99376.216
99406.256
99433.013
99456.98
99478.581
99498.178
99516.075
99532.522
99547.727
99561.864
99575.073
99587.473
99599.158
99610.189
99620.571
99630.212
99638.86
99646.043
99651.053
99652.969
99650.625
99642.502
99627.044
99603.442
99570.401
99521.298
99449.747
99389.018
99389.53
99227.169
98790.01
87585.022
88099.155
88076.109
88620.975
88668.83
89150.786
89333.932
89728.293
90029.896
90387.944
90743.515
91113.634
91493.172
91881.838
92278.07
92680.281
93086.62
93495.056
93903.395
94309.318
94710.424
95104.28
95488.476
95860.695
96218.77
96560.751
96884.962
97190.044
97474.987
97739.14
97982.215
98204.259
98405.632
98586.964
98749.107
98893.094
99020.085
99131.329
99228.122
99311.775
99383.581
99444.798
99496.629
99540.21
99576.601
99606.777
99631.633
99651.976
99668.531
99681.943
99692.777
99701.522
99708.596
99714.344
99719.045
99722.922
99726.142
99728.829
99731.067
99732.907
99734.374
99735.464
99736.137
99736.298
99735.749
99734.134
99730.886
99725.205
99716.068
99702.146
99681.76
99653.312
99615.856
99567.748
99503.481
99417.97
99354.461
99336.833
99152.452
98755.021
87802.526
88395.035
88371.361
88986.14
89055.731
89588.801
89819.083
90253.569
90609.965
91014.123
91420.863
91840.774
92269.758
92706.478
93148.716
93594.147
94040.2
94484.138
94923.094
95354.132
95774.322
96180.821
96570.962
96942.341
97292.895
97620.965
97925.336
98205.252
98460.415
98690.953
98897.379
99080.536
99241.536
99381.695
99502.479
99605.441
99692.176
99764.279
99823.312
99870.779
99908.103
99936.621
99957.566
99972.071
99981.163
99985.766
99986.706
99984.712
99980.423
99974.394
99967.098
99958.931
99950.213
99941.196
99932.067
99922.957
99913.943
99905.058
99896.295
99887.61
99878.932
99870.158
99861.148
99851.702
99841.52
99830.147
99816.929
99800.998
99781.248
99756.234
99724.189
99683.497
99633.012
99570.469
99490.92
99395.668
99329.678
99293.449
99092.877
98738.894
88092.087
88778.236
88756.559
89450.867
89553.597
90143.825
90435.804
90918.936
91340.597
91801.013
92267.111
92744.232
93228.484
93717.457
94208.078
94697.115
95181.113
95656.497
96119.655
96567.058
96995.38
97401.623
97783.227
98138.156
98464.95
98762.749
99031.274
99270.79
99482.042
99666.176
99824.656
99959.185
100071.62
100163.9
100237.99
100295.85
100339.35
100370.29
100390.35
100401.09
100403.94
100400.21
100391.06
100377.54
100360.57
100340.98
100319.46
100296.64
100273.04
100249.1
100225.18
100201.57
100178.48
100156.06
100134.4
100113.54
100093.46
100074.1
100055.37
100037.13
100019.22
100001.44
99983.546
99965.25
99946.153
99925.711
99903.199
99877.691
99848.011
99812.642
99769.798
99717.89
99655.588
99579.969
99486.545
99384.625
99314.307
99259.533
99051.007
98745.034
88461.434
89259.399
89245.386
90034.505
90187.049
90844.437
91214.979
91757.352
92254.725
92781.555
93314.54
93854.959
94398.432
94941.279
95479.262
96007.969
96522.88
97019.543
97493.748
97941.705
98360.207
98746.738
99099.553
99417.693
99700.957
99949.838
100165.43
100349.3
100503.41
100629.97
100731.34
100809.98
100868.3
100908.69
100933.41
100944.6
100944.23
100934.13
100915.93
100891.11
100861
100826.77
100789.44
100749.92
100708.96
100667.25
100625.35
100583.72
100542.77
100502.8
100464.05
100426.71
100390.87
100356.58
100323.84
100292.58
100262.71
100234.08
100206.5
100179.76
100153.6
100127.75
100101.89
100075.63
100048.49
100019.86
99988.95
99954.787
99916.135
99871.435
99818.932
99757.076
99684.284
99597.362
99493.847
99387.054
99310.409
99237.521
99028.99
98774.274
88930.82
89866.856
89871.553
90774.76
90994.228
91728.656
92194.839
92807.374
93389.842
93992.468
94598.614
95206.153
95809.371
96402.835
96980.754
97537.405
98067.362
98565.767
99028.547
99452.584
99835.798
100177.17
100476.66
100735.14
100954.21
101136.07
101283.34
101398.92
101485.84
101547.18
101585.94
101605.03
101607.16
101594.87
101570.46
101536.04
101493.47
101444.44
101390.41
101332.67
101272.35
101210.42
101147.7
101084.91
101022.63
100961.36
100901.52
100843.42
100787.32
100733.41
100681.81
100632.58
100585.71
100541.17
100498.85
100458.6
100420.25
100383.56
100348.28
100314.13
100280.78
100247.87
100215.03
100181.79
100147.63
100111.87
100073.69
100032.04
99985.662
99932.963
99872.253
99802.013
99720.505
99624.816
99514.777
99405.537
99321.559
99232.267
99030.403
98825.6
89531.384
90642.118
90675.595
91711.634
92016.762
92835.887
93416.297
94112.37
94789.362
95476.102
96158.837
96831.948
97487.57
98118.259
98716.871
99277.07
99793.627
100262.65
100681.69
101049.73
101367.07
101635.16
101856.38
102033.81
102170.99
102271.73
102339.94
102379.49
102394.12
102387.35
102362.44
102322.36
102269.8
102207.16
102136.56
102059.86
101978.68
101894.43
101808.32
101721.36
101634.43
101548.27
101463.49
101380.59
101299.97
101221.96
101146.81
101074.71
101005.78
100940.07
100877.61
100818.34
100762.18
100708.98
100658.56
100610.7
100565.16
100521.63
100479.81
100439.34
100399.86
100360.96
100322.2
100283.08
100243.04
100201.36
100157.21
100109.5
100056.9
99997.846
99930.692
99853.941
99765.857
99664.365
99551.563
99442.08
99351.817
99249.949
99061.998
98899.221
90291.272
91612.814
91690.338
92876.792
93301.616
94217.476
94933.441
95729.379
96508.202
97281.135
98033.922
98757.427
99441.887
100078.92
100661.73
101185.42
101647.15
102046.04
102383
102660.4
102881.78
103051.46
103174.27
103255.24
103299.43
103311.71
103296.71
103258.69
103201.53
103128.71
103043.33
102948.11
102845.41
102737.27
102625.46
102511.47
102396.57
102281.84
102168.15
102056.26
101946.78
101840.18
101736.88
101637.16
101541.27
101449.36
101361.55
101277.88
101198.36
101122.94
101051.54
100984.01
100920.18
100859.84
100802.74
100748.59
100697.08
100647.88
100600.63
100554.94
100510.41
100466.59
100423.03
100379.2
100334.52
100288.29
100239.64
100187.48
100130.44
100066.96
99995.425
99914.329
99822.142
99717.955
99605.538
99497.455
99402.423
99293.653
99127.725
99006.278
91240.602
92825.642
92982.564
94337.695
94926.707
95955.073
96823.353
97729.303
98604.286
99446.477
100240.13
100974.4
101640.19
102231.35
102744.63
103179.58
103538.12
103824.09
104042.73
104200.17
104303
104357.92
104371.44
104349.73
104298.47
104222.82
104127.36
104016.14
103892.68
103760
103620.72
103477.04
103330.83
103183.65
103036.82
102891.41
102748.31
102608.24
102471.79
102339.41
102211.46
102088.21
101969.86
101856.53
101748.3
101645.19
101547.18
101454.22
101366.21
101283
101204.42
101130.26
101060.27
100994.19
100931.7
100872.47
100816.15
100762.38
100710.76
100660.91
100612.39
100564.76
100517.54
100470.23
100422.24
100372.91
100321.37
100266.55
100207.06
100141.34
100067.75
99984.817
99891.352
99787.54
99677.772
99571.741
99474.21
99367.118
99228.915
99155.048
92461.625
94379.427
94660.007
96204.26
97004.288
98153.558
99169.332
100170.15
101104.86
101964.96
102736.86
103412.97
103989.69
104467.4
104849.78
105142.95
105354.73
105493.84
105569.35
105590.16
105564.7
105500.75
105405.27
105284.46
105143.69
104987.58
104820.09
104644.56
104463.78
104280.11
104095.46
103911.44
103729.34
103550.23
103374.95
103204.18
103038.43
102878.12
102723.54
102574.91
102432.36
102295.98
102165.78
102041.76
101923.85
101811.97
101706
101605.77
101511.12
101421.82
101337.63
101258.28
101183.46
101112.87
101046.15
100982.93
100922.85
100865.52
100810.55
100757.55
100706.08
100655.72
100606.01
100556.46
100506.55
100455.63
100402.9
100347.29
100287.47
100221.85
100148.81
100066.86
99975.167
99874.64
99769.559
99667.209
99570.95
99471.721
99366.854
99328.163
94084.62
96413.519
96871.922
98603.563
99649.563
100905.22
102016.87
103046.96
103958.12
104744.19
105401
105930.7
106339.81
106638.1
106837.27
106949.87
106988.4
106964.78
106889.93
106773.61
106624.36
106449.5
106255.27
106046.89
105828.72
105604.35
105376.72
105148.24
104920.85
104696.11
104475.26
104259.3
104048.98
103844.89
103647.46
103457.02
103273.78
103097.87
102929.36
102768.26
102614.54
102468.11
102328.87
102196.69
102071.41
101952.85
101840.8
101735.04
101635.32
101541.38
101452.9
101369.58
101291.08
101217.04
101147.1
101080.86
101017.96
100958
100900.6
100845.39
100791.96
100739.92
100688.84
100638.3
100587.81
100536.82
100484.56
100430.06
100372.01
100308.88
100238.99
100160.86
100073.85
99979.174
99880.783
99784.468
99693.846
99607.296
99530.139
99506.729
96298.172
99087.607
99785.536
101656.23
102911.34
104213.59
105305.95
106239.33
107000.82
107596.14
108036.22
108336.68
108515.27
108590.19
108578.93
108497.52
108360.1
108178.93
107964.33
107724.92
107467.8
107198.75
106922.45
106642.65
106362.35
106083.91
105809.2
105539.67
105276.43
105020.34
104772.02
104531.93
104300.38
104077.56
103863.58
103658.47
103462.2
103274.69
103095.84
102925.48
102763.46
102609.58
102463.63
102325.4
102194.64
102071.11
101954.55
101844.67
101741.18
101643.77
101552.1
101465.82
101384.58
101307.99
101235.67
101167.24
101102.33
101040.56
100981.57
100925.01
100870.53
100817.76
100766.37
100715.97
100666.18
100616.51
100566.3
100514.67
100460.38
100401.91
100337.54
100265.65
100185.58
100098.55
100008.2
99919.548
99836.763
99762.579
99704.119
99684.864
99353.1
102515.3
103517.95
105454.19
106750.3
107907.22
108815.75
109500.48
109978.96
110277.57
110423.99
110445.43
110366.71
110209.59
109992.49
109730.65
109436.47
109119.9
108788.81
108449.42
108106.58
107764.03
107424.67
107090.7
106763.78
106445.14
106135.69
105836.07
105546.69
105267.83
104999.63
104742.12
104495.27
104258.98
104033.1
103817.44
103611.81
103415.96
103229.65
103052.63
102884.62
102725.35
102574.54
102431.91
102297.18
102170.03
102050.17
101937.28
101831.03
101731.08
101637.07
101548.63
101465.38
101386.95
101312.96
101243.02
101176.79
101113.9
101054.03
100996.86
100942.09
100889.44
100838.61
100789.34
100741.32
100694.17
100647.37
100600.11
100551.25
100499.23
100442.15
100378.14
100306.23
100227.52
100145.47
100064.63
99988.828
99921.616
99869.963
99847.24
103505.75
106880.18
108084
109760.21
110875.83
111699.55
112230.12
112521.74
112618.57
112563.25
112391.87
112134.35
111814.67
111451.69
111059.98
110650.71
110232.34
109811.2
109392.05
108978.39
108572.76
108177.02
107792.47
107419.97
107060.11
106713.21
106379.42
106058.77
105751.15
105456.43
105174.37
104904.71
104647.18
104401.46
104167.22
103944.15
103731.9
103530.13
103338.51
103156.71
102984.39
102821.23
102666.88
102521.04
102383.37
102253.55
102131.24
102016.1
101907.78
101805.91
101710.14
101620.08
101535.36
101455.59
101380.41
101309.46
101242.4
101178.9
101118.67
101061.44
101006.96
100955.02
100905.43
100857.98
100812.51
100768.75
100726.3
100684.47
100642.14
100597.63
100548.75
100493.12
100429.34
100358.25
100283.2
100208.18
100135.66
100067.67
100010.64
99977.422
108686.93
112025.33
113133.74
114251.85
114859.29
115142.67
115165.75
115001.19
114702.51
114311.67
113859.86
113370.07
112858.97
112338.55
111817.37
111301.44
110794.97
110300.83
109820.95
109356.56
108908.37
108476.75
108061.81
107663.47
107281.51
106915.64
106565.48
106230.63
105910.65
105605.11
105313.54
105035.48
104770.5
104518.14
104277.96
104049.55
103832.49
103626.37
103430.79
103245.39
103069.77
102903.58
102746.47
102598.07
102458.04
102326.05
102201.72
102084.71
101974.66
101871.2
101773.95
101682.53
101596.58
101515.72
101439.6
101367.88
101300.26
101236.42
101176.12
101119.11
101065.21
101014.27
100966.2
100920.9
100878.29
100838.27
100800.52
100764.44
100728.89
100691.98
100651.07
100603.21
100546.4
100481.15
100410.49
100337.56
100262.79
100185.96
100114.09
100066.36
114848.07
117339.32
117945.19
118225.74
118134.84
117812.03
117335.86
116766.24
116143.36
115494.41
114837.47
114184.41
113542.95
112917.97
112312.47
111728.15
111165.88
110625.93
110108.21
109612.35
109137.86
108684.1
108250.42
107836.11
107440.47
107062.8
106702.41
106358.63
106030.82
105718.36
105420.64
105137.1
104867.19
104610.38
104366.16
104134.07
103913.64
103704.42
103505.99
103317.94
103139.86
102971.39
102812.14
102661.75
102519.87
102386.12
102260.17
102141.63
102030.15
101925.36
101826.88
101734.34
101647.38
101565.64
101488.77
101416.47
101348.43
101284.41
101224.16
101167.48
101114.21
101064.28
101017.67
100974.39
100934.49
100897.95
100864.57
100833.79
100804.38
100774.22
100740.23
100698.85
100647.47
100585.96
100516.86
100442.38
100360.82
100269.27
100176.97
100115.59
121411.27
121850.12
121636.51
121095.76
120374.85
119562.76
118714.95
117862.84
117024.75
116210.8
115426.35
114673.92
113954.33
113267.38
112612.32
111988.05
111393.31
110826.8
110287.18
109773.14
109283.46
108816.92
108372.42
107948.89
107545.33
107160.82
106794.49
106445.5
106113.1
105796.56
105495.21
105208.39
104935.51
104676
104429.31
104194.94
103972.39
103761.19
103560.92
103371.13
103191.42
103021.39
102860.68
102708.89
102565.67
102430.66
102303.5
102183.82
102071.26
101965.46
101866.04
101772.65
101684.92
101602.52
101525.1
101452.36
101384.03
101319.85
101259.61
101203.15
101150.33
101101.09
101055.5
101013.7
100975.83
100941.95
100911.96
100885.37
100860.9
100836.19
100807.72
100771.41
100723.99
100664.64
100595.09
100516.57
100426.13
100320.07
100209.95
100135.76
125245.68
124628.39
123724.83
122686.34
121616.13
120557.73
119533.58
118552.85
117618.97
116732.19
115891.24
115094.1
114338.47
113621.94
112942.16
112296.88
111684.01
111101.6
110547.85
110021.1
109519.82
109042.62
108588.2
108155.38
107743.07
107350.25
106975.99
106619.42
106279.74
105956.19
105648.06
105354.71
105075.5
104809.86
104557.23
104317.1
104088.98
103872.39
103666.89
103472.05
103287.46
103112.73
102947.48
102791.33
102643.93
102504.91
102373.91
102250.58
102134.56
102025.47
101922.96
101826.67
101736.25
101651.35
101571.63
101496.77
101426.5
101360.55
101298.72
101240.86
101186.87
101136.67
101090.35
101048.15
101010.35
100977.04
100948.12
100923.43
100901.46
100879.81
100854.45
100820.8
100775.05
100715.84
100644.4
100561.39
100463.2
100346.15
100223.79
100141.11
103573.77
103549.55
103597.45
103646.6
103679.82
103685.49
103664.9
103633.53
103597.35
103551.04
103489.81
103416.13
103334.64
103249.46
103160.67
103068.34
102972.94
102874.96
102774.85
102672.99
102569.76
102465.51
102360.55
102255.18
102149.67
102044.26
101939.18
101834.65
101730.86
101628.02
101526.29
101425.85
101326.87
101229.53
101133.97
101040.36
100948.87
100859.64
100772.84
100688.62
100607.15
100528.56
100453.01
100380.64
100311.58
100245.95
100183.84
100125.34
100070.52
100019.44
99972.152
99928.698
99889.14
99853.556
99822.059
99794.804
99771.989
99753.826
99740.516
99732.189
99728.844
99730.301
99736.199
99746.038
99759.321
99775.579
99794.835
99816.388
99842.633
99866.4
99907.143
99916.456
99990.235
99943.001
100088
99937.495
100149.35
99935.341
100115.44
99953.551
102992.09
102983.64
102989.97
102998.19
102991.56
102979.28
102963.5
102941.8
102907.6
102868.02
102822.56
102772.33
102716.89
102657.05
102593.14
102525.62
102454.75
102380.83
102304.17
102225.04
102143.73
102060.52
101975.66
101889.42
101802.05
101713.8
101624.93
101535.67
101446.26
101356.93
101267.91
101179.42
101091.69
101004.92
100919.33
100835.13
100752.53
100671.73
100592.93
100516.33
100442.12
100370.48
100301.6
100235.65
100172.77
100113.11
100056.78
100003.91
99954.56
99908.82
99866.75
99828.415
99793.885
99763.25
99736.632
99714.188
99696.106
99682.58
99673.777
99669.788
99670.573
99675.937
99685.524
99698.885
99715.584
99735.229
99757.822
99782.746
99811.894
99839.773
99881.371
99897.463
99968.31
99932.881
100069.43
99931.293
100139.93
99927.983
100114.07
99941.508
102532.14
102514.38
102483.34
102450.57
102418.72
102389.51
102355.93
102323.14
102287.19
102250.73
102210.76
102169.36
102124.95
102078.4
102029.2
101977.58
101923.5
101867.04
101808.28
101747.3
101684.22
101619.18
101552.31
101483.78
101413.75
101342.41
101269.94
101196.55
101122.43
101047.8
100972.88
100897.89
100823.06
100748.6
100674.75
100601.75
100529.81
100459.18
100390.07
100322.72
100257.34
100194.15
100133.36
100075.16
100019.74
99967.247
99917.836
99871.634
99828.748
99789.276
99753.3
99720.903
99692.171
99667.21
99646.148
99629.145
99616.38
99608.022
99604.205
99604.983
99610.283
99619.896
99633.49
99650.667
99671.059
99694.338
99720.495
99748.931
99781.287
99812.865
99856.208
99877.582
99947.89
99921.202
100052.7
99924.354
100131
99920.997
100113.3
99929.07
101885.42
101863.83
101839.62
101811.67
101782.91
101757.73
101728.06
101701.17
101670.26
101640.88
101608.39
101576.09
101541.45
101505.95
101468.62
101429.78
101389.21
101346.94
101302.94
101257.16
101209.64
101160.38
101109.45
101056.89
101002.8
100947.27
100890.43
100832.41
100773.37
100713.47
100652.89
100591.83
100530.48
100469.07
100407.8
100346.91
100286.63
100227.19
100168.84
100111.81
100056.35
100002.67
99951.019
99901.598
99854.611
99810.242
99768.657
99730.004
99694.415
99662.005
99632.88
99607.139
99584.886
99566.239
99551.336
99540.334
99533.398
99530.674
99532.259
99538.17
99548.308
99562.459
99580.32
99601.546
99625.843
99652.944
99682.828
99714.911
99750.654
99785.69
99831.363
99857.195
99928.467
99908.16
100037.38
99916.758
100122.93
99914.284
100114.23
99916.398
101158.02
101143.74
101132.36
101117.94
101101.02
101088.32
101069.6
101055
101035.23
101018.08
100997
100976.95
100954.31
100931.43
100906.88
100881.15
100853.88
100825.18
100794.95
100763.17
100729.82
100694.89
100658.4
100620.37
100580.85
100539.9
100497.59
100454.01
100409.27
100363.5
100316.84
100269.45
100221.49
100173.15
100124.63
100076.13
100027.89
99980.128
99933.076
99886.975
99842.067
99798.588
99756.774
99716.848
99679.022
99643.495
99610.448
99580.046
99552.439
99527.76
99506.132
99487.672
99472.499
99460.741
99452.541
99448.051
99447.417
99450.756
99458.132
99469.526
99484.819
99503.798
99526.188
99551.706
99580.125
99611.231
99644.996
99680.852
99720.087
99758.523
99806.848
99836.597
99909.546
99894.27
100023.35
99908.343
100115.6
99906.818
100114.38
99903.465
100467.04
100461.28
100459.53
100456.69
100449.6
100447.83
100438.68
100435.19
100425.31
100419.23
100408.31
100399.25
100387.17
100375.26
100361.74
100347.34
100331.52
100314.45
100296.06
100276.34
100255.26
100232.82
100209
100183.81
100157.26
100129.38
100100.22
100069.82
100038.27
100005.64
99972.041
99937.601
99902.453
99866.755
99830.675
99794.401
99758.13
99722.075
99686.457
99651.503
99617.445
99584.518
99552.952
99522.971
99494.79
99468.612
99444.629
99423.014
99403.93
99387.523
99373.929
99363.278
99355.7
99351.331
99350.311
99352.781
99358.866
99368.65
99382.162
99399.353
99420.087
99444.158
99471.321
99501.354
99534.087
99569.355
99607.126
99646.849
99689.643
99731.513
99782.659
99816.022
99890.931
99879.797
100010.25
99899.122
100108.82
99898.712
100114.17
99889.989
99844.969
99844.821
99847.209
99851.567
99850.4
99856.021
99853.097
99857.447
99854.17
99856.362
99853.271
99853.329
99849.789
99846.229
99841.014
99835.475
99828.856
99821.353
99812.847
99803.292
99792.655
99780.9
99768.001
99753.944
99738.722
99722.341
99704.817
99686.182
99666.479
99645.77
99624.131
99601.654
99578.45
99554.645
99530.383
99505.824
99481.142
99456.526
99432.176
99408.302
99385.117
99362.842
99341.694
99321.889
99303.634
99287.132
99272.572
99260.132
99249.979
99242.267
99237.138
99234.731
99235.181
99238.623
99245.192
99255.011
99268.175
99284.735
99304.686
99327.953
99354.386
99383.789
99415.954
99450.708
99487.932
99527.499
99569.372
99613.03
99659.437
99704.799
99758.824
99795.586
99872.539
99865.011
99997.977
99889.405
100102.4
99890.261
100112.13
99876.097
99283.05
99287.613
99292.484
99301.131
99302.758
99313.333
99313.886
99323.54