/*--------------------------------*- C++ -*----------------------------------*\
  =========                 |
  \\      /  F ield         | OpenFOAM: The Open Source CFD Toolbox
   \\    /   O peration     | Website:  https://openfoam.org
    \\  /    A nd           | Version:  12
     \\/     M anipulation  |
\*---------------------------------------------------------------------------*/
FoamFile
{
    format      ascii;
    class       volScalarField;
    location    "0.089";
    object      Ma;
}
// * * * * * * * * * * * * * * * * * * * * * * * * * * * * * * * * * * * * * //

dimensions      [];

internalField   nonuniform List<scalar> 
16000
(
0.62351147
0.74084177
0.69615456
0.72057993
0.70558609
0.71249856
0.70680268
0.70832421
0.70567784
0.705239
0.70361943
0.70248928
0.70107987
0.69970486
0.69824805
0.69674508
0.69518484
0.69356889
0.69189602
0.69016581
0.68837788
0.68653215
0.68462874
0.68266809
0.68065094
0.67857838
0.67645185
0.67427318
0.6720446
0.66976878
0.66744878
0.66508811
0.66269069
0.66026089
0.65780344
0.65532345
0.65282637
0.65031795
0.64780416
0.64529118
0.64278526
0.64029275
0.63781993
0.63537299
0.63295794
0.63058057
0.62824632
0.62596028
0.62372712
0.62155101
0.61943563
0.61738411
0.61539905
0.61348253
0.61163608
0.60986072
0.60815694
0.6065247
0.60496332
0.6034712
0.60204584
0.600684
0.59938143
0.59813277
0.59693168
0.59577111
0.59464369
0.59354246
0.59246182
0.59139805
0.59034837
0.58930808
0.58826679
0.58720451
0.58609495
0.58493076
0.58369762
0.58228055
0.58104197
0.57953426
0.6280246
0.74607798
0.69952942
0.72525378
0.70944917
0.71681
0.71067989
0.71231053
0.70948748
0.70897303
0.70726746
0.70602107
0.70452061
0.70303149
0.70146632
0.69984708
0.69816804
0.69642907
0.6946296
0.69276922
0.69084784
0.68886562
0.68682303
0.68472091
0.68256043
0.68034318
0.67807117
0.67574682
0.67337302
0.67095311
0.66849089
0.66599063
0.66345702
0.66089519
0.65831065
0.65570927
0.6530972
0.65048085
0.64786679
0.64526168
0.6426722
0.64010497
0.63756646
0.63506292
0.6326003
0.63018417
0.62781969
0.62551153
0.62326382
0.62108015
0.61896354
0.61691641
0.61494064
0.61303756
0.61120799
0.60945223
0.60777011
0.60616096
0.60462353
0.60315582
0.60175492
0.60041721
0.59913827
0.5979126
0.59673384
0.5955949
0.59448829
0.59340675
0.59234411
0.591296
0.59025933
0.58922983
0.58819732
0.58714065
0.58603531
0.58487339
0.58362092
0.58222323
0.58097587
0.57939455
0.63224249
0.75088388
0.70317116
0.72933203
0.71307425
0.72053763
0.71424982
0.71577088
0.71289334
0.71222292
0.71045003
0.70906645
0.70746244
0.70584723
0.70415826
0.70240877
0.70059558
0.69871831
0.69677665
0.69477053
0.69270017
0.69056615
0.6883694
0.68611125
0.68379347
0.68141825
0.67898829
0.67650676
0.67397732
0.67140417
0.66879197
0.66614591
0.66347159
0.66077505
0.65806272
0.65534131
0.65261777
0.64989921
0.64719283
0.64450579
0.64184512
0.63921766
0.63662996
0.63408817
0.63159802
0.62916471
0.62679286
0.6244865
0.62224905
0.62008327
0.61799129
0.61597464
0.61403426
0.61217056
0.61038347
0.60867245
0.60703652
0.60547425
0.60398375
0.60256246
0.601207
0.59991335
0.59867682
0.59749178
0.59635187
0.59525007
0.59417892
0.59313101
0.59209973
0.59107999
0.59006811
0.58905984
0.58804506
0.58700253
0.58590994
0.58475711
0.58350058
0.58212542
0.58089149
0.57924199
0.63609993
0.75527055
0.70623528
0.73291225
0.71624976
0.7238163
0.71736706
0.71875643
0.71581756
0.71497046
0.71311629
0.71157923
0.70985367
0.70809622
0.70626593
0.70436935
0.70240527
0.70037329
0.69827344
0.69610603
0.69387169
0.69157148
0.68920685
0.68677976
0.68429264
0.68174846
0.67915072
0.67650351
0.67381146
0.67107978
0.66831419
0.66552093
0.6627067
0.65987857
0.65704394
0.65421046
0.65138588
0.648578
0.64579456
0.64304311
0.64033088
0.63766476
0.63505113
0.63249582
0.63000405
0.62758038
0.62522864
0.62295196
0.62075276
0.61863275
0.61659297
0.61463386
0.61275527
0.61095656
0.60923665
0.60759405
0.60602694
0.60453309
0.60310992
0.60175432
0.60046245
0.59922993
0.59805185
0.59692253
0.59583567
0.59478442
0.59376146
0.59275932
0.59177094
0.59079038
0.58981323
0.58883497
0.58784545
0.58682413
0.58575087
0.58461157
0.58335833
0.58201194
0.58079455
0.57908233
0.63959001
0.75918009
0.709054
0.73586406
0.7188231
0.72654127
0.71997775
0.72117563
0.71819409
0.7171351
0.71518864
0.71348032
0.71161446
0.70969894
0.70771011
0.70565019
0.70351894
0.70131619
0.69904225
0.69669781
0.69428401
0.69180245
0.6892553
0.68664528
0.68397572
0.68125058
0.67847445
0.67565258
0.67279081
0.66989563
0.66697403
0.66403352
0.66108203
0.65812779
0.65517926
0.65224502
0.6493336
0.6464534
0.64361254
0.64081875
0.63807926
0.63540068
0.63278894
0.63024924
0.62778595
0.62540264
0.62310206
0.62088612
0.61875599
0.61671209
0.61475417
0.61288138
0.61109236
0.60938532
0.60775809
0.60620821
0.60473294
0.6033293
0.601994
0.60072338
0.59951317
0.59835869
0.59725486
0.59619598
0.59517591
0.59418805
0.59322537
0.5922805
0.59134604
0.59041527
0.58948287
0.58854377
0.5875877
0.58659547
0.58554898
0.58442879
0.58318615
0.58187646
0.58068043
0.57891717
0.64266246
0.76253011
0.71142819
0.738363
0.7210545
0.72863124
0.7219452
0.72294836
0.71993318
0.71864344
0.71659207
0.71470132
0.71267883
0.71059203
0.70842921
0.70619027
0.70387542
0.70148486
0.69901938
0.69648025
0.69386934
0.69118915
0.68844282
0.68563421
0.68276788
0.67984913
0.67688397
0.67387912
0.67084199
0.66778054
0.66470331
0.66161924
0.6585376
0.65546784
0.65241948
0.64940192
0.64642433
0.64349548
0.6406236
0.63781628
0.63508034
0.63242176
0.6298456
0.62735597
0.62495604
0.62264801
0.62043317
0.61831194
0.61628395
0.61434812
0.61250273
0.61074555
0.60907391
0.60748481
0.60597502
0.60454108
0.60317942
0.6018863
0.60065783
0.59948984
0.59837773
0.59731658
0.59630119
0.59532596
0.59438493
0.59347188
0.59258017
0.59170265
0.59083175
0.5899601
0.58908146
0.58818997
0.5872752
0.58631992
0.58530759
0.58421194
0.58298717
0.58172174
0.58054767
0.57874799
0.64528546
0.76529878
0.71335386
0.7403708
0.72282005
0.73006491
0.72340939
0.72403481
0.7210323
0.71947155
0.71730061
0.71521647
0.71301764
0.71074138
0.70838355
0.70594359
0.70342224
0.70082048
0.69813993
0.69538287
0.6925523
0.68965198
0.68668647
0.68366114
0.68058219
0.67745664
0.67429229
0.6710977
0.66788205
0.66465511
0.66142708
0.65820845
0.65500987
0.65184193
0.64871504
0.64563922
0.64262394
0.63967794
0.63680916
0.63402456
0.63133004
0.62873042
0.62622939
0.62382951
0.62153227
0.6193381
0.61724651
0.61525611
0.6133648
0.61156982
0.60986789
0.60825535
0.60672821
0.6052823
0.60391335
0.60261705
0.60138905
0.60022499
0.59912047
0.59807094
0.59707155
0.59611726
0.59520286
0.59432288
0.59347167
0.59264338
0.59183187
0.59103035
0.59023128
0.58942682
0.58860988
0.5877736
0.58690752
0.58599699
0.58502607
0.58396068
0.58276252
0.58154994
0.58039418
0.57857572
0.64749383
0.76751207
0.71487062
0.74191303
0.72418411
0.73105035
0.72438987
0.72487239
0.72148232
0.71963912
0.71731391
0.71501119
0.71260257
0.71010584
0.70752093
0.70484799
0.70208855
0.69924465
0.69631912
0.69331561
0.69023864
0.68709366
0.68388705
0.68062614
0.67731919
0.67397535
0.67060459
0.66721759
0.6638256
0.66044033
0.65707372
0.65373779
0.65044441
0.64720509
0.64403076
0.64093162
0.63791692
0.63499483
0.63217233
0.62945509
0.62684749
0.62435255
0.62197201
0.61970634
0.6175549
0.61551599
0.61358701
0.6117646
0.61004475
0.60842298
0.60689444
0.60545408
0.60409668
0.60281704
0.60161001
0.60047053
0.59939367
0.59837461
0.5974086
0.59649084
0.59561639
0.59478021
0.5939772
0.59320211
0.59244962
0.59171435
0.59099065
0.5902722
0.58955167
0.58882099
0.58807232
0.58729769
0.58648692
0.58562832
0.58470541
0.58367617
0.58251443
0.58136175
0.5802201
0.57840262
0.64935465
0.76920096
0.71593953
0.74298895
0.72489775
0.73111735
0.7245485
0.72425596
0.72121776
0.71909771
0.71656966
0.71401298
0.71135302
0.7085969
0.70574626
0.70280253
0.69976828
0.69664698
0.69344306
0.69016201
0.68681034
0.68339572
0.67992687
0.6764136
0.67286672
0.66929794
0.66571974
0.66214521
0.65858783
0.65506128
0.65157915
0.64815473
0.64480074
0.64152911
0.6383507
0.63527517
0.6323108
0.62946436
0.62674104
0.62414448
0.62167671
0.61933829
0.6171284
0.61504494
0.61308475
0.61124369
0.60951692
0.60789898
0.60638398
0.60496578
0.6036381
0.60239464
0.60122918
0.60013567
0.59910829
0.5981415
0.59722998
0.59636865
0.59555259
0.59477696
0.59403688
0.59332744
0.59264378
0.59198097
0.59133408
0.59069819
0.59006818
0.58943824
0.58880139
0.58814961
0.58747439
0.58676663
0.58601682
0.58521636
0.58434694
0.58335976
0.58224446
0.58115672
0.58002784
0.5782278
0.65087279
0.77034378
0.71648902
0.74341841
0.72489997
0.73068773
0.72410793
0.723428
0.72020295
0.717732
0.71495103
0.71210262
0.70914776
0.70608979
0.70293135
0.69967566
0.69632695
0.69289068
0.68937353
0.68578343
0.68212963
0.67842263
0.67467419
0.6708972
0.66710553
0.6633139
0.6595376
0.65579226
0.65209354
0.64845689
0.64489716
0.64142838
0.6380634
0.6348137
0.63168916
0.62869787
0.62584609
0.62313813
0.62057645
0.61816168
0.61589277
0.61376715
0.61178092
0.60992904
0.60820559
0.60660394
0.60511695
0.6037372
0.6024571
0.60126906
0.60016563
0.59913957
0.59818392
0.59729211
0.59645793
0.5956756
0.59493967
0.59424503
0.59358682
0.59296032
0.59236088
0.59178391
0.59122488
0.59067928
0.59014262
0.58961045
0.58907816
0.58854046
0.58799089
0.58742164
0.58682363
0.58618679
0.58550262
0.58476517
0.58395319
0.58301389
0.58195552
0.58093678
0.57981756
0.5780515
0.65199041
0.77084355
0.71644497
0.74237082
0.72413689
0.72933339
0.72289698
0.72162792
0.71826835
0.71542344
0.71233191
0.70914616
0.70584748
0.70243971
0.69892673
0.69531406
0.6916084
0.68781797
0.68395253
0.68002337
0.67604331
0.67202659
0.66798875
0.66394639
0.65991695
0.65591842
0.65196897
0.64808665
0.64428892
0.64059237
0.63701232
0.63356248
0.63025469
0.62709869
0.62410199
0.62126979
0.61860499
0.6161083
0.61377835
0.61161194
0.60960425
0.60774909
0.60603921
0.60446651
0.60302235
0.60169773
0.60048351
0.59937058
0.59835002
0.59741318
0.59655182
0.59575814
0.59502484
0.59434515
0.59371279
0.59312203
0.59256755
0.59204446
0.59154814
0.59107421
0.59061839
0.59017654
0.5897446
0.58931855
0.5888944
0.58846816
0.58803569
0.58759223
0.58713195
0.58664739
0.58612899
0.58556604
0.58495124
0.58428014
0.58352793
0.58264245
0.58165218
0.58070427
0.57958823
0.57787203
0.65261547
0.77053273
0.71569417
0.74058513
0.72274505
0.72712557
0.72075521
0.71888036
0.71529119
0.71203237
0.70856715
0.70498978
0.70129188
0.69748004
0.69356042
0.68954172
0.68543418
0.68124996
0.67700312
0.67270947
0.66838649
0.66405307
0.65972925
0.65543587
0.65119415
0.64702533
0.64295011
0.63898826
0.63515813
0.63147622
0.62795678
0.6246116
0.62144972
0.61847735
0.61569793
0.61311216
0.61071824
0.6085121
0.6064877
0.60463739
0.60295221
0.60142228
0.60003703
0.59878558
0.59765688
0.59664002
0.59572433
0.59489956
0.59415593
0.59348427
0.59287601
0.59232326
0.59181874
0.59135586
0.59092862
0.59053159
0.59015986
0.58980894
0.58947466
0.58915312
0.58884057
0.58853344
0.58822823
0.58792148
0.58760973
0.58728947
0.58695697
0.58660801
0.58623743
0.5858382
0.58540049
0.58491342
0.58437078
0.58376782
0.58307628
0.58225088
0.5813399
0.58046143
0.57933944
0.57768943
0.65268112
0.76933337
0.71409626
0.73811031
0.72050011
0.72388955
0.71755932
0.71502731
0.71112463
0.70740158
0.70349094
0.69945604
0.69529402
0.6910157
0.68663117
0.68215378
0.67759895
0.67298438
0.66832986
0.66365704
0.65898911
0.6543504
0.64976591
0.64526082
0.64085988
0.63658683
0.63246383
0.62851086
0.62474522
0.62118118
0.61782964
0.61469805
0.61179036
0.60910719
0.60664603
0.60440162
0.60236632
0.60053053
0.59888314
0.59741195
0.59610405
0.59494618
0.59392502
0.59302746
0.59224078
0.59155281
0.59095204
0.59042772
0.58996988
0.58956933
0.58921772
0.58890748
0.58863179
0.58838457
0.58816037
0.58795434
0.58776217
0.58757994
0.58740412
0.58723138
0.58705861
0.58688289
0.58670137
0.58651119
0.58630946
0.5860931
0.58585882
0.5856029
0.58532082
0.58500603
0.58464876
0.58423859
0.58376991
0.58323555
0.58260464
0.58184559
0.58102406
0.58021124
0.57907591
0.57750685
0.65216857
0.76714978
0.71157925
0.73454439
0.71724729
0.71953348
0.71316282
0.70992274
0.70559639
0.70133811
0.6968974
0.69232495
0.68762292
0.68280808
0.67789678
0.67290909
0.66786757
0.6627972
0.657725
0.65267961
0.64769073
0.64278847
0.63800268
0.63336216
0.62889387
0.62462222
0.62056833
0.61674958
0.61317914
0.60986585
0.60681419
0.60402445
0.60149308
0.59921313
0.59717476
0.59536582
0.59377237
0.59237929
0.59117067
0.59013036
0.58924223
0.58849052
0.58786008
0.5873365
0.58690629
0.58655687
0.5862767
0.58605522
0.58588287
0.58575106
0.58565208
0.58557911
0.58552613
0.58548783
0.58545957
0.58543727
0.58541736
0.58539667
0.58537234
0.58534175
0.58530248
0.5852523
0.58518903
0.58511047
0.58501427
0.58489782
0.58475822
0.58459225
0.58439595
0.58416318
0.58388477
0.58355143
0.58315746
0.58269128
0.58212075
0.58143336
0.58070867
0.5799584
0.57881115
0.57732388
0.65102109
0.76381367
0.70808755
0.72981545
0.71283381
0.71388418
0.70736622
0.70335093
0.69847394
0.693586
0.68851583
0.68331323
0.67798809
0.67256541
0.66707049
0.66153243
0.65598294
0.65045596
0.64498706
0.63961264
0.63436903
0.62929151
0.62441327
0.61976438
0.61537086
0.61125395
0.60742961
0.60390826
0.6006948
0.59778885
0.59518526
0.59287466
0.5908442
0.5890783
0.58755934
0.5862684
0.58518585
0.58429188
0.58356694
0.58299209
0.58254929
0.58222152
0.58199297
0.58184907
0.5817765
0.58176321
0.58179836
0.58187226
0.58197634
0.58210303
0.58224569
0.58239855
0.58255664
0.58271565
0.58287189
0.58302217
0.58316379
0.58329435
0.58341177
0.58351415
0.58359978
0.58366713
0.58371469
0.58374091
0.58374399
0.58372178
0.58367179
0.58359124
0.58347654
0.58332202
0.58311959
0.58286175
0.58254205
0.58214322
0.58163335
0.58102107
0.58039567
0.57970785
0.57855797
0.57712634
0.64918301
0.75908781
0.70365775
0.72372951
0.70705143
0.70671906
0.69990221
0.69501646
0.6894405
0.68380562
0.67799545
0.67206573
0.66603784
0.65994758
0.6538319
0.64773141
0.64168907
0.63574931
0.62995692
0.62435566
0.61898687
0.61388799
0.60909136
0.60462317
0.60050276
0.5967423
0.59334689
0.59031494
0.58763879
0.58530566
0.58329853
0.58159718
0.58017916
0.57902064
0.57809723
0.57738459
0.57685899
0.57649766
0.57627913
0.57618338
0.57619195
0.57628802
0.57645635
0.57668328
0.57695662
0.5772656
0.57760075
0.57795379
0.57831752
0.57868577
0.57905324
0.57941541
0.5797685
0.58010931
0.58043519
0.58074393
0.58103368
0.58130288
0.5815502
0.58177448
0.58197468
0.58214993
0.5822994
0.5824221
0.58251681
0.58258185
0.58261516
0.58261429
0.58257586
0.58249464
0.58236419
0.58217916
0.58193183
0.58159906
0.58115089
0.58061563
0.58008599
0.57945876
0.5783124
0.57694656
0.64659762
0.75259027
0.69820583
0.71602729
0.69959543
0.69769464
0.69038567
0.6845079
0.67807408
0.67156533
0.66490656
0.65816334
0.65137294
0.64458559
0.6378534
0.63123138
0.62477549
0.61854081
0.61257955
0.60693902
0.60165983
0.59677452
0.59230657
0.58827008
0.58466989
0.58150227
0.57875582
0.57641281
0.57445044
0.57284222
0.57155927
0.57057142
0.56984821
0.56935969
0.56907698
0.56897276
0.56902152
0.56919977
0.5694861
0.56986119
0.57030774
0.5708104
0.57135563
0.57193156
0.57252788
0.57313567
0.57374727
0.57435616
0.57495681
0.57554461
0.57611571
0.57666696
0.57719581
0.57770022
0.57817857
0.57862961
0.57905235
0.57944604
0.57981005
0.5801439
0.58044722
0.58071973
0.58096115
0.58117109
0.58134881
0.58149316
0.58160252
0.58167467
0.58170627
0.58169264
0.58162929
0.58151297
0.58133424
0.58106523
0.58068021
0.58022357
0.57978338
0.57921141
0.57807656
0.57678564
0.64313484
0.7436515
0.69110177
0.70625956
0.69001117
0.68633657
0.67831223
0.67130945
0.66386103
0.65635488
0.64875423
0.64113965
0.63357083
0.62611782
0.6188515
0.61184248
0.60515781
0.59885814
0.59299522
0.58760979
0.58273049
0.57837335
0.57454221
0.57122973
0.5684189
0.56608484
0.56419666
0.56271936
0.56161549
0.56084667
0.56037473
0.5601627
0.56017547
0.56038025
0.56074688
0.56124792
0.56185867
0.56255714
0.56332387
0.56414178
0.56499599
0.56587365
0.56676368
0.56765664
0.56854452
0.5694206
0.57027927
0.57111592
0.57192678
0.57270884
0.57345974
0.57417764
0.57486122
0.57550952
0.57612193
0.57669808
0.5772378
0.57774107
0.57820792
0.57863847
0.57903294
0.57939153
0.57971448
0.58000186
0.58025345
0.58046862
0.58064616
0.58078404
0.58087891
0.58092675
0.58092505
0.58087198
0.58075604
0.58054712
0.58022713
0.57985217
0.57949334
0.57896128
0.57784585
0.57665174
0.63850864
0.73223053
0.6819196
0.69386338
0.67771919
0.67208388
0.66308164
0.65480309
0.64618858
0.63757857
0.62898338
0.62050721
0.61223879
0.60427093
0.59669125
0.58957893
0.58300079
0.57700851
0.57163705
0.56690425
0.56281162
0.55934598
0.55648182
0.5541839
0.55241001
0.5511135
0.55024552
0.54975695
0.54959983
0.54972849
0.55010026
0.55067593
0.55141997
0.55230051
0.55328932
0.55436159
0.55549567
0.55667282
0.55787697
0.55909436
0.56031337
0.56152421
0.5627187
0.56389011
0.56503291
0.56614265
0.56721582
0.56824967
0.56924215
0.57019179
0.57109759
0.57195898
0.57277573
0.57354789
0.57427573
0.57495969
0.57560034
0.57619829
0.57675415
0.57726858
0.57774224
0.57817578
0.57856981
0.57892482
0.57924105
0.57951835
0.57975595
0.57995193
0.58010305
0.58020617
0.58026033
0.58026397
0.58020337
0.5800497
0.57979647
0.57950652
0.57922079
0.57871012
0.5776177
0.57655089
0.63235444
0.71941963
0.67010078
0.67825274
0.66200387
0.65421829
0.64392906
0.6342049
0.62430733
0.61456039
0.60503383
0.59586092
0.58715661
0.57902663
0.57155861
0.56481897
0.5588506
0.55367266
0.54928209
0.54565636
0.5427571
0.54053407
0.538929
0.53787921
0.53732061
0.53719004
0.53742713
0.53797542
0.53878316
0.53980364
0.54099525
0.54232133
0.5437499
0.54525332
0.54680785
0.54839329
0.54999257
0.55159133
0.55317764
0.55474162
0.5562752
0.55777186
0.5592264
0.56063474
0.5619938
0.5633013
0.56455564
0.56575583
0.56690136
0.56799214
0.56902839
0.57001065
0.57093963
0.57181627
0.5726416
0.57341677
0.57414295
0.57482131
0.57545296
0.57603898
0.57658041
0.57707823
0.57753333
0.57794653
0.57831847
0.57864944
0.57893901
0.57918543
0.57938583
0.57953809
0.57964214
0.57969532
0.57968202
0.57957814
0.5793912
0.5791856
0.57896551
0.57847
0.5774102
0.57648504
0.62434763
0.70261795
0.65481699
0.65854685
0.64182672
0.63168568
0.61982636
0.60855312
0.59740196
0.58669163
0.57654789
0.5671201
0.55852428
0.55084748
0.54414259
0.53842912
0.53369579
0.52990518
0.52699942
0.52490619
0.52354438
0.5228291
0.52267565
0.52300256
0.52373362
0.52479913
0.52613653
0.52769047
0.52941264
0.53126129
0.53320072
0.53520061
0.53723545
0.5392839
0.54132829
0.54335406
0.54534935
0.54730459
0.54921214
0.55106603
0.55286165
0.5545956
0.55626543
0.55786952
0.55940696
0.56087738
0.5622809
0.56361803
0.56488959
0.56609664
0.56724047
0.56832249
0.56934427
0.57030744
0.57121369
0.57206474
0.57286226
0.57360788
0.57430312
0.57494942
0.57554808
0.57610033
0.57660727
0.57706996
0.57748933
0.57786602
0.57819984
0.57848934
0.57873233
0.5789277
0.57907551
0.57917105
0.57919765
0.57913827
0.57901355
0.57888426
0.57872129
0.57825272
0.5772581
0.57644109
0.61384797
0.68086788
0.6346798
0.6333342
0.61571751
0.60310102
0.58960153
0.5769415
0.56490479
0.55378689
0.5437284
0.53484936
0.527215
0.52084366
0.51570984
0.51175243
0.50888363
0.50699827
0.50598226
0.50571952
0.50609738
0.50701023
0.50836177
0.51006607
0.51204787
0.51424215
0.51659343
0.51905489
0.52158734
0.5241583
0.526741
0.52931361
0.53185845
0.53436135
0.53681106
0.53919883
0.54151791
0.54376328
0.54593132
0.54801958
0.55002657
0.55195158
0.55379456
0.55555599
0.55723678
0.55883817
0.5603617
0.5618091
0.56318227
0.56448324
0.56571412
0.56687708
0.56797431
0.56900803
0.56998045
0.57089374
0.57174999
0.57255116
0.57329913
0.57399559
0.57464208
0.57523997
0.57579052
0.57629494
0.57675436
0.5771696
0.57754067
0.57786652
0.57814587
0.57837849
0.57856385
0.57869498
0.57875553
0.57873661
0.57866847
0.57860264
0.57848258
0.57804444
0.57713603
0.57643453
0.59970222
0.65206656
0.60777518
0.60085903
0.58206597
0.56708516
0.55235953
0.53900558
0.52698729
0.51652009
0.50767599
0.50047193
0.49485787
0.49073475
0.48796802
0.48640265
0.48587583
0.486227
0.48730496
0.4889721
0.4911066
0.49360289
0.49637106
0.49933561
0.50243389
0.50561446
0.50883543
0.51206301
0.51527019
0.51843556
0.52154235
0.5245776
0.52753146
0.53039662
0.53316786
0.53584161
0.53841569
0.540889
0.54326134
0.54553322
0.54770571
0.54978033
0.55175898
0.55364379
0.55543715
0.55714158
0.55875971
0.56029425
0.56174795
0.56312357
0.56442386
0.56565155
0.56680936
0.56789993
0.56892588
0.56988972
0.57079385
0.57164051
0.57243184
0.57316974
0.5738559
0.57449185
0.57507892
0.57561842
0.57611153
0.57655913
0.57696135
0.57731771
0.57762789
0.57789221
0.57810911
0.57826983
0.57835989
0.57837858
0.57836126
0.57834574
0.57825385
0.57784328
0.5770344
0.57649919
0.57994981
0.61387011
0.57190933
0.55931668
0.53984042
0.52292886
0.50811961
0.49548666
0.48499701
0.47669335
0.47047849
0.46619323
0.46362717
0.46254705
0.46271588
0.46390791
0.46591778
0.46856511
0.47169572
0.47518061
0.47891365
0.48280874
0.48679685
0.49082318
0.49484472
0.49882798
0.50274723
0.50658294
0.51032056
0.5139495
0.5174623
0.52085402
0.52412168
0.52726385
0.53028033
0.53317187
0.53593995
0.53858664
0.54111443
0.54352616
0.54582488
0.54801384
0.5500964
0.552076
0.55395612
0.55574024
0.55743181
0.55903428
0.56055102
0.56198532
0.56334044
0.56461952
0.56582563
0.56696177
0.56803082
0.56903555
0.56997858
0.57086239
0.57168926
0.5724613
0.57318031
0.57384793
0.57446558
0.57503459
0.57555611
0.57603092
0.57645931
0.57684134
0.57717754
0.57746844
0.57771137
0.57789688
0.57801368
0.57806761
0.57809351
0.57811315
0.57803834
0.57766601
0.5769765
0.57656129
0.55197544
0.56377318
0.52570638
0.50734906
0.48678039
0.4713618
0.45843119
0.44858627
0.44156287
0.43711878
0.43490878
0.43457065
0.43574795
0.43811544
0.44138957
0.4453321
0.44974819
0.4544819
0.4594105
0.46443873
0.4694936
0.47451981
0.479476
0.48433174
0.48906499
0.49366029
0.49810717
0.50239901
0.50653215
0.51050514
0.51431824
0.51797297
0.52147181
0.52481793
0.528015
0.53106705
0.53397835
0.53675331
0.53939644
0.54191228
0.54430534
0.54658013
0.54874108
0.55079255
0.5527388
0.55458402
0.55633224
0.55798742
0.55955338
0.5610338
0.56243226
0.56375222
0.56499701
0.56616984
0.5672738
0.56831183
0.5692867
0.57020104
0.57105727
0.57185759
0.57260396
0.57329809
0.5739415
0.5745355
0.57508114
0.57557911
0.57602978
0.57643365
0.57679172
0.57710441
0.57736843
0.57757514
0.57771732
0.57780454
0.57786567
0.57790622
0.57783787
0.577505
0.57694357
0.57668867
0.51167023
0.49920146
0.46210441
0.44427196
0.4269096
0.41475402
0.40647691
0.40186416
0.40026365
0.40109124
0.40377999
0.40784455
0.41288412
0.41858154
0.42469238
0.43103238
0.43746508
0.44389097
0.45023867
0.45645789
0.46251401
0.46838406
0.47405358
0.47951434
0.48476268
0.48979819
0.49462282
0.49924019
0.50365502
0.50787286
0.5118997
0.51574186
0.51940579
0.52289798
0.52622488
0.52939286
0.53240813
0.53527677
0.53800469
0.5405976
0.54306105
0.54540038
0.54762077
0.5497272
0.55172449
0.55361726
0.55540997
0.55710691
0.55871219
0.56022976
0.56166344
0.56301687
0.56429355
0.56549686
0.56663
0.56769603
0.56869781
0.56963804
0.57051925
0.57134372
0.57211348
0.57283035
0.57349592
0.57411149
0.57467804
0.57519618
0.57566634
0.5760892
0.57646577
0.57679608
0.5770769
0.57730164
0.57746718
0.57758438
0.57767447
0.57773236
0.57768045
0.57740709
0.57696457
0.5767582
0.45014116
0.41768495
0.38807499
0.373284
0.36248685
0.35770608
0.35714621
0.35989132
0.36495304
0.37157413
0.37917112
0.38732093
0.39572421
0.40417469
0.41253331
0.4207087
0.42864283
0.43630079
0.44366348
0.45072263
0.45747723
0.46393109
0.47009115
0.47596632
0.48156664
0.48690275
0.49198553
0.49682579
0.50143416
0.50582096
0.50999615
0.51396926
0.51774944
0.52134538
0.52476539
0.52801735
0.5311088
0.53404689
0.53683842
0.53948989
0.54200749
0.54439712
0.54666443
0.54881481
0.5508534
0.55278513
0.55461471
0.55634664
0.55798522
0.55953457
0.56099865
0.56238121
0.56368588
0.56491611
0.56607519
0.56716623
0.56819215
0.56915568
0.57005938
0.57090557
0.57169635
0.5724336
0.57311896
0.57375375
0.57433894
0.57487515
0.57536288
0.57580276
0.57619546
0.57654058
0.57683533
0.5770755
0.57726086
0.57740105
0.57750967
0.57757711
0.57754442
0.57734065
0.57702123
0.57688391
0.35472807
0.3213431
0.30378432
0.29932361
0.30070624
0.3069558
0.31609972
0.32687621
0.33841442
0.35016485
0.36179296
0.37310349
0.38398926
0.39439755
0.40430892
0.41372387
0.42265454
0.43111947
0.43914046
0.44674058
0.45394297
0.46077019
0.46724379
0.47338413
0.47921032
0.48474016
0.48999027
0.49497607
0.4997119
0.5042111
0.50848606
0.51254834
0.51640872
0.52007726
0.52356339
0.52687593
0.53002319
0.53301297
0.53585262
0.5385491
0.54110898
0.5435385
0.54584356
0.5480298
0.55010256
0.55206694
0.55392779
0.55568973
0.55735717
0.55893433
0.56042522
0.56183371
0.56316345
0.56441794
0.56560053
0.56671432
0.56776226
0.5687471
0.56967138
0.57053743
0.57134737
0.5721031
0.57280626
0.57345822
0.57405999
0.5746123
0.57511573
0.57557083
0.57597788
0.57633621
0.57664376
0.57689832
0.57710099
0.57725866
0.57737812
0.57744952
0.5774348
0.57729632
0.5770794
0.57697107
0.21602051
0.21474866
0.22012207
0.23348461
0.25074093
0.26907202
0.2872775
0.30470927
0.32113927
0.33650394
0.35082858
0.36417354
0.37661248
0.3882206
0.39906953
0.40922524
0.41874735
0.42768932
0.43609883
0.44401836
0.45148577
0.45853485
0.46519584
0.47149583
0.47745921
0.48310797
0.48846202
0.49353943
0.49835667
0.50292878
0.50726956
0.51139171
0.51530691
0.51902601
0.52255904
0.52591537
0.52910372
0.53213225
0.53500861
0.53774001
0.54033322
0.54279466
0.54513039
0.54734615
0.5494474
0.55143932
0.55332684
0.55511464
0.5568072
0.55840876
0.55992339
0.56135498
0.56270722
0.56398364
0.56518758
0.56632218
0.56739037
0.56839489
0.5693383
0.5702229
0.57105081
0.5718239
0.57254382
0.57321191
0.57382924
0.57439664
0.57491475
0.57538402
0.5758045
0.57617554
0.57649583
0.57676446
0.57698268
0.57715435
0.57728178
0.5773576
0.5773616
0.57727827
0.57713784
0.57704141
0.091711219
0.12153312
0.15885665
0.1924112
0.2224577
0.24890597
0.27237516
0.29333011
0.31218605
0.32926843
0.34483961
0.35910973
0.37224936
0.38439808
0.39567138
0.40616563
0.41596203
0.42512953
0.43372717
0.44180581
0.44940961
0.45657714
0.46334228
0.46973494
0.47578169
0.48150625
0.48692988
0.49207171
0.49694908
0.50157771
0.50597195
0.51014491
0.51410866
0.51787432
0.52145216
0.52485173
0.52808191
0.53115097
0.53406667
0.53683629
0.53946668
0.54196431
0.54433527
0.54658535
0.54872003
0.55074453
0.55266379
0.55448252
0.5562052
0.55783611
0.55937934
0.56083879
0.56221817
0.56352103
0.56475075
0.56591048
0.56700319
0.56803162
0.56899835
0.56990571
0.57075581
0.57155053
0.57229146
0.57297993
0.57361699
0.57420347
0.57473998
0.57522686
0.57566403
0.57605087
0.57638646
0.57667035
0.57690344
0.57708755
0.57722292
0.57730476
0.5773235
0.57727432
0.57717583
0.57708083
0.010830272
0.29784708
0.47016714
0.51698359
0.52640856
0.52689428
0.52659282
0.52771377
0.5292099
0.53069191
0.53216722
0.53360279
0.53501707
0.53641766
0.53781511
0.53921893
0.54063063
0.54205061
0.54347856
0.54491348
0.54635393
0.54779812
0.54924409
0.55068976
0.55213296
0.55357156
0.55500342
0.55642645
0.55783858
0.55923784
0.56062227
0.56198997
0.56333908
0.56466777
0.56597424
0.56725671
0.5685134
0.56974258
0.5709425
0.57211143
0.57324763
0.57434939
0.57541499
0.57644273
0.57743094
0.57837795
0.57928217
0.58014204
0.58095607
0.58172288
0.58244119
0.58310988
0.58372799
0.5842948
0.5848098
0.58527276
0.58568377
0.5860432
0.58635191
0.58661084
0.58682103
0.58698429
0.58710303
0.58717957
0.58721464
0.58720842
0.58715509
0.5870547
0.58688741
0.5866727
0.58635001
0.58601432
0.58546611
0.58505935
0.58418313
0.58377808
0.58235622
0.58223442
0.5801137
0.58053684
0.06602926
0.38507234
0.51973097
0.54410767
0.54486018
0.54305785
0.54223164
0.54239173
0.54260131
0.54290984
0.54330777
0.54387144
0.54455436
0.5453255
0.54615761
0.54704795
0.5479901
0.54897939
0.55001044
0.55107815
0.55217784
0.5533051
0.55445581
0.55562604
0.55681208
0.55801038
0.55921757
0.56043041
0.56164579
0.56286072
0.56407233
0.56527781
0.56647448
0.56765969
0.5688309
0.56998562
0.57112142
0.57223591
0.57332679
0.57439176
0.57542861
0.57643515
0.57740926
0.57834885
0.5792519
0.58011647
0.58094068
0.58172276
0.58246102
0.58315394
0.58380011
0.58439834
0.58494761
0.58544718
0.58589653
0.58629545
0.58664406
0.58694279
0.58719255
0.58739435
0.58754929
0.5876593
0.58772684
0.58775413
0.58774184
0.58768968
0.58759214
0.587448
0.58723986
0.58698301
0.58662547
0.58624893
0.5856778
0.58522274
0.58433729
0.58388806
0.58248972
0.58230266
0.58020135
0.58057354
0.1519878
0.46517408
0.53889655
0.5514181
0.55001298
0.549114
0.54912951
0.5496913
0.55011459
0.55064284
0.55115343
0.55172356
0.55231441
0.55294571
0.55360951
0.55431044
0.55504486
0.55581288
0.55661304
0.5574437
0.55830314
0.55918944
0.56010056
0.56103431
0.56198835
0.56296025
0.56394751
0.56494751
0.56595759
0.56697506
0.56799716
0.56902114
0.5700442
0.57106356
0.57207644
0.57308007
0.5740717
0.57504861
0.5760081
0.57694751
0.57786425
0.57875574
0.57961948
0.58045306
0.58125411
0.58202038
0.58274971
0.58344008
0.58408958
0.58469649
0.58525926
0.58577656
0.5862473
0.58667066
0.58704611
0.58737339
0.58765261
0.58788426
0.58806927
0.58820867
0.58830363
0.58835611
0.5883686
0.58834321
0.58828048
0.58817973
0.5880356
0.58784595
0.58759516
0.5872955
0.58690157
0.58648469
0.58588907
0.58538773
0.58448966
0.58399757
0.58261829
0.58237006
0.58028346
0.58060467
0.23340445
0.51113109
0.5525338
0.55980048
0.55715883
0.55740608
0.55747649
0.55806871
0.55834519
0.55879448
0.5591719
0.55962681
0.56008602
0.56057552
0.56108206
0.56161366
0.56216782
0.56274642
0.56334939
0.56397672
0.56462813
0.56530313
0.566001
0.5667208
0.56746136
0.56822129
0.56899902
0.56979276
0.57060058
0.57142037
0.57224986
0.57308669
0.57392836
0.57477226
0.57561575
0.57645606
0.57729043
0.57811604
0.57893005
0.57972963
0.58051194
0.5812742
0.58201365
0.5827276
0.58341346
0.58406872
0.58469097
0.58527797
0.58582763
0.58633804
0.5868075
0.58723457
0.58761807