/*--------------------------------*- C++ -*----------------------------------*\
  =========                 |
  \\      /  F ield         | OpenFOAM: The Open Source CFD Toolbox
   \\    /   O peration     | Website:  https://openfoam.org
    \\  /    A nd           | Version:  12
     \\/     M anipulation  |
\*---------------------------------------------------------------------------*/
FoamFile
{
    format      ascii;
    class       volScalarField;
    location    "0.089";
    object      nut;
}
// * * * * * * * * * * * * * * * * * * * * * * * * * * * * * * * * * * * * * //

dimensions      [0 2 -1 0 0 0 0];

internalField   nonuniform List<scalar> 
16000
(
4.6672658e-07
9.9541711e-06
1.9871615e-05
2.3947391e-05
1.8426779e-05
2.539897e-05
1.7833581e-05
2.4520778e-05
1.8976971e-05
2.6298098e-05
2.198828e-05
2.5971173e-05
2.360124e-05
2.4276239e-05
2.3432788e-05
2.3305187e-05
2.3055698e-05
2.2987809e-05
2.299657e-05
2.3103992e-05
2.3301942e-05
2.3589957e-05
2.3965556e-05
2.4428802e-05
2.4981786e-05
2.5630501e-05
2.6382854e-05
2.7251552e-05
2.825211e-05
2.9401268e-05
3.0717362e-05
3.2224729e-05
3.3954813e-05
3.5946401e-05
3.8247279e-05
4.0914522e-05
4.4016206e-05
4.7633562e-05
5.1867185e-05
5.6841898e-05
6.2704512e-05
6.9628139e-05
7.7831299e-05
8.7582352e-05
9.9201666e-05
0.00011307438
0.00012967912
0.00014960081
0.00017355382
0.00020241146
0.00023724687
0.00027938381
0.00033045261
0.00039246743
0.00046791728
0.00055989144
0.00067224543
0.0008098229
0.0009787162
0.0010218884
0.0010216199
0.0010213515
0.0010210008
0.0010205646
0.0010200343
0.0010194009
0.001018654
0.0010177791
0.0010167517
0.0010155184
0.0010139698
0.0010120588
0.00101043
0.0010092501
0.0010084253
0.0010078329
0.0010072716
0.0010063438
0.0010059166
0.001006287
4.2785559e-07
9.455639e-06
1.992249e-05
2.1595361e-05
1.6646048e-05
2.2790594e-05
1.5861241e-05
2.1492305e-05
1.6813839e-05
2.3253443e-05
1.9954181e-05
2.3446348e-05
2.1623914e-05
2.2029765e-05
2.137294e-05
2.1191618e-05
2.0984768e-05
2.0912582e-05
2.092334e-05
2.1021817e-05
2.1205092e-05
2.1472293e-05
2.1821566e-05
2.2253083e-05
2.2768443e-05
2.337329e-05
2.4074507e-05
2.4883568e-05
2.5815172e-05
2.6885675e-05
2.8112195e-05
2.9517029e-05
3.1129345e-05
3.2985138e-05
3.5129205e-05
3.7615314e-05
4.0508019e-05
4.388382e-05
4.7836623e-05
5.2484807e-05
5.796972e-05
6.4454746e-05
7.2146126e-05
8.1300233e-05
9.2225442e-05
0.00010528873
0.00012094761
0.00013976307
0.00016242181
0.00018976401
0.00022282244
0.00026287433
0.00031149464
0.0003706327
0.00044269967
0.00053068966
0.00063833826
0.00077032595
0.00093252796
0.0010211463
0.0010208794
0.0010206008
0.0010202471
0.001019811
0.0010192836
0.0010186539
0.0010179087
0.0010170308
0.0010159976
0.0010147709
0.0010132644
0.0010114248
0.0010098713
0.0010087499
0.0010079708
0.0010074068
0.0010068176
0.0010059079
0.0010053771
0.0010051727
3.7592955e-07
9.0659591e-06
1.8861418e-05
1.983028e-05
1.4930289e-05
2.0091739e-05
1.4145462e-05
1.870464e-05
1.5139583e-05
2.0429867e-05
1.8222837e-05
2.0908082e-05
1.9622368e-05
1.9757865e-05
1.9252831e-05
1.9048098e-05
1.887412e-05
1.880724e-05
1.8821322e-05
1.8914718e-05
1.9085907e-05
1.9334348e-05
1.965848e-05
2.0058758e-05
2.0536389e-05
2.1096827e-05
2.1746232e-05
2.2495006e-05
2.3356853e-05
2.4347716e-05
2.5483876e-05
2.678599e-05
2.8281309e-05
3.000337e-05
3.1994265e-05
3.4304648e-05
3.6995876e-05
4.014065e-05
4.3827148e-05
4.8167158e-05
5.3297357e-05
5.9373428e-05
6.6590811e-05
7.5194253e-05
8.5482029e-05
9.7805711e-05
0.00011260421
0.00013041732
0.00015190728
0.00017788552
0.00020934904
0.00024753343
0.00029396329
0.00035052849
0.00041956846
0.00050398922
0.00060741609
0.00073438743
0.00089058637
0.0010204361
0.0010201722
0.0010198759
0.0010195104
0.0010190657
0.0010185328
0.0010178993
0.0010171495
0.0010162637
0.0010152191
0.0010139882
0.0010125098
0.0010107444
0.0010092842
0.0010082336
0.0010075047
0.0010069662
0.0010063573
0.0010054473
0.0010048144
0.0010042821
3.3926919e-07
8.7745056e-06
1.7924135e-05
1.8406671e-05
1.3435712e-05
1.7761398e-05
1.2621825e-05
1.6364487e-05
1.3643649e-05
1.8024929e-05
1.6658527e-05
1.8651013e-05
1.7766676e-05
1.7703198e-05
1.731202e-05
1.7105069e-05
1.6959998e-05
1.6903597e-05
1.6923742e-05
1.7015602e-05
1.7178275e-05
1.7411628e-05
1.7714413e-05
1.8087486e-05
1.8531795e-05
1.905273e-05
1.9655981e-05
2.0351104e-05
2.1150862e-05
2.2070862e-05
2.3126832e-05
2.4338035e-05
2.5730162e-05
2.7334631e-05
2.919124e-05
3.1347958e-05
3.3863367e-05
3.6807178e-05
4.0263009e-05
4.4336496e-05
4.9160699e-05
5.4885422e-05
6.1697382e-05
6.9830929e-05
7.9576888e-05
9.1274823e-05
0.00010534876
0.00012232184
0.00014283713
0.00016768463
0.0001978336
0.00023448821
0.00027913466
0.00033361818
0.0004002245
0.00048179349
0.00058186643
0.00070487505
0.00085636603
0.0010197686
0.0010195101
0.0010191917
0.0010188094
0.0010183509
0.0010178074
0.0010171653
0.0010164071
0.0010155112
0.0010144543
0.0010132176
0.0010117648
0.0010100632
0.0010086953
0.0010077125
0.0010070293
0.0010065112
0.0010058911
0.0010049784
0.0010042519
0.0010034903
3.1111457e-07
8.556611e-06
1.7105043e-05
1.8426644e-05
1.3384849e-05
1.5722077e-05
1.1279301e-05
1.4349168e-05
1.2353726e-05
1.5942623e-05
1.5262939e-05
1.6610573e-05
1.6026994e-05
1.582779e-05
1.5520887e-05
1.5326521e-05
1.520549e-05
1.5160473e-05
1.5185689e-05
1.5275593e-05
1.5429502e-05
1.5647869e-05
1.5929794e-05
1.6276642e-05
1.6689257e-05
1.7173033e-05
1.7733332e-05
1.8379048e-05
1.9122011e-05
1.9977445e-05
2.0960715e-05
2.2089914e-05
2.3389438e-05
2.4888868e-05
2.6626021e-05
2.8646513e-05
3.1006437e-05
3.3773056e-05
3.7026545e-05
4.0866671e-05
4.5423399e-05
5.0842063e-05
5.7302501e-05
6.5029235e-05
7.4307285e-05
8.5466699e-05
9.8919064e-05
0.00011517364
0.00013485736
0.00015874306
0.00018777666
0.00022313639
0.00026627608
0.00031900337
0.00038355867
0.00046272533
0.00055997217
0.00067963754
0.00082715101
0.0010092534
0.0010188875
0.001018543
0.0010181384
0.0010176605
0.0010171006
0.0010164447
0.0010156737
0.0010147652
0.0010136949
0.0010124495
0.0010110185
0.0010093825
0.0010081061
0.0010071895
0.0010065482
0.0010060462
0.0010054215
0.0010045183
0.0010037009
0.0010027179
2.8341828e-07
8.4239821e-06
1.6450826e-05
1.8229321e-05
1.317729e-05
1.3932471e-05
1.0632823e-05
1.2680745e-05
1.1388733e-05
1.4179431e-05
1.4036611e-05
1.4814258e-05
1.4432117e-05
1.4152484e-05
1.389934e-05
1.3720442e-05
1.36153e-05
1.3577727e-05
1.3604487e-05
1.3690261e-05
1.3834355e-05
1.4037733e-05
1.4299701e-05
1.4622008e-05
1.5005571e-05
1.5455695e-05
1.5977492e-05
1.6579338e-05
1.7272161e-05
1.8070765e-05
1.8990312e-05
2.0047951e-05
2.1267045e-05
2.2675647e-05
2.4309938e-05
2.6213582e-05
2.8440552e-05
3.1056148e-05
3.4138314e-05
3.7781743e-05
4.2113547e-05
4.7276074e-05
5.3444657e-05
6.0834881e-05
6.9727806e-05
8.0446951e-05
9.3394439e-05
0.00010906931
0.00012808604
0.00015120589
0.00017935728
0.00021369989
0.00025566389
0.00030702941
0.0003700042
0.00044732996
0.00054242109
0.00065954382
0.00080403767
0.00098253618
0.001018299
0.0010179254
0.0010174939
0.0010169917
0.0010164104
0.0010157359
0.0010149483
0.0010140247
0.0010129407
0.0010116851
0.0010102717
0.0010087035
0.0010075163
0.0010066643
0.0010060617
0.001005573
0.0010049483
0.0010040602
0.0010031895
0.001001962
2.5371856e-07
8.351271e-06
1.5936894e-05
1.7273734e-05
1.3072261e-05
1.2312722e-05
1.0694586e-05
1.1666794e-05
1.1056282e-05
1.2664902e-05
1.2933684e-05
1.3225392e-05
1.2950394e-05
1.2634679e-05
1.2412247e-05
1.2249041e-05
1.2155532e-05
1.2123989e-05
1.2151716e-05
1.2233948e-05
1.2369685e-05
1.256033e-05
1.2805187e-05
1.3029335e-05
1.3378642e-05
1.3791674e-05
1.4272901e-05
1.482998e-05
1.5472745e-05
1.6215244e-05
1.7072393e-05
1.8060417e-05
1.9201719e-05
2.0522884e-05
2.2058565e-05
2.3850623e-05
2.5951028e-05
2.8423133e-05
3.1343385e-05
3.5064676e-05
3.9212605e-05
4.4166882e-05
5.0100757e-05
5.722211e-05
6.5809099e-05
7.6181638e-05
8.8735301e-05
0.00010396225
0.00012246768
0.00014500648
0.00017249485
0.00020608066
0.00024717825
0.00029754937
0.00035938023
0.00043538434
0.00052893799
0.00064425434
0.00078660368
0.00096253988
0.0010177398
0.0010173343
0.0010168718
0.0010163412
0.001015734
0.0010150363
0.0010142282
0.0010132872
0.0010121896
0.0010109232
0.0010095222
0.0010080302
0.0010069295
0.001006141
0.0010055753
0.0010050986
0.0010044803
0.0010036096
0.001002708
0.0010013275
2.3137226e-07
8.311099e-06
1.5499317e-05
1.5722413e-05
1.203698e-05
1.073243e-05
9.2928747e-06
1.0426538e-05
9.7437463e-06
1.1379716e-05
1.1823914e-05
1.1766306e-05
1.1534902e-05
1.1224958e-05
1.1026998e-05
1.0883705e-05
1.0803881e-05
1.0780989e-05
1.074696e-05
1.0812643e-05
1.0931847e-05
1.1104992e-05
1.1329922e-05
1.1606735e-05
1.1939751e-05
1.2332098e-05
1.2788383e-05
1.3316192e-05
1.3924811e-05
1.4627842e-05
1.5440379e-05
1.6378147e-05
1.7463079e-05
1.8720818e-05
2.0185106e-05
2.1896638e-05
2.3906153e-05
2.6275766e-05
2.9081321e-05
3.2415231e-05
3.6390243e-05
4.1149201e-05
4.6865073e-05
5.4192414e-05
6.255406e-05
7.2675357e-05
8.4948579e-05
9.9862284e-05
0.00011801566
0.00014016283
0.00016721331
0.00020031034
0.00024086089
0.00029061804
0.00035175838
0.0004269818
0.00051964409
0.00063392695
0.00077505627
0.00094953742
0.0010172044
0.0010167644
0.0010162675
0.0010157049
0.0010150678
0.001014343
0.001013511
0.0010125503
0.0010114395
0.0010101636
0.0010087681
0.0010073639
0.0010063475
0.0010056224
0.0010050936
0.00100463
0.0010040274
0.0010031789
0.0010022441
0.0010009456
2.1348875e-07
8.2703874e-06
1.5046288e-05
1.3751797e-05
9.9037304e-06
9.5428658e-06
7.6621185e-06
8.8842408e-06
9.0344087e-06
1.0241208e-05
1.0693119e-05
1.0407624e-05
1.0196584e-05
9.9172004e-06
9.7437778e-06
9.555594e-06
9.4663724e-06
9.4389251e-06
9.4653367e-06
9.5429026e-06
9.6674615e-06
9.8402566e-06
1.006082e-05
1.032897e-05
1.0648915e-05
1.1024659e-05
1.1460882e-05
1.1965198e-05
1.2546516e-05
1.3217977e-05
1.3994947e-05
1.4892874e-05
1.5933507e-05
1.7141825e-05
1.855099e-05
2.0200977e-05
2.2141751e-05
2.4434714e-05
2.7154969e-05
3.0393967e-05
3.4264599e-05
3.8907402e-05
4.4497753e-05
5.1239394e-05
5.9393729e-05
6.9286462e-05
8.2027764e-05
9.6762455e-05
0.00011472273
0.00013666723
0.00016350472
0.00019638098
0.00023670415
0.00028622848
0.00034713302
0.00042211885
0.00051453923
0.00062856643
0.00076940708
0.00094354836
0.0010166871
0.0010162101
0.0010156762
0.0010150788
0.0010144085
0.0010136532
0.0010127946
0.001011812
0.0010106881
0.0010094069
0.0010080098
0.0010067077
0.0010057734
0.0010051118
0.0010046214
0.0010041731
0.0010035951
0.0010027844
0.0010018341
0.0010006103
1.9574744e-07
8.2289892e-06
1.3630907e-05
1.1965517e-05
8.0188004e-06
8.4670377e-06
6.7932117e-06
8.0175263e-06
8.3656508e-06
9.1573998e-06
9.5661824e-06
9.1650341e-06
8.9614888e-06
8.6348025e-06
8.4525701e-06
8.3350042e-06
8.2786629e-06
8.2752958e-06
8.318986e-06
8.4063053e-06
8.5376184e-06
8.7109653e-06
8.9283983e-06
9.1900025e-06
9.5002117e-06
9.8634207e-06
1.0284452e-05
1.0771073e-05
1.1331955e-05
1.1979807e-05
1.2730317e-05
1.3598963e-05
1.460753e-05
1.5780602e-05
1.715108e-05
1.8758612e-05
2.0652824e-05
2.289492e-05
2.5560176e-05
2.8740283e-05
3.2548007e-05
3.7123212e-05
4.2644068e-05
4.931398e-05
5.7396068e-05
6.721729e-05
7.9181469e-05
9.3763773e-05
0.00011258741
0.00013451978
0.00016137181
0.00019429876
0.00023471906
0.00028439829
0.00034553049
0.00042083339
0.00051367638
0.00062824572
0.00076975557
0.00094470436
0.0010161821
0.0010156659
0.001015093
0.0010144586
0.0010137529
0.0010129646
0.0010120772
0.0010110715
0.001009934
0.0010086539
0.0010072582
0.0010060652
0.0010052102
0.0010046115
0.0010041619
0.0010037311
0.0010031819
0.0010024268
0.0010014925
0.001000314
1.8067921e-07
8.1827292e-06
1.0831847e-05
9.9555766e-06
6.575604e-06
7.5318968e-06
6.1874885e-06
7.198858e-06
7.8224072e-06
8.1710611e-06
8.4562026e-06
7.9464189e-06
7.6970614e-06
7.4683836e-06
7.332497e-06
7.2529132e-06
7.2247471e-06
7.241584e-06
7.3006762e-06
7.398957e-06
7.5345758e-06
7.7097682e-06
7.9260378e-06
8.1838982e-06
8.4878719e-06
8.8427836e-06
9.2537183e-06
9.7286467e-06
1.0276196e-05
1.0908722e-05
1.1582675e-05
1.2422899e-05
1.3400914e-05
1.4540887e-05
1.5875441e-05
1.7443927e-05
1.9295689e-05
2.1491781e-05
2.4107754e-05
2.7235802e-05
3.0989556e-05
3.5788317e-05
4.1296278e-05
4.7962592e-05
5.6052204e-05
6.5894538e-05
7.7903453e-05
9.2563654e-05
0.00011048696
0.00013243709
0.00016080976
0.00019406176
0.00023490769
0.00028513498
0.00034696559
0.0004231502
0.00051709364
0.00063302065
0.00077618185
0.00095311557
0.0010156836
0.0010151263
0.0010145132
0.0010138403
0.001013098
0.001012275
0.0010113576
0.0010103284
0.0010091764
0.0010079037
0.0010065329
0.0010054418
0.001004662
0.0010041235
0.0010037171
0.0010033068
0.0010027867
0.0010021036
0.001001232
0.0010001522
1.6727892e-07
8.1353996e-06
8.5422383e-06
8.4289455e-06
5.7616117e-06
6.6698825e-06
5.6761554e-06
6.4802122e-06
7.2708949e-06
7.2497322e-06
7.2515401e-06
6.8162194e-06
6.6120939e-06
6.4428519e-06
6.3462787e-06
6.2980435e-06
6.294172e-06
6.3299156e-06
6.4015304e-06
6.5091695e-06
6.6514095e-06
6.8299362e-06
7.0473042e-06
7.3045038e-06
7.6061402e-06
7.9232417e-06
8.3224247e-06
8.7848601e-06
9.3190333e-06
9.9368524e-06
1.0652667e-05
1.1485156e-05
1.2455401e-05
1.3587625e-05
1.4914726e-05
1.6476421e-05
1.8322606e-05
2.0515058e-05
2.3130731e-05
2.6263622e-05
3.0029845e-05
3.4574584e-05
4.0075879e-05
4.6747443e-05
5.4857952e-05
6.5304465e-05
7.747049e-05
9.2340728e-05
0.00011053574
0.00013283964
0.00016021185
0.00019566259
0.000237267
0.00028844134
0.00035144885
0.00042909038
0.0005248266
0.0006429464
0.00078876901
0.00096890126
0.0010151862
0.0010145861
0.0010139319
0.0010132202
0.0010124409
0.001011583
0.0010106353
0.0010095833
0.0010084163
0.0010071528
0.0010058393
0.0010048435
0.0010041327
0.0010036496
0.0010032884
0.001002905
0.0010024123
0.0010018128
0.001001045
0.0010000495
1.5528584e-07
8.0778448e-06
6.7865917e-06
7.3929419e-06
5.1279626e-06
5.8926706e-06
5.2367009e-06
5.8448898e-06
6.6132911e-06
6.2052519e-06
6.1630288e-06
5.8268674e-06
5.6642077e-06
5.5429967e-06
5.4800677e-06
5.4593506e-06
5.4763575e-06
5.5287166e-06
5.6135503e-06
5.7312265e-06
5.8810929e-06
6.0651078e-06
6.2596766e-06
6.5137161e-06
6.8117756e-06
7.1580739e-06
7.559732e-06
8.0243829e-06
8.5607249e-06
9.1808599e-06
9.8992769e-06
1.0734416e-05
1.170858e-05
1.2846336e-05
1.4181104e-05
1.5753328e-05
1.7613974e-05
1.9826042e-05
2.246857e-05
2.5638358e-05
2.9454185e-05
3.4064158e-05
3.9654928e-05
4.6445013e-05
5.4710671e-05
6.4795828e-05
7.7128258e-05
9.2225854e-05
0.00011170229
0.00013454933
0.00016260294
0.00019708318
0.00024178094
0.00029430593
0.00035897457
0.00043865652
0.00053689005
0.00065805442
0.00080757384
0.00099215643
0.0010146845
0.0010140404
0.0010133452
0.0010125947
0.0010117791
0.0010108873
0.0010099095
0.0010088365
0.0010076568
0.0010063965
0.0010051823
0.0010042753
0.0010036269
0.0010031923
0.0010028773
0.0010025315
0.0010020648
0.0010015435
0.0010009413
0.00099999094
1.4458096e-07
8.0062626e-06
5.4354403e-06
6.4505035e-06
4.5650249e-06
5.2024804e-06
4.8605692e-06
5.1976351e-06
5.7854911e-06
5.2970599e-06
5.2068446e-06
4.9604991e-06
4.8367998e-06
4.7556848e-06
4.7224925e-06
4.7262032e-06
4.7630897e-06
4.8316541e-06
4.9298142e-06
5.0395472e-06
5.1928619e-06
5.3801531e-06
5.6037103e-06
5.8665258e-06
6.1729155e-06
6.5274835e-06
6.9372721e-06
7.4105397e-06
7.9562055e-06
8.5865259e-06
9.3161022e-06
1.0163586e-05
1.1101303e-05
1.2245424e-05
1.3588583e-05
1.5171914e-05
1.7047646e-05
1.9280042e-05
2.1950253e-05
2.5158356e-05
2.902677e-05
3.3963527e-05
3.9695402e-05
4.6666444e-05
5.5161525e-05
6.5533255e-05
7.8228137e-05
9.3784724e-05
0.00011286324
0.00013753455
0.00016649671
0.00020210474
0.00024590674
0.0003026945
0.00036951112
0.00045182052
0.00055326323
0.00067833487
0.00083260382
0.0010148441
0.0010141736
0.0010134851
0.0010127494
0.0010119607
0.0010111102
0.0010101866
0.0010091803
0.0010080872
0.0010069027
0.0010056418
0.0010045637
0.0010037407
0.0010031486
0.0010027552
0.0010024848
0.0010021891
0.0010017559
0.0010012875
0.0010008735
0.00099997044
1.350276e-07
7.8790228e-06
4.4033326e-06
5.6118341e-06
4.0611447e-06
4.587588e-06
4.5305182e-06
4.4950438e-06
4.9491315e-06
4.4864701e-06
4.3773891e-06
4.2050932e-06
4.1183931e-06
4.0719174e-06
4.0657464e-06
4.0920886e-06
4.1479072e-06
4.2157163e-06
4.3222769e-06
4.4591279e-06
4.6271393e-06
4.8278534e-06
5.0642519e-06
5.3395354e-06
5.6585881e-06
6.0262796e-06
6.4497165e-06
6.9167096e-06
7.472442e-06
8.1134986e-06
8.8545103e-06
9.7141283e-06
1.0715161e-05
1.1886277e-05
1.3261695e-05
1.4883816e-05
1.6807122e-05
1.9098152e-05
2.1841085e-05
2.5140811e-05
2.912503e-05
3.3954727e-05
3.9824731e-05
4.697515e-05
5.5702025e-05
6.6927048e-05
8.0089167e-05
9.6228233e-05
0.00011603356
0.00014035575
0.00017184228
0.00020884517
0.00025437008
0.00031039249
0.00038298581
0.00046850569
0.00057386742
0.00070370961
0.00086378225
0.0010143532
0.001013649
0.001012917
0.0010121417
0.0010113161
0.0010104321
0.0010094796
0.0010084479
0.0010073342
0.0010061552
0.0010049452
0.0010039827
0.0010032412
0.0010027015
0.0010023435
0.0010021116
0.0010018723
0.0010014951
0.0010010665
0.0010008238
0.0010000391
1.265473e-07
7.5595534e-06
3.6833448e-06
4.867245e-06
3.6123324e-06
4.042645e-06
4.0155706e-06
3.8592021e-06
4.142536e-06
3.7694897e-06
3.6661035e-06
3.5528464e-06
3.5008032e-06
3.4848844e-06
3.5034166e-06
3.5378382e-06
3.6057114e-06
3.7028091e-06
3.8283399e-06
3.9825616e-06
4.1669779e-06
4.3836566e-06
4.6360027e-06
4.9275061e-06
5.251459e-06
5.6330232e-06
6.0707655e-06
6.5729028e-06
7.1497666e-06
7.8136656e-06
8.5795928e-06
9.4669277e-06
1.049938e-05
1.1706662e-05
1.3125289e-05
1.4799144e-05
1.6785515e-05
1.915394e-05
2.1991875e-05
2.5410194e-05
2.9541392e-05
3.4554117e-05
4.0655277e-05
4.8094971e-05
5.718486e-05
6.8307478e-05
8.2661337e-05
9.9504435e-05
0.00012017887
0.00014558218
0.00017679525
0.00021721783
0.00026477461
0.00032329887
0.00039532257
0.00048856352
0.00059853766
0.00073399856
0.00090090906
0.001013848
0.0010131075
0.0010123339
0.0010115205
0.0010106598
0.0010097439
0.0010087648
0.0010077133
0.001006582
0.0010054001
0.0010042984
0.0010034402
0.0010027764
0.0010022877
0.0010019626
0.0010017607
0.0010015704
0.0010012724
0.0010009185
0.0010006376
0.0010000722
1.1921484e-07
7.1473479e-06
3.2337094e-06
4.2072058e-06
3.2125327e-06
3.4096685e-06
3.5594286e-06
3.2765542e-06
3.4128407e-06
3.1465122e-06
3.0638931e-06
2.9972623e-06
2.9766791e-06
2.9880357e-06
3.0140835e-06
3.0772185e-06
3.1683624e-06
3.2863316e-06
3.4312508e-06
3.6041134e-06
3.8069709e-06
4.0421739e-06
4.3051761e-06
4.6134811e-06
4.9662781e-06
5.3693264e-06
5.8295494e-06
6.3554456e-06
6.9575404e-06
7.6489018e-06
8.4449755e-06
9.3659327e-06
1.0436518e-05
1.1687876e-05
1.3102191e-05
1.482453e-05
1.6870111e-05
1.9311961e-05
2.2375099e-05
2.5936677e-05
3.0245334e-05
3.547727e-05
4.1852504e-05
4.9633723e-05
5.9147313e-05
7.0797303e-05
8.5079301e-05
0.0001026014
0.00012521915
0.0001518637
0.00018460783
0.00022486416
0.00027696998
0.00033834773
0.00041386845
0.00051174788
0.00062699005
0.00076888031
0.0009436212
0.0010133262
0.0010125487
0.0010117355
0.0010108858
0.0010099922
0.0010090468
0.0010080422
0.0010069747
0.0010058412
0.0010046637
0.0010036998
0.0010029356
0.0010023445
0.0010019067
0.0010016153
0.0010014377
0.00100128
0.0010010437
0.0010007786
0.0010005485
0.0010000741
1.1329609e-07
6.2176228e-06
2.8493482e-06
3.6081892e-06
2.8655729e-06
2.8262732e-06
3.1055165e-06
2.7490835e-06
2.7864513e-06
2.6143754e-06
2.5593946e-06
2.5305218e-06
2.5307145e-06
2.5596218e-06
2.6200406e-06
2.7078974e-06
2.8213149e-06
2.960137e-06
3.125245e-06
3.3180763e-06
3.5358766e-06
3.7897784e-06
4.0799003e-06
4.4103462e-06
4.7860181e-06
5.2128608e-06
5.6981023e-06
6.2505555e-06
6.8810575e-06
7.5864227e-06
8.4110694e-06
9.3634154e-06
1.0469171e-05
1.1760546e-05
1.327782e-05
1.5071349e-05
1.7203386e-05
1.9751853e-05
2.2813434e-05
2.6507571e-05
3.0982553e-05
3.6683386e-05
4.3370372e-05
5.1539783e-05
6.1533643e-05
7.3776915e-05
8.8791963e-05
0.00010722135
0.00013104628
0.00015907452
0.00019352288
0.00023587087
0.00029074062
0.00035528333
0.00043468814
0.00053238825
0.00065879021
0.00080784992
0.00099133512
0.0010127897
0.0010119741
0.0010111238
0.0010102395
0.0010093152
0.0010083439
0.0010073165
0.0010062309
0.0010051079
0.0010040046
0.0010031467
0.0010024681
0.0010019435
0.0010015564
0.0010013007
0.0010011457
0.0010010111
0.0010008222
0.001000635
0.0010004619
0.0010000673
1.0838584e-07
4.3256323e-06
2.501806e-06
3.0532112e-06
2.4312281e-06
2.3373454e-06
2.6302865e-06
2.2799966e-06
2.2654188e-06
2.1663903e-06
2.1419435e-06
2.1384272e-06
2.1665783e-06
2.2258229e-06
2.3121097e-06
2.4231121e-06
2.5581764e-06
2.7178325e-06
2.9007203e-06
3.112961e-06
3.3555892e-06
3.6314876e-06
3.9441616e-06
4.2978711e-06
4.6977501e-06
5.1499825e-06
5.6620711e-06
6.2337072e-06
6.8913855e-06
7.6424993e-06
8.5043965e-06
9.4986186e-06
1.065231e-05
1.1999553e-05
1.3583069e-05
1.5456092e-05
1.7684778e-05
2.0351423e-05
2.3558388e-05
2.7432654e-05
3.2131522e-05
3.784886e-05
4.5157861e-05
5.3753628e-05
6.4274536e-05
7.7167954e-05
9.2984035e-05
0.00011240047
0.00013625167
0.0001670496
0.00020334423
0.00024795902
0.00030281714
0.00037375826
0.00045736071
0.00056020187
0.00069332566
0.0008501802
0.0010130871
0.0010122417
0.0010113877
0.0010105029
0.0010095863
0.001008633
0.0010076383
0.0010065953
0.0010054954
0.0010043635
0.0010034089
0.001002641
0.0010020374
0.001001573
0.0010012355
0.0010010176
0.0010008859
0.0010007686
0.0010006145
0.0010004922
0.0010003701
0.0010001015
1.0313651e-07
3.566827e-06
2.1392551e-06
2.5432582e-06
2.0756821e-06
1.9290788e-06
2.1427587e-06
1.8691133e-06
1.8419535e-06
1.798269e-06
1.8001542e-06
1.8275602e-06
1.8873676e-06
1.9732846e-06
2.0829392e-06
2.2154628e-06
2.3711109e-06
2.5490394e-06
2.7540848e-06
2.9873786e-06
3.2514774e-06
3.5494782e-06
3.8850819e-06
4.2627057e-06
4.6876513e-06
5.1663155e-06
5.7000679e-06
6.3084337e-06
6.9987968e-06
7.7856668e-06
8.6872889e-06
9.726433e-06
1.093173e-05
1.2339166e-05
1.3994021e-05
1.5952975e-05
1.8286373e-05
2.108137e-05
2.4446317e-05
2.851507e-05
3.3453697e-05
3.9753149e-05
4.7155692e-05
5.6205786e-05
6.7287797e-05
8.0872431e-05
9.7538694e-05
0.00011799934
0.00014445777
0.00017558132
0.0002138208
0.00026082208
0.00031860617
0.00039332335
0.00048134808
0.00058961201
0.0007297823
0.00089488568
0.0010125566
0.0010116861
0.0010107962
0.0010098793
0.0010089332
0.0010079533
0.0010069345
0.0010058772
0.0010047922
0.0010037154
0.0010028669
0.0010021827
0.0010016449
0.0010012352
0.001000945
0.0010007648
0.0010006569
0.0010005564
0.0010004335
0.0010003644
0.0010002869
0.0010001129
9.928147e-08
2.848342e-06
1.8256162e-06
2.0326153e-06
1.7818842e-06
1.5800827e-06
1.6929212e-06
1.5211748e-06
1.5086878e-06
1.508737e-06
1.5373911e-06
1.5978732e-06
1.6842507e-06
1.7930278e-06
1.9232925e-06
2.0752696e-06
2.2489014e-06
2.4473519e-06
2.6722068e-06
2.9258092e-06
3.2109585e-06
3.5309266e-06
3.889545e-06
4.2913454e-06
4.7417579e-06
5.2437348e-06
5.8107109e-06
6.4501761e-06
7.1742352e-06
7.9980704e-06
8.9409458e-06
1.0026923e-05
1.128628e-05
1.2757021e-05
1.4486923e-05
1.6536045e-05
1.8979434e-05
2.1909167e-05
2.5440164e-05
2.9713795e-05
3.5134928e-05
4.1510872e-05
4.9294517e-05
5.8815371e-05
7.047679e-05
8.4774744e-05
0.00010231805
0.00012385628
0.0001516657
0.00018441213
0.00022464462
0.00027408948
0.00033487146
0.00041340884
0.0005059635
0.00061978946
0.00076713433
0.00094071803
0.0010120242
0.0010111297
0.0010102086
0.0010092617
0.0010082882
0.0010072858
0.0010062478
0.0010051688
0.0010040764
0.0010031431
0.0010023818
0.0010017722
0.0010012939
0.0010009346
0.0010006884
0.001000542
0.001000455
0.0010003703
0.001000277
0.001000252
0.0010002197
0.0010001092
9.7018339e-08
2.220885e-06
1.5529362e-06
1.5476156e-06
1.5110442e-06
1.2818518e-06
1.3269292e-06
1.2434833e-06
1.2585604e-06
1.2895447e-06
1.3516287e-06
1.4381039e-06
1.5459288e-06
1.6737649e-06
1.8218704e-06
1.991263e-06
2.1827941e-06
2.3994801e-06
2.6431555e-06
2.9163831e-06
3.2221021e-06
3.5636974e-06
3.9450968e-06
4.3709225e-06
4.8467015e-06
5.3791511e-06
5.9765499e-06
6.6491841e-06
7.4013199e-06
8.2625298e-06
9.2472073e-06
1.0380786e-05
1.1695308e-05
1.323098e-05
1.5038109e-05
1.7249736e-05
1.9824562e-05
2.2914543e-05
2.6641736e-05
3.1156566e-05
3.6644093e-05
4.3331588e-05
5.1499415e-05
6.1492104e-05
7.3733193e-05
8.8743606e-05
0.00010716277
0.00013091029
0.00015888676
0.00019324395
0.000235452
0.00028731911
0.00035439391
0.00043333933
0.00053038919
0.0006497451
0.00080415392
0.00098618662
0.0010114974
0.0010105814
0.0010096352
0.0010086627
0.0010076626
0.0010066366
0.0010055873
0.00100452
0.0010034661
0.0010026359
0.0010019559
0.0010014128
0.0010009889
0.0010006756
0.0010004682
0.0010003498
0.0010002791
0.0010002095
0.0010001451
0.0010001553
0.0010001641
0.0010001055
9.7140098e-08
1.6863251e-06
1.3228908e-06
1.1766441e-06
1.2385979e-06
1.0322815e-06
1.0582788e-06
1.0381583e-06
1.0817108e-06
1.1422486e-06
1.228484e-06
1.334597e-06
1.4594977e-06
1.603324e-06
1.7671352e-06
1.9524371e-06
2.1607563e-06
2.3946877e-06
2.6564109e-06
2.9485961e-06
3.2742632e-06
3.6368695e-06
4.0404209e-06
4.4896318e-06
4.990146e-06
5.5488351e-06
6.1741974e-06
6.8768566e-06
7.6701821e-06
8.5710745e-06
9.6008889e-06
1.0786662e-05
1.2162449e-05
1.3771052e-05
1.5666024e-05
1.7914128e-05
2.0598377e-05
2.3821958e-05
2.7712424e-05
3.2427469e-05
3.8161586e-05
4.5153617e-05
5.3695076e-05
6.4146377e-05
7.6949194e-05
9.3413713e-05
0.00011281824
0.00013662832
0.00016585818
0.00020175571
0.0002458539
0.0003028546
0.00036993297
0.0004523689
0.00055371808
0.00068496191
0.00083946098
0.001011926
0.0010109877
0.0010100502
0.0010090848
0.0010080943
0.0010070751
0.0010060256
0.0010049503
0.0010038793
0.001002953
0.0010021999
0.0010015919
0.001001108
0.0010007334
0.00100046
0.0010002836
0.0010001861
0.0010001272
0.0010000715
0.0010000337
0.0010000704
0.0010001129
0.0010001014
1.0045445e-07
1.2501758e-06
1.1323982e-06
9.0545235e-07
1.0798196e-06
8.2649422e-07
8.7380186e-07
8.9882587e-07
9.652479e-07
1.0489949e-06
1.1527112e-06
1.2739059e-06
1.4129451e-06
1.5708197e-06
1.7490025e-06
1.9492171e-06
2.173422e-06
2.4236501e-06
2.7025497e-06
3.0127625e-06
3.3573676e-06
3.7398882e-06
4.1644105e-06
4.6357503e-06
5.1596821e-06
5.7432487e-06
6.395179e-06
7.1264571e-06
7.9509496e-06
8.8862626e-06
9.9546658e-06
1.1184424e-05
1.261117e-05
1.4279712e-05
1.6246115e-05
1.8580294e-05
2.1369076e-05
2.471998e-05
2.8765815e-05
3.3670326e-05
3.9905935e-05
4.7238375e-05
5.619365e-05
6.7148114e-05
8.0563111e-05
9.7005284e-05
0.000117171
0.00014191608
0.00017228927
0.00021154469
0.00025769876
0.00031438507
0.00038403199
0.00046963441
0.00058049767
0.000710925
0.00087141098
0.0010114653
0.00101051
0.0010095501
0.0010085667
0.0010075617
0.0010065328
0.0010054799
0.0010044087
0.0010033577
0.0010025232
0.0010018387
0.0010012903
0.0010008572
0.0010005255
0.0010002855
0.0010001293
0.0010000448
0.00099999321
0.00099995106
0.00099993784
0.00099999452
0.0010000647
0.0010000825
1.0706841e-07
9.6550789e-07
9.6629381e-07
7.6589512e-07
7.6933112e-07
7.0470117e-07
7.5026181e-07
8.105947e-07
8.9435631e-07
9.9431189e-07
1.111166e-06
1.2448116e-06
1.3963068e-06
1.5669695e-06
1.758396e-06
1.9723666e-06
2.2108693e-06
2.4761171e-06
2.7705858e-06
3.0970597e-06
3.4586966e-06
3.8591169e-06
4.3025278e-06
4.7939006e-06
5.3392159e-06
5.9436467e-06
6.6193392e-06
7.3762664e-06
8.2362125e-06
9.2058508e-06
1.0313509e-05
1.1588796e-05
1.3069004e-05
1.4800957e-05
1.6843198e-05
1.9268609e-05
2.2167621e-05
2.5652104e-05
2.9860113e-05
3.4961729e-05
4.1166216e-05
4.8730821e-05
5.7971386e-05
6.9273815e-05
8.3113739e-05
0.00010007443
0.00012194853
0.00014766138
0.00017920799
0.00021792927
0.00026547429
0.00032387599
0.00039563953
0.00048845566
0.0005977305
0.00073215678
0.00089764615
0.0010110554
0.0010100832
0.0010091036
0.0010081025
0.0010070806
0.0010060365
0.001004973
0.0010039108
0.0010029465
0.0010021766
0.00100155
0.001001049
0.0010006553
0.001000357
0.0010001461
0.0010000021
0.00099992251
0.00099987435
0.00099984438
0.00099985281
0.00099992514
0.0010000176
0.0010000634
1.2168355e-07
9.7172971e-07
8.0615404e-07
5.6767798e-07
6.1116389e-07
6.1407438e-07
6.7794979e-07
7.5716243e-07
8.5449477e-07
9.6667044e-07
1.0946754e-06
1.239332e-06
1.4019328e-06
1.5838898e-06
1.7868227e-06
2.0125344e-06
2.2630384e-06
2.5405854e-06
2.8476986e-06
3.1872184e-06
3.5623632e-06
3.9768161e-06
4.4348481e-06
4.9414958e-06
5.5028128e-06
6.1262139e-06
6.8209321e-06
7.598603e-06
8.474007e-06
9.4659525e-06
1.0598337e-05
1.1901476e-05
1.3413602e-05
1.518273e-05
1.726886e-05
1.974665e-05
2.2708664e-05
2.6269291e-05
3.0569539e-05
3.5782898e-05
4.2122635e-05
5.0208053e-05
5.9719707e-05
7.1348374e-05
8.5581861e-05
0.00010301796
0.00012439149
0.00015060585
0.00018277224
0.0002222565
0.00027074456
0.00033336314
0.00040710178
0.00049774413
0.00060923722
0.00074647973
0.00091555877
0.0010107155
0.0010097285
0.0010087328
0.001007718
0.0010066845
0.0010056307
0.001004562
0.0010035107
0.0010026245
0.001001906
0.0010013265
0.0010008643
0.0010005014
0.0010002261
0.0010000307
0.00099990471
0.00099982737
0.00099978249
0.00099976338
0.00099978859
0.00099987306
0.00099997931
0.0010000371
1.1157566e-07
6.2721356e-07
6.3897647e-07
4.700486e-07
5.1267299e-07
5.5864115e-07
6.377124e-07
7.306246e-07
8.3867924e-07
9.6119651e-07
1.0992509e-06
1.2538944e-06
1.4264455e-06
1.6183694e-06
1.8313179e-06
2.0671382e-06
2.327897e-06
2.6158722e-06
2.9336971e-06
3.2842578e-06
3.6708387e-06
4.0971887e-06
4.567646e-06
5.0873163e-06
5.6623283e-06
6.3001841e-06
7.0102248e-06
7.8042319e-06
8.7043503e-06
9.7185589e-06
1.0876134e-05
1.2208116e-05
1.3753592e-05
1.5561607e-05
1.7693382e-05
2.0225043e-05
2.3250901e-05
2.6887456e-05
3.1278286e-05
3.6600018e-05
4.3069609e-05
5.0953186e-05
6.0576863e-05
7.2341857e-05
8.6739983e-05
0.00010437559
0.00012599152
0.00015383983
0.00018660543
0.00022681237
0.00027617684
0.00033681393
0.00041133791
0.00050298545
0.00061577289
0.00075469782
0.00092598369
0.0010104661
0.0010094665
0.0010084565
0.0010074283
0.001006383
0.0010053209
0.00100425
0.0010032103
0.0010023807
0.0010017019
0.0010011587
0.001000727