/*--------------------------------*- C++ -*----------------------------------*\
  =========                 |
  \\      /  F ield         | OpenFOAM: The Open Source CFD Toolbox
   \\    /   O peration     | Website:  https://openfoam.org
    \\  /    A nd           | Version:  12
     \\/     M anipulation  |
\*---------------------------------------------------------------------------*/
FoamFile
{
    format      ascii;
    class       volVectorField;
    location    "0.089";
    object      U;
}
// * * * * * * * * * * * * * * * * * * * * * * * * * * * * * * * * * * * * * //

dimensions      [0 1 -1 0 0 0 0];

internalField   nonuniform List<vector> 
16000
(
(214.99354 -3.1484909e-17 -8.3652572)
(251.90953 0 5.3690628)
(237.97898 0 -7.568304)
(245.67631 4.9829579e-17 3.785597)
(240.9782 -4.918632e-17 -5.9676081)
(243.19335 0 1.7544536)
(241.39147 0 -4.3523092)
(241.90313 8.4193009e-17 -0.032858297)
(241.05969 -7.9991617e-17 -3.1904861)
(240.9408 0 -1.2838442)
(240.42643 7.2278864e-17 -2.598285)
(240.0803 -2.0592412e-16 -2.0131327)
(239.63733 1.3033859e-16 -2.4601163)
(239.20965 -1.2398134e-16 -2.3988913)
(238.75393 1.1763542e-16 -2.5646828)
(238.28447 -3.4896045e-18 -2.640243)
(237.7965 -3.3149834e-18 -2.74778)
(237.29093 -9.7816288e-17 -2.8446094)
(236.76722 1.9164421e-16 -2.9433352)
(236.22523 -9.09282e-17 -3.0399771)
(235.66483 1.7295508e-16 -3.1349281)
(235.08595 -1.6394866e-16 -3.227499)
(234.48859 0 -3.3171998)
(233.87288 1.5260673e-16 -3.4034576)
(233.23901 -4.1325896e-18 -3.4856918)
(232.5873 -2.6634474e-16 -3.5632898)
(231.91816 1.2623823e-16 -3.6356333)
(231.23216 0 -3.7020912)
(230.52996 0 -3.7620368)
(229.81239 2.1922374e-16 -3.8148527)
(229.08037 -2.0425954e-16 -3.8599445)
(228.33501 0 -3.8967497)
(227.57751 0 -3.9247489)
(226.80923 0 -3.9434797)
(226.03166 5.1529821e-18 -3.9525461)
(225.2464 1.5637454e-16 -3.9516305)
(224.45515 -1.4314855e-16 -3.9405046)
(223.65972 -1.4019686e-16 -3.919037)
(222.86201 1.2413629e-16 -3.887203)
(222.06395 0 -3.8450914)
(221.26754 -1.188007e-16 -3.7929064)
(220.47477 1.1213494e-16 -3.7309709)
(219.68765 -2.125048e-16 -3.659724)
(218.90814 2.0049322e-16 -3.5797172)
(218.13817 -1.9579959e-16 -3.4916067)
(217.37957 3.5847206e-16 -3.3961412)
(216.6341 5.6106632e-18 -3.2941497)
(215.90339 2.9259523e-19 -3.1865254)
(215.18893 -1.5087204e-16 -3.0742086)
(214.49208 1.4268088e-16 -2.9581704)
(213.81403 -1.2603055e-16 -2.8393948)
(213.1558 0 -2.7188595)
(212.51824 7.489784e-18 -2.5975191)
(211.90204 0 -2.4762865)
(211.30773 6.6642942e-18 -2.3560178)
(210.73566 2.0749428e-16 -2.2374994)
(210.18602 -3.7923395e-16 -2.1214326)
(209.65883 1.0958467e-17 -2.0084128)
(209.1539 1.6850147e-16 -1.898907)
(208.67077 -1.4912973e-16 -1.793248)
(208.20867 1.404686e-16 -1.6915988)
(207.76658 -8.8381805e-18 -1.5939979)
(207.34316 0 -1.5003216)
(206.93668 0 -1.4103404)
(206.54505 -1.1134446e-16 -1.323788)
(206.16584 1.1202153e-16 -1.2404347)
(205.79649 -9.9245605e-17 -1.1601731)
(205.43452 1.9371e-16 -1.0830596)
(205.07801 -1.8902423e-16 -1.0092936)
(204.72591 8.3791843e-17 -0.939142)
(204.37777 5.2904144e-18 -0.87277819)
(204.03268 0 -0.80992462)
(203.68768 4.7552812e-18 -0.74974771)
(203.33622 -4.5163905e-18 -0.69168404)
(202.96933 0 -0.63360007)
(202.58437 -3.3763942e-17 -0.56807651)
(202.17714 6.2495122e-17 -0.50774621)
(201.71142 -3.1755751e-17 -0.46972004)
(201.30644 0 -0.26998582)
(200.82143 0 -0.55052786)
(216.31136 0 -11.179637)
(253.54622 -3.7367658e-18 3.3291222)
(238.92926 -1.2009211e-16 -10.489079)
(247.13934 1.1072133e-16 1.7011907)
(242.08836 0 -8.8274601)
(244.53175 1.0187121e-16 -0.40070647)
(242.5278 -1.8812008e-16 -7.0940182)
(243.12593 -1.0182541e-19 -2.3108759)
(242.19218 8.477996e-17 -5.7763646)
(242.07322 0 -3.6785912)
(241.51822 -1.5314284e-16 -5.0693137)
(241.14294 1.4980424e-16 -4.4522753)
(240.66796 1.4247763e-16 -4.8847831)
(240.20586 -2.6228306e-16 -4.8245542)
(239.71565 1.2057371e-16 -4.9698067)
(239.20986 1.1084935e-17 -5.0379803)
(238.6846 1.1591245e-16 -5.1297303)
(238.14048 -1.032342e-16 -5.2126777)
(237.5771 0 -5.2951831)
(236.99435 0 -5.3745611)
(236.39217 5.6966275e-18 -5.4506978)
(235.77059 -1.7870278e-16 -5.5228948)
(235.12972 3.3885491e-16 -5.5905285)
(234.4698 -3.1663284e-16 -5.6529263)
(233.79118 1.4311536e-16 -5.709402)
(233.09434 0 -5.7592555)
(232.37987 1.2481829e-16 -5.8017791)
(231.64852 -1.3384425e-16 -5.8362724)
(230.90118 0 -5.8620501)
(230.13888 3.5371531e-18 -5.8784536)
(229.36279 -1.3415897e-17 -5.8848626)
(228.57423 0 -5.8807107)
(227.77468 0 -5.865493)
(226.96574 -1.7117898e-16 -5.8387858)
(226.14912 3.3990233e-16 -5.8002546)
(225.32667 -1.6321741e-16 -5.7496678)
(224.50032 -1.5960302e-16 -5.6869094)
(223.67208 1.4607904e-16 -5.6119846)
(222.84401 -1.1250795e-16 -5.5250304)
(222.01823 -2.8311732e-19 -5.426319)
(221.19684 -2.6472015e-19 -5.3162594)
(220.38192 2.3351179e-16 -5.1953961)
(219.57553 -1.1017265e-16 -5.0644041)
(218.77964 0 -4.9240797)
(217.99614 2.0298296e-16 -4.7753297)
(217.22681 1.1966966e-17 -4.6191553)
(216.47328 -5.1384884e-18 -4.4566346)
(215.73705 -1.6502035e-16 -4.288904)
(215.01944 0 -4.1171377)
(214.32162 -1.4696971e-16 -3.9425276)
(213.64454 -8.8787377e-18 -3.7662626)
(212.98902 2.6082922e-16 -3.5895071)
(212.35566 -1.3044262e-16 -3.4133822)
(211.74492 0 -3.2389482)
(211.15708 -2.0435821e-17 -3.0671893)
(210.59228 -2.117402e-16 -2.8990021)
(210.05049 3.6216779e-16 -2.7351792)
(209.53153 -2.1579691e-16 -2.5763901)
(209.03504 0 -2.4231609)
(208.56042 -1.7117908e-16 -2.2758688)
(208.10677 1.7987739e-16 -2.1346994)
(207.67296 2.6741814e-17 -1.9996935)
(207.25759 0 -1.870717)
(206.8589 -1.421561e-16 -1.7474931)
(206.47478 7.3418648e-18 -1.6296831)
(206.10284 1.1190198e-16 -1.5169616)
(205.74045 -1.9768169e-17 -1.4091195)
(205.38508 9.3133647e-17 -1.3061249)
(205.03461 -1.0526907e-16 -1.2081231)
(204.6878 5.5151851e-18 -1.1153654)
(204.3441 -5.2032135e-18 -1.0279928)
(204.00275 0 -0.94560685)
(203.66085 -4.6413194e-18 -0.86736177)
(203.3115 4.3894328e-18 -0.79279521)
(202.94628 8.3125726e-18 -0.71866168)
(202.56243 9.8483425e-19 -0.63788603)
(202.1494 0 -0.56972904)
(201.69055 3.0225652e-17 -0.5118408)
(201.28355 -5.7596966e-17 -0.30187537)
(200.77427 2.5854541e-17 -0.60321554)
(217.49128 0 -14.06677)
(255.03043 -1.2290605e-16 1.0897173)
(239.90909 2.5063254e-16 -13.493917)
(248.39806 -2.2383683e-16 -0.5483203)
(243.08639 1.1054914e-16 -11.76021)
(245.66641 -3.2733917e-18 -2.7446406)
(243.53483 9.9635688e-17 -9.8827898)
(244.15909 -9.436484e-17 -4.782826)
(243.16845 -5.6019319e-18 -8.4265288)
(243.02635 -5.3190397e-18 -6.2370091)
(242.4361 -1.0104311e-17 -7.6385064)
(242.02493 1.3940223e-16 -7.0271605)
(241.5146 -1.4130571e-16 -7.4278749)
(241.01411 1.3868223e-16 -7.3747251)
(240.48493 -1.1913724e-16 -7.4982859)
(239.93852 -1.5614509e-17 -7.5582658)
(239.37138 0 -7.6341979)
(238.78411 -1.2065031e-20 -7.7020955)
(238.1764 -2.271061e-16 -7.7673188)
(237.54825 -3.6510919e-19 -7.8278515)
(236.8997 1.7407174e-16 -7.8832659)
(236.23091 1.7098513e-17 -7.9327768)
(235.54215 -2.1627041e-17 -7.9756389)
(234.83383 0 -8.0110739)
(234.10648 6.9399774e-21 -8.0382986)
(233.36076 -1.6601542e-16 -8.0565264)
(232.59751 1.4831686e-16 -8.064981)
(231.81771 8.2776224e-18 -8.0629032)
(231.02248 0 -8.0495702)
(230.21314 -7.4259486e-18 -8.0243026)
(229.39114 -1.7227025e-21 -7.9864845)
(228.55808 -1.9988966e-16 -7.9355752)
(227.71573 2.0131553e-16 -7.8711247)
(226.86596 1.1929226e-17 -7.7927922)
(226.0108 -1.8057958e-16 -7.7003546)
(225.15233 1.4903368e-16 -7.5937235)
(224.29273 -1.815887e-16 -7.4729541)
(223.43425 1.5220388e-16 -7.3382536)
(222.57912 -1.4410566e-16 -7.189984)
(221.7296 1.3581338e-16 -7.0286671)
(220.88789 1.6057973e-17 -6.8549799)
(220.05615 0 -6.6697476)
(219.23642 2.0029342e-16 -6.4739348)
(218.43066 -2.424345e-16 -6.2686303)
(217.64066 0 -6.0550297)
(216.86806 1.7991547e-16 -5.8344164)
(216.11434 -1.5787958e-16 -5.6081374)
(215.38076 1.7033205e-16 -5.3775817)
(214.66841 -1.8016329e-16 -5.1441554)
(213.97818 0 -4.9092593)
(213.31076 1.7763402e-16 -4.6742657)
(212.66665 -1.3349572e-16 -4.4404952)
(212.04618 0 -4.209199)
(211.44949 0 -3.9815431)
(210.8766 1.2505579e-16 -3.7585934)
(210.32736 -2.0884122e-16 -3.541307)
(209.8015 1.225877e-16 -3.3305167)
(209.2986 1.8447009e-16 -3.1269156)
(208.81809 1.9108695e-19 -2.9310392)
(208.35919 1.6921566e-19 -2.7432618)
(207.92086 -3.2462968e-16 -2.5637555)
(207.50185 8.9586636e-17 -2.3925306)
(207.10067 0 -2.2294241)
(206.71552 1.423495e-16 -2.0741052)
(206.34431 -1.6328096e-16 -1.9261641)
(205.98465 1.1158497e-16 -1.7851854)
(205.63397 1.3162088e-17 -1.6508539)
(205.28969 -8.6089784e-17 -1.5230298)
(204.94959 1.1558793e-17 -1.4017685)
(204.6122 2.1735017e-17 -1.2872549)
(204.2768 -1.02193e-16 -1.1795295)
(203.94264 9.6106664e-17 -1.0780632)
(203.60683 -7.2394775e-17 -0.98208504)
(203.2624 1.363587e-16 -0.89104057)
(202.90169 -5.6226675e-17 -0.80056852)
(202.52122 -6.0649803e-17 -0.70554437)
(202.1074 5.0112445e-17 -0.62883502)
(201.65657 0 -0.54824464)
(201.2547 3.2058328e-18 -0.33440409)
(200.72309 -1.2151154e-17 -0.6552416)
(218.51242 0 -17.023578)
(256.36398 0 -1.2859851)
(240.66437 0 -16.63188)
(249.48015 1.0696819e-16 -2.9018464)
(243.90186 -1.2420639e-16 -14.819076)
(246.6365 -2.2121461e-16 -5.2053518)
(244.36332 2.1039724e-16 -12.78713)
(245.01578 -1.2461805e-17 -7.3811923)
(243.9612 5.9338215e-18 -11.185347)
(243.79161 -1.7449684e-16 -8.9262063)
(243.16159 1.7083255e-16 -10.317798)
(242.70895 1.0152408e-17 -9.7266719)
(242.1584 -1.5416702e-16 -10.08742)
(241.61418 1.3695203e-16 -10.043026)
(241.04091 -1.3475009e-20 -10.143626)
(240.44872 -8.2137565e-18 -10.19345)
(239.83469 0 -10.251967)
(239.19938 -7.414242e-18 -10.302369)
(238.54261 -2.1105203e-16 -10.347665)
(237.86451 2.1310676e-16 -10.386285)
(237.16524 1.2649389e-17 -10.417571)
(236.44513 -1.1992651e-17 -10.440651)
(235.70462 2.1610916e-16 -10.454678)
(234.94431 -1.7214327e-16 -10.458781)
(234.16496 1.0208248e-17 -10.452088)
(233.36748 1.9356364e-16 -10.43374)
(232.55295 -1.2804335e-16 -10.402899)
(231.72266 0 -10.358766)
(230.87805 1.4794636e-16 -10.300597)
(230.02073 -1.2418371e-16 -10.22772)
(229.1525 2.5026752e-16 -10.139551)
(228.2753 -1.3372737e-17 -10.035619)
(227.39122 -2.1021701e-16 -9.9155736)
(226.50247 1.7435008e-16 -9.7792089)
(225.61136 -1.8782005e-16 -9.6264732)
(224.72027 -3.0218936e-20 -9.4574838)
(223.83163 2.0995239e-16 -9.2725337)
(222.94786 -3.1684819e-16 -9.0720954)
(222.07137 9.3253662e-17 -8.8568234)
(221.20453 3.5304478e-17 -8.6275484)
(220.34958 -4.9920213e-17 -8.3852711)
(219.50867 0 -8.1311464)
(218.68379 -8.8819863e-17 -7.8664685)
(217.87675 1.3910764e-16 -7.5926481)
(217.08919 -2.1002795e-16 -7.3111899)
(216.32252 1.9734002e-16 -7.0236681)
(215.57795 -2.0929577e-16 -6.7316969)
(214.85645 3.9353508e-16 -6.4369049)
(214.1588 -3.0839018e-16 -6.1409092)
(213.48553 3.0923205e-16 -5.8452883)
(212.83699 -1.45138e-16 -5.5515595)
(212.21332 1.3661011e-16 -5.2611578)
(211.61451 -9.6032592e-17 -4.9754174)
(211.04037 3.0110991e-17 -4.6955611)
(210.49059 0 -4.4226858)
(209.96473 0 -4.1577577)
(209.46226 0 -3.9015995)
(208.9825 2.3301875e-17 -3.6548791)
(208.52467 0 -3.4180963)
(208.08782 -1.6397803e-16 -3.1915816)
(207.67076 1.9195483e-16 -2.975462)
(207.27214 -1.0802867e-16 -2.7696906)
(206.8904 -1.0981329e-19 -2.5740579)
(206.52372 2.527032e-16 -2.3881759)
(206.17003 2.9669366e-17 -2.2115667)
(205.82703 -1.3857785e-16 -2.043732)
(205.4922 5.1957195e-17 -1.8842532)
(205.16296 -1.4596413e-16 -1.7328714)
(204.83698 -4.5602792e-17 -1.5895242)
(204.51254 -6.4095689e-17 -1.4542806)
(204.18869 -6.0094015e-17 -1.3270259)
(203.86459 5.6315644e-17 -1.207114)
(203.53733 0 -1.0938794)
(203.20017 0 -0.98650961)
(202.84613 -1.5515796e-17 -0.87980827)
(202.47051 0 -0.77143427)
(202.05833 6.8527805e-18 -0.6851005)
(201.61757 5.1589917e-17 -0.58035103)
(201.22177 -7.2901189e-17 -0.36626286)
(200.66954 -2.5818729e-21 -0.70591864)
(219.35837 0 -20.178525)
(257.52712 -8.843136e-18 -3.7380428)
(241.29319 2.6745822e-16 -19.905716)
(250.34221 -2.4982503e-16 -5.382185)
(244.48394 2.5492569e-16 -17.993288)
(247.40576 -2.332381e-16 -7.8193321)
(244.99365 -2.2233658e-16 -15.797531)
(245.663 2.1047175e-16 -10.137836)
(244.54721 0 -14.047192)
(244.33938 0 -11.765407)
(243.66734 1.8037891e-16 -13.111144)
(243.16642 -1.7088614e-16 -12.558824)
(242.57088 -1.0151672e-17 -12.869787)
(241.97771 2.8875081e-17 -12.833371)
(241.35536 -9.1376955e-18 -12.908992)
(240.71252 3.4657345e-17 -12.944905)
(240.04682 0 -12.983079)
(239.35878 0 -13.012236)
(238.64835 -2.3668289e-16 -13.033773)
(237.91577 2.0990617e-16 -13.046342)
(237.16139 0 -13.049101)
(236.38572 0 -13.041072)
(235.58941 -1.9098045e-16 -13.02128)
(234.77333 3.614263e-16 -12.98875)
(233.93852 -1.7094227e-16 -12.942512)
(233.08621 -2.0251002e-17 -12.881627)
(232.21784 -3.8355005e-17 -12.805204)
(231.33505 -1.4532964e-16 -12.712418)
(230.43967 1.1999273e-16 -12.602533)
(229.53372 0 -12.474922)
(228.61938 -3.073107e-17 -12.329086)
(227.69901 0 -12.164681)
(226.77505 0 -11.981526)
(225.85008 2.0744306e-16 -11.779629)
(224.92673 -2.1987351e-16 -11.55919)
(224.00765 2.3064027e-17 -11.320615)
(223.09549 -2.1761751e-17 -11.064521)
(222.19285 -4.1140495e-17 -10.791728)
(221.30224 -8.5584015e-20 -10.50326)
(220.42604 8.128005e-20 -10.200327)
(219.56649 -7.6697021e-20 -9.8843126)
(218.72561 0 -9.5567496)
(217.90524 -1.2210885e-16 -9.2192982)
(217.10696 1.1466497e-16 -8.8737134)
(216.33211 0 -8.521817)
(215.58181 -5.081825e-17 -8.1654699)
(214.85687 1.9099133e-16 -7.8065351)
(214.1579 -2.2389256e-16 -7.4468528)
(213.48524 -2.1062729e-16 -7.0882101)
(212.83903 1.5791272e-16 -6.7323164)
(212.2192 1.1136476e-16 -6.3807806)
(211.6255 -1.3900724e-16 -6.0350938)
(211.05751 -3.2588016e-17 -5.6966138)
(210.51469 -2.1407214e-16 -5.3665587)
(209.99639 1.1449016e-16 -5.0459958)
(209.50188 -1.0737053e-16 -4.7358404)
(209.03032 1.0042594e-16 -4.4368487)
(208.58082 2.3527822e-16 -4.1496095)
(208.15237 -1.7596165e-16 -3.8745371)
(207.74386 0 -3.6118727)
(207.35397 -3.8499582e-17 -3.3616607)
(206.98124 -7.2056843e-17 -3.1237679)
(206.62408 1.3464193e-16 -2.8979125)
(206.28066 1.2595343e-16 -2.6836401)
(205.94898 -2.3536215e-16 -2.4804038)
(205.6268 8.2425559e-17 -2.2876294)
(205.31174 5.1374303e-17 -2.1048022)
(205.00127 9.6036034e-17 -1.9315479)
(204.69299 1.3461589e-16 -1.7676784)
(204.38494 2.0737938e-20 -1.6131157)
(204.07592 0 -1.4675576)
(203.76488 0 -1.3302645)
(203.44887 -3.4243937e-17 -1.2006513)
(203.12154 9.6063788e-17 -1.0774526)
(202.77663 -8.9845607e-17 -0.95500782)
(202.4077 -8.4089799e-17 -0.8343685)
(201.99956 5.247553e-17 -0.73786267)
(201.57148 0 -0.60906424)
(201.18327 4.6098889e-17 -0.39519955)
(200.61421 2.8675102e-21 -0.75462008)
(220.00787 0 -23.505747)
(258.49349 1.8792994e-20 -6.2654189)
(241.72986 9.1011721e-18 -23.27431)
(251.03799 2.8934944e-16 -8.001894)
(244.90951 3.32443e-19 -21.271712)
(247.94504 -5.0752765e-16 -10.584297)
(245.38079 -3.2247147e-19 -18.903049)
(246.07103 4.5775634e-16 -13.057107)
(244.89566 -2.1061418e-16 -17.009596)
(244.6422 -1.2493177e-17 -14.753998)
(243.9266 1.1865364e-17 -16.017446)
(243.37226 -1.8017098e-16 -15.516931)
(242.72793 1.9195263e-16 -15.77018)
(242.08153 -1.8238463e-16 -15.737688)
(241.4057 3.0723232e-16 -15.786074)
(240.70762 -3.0954636e-16 -15.803551)
(239.98549 1.379621e-16 -15.817921)
(239.2398 0 -15.82176)
(238.47071 0 -15.815333)
(237.67864 1.4695418e-17 -15.797304)
(236.8642 -2.786444e-17 -15.76662)
(236.02817 0 -15.722145)
(235.17154 2.0008813e-16 -15.662753)
(234.29554 4.7008215e-19 -15.587347)
(233.40161 -3.5808803e-16 -15.49486)
(232.4914 1.6919777e-16 -15.384293)
(231.56681 2.0018857e-17 -15.254734)
(230.62994 0 -15.105377)
(229.68311 -1.7932593e-16 -14.935556)
(228.7288 1.3522281e-16 -14.744761)
(227.76967 -2.24228e-16 -14.532663)
(226.8085 2.1105532e-16 -14.299138)
(225.84816 -2.284093e-16 -14.044274)
(224.89157 2.1499736e-16 -13.768396)
(223.94168 7.6212576e-17 -13.472064)
(223.00136 0 -13.156078)
(222.07344 0 -12.821475)
(221.1606 4.2473873e-17 -12.469516)
(220.26536 4.0003818e-17 -12.101674)
(219.39001 -3.7661774e-17 -11.719606)
(218.53663 3.5441914e-17 -11.325129)
(217.70702 6.6864252e-17 -10.920188)
(216.90271 -6.2798711e-17 -10.506826)
(216.12492 3.5405932e-16 -10.087144)
(215.37459 -2.7695113e-16 -9.6632653)
(214.65237 5.1979071e-17 -9.2373067)
(213.95863 -4.8907377e-17 -8.8113376)
(213.29348 0 -8.3873548)
(212.65678 2.1494151e-16 -7.9672531)
(212.04818 -1.6099133e-16 -7.5528049)
(211.46716 0 -7.1456385)
(210.91302 0 -6.7472289)
(210.38496 1.3244718e-16 -6.3588855)
(209.88204 -6.1905193e-17 -5.9817511)
(209.4033 0 -5.6167972)
(208.94769 -1.6262921e-16 -5.2648256)
(208.51412 1.0122949e-16 -4.9264676)
(208.10146 1.4207478e-16 -4.6021806)
(207.70854 -1.7672398e-16 -4.2922462)
(207.33409 1.6516717e-16 -3.996775)
(206.97668 -1.5406102e-16 -3.715691)
(206.63481 6.7670528e-20 -3.4487499)
(206.30683 0 -3.1955729)
(205.99095 6.2600558e-17 -2.955628)
(205.68524 -2.91863e-16 -2.728297)
(205.3876 1.6321886e-16 -2.512934)
(205.09576 0 -2.3089393)
(204.80733 -1.4187742e-16 -2.1158341)
(204.51989 8.8127948e-17 -1.9333079)
(204.23129 1.232658e-16 -1.7611198)
(203.94003 2.6953391e-20 -1.5987785)
(203.6448 -7.1331299e-17 -1.4454924)
(203.34258 9.9739538e-17 -1.3006853)
(203.02766 -1.5493064e-16 -1.1624589)
(202.69428 8.6654552e-17 -1.0251786)
(202.33384 2.6921987e-17 -0.89354088)
(201.93214 5.0238754e-17 -0.78613577)
(201.51917 0 -0.63368703)
(201.1387 -4.3766071e-17 -0.42238494)
(200.55761 2.0367809e-17 -0.80044835)
(220.44413 0 -27.000604)
(259.25413 9.8398951e-18 -8.9002913)
(241.96698 -3.0683639e-16 -26.768722)
(251.5492 2.505453e-16 -10.762576)
(245.13996 2.5734922e-16 -24.649213)
(248.24301 -5.0194176e-16 -13.504346)
(245.56534 2.308799e-16 -22.091024)
(246.22216 2.3375021e-16 -16.138986)
(245.00346 -2.2152931e-16 -20.05794)
(244.6882 3.943211e-17 -17.87973)
(243.92819 0 -19.025436)
(243.31499 0 -18.585902)
(242.61698 -2.2426591e-17 -18.777736)
(241.9116 -1.7026643e-16 -18.744758)
(241.17608 1.4090978e-16 -18.76512)
(240.41623 1.9114921e-17 -18.760514)
(239.6309 -3.6234029e-17 -18.748008)
(238.82071 3.091411e-16 -18.722557)
(237.98614 -2.2717748e-16 -18.683637)
(237.12795 2.4657192e-16 -18.629799)
(236.2471 -2.0376051e-16 -18.559784)
(235.34479 2.7625899e-17 -18.472297)
(234.42249 1.5694769e-16 -18.366086)
(233.48189 -1.9740185e-16 -18.23996)
(232.52495 0 -18.092807)
(231.55389 0 -17.923625)
(230.57116 0 -17.731555)
(229.57943 -1.9769516e-16 -17.515905)
(228.58156 1.8623003e-16 -17.276175)
(227.5806 -3.5286168e-17 -17.012083)
(226.57969 0 -16.723594)
(225.58209 -2.8285478e-16 -16.410931)
(224.59105 2.3640746e-16 -16.074585)
(223.60984 -5.5913981e-17 -15.715327)
(222.64161 1.5812083e-16 -15.334205)
(221.68943 -4.9139182e-17 -14.93253)
(220.75614 -1.8637436e-16 -14.511868)
(219.84439 2.1985267e-16 -14.074011)
(218.95654 -1.6505135e-16 -13.62095)
(218.09466 7.7850636e-17 -13.154839)
(217.26049 -7.3048335e-17 -12.677963)
(216.45545 1.3731385e-16 -12.192687)
(215.68059 -6.4340259e-17 -11.701424)
(214.93663 -2.4214521e-16 -11.206591)
(214.22395 5.1058403e-16 -10.710564)
(213.54264 -2.1264656e-16 -10.215653)
(212.8925 -1.4984122e-16 -9.7240604)
(212.27305 9.3161585e-17 -9.2378568)
(211.68363 8.7628141e-17 -8.7589586)
(211.12335 -1.6392098e-16 -8.2891108)
(210.59121 1.5315184e-16 -7.8298743)
(210.08607 0 -7.3826217)
(209.60671 1.3403509e-16 -6.9485334)
(209.15186 -1.8773426e-16 -6.5286014)
(208.72023 5.8500389e-17 -6.1236325)
(208.3105 5.4516698e-17 -5.7342531)
(207.92138 0 -5.3609152)
(207.55154 0 -5.003897)
(207.19965 0 -4.6633055)
(206.86434 0 -4.3390868)
(206.54412 0 -4.0310129)
(206.23744 -7.1596809e-17 -3.7387064)
(205.94268 0 -3.461673)
(205.65808 -5.5176837e-20 -3.1992915)
(205.38181 2.3113262e-16 -2.9508682)
(205.11191 -2.1499725e-16 -2.7156881)
(204.84629 -1.0006645e-16 -2.4930758)
(204.58272 -1.8604013e-16 -2.282464)
(204.31879 2.5931726e-16 -2.0834291)
(204.05227 4.9395962e-20 -1.8955685)
(203.78137 7.467202e-17 -1.7182325)
(203.50443 0 -1.5506289)
(203.2184 0 -1.3920753)
(202.9184 0 -1.2399202)
(202.59892 -1.1140361e-16 -1.0891417)
(202.24886 0 -0.94791799)
(201.85645 -9.6229047e-17 -0.82879739)
(201.46139 1.3417841e-16 -0.65380361)
(201.08739 8.3194735e-17 -0.45229845)
(200.50001 -1.9254277e-17 -0.8423212)
(220.66929 0 -30.67233)
(259.81435 0 -11.642881)
(242.01055 3.2282098e-16 -30.394135)
(251.8789 1.9365542e-17 -13.680765)
(245.18604 -2.7014588e-16 -28.135152)
(248.35697 0 -16.601853)
(245.55288 1.6186188e-17 -25.357916)
(246.24647 -3.0683094e-17 -19.37577)
(244.86624 0 -23.171825)
(244.47938 1.9341006e-16 -21.12552)
(243.66826 -4.1873169e-16 -22.130665)
(242.98595 1.9827721e-16 -21.75959)
(242.22472 2.3533851e-17 -21.891996)
(241.45069 0 -21.853837)
(240.64575 2.1116703e-17 -21.845298)
(239.81457 -3.4062597e-16 -21.814229)
(238.95669 7.5097373e-17 -21.77031)
(238.07299 2.5102803e-16 -21.709898)
(237.16436 2.3839207e-16 -21.631968)
(236.232 -2.5713978e-16 -21.534952)
(235.27739 0 -21.417422)
(234.30227 -2.8851324e-16 -21.277976)
(233.30867 2.4496689e-16 -21.115279)
(232.29893 -2.064709e-16 -20.92812)
(231.27566 1.9460368e-16 -20.715422)
(230.24174 -1.8441894e-16 -20.476276)
(229.20027 3.4789645e-16 -20.209996)
(228.1546 -1.6417072e-16 -19.91612)
(227.1082 1.5526015e-16 -19.594466)
(226.06469 -2.9271031e-16 -19.245133)
(225.02773 1.3776648e-16 -18.868536)
(224.001 1.3010573e-16 -18.46541)
(222.9881 -2.4546941e-16 -18.036806)
(221.9925 5.6993896e-17 -17.584094)
(221.01749 -5.705072e-19 -17.108948)
(220.06611 2.5536918e-16 -16.613307)
(219.14108 0 -16.099364)
(218.2448 1.9292512e-19 -15.569515)
(217.37929 0 -15.026314)
(216.54617 -7.970272e-17 -14.472436)
(215.74666 -1.4978173e-16 -13.910621)
(214.98156 7.0323119e-17 -13.343624)
(214.25128 0 -12.774175)
(213.55589 -6.1963811e-17 -12.20493)
(212.89507 2.9001366e-16 -11.638431)
(212.26825 -3.2558657e-16 -11.077078)
(211.67454 -3.0505486e-16 -10.523099)
(211.11287 2.848197e-16 -9.9785296)
(210.58197 -1.7773701e-16 -9.445195)
(210.08045 0 -8.9247073)
(209.60681 0 -8.4184597)
(209.1595 7.2530524e-17 -7.9276294)
(208.73692 6.7684923e-17 -7.4531846)
(208.3375 1.2613525e-16 -6.9958924)
(207.95969 -5.8816477e-17 -6.5563293)
(207.60195 -1.0955455e-16 -6.134892)
(207.26283 -2.042805e-16 -5.7318062)
(206.94086 -9.529123e-17 -5.3471324)
(206.63463 1.7691787e-16 -4.9807719)
(206.34269 0 -4.6324813)
(206.06354 -7.6618377e-17 -4.3018608)
(205.79564 -1.4240413e-16 -3.9883843)
(205.53739 1.3230727e-16 -3.6914321)
(205.28715 6.136601e-17 -3.4102855)
(205.04317 5.7068209e-17 -3.1441729)
(204.80365 0 -2.8923115)
(204.56671 1.9669388e-16 -2.6539594)
(204.33027 1.8249658e-16 -2.428475)
(204.09206 -2.5391442e-16 -2.2153311)
(203.84977 7.853021e-17 -2.0139761)
(203.60137 -7.2769291e-17 -1.8236598)
(203.34482 -3.0956829e-20 -1.6436331)
(203.07711 2.5008415e-16 -1.4729634)
(202.79435 -2.3175558e-16 -1.3082474)
(202.4909 5.3664186e-17 -1.1456996)
(202.15314 1.4923516e-16 -0.99628174)
(201.77325 -4.6096774e-17 -0.86460992)
(201.39837 -4.2698206e-17 -0.66930818)
(201.02941 0 -0.47899726)
(200.44212 3.6523819e-17 -0.87917375)
(220.69409 3.925933e-16 -34.530795)
(260.18017 5.405449e-19 -14.500716)
(241.83968 -3.598198e-16 -34.167692)
(252.02121 0 -16.762955)
(244.97178 0 -31.697155)
(248.13617 -2.6846011e-16 -19.872891)
(245.23466 2.7158686e-16 -28.680026)
(245.76056 6.4412806e-17 -22.773282)
(244.45699 -2.4448366e-16 -26.384189)
(243.99275 2.3125136e-16 -24.515575)
(243.12016 -2.4715247e-16 -25.359074)
(242.35604 2.0773513e-16 -25.052134)
(241.51955 -4.9281585e-17 -25.124925)
(240.66524 -4.6732716e-17 -25.072095)
(239.77939 -1.7708637e-16 -25.029782)
(238.86585 1.672633e-16 -24.96461)
(237.92482 -3.5719116e-16 -24.881408)
(236.9576 6.0041639e-16 -24.777224)
(235.96562 -2.8368903e-16 -24.650642)
(234.9507 -2.6916785e-16 -24.49996)
(233.91494 2.5383018e-16 -24.323616)
(232.86079 -3.0226601e-17 -24.120143)
(231.79106 -2.2753225e-16 -23.888205)
(230.70883 2.143385e-16 -23.626666)
(229.61752 2.5389958e-16 -23.3346)
(228.52078 -1.4316806e-16 -23.011344)
(227.42249 0 -22.656536)
(226.3267 2.5602445e-16 -22.270135)
(225.23755 -3.2157157e-16 -21.852461)
(224.15919 1.13149e-16 -21.404197)
(223.09575 -2.860557e-16 -20.926407)
(222.05122 2.0153915e-16 -20.420526)
(221.0294 -6.3501184e-17 -19.888347)
(220.0338 2.386309e-16 -19.331991)
(219.0676 -2.2383976e-16 -18.753888)
(218.1336 -2.1095578e-16 -18.156711)
(217.23414 1.9772247e-16 -17.543343)
(216.37112 -4.6373068e-17 -16.916817)
(215.54593 0 -16.280256)
(214.7595 8.2054958e-17 -15.636815)
(214.01228 -7.6585724e-17 -14.98963)
(213.30427 0 -14.341757)
(212.63506 1.3484524e-16 -13.69613)
(212.0039 -6.3077686e-17 -13.055518)
(211.40969 -1.7685756e-16 -12.422495)
(210.85109 5.5164463e-16 -11.799411)
(210.32653 -2.0653491e-16 -11.18838)
(209.8343 9.632485e-17 -10.591264)
(209.37257 -2.7008525e-16 -10.009674)
(208.93943 -1.8089705e-19 -9.4449741)
(208.53297 1.5658688e-16 -8.8982851)
(208.15126 -1.4606944e-16 -8.3704991)
(207.79243 -6.797457e-17 -7.8622931)
(207.45467 -6.3314352e-17 -7.3741446)
(207.13623 -1.182121e-16 -6.9063468)
(206.83544 2.1952593e-16 -6.4590233)
(206.55074 0 -6.0321405)
(206.28062 9.4854632e-17 -5.6255159)
(206.02361 -3.5293017e-16 -5.2388274)
(205.77826 2.4562301e-16 -4.8716292)
(205.54312 7.6007586e-17 -4.5233415)
(205.31669 1.4118899e-16 -4.1932854)
(205.09747 1.3116873e-16 -3.8807148)
(204.8839 -1.2137718e-16 -3.5848115)
(204.67438 -1.1246728e-16 -3.3047267)
(204.46727 -3.1280227e-16 -3.0396135)
(204.26088 -3.4073812e-20 -2.7886718)
(204.05332 -8.9377206e-17 -2.5511963)
(203.84249 0 -2.3265615)
(203.62611 -2.297096e-16 -2.1140894)
(203.40192 7.0834508e-17 -1.9129991)
(203.16745 0 -1.7225991)
(202.91988 1.2115416e-16 -1.5415609)
(202.65635 0 -1.3658962)
(202.3707 1.0348134e-16 -1.1936234)
(202.04718 -1.4341077e-16 -1.0373049)
(201.68307 1.3251906e-16 -0.8924065)
(201.32995 -8.1602508e-17 -0.67949246)
(200.96552 7.5383227e-17 -0.50336695)
(200.38367 0 -0.9095907)
(220.50819 -4.1243184e-16 -38.582391)
(260.34023 3.6437628e-16 -17.492232)
(241.41907 -3.3380923e-16 -38.121678)
(251.91332 3.3195133e-16 -20.025278)
(244.47479 3.1787236e-16 -35.32062)
(247.68705 -1.8071277e-17 -23.328342)
(244.67336 -2.8462294e-16 -32.080698)
(245.1454 -2.7018936e-16 -26.36071)
(243.75704 2.8758235e-16 -29.714906)
(243.18482 0 -28.051785)
(242.24012 2.8695085e-17 -28.718608)
(241.38147 0 -28.463677)
(240.45694 -1.2906128e-16 -28.476613)
(239.50999 2.436879e-16 -28.397502)
(238.53102 0 -28.313659)
(237.5234 0 -28.204118)
(236.48815 0 -28.070682)
(235.42719 3.9244652e-17 -27.910679)
(234.34269 0 -27.722408)
(233.23726 -2.454458e-16 -27.504072)
(232.11388 3.3069944e-16 -27.254051)
(230.9759 1.2512922e-16 -26.970922)
(229.82706 1.7742484e-16 -26.653478)
(228.67141 -2.7868573e-16 -26.300815)
(227.51329 -5.2516517e-17 -25.912351)
(226.35725 -2.4852561e-16 -25.487877)
(225.20799 1.8704748e-16 -25.027591)
(224.07027 -2.2091643e-16 -24.532123)
(222.94884 8.2657045e-17 -24.00254)
(221.8483 7.8144423e-17 -23.440355)
(220.77307 0 -22.84751)
(219.72725 2.7798559e-16 -22.226343)
(218.71458 -2.6108387e-16 -21.579563)
(217.73831 0 -20.910186)
(216.80123 -2.3079944e-16 -20.221488)
(215.90552 2.1617713e-16 -19.516934)
(215.05284 -1.0187051e-16 -18.800106)
(214.24422 1.9072106e-16 -18.074641)
(213.48015 -2.6797539e-16 -17.344153)
(212.76058 1.267716e-19 -16.612172)
(212.08497 -1.5656438e-16 -15.882087)
(211.45232 -7.3269035e-17 -15.157095)
(210.86128 -1.3750897e-16 -14.440161)
(210.31016 2.5634267e-16 -13.73399)
(209.79704 -1.1961959e-16 -13.041004)
(209.3198 0 -12.363334)
(208.87622 -3.7996999e-19 -11.702815)
(208.46398 9.7301743e-17 -11.060996)
(208.08076 0 -10.439142)
(207.72424 8.4624901e-17 -9.8382562)
(207.39217 7.9120878e-17 -9.259094)
(207.08237 -7.3463509e-17 -8.7021854)
(206.79276 2.7349377e-16 -8.1678546)
(206.52139 -2.5423962e-16 -7.6562415)
(206.26643 -1.1823619e-16 -7.1673201)
(206.02615 -1.0983476e-16 -6.7009164)
(205.79897 1.0198019e-16 -6.2567209)
(205.58339 1.8915895e-16 -5.8342994)
(205.37797 -3.5086437e-16 -5.4331029)
(205.18133 4.0660146e-16 -5.0524854)
(204.99209 -1.5064893e-16 -4.691691)
(204.80887 1.396326e-16 -4.349895)
(204.63027 -1.2924484e-16 -4.0262334)
(204.45487 2.3934229e-16 -3.7197945)
(204.28124 -3.3222848e-16 -3.4296586)
(204.10789 2.0479217e-16 -3.1549214)
(203.93331 -8.0266514e-20 -2.8947345)
(203.75584 8.7516359e-17 -2.6483339)
(203.57356 0 -2.4149974)
(203.38427 0 -2.1939504)
(203.1855 0 -1.9844475)
(202.97442 -1.2712649e-16 -1.78582)
(202.74849 2.1144524e-20 -1.5962302)
(202.50575 0 -1.4114592)
(202.23919 0 -1.2317466)
(201.93181 9.1916242e-17 -1.0696469)
(201.58689 -1.6939332e-16 -0.91104372)
(201.25677 0 -0.68426771)
(200.89574 0 -0.5262691)
(200.32477 -1.3186273e-16 -0.93192689)
(220.07902 2.7834053e-17 -42.836776)
(260.25856 -7.8890837e-16 -20.641062)
(240.72214 3.492308e-16 -42.21523)
(251.29052 -2.1818726e-17 -23.466439)
(243.66507 3.7466012e-16 -39.062901)
(246.9078 -3.5332932e-16 -27.00692)
(243.80759 0 -35.599537)
(244.14695 -3.1826209e-16 -30.141094)
(242.70709 2.339693e-16 -33.161881)
(242.01069 2.2222143e-16 -31.728114)
(240.98029 -2.3987291e-16 -32.21299)
(240.01299 0 -31.990789)
(238.98599 1.9003313e-19 -31.941685)
(237.93283 0 -31.822284)
(236.84755 3.8636777e-16 -31.68541)
(235.73356 -7.2988281e-16 -31.517747)
(234.5928 3.4458153e-16 -31.319282)
(233.4281 -4.0704327e-17 -31.087445)
(232.24264 -3.8676983e-17 -30.82036)
(231.04008 3.6758043e-17 -30.516227)
(229.82453 -6.8645424e-17 -30.173521)
(228.60051 -3.2517824e-16 -29.79102)
(227.37291 3.0604991e-16 -29.367879)
(226.1469 5.7693796e-17 -28.903682)
(224.92784 -2.7340293e-16 -28.398473)
(223.72122 -6.9470926e-19 -27.852812)
(222.53254 2.9037583e-16 -27.267776)
(221.36718 -1.8224934e-16 -26.64497)
(220.23029 -6.1061665e-19 -25.986515)
(219.12672 0 -25.295021)
(218.06085 0 -24.573541)
(217.03655 -7.1706408e-17 -23.82551)
(216.05707 1.3424387e-16 -23.054689)
(215.12502 0 -22.265071)
(214.24229 -1.18645e-16 -21.460804)
(213.4101 2.2199868e-16 -20.646107)
(212.62894 -1.0400351e-16 -19.825175)
(211.89868 -1.9489926e-16 -19.002107)
(211.21858 9.0575029e-17 -18.180833)
(210.58737 1.6997592e-16 -17.365049)