/*--------------------------------*- C++ -*----------------------------------*\
  =========                 |
  \\      /  F ield         | OpenFOAM: The Open Source CFD Toolbox
   \\    /   O peration     | Website:  https://openfoam.org
    \\  /    A nd           | Version:  12
     \\/     M anipulation  |
\*---------------------------------------------------------------------------*/
FoamFile
{
    format      ascii;
    class       volScalarField;
    location    "900";
    object      alphat;
}
// * * * * * * * * * * * * * * * * * * * * * * * * * * * * * * * * * * * * * //

dimensions      [1 -1 -1 0 0 0 0];

internalField   nonuniform List<scalar> 
16200
(
0.0004820492848
0.001645387415
0.002738013128
0.003590491152
0.003854579061
0.003398726628
0.002505759574
0.001375106038
0.0007081195626
0.000189948955
5.92671862e-06
2.650507217e-06
2.402538468e-06
2.365159064e-06
1.875060219e-06
1.616016146e-06
1.41102884e-06
1.266545047e-06
1.172899094e-06
1.11267142e-06
1.078185322e-06
1.066587721e-06
1.075036293e-06
1.101800566e-06
1.146497126e-06
1.210352873e-06
1.296629934e-06
1.411283482e-06
1.564317443e-06
1.772556182e-06
2.064823583e-06
2.491590614e-06
3.143376532e-06
4.188772024e-06
5.959981822e-06
9.146939349e-06
1.523849247e-05
2.752000681e-05
5.334134326e-05
0.000109335163
0.0002335621742
0.0005139708287
0.001155439005
0.00116537829
0.001165888894
0.0011655096
0.001164505546
0.001164205699
0.001164216063
0.001164324611
0.001164448715
0.001164561006
0.001164656681
0.001164739753
0.001164817371
0.001164899024
0.001164994799
0.001165122856
0.001165294293
0.001165567705
0.0004708108862
0.001593347456
0.002622077421
0.003372710958
0.003473464709
0.002903667326
0.002030950237
0.001006728873
0.0005561139261
4.182625772e-05
2.694359111e-06
2.210695275e-06
2.014212184e-06
1.977509426e-06
1.668674027e-06
1.434841773e-06
1.249483705e-06
1.118962436e-06
1.036038293e-06
9.83963448e-07
9.55395028e-07
9.474147958e-07
9.572169515e-07
9.830140093e-07
1.024341396e-06
1.082245772e-06
1.159684398e-06
1.262155424e-06
1.399001136e-06
1.585940596e-06
1.849601441e-06
2.235929552e-06
2.826533087e-06
3.772675822e-06
5.371738343e-06
8.240689424e-06
1.371078631e-05
2.472010545e-05
4.784088505e-05
9.79424647e-05
0.0002090456428
0.0004597736781
0.001033342305
0.001165214432
0.001165766904
0.001165510073
0.00116450873
0.001164203773
0.00116421427
0.001164325128
0.001164452074
0.001164566975
0.001164664746
0.001164749262
0.001164827812
0.00116490954
0.001165005172
0.001165132364
0.001165303699
0.001165580817
0.0004612031715
0.00154457414
0.002511102691
0.003158405662
0.003102257859
0.002447118641
0.001558496405
0.000733535817
0.0003696453286
1.40670935e-05
2.086230316e-06
1.84956438e-06
1.69066267e-06
1.656077106e-06
1.475109932e-06
1.26568909e-06
1.0997405e-06
9.829033826e-07
9.10109465e-07
8.654170827e-07
8.418408116e-07
8.363792271e-07
8.462618623e-07
8.696892791e-07
9.061938e-07
9.567734811e-07
1.024286668e-06
1.114109365e-06
1.235401994e-06
1.40332431e-06
1.642820694e-06
1.995851037e-06
2.536042614e-06
3.399455129e-06
4.853417535e-06
7.452079711e-06
1.238981751e-05
2.229846039e-05
4.30516849e-05
8.79023029e-05
0.000187089773
0.0004103322442
0.0009197667126
0.001165142547
0.001165692248
0.001165517992
0.00116452591
0.001164214426
0.001164222026
0.001164332296
0.001164459797
0.001164575663
0.001164674401
0.001164759664
0.001164838682
0.001164920356
0.001165015719
0.001165142161
0.001165313422
0.001165594305
0.0004541530162
0.001499383386
0.002402159199
0.00291386352
0.002729420356
0.002036671482
0.001107460685
0.0005417126097
0.0001808973632
5.00810356e-06
1.738092179e-06
1.563571453e-06
1.43398017e-06
1.401375941e-06
1.305535768e-06
1.11695246e-06
9.677692343e-07
8.628666158e-07
7.987634575e-07
7.602637285e-07
7.406960614e-07
7.369939367e-07
7.464654514e-07
7.674235921e-07
7.995462668e-07
8.439805268e-07
9.037590959e-07
9.844956161e-07
1.095543488e-06
1.25182922e-06
1.477029521e-06
1.810053649e-06
2.318723588e-06
3.128610227e-06
4.487039046e-06
6.907079874e-06
1.149438909e-05
2.06835583e-05
3.99006455e-05
8.136619193e-05
0.0001729111628
0.0003785901997
0.0008471527891
0.001165176963
0.001165680408
0.00116553215
0.001164559617
0.001164241231
0.001164242728
0.001164348916
0.001164474029
0.001164588634
0.001164686753
0.001164771704
0.001164850486
0.001164931765
0.00116502661
0.001165152297
0.001165323344
0.001165607443
0.000448231458
0.001457241326
0.002296889429
0.002674848055
0.002370144973
0.001680741141
0.000796090248
0.0004114650012
4.298761323e-05
2.006105365e-06
1.46472196e-06
1.325291629e-06
1.21969396e-06
1.18980051e-06
1.149683459e-06
9.807867511e-07
8.475300872e-07
7.540210128e-07
6.980029424e-07
6.650938792e-07
6.490201384e-07
6.467525551e-07
6.557807135e-07
6.746528079e-07
7.033085571e-07
7.431956253e-07
7.977123142e-07
8.728685311e-07
9.782403981e-07
1.128459739e-06
1.346008153e-06
1.667238211e-06
2.155360528e-06
2.927865768e-06
4.21695881e-06
6.504779382e-06
1.082964997e-05
1.947452986e-05
3.75165378e-05
7.636062108e-05
0.0001619112991
0.0003536417654
0.0007893612051
0.001165289995
0.001165717256
0.001165551213
0.001164605761
0.001164280097
0.001164273057
0.001164372519
0.001164493023
0.00116460469
0.001164701006
0.001164784859
0.001164862909
0.001164943558
0.001165037765
0.001165162739
0.001165333567
0.001165620663
0.0004429694908
0.001417747535
0.002193461412
0.002436064438
0.002023037293
0.001313429644
0.0005892225719
0.0002835366135
1.665223206e-05
1.515108985e-06
1.243318e-06
1.129620743e-06
1.043059295e-06
1.015486265e-06
1.009042977e-06
8.578738129e-07
7.39123397e-07
6.561789577e-07
6.075933999e-07
5.798356508e-07
5.670615135e-07
5.663314117e-07
5.753651323e-07
5.930202585e-07
6.195944497e-07
6.569632222e-07
7.089945585e-07
7.820962935e-07
8.85977611e-07
1.034956477e-06
1.250594101e-06
1.567433619e-06
2.045485637e-06
2.79676095e-06
4.043540991e-06
6.248019468e-06
1.040494004e-05
1.869779088e-05
3.5970952e-05
7.307627113e-05
0.0001545915118
0.0003367904238
0.0007497468929
0.001165467079
0.001165797198
0.001165590028
0.001164661183
0.001164328979
0.001164311775
0.001164402398
0.001164516397
0.00116462364
0.001164717079
0.001164799104
0.00116487596
0.001164955745
0.001165049204
0.00116517349
0.001165344085
0.001165633882
0.0004376575988
0.001379769072
0.002089870362
0.002186877134
0.001695199733
0.000961957554
0.0004425717511
0.0001680903603
5.350373967e-06
1.255077962e-06
1.058229695e-06
9.644094871e-07
8.930397085e-07
8.678698148e-07
8.799453972e-07
7.45601232e-07
6.407727584e-07
5.682468719e-07
5.270051532e-07
5.044083857e-07
4.950655683e-07
4.961872689e-07
5.058000568e-07
5.231678132e-07
5.490405049e-07
5.855478683e-07
6.374632842e-07
7.112456247e-07
8.16620627e-07
9.676229402e-07
1.185779638e-06
1.503550018e-06
1.979218747e-06
2.721176603e-06
3.945473192e-06
6.102190914e-06
1.015938144e-05
1.823778305e-05
3.502996764e-05
7.101575164e-05
0.0001498564284
0.0003255649577
0.0007226414598
0.001165688975
0.001165908534
0.001165645276
0.001164723001
0.001164385279
0.001164356922
0.001164437197
0.001164543261
0.001164644927
0.001164734637
0.001164814248
0.001164889541
0.001164968272
0.001165060911
0.001165184547
0.001165354919
0.001165647168
0.0004315707812
0.001341317022
0.001982310736
0.001934042387
0.001401396601
0.0006973055201
0.0003426332629
5.802775471e-05
2.339331038e-06
1.057636556e-06
9.009438404e-07
8.232850875e-07
7.646923344e-07
7.423296785e-07
7.630047713e-07
6.447469172e-07
5.532702361e-07
4.908919125e-07
4.567591446e-07
4.391673449e-07
4.332276358e-07
4.363876257e-07
4.470625485e-07
4.649846853e-07
4.911667394e-07
5.288806801e-07
5.825494847e-07
6.590497012e-07
7.681407018e-07
9.237553452e-07
1.146552189e-06
1.470101404e-06
1.949876102e-06
2.692717671e-06
3.911601582e-06
6.051289086e-06
1.006790013e-05
1.805168384e-05
3.461478716e-05
7.002528119e-05
0.0001473924971
0.0003193055782
0.0007066255603
0.001165939729
0.001166041101
0.001165710757
0.001164788597
0.001164446712
0.001164406804
0.001164475758
0.001164572868
0.001164668091
0.001164753413
0.001164830145
0.001164903581
0.001164981109
0.001165072883
0.001165195909
0.001165366077
0.001165660529
0.0004248525209
0.001300337282
0.001847264427
0.001679151373
0.001122418929
0.0005181125856
0.0002602320057
3.189563976e-05
1.438811169e-06
8.956992879e-07
7.707066919e-07
7.055591018e-07
6.572167502e-07
6.374305783e-07
6.599937819e-07
5.562945338e-07
4.770094407e-07
4.240730169e-07
3.965431992e-07
3.836414358e-07
3.809899577e-07
3.863220173e-07
3.982321046e-07
4.174483657e-07
4.453888486e-07
4.852397771e-07
5.419429012e-07
6.225343067e-07
7.36853477e-07
8.988989783e-07
1.129372941e-06
1.4615696e-06
1.95069795e-06
2.702685574e-06
3.929957657e-06
6.077438706e-06
1.010127645e-05
1.808732573e-05
3.462489674e-05
6.98993455e-05
0.0001467610174
0.0003170471574
0.0006995314058
0.001166205332
0.001166185709
0.001165780656
0.001164855937
0.001164511268
0.001164459835
0.001164516954
0.00116460447
0.001164692661
0.001164773125
0.00116484664
0.001164918003
0.00116499422
0.001165085111
0.001165207575
0.001165377567
0.001165673986
0.0004173400098
0.001256758567
0.0016966108
0.001428742504
0.0008309905678
0.0003912193092
0.0001848584671
1.760169738e-05
1.120305509e-06
7.624624841e-07
6.616640244e-07
6.066558349e-07
5.665056477e-07
5.491402523e-07
5.695335276e-07
4.790403882e-07
4.109408851e-07
3.668451425e-07
3.455009279e-07
3.370302391e-07
3.375536016e-07
3.448614411e-07
3.588315435e-07
3.798548785e-07
4.099890909e-07
4.527842787e-07
5.134129497e-07
5.990632983e-07
7.197297627e-07
8.896328064e-07
1.129760469e-06
1.473517345e-06
1.976400683e-06
2.744484661e-06
3.991783415e-06
6.168072224e-06
1.023978615e-05
1.831078208e-05
3.499694016e-05
7.051155906e-05
0.0001476971787
0.0003182150632
0.0007000812899
0.00116647466
0.001166334919
0.001165850113
0.001164923412
0.001164577279
0.001164514664
0.00116455981
0.001164637406
0.001164718216
0.001164793522
0.001164863592
0.001164932738
0.001165007576
0.001165097589
0.001165219548
0.001165389393
0.001165687552
0.0004088007148
0.001210128866
0.001535608274
0.001190685025
0.0006036123424
0.0003008185637
0.0001223074704
1.199500775e-05
9.203585628e-07
6.512944013e-07
5.69748818e-07
5.229869423e-07
4.894900959e-07
4.744271951e-07
4.904948415e-07
4.120672554e-07
3.54300267e-07
3.184850152e-07
3.028874904e-07
2.985125946e-07
3.016847689e-07
3.114985357e-07
3.274286693e-07
3.505595818e-07
3.833708845e-07
4.296920387e-07
4.948829675e-07
5.863025757e-07
7.141794392e-07
8.930871847e-07
1.144492061e-06
1.502226693e-06
2.022523152e-06
2.812503421e-06
4.089596227e-06
6.3124494e-06
1.046660307e-05
1.869315101e-05
3.567692322e-05
7.175397233e-05
0.0001499739946
0.0003223145542
0.0007071695584
0.001166739152
0.001166482878
0.001165915179
0.001164989848
0.001164643415
0.00116457017
0.001164603489
0.001164671102
0.001164744386
0.001164814378
0.001164880875
0.001164947722
0.001165021151
0.001165110311
0.001165231827
0.001165401557
0.001165701238
0.0003988340533
0.001159272988
0.001369961525
0.000953663573
0.0004575821421
0.0002373758786
5.89097586e-05
6.664433966e-06
7.468795294e-07
5.58448372e-07
4.919255818e-07
4.521377956e-07
4.241658868e-07
4.113773043e-07
4.222325277e-07
3.547293942e-07
3.063909756e-07
2.781760051e-07
2.677517306e-07
2.667111822e-07
2.728209592e-07
2.847684368e-07
3.02700932e-07
3.282018866e-07
3.640759152e-07
4.143621865e-07
4.845882879e-07
5.823176787e-07
7.18088021e-07
9.069336469e-07
1.17095314e-06
1.544672331e-06
2.085436869e-06
2.902204695e-06
4.217427513e-06
6.502177161e-06
1.076889009e-05
1.921288805e-05
3.662536871e-05
7.354879667e-05
0.0001534295101
0.0003289947701
0.0007200145603
0.001166992606
0.001166625243
0.001165972821
0.0011650544
0.001164708654
0.001164625462
0.001164647314
0.001164705081
0.001164770855
0.001164835497
0.001164898378
0.0011649629
0.00116503492
0.001165123274
0.001165244409
0.00116541406
0.001165715054
0.0003870959404
0.001101727082
0.001198284076
0.0007239910839
0.00035959367
0.0001859133283
3.039133945e-05
3.4512799e-06
6.088913153e-07
4.809443706e-07
4.264319455e-07
3.924781731e-07
3.690681069e-07
3.58345361e-07
3.637183948e-07
3.059364507e-07
2.661022736e-07
2.447631513e-07
2.388997463e-07
2.409904071e-07
2.495453495e-07
2.634718294e-07
2.835109438e-07
3.116350202e-07
3.508872911e-07
4.054712575e-07
4.810842585e-07
5.855347924e-07
7.297351966e-07
9.292671857e-07
1.206986609e-06
1.598336326e-06
2.162106614e-06
3.009792953e-06
4.370316545e-06
6.730367359e-06
1.113628023e-05
1.985287053e-05
3.781131885e-05
7.583563263e-05
0.0001579388055
0.0003379861225
0.0007380166987
0.001167230774
0.001166758952
0.001166020827
0.001165116496
0.001164772244
0.001164679854
0.001164690744
0.001164738956
0.001164797363
0.001164856718
0.001164916008
0.001164978225
0.001165048867
0.001165136473
0.001165257292
0.001165426903
0.001165729006
0.0003739934272
0.001036361297
0.001024018684
0.0005471243554
0.0002797578376
0.0001389611047
1.843642382e-05
1.894737383e-06
5.028024386e-07
4.1461418e-07
3.712513402e-07
3.41989361e-07
3.221577002e-07
3.131808491e-07
3.132548531e-07
2.642370459e-07
2.321895329e-07
2.170961943e-07
2.148659256e-07
2.201542643e-07
2.308125431e-07
2.466788035e-07
2.689715079e-07
2.999466049e-07
3.428199064e-07
4.019395709e-07
4.831903406e-07
5.94665267e-07
7.477047968e-07
9.585079027e-07
1.250875616e-06
1.661108463e-06
2.249990578e-06
3.132108825e-06
4.544186016e-06
6.991467377e-06
1.156061349e-05
2.059994609e-05
3.921150249e-05
7.856984711e-05
0.0001634106998
0.0003490934001
0.0007607437744
0.001167450986
0.001166881995
0.001166057685
0.001165175768
0.00116483365
0.00116473284
0.00116473337
0.001164772423
0.001164823703
0.001164877908
0.001164933688
0.001164993657
0.001165062974
0.001165149906
0.001165270475
0.001165440082
0.001165743099
0.0003605433577
0.0009652687828
0.0008344368807
0.0004241818765
0.0002285870608
0.0001017292484
1.295866819e-05
1.096983834e-06
4.194165824e-07
3.572704515e-07
3.222969888e-07
2.980028059e-07
2.812442756e-07
2.739751211e-07
2.694614571e-07
2.2858466e-07
2.037754291e-07
1.943183505e-07
1.955884595e-07
2.033063417e-07
2.15865546e-07
2.337058566e-07
2.584022356e-07
2.924060243e-07
3.390653878e-07
4.028734893e-07
4.899263624e-07
6.086350238e-07
7.708094436e-07
9.933233089e-07
1.300907859e-06
1.731202684e-06
2.346944765e-06
3.266506813e-06
4.735664804e-06
7.280972634e-06
1.203542668e-05
2.144396059e-05
4.080837529e-05
8.171844675e-05
0.0001697787801
0.0003621758278
0.0007878859767
0.001167651785
0.001166993185
0.001166082452
0.001165232006
0.001164892522
0.001164784062
0.00116477489
0.001164805253
0.001164849714
0.001164898962
0.001164951356
0.001165009165
0.00116507723
0.00116516357
0.001165283954
0.001165453599
0.001165757335
0.0003473144473
0.0008865593711
0.0006814063842
0.0003519699304
0.0001948010708
5.754740792e-05
8.682822874e-06
6.920830649e-07
3.534935825e-07
3.07744361e-07
2.794404944e-07
2.59245647e-07
2.456982815e-07
2.400678028e-07
2.317898773e-07
1.984248612e-07
1.802611787e-07
1.753942802e-07
1.800322289e-07
1.897871751e-07
2.041504361e-07
2.240312841e-07
2.512509313e-07
2.883963723e-07
3.389331929e-07
4.075103258e-07
5.004566229e-07
6.265270277e-07
7.980334835e-07
1.032573543e-06
1.355893682e-06
1.807104984e-06
2.451166608e-06
3.410786796e-06
4.94199283e-06
7.59527677e-06
1.255569326e-05
2.237727149e-05
4.258915306e-05
8.525806331e-05
0.0001769970484
0.0003771374203
0.0008192341364
0.001167832611
0.00116709196
0.001166104231
0.001165285118
0.001164948647
0.001164833286
0.001164815094
0.00116483728
0.001164875273
0.0011649198
0.001164968964
0.001165024723
0.001165091625
0.001165177463
0.001165297727
0.001165467462
0.001165771715
0.0003368220954
0.0007991107155
0.0005595844609
0.0002959508107
0.0001639879875
3.215088383e-05
4.181749431e-06
4.736250033e-07
3.00829516e-07
2.657512754e-07
2.426807662e-07
2.257797764e-07
2.147433276e-07
2.108276189e-07
1.996098524e-07
1.731711715e-07
1.610556908e-07
1.604953527e-07
1.675739916e-07
1.791098317e-07
1.952442068e-07
2.172254956e-07
2.470391451e-07
2.873764807e-07
3.41821271e-07
4.151902493e-07
5.140606445e-07
6.475515909e-07
8.285044394e-07
1.07529245e-06
1.414729235e-06
1.887543548e-06
2.561157571e-06
3.563142097e-06
5.160942024e-06
7.931541101e-06
1.311759186e-05
2.339431059e-05
4.454493888e-05
8.917312849e-05
0.0001850359659
0.0003939181667
0.0008546596959
0.00116799355
0.001167177716
0.001166124291
0.001165335095
0.001165001922
0.001164880372
0.001164853844
0.001164868386
0.001164900294
0.00116494036
0.001164986473
0.001165040312
0.001165106152
0.001165191582
0.001165311792
0.00116548169
0.001165786239
0.0003323566167
0.0007058109406
0.00046774594
0.0002504096546
0.0001345241248
1.937987169e-05
2.02444688e-06
3.475731042e-07
2.574759923e-07
2.297297322e-07
2.107819601e-07
1.966526163e-07
1.87681939e-07
1.853067608e-07
1.722640702e-07
1.523200838e-07
1.453303229e-07
1.487000129e-07
1.577430886e-07
1.708917851e-07
1.887838496e-07
2.128964101e-07
2.453260408e-07
2.888561975e-07
3.47193192e-07
4.253310794e-07
5.301068963e-07
6.710211224e-07
8.614707278e-07
1.120631097e-06
1.476486289e-06
1.971463405e-06
2.675691272e-06
3.722115977e-06
5.390752211e-06
8.287592111e-06
1.371832912e-05
2.449125556e-05
4.667007401e-05
9.345452275e-05
0.0001938795274
0.0004124875187
0.0008940999245
0.001168135149
0.00116725018
0.001166142758
0.001165381993
0.001165052326
0.001164925254
0.001164891061
0.001164898498
0.001164924715
0.001164960599
0.001165003857
0.001165055917
0.001165120803
0.001165205926
0.001165326154
0.001165496286
0.001165800904
0.0003370049173
0.0006113669607
0.0003856693419
0.0002167493139
0.0001076008561
1.287548378e-05
1.000071188e-06
2.711995337e-07
2.20851916e-07
1.984786933e-07
1.82939314e-07
1.712808655e-07
1.64193673e-07
1.632500708e-07
1.494473691e-07
1.35555978e-07
1.333680445e-07
1.39500335e-07
1.501453563e-07
1.647955274e-07
1.844339746e-07
2.106800124e-07
2.457107621e-07
2.923993036e-07
3.545775317e-07
4.374247673e-07
5.480483218e-07
6.963456841e-07
8.962919042e-07
1.167906685e-06
1.540400384e-06
2.058007931e-06
2.793785688e-06
3.886560948e-06
5.63007106e-06
8.661829108e-06
1.435598846e-05
2.566576398e-05
4.896163684e-05
9.809857318e-05
0.0002035231543
0.0004328397911
0.0009375476161
0.001168258257
0.001167309368
0.00116615974
0.001165425908
0.001165099894
0.001164967922
0.00116492671
0.001164927574
0.001164948499
0.001164980487
0.001165021096
0.001165071526
0.001165135574
0.001165220493
0.001165340813
0.001165511235
0.001165815706
0.0003521001772
0.0005241650243
0.0003323679113
0.0001957387349
6.36362515e-05
9.162621818e-06
5.23741397e-07
2.206793737e-07
1.899551486e-07
1.717267613e-07
1.590466151e-07
1.495724726e-07
1.441750297e-07
1.445724398e-07
1.308735475e-07
1.224751264e-07
1.242463652e-07
1.324054435e-07
1.444108931e-07
1.60501429e-07
1.818744977e-07
2.102343581e-07
2.478252075e-07
2.976108632e-07
3.63552549e-07
4.510224399e-07
5.674088516e-07
7.230211417e-07
9.324351147e-07
1.216549326e-06
1.605856873e-06
2.14650134e-06
2.914680128e-06
4.055607303e-06
5.877908865e-06
9.053154312e-06
1.50294126e-05
2.691675832e-05
5.14190189e-05
0.0001031061646
0.0002139717595
0.0004549898591
0.0009850416709
0.001168363902
0.0011673555
0.001166175338
0.001165466966
0.001165144705
0.001165008404
0.001164960788
0.001164955597
0.001164971625
0.001165000006
0.001165038175
0.001165087131
0.001165150461
0.001165235282
0.001165355771
0.001165526496
0.001165830636
0.0003755884656
0.0004938886749
0.0002937667324
0.0001782333528
3.445136635e-05
3.830974342e-06
3.051801784e-07
1.850975188e-07
1.642878566e-07
1.492647822e-07
1.388899858e-07
1.312560883e-07
1.273583918e-07
1.288781993e-07
1.160790053e-07
1.123514857e-07
1.173240956e-07
1.269885591e-07
1.402245113e-07
1.577292718e-07
1.808183332e-07
2.112530217e-07
2.513419719e-07
3.041421141e-07
3.737500765e-07
4.657380879e-07
5.877861899e-07
7.506297056e-07
9.69466878e-07
1.266106991e-06
1.67237871e-06
2.236430032e-06
3.037808899e-06
4.228627217e-06
6.133589542e-06
9.46090317e-06
1.57380973e-05
2.824424988e-05
5.4043607e-05
0.000108482124
0.0002252384772
0.0004789704541
0.001036661508
0.001168453202
0.001167388925
0.001166189646
0.001165505308
0.001165186861
0.001165046757
0.001164993318
0.001164982567
0.001164994083
0.001165019145
0.001165055087
0.001165102724
0.001165165459
0.001165250289
0.001165371019
0.001165542048
0.001165845683
0.0004039944243
0.0004377450448
0.0002679738477
0.0001603651999
1.891811934e-05
1.479313219e-06
2.064214097e-07
1.582253129e-07
1.428335432e-07
1.303390105e-07
1.218015601e-07
1.157617213e-07
1.132444117e-07
1.145256735e-07
1.045366551e-07
1.049383199e-07
1.120651994e-07
1.229275904e-07
1.373376891e-07
1.562382204e-07
1.810093574e-07
2.134612148e-07
2.559688506e-07
3.116859076e-07
3.848509939e-07
4.812433901e-07
6.088449784e-07
7.788306845e-07
1.007041161e-06
1.316226692e-06
1.739601377e-06
2.32740994e-06
3.16275923e-06
4.405180404e-06
6.396678567e-06
9.884744151e-06
1.648204151e-05
2.964909558e-05
5.683835603e-05
0.0001142344164
0.0002373430639
0.0005048288051
0.001092519492
0.001168527306
0.00116741006
0.001166202753
0.001165541087
0.001165226486
0.001165083057
0.001165024337
0.0011650085
0.001165015877
0.0011650379
0.001165071824
0.001165118302
0.001165180564
0.001165265511
0.001165386546
0.001165557869
0.001165860835
0.0004384509095
0.0004091748857
0.0002572659002
0.0001399650838
1.115543037e-05
5.40270353e-07
1.603505931e-07
1.365918114e-07
1.245366186e-07
1.141305468e-07
1.072041372e-07
1.026341932e-07
1.011832481e-07
1.010144395e-07
9.578043544e-08
9.947922093e-08
1.080943059e-07
1.199967578e-07
1.35550276e-07
1.558158999e-07
1.82217179e-07
2.166129125e-07
2.614477078e-07
3.199761858e-07
3.965846316e-07
4.972663592e-07
6.303144666e-07
8.073563975e-07
1.044894055e-06
1.366647516e-06
1.80726423e-06
2.419176013e-06
3.289258488e-06
4.584998136e-06
6.666962067e-06
1.032464888e-05
1.726169977e-05
3.113291199e-05
5.980761653e-05
0.0001203737701
0.0002503110493
0.0005326245688
0.001152753322
0.001168587354
0.001167419344
0.001166214745
0.001165574457
0.001165263708
0.001165117391
0.001165053896
0.001165033419
0.001165037014
0.001165056272
0.001165088385
0.001165133858
0.001165195772
0.001165280942
0.001165402336
0.00116557391
0.001165876084
0.0004760891824
0.0004018187364
0.0002558275971
9.602874972e-05
5.681676702e-06
2.219753327e-07
1.342973727e-07
1.184568769e-07
1.087477856e-07
1.003542494e-07
9.471128413e-08
9.13581351e-08
9.097534972e-08
9.041136042e-08
8.936611754e-08
9.540750004e-08
1.051605535e-07
1.180213733e-07
1.346839542e-07
1.562672392e-07
1.842324272e-07
2.204888519e-07
2.675537587e-07
3.28786866e-07
4.087272198e-07
5.135888188e-07
6.519847166e-07
8.360070483e-07
1.082836911e-06
1.417192031e-06
1.875200008e-06
2.511569444e-06
3.417158404e-06
4.76796315e-06
6.944420107e-06
1.078085375e-05
1.807792151e-05
3.269796789e-05
6.295692333e-05
0.0001269132332
0.0002641727579
0.0005624276395
0.001169751609
0.001168634455
0.001167417194
0.001166225701
0.001165605571
0.00116529866
0.00116514985
0.001165082051
0.001165057356
0.001165057509
0.001165074266
0.001165104769
0.00116514939
0.00116521108
0.001165296578
0.001165418368
0.001165590099
0.001165891427
0.0005330436986
0.0004108765387
0.0002599318328
4.743732381e-05
1.564167773e-06
1.383321708e-07
1.157456683e-07
1.034125483e-07
9.550170725e-08
8.853603834e-08
8.403523962e-08
8.186309681e-08
8.254068909e-08
8.246068866e-08
8.481280962e-08
9.244011661e-08
1.030854985e-07
1.168505469e-07
1.34576627e-07
1.57417573e-07
1.868718081e-07
2.249010954e-07
2.74098266e-07
3.37931899e-07
4.210985498e-07
5.30039014e-07
6.736944838e-07
8.64633317e-07
1.120733088e-06
1.467736551e-06
1.943297704e-06
2.604491941e-06
3.546378859e-06
4.95404002e-06
7.229137785e-06
1.125374064e-05
1.893177907e-05
3.434691662e-05
6.629255037e-05
0.0001338673865
0.0002789618477
0.0005943153453
0.001169831709
0.001168669684
0.001167403972
0.0011662357
0.001165634576
0.001165331475
0.00116518053
0.001165108861
0.001165080342
0.001165077377
0.001165091886
0.001165120975
0.001165164893
0.001165226481
0.001165312407
0.001165434605
0.001165606385
0.00116590685
0.0005891201886
0.0004111908238
0.0002578522947
2.25478055e-05
3.828151469e-07
1.129883238e-07
1.011829582e-07
9.096852606e-08
8.427602349e-08
7.852913647e-08
7.50912992e-08
7.405498958e-08
7.575965529e-08
7.678224858e-08
8.162495434e-08
9.030877533e-08
1.017190948e-07
1.163411292e-07
1.350768595e-07
1.59109072e-07
1.899745002e-07
2.296891657e-07
2.809243004e-07
3.472608607e-07
4.335572474e-07
5.464866457e-07
6.9532603e-07
8.931310742e-07
1.15849273e-06
1.518206001e-06
2.01149746e-06
2.697900406e-06
3.676901864e-06
5.143267319e-06
7.521293638e-06
1.174381767e-05
1.982453181e-05
3.608272255e-05
6.982134765e-05
0.0001412519678
0.000294714433
0.000628370488
0.001169897106
0.001168694073
0.001167379951
0.001166244814
0.001165661612
0.001165362278
0.001165209524
0.001165134387
0.001165102415
0.001165096637
0.001165109141
0.001165137003
0.001165180363
0.00116524197
0.001165328417
0.001165451007
0.001165622887
0.001165922309
0.0006449452423
0.0004069987365
0.0002461288611
1.137109385e-05
1.499200174e-07
9.824041935e-08
8.903815594e-08
8.054513978e-08
7.482404687e-08
7.01222158e-08
6.770062151e-08
6.776858961e-08
7.044888314e-08
7.288052279e-08
7.938518156e-08
8.882367918e-08
1.009300844e-07
1.163606277e-07
1.360482656e-07
1.612039009e-07
1.934040432e-07
2.347210046e-07
2.879070244e-07
3.566587503e-07
4.460003503e-07
5.628426444e-07
7.168056024e-07
9.214431231e-07
1.196076392e-06
1.568580009e-06
2.079799744e-06
2.791819625e-06
3.808788312e-06
5.335778953e-06
7.821186331e-06
1.225175211e-05
2.075766565e-05
3.790870198e-05
7.355076169e-05
0.0001490838015
0.0003114687239
0.0006646801463
0.001169949034
0.001168708632
0.001167345288
0.001166253111
0.001165686813
0.001165391192
0.001165236922
0.00116515869
0.001165123611
0.001165115309
0.001165126038
0.001165152854
0.001165195795
0.001165257541
0.001165344592
0.001165467549
0.001165639648
0.001165937756
0.0006792058917
0.0004018181696
0.0002216954724
6.769627528e-06
1.135250146e-07
8.632318656e-08
7.885826087e-08
7.174986167e-08
6.683840522e-08
6.308635523e-08
6.168117519e-08
6.28208589e-08
6.639681698e-08
7.024655989e-08
7.7806642e-08
8.785005973e-08
1.006037198e-07
1.167928928e-07
1.373737231e-07
1.635861796e-07
1.970480144e-07
2.398900083e-07
2.949477406e-07
3.660365803e-07
4.583500096e-07
5.790414598e-07
7.38080848e-07
9.49531084e-07
1.233460547e-06
1.618850968e-06
2.148214437e-06
2.886280538e-06
3.942102561e-06
5.531710359e-06
8.129113442e-06
1.277820398e-05
2.173264687e-05
3.982813047e-05
7.748816586e-05
0.0001573795974
0.0003292627749
0.0007033312826
0.001169988614
0.001168714356
0.001167309202
0.001166260655
0.0011657103
0.001165418332
0.001165262811
0.001165181827
0.001165143965
0.001165133412
0.001165142586
0.001165168528
0.001165211184
0.001165273185
0.001165360912
0.001165484207
0.001165656653
0.001165953155
0.0006774001742
0.0004028830574
0.0001862593012
2.664226392e-06
9.417828315e-08
7.643890776e-08
7.027230667e-08
6.428682486e-08
6.008443075e-08
5.724846199e-08
5.687516713e-08
5.90187471e-08
6.335107034e-08
6.845583369e-08
7.6707231e-08
8.728017329e-08
1.006375206e-07
1.175357356e-07
1.389531633e-07
1.661600744e-07
2.008168677e-07
2.451148906e-07
3.019751116e-07
3.753342546e-07
4.705584286e-07
5.950483585e-07
7.591307804e-07
9.773883234e-07
1.270653713e-06
1.669043634e-06
2.216784288e-06
2.981347965e-06
4.07694479e-06
5.731235975e-06
8.445414891e-06
1.332387679e-05
2.275097973e-05
4.184430055e-05
8.16408892e-05
0.0001661558552
0.0003481340109
0.0007444091834
0.001170016861
0.001168711871
0.001167275282
0.001166267502
0.001165732189
0.001165443805
0.001165287275
0.001165203857
0.001165163512
0.001165150965
0.001165158793
0.001165184023
0.001165226523
0.001165288894
0.001165377355
0.001165500961
0.001165673895
0.001165968463
0.0006707959465
0.0004072241556
0.0001015760161
9.17653669e-07
8.126675065e-08
6.825484005e-08
6.305406538e-08
5.79752355e-08
5.441689525e-08
5.249447235e-08
5.313794727e-08
5.616620033e-08
6.092670884e-08
6.721921348e-08
7.597267568e-08
8.702752818e-08
1.009461276e-07
1.185050697e-07
1.407054938e-07
1.688491125e-07
2.046403736e-07
2.503329616e-07
3.089350596e-07
3.845070345e-07
4.825908303e-07
6.108388597e-07
7.799415282e-07
1.005011837e-06
1.307664112e-06
1.719178004e-06
2.285542124e-06
3.077070769e-06
4.213392102e-06
5.9344972e-06
8.770379275e-06
1.38893851e-05
2.381400193e-05
4.39601773e-05
8.60155975e-05
0.0001754276947
0.0003681169303
0.0007879928034
0.001170034705
0.001168701608
0.001167243382
0.001166273709
0.001165752585
0.001165467712
0.00116531039
0.001165224832
0.001165182287
0.001165167986
0.001165174666
0.001165199339
0.001165241806
0.001165304656
0.001165393895
0.001165517794
0.001165691358
0.001165983628
0.000658336729
0.0004080607149
5.6436401e-05
3.510123169e-07
7.172338317e-08
6.146028382e-08
5.697218111e-08
5.263471206e-08
4.970128595e-08
4.870677143e-08
5.029979707e-08
5.406070664e-08
5.932311783e-08
6.635730326e-08
7.551901715e-08
8.70172802e-08
1.014564398e-07
1.196308583e-07
1.425652535e-07
1.715937857e-07
2.084663637e-07
2.555002993e-07
3.157926756e-07
3.935295998e-07
4.944319365e-07
6.264080154e-07
8.00518735e-07
1.032418198e-06
1.344519651e-06
1.769294023e-06
2.35454105e-06
3.173518535e-06
4.351542661e-06
6.141655137e-06
9.10430712e-06
1.447533113e-05
2.492297606e-05
4.617849816e-05
9.06183611e-05
0.0001852087574
0.0003892424365
0.000834152476
0.00117004301
0.001168683923
0.001167213371
0.001166279323
0.001165771586
0.001165490145
0.00116533223
0.001165244803
0.00116520032
0.001165184495
0.00116519021
0.001165214472
0.001165257027
0.001165320459
0.001165410502
0.001165534689
0.001165709014
0.001165998612
0.0006396905105
0.0003990022576
2.775120827e-05
1.586441409e-07
6.414711694e-08
5.584291501e-08
5.18787186e-08
4.814326323e-08
4.583950803e-08
4.576572236e-08
4.81842714e-08
5.25199004e-08
5.824667003e-08
6.576284562e-08
7.528121409e-08
8.718819901e-08
1.021100516e-07
1.208588327e-07
1.444835767e-07
1.743518314e-07
2.122602191e-07
2.605906739e-07
3.225307667e-07
4.02394394e-07