/*--------------------------------*- C++ -*----------------------------------*\
  =========                 |
  \\      /  F ield         | OpenFOAM: The Open Source CFD Toolbox
   \\    /   O peration     | Website:  https://openfoam.org
    \\  /    A nd           | Version:  12
     \\/     M anipulation  |
\*---------------------------------------------------------------------------*/
FoamFile
{
    format      ascii;
    class       volScalarField;
    location    "900";
    object      k;
}
// * * * * * * * * * * * * * * * * * * * * * * * * * * * * * * * * * * * * * //

dimensions      [0 2 -2 0 0 0 0];

internalField   nonuniform List<scalar> 
16200
(
444.4970747
509.1821908
464.6581398
421.5180812
365.3727507
279.7701592
158.2737097
47.10908291
5.545029054
0.1959339023
0.002150134426
0.001016598319
0.0009704567961
0.0009451001802
0.0009309881256
0.0009226446357
0.0009172337935
0.0009140079773
0.0009123737761
0.000911852113
0.0009121960592
0.0009132605816
0.0009149538917
0.0009172239696
0.0009200462836
0.00092341279
0.0009273217191
0.0009317661088
0.0009367207369
0.0009421275234
0.0009478814176
0.0009538235896
0.0009597509014
0.0009654444797
0.0009707070039
0.0009753912181
0.0009794109206
0.0009827359066
0.0009853786226
0.0009873784262
0.0009887863708
0.0009896500373
0.0009899987656
0.0009898238926
0.0009890301284
0.0009873063204
0.0009849519834
0.0009838939735
0.0009834775154
0.0009833421292
0.0009833377078
0.0009834100975
0.0009835506714
0.0009837756684
0.0009841195227
0.0009846367817
0.0009854090471
0.0009865655484
0.0009883194986
0.0009910932704
465.2273409
526.7859114
473.3898903
421.2167836
353.3911591
252.6034318
121.1834959
27.70785207
2.299188638
0.05277380387
0.001169410367
0.0009994703334
0.0009581774634
0.0009350721555
0.0009222574817
0.0009148000663
0.0009100510226
0.0009073446264
0.0009061481439
0.0009060164472
0.0009067265722
0.0009081520497
0.0009102157365
0.0009128772337
0.0009161208041
0.0009199439186
0.0009243457273
0.0009293133795
0.0009348062601
0.0009407396171
0.0009469723638
0.0009533082987
0.0009595177992
0.0009653760802
0.0009707015863
0.000975376937
0.0009793489364
0.0009826147447
0.0009852044105
0.0009871655611
0.0009885510267
0.0009894073948
0.0009897638638
0.0009896191542
0.0009889065012
0.0009873763711
0.0009850301206
0.0009839671578
0.000983553777
0.0009834253127
0.0009834291028
0.0009835094523
0.0009836566976
0.0009838861821
0.000984231636
0.0009847468357
0.0009855137536
0.000986663343
0.0009884175733
0.0009912325705
485.4180399
542.7215473
479.7739671
417.6207784
336.2680186
219.8274623
85.49072655
14.46882009
0.8073927261
0.01213766577
0.001064561714
0.0009846719213
0.000947236796
0.0009262314428
0.0009146503452
0.0009080322329
0.0009039226391
0.0009017275957
0.000900969779
0.0009012366336
0.0009023283028
0.0009041361727
0.0009065975486
0.0009096836346
0.000913387123
0.0009177094067
0.0009226467336
0.0009281735246
0.0009342237256
0.0009406741053
0.0009473379956
0.0009539796439
0.0009603503293
0.0009662333821
0.0009714779537
0.0009760079488
0.0009798096641
0.0009829101295
0.000985357141
0.0009872055279
0.0009885082523
0.0009893087032
0.0009896327039
0.0009894806385
0.0009888056199
0.0009874250709
0.0009851074649
0.0009840441653
0.0009836334933
0.0009835101574
0.000983520312
0.0009836072051
0.0009837602707
0.0009839940092
0.0009843413784
0.0009848554307
0.0009856182058
0.0009867622188
0.0009885169793
0.0009913695166
504.2433333
555.6416759
482.8952395
409.54765
312.9659548
181.5908715
54.8627853
6.660250855
0.2425411651
0.002760527924
0.001033890464
0.0009715352669
0.0009376543419
0.0009186367858
0.000908236871
0.0009024152009
0.0008989226986
0.0008972294596
0.0008969095092
0.0008975821531
0.0008990702427
0.0009012824465
0.0009041700503
0.0009077147892
0.0009119152956
0.000916772249
0.0009222717614
0.0009283655868
0.0009349504583
0.0009418545187
0.0009488427879
0.0009556484929
0.0009620212834
0.0009677717895
0.0009727940363
0.0009770598418
0.0009805954745
0.000983454977
0.0009857001232
0.0009873894621
0.0009885732825
0.0009892894262
0.0009895578246
0.0009893761655
0.0009887081716
0.0009874174888
0.0009851628049
0.0009841118072
0.0009837082509
0.0009835912129
0.0009836077941
0.000983701075
0.0009838599541
0.0009840982575
0.0009844482277
0.0009849622505
0.0009857222996
0.0009868622431
0.0009886182165
0.0009915056164
521.4518371
565.8148957
482.7794322
397.4365884
284.9848061
141.1989785
32.02899006
2.812386167
0.06663197231
0.001280893409
0.001015035055
0.0009600649104
0.0009294798551
0.0009123404034
0.000903074165
0.0008980154146
0.0008951259079
0.0008939326414
0.0008940569009
0.0008951494927
0.0008970558401
0.0008997012654
0.0009030497826
0.0009070910102
0.0009118249867
0.0009172449673
0.0009233176614
0.0009299603833
0.0009370208135
0.0009442723835
0.0009514373596
0.0009582352754
0.0009644363889
0.0009698970637
0.0009745659702
0.0009784642815
0.0009816545764
0.0009842125352
0.0009862089564
0.0009877023806
0.0009887378658
0.0009893459542
0.0009895390873
0.0009893094532
0.00098862501
0.000987374236
0.0009852058046
0.0009841750213
0.0009837808497
0.0009836702566
0.000983692794
0.0009837919935
0.0009839564695
0.0009841994834
0.000984552604
0.0009850675854
0.0009858262301
0.000986963565
0.0009887214799
0.0009916409414
536.4953344
573.2221352
479.266261
380.2309111
250.9504145
101.8962232
18.0682602
1.132998716
0.01837038497
0.001120242853
0.0009995416208
0.0009502975199
0.0009227756324
0.0009074089376
0.000899227978
0.0008948999015
0.0008925996724
0.0008919052967
0.0008924815096
0.0008940102084
0.0008963584674
0.0008994663222
0.0009033076139
0.0009078756149
0.0009131658648
0.0009191559751
0.0009257821033
0.0009329144091
0.0009403426367
0.0009477877427
0.0009549453812
0.0009615459074
0.0009674030352
0.0009724326197
0.0009766412545
0.0009800953503
0.0009828865319
0.0009851048999
0.0009868246597
0.000988100604
0.0009889703244
0.0009894558251
0.0009895612049
0.0009892715457
0.000988555634
0.0009873225586
0.0009852343805
0.0009842322403
0.0009838502925
0.0009837467455
0.0009837750892
0.0009838799481
0.0009840499289
0.0009842978564
0.0009846546901
0.0009851715905
0.0009859301279
0.0009870663043
0.0009888269911
0.0009917758767
549.0990536
578.1813723
472.5340735
356.9319006
210.4323581
68.14903174
9.591408052
0.4457551453
0.005313397279
0.001075047434
0.0009862821844
0.0009421973669
0.0009175260014
0.0009038347146
0.0008966956968
0.000893074762
0.0008913579225
0.0008911685997
0.0008922104798
0.0008941952919
0.0008970099309
0.0009006066216
0.0009049657325
0.0009100794149
0.0009159315095
0.0009224735225
0.0009295979918
0.0009371166808
0.0009447597683
0.0009522090362
0.0009591585527
0.0009653759675
0.0009707366012
0.00097522203
0.0009788933907
0.0009818540682
0.0009842156928
0.0009860752993
0.0009875053171
0.0009885536935
0.0009892489468
0.0009896038749
0.0009896139933
0.0009892564453
0.0009884982465
0.0009872681978
0.0009852515065
0.0009842844937
0.0009839169844
0.0009838209371
0.0009838549398
0.0009839652298
0.0009841406424
0.0009843936805
0.0009847547597
0.0009852744857
0.0009860341569
0.0009871705826
0.0009889349015
0.0009919106163
559.0527866
580.5987572
462.1986546
328.2199951
166.6977591
41.18363853
4.790788167
0.179776674
0.002158946412
0.001051073952
0.0009751011913
0.0009357119068
0.000913688723
0.0009015811877
0.0008954445595
0.0008925136549
0.0008913784226
0.0008917024387
0.000893223852
0.0008956831248
0.0008989852364
0.0009030919687
0.0009079860234
0.0009136516774
0.0009200509415
0.0009270960876
0.0009346233344
0.0009423809667
0.000950049125
0.0009572943824
0.0009638384275
0.0009695089863
0.0009742530427
0.0009781161511
0.0009812053243
0.0009836503316
0.0009855734759
0.000987071922
0.0009882120745
0.0009890327816
0.0009895525419
0.0009897747785
0.0009896866539
0.0009892571536
0.0009884493294
0.0009872098789
0.0009852587008
0.0009843320213
0.0009839808624
0.0009838927931
0.0009839324108
0.000984048
0.0009842288347
0.0009844872065
0.000984853057
0.0009853764783
0.0009861384762
0.0009872765137
0.0009890453392
0.000992045358
566.2299063
580.0015932
446.1512881
292.6638887
123.4427337
23.94927182
2.327841499
0.07858480028
0.001599743898
0.001033028174
0.0009658738633
0.0009307675369
0.0009112025652
0.0009005895614
0.0008954138358
0.0008931560513
0.0008925997923
0.0008934445161
0.0008954588179
0.0008984106889
0.0009022204782
0.0009068551024
0.0009122928348
0.0009185004541
0.0009254056368
0.0009328682285
0.0009406602495
0.0009484718437
0.0009559543273
0.0009627893849
0.0009687533944
0.000973748808
0.0009777951458
0.0009809936005
0.0009834852881
0.0009854153227
0.0009869082748
0.0009880559589
0.0009889157055
0.0009895159169
0.0009898647457
0.0009899564779
0.0009897704847
0.0009892678496
0.000988405923
0.0009871464898
0.0009852582211
0.0009843754725
0.0009840420826
0.0009839623886
0.000984007625
0.000984128449
0.0009843147454
0.0009845786948
0.0009849498335
0.0009854777841
0.0009862432497
0.0009873842072
0.0009891583992
0.0009921802457
570.9091009
576.5798711
423.9772279
249.7766035
84.10679613
13.61647602
1.112483242
0.0364825582
0.001415339115
0.001017999917
0.0009584231669
0.0009272393486
0.0009099622009
0.0009007629118
0.0008965103971
0.0008949144745
0.0008949393513
0.0008963164868
0.000898840588
0.0009023047701
0.0009066402361
0.0009118126299
0.0009177870052
0.000924501337
0.0009318362863
0.00093958951
0.0009474697803
0.0009551261762
0.0009622108095
0.0009684508459
0.0009736969551
0.000977930924
0.0009812377042
0.000983761607
0.0009856651847
0.0009870988343
0.0009881826106
0.000988999041
0.0009895945194
0.0009899864591
0.0009901728433
0.000990139349
0.0009898583184
0.0009892835293
0.0009883653817
0.0009870768607
0.0009852520171
0.000984415411
0.0009841007756
0.0009840297848
0.0009840806906
0.0009842067512
0.0009843985997
0.0009846683949
0.0009850453345
0.0009855786167
0.0009863486409
0.0009874937675
0.0009892741532
0.0009923153974
573.2499655
570.3420516
395.8476007
202.2397267
52.29022378
7.434400481
0.5340728197
0.01842780738
0.001335663754
0.001005458393
0.0009526186797
0.0009250262073
0.0009098789976
0.0009020195694
0.0008986572659
0.000897718022
0.0008983304383
0.0009002536031
0.0009033032897
0.0009072942316
0.0009121629101
0.0009178662989
0.0009243462355
0.0009314996463
0.0009391492255
0.0009470275746
0.0009547922756
0.0009620783919
0.0009685711343
0.000974067557
0.0009785018354
0.0009819303258
0.0009844908305
0.0009863566671
0.0009877000221
0.0009886683578
0.0009893723054
0.0009898826608
0.0009902340453
0.0009904329803
0.0009904678215
0.0009903163467
0.0009899447244
0.0009893002346
0.0009883255892
0.0009869999836
0.0009852419191
0.0009844524305
0.0009841571224
0.0009840950788
0.000984151734
0.0009842830869
0.0009844806213
0.0009847565521
0.0009851398016
0.0009856791879
0.0009864548115
0.0009876052925
0.0009893926493
0.0009924508999
573.2581886
560.6437362
361.1772619
154.2871202
32.51220586
4.019523785
0.2635397859
0.009975556583
0.001246109567
0.0009951174578
0.0009483432436
0.0009240458827
0.0009108851621
0.00090429811
0.0009017954194
0.0009015090498
0.0009027137951
0.0009051920992
0.0009087758558
0.000913297305
0.0009186915687
0.0009248981706
0.0009318242548
0.0009393138036
0.0009471252323
0.0009549332511
0.0009623675557
0.0009690816672
0.0009748224669
0.0009794712815
0.0009830444544
0.0009856611816
0.0009874969701
0.0009887405779
0.0009895639887
0.000990105686
0.0009904637654
0.0009906961138
0.0009908255403
0.0009908482258
0.000990743672
0.000990482558
0.0009900257453
0.0009893149267
0.0009882849059
0.0009869150277
0.0009852294582
0.0009844870688
0.0009842113144
0.0009841583857
0.000984220892
0.0009843576377
0.0009845610299
0.0009848434053
0.0009852334699
0.0009857797051
0.0009865619192
0.0009877188725
0.0009895139161
0.0009925868149
571.0084131
546.6292198
317.8527925
109.3825773
20.58216286
2.225698092
0.1370584405
0.006003012446
0.001171007787
0.0009868254987
0.0009455017202
0.0009242266287
0.0009129167665
0.0009075354796
0.0009058596595
0.000906219546
0.0009080171942
0.0009110543028
0.000915173616
0.0009202190805
0.0009261155902
0.0009327742079
0.0009400555252
0.0009477422077
0.0009555307874
0.0009630567824
0.0009699533376
0.0009759239485
0.0009807967454
0.0009845403867
0.0009872435269
0.0009890726452
0.0009902257914
0.0009908955572
0.0009912463228
0.0009914036553
0.0009914515269
0.0009914347121
0.0009913647278
0.0009912282489
0.0009909968179
0.0009906348363
0.0009900986832
0.000989325389
0.0009882421354
0.000986821374
0.0009852158848
0.0009845198095
0.0009842635546
0.0009842198411
0.000984288314
0.0009844305888
0.0009846400419
0.0009849291872
0.000985326568
0.0009858803699
0.0009866701167
0.0009878345899
0.0009896379633
0.0009927231805
566.8266661
527.2094064
267.6761165
73.79303715
12.0515454
1.20935653
0.07263506963
0.003810553815
0.001111399427
0.000979763657
0.0009439795136
0.0009254767827
0.000915889795
0.000911650041
0.0009107702468
0.0009117716581
0.0009141633346
0.0009177607369
0.0009224109802
0.0009279619218
0.0009343175327
0.0009413485252
0.0009488591785
0.0009565700737
0.0009641298306
0.0009711631403
0.0009773397593
0.0009824374933
0.0009863736953
0.0009891974357
0.000991054522
0.0009921422942
0.0009926679597
0.0009928189753
0.0009927471395
0.0009925629691
0.0009923358973
0.0009920980637
0.0009918505605
0.0009915715383
0.0009912255103
0.0009907713943
0.0009901618376
0.0009893300802
0.0009881964487
0.0009867186045
0.0009852021675
0.0009845510692
0.0009843140472
0.0009842795943
0.000984354159
0.0009845021272
0.00098471787
0.0009850141234
0.0009854193163
0.0009859813768
0.0009867795499
0.0009879525186
0.0009897647837
0.0009928600134
561.3547879
501.2069325
215.7743305
48.63694786
7.279611386
0.6770346233
0.03938864967
0.002557737135
0.001068334399
0.000974320131
0.0009435573564
0.0009276945459
0.0009197188183
0.0009165679254
0.0009164625837
0.000918105672
0.0009210922441
0.0009252453961
0.0009304097665
0.0009364281722
0.0009431722391
0.000950461713
0.0009580404676
0.0009655766851
0.0009726961309
0.000979045463
0.0009843590481
0.0009885021927
0.0009914783082
0.0009934030527
0.000994462252
0.0009948690463
0.0009948291481
0.0009945186367
0.0009940738627
0.0009935895588
0.0009931210256
0.0009926886713
0.0009922842125
0.0009918782997
0.0009914293235
0.0009908914552
0.0009902142725
0.0009893279986
0.0009881473128
0.0009866064784
0.0009851890306
0.0009845812017
0.0009843629933
0.0009843378047
0.000984418593
0.0009845724409
0.0009847947222
0.0009850984316
0.0009855119265
0.0009860829116
0.0009868903562
0.000988072723
0.0009898943549
0.000992997311
555.1716769
465.3381614
167.9003995
34.45672164
4.627872736
0.3900550191
0.02194532778
0.001874254119
0.001039975771
0.0009705938764
0.0009442539317
0.0009308074516
0.0009243722279
0.0009222600054
0.0009229062694
0.000925185068
0.0009287575835
0.0009334480926
0.0009390907908
0.0009455120996
0.0009525399549
0.0009599375158
0.0009673938278
0.0009745451417
0.0009810259765
0.0009865352567
0.0009908897066
0.0009940435025
0.00099607455
0.0009971479418
0.0009974730842
0.000997266533
0.0009967248272
0.000996008867
0.000995238353
0.0009944924933
0.0009938133824
0.0009932108263
0.0009926682729
0.0009921498718
0.0009916087372
0.0009909949575
0.0009902556131
0.0009893185571
0.0009880944234
0.0009864993713
0.0009851769936
0.000984610503
0.0009844105879
0.0009843946375
0.0009844817859
0.0009846417165
0.0009848708009
0.000985182321
0.0009856046006
0.0009861851506
0.0009870026637
0.0009881952571
0.0009900266419
0.0009931350523
549.2230893
418.065738
126.5534505
23.78569046
2.918734889
0.2254836939
0.01238432427
0.001487484731
0.001021198357
0.0009684914778
0.0009460572197
0.0009348194429
0.0009298188362
0.0009287016488
0.0009300715712
0.000932972274
0.0009371107067
0.0009423032703
0.0009483638515
0.0009550906788
0.0009622608698
0.0009695840331
0.0009767113049
0.0009832750671
0.0009889496993
0.0009935082653
0.0009968556994
0.0009990266888
0.001000157323
0.00100044475
0.001000107924
0.0009993575792
0.000998376158
0.0009973075416
0.0009962547782
0.0009952824488
0.0009944206504
0.0009936697956
0.0009930061483
0.0009923882867
0.0009917648144
0.0009910823222
0.0009902858806
0.0009893014778
0.0009880368994
0.000986399496
0.0009851664137
0.0009846392195
0.0009844570174
0.0009844502603
0.000984543909
0.0009847101378
0.0009849463016
0.0009852659915
0.00098569753
0.0009862882593
0.0009871165897
0.0009883201639
0.0009901615992
0.0009932731995
544.9914846
361.2644383
92.8124372
15.9156103
1.813657236
0.1279943277
0.006969759442
0.001264401415
0.001008995716
0.0009678799673
0.0009489072268
0.0009396957317
0.0009360321914
0.0009358611207
0.0009379291518
0.0009414312811
0.0009461001095
0.0009517344171
0.000958118998
0.0009650166779
0.0009721546508
0.0009792016157
0.0009857956289
0.0009915953474
0.0009963392398
0.0009998850971
0.00100222145
0.001003448894
0.001003744053
0.001003320663
0.001002396376
0.0010011699
0.0009998069348
0.0009984339433
0.0009971381073
0.0009959706351
0.0009949509439
0.0009940712456
0.0009933016313
0.0009925959463
0.0009918989611
0.0009911542751
0.0009903053622
0.0009892767428
0.0009879739983
0.0009863070156
0.0009851575234
0.0009846675567
0.0009845024593
0.0009845048397
0.0009846051324
0.0009847778842
0.000985021412
0.0009853496326
0.0009857908944
0.0009863923914
0.00098723224
0.0009884474759
0.0009902991652
0.0009934116994
543.4823413
299.6806349
66.01066598
10.80066284
1.127979157
0.07131253913
0.004002235719
0.001144231539
0.001001760919
0.0009686799527
0.000952779208
0.0009454272479
0.0009430117306
0.000943732785
0.0009464615267
0.0009505236433
0.0009556579412
0.0009616387675
0.000968217022
0.0009751183056
0.0009820287498
0.0009885965982
0.0009944744991
0.0009993736219
0.001003110542
0.00100562743
0.001006984403
0.001007330707
0.001006867046
0.001005811329
0.001004372295
0.001002733004
0.001001041477
0.0009994073291
0.0009979031205
0.0009965680935
0.0009954122968
0.0009944208581
0.0009935586082
0.0009927753984
0.0009920127546
0.0009912117178
0.0009903145129
0.0009892445186
0.0009879051804
0.0009862218766
0.000985150464
0.0009846956868
0.000984547081
0.0009845585395
0.0009846656227
0.0009848451289
0.0009850963111
0.0009854334233
0.0009858848621
0.0009864976884
0.000987349708
0.000988577213
0.0009904392561
0.0009935504836
544.1129706
238.3146375
50.38160897
7.652226597
0.6955591733
0.03820094098
0.002431648741
0.001082521959
0.0009980468448
0.0009708413495
0.0009576793085
0.0009520251501
0.000950760302
0.0009522990635
0.000955626931
0.0009601770184
0.0009656791242
0.000971878259
0.0009784909797
0.0009852088463
0.0009916929244
0.0009975959538
0.001002611199
0.001006520055
0.001009220781
0.001010731024
0.001011166524
0.001010708193
0.001009567071
0.001007956175
0.001006070582
0.001004076076
0.001002103246
0.001000246021
0.0009985637928
0.0009970852608
0.0009958123402
0.0009947240837
0.0009937808655
0.000992929183
0.0009921078231
0.0009912556333
0.0009903138817
0.000989205093
0.0009878300674
0.0009861438823
0.0009851453104
0.0009847237554
0.0009845910402
0.0009846115184
0.0009847255414
0.0009849120381
0.0009851711684
0.0009855175311
0.0009859795884
0.0009866042784
0.0009874690737
0.0009887093805
0.0009905817654
0.0009936894696
544.636547
182.5317937
39.18315216
5.42923725
0.4133883174
0.01903355111
0.001636278009
0.001052307727
0.000996925115
0.0009743046464
0.0009635805552
0.0009594574377
0.0009592298082
0.0009614889529
0.0009653351578
0.0009702768863
0.0009760242807
0.0009822901055
0.0009887601726
0.0009951024058
0.001000974508
0.001006059134
0.001010110036
0.001012986246
0.001014662478
0.00101521765
0.001014806329
0.001013626315
0.001011888541
0.001009795155
0.001007525105
0.001005226694
0.001003014063
0.001000966909
0.000999132967
0.0009975317393
0.0009961581287
0.0009949860034
0.0009939719764
0.0009930597395
0.0009921857699
0.0009912870258
0.0009903040633
0.0009891588324
0.000987748402
0.0009860727495
0.0009851420924
0.0009847518868
0.0009846344843
0.0009846639287
0.0009847850433
0.0009849787697
0.0009852461433
0.0009856021116
0.0009860752155
0.0009867122755
0.0009875904022
0.0009888439666
0.0009907265724
0.0009938285614
545.1397582
144.3024403
30.46300524
3.752874056
0.2269964572
0.008637416255
0.001271940544
0.001038634359
0.0009977925311
0.0009789486795
0.0009703883288
0.0009676327459
0.0009683165098
0.0009711957583
0.000975467513
0.0009806867799
0.0009865374082
0.0009927017938
0.0009988447413
0.001004628109
0.001009730187
0.001013884593
0.001016916376
0.001018760201
0.001019455698
0.001019126923
0.001017951942
0.001016133776
0.001013876042
0.001011366587
0.001008767432
0.001006210106
0.001003793694
0.001001585221
0.0009996222069
0.0009979161927
0.0009964560578
0.0009952112572
0.0009941352378
0.0009931693497
0.0009922481234
0.0009913068788
0.0009902856629
0.000989106151
0.0009876600044
0.0009860081469
0.0009851408093
0.0009847801885
0.0009846775509
0.0009847159153
0.0009848442756
0.0009850454724
0.0009853213843
0.000985687308
0.0009861718718
0.0009868217792
0.0009877137432
0.0009889809421
0.0009908735459
0.0009939676509
543.5451256
124.1280001
24.7884755
2.512001118
0.1105209279
0.003666919067
0.001133446452
0.001033213747
0.001000258894
0.0009846382885
0.0009779971174
0.0009764423382
0.0009779133288
0.0009813099928
0.0009859000661
0.000991262581
0.0009970555431
0.001002940404
0.001008576566
0.001013640758
0.001017853053
0.00102101109
0.001023012597
0.001023858879
0.001023639754
0.001022508991
0.00102065556
0.001018279303
0.001015572062
0.001012705875
0.001009826157
0.001007048907
0.001004459717
0.001002114456
0.001000041771
0.0009982463279
0.0009967118442
0.0009954040207
0.0009942736422
0.0009932601093
0.0009922963101
0.0009913161305
0.0009902592754
0.0009890474928
0.000987564731
0.0009859497235
0.0009851414409
0.0009848087538
0.0009847203679
0.0009847676145
0.0009849033767
0.000985112285
0.0009853970283
0.0009857732504
0.0009862696714
0.0009869328736
0.0009878391302
0.0009891202604
0.0009910225339
0.0009941066207
538.1285605
115.5583248
20.43320297
1.561844484
0.04382963718
0.001741184834
0.001091998104
0.001031707962
0.001004100382
0.0009913007192
0.0009863109589
0.0009857933536
0.0009879315054
0.0009917248569
0.0009965021093
0.00100185103
0.001007412237
0.001012841024
0.001017809601
0.00102202908
0.001025275689
0.001027415148
0.001028411681
0.001028320243
0.001027265861
0.001025418836
0.001022969592
0.001020109299
0.00101701572
0.001013844913
0.00101072669
0.001007763019
0.001005027563
0.00100256646
0.001000400669
0.0009985289365
0.0009969305494
0.000995568014
0.0009943898775
0.0009933339202
0.000992331643
0.0009913156616
0.0009902254724
0.0009889833242
0.0009874624341
0.0009858971265
0.0009851439548
0.0009848376648
0.0009847630531
0.0009848191538
0.0009849624759
0.000985179336
0.0009854732006
0.0009858600556
0.0009863687136
0.0009870456266
0.0009879665791
0.0009892618555
0.0009911733589
0.0009942453456
527.8572231
114.6387648
16.64583552
0.8966310284
0.01397284316
0.001248728806
0.001081103309
0.001032559167
0.001009248285
0.0009988077859
0.0009952485785
0.0009956105408
0.0009982724378
0.001002317031
0.001007125619
0.001012289364
0.001017444728
0.001022257271
0.001026429106
0.001029720059
0.001031968675
0.001033105135
0.001033149265
0.001032195588
0.001030390973
0.001027911984
0.001024944019
0.001021666427
0.001018242135
0.001014811894
0.00101149128
0.001008369792
0.001005510648
0.001002951533
0.001000706758
0.0009987699606
0.0009971166232
0.0009957065271
0.0009944863382
0.0009933924934
0.0009923553197
0.000991306291
0.0009901847973
0.0009889141356
0.0009873529231
0.0009858500137
0.000985148312
0.0009848669935
0.000984805715
0.000984870651
0.000985021692
0.0009852467426
0.0009855500136
0.000985947826
0.0009864690814
0.0009871600887
0.0009880960868
0.0009894056388
0.0009913258285
0.0009943836901
512.7142379
107.2058927
12.70042843
0.4649590458
0.003863479403
0.001170849868
0.001076924885
0.00103515783
0.001015462958
0.001007065055
0.001004717283
0.001005782069
0.001008803312
0.001012935909
0.001017607324
0.001022414921
0.001027005856
0.001031071513
0.001034357043
0.001036678418
0.001037935281
0.001038113505
0.001037275747
0.001035542973
0.001033073094
0.001030041584
0.001026624821
0.001022988922
0.001019282241
0.001015631386
0.001012139194
0.00100888421
0.001005920553
0.00100327858
0.001000966846
0.0009989745713
0.0009972739566
0.0009958224532
0.0009945651452
0.0009934373583
0.0009923684252
0.0009912887746
0.0009901377604
0.0009888404476
0.0009872359232
0.0009858080591
0.0009851544698
0.0009848968031
0.0009848484519
0.000984922214
0.0009850811336
0.0009853146104
0.0009856275669
0.0009860366494
0.0009865708416
0.0009872762925
0.0009882276303
0.0009895515
0.0009914797806
0.0009945215012
492.9191411
95.68153369
9.007957711
0.2086646758
0.001692753172
0.001154850053
0.001075140496
0.001039176401
0.001022593369
0.00101593379
0.001014575441
0.001016156809
0.001019363368
0.001023415482
0.001027783447
0.001032079469
0.001035975544
0.001039201341
0.001041552602
0.00104290215
0.001043204121
0.001042488894
0.001040849454
0.001038422209
0.001035368083
0.00103185667
0.001028053226
0.001024110423
0.001020162928
0.001016324586
0.001012686995
0.001009319138
0.001006267231
0.001003555272
0.001001186818
0.0009991472564
0.0009974059431
0.0009959183303
0.0009946281714
0.0009934698785
0.0009923719406
0.0009912638108
0.0009900848385
0.0009887628276
0.000987111034
0.0009857709567
0.0009851623838
0.0009849271489
0.000984891353
0.0009849739407
0.0009851408984
0.0009853830331
0.0009857059465
0.0009861265982
0.0009866740441
0.0009873942521
0.000988361166
0.0009896993126
0.0009916350553
0.0009946586109
469.0502683
81.96935077
5.962400252
0.09046984065
0.001427132338
0.001144221099
0.001075386311
0.001044390233
0.001030458936
0.00102524766
0.001024658784
0.001026567992
0.00102978525
0.001033593868
0.001037507042
0.001041162821
0.001044269344
0.001046602201
0.001048009544
0.001048416442
0.001047821975
0.001046289572
0.001043931659
0.001040891614
0.001037327891
0.001033401425
0.001029265602
0.001025060194
0.001020907381
0.001016909683
0.001013148864
0.001009685592
0.001006559218
0.001003788206
0.001001371757
0.0009992919076
0.0009975155396
0.0009959963822
0.00099467707
0.0009934912692
0.0009923667542
0.0009912320471
0.0009900264737
0.0009886819137
0.0009869915801
0.0009857384219
0.0009851720092
0.0009849580787
0.0009849344978
0.0009850259186
0.0009852010728
0.0009854520918
0.0009857852243
0.000986217729
0.0009867787207
0.0009875139616
0.0009884966286
0.0009898489331
0.0009917914447
0.0009947948471
441.3112299
68.43846416
3.811673432
0.04015680667
0.001319290264
0.001137100067
0.001077335027
0.001050569812
0.001038869901
0.001034830514
0.001034795197
0.001036846394
0.00103990751
0.001043325041
0.001046657328
0.001049578114
0.0010518387
0.001053263046
0.00105374866
0.001053265026
0.001051845812
0.001049577156
0.001046582256
0.001043005427
0.001038999249
0.001034714705
0.001030293455
0.00102586334
0.00102153538
0.001017402154
0.001013536866
0.001009992959
0.001006803808
0.00100398304
0.001001526036
0.0009994118908
0.0009976053173
0.0009960585543
0.0009947132975
0.0009935026124
0.0009923536706
0.0009911940869
0.0009899630705
0.0009885978604
0.0009868824514
0.0009857101903
0.0009851833008
0.0009849896329
0.0009849779562
0.0009850782245
0.0009852617317
0.0009855218549
0.0009858654578
0.0009863100818
0.000986884885
0.0009876353947
0.0009886339302
0.0009900001985
0.0009919487207
0.0009949300322
409.4734777
55.46761525
2.433360593
0.015381999
0.00126934422
0.001132875184
0.001080694304
0.001057495539
0.001047636712
0.001044504387
0.001044813602
0.001046830681
0.001049585418
0.001052488572
0.00105514604
0.001057273687
0.001058668364
0.001059200378
0.001058810305
0.001057502955
0.001055336918
0.001052412516
0.001048857321
0.001044812636
0.001040423347
0.001035830198
0.001031163807
0.001026541255
0.001022063727
0.001017815136
0.001013861253
0.001010249235
0.001007007234
0.001004144628
0.001001653427
0.0009995101234
0.0009976775169
0.0009961065527
0.000994738142
0.0009935048768
0.0009923334254
0.0009911505013
0.0009898950195
0.0009885106019
0.0009867829336
0.0009856860177
0.0009851962134
0.000985021845
0.0009850217885
0.0009851309244
0.0009853229377
0.000985592377
0.0009859466889
0.000986403679
0.0009869925306
0.0009877585034
0.00098877296
0.0009901529259
0.0009921066424
0.0009950639787
373.5344991
43.65242862
1.494435308
0.006517349567
0.00124396139
0.001130989413
0.001085157321
0.001064938998
0.001056566249
0.001054093585
0.001054552925
0.001056378714
0.001058702001
0.001060998178
0.001062921721
0.001064232953
0.001064772719
0.001064452592
0.001063248443
0.001061191569
0.00105835733
0.001054853688
0.001050808226
0.001046356906
0.00104163621
0.001036776996
0.001031899806
0.001027112184
0.001022506723
0.001018159813
0.001014130768
0.001010461259
0.001007174848
0.001004277158
0.001001757198
0.0009995891444
0.0009977340988
0.0009961418796
0.0009947527464
0.000993498932
0.0009923066931
0.0009911018356
0.0009898227082
0.0009884200284
0.0009866923752
0.0009856656771
0.0009852107017
0.0009850547415
0.0009850660454
0.0009851840732
0.0009853847415
0.0009856636992
0.0009860289439
0.0009864985253
0.0009871016317
0.0009878832172
0.0009889135832
0.0009903069127
0.0009922649508
0.0009951964965
334.5071034
32.85706668
0.8563647295
0.003224841353
0.001228769793
0.001130987738
0.001090443788
0.001072682361
0.001065473326
0.001063434242
0.001063871485
0.001065375604
0.00106717339
0.001068803021
0.001069966895
0.001070468391
0.001070188053
0.00106907211
0.001067123865
0.001064393407
0.001060966469
0.001056953982
0.001052480806
0.001047676422
0.00104266891
0.001037579966
0.001032521135
0.001027591601
0.001022876498
0.001018445686
0.001014352859
0.001010634876
0.001007311245
0.001004384238
0.001001840182
0.0009996511672
0.0009977767831
0.0009961658623
0.0009947581308
0.0009934855657
0.0009922741007
0.0009910486217
0.0009897465357
0.0009883259543
0.0009866101829
0.0009856489578
0.0009852267195
0.0009850883414
0.0009851107677
0.0009852377144
0.0009854471802
0.0009857358473
0.0009861122318
0.0009865946054
0.0009872121399
0.000988009441
0.0009890556395
0.0009904619346
0.00099242337