/*--------------------------------*- C++ -*----------------------------------*\
  =========                 |
  \\      /  F ield         | OpenFOAM: The Open Source CFD Toolbox
   \\    /   O peration     | Website:  https://openfoam.org
    \\  /    A nd           | Version:  12
     \\/     M anipulation  |
\*---------------------------------------------------------------------------*/
FoamFile
{
    format      ascii;
    class       volScalarField;
    location    "900";
    object      omega;
}
// * * * * * * * * * * * * * * * * * * * * * * * * * * * * * * * * * * * * * //

dimensions      [0 0 -1 0 0 0 0];

internalField   nonuniform List<scalar> 
16200
(
713180.7274
282334.0046
159853.3193
110731.3079
86096.78598
70037.12902
55195.12914
33627.13361
7783.892389
784.3205999
318.7071367
199.9533422
129.6187683
86.9740457
62.16103132
46.60776656
35.10117962
26.6774355
20.54947544
15.96079782
12.48696069
9.852332245
7.846197382
6.309676869
5.124534484
4.202668908
3.479635657
2.908590099
2.455741528
2.097183247
1.815478155
1.596368502
1.42682913
1.295734862
1.195383908
1.120808631
1.068150938
1.033351363
1.011928141
0.9995935075
0.9929186498
0.9895499624
0.9880511188
0.9876319125
0.9872667095
0.9864928249
0.9854422073
0.984963616
0.984772073
0.9847121783
0.9847223228
0.9847850016
0.9849053849
0.9851033296
0.985412134
0.9858821077
0.986588351
0.9876488722
0.9892606914
0.9918111311
748938.4309
297578.271
168392.0446
116682.4139
90528.95892
72643.0196
54744.05458
26906.72028
4075.561287
599.1399662
322.5937547
203.8237862
132.1276365
88.4474214
62.84628648
47.04693177
35.3399853
26.7733929
20.57018817
15.94112644
12.44533704
9.801438073
7.793861647
6.260287401
5.080388414
4.164670985
3.447853367
2.882577862
2.43469772
2.080211563
1.801912638
1.585950779
1.419473763
1.29111462
1.192879396
1.119686444
1.067780138
1.033309689
1.011989473
0.9996603464
0.9929586069
0.9895560189
0.988021236
0.9875647043
0.9872378298
0.9865519991
0.9855081728
0.9850308897
0.9848443592
0.9847912297
0.9848086094
0.9848780979
0.9850041271
0.9852058182
0.9855157909
0.9859837139
0.986684863
0.9877389893
0.9893509619
0.9919389211
783286.821
312478.6214
176784.8508
122547.0087
94582.73446
74693.63633
52424.26281
19208.92525
2138.148884
547.5919845
327.5036515
207.2700004
134.3281817
89.72329567
63.42060537
47.39612597
35.50627684
26.81078211
20.54323211
15.88370351
12.37421457
9.727618349
7.723647537
6.196776374
5.024897804
4.117404048
3.408404449
2.850208442
2.40842377
2.058989996
1.784919265
1.57277876
1.409943223
1.284840617
1.189189983
1.11777893
1.066937265
1.033017877
1.011941132
0.9996964251
0.9930068849
0.9895871937
0.9880220667
0.9875248898
0.9872171018
0.9865998057
0.9855716434
0.9850975452
0.9849157295
0.9848684758
0.9848922342
0.9849679468
0.9850993947
0.9853050157
0.9856167452
0.9860836385
0.9867809727
0.987830017
0.9894425137
0.9920649806
815393.7702
326458.8725
184836.5812
128230.6558
98059.90252
76201.48913
47377.20675
11931.01215
1304.861721
536.8263481
331.3709743
209.9684056
136.0513567
90.71247673
63.84014795
47.62578389
35.58020121
26.77546848
20.45952943
15.78185882
12.26853319
9.626850111
7.632195407
6.116225729
4.955467851
4.058545751
3.35922739
2.809695561
2.37544045
2.032374749
1.763684355
1.556314713
1.397893369
1.276684772
1.184149938
1.114954053
1.065512375
1.032384666
1.011709314
0.9996438076
0.9930190525
0.9896099413
0.9880290686
0.9874985057
0.9871962152
0.986621067
0.9856234752
0.9851579775
0.9849826893
0.9849417306
0.98497185
0.985053747
0.9851907405
0.9854006886
0.9857148933
0.9861818335
0.9868767009
0.9879220593
0.989535713
0.9921901657
844914.2959
339523.2861
192421.7749
133613.0861
101236.6144
75814.70784
38548.65481
6612.8916
1014.632375
537.2734777
334.2070996
211.9512724
137.3049986
91.41007248
64.10390151
47.73244049
35.55783716
26.66415808
20.31657571
15.63349763
12.12657334
9.497688399
7.518256788
6.017556303
4.871191044
3.987379017
3.299819133
2.760771447
2.335724131
2.000567672
1.738579392
1.537013774
1.383775752
1.267034422
1.178056682
1.111420588
1.063641077
1.031492288
1.011341068
0.9995282318
0.9930087218
0.9896311833
0.9880455951
0.9874873355
0.9871800987
0.9866250099
0.9856681037
0.985214554
0.9850466733
0.9850119836
0.9850482117
0.985136109
0.9852786686
0.9854932455
0.9858105541
0.9862785273
0.9869722059
0.9880152504
0.9896307644
0.9923146676
871288.3445
351649.1076
199575.6664
138506.9239
103866.8564
72928.6351
29436.38423
3859.394493
928.4801595
539.20681
335.8613473
213.1478441
138.0446541
91.78591697
64.19570617
47.70292009
35.42899722
26.46957843
20.10916696
15.43464165
11.94524549
9.337670274
7.379834598
5.89916177
4.770818948
3.903006558
3.229635274
2.703232023
2.289365764
1.963874335
1.710025182
1.51531482
1.367973913
1.256180473
1.171104472
1.107292754
1.061381114
1.030363712
1.010840753
0.9993457186
0.9929691721
0.9896439886
0.9880654773
0.9874875833
0.9871686806
0.9866237667
0.9857047798
0.9852667643
0.9851074315
0.9850791913
0.9851214191
0.9852152212
0.9853634117
0.9855829261
0.9859039466
0.986373895
0.9870676222
0.9881097072
0.9897278616
0.992438788
894205.1125
363029.5322
206473.649
142667.5052
106219.6769
67021.61423
20854.64925
2561.157525
900.9145191
539.4628362
336.2943261
213.5430087
138.2610888
91.82994561
64.10847577
47.52969253
35.18665105
26.18619916
19.8331065
15.18204995
11.72213023
9.14501734
7.21564789
5.760182399
4.653880858
3.805340082
3.148955236
2.637667553
2.237160257
1.923165883
1.678858004
1.491945115
1.35106957
1.244553501
1.163588979
1.102759094
1.058843798
1.029059255
1.010237845
0.9991087017
0.9929042399
0.989648193
0.9880867412
0.9874967393
0.987161307
0.9866200069
0.9857349693
0.9853152299
0.9851653202
0.9851436521
0.9851917755
0.9852913993
0.9854452856
0.985670028
0.9859953319
0.9864681446
0.9871631023
0.988205544
0.9898271483
0.9925627209
913429.5053
373851.9185
213272.1647
146631.0723
106514.5726
56308.13113
13492.80822
1980.544795
885.6151398
538.1992532
335.591607
213.1667074
137.9605783
91.5368671
63.8333417
47.20291806
34.82183543
25.80749481
19.4840214
14.87291646
11.45555658
8.918800665
7.025266927
5.600591207
4.520728018
3.694693153
3.058441759
2.564998751
2.180132892
1.879424557
1.646037546
1.467657782
1.333622432
1.232547712
1.155771979
1.097982525
1.056123358
1.027628833
1.009555887
0.9988263507
0.9928159745
0.9896426487
0.9881068499
0.9875118427
0.9871565564
0.9866133044
0.9857594855
0.9853602131
0.9852204784
0.9852055238
0.9852594888
0.9853648939
0.9855245635
0.9857548231
0.9860849583
0.9865614807
0.9872587986
0.9883028686
0.9899287415
0.9926866417
928822.7001
384452.4155
219806.3962
150194.0776
103320.8938
44420.43236
8663.769999
1714.974373
880.8758458
535.3176158
333.7380309
212.0032175
137.1310459
90.89618781
63.35889859
46.71275744
34.32697979
25.32904865
19.05973571
14.50647174
11.14558466
8.659530555
6.809496536
5.421472912
4.372129267
3.572946182
2.960149936
2.487234281
2.120062635
1.834085918
1.612439142
1.443182037
1.316151278
1.2205219
1.147892405
1.093114523
1.053310203
1.026122617
1.008820321
0.9985100509
0.9927083835
0.9896277659
0.9881244508
0.9875304401
0.9871532424
0.9866032943
0.9857794569
0.9854021455
0.9852731305
0.9852650038
0.985324783
0.9854359602
0.9856015184
0.9858375833
0.9861730761
0.986654112
0.9873548667
0.9884017845
0.99003273
0.9928106846
940597.8139
394868.58
225567.568
153833.7949
96125.4801
33700.25972
5850.097213
1582.079616
872.9566462
530.6685691
330.7039695
210.0400965
135.7685764
89.90557761
62.6772849
46.05260926
33.69738031
24.74905863
18.56028253
14.08383708
10.79386198
8.369068436
6.569450643
5.224070676
4.210825832
3.442573874
2.856462798
2.406479887
2.058653436
1.78843306
1.579065289
1.419129002
1.299071882
1.208757656
1.140137506
1.088275109
1.050477273
1.024582018
1.008052761
0.9981698761
0.9925853063
0.9896042414
0.9881386527
0.9875504278
0.9871503072
0.9865895762
0.9857958664
0.985441411
0.9853234796
0.9853222729
0.985387866
0.9855048382
0.9856764107
0.985918571
0.9862599301
0.9867462461
0.9874514618
0.9885023899
0.99013918
0.992934957
948895.529
405225.8443
230847.0463
156324.4162
83282.45477
24115.6051
4268.123723
1502.925505
862.7014573
524.3731472
326.5545552
207.3104326
133.8903612
88.57376173
61.78421008
45.21837167
32.93067617
24.06827556
17.98811824
13.60832593
10.40385835
8.049584082
6.308776658
5.012253826
4.040088412
3.306675643
2.750105441
2.324932639
1.997532127
1.743585639
1.546647988
1.395966243
1.282689675
1.197459344
1.132644875
1.083554891
1.047681524
1.023040614
1.007271519
0.9978148883
0.9924505944
0.9895731737
0.988149112
0.9875701539
0.9871469171
0.9865718121
0.9858096354
0.985478397
0.9853717413
0.9853775185
0.9854489446
0.9855717618
0.9857494924
0.9859980414
0.9863457598
0.9868380874
0.987548737
0.9886047769
0.9902481369
0.9930595385
953746.4016
415505.5043
236115.4917
153748.8357
69151.46481
16638.45389
3393.219563
1448.584113
848.6286609
516.4345888
321.3104086
203.8306454
131.5085339
86.90960332
60.67491743
44.20700638
32.02694624
23.29065954
17.34860284
13.0855768
9.979232856
7.706204707
6.031836236
4.790196608
3.863847919
3.168715912
2.643877529
2.244662117
1.938106073
1.700434794
1.515724176
1.374011745
1.267202098
1.186757505
1.125504475
1.079015618
1.044963584
1.021523454
1.006490895
0.9974525455
0.9923076726
0.9895357528
0.9881558221
0.9875883629
0.9871424402
0.9865497337
0.985821545
0.9855134574
0.9854181262
0.9854309264
0.985508221
0.9856369571
0.9858210065
0.9860762405
0.9864307972
0.9869298357
0.987646842
0.9887090311
0.9903596272
0.9931844855
955254.6437
425460.0778
241850.8495
145554.7178
56332.89221
11855.85392
2907.369177
1405.789904
830.9646736
506.9652872
315.0336061
199.638218
128.646771
84.92975849
59.34842623
43.01957707
30.9908159
22.42442444
16.65008232
12.52143273
9.526962186
7.34455375
5.743815574
4.562784251
3.686450569
3.032223422
2.540387259
2.167435616
1.881479551
1.659620809
1.486643752
1.353451999
1.252716236
1.176722213
1.118767319
1.074695201
1.04235036
1.020048247
1.005721608
0.9970887936
0.9921594959
0.9894931766
0.9881590208
0.9876041544
0.9871364323
0.9865231581
0.985832245
0.9855469136
0.9854628418
0.9854826825
0.9855658944
0.9857006435
0.9858911869
0.986153405
0.9865152667
0.9870216844
0.9877459209
0.9888152304
0.9904736607
0.9933098326
953746.9378
434221.7698
249217.7246
131905.7794
42900.72974
8693.326463
2607.86688
1364.646311
810.6838654
494.8943982
307.7686783
194.7719443
125.3354276
82.65702174
57.80719275
41.66073997
29.83076297
21.48102465
15.90272275
11.92481693
9.054148136
6.970886005
5.450633754
4.335380481
3.512275859
2.900412741
2.441789669
2.094587686
1.82841526
1.621541391
1.459593823
1.33436701
1.23926886
1.167377053
1.112454215
1.07061267
1.039857579
1.018626512
1.004971229
0.9967281488
0.9920084961
0.9894465572
0.9881590866
0.9876169184
0.9871286043
0.9864919839
0.9858422539
0.9855790502
0.9855060876
0.9855329705
0.9856221596
0.9857630329
0.9859602583
0.986229762
0.9865993833
0.9871138195
0.9878461115
0.9889234449
0.9905902312
0.9934355949
949834.8228
441772.0279
250814.6752
113835.8096
32034.31148
6709.442213
2410.233977
1322.063869
787.912897
481.2025435
299.1607077
189.3063248
121.6197746
80.11918998
56.05531151
40.13695117
28.55800448
20.47423062
15.11419276
11.3048823
8.568286559
6.592228134
5.158837244
4.113385641
3.345223274
2.775820816
2.349607143
2.026966751
1.77934429
1.586383927
1.434699755
1.316757968
1.226846724
1.158712892
1.106564453
1.066773263
1.037492548
1.017264946
1.004244776
0.9963739118
0.9918566189
0.9893968862
0.9881564699
0.9876262768
0.9871187912
0.9864561815
0.9858519757
0.9856101164
0.9855480542
0.9855819708
0.9856772066
0.98582433
0.986028436
0.9863055283
0.9866833523
0.9872064184
0.9879475437
0.989033736
0.9907093183
0.9935617694
944089.247
445776.4061
242544.9032
98561.25667
24143.94072
5481.664101
2272.279281
1280.047596
763.6325761
466.3063988
289.6123983
183.0723661
117.5286798
77.33527696
54.09340474
38.45515528
27.18658549
19.41991703
14.29824081
10.67083508
8.077579591
6.216451258
4.875086695
3.901527112
3.188225635
2.660097406
2.264687874
1.964963557
1.734412497
1.554164309
1.41184908
1.300571974
1.215403676
1.150699243
1.101082978
1.063172687
1.035256517
1.015966637
1.003545276
0.9960283831
0.9917053759
0.9893450174
0.9881516428
0.9876320288
0.9871069235
0.9864221456
0.9858617182
0.9856403296
0.9855889225
0.9856298588
0.9857312197
0.9858847311
0.9860959253
0.9863809101
0.9867673686
0.9872996486
0.9880503383
0.989146155
0.9908308883
0.9936883368
937414.9309
444127.9907
226161.5743
82084.38642
18286.55143
4692.793175
2163.721324
1237.215123
737.752492
450.2131412
279.2342416
176.2200536
112.9741785
74.3256581
51.92526608
36.62758575
25.73565604
18.32792921
13.46710733
10.03240937
7.591370249
5.851836583
4.605234821
3.703242695
3.043056972
2.554035521
2.187302156
1.908603762
1.693550242
1.524784444
1.390942957
1.285722831
1.2048744
1.143293279
1.095986137
1.059800612
1.033146678
1.014732123
1.002874278
0.995693083
0.9915559153
0.9892916701
0.9881450676
0.9876341052
0.9870926727
0.986390917
0.9858717119
0.985669879
0.985628863
0.9856768038
0.9857843762
0.985944424
0.9861629211
0.9864561024
0.9868516159
0.9873936675
0.9881546062
0.9892607431
0.9909548957
0.9938152619
931177.6396
435641.8153
201684.6796
65819.23915
14010.17663
4157.734052
2065.796132
1192.704233
710.2497976
432.9872795
268.0963094
168.8514271
108.0485467
71.07874717
49.558181
34.67178882
24.22854335
17.22338529
12.63280421
9.400366659
7.119827695
5.505802678
4.353433874
3.520477993
2.910446973
2.45775058
2.117297249
1.857658135
1.65654191
1.498102462
1.371844642
1.272106112
1.195183992
1.136446051
1.091245691
1.056643162
1.031157626
1.013560197
1.002232259
0.9953689323
0.9914090863
0.9892374385
0.9881371786
0.9876325465
0.9870757667
0.9863626293
0.9858821272
0.98569893
0.9856680359
0.9857229682
0.9858368463
0.9860035874
0.9862296081
0.9865312889
0.9869362666
0.9874886209
0.9882604474
0.9893775306
0.9910812809
0.9939424952
926346.8578
420852.6124
176818.8007
52229.55902
11023.64609
3787.571521
1973.231568
1146.829737
681.5701476
414.8884485
256.3462159
161.0540712
102.8328214
67.63780184
47.004232
32.61295386
22.67990626
16.12644779
11.8080305
8.786932091
6.672626895
5.183667844
4.121946297
3.353940584
2.790369742
2.370907821
2.054258242
1.811747897
1.623103277
1.473859447
1.354399479
1.259610788
1.186255103
1.130107093
1.086831832
1.053684838
1.029282525
1.012448568
1.001618973
0.9950564159
0.9912655039
0.989182807
0.988128373
0.9876274709
0.9870560186
0.9863373166
0.9858930891
0.9857276281
0.9857065912
0.985768507
0.9858887918
0.9860623906
0.9862961599
0.9866066416
0.9870214807
0.9875846428
0.9883679499
0.9894965358
0.9912099675
0.9940699738
922495.1186
401280.7963
159088.7091
41533.35388
8954.824754
3517.096945
1885.465286
1098.274775
651.8584866
396.0072089
244.0421562
152.8723277
97.3637193
64.05905505
44.28339464
30.48569622
21.13118573
15.04618913
11.00655872
8.204437074
6.256881797
4.888191236
3.911466457
3.203449361
2.682297258
2.292896714
1.997624701
1.770418302
1.592877596
1.451823248
1.338447388
1.248125951
1.178011869
1.124226949
1.082714877
1.05090965
1.027513828
1.011394287
1.001033681
0.9947556988
0.9911255974
0.9891281637
0.9881190097
0.9876190466
0.9870333084
0.9863149457
0.9859046892
0.9857561016
0.985744669
0.9858135669
0.9859403662
0.9861209931
0.9863627394
0.9866823206
0.9871074063
0.9876818546
0.9884771896
0.9896177638
0.9913408618
0.9941976218
917795.3675
379013.9545
142256.216
32808.72508
7506.18781
3303.263057
1799.859849
1048.521296
621.2604011
376.4567579
231.2770609
144.3823598
91.73863599
60.39030187
41.43377091
28.33582396
19.61526918
13.99676467
10.24334186
7.662928037
5.876363253
4.620142701
3.721660528
3.068274282
2.585416311
2.222972003
1.946781413
1.733200101
1.565527816
1.431763248
1.323833062
1.237546255
1.170383059
1.118759189
1.078866652
1.048302064
1.025843892
1.010394123
1.000475363
0.9944667338
0.9909896592
0.9890738167
0.9881094132
0.987607473
0.9870075658
0.9862954411
0.9859169946
0.9857844652
0.9857824
0.9858582862
0.9859917138
0.9861795443
0.9864294982
0.986758474
0.9871941782
0.9877803646
0.9885882283
0.9897412046
0.9914738571
0.9943253514
912417.543
350712.6431
123304.0482
25566.26497
6473.819684
3115.353647
1715.524658
997.902433
590.088083
356.4583285
218.2055253
135.7337796
86.09150559
56.64811872
38.50930776
26.20056998
18.16050902
12.99411957
9.532013792
7.168015864
5.531979887
4.378949261
3.551518228
2.947341442
2.49875789
2.160334474
1.901107474
1.699629955
1.540729603
1.413459768
1.310410414
1.227773934
1.163303088
1.113661058
1.075260991
1.045847391
1.02426527
1.009444757
0.999942838
0.9941893274
0.9908578768
0.9890200047
0.9880998804
0.9875929677
0.9869787516
0.9862787029
0.985930055
0.9858128215
0.9858199054
0.9859027946
0.9860429698
0.9862381834
0.9864965763
0.9868352373
0.9872819182
0.9878802671
0.9887011136
0.9898668332
0.991608835
0.9944530638
904731.5261
328641.9934
106167.9701
19894.78645
5757.922999
2949.686638
1632.210953
947.2897005
558.8568872
336.3134956
205.1392106
127.1619239
80.36751886
52.84062655
35.57745153
24.14434931
16.78942775
12.05458853
8.881627941
6.721133172
5.222838578
4.163217858
3.399624977
2.839399081
2.421298708
2.104190276
1.860009168
1.669278525
1.518182652
1.396710271
1.298045578
1.218720127
1.156712657
1.108893888
1.071874076
1.043532077
1.022770928
1.008542939
0.9994348627
0.9939231962
0.9907303618
0.988966907
0.9880906901
0.9875757587
0.986946839
0.9862646185
0.9859439079
0.9858412628
0.9858572975
0.9859472128
0.9860942602
0.9862970391
0.9865641026
0.9869127335
0.9873707347
0.9879816421
0.988815878
0.9899946086
0.9917456609
0.9945806506
893430.1149
317268.0091
89400.28927
15608.88508
5271.704477
2801.065386
1548.845402
897.5163624
528.0005897
316.7442986
192.2150946
118.5160654
74.62860128
48.95628443
32.71534322
22.2164676
15.51882213
11.19209213
8.295321595
6.321020976
4.947000292
3.971065764
3.264353549
2.743133868
2.352027429
2.05378585
1.822938338
1.641755155
1.497615472
1.381331892
1.286617985
1.210305182
1.1505588
1.104423134
1.068684521
1.041343817
1.02135437
1.007685579
0.9989501935
0.9936680056
0.9906071713
0.9889146507
0.9880821131
0.9875560816
0.986911797
0.9862530716
0.9859585817
0.9858698722
0.98589468
0.9859916529
0.9861457011
0.9863562297
0.9866321938
0.9869910727
0.9874607214
0.9880845544
0.9889325379
0.9901244729
0.9918841818
0.9947079953
877801.9809
313163.766
72838.41784
12713.18463
4950.057803
2666.137829
1469.553637
850.1603009
498.5706266
297.2307848
179.2239356
109.8790043
68.95303144
45.08965836
30.00149379
20.43877112
14.35987408
10.41422123
7.771852774
5.965019969
4.70195748
3.800375715
3.144019025
2.657260137
2.289992133
2.008431175
1.789402265
1.61671259
1.47878776
1.367162753
1.276020953
1.202458814
1.144794887
1.100218386
1.065673432
1.039271653
1.020009722
1.006869825
0.9984876405
0.9934234026
0.9904883276
0.9888633164
0.9880715315
0.9875341799
0.9868735726
0.9862439473
0.9859740985
0.9858987247
0.9859321476
0.9860362176
0.9861973986
0.9864158623
0.9867009546
0.9870703511
0.9875519577
0.9881890527
0.9890510923
0.9902563491
0.9920242309
0.9948349718
857926.6199
297948.7074
56947.83068
10872.10322
4704.946308
2531.423958
1396.607927
804.1851375
469.1439815
277.6885263
166.2515931
101.3535734
63.43530995
41.35304769
27.49798625
18.82913249
13.3183062
9.721047261
7.307454447
5.649630619
4.484854624
3.648924957
3.036949935
2.580553047
2.234311762
1.967500483
1.758960277
1.593842837
1.461487004
1.354059544
1.266159944
1.195118822
1.139379729
1.096252791
1.062824078
1.037305804
1.018731675
1.006093048
0.9980460734
0.9931890258
0.9903738274
0.9888130544
0.9880581525
0.9875103082
0.9868320735
0.9862371349
0.9859904753
0.9859278876
0.9859697867
0.9860810005
0.9862494491
0.9864760328
0.9867704771
0.9871506512
0.9876445071
0.9882951689
0.9891715221
0.9903901415
0.9921656475
0.9949614423
834024.7867
273768.2727
43027.65885
9716.045162
4486.212721
2406.330183
1324.560695
758.6547204
439.8696232
258.2536623
153.4469484
93.08183499
58.18284776
37.85515304
25.23958805
17.39209453
12.38939892
9.107985209
6.897300875
5.371014338
4.292765764
3.514545123
2.941574153
2.511891042
2.184195029
1.930439371
1.731225542
1.57287702
1.445527996
1.341897197
1.25695234
1.18823087
1.134277391
1.092502939
1.060121848
1.035437679
1.017515515
1.005352876
0.9976244469
0.992964523
0.9902636496
0.9887640228
0.9880422066
0.9874847397
0.9867871492
0.9862325295
0.9860077254
0.985957421
0.9860076753
0.9861260859
0.9863019387
0.9865368259
0.9868408408
0.9872320412
0.9877384176
0.9884029178
0.9892937896
0.9905257379
0.9923082647
0.9950872583
806575.8497
242124.9795
32156.25188
9050.157323
4287.07709
2284.265819
1254.115996
713.9942965
410.9996567
239.1266797
141.0093694
85.22240159
53.29318675
34.67222588
23.23391698
16.1222489
11.56945129
8.568353246
6.536119536
5.125248506
4.122835064
3.395192731
2.856448651
2.450264461
2.13893945
1.896760439
1.705860209
1.553581225
1.430749813
1.330566914
1.248326168
1.18174763
1.129456617
1.088948494
1.057554037
1.033659771
1.016357081
1.004647183
0.997221805
0.992749558
0.9901577618
0.9887163578
0.9880239073
0.9874577767
0.9867446844
0.986230033
0.9860258585
0.9859873781
0.9860458829
0.9861715489
0.986354943
0.9865983147
0.9869121118
0.9873145744
0.9878337204
0.9885122955
0.989417837
0.9906630084
0.9924518871
0.9952122661
775661.7412
205383.7086
24887.2541
8597.196612
4091.904204
2166.262195
1185.6942
670.4506246
382.7145386
220.5077021
129.1470993
77.91106358
48.83191298
31.83529867
21.46987837
15.00758308
10.84993594
8.094680816
6.218502384
4.908484748
3.972355179
3.288980814
2.78026688
2.394772159
2.097924401
1.866036106
1.682569289
1.535751807
1.417012473
1.31997395
1.240218668
1.17562784
1.124890198
1.085571785
1.055109604
1.031965522
1.0152527
1.003974069
0.9968372757
0.9925438119
0.9900561234
0.9886701835
0.9880034498
0.9874295067
0.9867068526
0.9862295534
0.9860448811
0.9860178052
0.9860844707
0.9862174552
0.986408527
0.9866605601
0.9869843429
0.9873982887
0.9879304296
0.9886232794
0.9895435864
0.990801805
0.9925963039
0.9953363064
740905.6764
167710.6535
20610.90353
8187.68547
3896.078903
2053.487083
1119.881789
628.3539813
355.266389
202.6683283
118.0798406
71.25201407
44.83205448
29.34281027
19.92892754
14.03391457
10.22079255
7.679666616
5.939352344
4.717191441
3.838894163
3.194242172
2.711888632
2.344634663
2.060616355
1.837900315
1.661100927
1.519215186
1.404196734
1.310037558
1.232576319
1.169836316
1.120554969
1.082357802
1.052779171
1.030349342
1.014199212
1.003331875
0.9964700844
0.9923469929
0.989958693
0.9886256234
0.9879810213
0.9873999181
0.9866733603
0.9862310045
0.9860647964
0.9860487418
0.9861234914
0.9862638604
0.9864627448
0.9867236105
0.9870575722
0.9874832057
0.9880285407
0.9887358267
0.9896709385
0.9909419601
0.9927412912
0.9954592127
701950.9602
134090.5719
17905.38405
7790.019603
3710.701775
1946.16945
1056.822977
587.8256273
328.8447231
185.8600915
107.9597824
65.28846574
41.27478087
27.17010699
18.58771867
13.1853698
9.671278938
7.316020652
5.69374017
4.548038191
3.720203001
3.109457446
2.65028584
2.299154436
2.026540341
1.812028341
1.641232253
1.503818021
1.392197344
1.300686435
1.225351828
1.164341984
1.11643052
1.079293363
1.050554511
1.028806301
1.013193805
1.002719104
0.9961195193
0.9921588219
0.9898654242
0.9885828086
0.9879568061
0.9873689782
0.9866439388
0.9862343052
0.9860856045
0.9860802206
0.9861629891
0.9863108106
0.9865176391
0.9867875015
0.9871318235
0.9875693302
0.9881280311
0.9888498739
0.9897997726
0.9910832876
0.9928866105
0.9955808151
659223.2778
105037.2527
16251.88669
7429.879954
3536.413502
1844.923299
996.8238926
549.0795768
303.7290607
170.3409257
98.87987658
60.02599802
38.15867241
25.28528665
17.42311349
12.44674167
9.191345766
6.99707724
5.477233355
4.398070702
3.614307749
3.033303545
2.594568235
2.257729747
1.995287685
1.788141275
1.622772112
1.489428962
1.380924252
1.291859634
1.218504806
1.159118342
1.112499496
1.076367307
1.04842867
1.027332217
1.012234065
1.002134456
0.9957849504
0.9919790441
0.9897762713
0.9885418905
0.9879309916
0.9873366188
0.9866183428
0.9862393788
0.9861073016
0.9861122673
0.9862029988
0.9863583412
0.9865732406
0.9868522549
0.9872071045
0.987656649
0.9882288574
0.9889653348
0.9899299442
0.9912255806
0.9930320091
0.9957009392
612800.0069
80887.23436
15166.28368
7108.750429
3373.722295
1750.2927
940.1730093
512.3327931
280.2198911
156.2923094
90.85807704
55.43234182
35.45366138
23.65417435
16.41278349
11.80372645
8.771741605
6.716809755
5.285882809
4.264687563
3.519485874
2.964633678
2.543968015
2.219843568
1.966508244
1.766000747
1.605557518
1.475936303
1.370301082
1.283505606
1.21200119
1.154143113
1.108747389
1.073570364
1.046395895
1.025923618
1.011317967
1.001576823
0.995465833
0.991807432
0.9896911898
0.9885030535
0.9879037763
0.9873027194
0.9865963475
0.986246151
0.9861298788
0.9861448985
0.9862435446
0.9864064744
0.9866295648
0.9869178749
0.9872834027
0.9877451258
0.9883309507
0.9890820955
0.99006128
0.991368606
0.9931772147
0.9958194
562314.3045
62041.66387
14481.89654
6826.700201
3223.219707
1662.703803
887.1240687
477.8039733
258.5898673
143.7891564
83.85266523
51.4512373
33.11619358
22.24366602
15.53600365
11.24327367
8.404149984
6.469867135
5.116216723
4.145619151
3.434242892
2.902456775
2.497823417
2.185051101
1.939901197
1.745402203
1.589448787
1.463244456
1.360262598
1.275580403
1.205811996
1.149397382
1.105161923
1.07089473
1.044451344
1.024577556
1.010443766
1.00104523
0.9951616774
0.9916437703
0.989610127
0.9884665259
0.9878753793
0.9872670842
0.9865777445
0.9862545499
0.9861533231
0.9861781235
0.9862846412
0.9864552221
0.9866866151
0.986984352
0.9873606898
0.9878347067
0.9884342221
0.9892000199
0.9901935855
0.9915121131
0.9933219451
0.9959360102
506284.3156
49174.8043
14160.93617
6553.988019
3085.192909
1582.133619
837.701255
445.6162664
238.9832912
132.7874085
77.77251362
48.00968753
31.09654444
21.02158351
14.7730923
10.75316586
8.080879165
6.251348979
4.965080186
4.038814938
3.357234191
2.845883772
2.455542023
2.152954771
1.91519803
1.726163337
1.574321673
1.451268621
1.350751123
1.268045317
1.199911785
1.144864603
1.101732431
1.06833367
1.042590848
1.023291476
1.009609924
1.000538809
0.994872037
0.9914878522
0.9895330139
0.988432595
0.987846057
0.9872294164
0.9865623399
0.9862645048
0.9861776171
0.9862119445
0.9863262939
0.9865045845
0.9867443814
0.9870516607
0.9874389193
0.9879253168
0.9885385601
0.9893189476
0.9903266419
0.9916558319
0.9934659046
0.9960505819
443817.1809
40828.76396
14010.29863
6284.196319
2959.249841
1508.386317
791.856265
415.8732313
221.439667
123.1830887
72.51257273
45.03585523
29.34893546
19.9599913
14.10714009
10.32298785
7.795415645
6.057128142
4.82982763
3.942561235
3.28733905
2.794175319
2.4166322
2.123225339
1.892176937
1.708134005
1.560074225
1.439939528
1.341719792
1.260869089
1.194280146
1.140531585
1.098450474
1.065881907
1.040811147
1.022063349
1.008815192
1.000056831
0.9945965287
0.9913394884
0.9894597581
0.9884016274
0.98781613
0.9871892842
0.9865499524
0.9862759454
0.9862027373
0.9862463543
0.9863684969
0.986554549
0.9868028388
0.9871197585
0.9875180252
0.9880168597
0.988643829
0.9894386918
0.9904602065
0.9917994718
0.9936087832
0.9961629354
373417.3911
35576.04107
13929.73401
6044.047955
2846.18693
1441.687405
749.6987894
388.7086445
205.9172601
114.8430876
67.96704909
42.46309755
27.83259046
19.03456626
13.5234808
9.943735564
7.542144116
5.883654317
4.708186707
3.855387551
3.223596412
2.746697715
2.380672792
2.095581004
1.870648349
1.691186182
1.546619811
1.429198611
1.333129255
1.254025703
1.188900245
1.136387539
1.095309232
1.063535233
1.039109647
1.020891538
1.008058531
0.9995986792
0.9943348199
0.991198503
0.9893902227
0.9883740899
0.9877860236
0.9871460762
0.9865404111
0.9862888006
0.9862286545
0.9862813367
0.9864112328
0.9866050888
0.9868619458
0.987188584
0.9875979199
0.9881092145
0.988749866
0.989559038
0.9905940106
0.9919427197
0.9937502567
0.9962728929
292348.0136
32336.21392
13861.56256
5830.142305
2744.820583
1381.381354
710.9009529
364.0021242
192.2166027
107.5697628
64.01661557
40.22339286
26.50836522
18.22249049
13.00853923
9.607165096
7.315968855
5.727729088
4.598122733
3.775984183
3.165154516
2.702892046
2.347294264
2.069775972
1.850448045
1.675209859
1.533884716
1.418996615
1.324946877
1.247493932
1.183758599
1.132423994
1.09230349
1.061290521
1.037484452
1.019774828
1.007339147
0.9991638654
0.994086644
0.9910647461
0.9893241994
0.9883505754
0.9877563336
0.9870998247
0.9865335538
0.9863029958
0.9862553288
0.9863168609
0.9864544662
0.9866561565
0.9869216369
0.9872580479
0.9876784838
0.9882022247
0.9888564692
0.9896797299
0.9907277451
0.9920852242
0.9938899732
0.9963802637
193880.7923
30573.03484
13773.19435
5644.170297
2655.962157
1327.664456
675.4838069
341.7238147
180.073973
101.2292892
60.57398502
38.26534394
25.34582171
17.5059415
12.55165423
9.306774643
7.112857567
5.586814908
4.498018291
3.703308739
3.111335072
2.662313359
2.31620282
2.045615358
1.831446339
1.660118674
1.52181154
1.40929561
1.317147899
1.241257982
1.17884538
1.128634889
1.089429609
1.059145653
1.035934273
1.018712345
1.006656425
0.9987519928
0.9938517766
0.9909380882
0.9892613514
0.988327227
0.9877278365
0.9870588069
0.9865292249
0.9863184544
0.9862827144
0.986352887
0.9864981506
0.9867076911
0.9869818308
0.9873280428
0.9877595773
0.988295712
0.9889634131
0.9898004884
0.9908610807
0.9922266166
0.9940275793
0.9964848639
62072.79501
29975.73209
13556.73998
5484.03834
2578.736098
1279.930664
641.7238636
321.0102623
169.3244199
95.66060975
57.54703483
36.53806704
24.31616665
16.86830785
12.14300059
9.036627346
6.929156539
5.458627547
4.40642598
3.636433555
3.061537759
2.624570131
2.287141646
2.022930084
1.813531712
1.645839147
1.510352068
1.400064231
1.309712234
1.235305332
1.174152995
1.125015671
1.086684958
1.057099156
1.03445821
1.017703434
1.006009871
0.9983627278
0.9936300267
0.9908184368
0.9892016413
0.9883038949
0.987700662
0.9870227139
0.9865272737
0.9863350965
0.9863107574
0.9863893643
0.986542226
0.9867596157
0.9870424278
0.9873984405
0.9878410373