/*--------------------------------*- C++ -*----------------------------------*\
  =========                 |
  \\      /  F ield         | OpenFOAM: The Open Source CFD Toolbox
   \\    /   O peration     | Website:  https://openfoam.org
    \\  /    A nd           | Version:  12
     \\/     M anipulation  |
\*---------------------------------------------------------------------------*/
FoamFile
{
    format      ascii;
    class       surfaceScalarField;
    location    "900";
    object      phi;
}
// * * * * * * * * * * * * * * * * * * * * * * * * * * * * * * * * * * * * * //

dimensions      [1 0 -1 0 0 0 0];

internalField   nonuniform List<scalar> 
32120
(
-0.0006237645537
-0.04525901212
0.04588277667
-0.001396065853
-0.06433219841
0.0651045005
-0.002347115844
-0.08365206296
0.08460311349
-0.003493251516
-0.1063300696
0.1074762059
-0.004761004449
-0.1342865649
0.1355543186
-0.005943080595
-0.1699608364
0.1711429135
-0.00696631449
-0.2162157253
0.2172389607
-0.009837486025
-0.2727707203
0.2756418944
-0.01750611049
-0.3311716811
0.3388403096
-0.0279660454
-0.3948368169
0.4052967573
-0.04042673777
-0.4699737238
0.4824344231
-0.05521752025
-0.5595329859
0.5743237768
-0.07279786406
-0.6660831628
0.6836635164
-0.09369470755
-0.7929622102
0.8138590651
-0.1185266935
-0.9439539789
0.968785978
-0.1480340776
-1.123688608
1.153196007
-0.1830898205
-1.337576827
1.372632587
-0.2247351658
-1.592109136
1.633754499
-0.2742032769
-1.89494956
1.944417691
-0.3329629246
-2.255218083
2.313977752
-0.4027597967
-2.683707656
2.75350455
-0.4856754023
-3.193206535
3.276122165
-0.5841939545
-3.798825873
3.897344448
-0.7012900104
-4.518398941
4.635495021
-0.8405351519
-5.372920914
5.512166073
-1.006233011
-6.38705542
6.552753299
-1.203586105
-7.589711458
7.787064564
-1.438893771
-9.014728177
9.250035854
-1.71976843
-10.70172995
10.98260462
-2.055336174
-12.6972667
13.03283447
-2.456377115
-15.05639886
15.45743983
-2.935376979
-17.84489825
18.32389815
-3.506535924
-21.14213243
21.71329142
-4.185872579
-25.0445073
25.723844
-4.991577636
-29.66922134
30.47492644
-5.944663439
-35.15820039
36.11128623
-7.069811155
-41.68232759
42.80747535
-8.396235505
-49.44627591
50.77270032
-9.958410654
-58.69427115
60.25644633
-11.79657093
-69.71711799
71.55527833
-13.95697218
-82.86078656
85.02118783
-16.4918905
-98.53694468
101.0718631
-19.45928297
-117.2358014
120.2031938
-22.92192971
-139.541742
143.0043888
-26.94572975
-166.1522693
170.1760693
-31.59666312
-197.9009394
202.5518728
-36.93568684
-235.7850957
241.1241195
-43.01052083
-280.9995076
287.0743416
-49.8428186
-334.9772761
341.8095739
-57.40855662
-399.4397843
407.0055223
-65.60853184
-476.4579429
484.6579181
-74.22452273
-568.5276404
577.1436313
-82.85470923
-678.6632077
687.2933942
-90.81927011
-810.5137791
818.47834
-97.02313879
-968.5091923
974.713061
-99.75732804
-1158.044047
1160.778236
-96.41262721
-1385.712566
1382.367865
-83.06697802
-1659.609729
1646.26408
-53.89481363
-1989.701724
1960.529559
-2388.361028
2334.788004
-0.0005483450919
-0.04471066666
-0.001236697057
-0.06364384564
-0.002076210616
-0.08281254876
-0.003068460629
-0.1053378189
-0.004145426532
-0.133209598
-0.005151470398
-0.168954791
-0.006124025293
-0.2152431679
-0.01003191134
-0.2688628304
-0.01753366815
-0.3236699189
-0.0268133669
-0.3855571111
-0.03784362934
-0.4589434528
-0.05097033105
-0.5464062742
-0.06658476377
-0.6504687185
-0.08516172639
-0.7743852343
-0.1072573988
-0.9218582913
-0.1335398576
-1.097406132
-0.1647961399
-1.306320526
-0.2019662089
-1.554939046
-0.2461630369
-1.850752709
-0.2987133901
-2.202667705
-0.3611964168
-2.621224604
-0.4355002394
-3.118902686
-0.5238877163
-3.710438373
-0.6290826462
-4.413203986
-0.7543779957
-5.247625546
-0.9037748682
-6.237658527
-1.082154161
-7.411332153
-1.295473871
-8.801408448
-1.55096844
-10.44623535
-1.857306652
-12.39092845
-2.224650987
-14.68905447
-2.664598346
-17.40495079
-3.19008847
-20.61664224
-3.815468694
-24.41912692
-4.556871574
-28.92781843
-5.43290685
-34.28216486
-6.465523814
-40.6497106
-7.680856153
-48.23094323
-9.109913673
-57.26521362
-10.78905528
-68.03797603
-12.76022983
-80.88961201
-15.0709679
-96.22620635
-17.77405677
-114.5327126
-20.92673837
-136.3890603
-24.58914024
-162.4898674
-28.82150543
-193.6685741
-33.6795527
-230.9270484
-39.20702172
-275.4720385
-45.42403583
-328.7602619
-52.30931518
-392.5545049
-59.77341829
-468.9938397
-67.61895997
-560.6820987
-75.48204817
-670.8001194
-82.74659083
-803.2492365
-88.41977545
-962.8360076
-90.95178531
-1155.512037
-87.97594792
-1388.688404
-75.93440737
-1671.65127
-49.54180535
-2016.094326
-2436.884187
-0.0004244018823
-0.04428626426
-0.0009413522532
-0.06312689423
-0.001557447908
-0.08219645225
-0.002239356339
-0.1046559095
-0.00287369315
-0.1325752599
-0.003339067743
-0.1684894143
-0.004045739242
-0.214536493
-0.008216854357
-0.2646917101
-0.01503139376
-0.3168553723
-0.02330054076
-0.3772879551
-0.033127056
-0.4491169268
-0.04481876244
-0.5347145552
-0.05872455377
-0.6365629127
-0.07526786176
-0.7578419098
-0.09494210053
-0.9021840339
-0.1183417529
-1.074006459
-0.1461668922
-1.278495363
-0.1792558713
-1.521850042
-0.2186044051
-1.81140415
-0.2654046962
-2.155867387
-0.3210831261
-2.565546148
-0.3873549213
-3.052630864
-0.4662893196
-3.631503952
-0.5603975602
-4.319095722
-0.6727471094
-5.135275982
-0.8071086713
-6.103296949
-0.9681306745
-7.250310143
-1.16152617
-8.608012944
-1.394236799
-10.21352471
-1.674516288
-12.11064893
-2.011875402
-14.35169533
-2.416912558
-16.99991359
-2.901187986
-20.13236679
-3.477346432
-23.84296842
-4.159586422
-28.24557843
-4.964397865
-33.47735335
-5.911395616
-39.70271285
-7.024088204
-47.11825056
-8.330488584
-55.95881325
-9.863533335
-66.50493119
-11.66129844
-79.09184692
-13.76699413
-94.12051059
-16.22866958
-112.0710371
-19.09847842
-133.5192514
-22.4312541
-159.1570918
-26.28198756
-189.8178406
-30.70162081
-226.5074152
-35.73029236
-270.4433669
-41.386794
-323.1037603
-47.65245464
-386.2888442
-54.44689935
-462.199395
-61.5920059
-553.5369922
-68.75881591
-663.6333094
-75.38989373
-796.6181586
-80.58643426
-957.6394671
-82.94487224
-1153.153599
-80.32130075
-1391.311975
-69.4922095
-1682.480361
-45.66811717
-2039.918418
-2480.753585
-0.0003148581884
-0.04397140552
-0.0006879524194
-0.06275379896
-0.00111944769
-0.0817649561
-0.001543670166
-0.104231686
-0.001790812128
-0.1323281164
-0.001738015891
-0.1685422082
-0.002682404948
-0.2135921002
-0.006975782208
-0.2603983274
-0.01308272414
-0.3107484231
-0.02037891347
-0.3699917569
-0.02904907057
-0.4404467592
-0.03936552202
-0.5243980916
-0.05163378487
-0.6242946359
-0.06622952279
-0.7432461559
-0.08358940654
-0.8848241322
-0.1042423674
-1.053353478
-0.1288126033
-1.253925106
-0.1580503369
-1.492612284
-0.1928495668
-1.776604895
-0.2342843555
-2.114432572
-0.2836455939
-2.516184885
-0.3424957737
-2.993780658
-0.4127383488
-3.561261357
-0.496713175
-4.235120874
-0.5973194684
-5.034669676
-0.718166407
-5.982449998
-0.8637422285
-7.104734315
-1.039577714
-8.432177454
-1.252352612
-10.0007498
-1.509873601
-11.85312793
-1.820895426
-14.04067349
-2.194888777
-16.62592022
-2.641965731
-19.68528982
-3.173128264
-23.31180585
-3.800836774
-27.6178699
-4.539756999
-32.73843307
-5.407519091
-38.83495074
-6.425377824
-46.10039176
-7.618729077
-54.76546198
-9.017467382
-65.10619282
-10.65618376
-77.45313055
-12.57416627
-92.20252804
-14.81514202
-109.8300614
-17.42661801
-130.9077754
-20.45859111
-156.1251187
-23.96126633
-186.3151653
-27.98125078
-222.4874307
-32.55544247
-265.8691752
-37.70149365
-317.9577091
-43.4032336
-380.5871043
-49.58873524
-456.0138934
-56.09770194
-547.0280255
-62.63340937
-657.097602
-68.69246691
-790.5591011
-73.46257243
-952.8693616
-75.67464265
-1150.941529
-73.38949664
-1393.597121
-63.69078726
-1692.17907
-42.2444557
-2061.36475
-2520.328267
-0.00021351898
-0.04375788584
-0.0004437070039
-0.06252360983
-0.0006861528608
-0.08152250927
-0.0008535788008
-0.1040642589
-0.000737050217
-0.1324446433
-0.0001927891986
-0.1690864665
-0.001509465513
-0.2122754197
-0.005592593128
-0.2563151937
-0.01094454988
-0.3053964586
-0.01731199114
-0.3636243062
-0.02488573886
-0.4328730006
-0.03390499118
-0.5153788267
-0.0446384034
-0.6135612092
-0.05741917738
-0.7304653656
-0.07263349944
-0.8696097919
-0.09075044805
-1.035236509
-0.1123239341
-1.232351598
-0.1380210936
-1.466915102
-0.1686401048
-1.745985861
-0.2051460172
-2.077926635
-0.2487107082
-2.472620172
-0.3007716181
-2.941719725
-0.3631077118
-3.498925246
-0.4379406194
-4.160287947
-0.5280612192
-4.944549066
-0.6369792135
-5.873531993
-0.7690801069
-6.972633415
-0.9297479152
-8.271509641
-1.125382161
-9.805115545
-1.363246901
-11.61526317
-1.651196906
-13.75272346
-1.997464582
-16.27965251
-2.410717079
-19.2720373
-2.900452681
-22.82207022
-3.477636505
-27.04068606
-4.155405717
-32.06066382
-4.949718873
-38.04063757
-5.879894414
-45.17021617
-6.969031856
-53.67632453
-8.244316054
-63.83090858
-9.737195912
-75.96025068
-11.48340039
-90.45632353
-13.52271952
-107.7907423
-15.89842096
-128.532074
-18.65609164
-153.367448
-21.8415835
-183.1296735
-25.49757766
-218.8314365
-29.65806989
-261.708683
-34.33975762
-313.2760214
-39.52888137
-375.3979805
-45.16140708
-450.3813677
-51.0935664
-541.0958661
-57.05845373
-651.1327147
-62.60248643
-785.0150684
-66.99307935
-948.4787687
-69.08491227
-1148.849696
-67.12712248
-1395.554911
-58.48575456
-1700.820438
-39.24530156
-2080.605203
-2555.933328
-0.0001350220009
-0.04362286318
-0.0002399960414
-0.0624186348
-0.0003062769774
-0.08145622744
-0.0002147921336
-0.1041557426
0.0002610870304
-0.1329205208
0.001043155828
-0.1698685327
-0.0005336672765
-0.2106985926
-0.004088689501
-0.252760166
-0.008750792521
-0.3007343487
-0.01429937837
-0.3580757123
-0.02089899588
-0.4262733736
-0.02875900198
-0.5075188097
-0.03811236408
-0.6042078347
-0.04925054926
-0.7193271664
-0.06251088875
-0.8563494368
-0.07830506711
-1.019442314
-0.09712192923
-1.213534718
-0.1195547948
-1.444482216
-0.1463214631
-1.719219173
-0.1783009616
-2.045947116
-0.2165767517
-2.434344364
-0.2624981954
-2.895798262
-0.3177612129
-3.443662214
-0.384514372
-4.093534772
-0.4654897904
-4.863573638
-0.5641488609
-5.774872914
-0.6848117908
-6.851970477
-0.8327086139
-8.123612808
-1.013874502
-9.623949646
-1.234881845
-11.39425581
-1.502544294
-13.485061
-1.823814475
-15.95838231
-2.206013201
-18.88983856
-2.657346095
-22.37073731
-3.187545561
-26.51048658
-3.80848897
-31.43972039
-4.534721436
-37.31440508
-5.383878545
-44.32105903
-6.377024764
-52.68317829
-7.538915555
-62.66901775
-8.898162836
-74.60100339
-10.48726772
-88.86721863
-12.34244095
-105.935569
-14.5030927
-126.3714222
-17.01080376
-150.8597369
-19.90747905
-180.2329982
-23.23225988
-215.5066557
-27.01655798
-257.9243849
-31.27630105
-309.0162783
-36.00006761
-370.674214
-41.13123343
-445.2502018
-46.54140123
-535.6856983
-51.9912448
-645.6828711
-57.07323259
-779.9330806
-61.12828424
-944.423717
-63.12510628
-1146.852874
-61.48622931
-1397.193788
-53.8375309
-1708.469137
-36.64849612
-2097.794238
-2587.862567
-6.833260223e-05
-0.04355452995
-5.572127217e-05
-0.06243124526
5.892206244e-05
-0.08157086995
0.0004379838639
-0.1045348033
0.001330548036
-0.1338130834
0.001999951991
-0.1705379342
0.0002594476544
-0.2089580846
-0.003082210411
-0.2494185032
-0.007085090278
-0.296731463
-0.01185072771
-0.3533100679
-0.01751872629
-0.420605367
-0.02427135787
-0.5007661689
-0.03230976766
-0.5961694145
-0.04188851723
-0.7097484051
-0.05330338306
-0.8449345581
-0.06691816517
-1.005827517
-0.08316907254
-1.197283795
-0.1025908774
-1.425060396
-0.1258388058
-1.695971229
-0.1537258678
-2.018060037
-0.1872694459
-2.400800771
-0.2277574746
-2.855310217
-0.2768367007
-3.394582976
-0.3366258732
-4.033745586
-0.4098473439
-4.790352159
-0.499954489
-5.684765762
-0.611205208
-6.740719747
-0.748606841
-7.986211163
-0.9176870636
-9.454869407
-1.124166237
-11.18777661
-1.373734465
-13.23549275
-1.672121966
-15.65999479
-2.025487558
-18.53647294
-2.440991866
-21.95523298
-2.92738542
-26.024093
-3.495510529
-30.87159526
-4.15870165
-36.65121395
-4.933109943
-43.54665071
-5.837978314
-51.7783099
-6.895870321
-61.61112572
-8.132831679
-73.36404202
-9.578435895
-87.42161439
-11.2656461
-104.2483588
-13.23037482
-124.4066935
-15.51057164
-148.5795401
-18.14457786
-177.5989919
-21.1683587
-212.4828749
-24.61104826
-254.4816953
-28.48798012
-305.1393464
-32.79002889
-366.3721652
-37.46754671
-440.572684
-42.40646652
-530.7467785
-47.39306768
-640.6962699
-52.06240903
-775.2637393
-55.82329783
-940.6628282
-57.74965858
-1144.926513
-56.42380584
-1398.519641
-49.71095891
-1715.181984
-34.4350411
-2113.070155
-2616.380887
-1.049093093e-05
-0.04354403851
0.0001096746969
-0.0625514102
0.0004094477831
-0.08187064237
0.001083349059
-0.1052087037
0.002380264515
-0.1351099975
0.00275963374
-0.1709173014
0.000792202537
-0.2069906506
-0.002172372652
-0.2464539243
-0.005553719092
-0.2933501121
-0.00958431249
-0.3492794693
-0.01438390454
-0.4158057689
-0.02011151992
-0.4950385466
-0.02694145415
-0.5893394724
-0.03509652198
-0.7015933284
-0.04483731728
-0.8351937531
-0.05648676002
-0.994178064
-0.07043652955
-1.183334015
-0.08717219981
-1.408324713
-0.10729794
-1.675845477
-0.1315764231
-1.993781542
-0.1609818431
-2.37139534
-0.1967738099
-2.819518238
-0.2405930506
-3.350763727
-0.2945760744
-3.979762551
-0.3614742134
-4.723454011
-0.4447403306
-5.601499637
-0.5485163185
-6.636943748
-0.6774580131
-7.857269453
-0.8364191099
-9.295908293
-1.030152165
-10.99404354
-1.263237581
-13.00240731
-1.540335884
-15.38289647
-1.866678951
-18.21012986
-2.248627564
-21.57328435
-2.694161749
-25.5785588
-3.213261948
-30.35249504
-3.818203757
-36.04627212
-4.523808071
-42.84104637
-5.347670918
-50.95444704
-6.31037154
-60.64842507
-7.435629077
-72.23878447
-8.750367564
-86.10687588
-10.28460952
-102.7141169
-12.0711039
-122.6201991
-14.14452382
-146.5061202
-16.54000742
-175.2035083
-19.29068964
-209.7321926
-22.42371622
-251.3486687
-25.95400848
-301.6090542
-29.87470617
-362.4514675
-34.1427686
-436.3046216
-38.65753395
-526.2320132
-43.22908839
-636.1247155
-47.5319868
-770.9608408
-51.03784662
-937.1569684
-52.91777156
-1143.046588
-51.90155681
-1399.535855
-46.07510768
-1721.008433
-32.58898326
-2126.55628
-2641.726517
4.345515294e-05
-0.04358749324
0.0002733143226
-0.06278126866
0.0007663431704
-0.08236367054
0.001727825087
-0.1061701848
0.003253742078
-0.1366359132
0.003279762742
-0.1709433201
0.001315794964
-0.2050266801
-0.001058717939
-0.2440794079
-0.003899677426
-0.2905091485
-0.007292113662
-0.3458870282
-0.01133350068
-0.4117643763
-0.01616137618
-0.4902106647
-0.02192614715
-0.5835746943
-0.0288222541
-0.6946972135
-0.03707978892
-0.8269362096
-0.04698682963
-0.9842710137
-0.05889869095
-1.171422143
-0.07326333333
-1.39396006
-0.09065062716
-1.658458173
-0.1117968532
-1.972635305
-0.1376649149
-2.345527269
-0.1695243096
-2.787658833
-0.2090492982
-3.31123873
-0.2584261728
-3.930385667
-0.3204434678
-4.661436705
-0.3985131064
-5.523429989
-0.4965518418
-6.538905001
-0.6187039813
-7.735117299
-0.7690108052
-9.145601451
-0.9512283503
-10.81182598
-1.16894225
-12.78469339
-1.425960395
-15.1258783
-1.72683005
-17.90926019
-2.077322584
-21.22279179
-2.48480844
-25.17107293
-2.958529617
-29.87877384
-3.509814415
-35.49498731
-4.152275929
-42.19858484
-4.902012157
-50.2047108
-5.777799687
-59.77263752
-6.801252114
-71.21533204
-7.996896064
-84.91123192
-9.392101083
-101.3189118
-11.01676445
-120.9955357
-12.90261717
-144.6202675
-15.08193425
-173.0241912
-17.58534576
-207.2287811
-20.43829123
-248.4957232
-23.65545503
-298.3918903
-27.23223902
-358.8746835
-31.1318912
-432.4049694
-35.26633131
-522.0975731
-39.46786162
-631.9231852
-43.44771642
-766.980986
-46.7357393
-933.8689455
-48.59295013
-1141.189377
-47.88545014
-1400.243355
-42.90289072
-1725.990992
-31.0972234
-2138.361947
-2664.112943
9.995809694e-05
-0.04368745102
0.000453056417
-0.06313436637
0.001157166106
-0.08306777965
0.002442460938
-0.1074554788
0.003943249529
-0.1381367007
0.0034265607
-0.1704266296
0.001787506885
-0.2033876241
-0.0001858243516
-0.242106074
-0.00252124874
-0.2881737208
-0.005317602463
-0.3430906707
-0.008656820565
-0.4084251538
-0.01265784035
-0.4862096399
-0.01745122847
-0.5787813005
-0.02320730467
-0.6889411309
-0.03013112802
-0.8200123793
-0.03848338956
-0.9759187446
-0.04859376105
-1.161311764
-0.06088819398
-1.381665619
-0.07592332483
-1.643423034
-0.09443537537
-1.954123245
-0.1174054358
-2.322557201
-0.1461423663
-2.758921894
-0.1823786005
-3.275002489
-0.2283591665
-3.884405093
-0.286883188
-4.602912673
-0.3612349167
-5.449078249
-0.454960972
-6.445178934
-0.5715445311
-7.618533725
-0.7141483744
-9.002997592
-0.8856043946
-10.64036994
-1.088694389
-12.58160338
-1.326610295
-14.88796238
-1.603428694
-17.63244177
-1.924490749
-20.90172973
-2.296667157
-24.79889651
-2.728545686
-29.4468953
-3.230590491
-34.99294249
-3.815308234
-41.61386708
-4.497429582
-49.52258944
-5.29409493
-58.97597215
-6.225012821
-70.28441414
-7.312549036
-83.82369569
-8.581685678
-100.0497752
-10.05976324
-119.5174581
-11.77588156
-142.9041491
-13.75977515
-171.0402976
-16.03988131
-204.9486749
-18.64019999
-245.8954046
-21.57536175
-295.4567286
-24.84304102
-355.6070042
-28.41250709
-428.8355033
-32.20754404
-518.3025361
-36.0812303
-628.0494989
-39.77897572
-763.2832406
-42.88470095
-930.7632203
-44.74279667
-1139.331282
-44.34550459
-1400.640648
-40.17090452
-1730.165592
-29.94939715
-2148.583455
-2683.73073
0.0001534489953
-0.04384089962
0.000636864492
-0.0636177812
0.001554698343
-0.08398561283
0.003165378781
-0.1090661584
0.004457365387
-0.139428686
0.003670240023
-0.1696395024
0.00233315923
-0.2020505409
0.0007363351059
-0.2405092469
-0.001160996001
-0.2862763863
-0.003438040358
-0.3408136223
-0.006162809874
-0.4057003797
-0.00943730429
-0.4829351403
-0.01337538657
-0.5748432125
-0.01812836506
-0.6841881461
-0.02388420327
-0.8142565343
-0.03088768036
-0.9689152602
-0.03945746657
-1.15274197
-0.05001495082
-1.371108127
-0.06312310232
-1.630314875
-0.07953968648
-1.937706653
-0.1002872831
-2.301809598
-0.1267362277
-2.732472942
-0.1606889284
-3.241049781
-0.2044341862
-3.840659828
-0.2607164066
-4.546630443
-0.3325670369
-5.377227607
-0.4230121214
-6.354733838
-0.5347781852
-7.506767648
-0.6701784579
-8.867597304
-0.8312785016
-10.47926988
-1.020281175
-12.39260069
-1.23997922
-14.66826432
-1.494142162
-17.37827882
-1.787787021
-20.60808485
-2.127353282
-24.45933023
-2.520830882
-29.05341769
-2.977886072
-34.53588729
-3.510008024
-41.08174511
-4.130680265
-48.90191719
-4.855559405
-58.251093
-5.702636737
-69.43733679
-6.692336871
-82.83399555
-7.847503627
-98.89460843
-9.193194957
-118.1717668
-10.75617675
-141.3411673
-12.56394521
-169.2325292
-14.64304016
-202.86958
-17.01628637
-243.5221583
-19.69843808
-292.7745769
-22.6894779
-352.6159644
-25.96447563
-425.5605056
-29.45844776
-514.808564
-33.04398705
-624.4639596
-36.4984311
-759.8287966
-39.4560403
-927.8056111
-41.33864622
-1137.448676
-41.25549508
-1400.723799
-37.85918096
-1733.561906
-29.1377649
-2157.304871
-2700.749122
0.0001997304658
-0.04404062971
0.0008211757722
-0.06423922579
0.001958516877
-0.08512295321
0.003772726198
-0.1108803668
0.004494266791
-0.1401502252
0.00378612847
-0.1689313622
0.002732383162
-0.2009967933
0.001484412332
-0.2392612732
-3.070510227e-06
-0.2847889
-0.001797472535
-0.3390192163
-0.003957887639
-0.4035399601
-0.006574316775
-0.4803187061
-0.009750990654
-0.571666533
-0.01362853398
-0.6803105967
-0.01838686345
-0.8094981983
-0.02426410883
-0.963038008
-0.03157751487
-1.145428558
-0.04075523847
-1.361930396
-0.05238151731
-1.61868859
-0.06725519193
-1.922832972
-0.08646188137
-2.282602902
-0.1114489215
-2.707485894
-0.144082971
-3.208415724
-0.1866477628
-3.798095029
-0.2417275829
-4.491550616
-0.3119587243
-5.306996457
-0.3997319699
-6.266960582
-0.5070063122
-7.399493294
-0.6353651876
-8.739238416
-0.7863134746
-10.32832158
-0.9616916207
-12.21722253
-1.164063639
-14.46589228
-1.397000643
-17.1453418
-1.665256982
-20.3398285
-1.974880349
-24.14970686
-2.333303711
-28.69499432
-2.749452306
-34.11973869
-3.233880868
-40.59731653
-3.798938085
-48.33685997
-4.458941711
-57.59108936
-5.230340451
-68.66593805
-6.131822568
-81.93251342
-7.184328565
-97.84210243
-8.41089342
-116.9452019
-9.83622486
-139.9158359
-11.48587053
-167.5828835
-13.38475788
-200.9706926
-15.55478723
-241.352129
-18.01102251
-290.3183416
-20.75580507
-349.8711818
-23.76983127
-422.5464794
-26.99881445
-511.5795808
-30.33372704
-621.129047
-33.58183446
-756.5806892
-36.42441112
-924.9630344
-38.35538594
-1135.517701
-38.59274869
-1400.486436
-35.95102397
-1736.203631
-28.65712119
-2164.598773
-2715.317447
0.0002484095458
-0.04428903889
0.001022968356
-0.06501378416
0.002414665207
-0.08651464957
0.004277510776
-0.1127432116
0.004638182128
-0.1405108956
0.004029673436
-0.1683228523
0.003234766929
-0.2002018852
0.002290999954
-0.2383175044
0.001153649801
-0.2836515477
-0.0002342710236
-0.337631293
-0.001925575678
-0.4018486526
-0.004002400986
-0.4782418777
-0.006561614245
-0.5691073162
-0.00973567975
-0.6771365273
-0.01369965586
-0.805534218
-0.01869118096
-0.9580464784
-0.0250371568
-1.139082577
-0.03319012689
-1.353777421
-0.04377769769
-1.608101014
-0.05766206489
-1.908948599
-0.07600673254
-2.264258229
-0.1003336651
-2.683158956
-0.132538079
-3.176211302
-0.1748125575
-3.755820542
-0.2294516175
-4.436911547
-0.2985731114
-5.237874954
-0.3838891678
-6.181644516
-0.4866713931
-7.296711058
-0.6079533863
-8.617956409
-0.7488903654
-10.18738458
-0.911137131
-12.05497575
-1.09714424
-14.27988516
-1.310344944
-16.93214108
-1.55526066
-20.09491277
-1.837570435
-23.86739707
-2.164183646
-28.36838109
-2.543339059
-33.74058327
-2.984736795
-40.15591878
-3.499698224
-47.82189853
-4.101339645
-56.98944793
-4.804731564
-67.96254612
-5.627021194
-81.11022378
-6.587463978
-96.88165964
-7.707315297
-115.8253506
-9.009489684
-138.6136615
-10.51786071
-166.0745124
-12.25601462
-199.2325387
-14.24517643
-239.3629672
-16.50090619
-288.0626118
-19.02797492
-347.3441131
-21.81257652
-419.7618778
-24.81065384
-508.5815035
-27.93059491
-618.009106
-31.0078136
-753.5034705
-33.76759372
-922.2032543
-35.77119864
-1133.514096
-36.33790553
-1399.919729
-34.4328404
-1738.108696
-28.50474814
-2170.526866
-2727.566443
0.0002983576048
-0.04458739607
0.001225222816
-0.06594064874
0.002846544817
-0.08813597089
0.004578881962
-0.1144755479
0.004735622509
-0.1406676349
0.004251036395
-0.1678382646
0.003658688969
-0.1996095359
0.002947113985
-0.2376059272
0.002082455713
-0.2827868868
0.001015279275
-0.3365641136
-0.0003008172931
-0.4005325527
-0.001940243545
-0.4766024477
-0.00399672317
-0.5670508326
-0.006600640698
-0.6745326056
-0.009932916226
-0.8022019381
-0.01424645493
-0.9537329354
-0.01989677371
-1.133432254
-0.02738020517
-1.346293986
-0.03738420556
-1.598097009
-0.05084444387
-1.895488356
-0.0689998371
-2.24610283
-0.09341942475
-2.658739361
-0.1259581792
-3.14367254
-0.1686054734
-3.713173241
-0.2232429875
-4.382274028
-0.2914029945
-5.169714942
-0.3741618239
-6.098885679
-0.4722530351
-7.198619838
-0.5863595272
-8.503849907
-0.7174674016
-10.0562767
-0.8671693753
-11.90527376
-1.037867006
-14.10918752
-1.232881479
-16.7371266
-1.456512599
-19.87128165
-1.714086918
-23.60982274
-2.012022945
-28.07044506
-2.357927058
-33.39467915
-2.760723769
-39.75312206
-3.230812292
-47.35181
-3.780236137
-56.44002407
-4.422846169
-67.31993609
-5.174429526
-80.35864042
-6.052764713
-96.00332445
-7.077560289
-114.800555
-8.270185611
-137.4210362
-9.653103697
-164.6915944
-11.24882224
-197.6368202
-13.07813529
-237.5336541
-15.1572897
-285.9834574
-17.4935768
-345.007826
-20.0785985
-417.1768561
-22.87814722
-505.7819548
-25.81718327
-615.0700699
-28.75768296
-750.5629708
-31.46631729
-919.49462
-33.56738489
-1131.413029
-34.47477302
-1399.012341
-33.29401173
-1739.289457
-28.68031627
-2175.140561
-2737.60936
0.000379357173
-0.0449667531
0.001489473502
-0.06705076495
0.003258258154
-0.08990475539
0.004574475025
-0.1157917645
0.004519334791
-0.1406124944
0.004178765318
-0.1674976948
0.003781687355
-0.1992124575
0.003292923093
-0.2371171624
0.002686844486
-0.2821808076
0.001918438926
-0.3357957073
0.0009418388642
-0.3995559517
-0.0003159773586
-0.4753446304
-0.001953965561
-0.565412843
-0.004112721518
-0.6723738481
-0.006990271052
-0.7993243866
-0.01086593455
-0.9498572698
-0.01613319068
-1.128164995
-0.02334005419
-1.339087119
-0.03324047703
-1.588196582
-0.04684464899
-1.88188418
-0.06545040397
-2.22749707
-0.09062063532
-2.633569124
-0.1240736939
-3.110219473
-0.1674800672
-3.669766859
-0.2222276527
-4.327526436
-0.2892731922
-5.102669396
-0.3691737693
-6.018985096
-0.4623059992
-7.1054876
-0.5691819983
-8.396973897
-0.6907504745
-9.934708209
-0.8286137596
-11.76741047
-0.9851504377
-13.95265083
-1.163574183
-16.55870285
-1.367967207
-19.66688861
-1.603319474
-23.37447047
-1.87559284
-27.79817169
-2.191817743
-33.07845424
-2.56022138
-39.38471842
-2.99038206
-46.92164932
-3.493395792
-55.93701033
-4.082043054
-66.73128882
-4.770922964
-79.6697605
-5.576536675
-95.19771073
-6.517260946
-113.8598308
-7.613162784
-136.3251343
-8.885545221
-163.4192119
-10.356094
-196.1662714
-12.04541078
-235.8443373
-13.97062895
-284.0582392
-16.1416691
-342.8367858
-18.55549338
-414.7630318
-21.18744077
-503.1500074
-23.97830255
-612.2792081
-26.81528054
-747.7259928
-29.50405579
-916.8058447
-31.72817648
-1129.188908
-32.99016251
-1397.750355
-32.52676872
-1739.752851
-29.18589615
-2178.481434
-2745.542991
0.0004884019915
-0.04545515482
0.001780209918
-0.06834257239
0.003575000341
-0.09169954529
0.004433191401
-0.1166499549
0.004384935573
-0.1405642377
0.004183992115
-0.1672967503
0.003953427477
-0.1989818916
0.003649530293
-0.2368132637
0.003250419009
-0.2817816946
0.002711440809
-0.3352567272
0.001982641866
-0.3988271507
0.0009859657087
-0.474347952
-0.000386645378
-0.5640402296
-0.002289961306
-0.6704705298
-0.004944605592
-0.7966697398
-0.008661640142
-0.9461402329
-0.01388107972
-1.122945552
-0.02121392991
-1.331754266
-0.03148797843
-1.577922529
-0.04577841235
-1.867593741
-0.06540000263
-2.207875473
-0.09182852443
-2.607140595
-0.1265393236
-3.075508669
-0.1707969556
-3.625509223
-0.2254808686
-4.27284252
-0.2910561031
-5.037094158
-0.3677185097
-5.942322684
-0.4556616975
-7.017544405
-0.5553649436
-8.297270643
-0.6678198702
-9.822253272
-0.7946683395
-11.64056199
-0.9382683238
-13.80905084
-1.101721431
-16.39524973
-1.288895342
-19.47971469
-1.504462575
-23.15890323
-1.753966604
-27.54866765
-2.043919517
-32.78850133
-2.381929394
-39.04670853
-2.776852094
-46.52672662
-3.238957644
-55.47490477
-3.780095885
-66.19015057
-4.413845253
-79.03601113
-5.155614088
-94.45594189
-6.022660876
-112.992784
-7.033976134
-135.3138191
-8.209948268
-162.2432398
-9.571690533
-194.8045291
-11.13985226
-234.2761756
-12.93265663
-282.2654349
-14.96278304
-340.8066594
-17.23254766
-412.4932672
-19.72659034
-500.6559647
-22.40094621
-609.6048523
-25.16683963
-744.9600994
-27.86692888
-914.1057555
-30.24061396
-1126.815223
-31.8737406
-1396.117228
-32.12609804
-1739.500494
-30.0258564
-2180.581675
-2751.448556
0.0006469741414
-0.04610212897
0.002076444032
-0.06977204208
0.003787111259
-0.09341021233
0.004455816038
-0.1173186595
0.004428605078
-0.1405370265
0.004324536342
-0.1671926812
0.004201743989
-0.1988590988
0.004014043815
-0.236625563
0.003739705124
-0.2815073552
0.00333291031
-0.3348499316
0.002738276362
-0.3982325157
0.001870702901
-0.4734803774
0.000609238253
-0.5627787635
-0.001219911394
-0.6686413787
-0.00386810334
-0.7940215459
-0.007692171726
-0.9423161629
-0.01319302956
-1.117444692
-0.02105273922
-1.323894554
-0.03216385275
-1.566811412
-0.0476293847
-1.852128204
-0.0687106495
-2.186794199
-0.09670313506
-2.579148101
-0.1327543031
-3.039457494
-0.1776898153
-3.580573705
-0.23193514
-4.218597191
-0.2955953763
-4.973433917
-0.3686676081
-5.869250447
-0.451303038
-6.934908968
-0.5440368861
-8.204536787
-0.6479405009
-9.718349648
-0.7646985954
-11.52380389
-0.8966387434
-13.67711068
-1.046744692
-16.24514377
-1.218676756
-19.30778262
-1.416813615
-22.96076637
-1.646321874
-27.31915939
-1.913254651
-32.52156855
-2.224678633
-38.73528454
-2.5888234
-46.16258184
-3.015248047
-55.04848012
-3.515008838
-65.69038978
-4.100820761
-78.4501992
-4.787179869
-93.76958278
-5.59042639
-112.1895374
-6.528696906
-134.3755486
-7.621701502
-161.1502352
-8.890226106
-193.5360045
-10.35520855
-232.8111932
-12.03617497
-280.5844684
-13.94871211
-338.8941223
-16.10052133
-410.3414579
-18.48538059
-498.2711055
-21.0740603
-607.0161725
-23.80081678
-742.2333429
-26.54348323
-911.363089
-29.0943629
-1124.264343
-31.11790369
-1394.093687
-32.08961694
-1738.528781
-31.20689859
-2181.464394
-2755.392484
0.0008715308926
-0.04697365961
0.002375139676
-0.07127565042
0.003924835882
-0.09495990805
0.004343224609
-0.1177370476
0.004332949433
-0.1405267505
0.004288123076
-0.1671478539
0.004226188714
-0.1987971634
0.004103100098
-0.2365024732
0.003894683945
-0.2812989377
0.00355162256
-0.3345068687
0.003009775833
-0.3976906675
0.00217129982
-0.4726418998
0.0008936672624
-0.5615011292
-0.001028074088
-0.6667196358
-0.003889333022
-0.791160285
-0.008103810012
-0.9381016843
-0.01423596259
-1.111312537
-0.02302602945
-1.315104485
-0.03539737086
-1.554440065
-0.05242285829
-1.83510271
-0.07523237576
-2.163984675
-0.1048626656
-2.549517805
-0.1420917568
-3.0022284
-0.1873347294
-3.535330731
-0.2406674513
-4.165264467
-0.3019816841
-4.912119682
-0.3712144646
-5.800017662
-0.4485706943
-6.857552733
-0.5346864942
-8.118420981
-0.6307196243
-9.622316511
-0.7383863233
-11.41613718
-0.8599718883
-13.55552511
-0.9983397829
-16.10677587
-1.156955268
-19.14916713
-1.339931613
-22.77779002
-1.552102929
-27.10698807
-1.799124191
-32.27454728
-2.087597105
-38.44681162
-2.425219251
-45.8249597
-2.820949127
-54.65275024
-3.28518287
-65.22615603
-3.829921387
-77.90546068
-4.468921696
-93.13058247
-5.217801322
-111.4406578
-6.094057209