/*--------------------------------*- C++ -*----------------------------------*\
  =========                 |
  \\      /  F ield         | OpenFOAM: The Open Source CFD Toolbox
   \\    /   O peration     | Website:  https://openfoam.org
    \\  /    A nd           | Version:  12
     \\/     M anipulation  |
\*---------------------------------------------------------------------------*/
FoamFile
{
    format      ascii;
    class       volScalarField;
    location    "900";
    object      rho;
}
// * * * * * * * * * * * * * * * * * * * * * * * * * * * * * * * * * * * * * //

dimensions      [1 -3 0 0 0 0 0];

internalField   nonuniform List<scalar> 
16200
(
0.9413196413
0.9413790794
0.9419403401
0.9432071606
0.9456993488
0.9507464288
0.9614478637
0.9815407077
0.9940145192
0.9956861914
0.9961241888
0.9967470307
0.9974650538
0.9983550687
0.9994114492
1.000687523
1.002205803
1.004018547
1.006169079
1.008717471
1.011724869
1.015263023
1.019407586
1.024239255
1.02983807
1.03627791
1.043615842
1.051877175
1.061034718
1.070984578
1.081525856
1.092358566
1.103112697
1.113405786
1.122907343
1.131384271
1.138715089
1.144878512
1.149929386
1.153972956
1.15714212
1.159579221
1.161422437
1.162796839
1.163809731
1.164549174
1.165085052
1.165471243
1.165748411
1.165946718
1.166088273
1.16618912
1.166260803
1.166311605
1.166347301
1.166372321
1.166389013
1.166402238
1.166404019
1.166411928
0.9317707312
0.9319645639
0.9327093894
0.9342775343
0.9373405325
0.9436725752
0.9570728349
0.9775855822
0.9857390172
0.9867887376
0.987308715
0.9880096268
0.9888252171
0.9898314287
0.9910227432
0.9924572394
0.994160429
0.9961894549
0.9985928178
1.001436905
1.004790172
1.008732386
1.0133478
1.018725519
1.024952882
1.032107627
1.040243469
1.049369683
1.059424398
1.070246828
1.081561846
1.092995728
1.104130579
1.114579646
1.124050508
1.132372986
1.139491498
1.145437658
1.150299524
1.154196859
1.157263426
1.159634862
1.161439926
1.162794721
1.163799354
1.164536834
1.165073792
1.165462219
1.165741783
1.165942201
1.166085431
1.166187518
1.166260078
1.166311447
1.166347571
1.166372691
1.166389563
1.166402563
1.166404122
1.166411396
0.923929719
0.9242895624
0.9252713019
0.9272006616
0.9309410516
0.9388290883
0.9556461074
0.9738024609
0.9788249439
0.9795024322
0.9800898943
0.9808736365
0.9817825188
0.9829010426
0.9842254313
0.9858190373
0.987711995
0.9899674599
0.9926406412
0.9958052001
0.9995376742
1.003926137
1.009063522
1.015046836
1.021968652
1.029905352
1.038897573
1.048923739
1.059868141
1.071493842
1.083441058
1.095269426
1.106537729
1.116886799
1.126089108
1.134052566
1.140791584
1.146387868
1.150957321
1.154628756
1.157532242
1.15979293
1.161527016
1.162838878
1.163819102
1.164543703
1.165074531
1.165460534
1.165739544
1.165940241
1.16608403
1.166186697
1.166259744
1.166311476
1.166347885
1.166373103
1.166390113
1.166402976
1.166404484
1.166411979
0.9176491867
0.9181915754
0.9194563784
0.9218483463
0.9264778472
0.936235202
0.9562958183
0.9703660871
0.9730883116
0.9737190773
0.9743930102
0.9752733446
0.9762958237
0.9775506739
0.9790368224
0.9808228438
0.9829439516
0.9854691997
0.9884607125
0.9919996898
0.9961715875
1.00107392
1.006809055
1.013480786
1.021182356
1.029979791
1.039886807
1.050832104
1.06262428
1.074933178
1.087313483
1.099278744
1.110398992
1.120376587
1.129071151
1.136476895
1.14267635
1.147794969
1.151969689
1.155332984
1.158007439
1.160105041
1.161727307
1.162964986
1.163897372
1.164591853
1.165104078
1.165478754
1.16575093
1.165947516
1.166088824
1.166189978
1.166262081
1.166313216
1.166349244
1.166374166
1.166390984
1.166403571
1.166404829
1.166412183
0.9131367179
0.9138775273
0.9154578099
0.9184012753
0.9242061124
0.9365331587
0.9580831191
0.9674385462
0.9689678199
0.9696595309
0.9704298597
0.9714233147
0.9725777186
0.9739887234
0.9756588011
0.9776617506
0.980038945
0.9828663748
0.9862149058
0.9901750984
0.9948428236
1.000325054
1.006731152
1.014166106
1.022714921
1.032420747
1.043253126
1.055069142
1.067581256
1.080359668
1.092890955
1.104680153
1.11535045
1.124696169
1.132676669
1.139370242
1.144917523
1.149476096
1.153194234
1.156201397
1.158608654
1.160512581
1.161998683
1.163143134
1.164013098
1.164666538
1.16515215
1.165509735
1.165770995
1.16596062
1.166097481
1.166195779
1.166266033
1.16631597
1.166351212
1.166375601
1.166392051
1.166404297
1.16640527
1.16641258
0.9105220591
0.911467911
0.9133821711
0.916938251
0.9241688833
0.9399898843
0.9598899901
0.9657461631
0.9666404855
0.9674406084
0.9683102186
0.9694227168
0.9707182652
0.9722977743
0.9741690353
0.9764119841
0.9790758506
0.9822445986
0.985998609
0.9904374252
0.995665665
1.001796499
1.008941401
1.017199763
1.026638593
1.037263376
1.048978343
1.06154572
1.074568855
1.087529078
1.099880739
1.111167075
1.121102846
1.12959348
1.136698598
1.142569722
1.147391097
1.151339361
1.154564571
1.157187267
1.159303909
1.160994312
1.162327484
1.163364832
1.164161199
1.164764845
1.165217166
1.165552681
1.165799385
1.165979435
1.166109997
1.166204147
1.166271664
1.166319795
1.16635384
1.166377437
1.166393337
1.166405153
1.166405766
1.166412989
0.9096828633
0.9108564405
0.9131498298
0.9174579823
0.9264650577
0.9459901227
0.9622306818
0.9656890175
0.9660735071
0.9669493481
0.9679360005
0.9691884815
0.9706509753
0.972429394
0.9745378623
0.977062248
0.9800597939
0.9836217799
0.9878372538
0.9928133862
0.9986618658
1.005499631
1.013436034
1.022557018
1.032897892
1.0444057
1.056894521
1.070013535
1.08326051
1.096059816
1.107883187
1.118358381
1.127318846
1.134786045
1.140909308
1.145896482
1.149958902
1.153279415
1.156001395
1.158231743
1.160050219
1.16151937
1.162691928
1.163614954
1.164331324
1.164879783
1.165294458
1.165604504
1.16583408
1.16600265
1.166125534
1.166214552
1.166278641
1.166324489
1.166357015
1.166379609
1.166394814
1.166406128
1.166406332
1.166413479
0.9105064
0.9119406573
0.914677602
0.9199920942
0.9314912993
0.9533279843
0.9649413056
0.9664157905
0.9671383222
0.968148436
0.9692749991
0.9706925733
0.9723502949
0.9743584041
0.9767381164
0.9795810419
0.9829528659
0.9869522834
0.9916772417
0.9972422885
1.003764797
1.011361617
1.020131982
1.03013475
1.041353281
1.053651151
1.06673082
1.080125039
1.09325146
1.105526704
1.116492609
1.125897254
1.133703865
1.140041268
1.145130155
1.149215257
1.152519113
1.155219812
1.157447534
1.159292378
1.160816434
1.162065229
1.163075996
1.163882307
1.164515786
1.16500616
1.165380571
1.165662944
1.165873619
1.166029337
1.166143512
1.16622664
1.166286755
1.166329934
1.16636067
1.16638208
1.166396471
1.166407213
1.166406961
1.16641403
0.9129100451
0.9146135766
0.9178728134
0.9244637919
0.9394207534
0.9609406045
0.9684863114
0.9690590374
0.9698416342
0.9709767796
0.972253971
0.9738498416
0.9757202709
0.977979604
0.9806573695
0.9838513028
0.9876363621
0.9921189663
0.9974056426
1.003616357
1.01086942
1.019273006
1.028903038
1.039772961
1.051791117
1.064714885
1.078125456
1.091456542
1.104091137
1.115494729
1.125323835
1.133465876
1.140008884
1.145170297
1.149220093
1.152420906
1.154992897
1.157100994
1.158857801
1.160334942
1.161576821
1.162612785
1.163465722
1.164156852
1.164707493
1.165139045
1.165472134
1.165725728
1.165916495
1.166058514
1.1661633
1.166240014
1.166295763
1.166335985
1.166364727
1.166384809
1.166398288
1.166408401
1.166407655
1.166414652
0.916742818
0.9187504567
0.9226573065
0.9307960429
0.9497003469
0.9682247674
0.9720619097
0.9730061227
0.9739420653
0.9752265524
0.9766793021
0.9784808826
0.980595537
0.9831415182
0.9861577369
0.9897483994
0.9939980707
0.9990201182
1.00492739
1.011840723
1.019871836
1.02910907
1.039589321
1.051260029
1.063932025
1.077241982
1.090658076
1.103553488
1.115333964
1.125566101
1.13404928
1.140811053
1.146046563
1.150037698
1.153081601
1.155442408
1.157327488
1.158882951
1.160201414
1.161335634
1.162313052
1.163148081
1.163850645
1.164430888
1.164900879
1.165274492
1.165566396
1.165790973
1.165961442
1.166089343
1.166184355
1.166254331
1.166305455
1.166342518
1.166369114
1.166387757
1.166400249
1.166409686
1.16640841
1.166415345
0.9218566235
0.9242234369
0.9290116263
0.9393436269
0.9613439459
0.9757636545
0.9774113872
0.9783126648
0.9793941877
0.9808409779
0.9824884451
0.9845187508
0.9869064482
0.9897738515
0.9931698142
0.9972041776
1.001969556
1.007583401
1.014160622
1.021816961
1.030648902
1.040712236
1.051986481
1.064330478
1.077438981
1.090828006
1.103882399
1.115969461
1.126575704
1.135406708
1.14241321
1.147748167
1.151688532
1.15455548
1.156653802
1.158236386
1.159490708
1.160540871
1.161458724
1.162278715
1.163012551
1.163661194
1.164223074
1.164698577
1.165091607
1.165409343
1.165661106
1.165857103
1.166007376
1.166121094
1.166206197
1.166269281
1.166315636
1.166349415
1.166373766
1.166390888
1.16640234
1.166411061
1.166409226
1.166416113
0.9281672413
0.9309431546
0.9368340491
0.9503165714
0.9732258163
0.9825710868
0.9837563104
0.9848167877
0.9860662157
0.9877006914
0.9895736146
0.9918673746
0.9945670897
0.9977978913
1.001617751
1.00614068
1.011466031
1.017713256
1.02499539
1.033416174
1.043045385
1.053889525
1.065849196
1.078673622
1.091933923
1.105045913
1.117360707
1.128300557
1.137479744
1.14476066
1.15023569
1.154158169
1.156859096
1.15867609
1.159906109
1.16078193
1.16146702
1.162062283
1.162619223
1.163155185
1.163667664
1.164145742
1.164577826
1.164955823
1.165276524
1.165541235
1.165754531
1.165922877
1.166053428
1.166153169
1.166228424
1.166284602
1.166326139
1.166356576
1.166378622
1.166394172
1.166404544
1.166412518
1.166410102
1.166416958
0.9355526744
0.9388555687
0.9461220088
0.9633947719
0.9841836921
0.9903101188
0.9912360157
0.9924933776
0.9939281982
0.9957727598
0.99789487
1.000476483
1.00351406
1.007135677
1.011409469
1.016454302
1.022375198
1.029290144
1.037302958
1.04649367
1.05688854
1.068423782
1.080899747
1.093944312
1.107016327
1.1194733
1.130693707
1.14020927
1.147789769
1.153451797
1.157406396
1.159977764
1.161524823
1.162383048
1.162830522
1.163074586
1.16325298
1.163443697
1.163679115
1.163961062
1.164274465
1.164598082
1.164911695
1.165199933
1.165453457
1.165668471
1.165845387
1.165987348
1.166098915
1.16618509
1.166250707
1.166300074
1.166336822
1.16636391
1.166383631
1.166397577
1.166406849
1.16641405
1.166411038
1.166417883
0.9439385255
0.94798069
0.9571806158
0.9779803229
0.9958656203
0.9989030192
0.9997816395
1.001232153
1.002856323
1.004921216
1.00730699
1.010196831
1.013600118
1.01764814
1.022418351
1.028031321
1.034592208
1.042209445
1.050967183
1.060907622
1.071995194
1.084074456
1.09682987
1.109772659
1.122283362
1.133718593
1.143543765
1.151437627
1.157331307
1.161376645
1.163873347
1.165187428
1.165683815
1.165682201
1.165434878
1.165121287
1.164853512
1.16468789
1.164639368
1.164696003
1.164831795
1.165016653
1.165223022
1.16542934
1.165621036
1.165789916
1.165932773
1.166049826
1.166143324
1.166216485
1.166272785
1.166315517
1.166347565
1.166371342
1.166388745
1.16640108
1.166409243
1.16641565
1.166412034
1.166418891
0.9530499416
0.958074301
0.9699374634
0.9928026502
1.0059059
1.008146928
1.009137079
1.010797041
1.012643456
1.014969435
1.017665698
1.020916135
1.024741433
1.029273404
1.03459505
1.040824089
1.048060209
1.056395142
1.065882169
1.076509711
1.08816024
1.100568669
1.113301079
1.125777374
1.137352704
1.147444069
1.155649352
1.161809756
1.166004605
1.168492125
1.169629477
1.169799251
1.169355793
1.168594093
1.167737145
1.166936171
1.166278842
1.165801673
1.165504085
1.165362126
1.165340423
1.165401388
1.165511282
1.165643325
1.165778508
1.165904879
1.1660161
1.166109834
1.166186286
1.166247078
1.166294456
1.16633079
1.166358272
1.166378809
1.166393926
1.166404657
1.166411713
1.166417312
1.166413091
1.166419983
0.9629437029
0.9693510695
0.9843384923
1.006792432
1.016294934
1.018150361
1.019361957
1.021259996
1.023364602
1.025989879
1.029036569
1.032687674
1.036973638
1.042025543
1.047930096
1.05479946
1.062722177
1.071762623
1.081926217
1.093125951
1.105142448
1.117596099
1.129952893
1.141586136
1.151886319
1.160382699
1.166829863
1.171225843
1.173772219
1.174801313
1.174699513
1.173846218
1.172573897
1.171147926
1.169761053
1.168537408
1.167542197
1.166794207
1.166279269
1.165963102
1.165802386
1.165753239
1.165776755
1.165841787
1.165925588
1.16601301
1.166095024
1.166167067
1.166227549
1.166276668
1.16631557
1.166345781
1.166368865
1.166386258
1.16639914
1.166408289
1.166414249
1.16641903
1.16641422
1.166421163
0.9736899207
0.981900542
1.000023059
1.021325046
1.027423946
1.029078982
1.03052969
1.032673807
1.035053965
1.037996975
1.041415012
1.045490412
1.050263458
1.055863895
1.062378678
1.069906947
1.078512912
1.088215467
1.098951582
1.110541301
1.122656515
1.134815331
1.146422686
1.156860918
1.165610597
1.172346277
1.176981696
1.17965045
1.180644518
1.180339675
1.179128618
1.177373562
1.175378418
1.173377097
1.171532928
1.169944937
1.168658154
1.167675784
1.166971919
1.166503486
1.166220492
1.166073814
1.166020263
1.166025059
1.166062328
1.166114214
1.166169386
1.166221354
1.166266953
1.166305121
1.166336017
1.166360408
1.166379282
1.166393645
1.166404357
1.166411956
1.16641684
1.166420801
1.166415442
1.166422433
0.9854695881
0.9957767268
1.016428488
1.035573155
1.039177014
1.040844145
1.04254214
1.044947591
1.047628989
1.050920368
1.05474628
1.059287272
1.064590621
1.070779025
1.07793027
1.086117524
1.095364498
1.10562813
1.116762581
1.128488168
1.140376501
1.151873611
1.162372681
1.171320959
1.178327619
1.183223883
1.186067612
1.187097962
1.186665316
1.185163036
1.182973266
1.180432245
1.177812265
1.17531608
1.173079515
1.171178922
1.16964152
1.168456995
1.167589396
1.166988234
1.166597953
1.166365101
1.166242962
1.166193758
1.166189008
1.166208577
1.166239166
1.166272625
1.166304411
1.166332351
1.166355723
1.166374609
1.166389476
1.166400936
1.166409553
1.166415645
1.166419478
1.166422625
1.166416761
1.166423796
0.9985693003
1.010885924
1.033070769
1.048151882
1.051578964
1.05341745
1.055391676
1.058096077
1.06112519
1.064813459
1.069096366
1.074147789
1.080015948
1.086807912
1.09458178
1.103373387
1.11315436
1.123808893
1.135100504
1.146652692
1.157958799
1.168435194
1.177515904
1.184757542
1.189916562
1.19297304
1.194102712
1.193617957
1.191899344
1.189338051
1.186294513
1.183074408
1.179917947
1.176998407
1.1744266
1.172258771
1.17050661
1.169148179
1.168139002
1.167422373
1.166938129
1.166629272
1.166446202
1.166348679
1.166306063
1.166296307
1.166304443
1.166320885
1.166339893
1.166358313
1.16637464
1.166388341
1.16639941
1.166408102
1.166414708
1.16641934
1.166422155
1.166424504
1.166418171
1.166425253
1.013252205
1.027291259
1.049512021
1.062396834
1.06485321
1.066971628
1.069253874
1.072286024
1.075693577
1.079804785
1.084563778
1.090132287
1.09655422
1.103914181
1.112242399
1.121528274
1.131680364
1.142500451
1.153660044
1.164700066
1.175070688
1.184207802
1.19163272
1.197037739
1.20032646
1.201606179
1.201139458
1.199281991
1.196422105
1.192935103
1.18915332
1.185350383
1.181735679
1.178455446
1.175598196
1.173202562
1.171266819
1.169759095
1.168627713
1.167810784
1.167244357
1.166868544
1.166631409
1.166490706
1.166414017
1.166377696
1.166365359
1.16636619
1.166373406
1.166382989
1.16639274
1.166401573
1.166409058
1.16641512
1.166419802
1.16642303
1.166424865
1.166426437
1.166419648
1.166426803
1.029417598
1.045046984
1.066534994
1.077060419
1.079173365
1.081606166
1.084194782
1.087558698
1.091347369
1.095877194
1.101099807
1.107160037
1.114093027
1.121954141
1.130736277
1.140370695
1.150690774
1.161410568
1.172118831
1.182303923
1.19141744
1.19896184
1.204577899
1.208100226
1.209564455
1.209176151
1.207254271
1.20417311
1.200312537
1.196023562
1.191607647
1.187306978
1.183302368
1.179715793
1.176616145
1.17402677
1.171934412
1.170298744
1.169062031
1.168158079
1.167519838
1.167085091
1.166800022
1.166620762
1.16651344
1.16645308
1.166422102
1.166408634
1.166404987
1.166406386
1.166410013
1.166414289
1.166418398
1.166421972
1.166424822
1.166426702
1.166427601
1.166428418
1.166421185
1.166428446
1.046722394
1.063896782
1.08466939
1.092480757
1.094430267
1.097178729
1.100076596
1.103773374
1.10794188
1.112881661
1.118551784
1.125074566
1.132469419
1.140752103
1.149864694
1.159667602
1.1699125
1.180232759
1.190159469
1.199169315
1.206761043
1.212539256
1.216277873
1.217944271
1.21768101
1.21576193
1.212536073
1.208377755
1.203647824
1.198668705
1.193710732
1.188986552
1.184651135
1.180805013
1.177499971
1.174746155
1.17252043
1.170775288
1.169447902
1.16846852
1.167767575
1.167280983
1.166953434
1.166739763
1.166604916
1.166522818
1.166474882
1.166448333
1.166434693
1.166428524
1.166426458
1.166426478
1.166427419
1.166428645
1.166429754
1.166430348
1.166430356
1.166430441
1.166422777
1.166430179
1.065034938
1.083333824
1.101858889
1.108509585
1.110482888
1.113536406
1.116747658
1.120783257
1.125339717
1.130690697
1.136799324
1.143755335
1.151550189
1.160147175
1.169425535
1.17916987
1.18905635
1.198659376
1.207488591
1.215051762
1.220931769
1.224854079
1.226722294
1.226615756
1.224755575
1.221456737
1.217077787
1.211980356
1.206500286
1.200930095
1.195510352
1.19042674
1.185811259
1.181745667
1.178266923
1.175373801
1.173034709
1.171196041
1.1697907
1.168745998
1.167990335
1.167458151
1.167092968
1.166848593
1.166689023
1.166587277
1.166523923
1.166485414
1.166462591
1.166449433
1.166442085
1.166438136
1.16643611
1.166435125
1.166434586
1.166433957
1.166433125
1.166432499
1.166424396
1.166432006
1.08414997
1.103201268
1.119308187
1.125056298
1.127207758
1.130587753
1.134146443
1.138547358
1.143512576
1.149276638
1.155799638
1.163128402
1.171215424
1.179964186
1.189187839
1.198601155
1.207822789
1.216399109
1.223857006
1.229771383
1.233831429
1.235885409
1.235950697
1.234192712
1.230884076
1.22635887
1.220970431
1.215059953
1.20893569
1.202860901
1.197048667
1.19166054
1.186808335
1.182557479
1.178932108
1.175921206
1.173485936
1.171567504
1.170095233
1.16899402
1.168190638
1.167618378
1.167219856
1.166948092
1.166766316
1.166646815
1.166569448
1.166520012
1.166488758
1.166469151
1.166456909
1.166449266
1.166444465
1.166441405
1.166439309
1.166437523
1.166435902
1.166434578
1.166426
1.166433933
1.103735809
1.122408419
1.137402642
1.142346144
1.144782636
1.148490152
1.152411378
1.157171744
1.162523243
1.168650768
1.175504258
1.183082097
1.191291048
1.199972819
1.208878102
1.217665797
1.225922346
1.233199953
1.239076812
1.243218898
1.245428413
1.245665266
1.244038034
1.240772179
1.236168961
1.230565141
1.224299329
1.217688319
1.211012532
1.204507799
1.1983624
1.192716583
1.18766455
1.183257565
1.179508674
1.176398419
1.173881736
1.171895418
1.170365776
1.169215729
1.168370762
1.167763285
1.167335237
1.167039038
1.16683732
1.166701776
1.166611678
1.166552262
1.166513271
1.166487721
1.166470948
1.16645987
1.166452481
1.166447476
1.166443913
1.166441037
1.166438679
1.166436656
1.166427564
1.166435959
1.124369081
1.142788896
1.15619159
1.160599247
1.163346521
1.167337313
1.171585662
1.176648931
1.182310387
1.188700838
1.195751469
1.203408013
1.211527222
1.219891348
1.228198903
1.236073908
1.24309998
1.248866697
1.253028129
1.255351533
1.255745813
1.254263652
1.251080618
1.246459264
1.240711812
1.234166558
1.227141967
1.219929177
1.212781996
1.205911264
1.199483242
1.193619534
1.188399027
1.183860706
1.180008012
1.176814179
1.17422878
1.172184829
1.170606109
1.169413924
1.16853275
1.167894341
1.167440148
1.167122152
1.166902525
1.166752487
1.166650823
1.166582297
1.16653621
1.166505186
1.166484222
1.166469958
1.166460157
1.166453332
1.16644839
1.166444494
1.16644145
1.166438711
1.166429213
1.166438057
1.145872086
1.164523261
1.175666563
1.179736533
1.18277403
1.186992662
1.191513552
1.196808676
1.20268417
1.209213948
1.216302709
1.223841463
1.23163774
1.239423589
1.246862989
1.253570867
1.259156735
1.263271816
1.265658763
1.26618402
1.264848213
1.261775249
1.257185303
1.251359644
1.244608932
1.237246179
1.229567312
1.221838313
1.214288427
1.207106154
1.200438415
1.19439057
1.189028208
1.184379646
1.180439977
1.177176083
1.174532888
1.172440166
1.17081957
1.169591089
1.168678425
1.168012867
1.16753553
1.167198093
1.166962385
1.166799253
1.166687084
1.166610244
1.166557652
1.16652159
1.166496756
1.166479536
1.166467492
1.166458969
1.166452734
1.166447888
1.166444204
1.166440733
1.16643098
1.166440202
1.167957942
1.186909714
1.195642862
1.199558963
1.202868699
1.207273266
1.21200628
1.217450534
1.223426456
1.229949558
1.236894375
1.244100179
1.251332321
1.258288121
1.264619096
1.26995685
1.273959864
1.276355121
1.276975202
1.275774771
1.272827354
1.26830725
1.262460672
1.255574065
1.247948419
1.239877928
1.23163563
1.223463905
1.21556985
1.208122254
1.201251153
1.195047785
1.189566172
1.184825336
1.180813074
1.177490714
1.174799132
1.172665306
1.171009096
1.169749425
1.168809416
1.168120049
1.167622236
1.167267463
1.167017315
1.166842355
1.166720649
1.166636223
1.166577673
1.166536977
1.166508571
1.166488615
1.166474488
1.166464382
1.166456937
1.166451212
1.166446932
1.166442718
1.166432866
1.166442379
1.190618459
1.209051057
1.21612945
1.21997973
1.223507123
1.228028799
1.232883214
1.238363961
1.244299253
1.250646045
1.257247594
1.26389857
1.270334254
1.276236397
1.281266469
1.285094061
1.287441068
1.288114069
1.287028219
1.284210693
1.27978888
1.273969526
1.267010713
1.259194879
1.250808708
1.242126335
1.233398857
1.224847142
1.216658636
1.20898488
1.201941217
1.195606601
1.190024961
1.185207177
1.181134632
1.177763773
1.175031923
1.172863641
1.171177268
1.169890875
1.168927168
1.168216947
1.16770103
1.167330805
1.167067696
1.166882057
1.166751693
1.166660351
1.166596344
1.166551391
1.166519691
1.166497205
1.166481148
1.166469569
1.166460995
1.166454464
1.166449622
1.16644466
1.166434885
1.166444566
1.213745033
1.231273573
1.237001154
1.240812715
1.244488773
1.249047361
1.253920296
1.259309161
1.265045987
1.271033475
1.277087723
1.282970924
1.288404167
1.293073251
1.296668429
1.298911298
1.299592548
1.298593995
1.295900878
1.291596003
1.285843749
1.278869042
1.270931863
1.26230499
1.253258669
1.244047235
1.234901512
1.226023143
1.217582325
1.209715572
1.20252545
1.196080198
1.190414903
1.185533265
1.181410996
1.178000215
1.175235114
1.173038145
1.171326363
1.170017162
1.169032969
1.16830451
1.167772604
1.167388613
1.167113877
1.166918599
1.166780379
1.166682734
1.166613735
1.166564873
1.16653014
1.166505317
1.166487474
1.166474526
1.166464904
1.166457637
1.166452263
1.166446562
1.16643704
1.166446737
1.237154706
1.253471539
1.25813016
1.261908751
1.265640474
1.27012867
1.274891469
1.28003883
1.285404464
1.29084527
1.296158109
1.301086719
1.305353656
1.308665159
1.310753051
1.311397206
1.310455081
1.307874218
1.303695589
1.29804205
1.291101279
1.283105874
1.274311252
1.264977538
1.255358082
1.245688585
1.236181589
1.227021788
1.218364327
1.210332662
1.203018221
1.196479863
1.190744875
1.185810592
1.181647666
1.178204356
1.175412076
1.173191431
1.171458388
1.170129813
1.169127965
1.16838359
1.167837578
1.167441337
1.167156175
1.166952201
1.166806859
1.166703473
1.166629911
1.166577464
1.16653994
1.166512963
1.166493469
1.166479252
1.166468661
1.166460727
1.166454841
1.166448427
1.166439329
1.166448877
1.260657043
1.275527315
1.27932503
1.283040537
1.286727811
1.291023067
1.2955323
1.300282358
1.305108072
1.309830459
1.314236515
1.318065201
1.321053887
1.322941008
1.323506474
1.322588258
1.320103658
1.316054181
1.310522703
1.303659107
1.295663978
1.286770466
1.277225651
1.267275847
1.257158103
1.247091126
1.237271241
1.22786833
1.21902445
1.210851694
1.203431758
1.196815239
1.191022502
1.186045188
1.181849409
1.178379955
1.175565756
1.173325795
1.171575116
1.170230182
1.169213178
1.168454947
1.167896514
1.167489381
1.167194881
1.166983069
1.166831273
1.166722663
1.166644934
1.166589202
1.166549114
1.166520155
1.166499138
1.166483745
1.166472262
1.166463729
1.166457345
1.166450263
1.166441745
1.166450963
1.284088985
1.297297151
1.30036014
1.303931451
1.307458285
1.311440364
1.315559452
1.319769544
1.323908867
1.327772503
1.331147376
1.333780046
1.335432692
1.335882632
1.334958899
1.332552843
1.328632238
1.323240716
1.316491099
1.308550192
1.299624093
1.289942136
1.279741187
1.269253806
1.258701939
1.248289129
1.238197484
1.22858401
1.219579397
1.211285835
1.203776469
1.197094579
1.19125434
1.186242269
1.182020369
1.178530295
1.175698742
1.173443261
1.171678116
1.170319473
1.169289523
1.168519268
1.167949917
1.167533115
1.167230259
1.167011388
1.166853752
1.166740393
1.166658862
1.166600124
1.166557685
1.166526904
1.166504485
1.166488006
1.166475707
1.166466638
1.166459761
1.166452077
1.166444277
1.166452963
1.307134414
1.318429649
1.320969476
1.324286765
1.327551308
1.331114343
1.334725812
1.338276841
1.341613094
1.344515594
1.346779767
1.348169486
1.348477621
1.347522325
1.345178727
1.341384377
1.336147682
1.329543838
1.321706059
1.312810705
1.303064564
1.292690719
1.281915254
1.270957739
1.260026531
1.249311827
1.238983365
1.229186987
1.220043499
1.211646427
1.204061366
1.197325065
1.191446127
1.186406422
1.182164208
1.178658286
1.175813337
1.173545638
1.171768798
1.170398771
1.169357827
1.168577173
1.16799825
1.167572879
1.167262555
1.167037336
1.166874418
1.166756748
1.166671752
1.166610268
1.166565675
1.166533224
1.166509516
1.166492034
1.166478996
1.166469446
1.166462079
1.166453879
1.166446906
1.16645484
1.329332124
1.338708475
1.340889505
1.343868193
1.346779171
1.349827561
1.352830437
1.355628562
1.35807894
1.359958578
1.36107741
1.361222439
1.36021909
1.357924689
1.354255088
1.349186103
1.342757741
1.335068095
1.326263598
1.316525139
1.306057313
1.295075879
1.283796377
1.272426571
1.26116282
1.250183689
1.239648202
1.22969253
1.220428862
1.211943109
1.204294152
1.197512877
1.191602832
1.18654164
1.182284131
1.178766495
1.17591158
1.173634537
1.171848419
1.170469052
1.169418835
1.168629229
1.168041935
1.167608984
1.167291997
1.167061075
1.166893388
1.166771807
1.166683659
1.166619669
1.166573107
1.166539127
1.166514235
1.166495833
1.16648213
1.166472146
1.166464288
1.166455683
1.166449598
1.166456583
1.350600326
1.35806964
1.35992814
1.362466298
1.364932586
1.367387348
1.369707056
1.37169222
1.373212891
1.37404969
1.374030344
1.372967449
1.370717879
1.367174335
1.362287162
1.356062937
1.348565671
1.339909678
1.330249539
1.319767495
1.308664454
1.297148661
1.285425867
1.273693392
1.262137132
1.250925599
1.240208562
1.23011381
1.220745995
1.2121843
1.204481601
1.197663481
1.19172887
1.18665149
1.182383014
1.178857227
1.175995311
1.173711413
1.171918123
1.170531203
1.169473231
1.168675954
1.168081364
1.167641721
1.167318797
1.167082759
1.16691077
1.166785649
1.166694636
1.166628362
1.166580004
1.166544627
1.166518651
1.166499405
1.16648511
1.166474731
1.166466385
1.166457501
1.1664523
1.166458235
1.370472422
1.376222631
1.377806452
1.379862628
1.381834829
1.383651868
1.385247884
1.386396062
1.386980626
1.386791505
1.385675048
1.383469404
1.380060137
1.375370689
1.369379866
1.362118549
1.353668756
1.34415615
1.333740076
1.322602301
1.310939453
1.298952631
1.286838812
1.274786261
1.262971802
1.251555322
1.240678601
1.230462146
1.221003991
1.212377337
1.204629656
1.197781703
1.191828164
1.186739159
1.182463434
1.178932559
1.176066193
1.173777586
1.17197895
1.170586036
1.16952164
1.168717827
1.168116896
1.167671359
1.167343155
1.167102533
1.16692667
1.166798346
1.166704735
1.166636384
1.166586389
1.166549738
1.166522769
1.166502755
1.166487938
1.16647719
1.166468372
1.166459341
1.166454958
1.166459816
1.38892404
1.393134161
1.394407626
1.395930714
1.397367919
1.398527326
1.399390611
1.399712537
1.399388788
1.398221526
1.396074939
1.392811354
1.388341651
1.382615404
1.375634586
1.367449162
1.358154669
1.347884736
1.33680138
1.325085001
1.312927946
1.300524863
1.28806508
1.275729102
1.263685952
1.252088159
1.241070596
1.230747431
1.221210856
1.212528732
1.204743629
1.197871884
1.191904263
1.18680754
1.182527742
1.178994392
1.17612575
1.173834273
1.172031859
1.170634301
1.169564645
1.168755292
1.168148871
1.167698152
1.167365259
1.167120537
1.166941189
1.166809972
1.166714005
1.166643768
1.166592285
1.166554476
1.166526599
1.166505889
1.166490614
1.166479517
1.166470257
1.166461194
1.166457503
1.166461359
1.405596482
1.408553402
1.409531571
1.410532704
1.411442654
1.411967201
1.412124466
1.411661324
1.410483282
1.408407222
1.405313931
1.401088036
1.395662274
1.389008168
1.381146471
1.372142186
1.362101147
1.351162717
1.339490388
1.32726289
1.314668686
1.301896815
1.28913005
1.276542293
1.264295973
1.252537318
1.241395235
1.230978355
1.221373693
1.212644308
1.204828311
1.197937968
1.191960409
1.186859291
1.18257811
1.179044486
1.176175403
1.173882607
1.17207775
1.170676705
1.169602796
1.168788775
1.168177612
1.167722345
1.167385292
1.167136904
1.166954424
1.166820597
1.166722498
1.16665055
1.166597717
1.166558855
1.166530149
1.166508815
1.16649314
1.166481707
1.166472043
1.166463038
1.166459903
1.166462891
1.420433074
1.422433821
1.423132093
1.423646875
1.424055542
1.423987949
1.423485985
1.42229754
1.420335799
1.417433344
1.413485725
1.408397477
1.40211994
1.394642962
1.386002588
1.376275838
1.365576621
1.354048644
1.341856272
1.329176641
1.316194989
1.303095588
1.290055661
1.277243559
1.264816231
1.25291448
1.241662056
1.231162743
1.221498947
1.212729394
1.204888113
1.197983606
1.191999617
1.186896894
1.182616568
1.179084494
1.176216486
1.173923659
1.172117473
1.170713919
1.169636617
1.168818682
1.16820343
1.167744174
1.167403432
1.167151768
1.166966475
1.166830293
1.166730266
1.166656768
1.166602711
1.166562892
1.166533432
1.166511541
1.166495517
1.16648376
1.166473732
1.166464848
1.166462182
1.166464455
1.433469127
1.434806165
1.435237096
1.435311682
1.435253297
1.434645905
1.433543274
1.431700176
1.429034521
1.425394243
1.42068755
1.414836244
1.407807401
1.399606155
1.390281137
1.379919173
1.368640775
1.356593169
1.343941359
1.330861251
1.317535571
1.304144622
1.290860984
1.277848474
1.265259467
1.253230106
1.24187969
1.231307746
1.221592566
1.212788946
1.204927164
1.198012234
1.192024737
1.186922701
1.182645045
1.179115988
1.17625027
1.173958449
1.172151842
1.170746585
1.16966661
1.168845402
1.168226625
1.167763868
1.167419851