/*--------------------------------*- C++ -*----------------------------------*\
  =========                 |
  \\      /  F ield         | OpenFOAM: The Open Source CFD Toolbox
   \\    /   O peration     | Website:  https://openfoam.org
    \\  /    A nd           | Version:  12
     \\/     M anipulation  |
\*---------------------------------------------------------------------------*/
FoamFile
{
    format      ascii;
    class       volScalarField;
    location    "0.098";
    object      alphat;
}
// * * * * * * * * * * * * * * * * * * * * * * * * * * * * * * * * * * * * * //

dimensions      [1 -1 -1 0 0 0 0];

internalField   nonuniform List<scalar> 
16000
(
4.844892e-07
1.076981e-05
2.0414503e-05
2.5762489e-05
1.9721583e-05
2.7133217e-05
1.916415e-05
2.6288252e-05
2.0507342e-05
2.8288926e-05
2.3819552e-05
2.800607e-05
2.5549189e-05
2.6250347e-05
2.5382947e-05
2.5260039e-05
2.5017859e-05
2.496899e-05
2.5005564e-05
2.5149664e-05
2.539373e-05
2.5737193e-05
2.617765e-05
2.6715465e-05
2.7353358e-05
2.8098099e-05
2.8958791e-05
2.9949818e-05
3.1088691e-05
3.2394303e-05
3.3887413e-05
3.5595535e-05
3.7554153e-05
3.9807014e-05
4.2407972e-05
4.5421343e-05
4.892383e-05
5.3006984e-05
5.7784181e-05
6.3395994e-05
7.0007633e-05
7.7813903e-05
8.7060488e-05
9.8048611e-05
0.00011113717
0.0001267569
0.00014544199
0.00016784359
0.00019475462
0.00022714149
0.000266187
0.0003133419
0.00037037966
0.00043947445
0.00052329561
0.00062513825
0.00074908725
0.00090023314
0.0010849637
0.0011799028
0.0011807546
0.0011815144
0.0011821806
0.0011827093
0.0011830908
0.0011832989
0.0011833004
0.0011830546
0.0011825176
0.0011816537
0.001180465
0.0011789772
0.0011772013
0.0011758586
0.0011748292
0.0011740335
0.0011734091
0.0011731535
0.0011732385
0.0011739921
4.4468051e-07
1.0204953e-05
2.125218e-05
2.3058604e-05
1.776394e-05
2.4300402e-05
1.6995906e-05
2.299907e-05
1.8108231e-05
2.4963302e-05
2.1549907e-05
2.5225863e-05
2.3344703e-05
2.3766295e-05
2.3095042e-05
2.2917192e-05
2.2719511e-05
2.2665619e-05
2.2703163e-05
2.2836189e-05
2.3062631e-05
2.3381579e-05
2.3791306e-05
2.429224e-05
2.48866e-05
2.5580734e-05
2.638257e-05
2.7305095e-05
2.836488e-05
2.9580342e-05
3.0970819e-05
3.2561474e-05
3.4385161e-05
3.6482403e-05
3.8903593e-05
4.1709215e-05
4.4971869e-05
4.8777604e-05
5.3232061e-05
5.8468335e-05
6.4645184e-05
7.1946064e-05
8.0602383e-05
9.090134e-05
0.00010318762
0.00011787066
0.00013545999
0.00015657887
0.00018198806
0.00021261549
0.00024959751
0.00029433189
0.00034852994
0.00041429321
0.00049420355
0.00059145051
0.00070999191
0.00085475353
0.0010319
0.0011793496
0.0011802057
0.0011809218
0.0011815532
0.0011820488
0.0011823995
0.00118258
0.0011825569
0.0011822904
0.0011817392
0.0011808678
0.0011796775
0.0011782242
0.0011765343
0.0011752726
0.0011743185
0.0011735886
0.0011730012
0.0011726422
0.0011727857
0.001173301
3.9039848e-07
9.7618211e-06
2.0068369e-05
2.1123909e-05
1.5896922e-05
2.1377215e-05
1.5122231e-05
1.9974524e-05
1.627166e-05
2.1891111e-05
1.9637579e-05
2.2451554e-05
2.1135572e-05
2.1274147e-05
2.0762009e-05
2.056039e-05
2.0396857e-05
2.0347947e-05
2.0387984e-05
2.0514254e-05
2.0726128e-05
2.1023082e-05
2.1403718e-05
2.1868704e-05
2.2419849e-05
2.3063265e-05
2.3806054e-05
2.4659992e-05
2.5640526e-05
2.6765591e-05
2.805355e-05
2.9527693e-05
3.1218686e-05
3.3164256e-05
3.5411718e-05
3.8018011e-05
4.1052089e-05
4.459565e-05
4.8747805e-05
5.363415e-05
5.9408082e-05
6.6244231e-05
7.4361664e-05
8.4034354e-05
9.5595445e-05
0.00010943686
0.0001260471
0.00014602562
0.00017010586
0.00019918377
0.00023435621
0.00027697593
0.00032870102
0.00039157139
0.00046809468
0.00056137013
0.0006752469
0.00081451873
0.00098517391
0.0011789809
0.0011798308
0.0011804864
0.0011810632
0.0011815067
0.0011818075
0.0011819413
0.0011818753
0.0011815696
0.0011809859
0.0011800924
0.0011788861
0.0011774442
0.0011758502
0.0011746812
0.0011738091
0.0011731459
0.0011725882
0.0011721935
0.0011723587
0.0011725127
3.5030713e-07
9.4271741e-06
1.9028806e-05
1.9607559e-05
1.4277868e-05
1.8863356e-05
1.3466077e-05
1.7447411e-05
1.463674e-05
1.9287353e-05
1.7915597e-05
1.9997781e-05
1.9099651e-05
1.9032685e-05
1.8639242e-05
1.8436316e-05
1.8302937e-05
1.8264647e-05
1.831029e-05
1.8433793e-05
1.8635142e-05
1.8914276e-05
1.9270166e-05
1.9703857e-05
2.0216897e-05
2.0815323e-05
2.1505691e-05
2.2298826e-05
2.320912e-05
2.4254116e-05
2.5451537e-05
2.6823089e-05
2.8397673e-05
3.0210625e-05
3.2306667e-05
3.4739706e-05
3.7575561e-05
4.0892541e-05
4.4784586e-05
4.9370349e-05
5.4799134e-05
6.1238903e-05
6.889885e-05
7.8041267e-05
8.8990994e-05
0.00010212653
0.00011791982
0.00013695198
0.00015993552
0.00018774315
0.00022144203
0.00026235231
0.00031209365
0.00037266285
0.00044651646
0.00053669162
0.00064696257
0.00078203536
0.00094778946
0.0011515782
0.0011796546
0.0011802337
0.0011807381
0.0011811131
0.0011813485
0.0011814208
0.0011812985
0.001180942
0.001180315
0.0011793909
0.0011781623
0.001176716
0.0011752124
0.0011741314
0.0011733358
0.0011727303
0.0011721972
0.0011717742
0.0011718649
0.0011717388
3.2187092e-07
9.1792583e-06
1.812171e-05
1.9585474e-05
1.4230581e-05
1.6673011e-05
1.2014119e-05
1.5280709e-05
1.3232986e-05
1.7043053e-05
1.6386737e-05
1.7790636e-05
1.7204803e-05
1.699916e-05
1.6693589e-05
1.6504566e-05
1.6396095e-05
1.6369113e-05
1.6419104e-05
1.6539239e-05
1.6729726e-05
1.6991149e-05
1.7322904e-05
1.7726543e-05
1.8203491e-05
1.8759805e-05
1.9401651e-05
2.0139103e-05
2.098551e-05
2.1957984e-05
2.3073825e-05
2.4353429e-05
2.5824235e-05
2.7519525e-05
2.94818e-05
3.1762338e-05
3.4424172e-05
3.7542876e-05
4.1208521e-05
4.553318e-05
5.0662732e-05
5.6760155e-05
6.4026952e-05
7.2714496e-05
8.3141354e-05
9.5675584e-05
0.00011077554
0.00012900731
0.00015106614
0.00017780668
0.00021027173
0.00024975541
0.00029784622
0.00035650656
0.00042815267
0.00051577232
0.00062308004
0.00075471188
0.00091646268
0.0011155747
0.0011796589
0.001180147
0.0011805625
0.0011808532
0.0011810082
0.0011810048
0.0011808129
0.001180394
0.0011797126
0.0011787483
0.0011774927
0.0011760264
0.0011746239
0.0011736274
0.0011729027
0.0011723458
0.0011718331
0.00117139
0.0011713784
0.0011710176
2.9206372e-07
9.0267414e-06
1.739804e-05
1.9317154e-05
1.398334e-05
1.4761941e-05
1.1360903e-05
1.3493899e-05
1.2287321e-05
1.5158276e-05
1.5053485e-05
1.5858842e-05
1.5480958e-05
1.5193303e-05
1.4942867e-05
1.4769793e-05
1.4677107e-05
1.465686e-05
1.4707245e-05
1.4821662e-05
1.5000263e-05
1.5244181e-05
1.5553054e-05
1.5928845e-05
1.6372947e-05
1.689141e-05
1.7490075e-05
1.8178432e-05
1.8968824e-05
1.9877899e-05
2.0922737e-05
2.2122674e-05
2.3504007e-05
2.5098319e-05
2.6946304e-05
2.9097075e-05
3.1611331e-05
3.4562492e-05
3.803817e-05
4.2144798e-05
4.702517e-05
5.283904e-05
5.9782997e-05
6.809859e-05
7.8100337e-05
9.0149383e-05
0.00010469399
0.00012228954
0.00014361841
0.0001695238
0.00020103107
0.000239417
0.00028624892
0.00034346668
0.00041346138
0.00049918933
0.00060432665
0.00073346485
0.00089234837
0.0010881551
0.0011798316
0.0011802152
0.0011805269
0.0011807195
0.0011807809
0.0011806894
0.0011804165
0.0011799255
0.0011791808
0.0011781675
0.0011768838
0.0011753885
0.0011740939
0.0011731775
0.0011725168
0.0011720002
0.0011715024
0.0011710334
0.0011709023
0.0011703858
2.6061091e-07
8.9413591e-06
1.6833726e-05
1.8258632e-05
1.3858509e-05
1.3038523e-05
1.1400738e-05
1.2433513e-05
1.1813086e-05
1.3528106e-05
1.3860274e-05
1.4156773e-05
1.3886769e-05
1.3562752e-05
1.3343163e-05
1.3186092e-05
1.310488e-05
1.3090133e-05
1.3140627e-05
1.3250346e-05
1.341904e-05
1.3648308e-05
1.3937765e-05
1.4205602e-05
1.4611289e-05
1.5088344e-05
1.5641779e-05
1.6280289e-05
1.7015014e-05
1.786178e-05
1.8837408e-05
1.9960215e-05
2.1255446e-05
2.2753067e-05
2.4492104e-05
2.6519694e-05
2.8894355e-05
3.16874e-05
3.498486e-05
3.9182213e-05
4.3861386e-05
4.9447749e-05
5.6135789e-05
6.4158671e-05
7.3828155e-05
8.5501899e-05
9.9621464e-05
0.00011673547
0.00013751711
0.00016280429
0.00019361105
0.00023120457
0.00027713987
0.00033334461
0.00040219769
0.00048663984
0.00059032708
0.00071782789
0.00087486406
0.0010685875
0.0011801555
0.0011804227
0.0011806176
0.0011806999
0.0011806568
0.0011804668
0.0011801032
0.0011795323
0.0011787179
0.0011776474
0.0011763355
0.0011748288
0.001173632
0.0011727901
0.0011721858
0.0011717022
0.0011712138
0.0011707129
0.0011704606
0.0011698406
2.3835327e-07
8.8920411e-06
1.6354183e-05
1.6599133e-05
1.266677e-05
1.136114e-05
9.8346985e-06
1.1091979e-05
1.0359542e-05
1.2162935e-05
1.2660041e-05
1.2595243e-05
1.236762e-05
1.2051507e-05
1.1857256e-05
1.1721187e-05
1.1654203e-05
1.1648239e-05
1.1631013e-05
1.1722055e-05
1.1872036e-05
1.2081537e-05
1.234845e-05
1.2673247e-05
1.3060833e-05
1.3514858e-05
1.4040656e-05
1.4646843e-05
1.5343951e-05
1.6147333e-05
1.7074027e-05
1.814181e-05
1.9375432e-05
2.0803845e-05
2.2465106e-05
2.4405118e-05
2.6681098e-05
2.9363083e-05
3.253656e-05
3.6305662e-05
4.0797375e-05
4.6172498e-05
5.2625546e-05
6.0892315e-05
7.032352e-05
8.1733228e-05
9.5560091e-05
0.00011234976
0.00013277014
0.00015766034
0.00018802954
0.0002251435
0.00027055463
0.00032618934
0.00039442822
0.00047821355
0.00058120133
0.00070796035
0.00086421819
0.0010571404
0.0011806106
0.0011807511
0.0011808188
0.0011807811
0.0011806246
0.0011803282
0.0011798666
0.0011792096
0.0011783219
0.0011771881
0.0011758443
0.0011743516
0.0011732448
0.0011724708
0.0011719155
0.0011714594
0.0011709759
0.001170432
0.0011700685
0.0011693322
2.1932401e-07
8.843472e-06
1.5859719e-05
1.4527801e-05
1.0410038e-05
1.0097786e-05
8.1092655e-06
9.4626644e-06
9.6583436e-06
1.0940531e-05
1.1444639e-05
1.114529e-05
1.0937766e-05
1.0655141e-05
1.0486691e-05
1.0301483e-05
1.0223536e-05
1.0211866e-05
1.0259256e-05
1.0362626e-05
1.0517696e-05
1.0726614e-05
1.0988414e-05
1.13034e-05
1.1676438e-05
1.2112173e-05
1.2615981e-05
1.3196517e-05
1.3863903e-05
1.4633001e-05
1.5521186e-05
1.6545952e-05
1.7731889e-05
1.9107251e-05
2.070952e-05
2.2583874e-05
2.4786773e-05
2.7387584e-05
3.0471124e-05
3.4140638e-05
3.8523515e-05
4.3778258e-05
5.0102516e-05
5.7725596e-05
6.6941476e-05
7.8115942e-05
9.2498511e-05
0.00010912014
0.00012936438
0.00015407777
0.00018427145
0.0002212181
0.00026647723
0.00032198537
0.0003901388
0.00047389899
0.00057694278
0.00070386316
0.00086042129
0.0010538339
0.0011811738
0.0011811797
0.0011811125
0.0011809477
0.0011806713
0.0011802632
0.0011796987
0.0011789513
0.0011779892
0.0011767899
0.0011754052
0.0011739629
0.0011729373
0.0011722243
0.0011717117
0.0011712792
0.0011707985
0.0011702051
0.0011697324
0.0011687937
2.0117327e-07
8.7984855e-06
1.4221012e-05
1.2652655e-05
8.4181226e-06
8.9786872e-06
7.220551e-06
8.5410545e-06
8.9458604e-06
9.7905789e-06
1.0244252e-05
9.8262957e-06
9.6254733e-06
9.291056e-06
9.1118261e-06
9.0017719e-06
8.9582976e-06
8.9722335e-06
9.0369131e-06
9.1511481e-06
9.3131855e-06
9.5220357e-06
9.7802074e-06
1.0087947e-05
1.045036e-05
1.0872517e-05
1.1359963e-05
1.1921535e-05
1.2567101e-05
1.3311074e-05
1.4171233e-05
1.5165142e-05
1.6317484e-05
1.7656133e-05
1.9218363e-05
2.1049088e-05
2.3204514e-05
2.5753944e-05
2.8782584e-05
3.2394181e-05
3.6716257e-05
4.1906896e-05
4.8167377e-05
5.5727117e-05
6.4882719e-05
7.6002301e-05
8.9539789e-05
0.0001060281
0.00012729671
0.00015205544
0.000182339
0.00021943513
0.00026492107
0.00032075525
0.00038936452
0.00047374822
0.00057762639
0.00070564224
0.00086361928
0.0010588615
0.0011818201
0.0011816859
0.0011814792
0.0011811828
0.0011807829
0.0011802601
0.0011795906
0.0011787502
0.0011777138
0.0011764535
0.0011750145
0.0011736649
0.0011727125
0.0011720535
0.0011715788
0.0011711674
0.001170685
0.0011700327
0.0011694523
0.0011685113
1.8571139e-07
8.7516516e-06
1.1297969e-05
1.0492906e-05
6.9192836e-06
7.99837e-06
6.5857285e-06
7.6783044e-06
8.3751127e-06
8.7494194e-06
9.0687401e-06
8.5361727e-06
8.2842623e-06
8.0539739e-06
7.9234943e-06
7.8535625e-06
7.8391137e-06
7.875549e-06
7.9564945e-06
8.0813147e-06
8.247887e-06
8.4586922e-06
8.7156043e-06
9.0193904e-06
9.3752568e-06
9.7887566e-06
1.0265732e-05
1.0815268e-05
1.1447205e-05
1.2175591e-05
1.2951754e-05
1.3915974e-05
1.503666e-05
1.6341282e-05
1.7866899e-05
1.9658205e-05
2.1771233e-05
2.4275292e-05
2.7256119e-05
3.0818291e-05
3.5090634e-05
4.0548515e-05
4.6810963e-05
5.4386549e-05
6.357469e-05
7.4747267e-05
8.837093e-05
0.00010499093
0.00012529492
0.00015014024
0.00018222999
0.00021979728
0.00026589564
0.00032251793
0.0003921371
0.0004778103
0.00058332475
0.00071340212
0.0008739589
0.0010724207
0.0011825232
0.0011822458
0.0011818982
0.001181469
0.0011809444
0.0011803066
0.0011795323
0.0011785985
0.0011774877
0.0011761788
0.0011746908
0.0011734574
0.0011725715
0.0011719597
0.00117152
0.0011711285
0.0011706398
0.0011699305
0.0011692655
0.0011684562
1.7204347e-07
8.7078237e-06
8.9194423e-06
8.9413208e-06
6.0958474e-06
7.0895936e-06
6.0528483e-06
6.9284626e-06
7.795457e-06
7.7794597e-06
7.7939093e-06
7.3411282e-06
7.1364778e-06
6.9690474e-06
6.8800083e-06
6.8436122e-06
6.8550571e-06
6.9100429e-06
7.0051011e-06
7.1401413e-06
7.3138795e-06
7.5284251e-06
7.7867983e-06
8.0902675e-06
8.4441381e-06
8.8161657e-06
9.2809467e-06
9.8176791e-06
1.043607e-05
1.1149705e-05
1.197495e-05
1.2933097e-05
1.4048173e-05
1.5347781e-05
1.68694e-05
1.865827e-05
2.0771202e-05
2.3278527e-05
2.6267815e-05
2.9845982e-05
3.4145034e-05
3.9329945e-05
4.5602867e-05
5.3206184e-05
6.2444405e-05
7.4336892e-05
8.817834e-05
0.00010508508
0.00012575682
0.00015107709
0.00018212525
0.0002223064
0.00026941135
0.00032729538
0.00039849375
0.00048614293
0.00059412307
0.00072726528
0.00089161323
0.0010947461
0.0011832564
0.0011828353
0.0011823484
0.0011817881
0.0011811407
0.0011803894
0.0011795132
0.0011784888
0.0011773022
0.0011759571
0.0011744777
0.0011733392
0.0011725137
0.0011719427
0.0011715364
0.0011711652
0.0011706662
0.001169916
0.0011691998
0.0011685295
1.598906e-07
8.6564929e-06
7.1017128e-06
7.8548249e-06
5.438021e-06
6.2808924e-06
5.5974406e-06
6.2654338e-06
7.1049958e-06
6.6771571e-06
6.6444496e-06
6.2970391e-06
6.1358885e-06
6.0192947e-06
5.9658031e-06
5.9582875e-06
5.9923054e-06
6.0654114e-06
6.1746102e-06
6.3206316e-06
6.5029226e-06
6.7238327e-06
6.9571512e-06
7.2576332e-06
7.6082344e-06
8.0138449e-06
8.482636e-06
9.0233652e-06
9.6460024e-06
1.0364394e-05
1.1195113e-05
1.2159242e-05
1.328228e-05
1.4592296e-05
1.6127482e-05
1.7934039e-05
2.0070175e-05
2.2607825e-05
2.5637203e-05
2.9268742e-05
3.363787e-05
3.8913373e-05
4.5307881e-05
5.3069969e-05
6.251374e-05
7.402993e-05
8.8104029e-05
0.00010532288
0.00012752259
0.00015354274
0.00018546841
0.00022467687
0.00027547018
0.00033510134
0.00040846336
0.00049879514
0.00061009771
0.00074734473
0.00091674699
0.0011260694
0.0011839936
0.0011834307
0.001182809
0.001182122
0.0011813565
0.0011804959
0.0011795218
0.0011784135
0.0011771533
0.0011757668
0.0011743636
0.0011733092
0.0011725368
0.0011720008
0.0011716267
0.0011712773
0.0011707639
0.0011699974
0.0011692794
0.0011687528
1.4912332e-07
8.5951817e-06
5.7032048e-06
6.8715044e-06
4.8538238e-06
5.5626293e-06
5.2117795e-06
5.590144e-06
6.2338814e-06
5.7209447e-06
5.6364926e-06
5.3843107e-06
5.2641796e-06
5.1901303e-06
5.1683056e-06
5.1870056e-06
5.2423861e-06
5.3330791e-06
5.4570011e-06
5.5941988e-06
5.7805187e-06
6.005451e-06
6.2717243e-06
6.5828517e-06
6.9438373e-06
7.3600087e-06
7.8394668e-06
8.391703e-06
9.0269619e-06
9.7593083e-06
1.0605493e-05
1.1586908e-05
1.2671943e-05
1.399353e-05
1.5543351e-05
1.7368543e-05
1.952895e-05
2.2098178e-05
2.5169153e-05
2.8856421e-05
3.3300012e-05
3.8967633e-05
4.5544617e-05
5.3539259e-05
6.3276559e-05
7.5158515e-05
8.9693916e-05
0.00010749556
0.00012931385
0.00015751279
0.00019059015
0.00023123073
0.00028119089
0.00034593168
0.00042205551
0.00051579402
0.00063130041
0.00077372501
0.00094949202
0.0011665918
0.0011847103
0.0011840102
0.0011832604
0.0011824535
0.0011815767
0.0011806137
0.0011795471
0.0011783623
0.0011770423
0.0011756028
0.0011743432
0.001173364
0.0011726373
0.0011721315
0.0011717881
0.0011714628
0.001170934
0.0011701809
0.0011695476
0.0011691307
1.3959424e-07
8.4721457e-06
4.637631e-06
5.9978805e-06
4.3333017e-06
4.9246984e-06
4.8766876e-06
4.8542962e-06
5.3543593e-06
4.868452e-06
4.7631881e-06
4.5896345e-06
4.5086991e-06
4.4716034e-06
4.4787679e-06
4.5219371e-06
4.5980123e-06
4.6876642e-06
4.8209469e-06
4.9886272e-06
5.1918513e-06
5.4325013e-06
5.7140769e-06
6.040317e-06
6.4168754e-06
6.8493841e-06
7.3460359e-06
7.8929232e-06
8.5418186e-06
9.2889046e-06
1.0151018e-05
1.1149619e-05
1.2310951e-05
1.3667994e-05
1.5260098e-05
1.7136013e-05
1.9358378e-05
2.2003658e-05
2.5168573e-05
2.8973594e-05
3.3565303e-05
3.9128434e-05
4.5886375e-05
5.4114305e-05
6.4151274e-05
7.7056121e-05
9.2179061e-05
0.000110713
0.0001334452
0.00016134659
0.00019745097
0.00023985371
0.00029199782
0.00035614087
0.00043924301
0.00053712436
0.00065773352
0.0008064326
0.00098990821
0.0011862012
0.0011853839
0.0011845541
0.0011836847
0.0011827664
0.0011817869
0.0011807307
0.0011795796
0.001178323
0.0011769673
0.0011755485
0.0011744056
0.001173499
0.0011728117
0.0011723323
0.0011720171
0.0011717186
0.0011711828
0.001170456
0.0011700186
0.0011696577
1.3121987e-07
8.1422849e-06
3.9058016e-06
5.2236723e-06
3.8710911e-06
4.3606865e-06
4.3425566e-06
4.1887487e-06
4.5061617e-06
4.1150076e-06
4.0151581e-06
3.9044871e-06
3.8605205e-06
3.8562695e-06
3.8902207e-06
3.9419234e-06
4.0312277e-06
4.1536506e-06
4.3084985e-06
4.4962179e-06
4.7186415e-06
4.9782245e-06
5.2789394e-06
5.6248465e-06
6.0082839e-06
6.4581753e-06
6.9729363e-06
7.5620564e-06
8.2374653e-06
9.0133721e-06
9.9070832e-06
1.0940974e-05
1.2142416e-05
1.354571e-05
1.5193e-05
1.7134911e-05
1.9437542e-05
2.2181085e-05
2.5466381e-05
2.9421248e-05
3.4198316e-05
3.9991842e-05
4.7040032e-05
5.5630643e-05
6.6122165e-05
7.8954379e-05
9.5509237e-05
0.00011492499
0.00013874754
0.00016800734
0.00020394504
0.00025047496
0.00030519752
0.00037253068
0.00045539638
0.00056270115
0.00068931766
0.00084539908
0.0010379368
0.0011869255
0.0011859948
0.001185046
0.001184067
0.0011830469
0.001181974
0.0011808349
0.0011796119
0.0011782904
0.0011768959
0.0011755833
0.0011745433
0.0011737076
0.0011730572
0.0011726018
0.0011723109
0.0011720359
0.0011715154
0.0011708388
0.001170537
0.0011702634
1.2408532e-07
7.7285569e-06
3.4441511e-06
4.5375842e-06
3.4613157e-06
3.6992052e-06
3.8717827e-06
3.579015e-06
3.7386049e-06
3.4607758e-06
3.382579e-06
3.3217993e-06
3.3116926e-06
3.3370975e-06
3.3789025e-06
3.4625584e-06
3.5781102e-06
3.7244063e-06
3.9017313e-06
4.1113257e-06
4.3556207e-06
4.6373738e-06
4.9513646e-06
5.3178108e-06
5.7358093e-06
6.2120311e-06
6.7544916e-06
7.3730297e-06
8.0798338e-06
8.8900397e-06
9.8215336e-06
1.0897687e-05
1.2147168e-05
1.3606062e-05
1.5253369e-05
1.7257755e-05
1.9636542e-05
2.2474262e-05
2.60322e-05
3.0166572e-05
3.5165756e-05
4.1233524e-05
4.8624272e-05
5.7641558e-05
6.8662535e-05
8.2154019e-05
9.868854e-05
0.00011896849
0.00014514179
0.0001759654
0.00021383843
0.00026039506
0.00032065834
0.00039165068
0.00047902915
0.00059233728
0.00072585181
0.00089041627
0.0010933614
0.0011875658
0.0011865288
0.001185473
0.0011843952
0.0011832842
0.0011821279
0.0011809147
0.0011796328
0.0011782709
0.0011768585
0.0011756908
0.0011747444
0.0011739802
0.0011733711
0.0011729389
0.0011726693
0.0011724048
0.0011719108
0.001171326
0.0011711656
0.0011710564
1.1848049e-07
6.6853196e-06
3.0514956e-06
3.9151884e-06
3.1085783e-06
3.0881543e-06
3.4028453e-06
3.0269059e-06
3.0792517e-06
2.9020851e-06
2.8532299e-06
2.8332247e-06
2.8454981e-06
2.8900525e-06
2.9703809e-06
3.0821304e-06
3.2233402e-06
3.3939566e-06
3.5950792e-06
3.8284207e-06
4.0908035e-06
4.395154e-06
4.7416198e-06
5.1349639e-06
5.5808727e-06
6.0862424e-06
6.6594616e-06
7.3107622e-06
8.0527324e-06
8.8815181e-06
9.8489959e-06
1.0964852e-05
1.2258983e-05
1.3768843e-05
1.5541268e-05
1.7634804e-05
2.0121811e-05
2.309285e-05
2.6660262e-05
3.0962798e-05
3.6172697e-05
4.2808256e-05
5.0588314e-05
6.0090528e-05
7.17121e-05
8.5946681e-05
0.00010340121
0.00012482255
0.00015251575
0.00018509253
0.0002251341
0.00027436577
0.00033817347
0.00041326231
0.0005057016
0.00061953929
0.0007669704
0.00094108216
0.0011557474
0.0011881115
0.0011869774
0.0011858271
0.001184661
0.0011834701
0.001182242
0.001180964
0.0011796296
0.0011782511
0.0011769205
0.0011758579
0.0011749964
0.0011743022
0.001173747
0.0011733414
0.0011730897
0.0011728244
0.0011723536
0.0011718686
0.0011718727
0.001171807
1.1397215e-07
4.6989576e-06
2.6964889e-06
3.3383629e-06
2.659254e-06
2.5763241e-06
2.9084382e-06
2.5352127e-06
2.530276e-06
2.4317806e-06
2.4159564e-06
2.4234717e-06
2.4667511e-06
2.5455507e-06
2.6555074e-06
2.794123e-06
2.9607483e-06
3.1560578e-06
3.3784812e-06
3.6351667e-06
3.9273152e-06
4.2582748e-06
4.632114e-06
5.0537794e-06
5.5292369e-06
6.0656779e-06
6.6718349e-06
7.3472211e-06
8.1229106e-06
9.0074486e-06
1.0021075e-05
1.118893e-05
1.2542695e-05
1.4122154e-05
1.5977172e-05
1.8169878e-05
2.077747e-05
2.3895971e-05
2.7644809e-05
3.2172132e-05
3.7661458e-05
4.4338986e-05
5.2874915e-05
6.2911039e-05
7.5193833e-05
9.0246041e-05
0.00010871095
0.00013138165
0.00015923553
0.00019521242
0.00023762511
0.00028978576
0.00035396258
0.00043701596
0.00053499862
0.00065567959
0.00081210038
0.00099674192
0.0011897957
0.0011885586
0.0011873371
0.0011861051
0.0011848613
0.0011835999
0.0011823111
0.0011809821
0.0011796073
0.0011782201
0.0011770497
0.0011760811
0.001175292
0.0011746584
0.0011741682
0.0011737981
0.0011735631
0.0011732901
0.0011728411
0.0011724642
0.0011725975
0.0011726543
1.09226e-07
3.9048624e-06
2.3254714e-06
2.8068104e-06
2.2932091e-06
2.1488717e-06
2.3964194e-06
2.1035376e-06
2.0840102e-06
2.0458815e-06
2.0589238e-06
2.1009656e-06
2.1802641e-06
2.2898556e-06
2.427147e-06
2.5912104e-06
2.7823779e-06
2.9996454e-06
3.2486879e-06
3.5308018e-06
3.8489524e-06
4.2067338e-06
4.6084463e-06
5.0592291e-06
5.5652585e-06
6.1339955e-06
6.7669276e-06
7.4870422e-06
8.3029091e-06
9.2315109e-06
1.0294214e-05
1.1517689e-05
1.2935481e-05
1.4589752e-05
1.6533559e-05
1.8833308e-05
2.1571418e-05
2.4849992e-05
2.879598e-05
3.3566235e-05
3.9355405e-05
4.6740008e-05
5.5416277e-05
6.6023839e-05
7.9014254e-05
9.4941069e-05
0.00011448598
0.00013848931
0.00016954337
0.00020609427
0.00025103418
0.00030631901
0.00037435745
0.00046243036
0.00056635359
0.00069438413
0.00086041528
0.0010564224
0.0011902083
0.0011889062
0.0011876093
0.0011863083
0.001184998
0.0011836744
0.001182332
0.0011809636
0.0011795777
0.0011782797
0.0011772258
0.0011763523
0.0011756315
0.0011750465
0.0011746233
0.0011742956
0.0011740774
0.0011737973
0.0011733754
0.0011731195
0.0011733728
0.0011735035
1.0603963e-07
3.1460027e-06
2.0054794e-06
2.2686587e-06
1.9931352e-06
1.783115e-06
1.9203539e-06
1.737463e-06
1.733687e-06
1.7441325e-06
1.7871912e-06
1.8671549e-06
1.9773821e-06
2.1139215e-06
2.2757518e-06
2.4631425e-06
2.6759898e-06
2.918008e-06
3.1910213e-06
3.4977448e-06
3.8414288e-06
4.225878e-06
4.6555546e-06
5.1357445e-06
5.6727921e-06
6.2700732e-06
6.94344e-06
7.7016316e-06
8.5588559e-06
9.5329469e-06
1.0646547e-05
1.1927944e-05
1.3412744e-05
1.5145637e-05
1.7182818e-05
1.9594927e-05
2.2470243e-05
2.5917083e-05
3.0070675e-05
3.5097426e-05
4.1474686e-05
4.897463e-05
5.8131649e-05
6.933483e-05
8.3061061e-05
9.9897601e-05
0.00012056656
0.00014595871
0.0001787684
0.00021744104
0.00026500727
0.000323541
0.00039560397
0.00048885847
0.00059899459
0.00073473414
0.00091079549
0.001118786
0.0011905211
0.0011891598
0.0011878
0.0011864414
0.0011850772
0.0011837017
0.0011823126
0.0011809146
0.0011795396
0.0011783941
0.0011774411
0.0011766563
0.0011760097
0.0011754884
0.0011750811
0.001174819
0.0011746151
0.0011743369
0.0011739572
0.0011738149
0.0011741644
0.0011743076
1.047259e-07
2.4816882e-06
1.7289225e-06
1.751795e-06
1.7165631e-06
1.4701607e-06
1.5316481e-06
1.4458739e-06
1.4729581e-06
1.5183426e-06
1.6000639e-06
1.7105278e-06
1.8462315e-06
2.0056031e-06
2.1889226e-06
2.3973548e-06
2.6318463e-06
2.8959414e-06
3.1917514e-06
3.5222542e-06
3.8908717e-06
4.3015505e-06
4.758877e-06
5.2682579e-06
5.8361688e-06
6.4704935e-06
7.1809622e-06
7.9796803e-06
8.8715399e-06
9.891611e-06
1.1056783e-05
1.2397065e-05
1.3950269e-05
1.5763852e-05
1.7897198e-05
2.0507821e-05
2.3546159e-05
2.7192063e-05
3.1589782e-05
3.6917204e-05
4.3393351e-05
5.1287492e-05
6.0932223e-05
7.2736876e-05
8.7205541e-05
0.00010495945
0.00012676291
0.00015489917
0.00018808605
0.00022889629
0.00027910923
0.0003409224
0.00042100028
0.00051549012
0.00063194293
0.0007755543
0.00096179876
0.0011821103
0.0011907458
0.0011893327
0.0011879203
0.0011865131
0.0011851057
0.0011836913
0.0011822655
0.0011808514
0.0011795871
0.0011785489
0.001177689
0.0011769789
0.0011763963
0.0011759439
0.0011755801
0.0011753479
0.0011751591
0.001174894
0.00117457
0.0011745194
0.0011749216
0.0011750524
1.0634019e-07
1.9124522e-06
1.4984106e-06
1.3556114e-06
1.4348323e-06
1.2077288e-06
1.2471865e-06
1.2323918e-06
1.2922079e-06
1.3719642e-06
1.4822612e-06
1.6162055e-06
1.7724631e-06
1.9511447e-06
2.153456e-06
2.3811335e-06
2.63593e-06
2.9208876e-06
3.2385338e-06
3.5919803e-06
3.9847519e-06
4.4208895e-06
4.905083e-06
5.442862e-06
6.0408577e-06
6.7071585e-06
7.4517841e-06
8.2872767e-06
9.2294369e-06
1.0298254e-05
1.1519e-05
1.2923681e-05
1.4552623e-05
1.6456522e-05
1.8698817e-05
2.1358622e-05
2.4534344e-05
2.8348372e-05
3.2952098e-05
3.8532868e-05
4.5322002e-05
5.360398e-05
6.3726635e-05
7.6120845e-05
9.1315861e-05
0.00011087451
0.00013395272
0.00016230779
0.00019717015
0.00024005992
0.00029285318
0.00036122833
0.00044192384
0.00054138008
0.000664043
0.00082335133
0.0010116647
0.0011923826
0.0011908974
0.0011894406
0.0011879867
0.0011865382
0.0011850933
0.0011836519
0.0011822173
0.0011808236
0.0011796884
0.0011787425
0.0011779656
0.0011773277
0.0011768033
0.0011763815
0.001176079
0.0011758711
0.0011756927
0.0011754513
0.0011751953
0.0011752205
0.0011756379
0.0011757481
1.1203855e-07
1.445135e-06
1.311392e-06
1.0663567e-06
1.2806267e-06
9.8972142e-07
1.0541604e-06
1.0912662e-06
1.1779877e-06
1.2853833e-06
1.4166962e-06
1.5688391e-06
1.7421778e-06
1.9378325e-06
2.1575053e-06
2.4031973e-06
2.6771876e-06
2.9818366e-06
3.3202458e-06
3.6954957e-06
4.1111875e-06
4.5714488e-06
5.0810754e-06
5.6457305e-06
6.2722177e-06
6.9688508e-06
7.7459513e-06
8.6165261e-06
9.5970132e-06
1.0708301e-05
1.1976823e-05
1.3436147e-05
1.51286e-05
1.7107425e-05
1.9439265e-05
2.2207258e-05
2.5514713e-05
2.9489656e-05
3.4290374e-05
4.0112273e-05
4.7518556e-05
5.6232216e-05
6.6882303e-05
7.992153e-05
9.5906418e-05
0.00011552268
0.00013961599
0.00016922983
0.00020564873
0.00025280774
0.00030840792
0.00037688772
0.00046128964
0.00056539092
0.00070065456
0.00086054807
0.0010581562
0.0011925032
0.0011909884
0.0011894985
0.0011880161
0.0011865383
0.001185061
0.0011835877
0.0011821479
0.0011808795
0.0011798334
0.0011789686
0.0011782569
0.0011776744
0.0011772157
0.0011768338
0.0011765582
0.0011763755
0.0011762038
0.0011759904
0.0011758022
0.0011758879
0.0011762963
0.0011763643
1.2247066e-07
1.1452502e-06
1.1504456e-06
9.2574995e-07
9.375212e-07
8.6576167e-07
9.2724856e-07
1.0064101e-06
1.1139298e-06
1.2408794e-06
1.3880514e-06
1.5552169e-06
1.7435809e-06
1.9546622e-06
2.1903146e-06
2.4526092e-06
2.7438623e-06
3.0666552e-06
3.4238808e-06
3.818797e-06
4.2551059e-06
4.7370592e-06
5.269608e-06
5.8586144e-06
6.5111453e-06
7.2332782e-06
8.0394813e-06
8.9415707e-06
9.9655364e-06
1.1119171e-05
1.2436255e-05
1.3952051e-05
1.5710985e-05
1.7768864e-05
2.019549e-05
2.3077816e-05
2.6523809e-05
3.0667168e-05
3.5673089e-05
4.1745402e-05
4.9135366e-05
5.8152526e-05
6.9177918e-05
8.2678522e-05
9.9231766e-05
0.00011954844
0.00014579178
0.00017670869
0.00021472749
0.00026151532
0.00031913562
0.00039014971
0.00047773723
0.00059142107
0.00072595717
0.00089227481
0.0010980941
0.0011925906
0.0011910449
0.001189524
0.0011880185
0.0011865248
0.001185039
0.0011835644
0.0011821417
0.0011809833
0.0011800162
0.0011792215
0.0011785676
0.001178024
0.001177605
0.0011772723
0.0011770083
0.0011768538
0.0011766914
0.0011765107
0.0011763835
0.0011764999
0.0011768616
0.0011768993
1.4396505e-07
1.1832827e-06
9.906453e-07
7.0650532e-07
7.6592837e-07
7.7380392e-07
8.5719786e-07
9.591646e-07
1.0831259e-06
1.2248592e-06
1.3854947e-06
1.5659464e-06
1.7677099e-06
1.9924191e-06
2.2419567e-06
2.5184214e-06
2.8241624e-06
3.16181e-06
3.5343184e-06
3.9450192e-06
4.3976943e-06
4.8966796e-06
5.4470135e-06
6.0546493e-06
6.7267572e-06
7.4721368e-06
8.3017638e-06
9.22949e-06
1.027293e-05
1.1454517e-05
1.280277e-05
1.4353889e-05
1.6153544e-05
1.825912e-05
2.0742368e-05
2.3692632e-05
2.7220789e-05
3.1464024e-05
3.6591702e-05
4.2812586e-05
5.0383863e-05
6.0049375e-05
7.1432979e-05
8.5368846e-05
0.00010245275
0.00012341794
0.00014917012
0.00018082874
0.00021977916
0.0002677357
0.00032682966
0.00040339779
0.00049400031
0.00060590194
0.00074426236
0.00091553936
0.0011278173
0.0011926919
0.0011911146
0.0011895594
0.0011880226
0.0011865023
0.001185
0.0011835347
0.0011822057
0.0011811201
0.0011802174
0.001179475
0.0011788676
0.0011783743
0.0011779804
0.0011776894
0.0011774609
0.0011773005
0.0011771561
0.0011770089
0.001176929
0.0011770504
0.0011773455
0.0011773443
1.3727784e-07
7.8943937e-07
8.1254202e-07
6.02369e-07
6.5937279e-07
7.1981117e-07
8.2178703e-07
9.405191e-07
1.0775462e-06
1.2318673e-06
1.4047199e-06
1.5973023e-06
1.8111405e-06
2.0479346e-06
2.3096073e-06
2.5983145e-06
2.9164732e-06
3.2667505e-06
3.6522402e-06
4.0763346e-06
4.5429014e-06
5.0563637e-06
5.6218495e-06
6.245406e-06
6.9343068e-06
7.6974731e-06
8.5460314e-06
9.4940355e-06
1.0568002e-05
1.1777356e-05
1.3157156e-05
1.4744544e-05
1.6586316e-05
1.8741223e-05
2.1282652e-05
2.430194e-05
2.7912366e-05
3.2254058e-05
3.7500011e-05
4.3863483e-05
5.1607072e-05
6.1053818e-05
7.2600892e-05
8.6738714e-05
0.000104071
0.00012534309
0.00015147601
0.00018522067
0.00022505528
0.0002741019
0.00033454929
0.00040911871
0.00050120459
0.00061504957
0.00075596943
0.00093064108
0.0011474522
0.0011928455
0.0011912448
0.0011896626
0.0011880978
0.0011865497
0.0011850252
0.0011835599
0.0011823134
0.0011812829
0.0011804317
0.0011797314
0.0011791571
0.0011787009
0.0011783338
0.0011780562
0.001177854
0.0011777028
0.0011775727