/*--------------------------------*- C++ -*----------------------------------*\
  =========                 |
  \\      /  F ield         | OpenFOAM: The Open Source CFD Toolbox
   \\    /   O peration     | Website:  https://openfoam.org
    \\  /    A nd           | Version:  12
     \\/     M anipulation  |
\*---------------------------------------------------------------------------*/
FoamFile
{
    format      ascii;
    class       volScalarField;
    location    "0.098";
    object      k;
}
// * * * * * * * * * * * * * * * * * * * * * * * * * * * * * * * * * * * * * //

dimensions      [0 2 -2 0 0 0 0];

internalField   nonuniform List<scalar> 
16000
(
0.048554084
0.021621851
0.022404453
0.016472443
0.013984285
0.012664738
0.011879643
0.011410598
0.011092316
0.010878136
0.010720186
0.01060258
0.010510823
0.010438175
0.010379744
0.010332483
0.010293871
0.010262239
0.010236499
0.01021521
0.0101978
0.010183646
0.010172278
0.010163154
0.010156079
0.010150661
0.01014673
0.010144117
0.01014268
0.01014229
0.010142823
0.010144178
0.010146273
0.010149041
0.010152423
0.010156363
0.010160805
0.010165694
0.010170973
0.010176587
0.010182475
0.010188569
0.010194805
0.010201118
0.010207437
0.010213692
0.010219822
0.010225778
0.010231513
0.010236986
0.010242156
0.010246982
0.010251425
0.010255456
0.010259057
0.010262229
0.010264974
0.010267277
0.010269099
0.010270371
0.010270998
0.010270859
0.01026982
0.010267688
0.01026418
0.010258903
0.010251333
0.010240838
0.010226746
0.010208512
0.010186176
0.010160174
0.010130782
0.010109184
0.010093645
0.010082997
0.010076334
0.010076475
0.0100832
0.010116933
0.045845495
0.020456417
0.020967212
0.015930606
0.01364046
0.012460932
0.011717188
0.011293362
0.010991411
0.010794402
0.010646724
0.010537859
0.010452502
0.010385325
0.01033136
0.01028795
0.010252676
0.010223892
0.01020076
0.010181793
0.010166471
0.010154208
0.010144624
0.010137125
0.010131591
0.010127616
0.010125037
0.010123691
0.010123444
0.010124173
0.010125759
0.0101281
0.010131113
0.010134728
0.010138887
0.010143533
0.010148613
0.01015407
0.01015985
0.010165899
0.010172159
0.010178565
0.010185055
0.010191569
0.01019804
0.010204399
0.010210587
0.010216552
0.010222254
0.010227655
0.010232717
0.010237406
0.010241687
0.010245531
0.010248922
0.010251859
0.010254349
0.010256387
0.010257938
0.010258938
0.010259296
0.010258895
0.010257602
0.010255228
0.010251501
0.010246033
0.010238301
0.010227682
0.010213546
0.010195356
0.010173143
0.010147801
0.010119837
0.010099568
0.010085274
0.01007579
0.010069963
0.010068512
0.010078377
0.010105415
0.041351994
0.019625446
0.019644562
0.01537011
0.013289043
0.012235022
0.011549085
0.011167131
0.010888344
0.010709474
0.010572927
0.01047324
0.010394762
0.010333348
0.010284154
0.010244822
0.010213115
0.010187371
0.010167008
0.010150515
0.010137429
0.010127174
0.010119485
0.010113709
0.0101098
0.010107348
0.010106194
0.010106182
0.010107184
0.010109083
0.010111766
0.010115129
0.010119088
0.010123573
0.010128524
0.010133884
0.010139598
0.010145612
0.01015187
0.01015832
0.010164908
0.010171571
0.01017825
0.010184888
0.010191424
0.010197793
0.010203936
0.010209806
0.010215363
0.010220575
0.010225411
0.010229841
0.010233836
0.01023737
0.010240429
0.010243012
0.01024513
0.010246786
0.010247949
0.010248561
0.01024853
0.010247744
0.010246069
0.010243319
0.010239226
0.010233414
0.010225363
0.010214454
0.010200101
0.010181826
0.010159601
0.01013465
0.010108335
0.010089635
0.010076764
0.010068501
0.010063213
0.010061501
0.01007295
0.010092339
0.03829025
0.019064232
0.018498967
0.014868212
0.012970776
0.012030298
0.011395158
0.011051754
0.010793742
0.010631323
0.010505415
0.010414216
0.010342301
0.010286338
0.010241707
0.010206271
0.010178012
0.010155196
0.010137514
0.010123428
0.010112532
0.010104234
0.010098405
0.010094323
0.010092007
0.010091051
0.010091296
0.010092594
0.010094817
0.010097855
0.010101598
0.010105943
0.010110804
0.010116107
0.01012179
0.010127795
0.010134069
0.010140556
0.010147202
0.010153955
0.010160764
0.010167572
0.010174323
0.010180962
0.010187438
0.010193689
0.010199659
0.010205305
0.010210591
0.010215488
0.010219972
0.010224019
0.010227608
0.010230716
0.01023333
0.010235451
0.010237093
0.010238263
0.010238941
0.01023907
0.010238562
0.010237303
0.010235162
0.010231955
0.010227417
0.010221182
0.010212748
0.0102015
0.010186883
0.010168501
0.010146269
0.010121558
0.010096895
0.010079773
0.010068329
0.01006121
0.010056395
0.010054757
0.010065912
0.010079443
0.036064679
0.018750933
0.017513969
0.014403102
0.012674569
0.011836886
0.01125085
0.010943044
0.010705451
0.010558447
0.01044297
0.010359869
0.010294379
0.010243712
0.010203554
0.010171928
0.010147076
0.010127147
0.010112117
0.010100417
0.010091713
0.010085369
0.010081395
0.010079022
0.010078287
0.010078827
0.01008047
0.010083072
0.010086508
0.010090669
0.010095448
0.010100742
0.010106462
0.010112532
0.010118887
0.010125469
0.010132221
0.010139091
0.010146025
0.010152972
0.010159887
0.010166716
0.010173408
0.010179915
0.010186192
0.010192184
0.010197842
0.010203124
0.010208001
0.010212448
0.010216447
0.010219983
0.010223039
0.010225599
0.010227651
0.010229197
0.010230253
0.010230833
0.010230924
0.010230473
0.010229393
0.01022757
0.010224874
0.010221123
0.010216052
0.010209307
0.01020041
0.010188759
0.010173812
0.010155272
0.010133048
0.010108422
0.010085643
0.010070119
0.010060084
0.010054022
0.010049669
0.010048239
0.010058511
0.010066967
0.033349711
0.018680888
0.016778951
0.013976829
0.012401995
0.011656989
0.01111749
0.010842331
0.010624383
0.01049158
0.010386216
0.010310756
0.010251479
0.010205915
0.010170103
0.010142172
0.010120666
0.010103571
0.010091152
0.01008182
0.010075299
0.010070931
0.010068785
0.01006818
0.010068976
0.010071007
0.010074039
0.010077932
0.010082557
0.010087809
0.010093581
0.01009977
0.010106283
0.010113043
0.010119981
0.010127037
0.010134157
0.010141287
0.010148377
0.010155381
0.010162254
0.010168953
0.010175432
0.010181649
0.010187569
0.010193146
0.010198336
0.010203105
0.010207426
0.010211284
0.010214663
0.010217556
0.010219955
0.010221847
0.010223225
0.010224091
0.010224461
0.010224353
0.010223762
0.010222643
0.010220907
0.010218439
0.01021511
0.010210738
0.010205063
0.010197738
0.010188313
0.010176215
0.010160899
0.010142155
0.01012
0.01009539
0.010074675
0.010060747
0.010052073
0.010046985
0.010043113
0.010041853
0.010050747
0.010055193
0.03042934
0.018780097
0.016256962
0.013586039
0.012150878
0.011489945
0.010994842
0.01074947
0.01055043
0.01043065
0.010335058
0.01026684
0.010213585
0.010172972
0.010141419
0.010117107
0.01009892
0.010084648
0.010074818
0.010067867
0.01006353
0.010061272
0.010060856
0.010062261
0.010064392
0.010067907
0.010072319
0.01007748
0.010083262
0.010089557
0.010096259
0.010103265
0.010110481
0.010117823
0.010125225
0.010132624
0.010139967
0.010147204
0.010154289
0.01016118
0.010167839
0.010174231
0.010180319
0.010186072
0.01019146
0.010196451
0.01020101
0.010205107
0.010208724
0.010211849
0.010214475
0.010216599
0.010218219
0.010219331
0.010219929
0.010220016
0.010219606
0.010218722
0.010217365
0.010215495
0.010213026
0.010209842
0.010205808
0.01020075
0.01019441
0.010186447
0.01017644
0.010163861
0.010148159
0.010129161
0.010107146
0.010082882
0.010064129
0.010051771
0.010044383
0.010040179
0.010036813
0.010035669
0.010042932
0.010044261
0.028524772
0.018965996
0.015833835
0.013228262
0.011919728
0.011335509
0.010882355
0.010664298
0.010483241
0.010375532
0.010289415
0.010228152
0.010180783
0.010145033
0.0101177
0.010096976
0.010082103
0.010070691
0.010063401
0.010058878
0.010056688
0.010057038
0.010057963
0.01006081
0.010064908
0.010069891
0.010075654
0.010082041
0.010088921
0.010096182
0.01010372
0.010111429
0.010119216
0.010126996
0.0101347
0.010142269
0.010149651
0.010156803
0.010163684
0.010170261
0.010176503
0.010182387
0.010187887
0.01019298
0.01019765
0.010201877
0.010205635
0.010208902
0.010211666
0.010213921
0.010215665
0.010216901
0.010217633
0.010217862
0.010217586
0.010216807
0.010215538
0.010213801
0.010211604
0.010208914
0.010205647
0.010201684
0.010196889
0.010191088
0.010184035
0.010175395
0.010164767
0.010151682
0.010135604
0.010116323
0.010094444
0.010070962
0.010054097
0.010043256
0.010037068
0.010033667
0.010030838
0.010029778
0.010035257
0.010033566
0.026734707
0.01914858
0.015340821
0.012900317
0.011706905
0.011192871
0.010779346
0.010586025
0.010422878
0.010326465
0.010249523
0.010194995
0.010153398
0.010122452
0.010099324
0.010082185
0.010070583
0.010062148
0.010057185
0.010055148
0.010054567
0.010057201
0.010060693
0.010065309
0.010070914
0.01007734
0.010084399
0.010091936
0.010099815
0.010107923
0.010116154
0.010124405
0.010132582
0.010140602
0.010148399
0.010155917
0.010163111
0.010169944
0.010176387
0.010182415
0.010188012
0.010193164
0.010197861
0.010202092
0.010205851
0.010209133
0.010211923
0.010214207
0.010215979
0.010217236
0.010217983
0.010218226
0.010217975
0.010217234
0.010216005
0.010214288
0.010212095
0.010209446
0.01020635
0.010202783
0.010198665
0.010193874
0.010188272
0.010181688
0.010173886
0.010164543
0.010153274
0.010139664
0.010123239
0.010103686
0.010081849
0.010059738
0.01004466
0.010035266
0.010030187
0.010027515
0.010025244
0.01002425
0.010027838
0.01002247
0.024992726
0.019319346
0.014675122
0.012599466
0.01151238
0.01106244
0.010686644
0.010515839
0.010369917
0.010283902
0.010215817
0.01016784
0.010131905
0.010105715
0.010086784
0.010073265
0.010064691
0.010059584
0.010056052
0.010055875
0.010060411
0.010064121
0.010069365
0.010075684
0.010082841
0.010090629
0.01009888
0.010107438
0.010116163
0.010124937
0.010133658
0.010142227
0.010150552
0.010158557
0.01016618
0.010173373
0.010180103
0.010186344
0.01019208
0.010197301
0.010202003
0.010206188
0.010209861
0.010213024
0.010215686
0.01021785
0.010219517
0.010220679
0.010221334
0.010221486
0.01022114
0.010220306
0.010218995
0.010217217
0.010214975
0.010212269
0.010209104
0.010205498
0.010201461
0.010196976
0.010191968
0.010186315
0.010179877
0.010172483
0.01016391
0.010153854
0.010141938
0.010127791
0.010111047
0.010091319
0.010069343
0.010049267
0.010035874
0.010027841
0.010023789
0.010021782
0.010020066
0.010019097
0.01002082
0.010013834
0.023501088
0.019459638
0.01413912
0.012323602
0.011336667
0.010944622
0.010604794
0.010454335
0.010324526
0.010248242
0.010188719
0.01014717
0.010116817
0.010095365
0.010080627
0.010070855
0.010064289
0.010063651
0.010064543
0.010067343
0.010071413
0.010077437
0.010084532
0.010092482
0.010101064
0.010110079
0.010119353
0.010128731
0.010138071
0.010147256
0.010156187
0.010164773
0.010172933
0.010180598
0.010187721
0.010194267
0.010200216
0.010205558
0.010210295
0.010214433
0.010217986
0.010220971
0.010223406
0.01022531
0.010226701
0.010227597
0.010228006
0.010227931
0.010227372
0.010226333
0.010224824
0.010222852
0.010220431
0.010217571
0.010214277
0.010210548
0.010206385
0.010201798
0.010196796
0.010191368
0.010185446
0.010178913
0.010171624
0.01016341
0.010154059
0.010143288
0.010130739
0.010116054
0.010098993
0.010079286
0.010057264
0.010039585
0.010027778
0.010021006
0.010017905
0.010016516
0.010015334
0.01001444
0.010014532
0.010007018
0.022148481
0.019587329
0.013675511
0.012073058
0.011179695
0.010839061
0.010533575
0.010401218
0.010287047
0.010219959
0.010168728
0.010133539
0.010108722
0.01009202
0.010081467
0.010075735
0.010073891
0.010074502
0.010077775
0.010083035
0.010089889
0.010097807
0.010106625
0.01011606
0.010125888
0.010135904
0.010145939
0.010155839
0.010165467
0.010174712
0.010183481
0.010191701
0.010199306
0.010206246
0.01021249
0.010218023
0.010222845
0.010226967
0.010230408
0.010233193
0.010235354
0.010236922
0.010237931
0.010238411
0.010238392
0.010237899
0.01023695
0.010235553
0.010233712
0.01023143
0.010228715
0.010225574
0.010222017
0.010218056
0.010213694
0.010208931
0.010203761
0.010198187
0.010192215
0.010185835
0.010178992
0.010171574
0.010163436
0.010154409
0.010144289
0.010132814
0.010119656
0.010104463
0.010087049
0.010067536
0.010046337
0.010030721
0.010020396
0.010014763
0.01001254
0.01001174
0.010011052
0.010010375
0.010009292
0.0100015
0.020928241
0.019671368
0.013248223
0.011847778
0.011041018
0.010745747
0.010473118
0.010357141
0.010257823
0.010199579
0.010156425
0.010127587
0.010108302
0.010096392
0.010090073
0.010088021
0.010089307
0.010093361
0.010099421
0.01010707
0.010115919
0.01012567
0.010136011
0.01014668
0.010157452
0.010168126
0.010178538
0.010188542
0.010198015
0.01020686
0.010215003
0.010222391
0.010228986
0.010234764
0.010239718
0.010243857
0.010247205
0.010249793
0.010251661
0.010252853
0.010253413
0.010253389
0.010252825
0.010251759
0.010250231
0.010248271
0.010245902
0.010243137
0.010239981
0.010236436
0.010232503
0.010228189
0.010223499
0.010218441
0.010213019
0.01020723
0.010201065
0.010194517
0.010187586
0.010180265
0.010172508
0.010164215
0.010155244
0.010145427
0.010134563
0.010122405
0.010108666
0.010093032
0.010075266
0.010055826
0.010036446
0.010022711
0.010013735
0.010009101
0.01000767
0.010007443
0.010007185
0.010006883
0.010005219
0.0099975052
0.019830595
0.019675116
0.012861233
0.01164568
0.010919877
0.010664729
0.010423542
0.010322396
0.010237332
0.010187758
0.010152547
0.010130099
0.01011638
0.010109319
0.010107286
0.010109072
0.010113786
0.010120735
0.010129396
0.010139302
0.010150065
0.010161345
0.010172864
0.010184364
0.010195627
0.010206461
0.010216717
0.01022627
0.010235023
0.010242906
0.010249874
0.010255908
0.010261002
0.010265166
0.010268422
0.010270806
0.010272365
0.01027315
0.010273219
0.01027263
0.010271439
0.010269703
0.010267473
0.010264794
0.010261708
0.010258249
0.010254443
0.010250303
0.010245836
0.010241039
0.010235909
0.010230446
0.01022465
0.010218523
0.010212068
0.01020528
0.010198146
0.010190654
0.010182794
0.010174557
0.010165909
0.010156763
0.010146986
0.01013641
0.010124843
0.010112043
0.010097751
0.010081743
0.010063783
0.010044178
0.010027583
0.010015561
0.010007794
0.010004006
0.010003261
0.0100036
0.010003714
0.010003871
0.010002367
0.0099949241
0.018841212
0.019442665
0.012511894
0.011465791
0.010816069
0.010596237
0.010385159
0.010297677
0.0102263
0.010185402
0.01015806
0.010142077
0.010133982
0.010131816
0.010134078
0.010139626
0.010147617
0.010157405
0.010168442
0.010180274
0.010192525
0.010204867
0.010217025
0.010228756
0.010239862
0.010250182
0.010259594
0.010268012
0.01027538
0.01028167
0.010286878
0.010291024
0.010294141
0.010296274
0.010297476
0.010297805
0.01029733
0.010296117
0.010294236
0.010291754
0.010288733
0.010285234
0.01028131
0.010277008
0.01027237
0.010267429
0.010262209
0.010256727
0.010250984
0.010244977
0.010238696
0.010232131
0.010225277
0.01021813
0.010210687
0.010202943
0.010194883
0.010186488
0.010177742
0.01016863
0.010159126
0.010149162
0.010138613
0.010127318
0.010115094
0.010101714
0.010086913
0.010070536
0.01005269
0.010033975
0.010019659
0.010009252
0.010002569
0.0099994853
0.0099992998
0.010000198
0.010000687
0.010001216
0.010000891
0.0099938758
0.017945645
0.018565999
0.012197726
0.011307394
0.010729855
0.010540691
0.01035853
0.010283949
0.010225806
0.010193694
0.010174205
0.010164754
0.010162302
0.010165007
0.010171471
0.010180617
0.01019163
0.010203873
0.01021682
0.010230024
0.010243118
0.010255792
0.010267799
0.010278933
0.01028904
0.010298008
0.010305769
0.01031229
0.010317573
0.010321639
0.010324532
0.010326314
0.010327055
0.01032683
0.010325716
0.010323793
0.010321139
0.010317831
0.010313941
0.010309539
0.010304688
0.010299446
0.010293865
0.010287986
0.01028185
0.010275487
0.010268917
0.010262155
0.010255201
0.010248048
0.010240681
0.010233082
0.010225237
0.010217134
0.010208763
0.010200117
0.010191183
0.010181939
0.010172359
0.010162425
0.010152111
0.010141369
0.010130093
0.010118122
0.010105283
0.010091386
0.010076181
0.01005946
0.010041605
0.010025006
0.010012659
0.010003738
0.0099980504
0.0099955722
0.00999581
0.0099971896
0.0099981477
0.0099991052
0.0099994308
0.009993902
0.017136273
0.017209715
0.011921028
0.01117026
0.010660337
0.010499037
0.010344722
0.01028264
0.010237309
0.010214114
0.010202439
0.010199507
0.010202608
0.010210007
0.010220387
0.010232722
0.010246219
0.010260257
0.010274327
0.010288009
0.010300973
0.010312957
0.010323771
0.01033328
0.0103414
0.010348095
0.010353366
0.010357248
0.010359801
0.010361102
0.010361239
0.010360307
0.010358405
0.01035563
0.010352074
0.010347824
0.010342963
0.010337566
0.010331705
0.010325442
0.010318836
0.010311937
0.010304789
0.010297431
0.010289893
0.010282202
0.010274375
0.010266421
0.01025834
0.010250122
0.010241748
0.010233194
0.010224436
0.010215451
0.010206224
0.010196742
0.010186994
0.010176957
0.010166605
0.010155908
0.01014484
0.010133367
0.010121406
0.010108813
0.010095405
0.010081021
0.010065507
0.010048715
0.010031099
0.010017132
0.01000653
0.0099989587
0.0099942067
0.0099922907
0.0099928402
0.0099945307
0.0099959239
0.0099974795
0.0099988461
0.0099956971
0.016408995
0.016358595
0.01168764
0.011054802
0.010608425
0.010472676
0.010345244
0.01029544
0.010262512
0.010248304
0.010244324
0.010247742
0.010256096
0.01026774
0.010281416
0.010296147
0.010311168
0.010325895
0.010339877
0.010352761
0.010364298
0.010374319
0.01038273
0.010389495
0.010394627
0.010398174
0.010400216
0.010400852
0.010400197
0.010398369
0.010395488
0.010391671
0.010387031
0.010381672
0.010375688
0.010369165
0.01036218
0.0103548
0.010347088
0.010339095
0.01033087
0.010322451
0.010313875
0.010305169
0.010296358
0.01028746
0.010278488
0.010269448
0.010260337
0.010251145
0.010241849
0.010232422
0.010222832
0.010213048
0.010203043
0.010192799
0.010182302
0.010171534
0.010160471
0.010149077
0.01013732
0.010125165
0.01011256
0.01009939
0.010085479
0.010070645
0.010054812
0.0100382
0.010022232
0.010010231
0.010001211
0.0099948488
0.0099909802
0.0099896114
0.0099904008
0.0099922433
0.0099939737
0.0099960842
0.0099982156
0.0099967343
0.01575582
0.015362103
0.011488461
0.01096155
0.01057507
0.010463317
0.010361749
0.01032427
0.010303345
0.01029806
0.01030146
0.010310745
0.010323637
0.010338571
0.010354363
0.010370109
0.010385128
0.010398936
0.0104112
0.010421699
0.010430315
0.010437014
0.010441825
0.010444826
0.010446127
0.010445859
0.010444164
0.010441193
0.010437091
0.010432002
0.010426058
0.010419379
0.010412077
0.01040425
0.010395983
0.010387352
0.010378419
0.01036924
0.010359861
0.010350322
0.010340656
0.010330893
0.010321053
0.010311157
0.010301219
0.010291251
0.010281259
0.010271246
0.010261208
0.010251133
0.010241001
0.010230782
0.010220441
0.010209938
0.010199237
0.010188309
0.010177135
0.0101657
0.010153985
0.010141959
0.010129581
0.010116807
0.010103593
0.010089872
0.010075512
0.010060333
0.01004427
0.010027855
0.010014597
0.010004297
0.0099966588
0.0099913677
0.0099883156
0.0099874735
0.0099884527
0.009990309
0.0099922451
0.0099948819
0.0099974358
0.0099977886
0.015171219
0.014691425
0.011326022
0.010891235
0.010561316
0.010473184
0.01039645
0.010371509
0.010362058
0.01036524
0.010375181
0.010389176
0.010405132
0.010421609
0.010437569
0.010452275
0.010465224
0.010476115
0.010484808
0.010491264
0.010495532
0.010497722
0.010497987
0.010496503
0.010493456
0.010489033
0.010483413
0.010476766
0.010469249
0.010461002
0.010452152
0.010442808
0.010433066
0.010423007
0.0104127
0.010402203
0.010391563
0.010380817
0.010369996
0.010359124
0.010348221
0.010337303
0.010326381
0.010315462
0.010304552
0.010293656
0.010282775
0.010271906
0.010261044
0.010250179
0.01023929
0.010228353
0.010217331
0.010206182
0.010194863
0.010183332
0.01017156
0.010159527
0.010147218
0.010134615
0.01012168
0.010108358
0.010094592
0.010080334
0.010065519
0.010050066
0.010034122
0.010019304
0.01000799
0.0099992736
0.0099928539
0.0099885103
0.0099861889
0.0099858259
0.0099869626
0.0099887554
0.0099907802
0.0099939095
0.0099969335
0.0099987361
0.014649648
0.013943743
0.011196968
0.010846519
0.010568962
0.010505648
0.010452422
0.010439889
0.010440752
0.010450994
0.010465584
0.010482034
0.01049853
0.010513891
0.010527363
0.010538492
0.010547056
0.010553005
0.010556422
0.010557463
0.010556331
0.010553255
0.010548473
0.010542222
0.010534721
0.010526176
0.010516767
0.010506658
0.010495989
0.010484883
0.010473443
0.010461755
0.010449893
0.010437915
0.010425868
0.010413792
0.010401713
0.010389654
0.010377629
0.010365648
0.010353717
0.010341839
0.010330013
0.010318239
0.010306513
0.010294832
0.01028319
0.010271582
0.01026
0.010248433
0.010236865
0.010225274
0.01021363
0.010201894
0.01019002
0.010177959
0.010165668
0.010153115
0.010140279
0.010127148
0.010113705
0.010099902
0.010085665
0.010070924
0.010055665
0.010039989
0.010024408
0.010012067
0.010002408
0.0099950919
0.0099897711
0.0099862755
0.0099845877
0.0099846112
0.0099858518
0.009987563
0.0099896465
0.0099931545
0.0099966902
0.0099993124
0.014190938
0.013368519
0.01110606
0.010832171
0.010601842
0.010564788
0.010532784
0.010531247
0.010539861
0.010554199
0.010570103
0.010585515
0.010599092
0.01061009
0.010618162
0.010623225
0.010625371
0.010624804
0.0106218
0.010616659
0.010609681
0.010601157
0.010591353
0.010580511
0.010568843
0.010556532
0.010543737
0.010530588
0.010517196
0.010503652
0.010490029
0.010476385
0.010462769
0.010449214
0.010435746
0.010422385
0.010409141
0.01039602
0.010383024
0.010370148
0.010357388
0.010344734
0.010332179
0.01031971
0.010307317
0.010294988
0.010282714
0.010270482
0.010258282
0.010246103
0.01023393
0.010221746
0.010209529
0.010197247
0.010184861
0.010172322
0.010159581
0.010146588
0.010133306
0.010119713
0.010105801
0.010091552
0.010076916
0.010061803
0.01004617
0.010030397
0.010016606
0.010005973
0.0099977981
0.0099916978
0.0099873585
0.0099846219
0.0099834733
0.0099837805
0.0099850699
0.009986717
0.0099888378
0.0099925199
0.0099965185
0.0099995539
0.013800608
0.012911037
0.011055744
0.010853326
0.01068619
0.010653642
0.01063857
0.01064434
0.010656161
0.010669934
0.010682588
0.010692737
0.010699692
0.010703249
0.010703499
0.010700705
0.010695213
0.0106874
0.010677646
0.010666306
0.010653697
0.010640101
0.010625756
0.010610868
0.010595604
0.010580104
0.010564484
0.010548833
0.010533223
0.010517712
0.010502341
0.010487141
0.010472136
0.010457337
0.010442753
0.010428384
0.010414228
0.010400277
0.01038652
0.010372945
0.010359536
0.010346276
0.010333147
0.010320131
0.01030721
0.010294366
0.010281581
0.01026884
0.010256128
0.01024343
0.010230733
0.010218023
0.010205282
0.010192487
0.010179611
0.010166617
0.010153458
0.010140084
0.01012644
0.010112479
0.010098171
0.010083502
0.010068474
0.010053101
0.010037456
0.010022081
0.010010299
0.01000108
0.0099941311
0.0099890516
0.0099855496
0.0099834664
0.0099827544
0.0099832649
0.0099845561
0.0099861933
0.0099884163
0.0099921587
0.0099964123
0.0099997101
0.013487935
0.012543801
0.011050111
0.01090975
0.010789646
0.010771436
0.010766006
0.010772878
0.010781692
0.010789317
0.010793927
0.010794953
0.010792369
0.010786452
0.010777622
0.010766346
0.010753084
0.010738259
0.010722241
0.010705348
0.010687846
0.010669953
0.010651845
0.010633662
0.010615517
0.010597494
0.010579662
0.010562068
0.010544749
0.010527729
0.010511022
0.010494637
0.010478575
0.010462831
0.010447399
0.010432265
0.010417416
0.010402834
0.0103885
0.010374393
0.01036049
0.010346769
0.010333204
0.010319773
0.010306449
0.01029321
0.010280034
0.010266897
0.010253781
0.010240668
0.010227541
0.010214384
0.010201184
0.010187922
0.01017458
0.010161133
0.010147552
0.010133799
0.010119827
0.010105582
0.010091004
0.010076033
0.010060633
0.010044872
0.010029221
0.010015783
0.010005357
0.0099973547
0.0099913908
0.009987125
0.0099842909
0.0099827571
0.0099823186
0.0099830053
0.0099842583
0.0099858897
0.0099882032
0.0099919396
0.0099962949
0.009999761
0.013269971
0.012278243
0.011091967
0.011008117
0.010923583
0.010909521
0.010904849
0.010905441
0.01090487
0.010901389
0.010894362
0.010883931
0.010870533
0.010854699
0.01083696
0.010817797
0.010797625
0.01077679
0.010755568
0.010734183
0.010712807
0.010691573
0.010670582
0.010649908
0.010629604
0.010609706
0.010590239
0.010571215
0.010552641
0.010534515
0.01051683
0.010499576
0.010482737
0.010466298
0.01045024
0.01043454
0.010419177
0.010404125
0.010389361
0.010374857
0.010360588
0.010346524
0.010332638
0.0103189
0.010305283
0.010291759
0.010278299
0.010264877
0.010251469
0.01023805
0.010224601
0.010211102
0.010197536
0.010183886
0.010170135
0.010156266
0.010142259
0.010128094
0.010113746
0.010099184
0.010084369
0.010069255
0.010053803
0.010038087
0.010022739
0.010010979
0.010001713
0.0099946871
0.0099895077
0.0099858782
0.0099835682
0.0099824297
0.0099821231
0.0099830145
0.0099842444
0.0099858872
0.0099882569
0.0099919088
0.0099962308
0.0099996505
0.013144646
0.012113226
0.011188428
0.011137165
0.011072414
0.011054352
0.011040651
0.011028269
0.011013641
0.010996292
0.010976367
0.010954342
0.010930758
0.010906112
0.010880827
0.010855244
0.010829627
0.01080418
0.010779053
0.010754356
0.010730164
0.01070653
0.010683485
0.010661046
0.01063922
0.010618004
0.010597389
0.010577362
0.010557905
0.010538998
0.010520618
0.010502743
0.010485348
0.010468406
0.01045189
0.010435775
0.01042003
0.01040463
0.010389543
0.010374742
0.010360197
0.010345878
0.010331754
0.010317795
0.010303969
0.010290245
0.010276593
0.010262983
0.010249384
0.010235771
0.010222115
0.010208394
0.010194586
0.010180668
0.01016662
0.010152425
0.010138062
0.010123514
0.010108762
0.010093793
0.010078589
0.010063142
0.010047497
0.010031963
0.010018057
0.010007421
0.0099991441
0.0099928976
0.009988331
0.0099851791
0.0099832629
0.009982504
0.0099825085
0.0099833214
0.0099846046
0.0099862662
0.0099886256
0.009992091
0.0099962217
0.0099995036
0.013081918
0.012043361
0.011348653
0.011280375
0.011219582
0.011187096
0.011157498
0.011128619
0.011098778
0.011068002
0.011036567
0.011004846
0.01097317
0.010941809
0.010910961
0.010880768
0.010851327
0.010822696
0.010794909
0.010767978
0.010741902
0.01071667
0.010692261
0.010668651
0.010645814
0.010623718
0.010602333
0.010581627
0.010561567
0.010542122
0.010523258
0.010504944
0.010487147
0.010469838
0.010452984
0.010436555
0.01042052
0.010404848
0.01038951
0.010374473
0.010359709
0.010345186
0.010330873
0.01031674
0.010302755
0.010288887
0.010275103
0.010261371
0.010247661
0.01023394
0.01022018
0.010206352
0.010192428
0.010178382
0.010164189
0.010149824
0.010135262
0.010120479
0.010105455
0.010090171
0.010074619
0.010058817
0.010042884
0.010027379
0.010014728
0.010004912
0.0099973956
0.0099917775
0.0099877286
0.0099849914
0.0099833812
0.0099827583
0.0099829763
0.0099838293
0.009985123
0.0099868028
0.0099890899
0.0099922381
0.0099959561
0.0099991196
0.013093758
0.012004227
0.011503702
0.01141384
0.011341231
0.011290146
0.011243309
0.011199293
0.01115681
0.011115683
0.011075866
0.011037384
0.011000259
0.010964494
0.010930076
0.010896974
0.010865148
0.010834551
0.010805132
0.010776838
0.010749615
0.010723408
0.010698167
0.01067384
0.010650379
0.010627735
0.010605865
0.010584725
0.010564274
0.010544472
0.01052528
0.010506662
0.010488583
0.010471008
0.010453903
0.010437235
0.010420972
0.010405084
0.010389538
0.010374305
0.010359355
0.010344656
0.01033018
0.010315896
0.010301774
0.010287782
0.010273891
0.010260069
0.010246284
0.010232505
0.010218701
0.010204842
0.010190898
0.01017684
0.010162638
0.010148263
0.010133682
0.010118865
0.010103778
0.010088391
0.010072682
0.010056664
0.010040489
0.010024868
0.010012859
0.010003482
0.0099963915
0.0099911608
0.0099874627
0.0099850257
0.0099836437
0.0099831551
0.0099834099
0.009984254
0.0099855623
0.0099873004
0.0099895626
0.0099924347
0.0099957188
0.0099987894
0.013188259
0.012030908
0.01162045
0.011510741
0.011422597
0.011355478
0.011295665
0.011241273
0.011190669
0.011143204
0.011098434
0.011056067
0.011015874
0.010977671
0.010941297
0.010906617
0.010873505
0.010841852
0.010811559
0.010782533
0.010754693
0.010727961
0.010702268
0.010677548
0.01065374
0.010630789
0.010608641
0.010587248
0.010566562
0.010546541
0.010527143
0.010508329
0.010490061
0.010472302
0.010455018
0.010438175
0.01042174
0.010405682
0.010389969
0.010374572
0.01035946
0.010344604
0.010329976
0.010315546
0.010301286
0.010287166
0.010273158
0.010259231
0.010245357
0.010231504
0.010217644
0.010203748
0.010189785
0.010175729
0.010161551
0.010147224
0.010132717
0.010118
0.010103039
0.010087804
0.010072268
0.010056437
0.010040445
0.010024957
0.010012848
0.010003468
0.0099963932
0.0099912112
0.0099875898
0.0099852481
0.0099839566
0.0099835288
0.0099838158
0.0099846745
0.009986015
0.009987787
0.0099899848
0.0099925994
0.0099955348
0.0099985525
0.013313924
0.012087442
0.011681965
0.011559585
0.01146123
0.011385729
0.011319798
0.011260885
0.011206934
0.011156963
0.011110296
0.011066474
0.011025153
0.010986062
0.010948983
0.010913731
0.010880151
0.010848107
0.010817481
0.010788169
0.010760075
0.010733116
0.010707216
0.010682303
0.010658314
0.01063519
0.010612875
0.010591318
0.010570472
0.010550291
0.010530733
0.010511759
0.010493329
0.010475408
0.010457959
0.010440949
0.010424346
0.010408116
0.01039223
0.010376657
0.010361368
0.010346333
0.010331525
0.010316915
0.010302475
0.010288177
0.010273992
0.010259892
0.010245846
0.010231827
0.010217803
0.010203746
0.010189628
0.010175419
0.010161093
0.010146624
0.010131984
0.010117147
0.010102085
0.010086768
0.010071171
0.010055292
0.01003927
0.010023852
0.010012265
0.010003148
0.0099962698
0.0099912137
0.0099876786
0.0099853989
0.0099841513
0.0099837423
0.0099840354
0.009984901
0.0099862652
0.009988061
0.0099902189
0.0099926726
0.0099953927
0.0099983989
67.811168
368.09548
124.50001
15.114832
0.41892948
0.021526585
0.020129428
0.019826352
0.019550044
0.018491712
0.017155671
0.015975294
0.01507569
0.01449993
0.01409175
0.013705018
0.013327406
0.012993246
0.012713893
0.012480725
0.012282579
0.012111641
0.011962771
0.01183221
0.011716947
0.011614506
0.011522891
0.011440501
0.011366085
0.011298654
0.011237393
0.011181592
0.011130628
0.011083979
0.011041231
0.011002048
0.010966144
0.010933263
0.010903167
0.010875642
0.010850498
0.010827552
0.010806624
0.010787552
0.010770188
0.010754387
0.010740005
0.0107269
0.010714937
0.010703983
0.010693902
0.010684562
0.010675846