/*--------------------------------*- C++ -*----------------------------------*\
  =========                 |
  \\      /  F ield         | OpenFOAM: The Open Source CFD Toolbox
   \\    /   O peration     | Website:  https://openfoam.org
    \\  /    A nd           | Version:  12
     \\/     M anipulation  |
\*---------------------------------------------------------------------------*/
FoamFile
{
    format      ascii;
    class       volScalarField;
    location    "0.098";
    object      p;
}
// * * * * * * * * * * * * * * * * * * * * * * * * * * * * * * * * * * * * * //

dimensions      [1 -1 -2 0 0 0 0];

internalField   nonuniform List<scalar> 
16000
(
89652.757
89779.317
89790.984
89926.149
89952.446
90080.384
90131.055
90248.276
90322.35
90433.847
90526.233
90637.596
90744.085
90859.746
90977.293
91100.299
91227.374
91359.124
91495.425
91636.366
91781.956
91932.2
92087.08
92246.553
92410.552
92578.981
92751.713
92928.592
93109.428
93293.995
93482.035
93673.255
93867.328
94063.892
94262.554
94462.893
94664.46
94866.783
95069.374
95271.727
95473.332
95673.675
95872.246
96068.544
96262.082
96452.396
96639.046
96821.622
96999.748
97173.087
97341.338
97504.242
97661.583
97813.183
97958.906
98098.653
98232.364
98360.012
98481.603
98597.176
98706.797
98810.553
98908.561
99000.954
99087.884
99169.52
99246.044
99317.647
99384.527
99446.891
99504.965
99558.982
99609.176
99655.926
99699.776
99740.988
99779.295
99813.666
99872.599
99835.04
89282.923
89426.423
89435.732
89582.877
89610.678
89749.559
89802.522
89931.039
90008.893
90130.51
90229.269
90349.571
90464.369
90588.89
90715.697
90848.189
90985.163
91127.107
91273.941
91425.719
91582.437
91744.074
91910.583
92081.887
92257.878
92438.418
92623.333
92812.415
93005.42
93202.065
93402.031
93604.963
93810.468
94018.121
94227.464
94438.013
94649.26
94860.678
95071.727
95281.861
95490.534
95697.205
95901.349
96102.457
96300.049
96493.673
96682.915
96867.397
97046.787
97220.794
97389.173
97551.723
97708.287
97858.749
98003.033
98141.101
98272.947
98398.598
98518.106
98631.554
98739.045
98840.699
98936.657
99027.074
99112.118
99191.966
99266.804
99336.825
99402.223
99463.203
99519.989
99572.797
99621.873
99667.658
99710.593
99750.518
99787.644
99826.07
99867.917
99854.475
88943.983
89103.017
89112.214
89272.682
89300.472
89453.15
89507.737
89648.606
89731.31
89863.452
89969.99
90099.891
90224.284
90358.697
90495.979
90639.175
90787.292
90940.691
91099.306
91263.152
91432.194
91606.375
91785.609
91969.775
92158.719
92352.253
92550.146
92752.133
92957.903
93167.109
93379.36
93594.227
93811.245
94029.914
94249.704
94470.063
94690.419
94910.187
95128.78
95345.611
95560.107
95771.71
95979.89
96184.146
96384.018
96579.087
96768.98
96953.372
97131.989
97304.608
97471.055
97631.201
97784.963
97932.3
98073.208
98207.715
98335.881
98457.79
98573.547
98683.28
98787.132
98885.258
98977.825
99065.008
99146.988
99223.952
99296.086
99363.581
99426.626
99485.424
99540.19
99591.127
99638.505
99682.794
99724.23
99762.472
99798.903
99837.035
99869.098
99872.116
88639.861
88809.741
88819.93
88995.847
89023.135
89192.107
89248.946
89404.172
89492.715
89636.957
89752.793
89893.684
90029.325
90175.12
90324.42
90479.814
90640.516
90806.765
90978.497
91155.691
91338.281
91526.173
91719.24
91917.314
92120.19
92327.616
92539.299
92754.897
92974.024
93196.248
93421.093
93648.044
93876.547
94106.018
94335.847
94565.406
94794.057
95021.161
95246.085
95468.214
95686.955
95901.752
96112.086
96317.485
96517.53
96711.855
96900.154
97082.174
97257.722
97426.661
97588.904
97744.413
97893.191
98035.283
98170.764
98299.739
98422.335
98538.699
98648.991
98753.385
98852.064
98945.217
99033.034
99115.71
99193.437
99266.405
99334.803
99398.812
99458.618
99514.415
99566.407
99614.786
99659.849
99702.049
99741.375
99777.595
99813.032
99848.822
99874.456
99888.793
88374.469
88559.335
88566.215
88760.957
88787.17
88974.664
89033.714
89205.175
89300.863
89458.65
89585.601
89738.706
89887.143
90045.584
90208.161
90376.961
90551.412
90731.663
90917.655
91109.335
91306.605
91509.327
91717.318
91930.349
92148.14
92370.361
92596.626
92826.5
93059.495
93295.077
93532.664
93771.636
94011.34
94251.097
94490.211
94727.977
94963.697
95196.682
95426.27
95651.831
95872.778
96088.576
96298.746
96502.87
96700.599
96891.649
97075.801
97252.904
97422.867
97585.657
97741.293
97889.836
98031.392
98166.096
98294.109
98415.613
98530.807
98639.898
98743.099
98840.628
98932.705
99019.547
99101.366
99178.367
99250.752
99318.712
99382.429
99442.077
99497.834
99549.885
99598.415
99643.609
99685.794
99725.348
99762.022
99795.906
99829.847
99862.172
99882.777
99906.118
88152.562
88355.112
88359.906
88575.766
88600.868
88808.874
88870.231
89059.64
89163.711
89335.822
89475.149
89640.995
89803.154
89975.078
90151.88
90335.16
90524.525
90720.042
90921.625
91129.168
91342.509
91561.438
91785.686
92014.93
92248.786
92486.811
92728.505
92973.308
93220.608
93469.743
93720.009
93970.668
94220.957
94470.097
94717.307
94961.818
95202.878
95439.773
95671.832
95898.439
96119.044
96333.166
96540.398
96740.414
96932.965
97117.879
97295.058
97464.472
97626.157
97780.2
97926.738
98065.946
98198.033
98323.229
98441.782
98553.952
98660
98760.192
98854.788
98944.044
99028.209
99107.521
99182.207
99252.479
99318.54
99380.575
99438.759
99493.256
99544.23
99591.856
99636.296
99677.734
99716.515
99752.889
99786.415
99817.657
99849.559
99877.534
99893.827
99925.11
87974.643
88198.159
88200.16
88440.758
88464.869
88697.172
88761.758
88970.675
89083.122
89268.871
89421.479
89600.671
89777.888
89964.809
90157.534
90357.156
90563.366
90776.121
90995.269
91220.614
91451.897
91688.802
91930.944
92177.872
92429.071
92683.954
92941.873
93202.122
93463.938
93726.516
93989.015
94250.57
94510.307
94767.355
95020.863
95270.012
95514.031
95752.209
95983.903
96208.554
96425.687
96634.918
96835.959
97028.61
97212.762
97388.388
97555.537
97714.327
97864.933
98007.579
98142.527
98270.068
98390.515
98504.189
98611.42
98712.534
98807.853
98897.687
98982.335
99062.08
99137.192
99207.922
99274.501
99337.141
99396.037
99451.367
99503.291
99551.958
99597.524
99640.141
99679.948
99717.138
99752.049
99784.752
99814.707
99843.059
99872.388
99895.216
99907.71
99946.58
87834.648
88082.783
88080.463
88350.885
88371.849
88631.052
88698.758
88926.766
89050.893
89252.748
89422.341
89617.738
89813.07
90017.939
90229.412
90448.153
90673.889
90906.475
91145.664
91391.152
91642.558
91899.427
92161.226
92427.345
92697.1
92969.731
93244.415
93520.269
93796.364
94071.735
94345.401
94616.373
94883.68
95146.38
95403.581
95654.454
95898.248
96134.305
96362.064
96581.074
96790.99
96991.579
97182.713
97364.368
97536.609
97699.584
97853.515
97998.68
98135.408
98264.061
98385.026
98498.706
98605.507
98705.835
98800.085
98888.64
98971.865
99050.104
99123.68
99192.891
99258.017
99319.308
99376.992
99431.273
99482.332
99530.33
99575.409
99617.705
99657.356
99694.489
99729.224
99761.763
99792.405
99821.006
99847.059
99872.339
99898.571
99915.607
99924.874
99971.144
87730.562
88007.161
88000.436
88307.85
88322.865
88610.829
88683.918
88933.969
89074.982
89295.492
89485.777
89700.338
89916.883
90142.835
90376.09
90616.964
90865.15
91120.378
91382.272
91650.376
91924.147
92202.951
92486.062
92772.668
93061.878
93352.722
93644.171
93935.146
94224.537
94511.221
94794.083
95072.034
95344.035
95609.117
95866.397
96115.093
96354.542
96584.204
96803.668
97012.657
97211.02
97398.731
97575.874
97742.636
97899.289
98046.18
98183.713
98312.335
98432.525
98544.777
98649.592
98747.468
98838.891
98924.328
99004.227
99079.005
99149.055
99214.736
99276.38
99334.288
99388.733
99439.958
99488.175
99533.57
99576.305
99616.518
99654.332
99689.866
99723.235
99754.537
99783.877
99811.467
99837.517
99861.667
99883.605
99905.689
99928.279
99939.095
99946.087
99999.417
87665.158
87975.01
87965.155
88309.636
88323.905
88644.213
88728.803
89004.286
89165.357
89406.53
89621.167
89858.114
90099.164
90349.627
90607.995
90874.275
91148.056
91428.897
91716.242
92009.436
92307.714
92610.208
92915.947
93223.867
93532.822
93841.6
94148.942
94453.564
94754.177
95049.52
95338.376
95619.603
95892.155
96155.104
96407.654
96649.16
96879.13
97097.23
97303.281
97497.257
97679.263
97849.534
98008.405
98156.304
98293.729
98421.227
98539.385
98648.807
98750.105
98843.886
98930.741
99011.239
99085.92
99155.292
99219.826
99279.957
99336.081
99388.559
99437.712
99483.829
99527.165
99567.943
99606.352
99642.551
99676.676
99708.841
99739.147
99767.689
99794.557
99819.82
99843.573
99866.028
99887.253
99906.711
99924.463
99943.265
99961.614
99965.912
99971.714
100032.09
87645.357
87994.737
87980.89
88366.052
88384.278
88741.2
88840.851
89143.63
89330.498
89595.215
89838.465
90101.773
90371.101
90649.923
90937.089
91232.323
91535.038
91844.565
92160.1
92480.711
92805.343
93132.82
93461.861
93791.097
94119.092
94444.367
94765.429
95080.801
95389.052
95688.829
95978.885
96258.108
96525.545
96780.417
97022.131
97250.288
97464.678
97665.273
97852.212
98025.786
98186.414
98334.624
98471.026
98596.294
98711.142
98816.307
98912.531
99000.55
99081.077
99154.798
99222.362
99284.378
99341.41
99393.975
99442.546
99487.549
99529.366
99568.336
99604.758
99638.895
99670.972
99701.181
99729.678
99756.594
99782.034
99806.081
99828.814
99850.305
99870.611
99889.772
99907.888
99925.139
99941.411
99956.078
99969.727
99985.185
99998.699
99996.491
100002.38
100069.35
87679.855
88076.252
88058.507
88491.89
88515.027
88911.746
89031.015
89362.968
89581.403
89873.01
90149.276
90443.473
90745.323
91056.794
91376.852
91704.903
92040.082
92381.396
92727.688
93077.654
93429.854
93782.729
94134.632
94483.849
94828.636
95167.254
95498.007
95819.28
96129.578
96427.561
96712.077
96982.186
97237.174
97476.562
97700.106
97907.785
98099.784
98276.471
98438.373
98586.144
98720.539
98842.384
98952.552
99051.938
99141.441
99221.946
99294.311
99359.355
99417.853
99470.526
99518.043
99561.014
99599.997
99635.489
99667.94
99697.743
99725.247
99750.756
99774.531
99796.795
99817.736
99837.507
99856.228
99873.994
99890.874
99906.927
99922.203
99936.749
99950.587
99963.737
99976.307
99988.408
99999.717
100009.66
100019.45
100031.52
100039.7
100031.42
100038.75
100111.23
87769.556
88221.852
88200.768
88689.039
88720.684
89161.063
89307.588
89671.335
89928.518
90251.833
90566.296
90896.877
91236.331
91585.424
91942.991
92308.019
92679.223
93055.152
93434.173
93814.503
94194.236
94571.374
94943.864
95309.644
95666.686
96013.049
96346.926
96666.693
96970.95
97258.557
97528.652
97780.668
98014.327
98229.625
98426.815
98606.376
98768.974
98915.429
99046.678
99163.74
99267.683
99359.596
99440.564
99511.65
99573.879
99628.226
99675.604
99716.864
99752.79
99784.096
99811.427
99835.364
99856.421
99875.055
99891.665
99906.596
99920.149
99932.576
99944.09
99954.87
99965.058
99974.761
99984.061
99993.013
100001.66
100010.02
100018.12
100025.99
100033.6
100040.98
100048.23
100055.35
100061.82
100067.31
100073.61
100082.27
100084.76
100071.38
100081.54
100157.93
87919.714
88438.371
88414.59
88965.224
89011.722
89499.725
89682.824
90081.754
90385.52
90746.922
91105.698
91479.191
91862.228
92254.509
92654.461
93060.483
93470.705
93883.077
94295.38
94705.266
95110.304
95508.026
95895.99
96271.839
96633.37
96978.598
97305.815
97613.63
97901.008
98167.278
98412.135
98635.618
98838.082
99020.154
99182.694
99326.739
99453.463
99564.125
99660.038
99742.526
99812.9
99872.434
99922.347
99963.789
99997.837
100025.48
100047.63
100065.12
100078.68
100088.97
100096.59
100102.06
100105.81
100108.25
100109.7
100110.45
100110.74
100110.76
100110.68
100110.61
100110.65
100110.87
100111.29
100111.95
100112.85
100113.98
100115.35
100116.95
100118.72
100120.7
100122.97
100125.39
100127.3
100128.76
100132.06
100137.28
100133.89
100117.1
100131.57
100209.48
88136.945
88734.966
88710.402
89331.868
89400.486
89940.2
90171.209
90610.569
90969.983
91378.025
91788.656
92212.623
92645.804
93086.845
93533.509
93983.447
94434.058
94882.573
95326.087
95761.623
96186.207
96596.951
96991.142
97366.33
97720.413
98051.692
98358.921
98641.321
98898.574
99130.796
99338.497
99522.519
99683.982
99824.213
99944.689
100046.98
100132.71
100203.47
100260.87
100306.41
100341.55
100367.64
100385.93
100397.58
100403.62
100405.01
100402.58
100397.08
100389.18
100379.44
100368.38
100356.42
100343.92
100331.21
100318.53
100306.09
100294.08
100282.62
100271.81
100261.74
100252.43
100243.91
100236.17
100229.21
100222.99
100217.5
100212.7
100208.55
100204.99
100202.06
100199.8
100197.89
100195.66
100193.66
100194.45
100196.24
100187.03
100168.41
100189.1
100265.96
88427.553
89120.388
89097.917
89799.871
89902.031
90499.388
90793.062
91281.463
91707.112
92172.146
92642.981
93125.009
93614.314
94108.457
94604.33
95098.661
95587.952
96068.574
96536.862
96989.228
97422.29
97832.993
98218.726
98577.406
98907.536
99208.225
99479.174
99720.636
99933.352
100118.47
100277.47
100412.06
100524.12
100615.62
100688.54
100744.86
100786.48
100815.22
100832.79
100840.77
100840.62
100833.66
100821.07
100803.92
100783.17
100759.63
100734.05
100707.05
100679.18
100650.91
100622.64
100594.69
100567.34
100540.81
100515.28
100490.89
100467.73
100445.9
100425.41
100406.31
100388.58
100372.21
100357.14
100343.34
100330.75
100319.33
100309.02
100299.75
100291.47
100284.22
100277.94
100272.17
100266.34
100261.55
100260.24
100258.63
100244.12
100225.15
100253.29
100326.4
88799.174
89605.281
89590.543
90388.182
90540.962
91206.048
91579.563
92127.886
92630.425
93162.874
93701.647
94248.012
94797.551
95346.537
95890.674
96425.49
96946.397
97448.867
97928.617
98381.79
98805.111
99196.009
99552.693
99874.17
100160.22
100411.31
100628.55
100813.52
100968.18
101094.76
101195.67
101273.37
101330.32
101368.93
101391.49
101400.17
101396.98
101383.75
101362.16
101333.7
101299.74
101261.45
101219.88
101175.94
101130.44
101084.05
101037.35
100990.86
100944.97
100900.04
100856.34
100814.12
100773.53
100734.72
100697.8
100662.82
100629.82
100598.82
100569.81
100542.76
100517.63
100494.35
100472.86
100453.07
100434.93
100418.35
100403.27
100389.58
100377.26
100366.32
100356.62
100347.54
100338.77
100331.9
100328.85
100323.98
100305.11
100286.69
100322.47
100391.34
89271.779
90217.551
90221.914
91134.923
91355.953
92099.055
92569.809
93189.297
93778.318
94387.809
95000.976
95615.648
96226.04
96826.643
97411.578
97975.03
98511.479
99015.977
99484.371
99913.474
100301.15
100646.34
100948.99
101209.96
101430.86
101613.89
101761.71
101877.24
101963.55
102023.75
102060.9
102077.91
102077.56
102062.41
102034.8
101996.86
101950.49
101897.39
101839.06
101776.81
101711.78
101644.96
101577.2
101509.22
101441.63
101374.95
101309.61
101245.96
101184.26
101124.76
101067.62
101012.97
100960.89
100911.44
100864.65
100820.52
100779.03
100740.14
100703.79
100669.91
100638.43
100609.24
100582.26
100557.38
100534.52
100513.6
100494.5
100477.14
100461.49
100447.55
100435.02
100423.27
100412.33
100404.12
100399.67
100391.79
100369.85
100352.94
100395.52
100460.74
89877.757
91000.882
91034.601
92081.624
92389.785
93218.932
93805.802
94510.093
95195.187
95890.227
96581.34
97262.814
97926.668
98565.337
99171.557
99738.877
100261.97
100736.85
101161.02
101533.41
101854.3
102125.15
102348.34
102526.98
102664.65
102765.21
102832.61
102870.77
102883.48
102874.29
102846.52
102803.19
102747.01
102680.42
102605.57
102524.36
102438.42
102349.19
102257.88
102165.56
102073.1
101981.26
101890.66
101801.82
101715.16
101631.03
101549.69
101471.36
101396.19
101324.29
101255.72
101190.53
101128.72
101070.27
101015.15
100963.3
100914.64
100869.1
100826.59
100786.99
100750.19
100716.08
100684.54
100655.46
100628.73
100604.25
100581.91
100561.63
100543.38
100527.09
100512.36
100498.61
100486.3
100477.44
100471.85
100461.2
100437.57
100424.47
100472.48
100532.23
90646.143
91982.917
92060.726
93261.586
93690.73
94617.937
95342.559
96148.298
96936.921
97719.686
98482.165
99215.068
99908.47
100553.84
101144.25
101674.72
102142.31
102546.12
102887.04
103167.44
103390.9
103561.79
103684.97
103765.56
103808.66
103819.22
103801.91
103761.07
103700.62
103624.1
103534.64
103435
103327.58
103214.45
103097.4
102977.96
102857.4
102736.81
102617.12
102499.06
102383.27
102270.24
102160.38
102054.02
101951.39
101852.68
101758.02
101667.48
101581.11
101498.92
101420.89
101346.98
101277.12
101211.23
101149.24
101091.02
101036.48
100985.49
100937.92
100893.64
100852.52
100814.42
100779.21
100746.76
100716.97
100689.71
100664.87
100642.37
100622.2
100604.19
100587.85
100572.79
100559.85
100550.85
100544.28
100531.3
100507.46
100499.99
100552.43
100604.63
91607.178
93210.929
93369.58
94741.505
95337.523
96378.838
97258.284
98175.911
99062.366
99915.687
100719.9
101463.97
102138.63
102737.62
103257.61
103698.09
104061
104350.19
104570.97
104729.52
104832.53
104886.77
104898.83
104874.97
104820.95
104741.99
104642.75
104527.31
104399.25
104261.66
104117.15
103967.98
103816.04
103662.93
103509.95
103358.23
103208.65
103061.95
102918.73
102779.45
102644.48
102514.1
102388.52
102267.88
102152.26
102041.71
101936.24
101835.81
101740.37
101649.86
101564.17
101483.21
101406.84
101334.96
101267.42
101204.09
101144.82
101089.45
101037.85
100989.85
100945.31
100904.07
100866
100830.97
100798.85
100769.51
100742.84
100718.79
100697.29
100678.1
100660.72
100645
100632.04
100623.18
100615.73
100601.22
100578.84
100577.43
100631.95
100674.64
92844.475
94785.549
95070.041
96633.687
97444.191
98608.294
99637.601
100651.74
101599
102470.69
103253.01
103938.2
104522.57
105006.5
105393.66
105690.24
105904.13
106044.18
106119.56
106139.28
106111.89
106045.25
105946.46
105821.76
105676.62
105515.72
105343.07
105162.06
104975.52
104785.83
104594.95
104404.5
104215.8
104029.91
103847.7
103669.85
103496.9
103329.26
103167.23
103011.04
102860.83
102716.68
102578.64
102446.69
102320.79
102200.88
102086.85
101978.6
101876
101778.91
101687.17
101600.63
101519.14
101442.52
101370.61
101303.25
101240.26
101181.48
101126.74
101075.86
101028.69
100985.07
100944.85
100907.91
100874.09
100843.29
100815.39
100790.33
100768.01
100748.09
100730.17
100714.35
100701.78
100693.15
100684.96
100669.84
100650.2
100653.95
100706.83
100739.95
94490.347
96848.145
97313.652
99067.26
100127.5
101399.64
102526.29
103570.27
104493.74
105290.42
105956.03
106492.71
106907.02
107208.85
107410.03
107523.27
107561.22
107535.96
107458.57
107338.92
107185.66
107006.24
106806.97
106593.15
106369.19
106138.73
105904.77
105669.73
105435.58
105203.92
104975.99
104752.8
104535.11
104323.53
104118.5
103920.33
103729.26
103545.41
103368.85
103199.61
103037.64
102882.88
102735.23
102594.56
102460.73
102333.59
102212.96
102098.66
101990.51
101888.32
101791.89
101701.04
101615.57
101535.28
101460
101389.53
101323.69
101262.29
101205.15
101152.1
101102.97
101057.6
101015.83
100977.53
100942.56
100910.79
100882.13
100856.5
100833.74
100813.49
100795.44
100779.92
100767.95
100759.53
100750.74
100735.81
100719.5
100727.09
100775.93
100800.85
96735.959
99560.487
100269.52
102163.95
103436.15
104755.71
105862.77
106808.69
107580.39
108183.59
108629.33
108933.41
109113.77
109188.87
109176.43
109092.65
108951.91
108766.59
108547.18
108302.42
108039.49
107764.26
107481.48
107194.94
106907.68
106622.1
106340.1
106063.13
105792.34
105528.58
105272.49
105024.52
104784.98
104554.08
104331.92
104118.54
103913.9
103717.92
103530.5
103351.48
103180.7
103017.98
102863.11
102715.88
102576.08
102443.47
102317.84
102198.96
102086.59
101980.52
101880.52
101786.37
101697.86
101614.79
101536.93
101464.1
101396.1
101332.73
101273.82
101219.16
101168.6
101121.97
101079.12
101039.9
101004.18
100971.83
100942.77
100916.88
100893.96
100873.66
100855.83
100840.85
100829.52
100821.19
100812.05
100798.05
100785.39
100795.61
100838.59
100854.78
99835.298
103037.64
104054.63
106015.84
107329.45
108501.75
109422.44
110116.24
110600.91
110903.15
111050.96
111071.91
110991.16
110830.74
110609.31
110342.34
110042.37
109719.51
109381.73
109035.33
108685.22
108335.22
107988.24
107646.52
107311.75
106985.17
106667.69
106359.96
106062.41
105775.29
105498.77
105232.86
104977.53
104732.68
104498.15
104273.77
104059.31
103854.55
103659.23
103473.1
103295.9
103127.34
102967.17
102815.1
102670.87
102534.21
102404.84
102282.52
102166.99
102057.99
101955.29
101858.65
101767.84
101682.64
101602.84
101528.23
101458.6
101393.76
101333.51
101277.68
101226.08
101178.56
101134.96
101095.13
101058.94
101026.27
100997.03
100971.08
100948.18
100928.05
100910.62
100896.28
100885.45
100877.1
100867.89
100855.49
100846.42
100857.34
100891.91
100900.4
104046.32
107463.52
108684.22
110381.93
111512.53
112347.1
112884.56
113179.74
113277.35
113220.59
113046.01
112783.94
112458.67
112089.31
111690.64
111273.97
110847.87
110418.78
109991.51
109569.6
109155.65
108751.52
108358.52
107977.55
107609.18
107253.74
106911.38
106582.12
106265.86
105962.45
105671.64
105393.19
105126.78
104872.12
104628.87
104396.7
104175.25
103964.21
103763.21
103571.93
103390.04
103217.2
103053.11
102897.44
102749.88
102610.15
102477.94
102352.99
102235.01
102123.74
102018.93
101920.33
101827.71
101740.83
101659.49
101583.45
101512.53
101446.53
101385.23
101328.48
101276.07
101227.87
101183.7
101143.42
101106.91
101074.04
101044.71
101018.76
100995.96
100976.08
100959.11
100945.33
100934.8
100926.33
100917.36
100906.86
100900.63
100910.46
100936.18
100938.89
109298.51
112678.56
113802.77
114935.22
115550.63
115837.48
115860.44
115693.08
115389.62
114992.59
114533.57
114035.86
113516.37
112987.25
112457.16
111932.2
111416.65
110913.41
110424.43
109950.95
109493.7
109053.06
108629.12
108221.79
107830.87
107456.04
107096.93
106753.12
106424.16
106109.6
105808.97
105521.81
105247.65
104986.06
104736.57
104498.75
104272.2
104056.48
103851.22
103656.01
103470.5
103294.31
103127.1
102968.52
102818.26
102675.99
102541.41
102414.23
102294.15
102180.92
102074.27
101973.95
101879.72
101791.35
101708.62
101631.31
101559.21
101492.14
101429.89
101372.27
101319.12
101270.28
101225.57
101184.87
101148.03
101114.95
101085.5
101059.51
101036.77
101017.11
101000.5
100987.06
100976.58
100967.98
100959.51
100951.02
100946.91
100954.24
100970.01
100968.48
115542.5
118064.18
118678.74
118962.73
118870.33
118542.76
118059.61
117481.6
116849.42
116190.64
115523.57
114860.27
114208.53
113573.31
112957.65
112363.27
111791.06
111241.28
110713.84
110208.37
109724.36
109261.18
108818.14
108394.53
107989.64
107602.74
107233.14
106880.16
106543.14
106221.43
105914.44
105621.57
105342.27
105076
104822.26
104580.54
104350.38
104131.34
103922.97
103724.87
103536.65
103357.91
103188.3
103027.46
102875.05
102730.76
102594.25
102465.24
102343.44
102228.57
102120.38
102018.6
101922.99
101833.34
101749.4
101670.97
101597.85
101529.83
101466.72
101408.34
101354.51
101305.06
101259.85
101218.72
101181.56
101148.23
101118.59
101092.5
101069.75
101050.21
101033.79
101020.41
101009.77
101001.06
100993.35
100986.73
100983.5
100986.73
100994.07
100991.63
122191.89
122635.72
122419.16
121870.93
121140.02
120316.54
119456.7
118592.31
117741.95
116915.87
116119.51
115355.41
114624.42
113926.33
113260.37
112625.44
112020.27
111443.51
110893.81
110369.87
109870.4
109394.21
108940.14
108507.12
108094.15
107700.26
107324.58
106966.26
106624.51
106298.62
105987.87
105691.61
105409.24
105140.17
104883.84
104639.73
104407.36
104186.24
103975.92
103775.99
103586.02
103405.64
103234.45
103072.11
102918.27
102772.59
102634.77
102504.49
102381.48
102265.45
102156.14
102053.29
101956.67
101866.04
101781.19
101701.89
101627.95
101559.16
101495.34
101436.3
101381.87
101331.87
101286.15
101244.58
101207.02
101173.35
101143.42
101117.09
101094.2
101074.62
101058.17
101044.66
101033.73
101024.93
101017.87
101012.53
101009.39
101008.79
101009.44
101006.7
126076.06
125450.61
124535.04
123482.52
122397.68
121324.64
120286.11
119291.41
118344
117444.14
116590.56
115781.2
115013.72
114285.69
113594.73
112938.57
112315.06
111722.25
111158.29
110621.51
110110.35
109623.4
109159.34
108716.97
108295.17
107892.92
107509.25
107143.29
106794.21
106461.24
106143.67
105840.81
105552.04
105276.76
105014.42
104764.47
104526.42
104299.79
104084.14
103879.01
103684.02
103498.75
103322.84
103155.92
102997.65
102847.69
102705.74
102571.48
102444.63
102324.9
102212.04
102105.79
102005.91
101912.17
101824.34
101742.22
101665.6
101594.28
101528.08
101466.8
101410.27
101358.32
101310.79
101267.56
101228.47
101193.4
101162.22
101134.79
101110.98
101090.62
101073.51
101059.36
101047.83
101038.69
101031.79
101026.91
101023.38
101020.26
101017.17
101014.75
103922.95
103895.71
103943.13
103990.89
104026.29
104035.76
104017.96
103988.01
103952.01
103906.73
103847.83
103775.85
103694.56
103608.79
103519.36
103426.36
103330.1
103231.04
103129.61
103026.2
102921.15
102814.82
102707.53
102599.56
102491.19
102382.67
102274.23
102166.1
102058.48
101951.55
101845.51
101740.52
101636.74
101534.34
101433.47
101334.28
101236.91
101141.5
101048.2
100957.14
100868.47
100782.31
100698.8
100618.09
100540.29
100465.55
100393.97
100325.69
100260.82
100199.47
100141.74
100087.73
100037.5
99991.117
99948.636
99910.082
99875.459
99844.756
99817.935
99794.936
99775.67
99760.022
99747.853
99739.002
99733.28
99730.497
99730.424
99732.885
99737.63
99744.449
99753.445
99763.255
99777.253
99785.979
99810.501
99806.904
99859.086
99815.081
99922.925
99814.528
103264.5
103258.47
103273.01
103290
103289.13
103282.17
103271.72
103254.58
103225.82
103191.28
103149.78
103103.09
103050.5
102993.11
102930.97
102864.76
102794.7
102721.15
102644.42
102564.82
102482.66
102398.23
102311.82
102223.7
102134.16
102043.44
101951.83
101859.55
101766.87
101674
101581.2
101488.66
101396.62
101305.28
101214.85
101125.52
101037.48
100950.93
100866.06
100783.03
100702.03
100623.23
100546.8
100472.91
100401.7
100333.34
100267.97
100205.74
100146.76
100091.18
100039.09
99990.59
99945.77
99904.691
99867.4
99833.924
99804.265
99778.402
99756.295
99737.873
99723.039
99711.671
99703.621
99698.718
99696.769
99697.574
99700.901
99706.566
99714.315
99723.945
99735.498
99747.794
99763.754
99774.944
99800.449
99799.613
99851.442
99810.479
99918.921
99809.376
102841.81
102826.83
102799.38
102770.57
102742.44
102716.25
102685.02
102654.38
102620.08
102585.19
102546.27
102505.9
102461.92
102415.78
102366.52
102314.7
102260.12
102202.95
102143.23
102081.08
102016.62
101949.99
101881.32
101810.79
101738.56
101664.81
101589.74
101513.54
101436.41
101358.55
101280.18
101201.51
101122.76
101044.14
100965.87
100888.16
100811.23
100735.3
100660.56
100587.24
100515.53
100445.64
100377.77
100312.1
100248.82
100188.1
100130.12
100075.04
100023
99974.148
99928.6
99886.466
99847.834
99812.776
99781.34
99753.553
99729.415
99708.903
99691.97
99678.539
99668.509
99661.75
99658.109
99657.409
99659.453
99664.037
99670.928
99679.936
99690.808
99703.345
99717.544
99732.36
99750.376
99763.956
99790.635
99792.238
99844.125
99805.866
99914.993
99804.582
102256.63
102234.3
102205.77
102174.45
102143.37
102115.73
102083.74
102054.61
102021.34
101990.01
101955.19
101921.08
101884.21
101846.92
101807.5
101766.77
101724.22
101680.01
101634.01
101586.21
101536.62
101485.24
101432.11
101377.28
101320.83
101262.83
101203.4
101142.67
101080.76
101017.84
100954.08
100889.64
100824.71
100759.5
100694.2
100629.02
100564.17
100499.88
100436.36
100373.83
100312.52
100252.63
100194.38
100137.99
100083.66
100031.58
99981.938
99934.918
99890.684
99849.385
99811.156
99776.114
99744.356
99715.956
99690.968
99669.418
99651.306
99636.605
99625.263
99617.202
99612.313
99610.462
99611.491
99615.222
99621.455
99629.986
99640.583
99653.055
99667.151
99682.677
99699.595
99716.966
99737.104
99753.026
99781.01
99784.822
99837.088
99801.23
99911.168
99800.141
101536.68
101520.55
101504.64
101485.91
101465.29
101448.99
101426.81
101409.01
101385.84
101365.96
101341.63
101319.12
101293.43
101268.21
101240.91
101212.78
101183.06
101152.02
101119.48
101085.41
101049.79
101012.6
100973.84
100933.51
100891.65
100848.3
100803.51
100757.38
100709.99
100661.44
100611.87
100561.4
100510.2
100458.43
100406.27
100353.9
100301.53
100249.36
100197.6
100146.48
100096.21
100047.03
99999.137
99952.766
99908.127
99865.429
99824.872
99786.643
99750.92
99717.862
99687.611
99660.291
99636.003
99614.827
99596.815
99581.994
99570.363
99561.891
99556.523
99554.175
99554.735
99558.064
99564.002
99572.37
99582.969
99595.594
99610.021
99626.06
99643.464
99662.048
99681.741
99701.697
99724.003
99742.231
99771.591
99777.496
99830.297
99796.651
99907.462
99796.037
100822.09
100815.7
100811.1
100805.57
100796.03
100791.72
100780.09
100774.36
100761.78
100753.78
100740.14
100729.3
100714.59
100700.99
100685.12
100668.75
100650.8
100631.72
100611.31
100589.58
100566.49
100542.02
100516.16
100488.9
100460.25
100430.23
100398.85
100366.17
100332.24
100297.14
100260.96
100223.79
100185.77
100147.02
100107.69
100067.96
100027.99
99987.98
99948.126
99908.635
99869.719
99831.594
99794.48
99758.593
99724.15
99691.36
99660.427
99631.542
99604.884
99580.616
99558.882
99539.809
99523.499
99510.029
99499.451
99491.791
99487.041
99485.169
99486.112
99489.783
99496.065
99504.816
99515.874
99529.06
99544.177
99561.024
99579.384
99599.071
99619.849
99641.541
99664.05
99686.613
99711.113
99731.612
99762.389
99770.33
99823.74
99792.2
99903.878
99792.274
100173.3
100173.37
100174.22
100177.22
100174.9
100179.32
100174.97
100178.29
100173.32
100174.52
100169.34
100168.45
100162.88
100158.59
100151.77
100144.99
100136.81
100127.84
100117.78
100106.66
100094.43
100081.05
100066.49
100050.73
100033.76
100015.58
99996.196
99975.624
99953.901
99931.073
99907.203
99882.369
99856.663
99830.195
99803.091
99775.488
99747.542
99719.42
99691.298
99663.366
99635.82
99608.861
99582.696
99557.532
99533.575
99511.029
99490.089
99470.943
99453.763
99438.709
99425.921
99415.52
99407.603
99402.245
99399.489
99399.356
99401.832
99406.878
99414.426
99424.381
99436.621
99451.003
99467.362
99485.519
99505.281
99526.454
99548.828
99572.225
99596.422
99621.252
99646.599
99671.778
99698.482
99721.21
99753.431
99763.395
99817.399
99787.939
99900.424
99788.859
99589.946
99595.047
99598.994
99607.216
99608.621
99618.826