/*--------------------------------*- C++ -*----------------------------------*\
  =========                 |
  \\      /  F ield         | OpenFOAM: The Open Source CFD Toolbox
   \\    /   O peration     | Website:  https://openfoam.org
    \\  /    A nd           | Version:  12
     \\/     M anipulation  |
\*---------------------------------------------------------------------------*/
FoamFile
{
    format      ascii;
    class       volScalarField;
    location    "0.098";
    object      T;
}
// * * * * * * * * * * * * * * * * * * * * * * * * * * * * * * * * * * * * * //

dimensions      [0 0 0 1 0 0 0];

internalField   nonuniform List<scalar> 
16000
(
294.43219
285.97755
289.23006
287.47209
288.57987
288.07222
288.49493
288.38457
288.58154
288.61571
288.73698
288.82203
288.9277
289.03072
289.13974
289.25204
289.36849
289.48891
289.61339
289.74194
289.87457
290.01127
290.152
290.29671
290.44533
290.59776
290.75387
290.91351
291.0765
291.24262
291.41164
291.58329
291.75726
291.93323
292.11086
292.28976
292.46954
292.6498
292.8301
293.01001
293.18911
293.36696
293.54313
293.71723
293.88885
294.05763
294.22323
294.38535
294.5437
294.69806
294.84823
294.99406
295.13545
295.27232
295.40464
295.53242
295.65572
295.77461
295.88919
295.99962
296.10607
296.20875
296.30783
296.40355
296.49609
296.58567
296.67246
296.75666
296.83854
296.91841
296.99665
297.07359
297.14952
297.22491
297.3007
297.3788
297.46352
297.56135
297.70636
297.81246
294.13072
285.57828
289.00875
287.12036
288.2954
287.75095
288.20876
288.08923
288.30057
288.34032
288.46858
288.56261
288.67548
288.78739
288.90487
289.02622
289.1519
289.28185
289.41613
289.55471
289.69761
289.84478
289.99616
290.15167
290.31119
290.47459
290.64171
290.81232
290.98622
291.16313
291.34276
291.52478
291.70884
291.89456
292.08153
292.26932
292.4575
292.64561
292.83317
293.01974
293.20485
293.38806
293.56893
293.74705
293.92204
294.09355
294.26127
294.42493
294.58428
294.73914
294.88936
295.03484
295.17552
295.31139
295.44247
295.56881
295.69051
295.80769
295.92048
296.02907
296.13365
296.23445
296.33165
296.42549
296.51617
296.60386
296.68875
296.77103
296.85094
296.92884
297.00515
297.08028
297.1546
297.2287
297.30359
297.38096
297.46543
297.56867
297.70102
297.83117
293.84357
285.20597
288.74342
286.81213
288.02709
287.47252
287.94415
287.83245
288.04874
288.10035
288.23417
288.33882
288.45985
288.58157
288.70869
288.84015
288.97621
289.11683
289.26205
289.41181
289.56611
289.72484
289.88794
290.05526
290.22666
290.40194
290.58088
290.76323
290.94871
291.13697
291.32766
291.5204
291.71476
291.9103
292.10654
292.303
292.4992
292.69461
292.88875
293.08112
293.27123
293.45865
293.64292
293.82367
294.00052
294.17315
294.3413
294.50474
294.66329
294.81682
294.96524
295.10853
295.24667
295.37972
295.50777
295.63092
295.74932
295.86313
295.97255
296.07777
296.17903
296.27655
296.37056
296.46128
296.54889
296.63359
296.71553
296.79489
296.87191
296.94697
297.02053
297.09306
297.16505
297.23719
297.31047
297.38656
297.47095
297.57536
297.70204
297.84472
293.58027
284.86517
288.51529
286.54145
287.7925
287.22767
287.71338
287.61111
287.83287
287.89787
288.03827
288.15475
288.28528
288.41801
288.55605
288.69885
288.84649
288.99897
289.15626
289.3183
289.48503
289.65633
289.83206
290.01206
290.19612
290.38398
290.57537
290.76996
290.96738
291.16725
291.36912
291.57252
291.77697
291.98194
292.1869
292.3913
292.5946
292.79625
292.99571
293.19248
293.38606
293.57602
293.76193
293.94343
294.12019
294.29197
294.45853
294.61973
294.77545
294.92563
295.07029
295.20944
295.34317
295.4716
295.59487
295.71317
295.82668
295.93563
296.04024
296.14075
296.23741
296.33046
296.42015
296.50668
296.59025
296.67103
296.74916
296.82481
296.89822
296.96976
297.03996
297.10935
297.17851
297.24823
297.31947
297.39403
297.4781
297.58198
297.70527
297.85609
293.34113
284.56112
288.31216
286.317
287.60345
287.0247
287.52081
287.4325
287.65833
287.73934
287.88711
288.01675
288.15814
288.30302
288.45322
288.6085
288.76888
288.93432
289.10479
289.28018
289.4604
289.64527
289.83462
290.0282
290.22575
290.42693
290.63139
290.83871
291.04845
291.2601
291.47315
291.68704
291.9012
292.11502
292.32789
292.53923
292.74842
292.9549
293.15812
293.35755
293.55272
293.74321
293.92866
294.10874
294.2832
294.45186
294.61458
294.77129
294.92197
295.06666
295.20544
295.33844
295.46582
295.58776
295.70449
295.81625
295.92329
296.02587
296.12426
296.21872
296.30952
296.39693
296.48119
296.5625
296.64106
296.71702
296.79051
296.86166
296.93072
296.99807
297.06428
297.12995
297.19576
297.26256
297.33127
297.40398
297.4872
297.58943
297.71011
297.86576
293.12999
284.30028
288.13997
286.12928
287.4403
286.87013
287.37745
287.3029
287.53253
287.63058
287.78656
287.93016
288.08353
288.24148
288.40491
288.57376
288.74801
288.9276
289.11243
289.30238
289.49727
289.69686
289.90091
290.10908
290.321
290.53626
290.75437
290.97483
291.19707
291.42049
291.64447
291.86835
292.09147
292.31314
292.5327
292.74949
292.9629
293.17232
293.37721
293.57709
293.77151
293.96011
294.14259
294.31872
294.48834
294.65136
294.80775
294.95756
295.10086
295.23781
295.36857
295.49338
295.61247
295.72611
295.83461
295.93824
296.03731
296.13214
296.223
296.31021
296.39403
296.47475
296.5526
296.62778
296.70046
296.7708
296.83888
296.90484
296.96891
297.03148
297.09315
297.15459
297.21658
297.27999
297.34574
297.41628
297.49814
297.59782
297.71586
297.87459
292.94981
284.08461
288.00164
285.97855
287.3107
286.76558
287.27217
287.22486
287.45406
287.5733
287.73849
287.89681
288.06359
288.2359
288.41407
288.59806
288.78781
288.98318
289.18402
289.3901
289.60118
289.81692
290.03695
290.26083
290.48807
290.71812
290.95039
291.18421
291.41891
291.65377
291.88805
292.12099
292.35183
292.57984
292.8043
293.02452
293.23988
293.44979
293.65376
293.85135
294.04219
294.22603
294.40266
294.57197
294.73393
294.88858
295.036
295.17637
295.3099
295.43683
295.55744
295.67207
295.78102
295.88466
295.98332
296.07736
296.16713
296.25295
296.33514
296.41403
296.48989
296.56299
296.63357
296.70182
296.7679
296.83191
296.89394
296.95411
297.01262
297.06989
297.12653
297.18329
297.24103
297.3006
297.36301
297.43108
297.511
297.60726
297.7224
297.883
292.79834
283.91194
287.8938
285.86319
287.21259
286.69364
287.20175
287.16447
287.42568
287.56587
287.74289
287.91782
288.10051
288.28946
288.48469
288.68611
288.89359
289.10689
289.32578
289.54993
289.77895
290.0124
290.24976
290.49045
290.73383
290.9792
291.2258
291.47285
291.71952
291.96495
292.20831
292.44873
292.68541
292.91754
293.14439
293.3653
293.57967
293.78697
293.98679
294.1788
294.36276
294.53853
294.70608
294.86543
295.0167
295.16008
295.29582
295.4242
295.54557
295.66028
295.76874
295.87133
295.96847
296.06055
296.14799
296.23117
296.31047
296.38623
296.4588
296.52848
296.59556
296.66031
296.72294
296.78361
296.84247
296.89959
296.95505
297.00894
297.06145
297.11299
297.1642
297.21591
297.26903
297.32437
297.38307
297.44839
297.52582
297.61787
297.72979
297.89125
292.67049
283.78027
287.81976
285.78344
287.16371
286.69284
287.19523
287.22193
287.45059
287.61242
287.80487
287.99901
288.2006
288.40896
288.62398
288.84546
289.07317
289.30678
289.54592
289.79013
290.03886
290.2915
290.54738
290.80572
291.06572
291.32647
291.58708
291.84658
292.104
292.35838
292.60877
292.85425
293.09397
293.32713
293.55303
293.77106
293.98071
294.18159
294.37342
294.55602
294.72933
294.8934
295.04836
295.19443
295.3319
295.46112
295.58249
295.69644
295.80343
295.90392
295.9984
296.08734
296.17122
296.25047
296.32554
296.39684
296.46475
296.52964
296.59185
296.65166
296.70937
296.76521
296.81936
296.87199
296.92318
296.97301
297.0215
297.06874
297.11491
297.1604
297.20589
297.25226
297.30046
297.35124
297.40594
297.46824
297.54261
297.62976
297.73831
297.89958
292.56557
283.69193
287.78517
285.75502
287.17039
286.73586
287.23504
287.28512
287.53382
287.722
287.93344
288.1494
288.37292
288.60362
288.84129
289.08557
289.33613
289.59248
289.85406
290.12022
290.39024
290.66328
290.93845
291.21478
291.49122
291.7667
292.04012
292.31036
292.57633
292.83696
293.09125
293.33826
293.57716
293.80722
294.02783
294.23853
294.43895
294.62891
294.80833
294.97724
295.13583
295.28434
295.42312
295.55259
295.67323
295.78555
295.89009
295.98741
296.07808
296.16265
296.24167
296.31567
296.38516
296.45061
296.51248
296.57117
296.62708
296.68056
296.73192
296.78145
296.82939
296.87597
296.92134
296.96562
297.00888
297.05115
297.09245
297.13282
297.17244
297.21169
297.25126
297.29212
297.33516
297.38112
297.43161
297.49061
297.56129
297.64298
297.74809
297.90816
292.48746
283.65523
287.7963
285.84992
287.23598
286.84163
287.3333
287.43159
287.68696
287.9032
288.13769
288.37861
288.62741
288.88368
289.14708
289.41711
289.69322
289.97469
290.26077
290.55053
290.84301
291.1371
291.43166
291.72544
292.01718
292.30561
292.58945
292.86744
293.1384
293.40124
293.65494
293.89865
294.13163
294.35332
294.5633
294.76132
294.9473
295.12129
295.28349
295.43422
295.5739
295.70302
295.82217
295.93195
296.03302
296.12604
296.21168
296.29059
296.36343
296.4308
296.49329
296.55147
296.60585
296.6569
296.70508
296.75078
296.79437
296.83617
296.87648
296.91555
296.95359
296.99079
297.02726
297.06309
297.09831
297.13294
297.16695
297.20039
297.23339
297.26633
297.29992
297.33515
297.37291
297.41389
297.46003
297.51544
297.58181
297.6576
297.75938
297.91695
292.44262
283.68336
287.86138
285.98892
287.34801
287.01759
287.50277
287.64596
287.91894
288.1659
288.42786
288.69742
288.97522
289.26062
289.55311
289.85193
290.15627
290.46511
290.77739
291.09187
291.40724
291.7221
292.03499
292.34441
292.64887
292.94691
293.23711
293.51816
293.78888
294.04821
294.29528
294.5294
294.75009
294.95703
295.15015
295.3295
295.49534
295.64806
295.78818
295.9163
296.03311
296.13937
296.23584
296.32333
296.40262
296.4745
296.53972
296.59899
296.65301
296.70242
296.74781
296.78974
296.82871
296.86517
296.89955
296.93221
296.96348
296.99364
297.02296
297.05164
297.07987
297.10777
297.13543
297.16289
297.19016
297.21722
297.24403
297.27059
297.29704
297.32372
297.35138
297.381
297.41341
297.44936
297.49112
297.54263
297.60407
297.67378
297.77247
297.92569
292.43581
283.78207
287.99069
286.18362
287.52562
287.27043
287.75182
287.94449
288.24013
288.52117
288.81549
289.11806
289.42906
289.74754
290.07267
290.40334
290.73836
291.07633
291.41576
291.75502
292.09244
292.42625
292.75469
293.07602
293.38857
293.69075
293.98114
294.25847
294.5217
294.76998
295.00274
295.21963
295.42053
295.60557
295.77506
295.92949
296.06949
296.19582
296.30934
296.41093
296.50153
296.58211
296.6536
296.71691
296.77295
296.82254
296.8665
296.90555
296.94038
296.97163
296.99985
297.02559
297.04928
297.07136
297.09219
297.11209
297.13135
297.15019
297.16883
297.18745
297.20615
297.22505
297.24417
297.26354
297.2831
297.30282
297.32264
297.34255
297.36263
297.38324
297.40512
297.42922
297.45632
297.48732
297.52474
297.572
297.62799
297.69175
297.78738
297.93467
292.46913
283.95899
288.18911
286.46446
287.77835
287.60824
288.09109
288.33633
288.66254
288.98231
289.31457
289.65527
290.00418
290.3599
290.72114
291.0863
291.45367
291.82135
292.18739
292.5497
292.9062
293.25479
293.59347
293.92033
294.23363
294.53184
294.81369
295.07818
295.32462
295.5526
295.76203
295.95307
296.12614
296.28187
296.42106
296.54466
296.65369
296.74926
296.83252
296.90459
296.9666
297.01965
297.06477
297.10294
297.1351
297.16208
297.18467
297.20359
297.21948
297.23293
297.24444
297.25448
297.26346
297.27173
297.2796
297.28733
297.29514
297.30323
297.31174
297.3208
297.33049
297.34085
297.35189
297.36356
297.37582
297.38857
297.40176
297.41534
297.42938
297.44422
297.46055
297.47929
297.50121
297.52744
297.56063
297.60332
297.65344
297.7118
297.8044
297.94401
292.54739
284.22739
288.45996
286.83333
288.11923
288.04269
288.53445
288.83655
289.20196
289.56651
289.94299
290.32745
290.71906
291.11582
291.5158
291.91676
292.3164
292.71223
293.10177
293.48249
293.85195
294.20781
294.54797
294.87055
295.174
295.45714
295.71912
295.95952
296.17825
296.37557
296.55205
296.70851
296.84597
296.9656
297.06871
297.15664
297.23078
297.29248
297.34311
297.38393
297.41618
297.441
297.45945
297.4725
297.48105
297.48589
297.48775
297.48728
297.48505
297.48156
297.47725
297.47252
297.46768
297.46303
297.4588
297.4552
297.45238
297.45048
297.44959
297.44979
297.45112
297.45356
297.45708
297.46162
297.46708
297.47337
297.48039
297.48808
297.49649
297.50594
297.51707
297.53067
297.5476
297.56932
297.59843
297.63625
297.68012
297.73375
297.82371
297.95375
292.67493
284.60583
288.7994
287.30453
288.56156
288.58913
289.10024
289.4651
289.87946
290.29598
290.72317
291.15671
291.59492
292.03503
292.47434
292.90986
293.3386
293.75745
294.16344
294.55368
294.92556
295.27679
295.60547
295.91016
296.1899
296.4442
296.67306
296.87687
297.05641
297.21277
297.34728
297.46141
297.5568
297.6351
297.698
297.74715
297.78415
297.81052
297.82769
297.83699
297.83962
297.8367
297.82923
297.81812
297.80416
297.78807
297.77046
297.75189
297.73284
297.7137
297.69484
297.67655
297.65908
297.64264
297.62739
297.61348
297.601
297.59002
297.58061
297.57277
297.5665
297.56175
297.55845
297.5565
297.55577
297.55617
297.55756
297.55988
297.56318
297.56771
297.57402
297.5828
297.59502
297.61252
297.63769
297.67041
297.70778
297.75721
297.84482
297.9635
292.85642
285.12413
289.21526
287.8961
289.12682
289.27096
289.81437
290.24909
290.72213
291.19768
291.6811
292.16741
292.65382
293.13665
293.61223
294.07675
294.52648
294.95782
295.36752
295.75272
296.11108
296.44086
296.74096
297.01087
297.25071
297.46111
297.64314
297.79827
297.92821
298.03489
298.12032
298.18658
298.23571
298.26972
298.2905
298.29985
298.29943
298.29076
298.27524
298.25412
298.22852
298.19943
298.16774
298.13422
298.09955
298.0643
298.02898
297.99403
297.95981
297.92661
297.89471
297.8643
297.83556
297.80862
297.78357
297.76049
297.73942
297.72039
297.7034
297.68842
297.6754
297.66425
297.65487
297.64713
297.6409
297.63603
297.6324
297.62993
297.62865
297.62879
297.63075
297.63511
297.64298
297.65656
297.67789
297.70543
297.73631
297.78155
297.86677
297.97309
293.10355
285.82866
289.75033
288.63924
289.84591
290.11943
290.7094
291.22087
291.761
292.30126
292.84414
293.38374
293.91584
294.43558
294.93825
295.41929
295.87455
296.30043
296.69404
297.05327
297.37687
297.66436
297.91608
298.133
298.31664
298.46899
298.59229
298.68903
298.76175
298.81303
298.84537
298.86119
298.86274
298.85213
298.83128
298.80194
298.76569
298.72392
298.67788
298.62867
298.57722
298.52438
298.47086
298.41728
298.36415
298.31193
298.26099
298.21162
298.16409
298.11861
298.07532
298.03435
297.99579
297.95971
297.92614
297.8951
297.86657
297.84054
297.81696
297.79577
297.77686
297.76014
297.74545
297.73265
297.72159
297.71211
297.70409
297.69744
297.69218
297.68848
297.6866
297.68702
297.69101
297.70098
297.71851
297.74097
297.76574
297.80646
297.8887
297.98299
293.44315
286.70138
290.43143
289.5711
290.75654
291.16932
291.82159
292.41649
293.03013
293.63792
294.2391
294.82641
295.394
295.93589
296.44675
296.92197
297.35793
297.75209
298.10304
298.41045
298.67498
298.89815
299.08214
299.22962
299.34361
299.42729
299.48391
299.51667
299.52862
299.52268
299.50152
299.46759
299.42312
299.3701
299.31027
299.24521
299.17626
299.1046
299.03126
298.95712
298.88291
298.80928
298.73676
298.66579
298.59675
298.52994
298.46559
298.4039
298.34502
298.28905
298.23606
298.18611
298.1392
298.09535
298.05454
298.01672
297.98185
297.94987
297.92068
297.89418
297.87025
297.84875
297.82951
297.81237
297.79717
297.78374
297.77195
297.76172
297.75308
297.74611
297.74095
297.738
297.73864
297.74528
297.75899
297.77648
297.79589
297.83239
297.91029
297.99525
293.91546
287.68908
291.30152
290.72746
291.90278
292.46262
293.19391
293.87795
294.56672
295.23758
295.88606
296.50363
297.08339
297.61933
298.10689
298.54299
298.92613
299.25625
299.5346
299.76349
299.94604
300.08592
300.18716
300.2539
300.29025
300.3002
300.28751
300.25564
300.20776
300.14671
300.07505
299.99498
299.90848
299.81724
299.72273
299.62619
299.52871
299.43119
299.33439
299.23895
299.14541
299.0542
298.96567
298.88012
298.79775
298.71874
298.64321
298.57126
298.50292
298.43823
298.37718
298.31975
298.26591
298.21559
298.16875
298.12529
298.08514
298.04818
298.0143
297.98337
297.95523
297.92971
297.90665
297.88585
297.86715
297.85039
297.83545
297.82225
297.8108
297.80112
297.79324
297.78752
297.78536
297.78894
297.79865
297.81124
297.82647
297.86016
297.93259
298.00689
294.57619
288.96146
292.40814
292.16047
293.34555
294.05767
294.87909
295.64988
296.40228
297.11543
297.78216
298.39415
298.94563
299.4329
299.85444
300.21074
300.50399
300.7377
300.91635
301.04504
301.12914
301.17406
301.18504
301.16704
301.12464
301.06199
300.9828
300.89034
300.78748
300.6767
300.56015
300.43964
300.31674
300.19274
300.06876
299.94571
299.82435
299.7053
299.58908
299.4761
299.36668
299.26108
299.15948
299.06202
298.9688
298.87988
298.79527
298.71497
298.63895
298.56717
298.49956
298.43605
298.37656
298.32098
298.26921
298.22115
298.17667
298.13564
298.09791
298.06333
298.03172
298.00289
297.97665
297.95283
297.93124
297.91174
297.89422
297.87862
297.86491
297.85304
297.84297
297.83508
297.83069
297.83145
297.83705
297.84476
297.85652
297.88839
297.95482
298.01614
295.4819
290.57994
293.83717
293.94975
295.16377
296.02184
296.92465
297.75782
298.53744
299.24658
299.87896
300.42989
300.89814
301.2851
301.59448
301.83165
302.00308
302.11585
302.1772
302.1942
302.17354
302.1214
302.04332
301.94425
301.82849
301.69977
301.56129
301.41578
301.26552
301.11244
300.95816
300.804
300.65108
300.50027
300.35233
300.20784
300.06726
299.93096
299.79922
299.67226
299.55021
299.43317
299.3212
299.21431
299.11248
299.01569
298.92387
298.83695
298.75483
298.67741
298.60457
298.53621
298.4722
298.41241
298.3567
298.30494
298.25698
298.21267
298.17183
298.1343
298.09987
298.06835
298.03954
298.01326
297.98934
297.96764
297.94808
297.93059
297.91511
297.90151
297.88974
297.88022
297.87408
297.87233
297.87399
297.87697
297.88531
297.91478
297.97425
298.02181
296.61388
292.66888
295.69416
296.17895
297.42375
298.39877
299.33749
300.1726
300.91064
301.5429
302.06945
302.49321
302.82036
303.05909
303.21882
303.30948
303.34086
303.32228
303.26228
303.16851
303.0477
302.90566
302.74733
302.57693
302.39794
302.2133
302.02541
301.83626
301.64746
301.46034
301.27594
301.09511
300.91853
300.74672
300.58007
300.4189
300.2634
300.11375
299.97001
299.83224
299.70044
299.57457
299.45458
299.3404
299.23192
299.12903
299.03162
298.93954
298.85266
298.77083
298.69391
298.62174
298.55418
298.49106
298.43224
298.37755
298.32682
298.27989
298.23657
298.19667
298.15999
298.12632
298.09547
298.06725
298.04149
298.01808
297.99693
297.97799
297.96114
297.94622
297.93319
297.92247
297.91498
297.91107
297.9093
297.90813
297.91268
297.93768
297.98864
298.02575
298.15128
295.34082
298.07434
298.90106
300.12056
301.15689
302.0418
302.78086
303.38322
303.85282
304.20024
304.43798
304.57999
304.6403
304.63234
304.56843
304.45949
304.31501
304.14306
303.95041
303.74268
303.5245
303.29961
303.07109
302.84137
302.61244
302.38585
302.16283
301.94437
301.73119
301.52388
301.32285
301.12842
300.94079
300.7601
300.5864
300.41973
300.26006
300.10732
299.96144
299.82231
299.68979
299.56376
299.44406
299.33053
299.223
299.12131
299.02529
298.93475
298.84952
298.76943
298.69431
298.62398
298.55827
298.497
298.44
298.38709
298.33809
298.29279
298.25101
298.21255
298.1772
298.14475
298.11503
298.08787
298.06316
298.0408
298.02072
298.00279
297.98685
297.97288
297.96128
297.95266
297.94685
297.94223
297.93791
297.9393
297.9589
297.99943
298.02788
300.13423
298.66556
300.97301
302.09024
303.27944
304.14806
304.85805
305.38795
305.76035
305.99386
306.10982
306.12851
306.06864
305.94663
305.77652
305.57001
305.33673
305.08444
304.81938
304.54651
304.26973
303.99211
303.71605
303.44339
303.17556
302.91363
302.65842
302.41051
302.17033
301.93816
301.71419
301.4985
301.29112
301.09202
300.90113
300.71835
300.54355
300.37658
300.21727
300.06544
299.92091
299.78348
299.65296
299.52915
299.41183
299.30081
299.19589
299.09685
299.00352
298.91567
298.83314
298.75572
298.68323
298.61547
298.55227
298.49344
298.43879
298.38813
298.34126
298.29799
298.25811
298.22143
298.18774
298.15688
298.12866
298.10296
298.07966
298.05866
298.03981
298.023
298.00825
297.9959
297.98622
297.97864
297.97159
297.96483
297.96368
297.97802
298.00761
298.02354
302.59177
302.62675
304.63942
305.61714
306.51516
307.12936
307.5385
307.76401
307.84246
307.80365
307.6745
307.47724
307.22999
306.94715
306.63997
306.31719
305.9855
305.65
305.31456
304.98208
304.65472
304.33408
304.02131
303.71725
303.42245
303.13729
302.86199
302.59665
302.34128
302.09583
301.8602
301.63423
301.41775
301.21057
301.01247
300.82323
300.64262
300.4704
300.30633
300.15016
300.00167
299.86061
299.72673
299.59982
299.47962
299.36593
299.2585
299.15713
299.06159
298.97168
298.88719
298.80792
298.73368
298.66426
298.59948
298.53914
298.48305
298.43102
298.38284
298.33832
298.29727
298.2595
298.22482
298.19303
298.16397
298.13748
298.11341
298.09163
298.07197
298.05434
298.03879
298.02555
298.01465
298.00535
297.99629
297.98757
297.98369
297.99197
298.01134
298.02063
305.66666
307.06625
308.39789
309.10272
309.58323
309.79495
309.82043
309.70161
309.47931
309.18393
308.83897
308.46191
308.06565
307.65961
307.25063
306.84361
306.44206
306.04845
305.66448
305.29133
304.92972
304.58012
304.24275
303.91769
303.60489
303.30422
303.01548
302.73845
302.47286
302.21843
301.97485
301.74184
301.51907
301.30625
301.10307
300.90922
300.72441
300.54835
300.38075
300.22133
300.06982
299.92595
299.78945
299.66008
299.53757
299.4217
299.31221
299.20888
299.11149
299.01982
298.93365
298.85278
298.77701
298.70613
298.63994
298.57826
298.52089
298.46762
298.41827
298.37265
298.33055
298.29181
298.25622
298.2236
298.19379
298.1666
298.14187
298.11941
298.09906
298.0807
298.06434
298.05007
298.03776
298.02679
298.01631
298.00673
298.00137
298.00458
298.01384
298.01585
309.62863
311.41961
311.96289
312.15148
312.09842
311.86547
311.5151
311.0898
310.61978
310.12579
309.62189
309.11757
308.61914
308.13073
307.65502
307.19364
306.74756
306.31724
305.90285
305.5043
305.12139
304.75379
304.40114
304.06301
303.73896
303.42855
303.13133
302.84686
302.57471
302.31444
302.06565
301.82794
301.60092
301.38422
301.17749
300.98036
300.79252
300.61363
300.44338
300.28147
300.12761
299.98152
299.84291
299.71152
299.5871
299.46938
299.35814
299.25312
299.15411
299.06088
298.97321
298.8909
298.81373
298.74152
298.67405
298.61113
298.55257
298.49817
298.44773
298.40108
298.35801
298.31834
298.28189
298.24848
298.21794
298.19009
298.16474
298.14171
298.12081
298.1019
298.0849
298.06977
298.05634
298.04419
298.03295
298.02291
298.0157
298.01337
298.01483
298.00879
314.5979
314.97206
314.70312
314.33499
313.81239
313.21907
312.59069
311.95289
311.31987
310.70027
310.09886
309.51824
308.95959
308.42325
307.90907
307.41656
306.94507
306.49387
306.06218
305.64919
305.25412
304.87623
304.51477
304.16907
303.83844
303.52228
303.21999
302.93101
302.6548
302.39087
302.13875
301.89798
301.66813
301.44879
301.23958
301.04013
300.85007
300.66908
300.49682
300.33298
300.17726
300.02937
299.88903
299.75596
299.6299
299.51061
299.39782
299.29131
299.19084
299.09619
299.00714
298.92348
298.845
298.77151
298.70281
298.63869
298.57897
298.52346
298.47195
298.42427
298.38023
298.33963
298.30231
298.26808
298.23677
298.20821
298.18221
298.15859
298.13716
298.11775
298.10021
298.08436
298.06999
298.05686
298.04484
298.03413
298.02519
298.0183
298.01256
298.00545
316.59985
316.76836
316.19459
315.43183
314.65193
313.87087
313.10903
312.37406
311.66941
310.99609
310.3538
309.74161
309.15823
308.60228
308.07233
307.56699
307.08493
306.62491
306.18575
305.76636
305.36575
304.98297
304.61716
304.26752
303.9333
303.61382
303.30842
303.01651
302.73753
302.47094
302.21624
301.97298
301.7407
301.519
301.30747
301.10573
300.91344
300.73023
300.5558
300.38981
300.23197
300.08199
299.93959
299.80449
299.67643
299.55516
299.44043
299.33201
299.22966
299.13317
299.04231
298.95687
298.87666
298.80146
298.73109
298.66535
298.60406
298.54703
298.49407
298.44499
298.39961
298.35775
298.31923
298.28386
298.25147
298.22188
298.19492
298.1704
298.14816
298.128
298.10974
298.09315
298.07802
298.0642
298.05167
298.04039
298.03011
298.02045
298.01138
298.00358
310.37304
308.96943
305.25067
302.30795
301.00694
300.71469
300.64661
300.64439
300.53216
300.4757
300.37323
300.30051
300.21349
300.12654
300.04007
299.9532
299.86569
299.7775
299.68863
299.59915
299.50913
299.41869
299.32794
299.23701
299.14604
299.05517
298.96454
298.87428
298.78454
298.69544
298.60712
298.51972
298.43335
298.34815
298.26424
298.18175
298.1008
298.02152
297.94403
297.86846
297.79493
297.72357
297.6545
297.58786
297.52377
297.46236
297.40375
297.34808
297.29546
297.24601
297.19986
297.15711
297.11787
297.08224
297.05032
297.02218
296.9979
296.97754
296.96118
296.94886
296.94072
296.93683
296.93727
296.94215
296.95162
296.96592
296.98531
297.01017
297.04088
297.07779
297.12153
297.17142
297.23054
297.29125
297.36943
297.42852
297.53383
297.56204
297.73305
297.7412
309.50595
306.5512
302.308
300.21315
299.63262
299.63365
299.73608
299.748
299.74271
299.71665
299.69266
299.65568
299.61322
299.56582
299.51444
299.45928
299.40074
299.33914
299.27477
299.20797
299.13899
299.06812
298.99562
298.92172
298.84666
298.77067
298.69397
298.61676
298.53924
298.46161
298.38406
298.30678
298.22994
298.15373
298.07831
298.00386
297.93053
297.8585
297.78792
297.71895
297.65176
297.58649
297.5233
297.46235
297.40377
297.34772
297.29434
297.24377
297.19615
297.15161
297.11028
297.07227
297.0377
297.00666
296.97925
296.95556
296.93565
296.9196
296.90744
296.89926
296.89515
296.8952
296.89947
296.90805
296.92111
296.93886
296.96157
296.9896
297.02329
297.06299
297.10924
297.16145
297.22226
297.28479
297.36332
297.42398
297.52807
297.55828
297.72969
297.73772
308.06424
304.44677
301.28475
299.57055
299.23563
299.27626
299.31113
299.28618
299.25825
299.2262
299.19497
299.16044
299.1242
299.08506
299.04376
299.00003
298.95409
298.90592
298.8556
298.80325
298.74895
298.69283
298.63503
298.57567
298.51492
298.45291
298.38982
298.32581
298.26106
298.19574
298.13004
298.06412
297.99818
297.9324
297.86697
297.80207
297.73788
297.67459
297.61239
297.55145
297.49196
297.43409
297.37803
297.32394
297.27199
297.22235
297.17519
297.13066
297.08892
297.05009
297.01434
296.98177
296.95251
296.92666
296.90433
296.88559
296.87053
296.85919
296.85163
296.84792
296.84815
296.85239
296.86072
296.87321
296.89002
296.91136
296.9375
296.96878
297.00553
297.04807
297.09685
297.15136
297.21388
297.27813
297.35715
297.41906
297.52246
297.55441
297.72632
297.73471
306.847
302.96886
300.11829
298.81748
298.76119
298.77877
298.79643
298.76148
298.74332
298.71465
298.69084
298.66209
298.63309
298.60212
298.57005
298.53634
298.50115
298.46435
298.42594
298.38593
298.34432
298.30114
298.25644
298.21028
298.16273
298.11387
298.06382
298.01268
297.96058
297.90766
297.85406
297.79994
297.74546
297.69079
297.63611
297.5816
297.52745
297.47384
297.42097
297.36902
297.3182
297.26869
297.22069
297.17439
297.12996
297.0876
297.04749
297.00979
296.97466
296.94228
296.91277
296.88628
296.86292
296.84283
296.82608
296.81277
296.80298
296.79676
296.79416
296.79523
296.80009
296.80878
296.82138
296.83796
296.85868
296.88376
296.91344
296.94806
296.98792
297.03333
297.08467
297.14145
297.20568
297.27156
297.35113
297.41407
297.51704
297.5505
297.72302
297.73205
306.12628
301.74908
299.1512
298.19022
298.26437
298.2397
298.26557
298.22956
298.22272
298.1985
298.18309
298.16138
298.14095
298.11873
298.09596
298.07194
298.04686
298.02056
297.993
297.96416
297.934
297.90252
297.8697
297.83557
297.80015
297.76349
297.72563
297.68666
297.64665
297.6057
297.56393
297.52146
297.47843
297.43497
297.39125
297.34743
297.3037
297.26022
297.21719
297.1748
297.13324
297.09272
297.05342
297.01556
296.97932
296.94489
296.91246
296.88222
296.85434
296.82897
296.80628
296.78641
296.76948
296.75561
296.74491
296.73745
296.73332
296.73258
296.73525
296.74141
296.75114
296.76451
296.78157
296.80241
296.82719
296.8561
296.88941
296.92744
296.97046
297.01877
297.07266
297.13169
297.19762
297.26504
297.34518
297.40905
297.51178
297.5466
297.71982
297.72976
305.55308
300.55819
298.34658
297.58812
297.73448
297.67961
297.7253
297.68987
297.69782
297.68022
297.67573
297.66266
297.65191
297.6391
297.62598
297.61172
297.59652
297.58024
297.56287
297.54438
297.52475
297.50394
297.48196
297.45879
297.43446
297.40897
297.38236
297.35467
297.32596
297.29629
297.26575
297.23443
297.20245
297.16992
297.13698
297.10377
297.07046
297.0372
297.00419
296.97159
296.9396
296.90841
296.87821
296.84921
296.8216
296.79558
296.77133
296.74904
296.72888
296.71103
296.69563
296.68283
296.67277
296.66555
296.66129
296.66006
296.66194
296.66698
296.67522
296.68672
296.70156
296.7198
296.7415
296.76675
296.7957
296.82855
296.86556
296.90704
296.95325
297.00446
297.0609
297.12214
297.18974
297.25863
297.33935
297.40408
297.50665
297.54277
297.71672
297.72782
304.96945
299.50146
297.69271
297.03765
297.23283
297.15177
297.21709
297.18007
297.20043
297.18741
297.19197
297.18606
297.18325
297.17814
297.17298
297.16689
297.16003
297.1523
297.14369
297.13415
297.12367
297.1122
297.09974
297.08627
297.07178
297.05628
297.03978
297.02231
297.00389
296.98458
296.96443
296.94353
296.92194
296.89979
296.87717
296.85421
296.83106
296.80786
296.78476
296.76195
296.73959
296.71786
296.69696
296.67706
296.65836
296.64106
296.62532
296.61134
296.59928
296.58932
296.58159
296.57625
296.57342
296.57321
296.57572
296.58104
296.58922
296.60033
296.61438
296.63144
296.65159
296.67489
296.70137
296.73115
296.76437
296.80123
296.84199
296.88695
296.93636
296.99045
297.04942
297.11283
297.18206
297.25236
297.33364
297.39921
297.50163
297.53907
297.71374
297.72625
304.48489
298.5518
297.1441
296.53452
296.76876