/*--------------------------------*- C++ -*----------------------------------*\
  =========                 |
  \\      /  F ield         | OpenFOAM: The Open Source CFD Toolbox
   \\    /   O peration     | Website:  https://openfoam.org
    \\  /    A nd           | Version:  12
     \\/     M anipulation  |
\*---------------------------------------------------------------------------*/
FoamFile
{
    format      ascii;
    class       volScalarField;
    location    "0.077";
    object      k;
}
// * * * * * * * * * * * * * * * * * * * * * * * * * * * * * * * * * * * * * //

dimensions      [0 2 -2 0 0 0 0];

internalField   nonuniform List<scalar> 
16000
(
0.048991011
0.021397336
0.022323425
0.016549342
0.014033407
0.012701957
0.011911344
0.011438763
0.01111858
0.0109033
0.010744219
0.010625911
0.010533536
0.010460428
0.010401591
0.010353971
0.010315087
0.010283231
0.010257176
0.010235658
0.010218148
0.010203794
0.010192253
0.010182994
0.010175758
0.010170195
0.010166138
0.010163402
0.010161849
0.010161349
0.010161778
0.010163032
0.010165028
0.010167698
0.010170978
0.01017481
0.010179135
0.010183891
0.010189021
0.010194469
0.010200169
0.010206053
0.010212056
0.010218106
0.010224121
0.01023001
0.010235686
0.010241071
0.010246093
0.010250696
0.010254839
0.010258489
0.010261611
0.010264159
0.010266089
0.01026737
0.010268009
0.010268041
0.010267516
0.010266472
0.010264926
0.0102629
0.010260458
0.010257655
0.010254466
0.010250751
0.010246246
0.010240551
0.010232992
0.01022234
0.010206356
0.010181376
0.010143397
0.010095775
0.010055274
0.010027111
0.010008821
0.010014504
0.0099858346
0.010020677
0.046127367
0.020299633
0.020893143
0.016005505
0.013690578
0.012501095
0.01175044
0.01132389
0.011019349
0.010821257
0.010672473
0.010562909
0.01047695
0.01040932
0.010354964
0.010311191
0.010275636
0.01024666
0.010223215
0.010203982
0.010188582
0.010176124
0.010166354
0.010158723
0.010153028
0.0101489
0.010146189
0.010144714
0.010144343
0.010144954
0.010146426
0.010148656
0.010151559
0.010155065
0.01015911
0.010163636
0.010168584
0.010173895
0.01017951
0.010185374
0.010191425
0.010197596
0.010203824
0.010210043
0.010216176
0.010222137
0.010227841
0.010233208
0.010238169
0.010242668
0.010246664
0.010250131
0.010253045
0.010255371
0.010257073
0.010258121
0.010258518
0.010258297
0.010257512
0.010256206
0.0102544
0.010252106
0.010249371
0.010246236
0.01024267
0.010238514
0.010233484
0.010227157
0.010218846
0.010207318
0.010190396
0.010164523
0.010126289
0.010082003
0.010045116
0.010018747
0.01000561
0.010006724
0.0099829947
0.010013407
0.042448276
0.019525024
0.019576097
0.01544222
0.013339312
0.012275704
0.011583545
0.011198873
0.01091776
0.010737806
0.010600205
0.01049984
0.010420782
0.010358928
0.010309361
0.010269673
0.010237673
0.010211767
0.010191109
0.010174312
0.010161163
0.010150724
0.010142838
0.010136931
0.010132862
0.010130251
0.01012896
0.010128813
0.010129685
0.010131458
0.010134018
0.010137261
0.010141102
0.010145467
0.010150293
0.01015552
0.010161091
0.010166946
0.010173025
0.010179274
0.010185635
0.010192042
0.010198434
0.010204749
0.010210917
0.010216855
0.010222484
0.010227726
0.010232514
0.010236793
0.010240525
0.01024369
0.010246274
0.010248253
0.010249601
0.010250292
0.010250326
0.010249737
0.010248576
0.010246889
0.010244703
0.010242029
0.010238897
0.010235332
0.010231289
0.010226599
0.010220959
0.010213921
0.010204765
0.010192235
0.010174247
0.010147471
0.010108819
0.010068065
0.010034682
0.010011627
0.010001492
0.0099999848
0.0099823327
0.010008243
0.038588682
0.019004976
0.018439439
0.0149376
0.013021037
0.012071722
0.011430635
0.011084698
0.01082445
0.010660965
0.010534058
0.010442204
0.010369734
0.010313346
0.010268363
0.010232583
0.010204013
0.010181061
0.010163114
0.01014868
0.010137732
0.010129264
0.010123228
0.010119011
0.010116537
0.010115418
0.010115519
0.010116676
0.010118762
0.010121668
0.010125281
0.010129497
0.01013423
0.010139403
0.010144951
0.010150815
0.010156935
0.010163253
0.01016971
0.010176249
0.010182818
0.010189355
0.0101958
0.010202095
0.010208179
0.010213975
0.010219407
0.010224403
0.010228898
0.01023284
0.010236194
0.010238946
0.010241091
0.010242617
0.010243507
0.010243741
0.010243317
0.010242264
0.01024063
0.010238464
0.010235797
0.010232643
0.010229021
0.010224938
0.010220333
0.010215031
0.010208717
0.010200924
0.010190896
0.010177341
0.010158285
0.010130882
0.010092367
0.01005511
0.010025136
0.010005314
0.0099973275
0.0099946048
0.0099822833
0.010004271
0.036076255
0.018727144
0.017507657
0.014469924
0.012724503
0.011878709
0.011287137
0.010976958
0.010737278
0.010589237
0.010472819
0.010389092
0.010323072
0.010271995
0.010231505
0.010199551
0.010174365
0.010154318
0.010139064
0.010126972
0.010118218
0.010111718
0.010107531
0.010105015
0.010104125
0.010104503
0.010105991
0.010108448
0.01011174
0.010115761
0.010120403
0.010125561
0.010131145
0.010137076
0.010143289
0.01014972
0.010156311
0.010163004
0.010169741
0.010176468
0.010183133
0.01018968
0.010196054
0.010202202
0.010208069
0.010213588
0.010218689
0.010223305
0.010227375
0.010230851
0.010233703
0.010235922
0.010237511
0.01023847
0.010238792
0.010238461
0.010237476
0.01023586
0.010233656
0.010230914
0.010227669
0.010223942
0.010219745
0.010215066
0.010209826
0.010203842
0.010196795
0.010188198
0.010177269
0.010162676
0.010142496
0.010114539
0.010076904
0.01004308
0.010016468
0.0099996339
0.0099932084
0.0099905553
0.0099828897
0.01000128
0.033939709
0.018681566
0.016823851
0.014041377
0.012451511
0.01169904
0.011154401
0.010877057
0.01065715
0.010523358
0.01041711
0.01034105
0.010281269
0.010235308
0.010199181
0.010170946
0.01014908
0.010131878
0.010119288
0.010109518
0.010102945
0.01009843
0.010096081
0.010095299
0.010095953
0.01009784
0.010100693
0.010104434
0.01010891
0.010114015
0.010119643
0.010125689
0.010132059
0.010138674
0.010145463
0.010152363
0.010159316
0.010166265
0.010173155
0.010179933
0.010186553
0.010192965
0.01019912
0.010204969
0.010210468
0.010215559
0.010220181
0.010224272
0.010227778
0.010230656
0.01023288
0.010234445
0.010235363
0.010235646
0.010235295
0.0102343
0.010232658
0.010230388
0.010227529
0.010224126
0.01022022
0.010215836
0.010210988
0.010205648
0.010199714
0.01019299
0.010185158
0.010175719
0.010163866
0.010148259
0.010126957
0.010098352
0.010062606
0.01003214
0.010008748
0.0099945033
0.0099894336
0.0099876625
0.0099840517
0.0099991269
0.031064419
0.018793394
0.016335088
0.013648503
0.012199696
0.011532056
0.011032195
0.010784836
0.010583965
0.010463236
0.010366819
0.010298032
0.010244301
0.010203307
0.010171454
0.01014687
0.010128297
0.010113918
0.010103979
0.010096557
0.010092152
0.010089733
0.010089188
0.010090286
0.010092333
0.010095679
0.010099934
0.010104937
0.010110564
0.010116706
0.010123259
0.010130116
0.010137183
0.010144376
0.010151625
0.010158865
0.010166039
0.010173094
0.010179978
0.010186645
0.010193052
0.010199158
0.010204922
0.010210303
0.010215267
0.010219768
0.010223754
0.010227169
0.010229969
0.010232114
0.010233583
0.010234377
0.010234514
0.010234016
0.010232893
0.01023114
0.010228755
0.010225749
0.010222156
0.01021802
0.010213382
0.010208273
0.010202707
0.010196646
0.010189967
0.010182458
0.010173801
0.010163488
0.010150693
0.010134116
0.010111808
0.010082333
0.010049612
0.010022387
0.01000198
0.0099899271
0.0099860894
0.0099859497
0.0099863447
0.0099977384
0.028723323
0.018989755
0.01593023
0.013288676
0.011967615
0.011377522
0.01091992
0.010700105
0.010517323
0.010408753
0.010321876
0.010260079
0.010212263
0.010176149
0.010148528
0.010127569
0.01011229
0.010100754
0.010093419
0.010088448
0.010086127
0.010086221
0.010087019
0.010089742
0.010093647
0.010098461
0.010104055
0.010110279
0.010116997
0.010124101
0.010131483
0.01013904
0.010146676
0.010154304
0.010161854
0.010169265
0.010176481
0.010183454
0.01019014
0.010196499
0.010202496
0.010208101
0.010213282
0.01021801
0.01022226
0.010225998
0.010229185
0.010231774
0.010233725
0.010235007
0.010235603
0.010235517
0.010234773
0.0102334
0.010231417
0.010228825
0.010225618
0.010221805
0.010217414
0.010212485
0.01020706
0.01020117
0.010194831
0.010187998
0.010180532
0.010172203
0.010162692
0.010151489
0.010137745
0.010120228
0.010097199
0.010067172
0.010037978
0.010013869
0.0099961713
0.0099860141
0.0099831784
0.0099853318
0.0099900139
0.0099975836
0.027002293
0.019181927
0.015429134
0.012958675
0.011753759
0.011234545
0.010816991
0.010622069
0.010457397
0.010360187
0.010282544
0.010227513
0.010185496
0.010154201
0.010130788
0.010113451
0.010101445
0.01009284
0.010087832
0.010085656
0.010084377
0.01008714
0.010090421
0.010094844
0.010100274
0.010106523
0.010113408
0.010120775
0.010128488
0.010136434
0.010144507
0.010152605
0.010160631
0.010168501
0.010176148
0.010183513
0.010190548
0.010197212
0.010203471
0.010209294
0.010214659
0.010219546
0.010223938
0.010227816
0.010231166
0.010233969
0.010236197
0.010237813
0.010238784
0.010239084
0.0102387
0.010237639
0.010235927
0.0102336
0.010230685
0.010227185
0.010223095
0.010218417
0.010213175
0.010207408
0.010201156
0.010194447
0.010187293
0.010179643
0.010171352
0.010162179
0.010151797
0.010139703
0.010125032
0.010106583
0.010083115
0.010053725
0.010027734
0.010006601
0.0099913673
0.0099829198
0.0099807531
0.0099852713
0.0099935381
0.0099989494
0.02526886
0.019357101
0.014757399
0.012655777
0.011558205
0.011103941
0.01072431
0.010552022
0.010404761
0.010317991
0.010249258
0.010200805
0.010164471
0.010137946
0.010118726
0.010105034
0.010096153
0.010090754
0.010086884
0.010088666
0.010090999
0.010094487
0.010099542
0.010105671
0.010112639
0.010120243
0.010128315
0.010136699
0.010145254
0.010153866
0.01016243
0.010170847
0.010179027
0.010186889
0.010194371
0.010201424
0.010208009
0.010214097
0.010219667
0.010224702
0.010229193
0.010233134
0.010236522
0.010239352
0.010241623
0.010243326
0.010244447
0.010244958
0.010244834
0.010244051
0.010242599
0.010240486
0.010237739
0.010234398
0.010230494
0.010226036
0.010221017
0.010215434
0.010209305
0.010202669
0.010195564
0.010188013
0.010180016
0.010171517
0.010162372
0.010152339
0.010141081
0.010128102
0.010112564
0.010093235
0.010069314
0.010041835
0.010018897
0.010000567
0.0099876257
0.0099807721
0.0099792306
0.0099854258
0.0099965431
0.010001673
0.023737383
0.019504186
0.014215306
0.012377824
0.011381441
0.010985624
0.010642358
0.010490592
0.010359544
0.010282557
0.010222434
0.010180433
0.010149698
0.010127919
0.010112888
0.010102931
0.010096542
0.010095173
0.010095811
0.010097989
0.01010228
0.01010809
0.01011498
0.010122729
0.010131117
0.010139942
0.010149033
0.010158234
0.010167406
0.010176433
0.010185212
0.010193656
0.010201682
0.010209219
0.010216219
0.010222643
0.010228469
0.010233682
0.010238278
0.010242257
0.010245626
0.010248395
0.010250573
0.01025217
0.010253196
0.010253655
0.010253542
0.010252841
0.010251528
0.010249586
0.010247003
0.010243786
0.01023996
0.010235565
0.010230638
0.01022519
0.010219215
0.010212704
0.01020567
0.010198148
0.010190177
0.010181774
0.010172924
0.010163559
0.010153541
0.01014264
0.010130514
0.010116662
0.010100324
0.010080309
0.010055803
0.010031487
0.010011445
0.0099957418
0.0099849362
0.0099796215
0.009978549
0.0099855147
0.009997816
0.010004222
0.022366317
0.019639256
0.013745288
0.012125319
0.01122339
0.010879359
0.010570931
0.0104374
0.010322106
0.010254358
0.010202567
0.010166945
0.010141758
0.010124736
0.010113891
0.010107864
0.010105686
0.010106158
0.010109211
0.010114313
0.010120849
0.010128551
0.010137155
0.010146383
0.010156011
0.010165834
0.010175687
0.010185414
0.010194881
0.010203977
0.01021261
0.010220704
0.010228196
0.010235031
0.010241178
0.010246619
0.010251348
0.010255372
0.010258705
0.010261365
0.010263376
0.010264762
0.010265548
0.010265753
0.0102654
0.010264501
0.01026306
0.010261067
0.010258506
0.010255356
0.010251607
0.01024726
0.010242336
0.010236874
0.01023091
0.010224463
0.010217524
0.010210082
0.01020214
0.010193731
0.010184893
0.010175639
0.010165939
0.01015571
0.010144815
0.010133046
0.010120073
0.010105378
0.010088271
0.01006792
0.010043707
0.010022619
0.01000535
0.0099920945
0.0099831909
0.0099790842
0.0099783266
0.0099853643
0.0099971165
0.010005269
0.021126206
0.019729121
0.013314653
0.011898115
0.011083618
0.010785475
0.010510155
0.010393104
0.010292781
0.010233915
0.010190235
0.010160978
0.010141328
0.010129097
0.010122481
0.010120157
0.010121191
0.010124965
0.01013077
0.010138164
0.010146797
0.010156318
0.010166438
0.010176895
0.010187467
0.010197952
0.010208188
0.010218031
0.010227359
0.010236076
0.010244106
0.010251398
0.010257911
0.010263618
0.010268511
0.010272595
0.010275889
0.010278419
0.010280219
0.010281325
0.010281775
0.010281607
0.010280857
0.010279555
0.010277728
0.010275397
0.010272571
0.010269247
0.01026541
0.010261038
0.010256117
0.010250643
0.010244629
0.010238109
0.010231119
0.01022368
0.01021579
0.010207431
0.010198598
0.010189314
0.010179618
0.010169521
0.010158985
0.01014791
0.010136155
0.010123533
0.010109745
0.010094278
0.010076432
0.010055864
0.010033411
0.01001519
0.010000558
0.0099895615
0.0099822766
0.0099790251
0.0099788726
0.0099850373
0.0099953705
0.01000353
0.020010377
0.019735748
0.012923859
0.011694042
0.010961343
0.010703696
0.010460147
0.010358021
0.010272045
0.010221881
0.010186168
0.010163308
0.010149225
0.010141835
0.010139495
0.010140987
0.010145417
0.010152099
0.010160499
0.010170152
0.010180665
0.010191711
0.010203007
0.010214298
0.010225368
0.010236026
0.010246125
0.010255541
0.010264178
0.010271965
0.010278858
0.010284836
0.01028989
0.010294028
0.010297269
0.010299644
0.010301194
0.010301967
0.010302012
0.010301382
0.010300124
0.010298286
0.010295911
0.010293036
0.010289691
0.0102859
0.010281676
0.010277017
0.010271911
0.010266334
0.010260265
0.010253693
0.010246623
0.010239079
0.010231094
0.010222694
0.01021388
0.010204632
0.010194938
0.010184808
0.010174274
0.01016335
0.010151995
0.010140104
0.010127527
0.010114086
0.010099519
0.01008338
0.01006498
0.010044046
0.010024721
0.010009156
0.0099969538
0.0099880161
0.0099822262
0.0099795358
0.0099802122
0.0099848477
0.009993358
0.010000656
0.019004922
0.019527577
0.012571149
0.011512235
0.010856368
0.010634387
0.010421218
0.010332827
0.01026062
0.010219153
0.010191324
0.01017493
0.010166464
0.010163957
0.010165896
0.010171137
0.010178832
0.010188333
0.010199094
0.010210664
0.010222667
0.010234776
0.010246719
0.010258255
0.01026919
0.010279361
0.010288649
0.010296969
0.010304265
0.010310507
0.01031569
0.010319832
0.010322962
0.010325123
0.010326362
0.010326734
0.010326302
0.010325126
0.010323269
0.010320791
0.010317748
0.010314191
0.010310165
0.010305708
0.010300852
0.01029562
0.010290025
0.010284066
0.01027773
0.010270994
0.010263827
0.010256211
0.01024814
0.010239626
0.010230697
0.010221381
0.010211685
0.010201591
0.010191078
0.010180142
0.010168804
0.010157078
0.010144927
0.010132251
0.010118904
0.010104707
0.010089411
0.010072661
0.010054106
0.010033953
0.010017522
0.010004405
0.0099943646
0.0099872073
0.0099827146
0.0099806551
0.0099811503
0.0099850363
0.0099923594
0.0099991932
0.018094925
0.018689827
0.012253724
0.011351917
0.010768939
0.01057791
0.010393911
0.010318478
0.010259569
0.010226902
0.010206931
0.010197063
0.010194228
0.010196576
0.0102027
0.010211522
0.010222225
0.010234172
0.010246839
0.010259782
0.010272636
0.010285093
0.010296909
0.010307881
0.010317855
0.01032672
0.010334408
0.010340887
0.010346155
0.010350234
0.010353164
0.010355003
0.010355818
0.01035568
0.010354662
0.010352838
0.010350279
0.010347058
0.010343241
0.01033889
0.010334061
0.010328803
0.010323162
0.01031717
0.010310859
0.010304247
0.010297345
0.010290152
0.010282654
0.010274825
0.010266632
0.010258044
0.010249044
0.010239632
0.010229828
0.010219656
0.01020913
0.010198239
0.010186957
0.010175266
0.010163173
0.010150684
0.010137771
0.010124345
0.010110277
0.010095402
0.010079483
0.010062192
0.010043516
0.010025663
0.010011696
0.010000781
0.0099926079
0.0099869217
0.0099834754
0.009982003
0.0099824482
0.0099853928
0.0099914566
0.0099981762
0.017272104
0.017330472
0.011973572
0.011212858
0.010698152
0.010535212
0.010379281
0.01031639
0.010270339
0.010246595
0.010234437
0.010231074
0.010233776
0.0102408
0.010250825
0.010262824
0.010276004
0.010289747
0.010303547
0.010316986
0.010329738
0.010341543
0.010352212
0.010361612
0.010369659
0.010376315
0.010381581
0.01038549
0.0103881
0.010389484
0.010389726
0.010388919
0.010387156
0.01038453
0.010381129
0.010377032
0.010372319
0.010367059
0.010361316
0.010355149
0.010348606
0.010341733
0.010334567
0.010327136
0.010319464
0.010311568
0.010303453
0.010295117
0.010286544
0.010277707
0.010268569
0.010259094
0.010249251
0.010239026
0.010228426
0.01021747
0.010206177
0.010194543
0.010182546
0.010170157
0.010157366
0.010144173
0.01013055
0.010116419
0.010101672
0.010086179
0.010069757
0.010052216
0.010033843
0.010018887
0.010007094
0.009998093
0.0099915212
0.0099870926
0.0099845476
0.0099835601
0.0099839111
0.0099860674
0.0099909598
0.0099974812
0.01653235
0.016461415
0.011736876
0.011095448
0.010644895
0.010507679
0.010378823
0.010328239
0.010294622
0.010279861
0.010275387
0.010278359
0.010286297
0.010297552
0.010310865
0.010325261
0.010339976
0.01035443
0.010368175
0.010380861
0.01039224
0.010402144
0.01041048
0.010417211
0.010422347
0.010425936
0.010428053
0.010428797
0.010428275
0.010426606
0.010423902
0.010420278
0.010415841
0.010410691
0.010404917
0.010398601
0.010391813
0.010384616
0.010377066
0.01036921
0.010361088
0.010352735
0.010344178
0.01033544
0.010326535
0.010317474
0.01030826
0.010298887
0.010289338
0.010279586
0.010269595
0.010259321
0.010248725
0.010237778
0.010226471
0.010214814
0.010202824
0.010190508
0.010177851
0.010164823
0.010151398
0.010137565
0.010123298
0.010108526
0.010093156
0.010077095
0.01006024
0.010042695
0.010026162
0.010013417
0.010003543
0.0099961687
0.0099909495
0.0099875908
0.0099858102
0.0099852304
0.0099855474
0.0099871711
0.0099910675
0.0099969362
0.01586781
0.015454689
0.011534648
0.011000204
0.010610123
0.010497005
0.010394169
0.010355925
0.010334325
0.010328478
0.010331371
0.010340195
0.010352664
0.010367211
0.010382653
0.010398091
0.010412844
0.010426431
0.010438523
0.010448898
0.010457437
0.010464107
0.010468933
0.010471991
0.010473388
0.01047325
0.010471718
0.010468936
0.010465047
0.010460189
0.010454491
0.01044807
0.010441031
0.010433469
0.010425464
0.010417087
0.010408397
0.010399442
0.010390265
0.0103809
0.010371375
0.010361713
0.01035193
0.010342038
0.010332046
0.010321957
0.010311768
0.010301473
0.010291054
0.010280484
0.010269728
0.010258743
0.010247481
0.010235903
0.010223983
0.010211714
0.010199107
0.010186176
0.010172918
0.010159308
0.010145312
0.010130901
0.010116052
0.010100715
0.010084802
0.010068255
0.01005113
0.01003387
0.010019996
0.010009139
0.010000893
0.0099948732
0.00999077
0.0099883085
0.009987177
0.0099869516
0.0099873162
0.0099887046
0.0099921054
0.0099972857
0.01527273
0.014769771
0.011369266
0.010927791
0.010594883
0.010505383
0.010427499
0.010401797
0.010391678
0.010394289
0.010403719
0.010417258
0.010432809
0.010448932
0.010464592
0.010479053
0.010491813
0.010502572
0.010511189
0.010517622
0.010521917
0.010524181
0.010524564
0.010523236
0.01052038
0.010516177
0.010510804
0.010504425
0.010497194
0.010489247
0.010480706
0.010471677
0.010462251
0.010452506
0.010442507
0.010432307
0.010421949
0.010411465
0.010400881
0.010390218
0.01037949
0.010368708
0.010357876
0.010346997
0.010336072
0.010325097
0.010314064
0.010302964
0.010291779
0.010280486
0.010269051
0.010257434
0.010245586
0.010233461
0.010221017
0.010208229
0.010195093
0.01018162
0.010167821
0.010153688
0.010139183
0.010124258
0.010108881
0.010093038
0.010076685
0.010059758
0.01004255
0.010027076
0.010015117
0.010005904
0.0099990243
0.0099941196
0.0099909125
0.0099891647
0.0099885592
0.0099886623
0.0099891921
0.0099905423
0.0099935644
0.0099978952
0.014741433
0.014013588
0.011237392
0.010880845
0.010601045
0.010536146
0.010481858
0.010468569
0.010468776
0.010478461
0.010492567
0.010508604
0.010524756
0.010539843
0.010553107
0.010564097
0.010572585
0.010578519
0.01058198
0.010583115
0.010582125
0.010579233
0.010574673
0.010568675
0.010561455
0.010553214
0.010544129
0.010534358
0.010524039
0.010513291
0.010502213
0.01049089
0.01047939
0.010467767
0.010456068
0.010444325
0.010432563
0.0104208
0.010409045
0.010397305
0.01038558
0.01037387
0.010362169
0.01035047
0.010338766
0.010327046
0.010315299
0.01030351
0.010291664
0.010279737
0.010267701
0.010255522
0.010243156
0.010230553
0.010217663
0.010204446
0.010190875
0.010176946
0.010162673
0.010148066
0.010133111
0.01011775
0.010101917
0.0100856
0.010068871
0.010051852
0.010035019
0.01002179
0.010011432
0.010003577
0.0099978241
0.0099938291
0.0099913295
0.0099901131
0.0099898877
0.0099902652
0.0099910389
0.0099925111
0.0099952336
0.0099986235
0.014273503
0.013427033
0.011143663
0.010864037
0.010632532
0.010593347
0.010560357
0.010558094
0.010566101
0.010579942
0.010595442
0.010610539
0.010623885
0.010634734
0.010642732
0.010647792
0.010649999
0.010649551
0.010646717
0.010641792
0.010635069
0.010626833
0.010617346
0.010606844
0.010595535
0.0105836
0.010571193
0.010558441
0.010545452
0.010532314
0.010519097
0.010505859
0.010492642
0.010479478
0.01046639
0.010453394
0.010440498
0.010427703
0.010415007
0.010402403
0.01038988
0.010377427
0.010365028
0.01035267
0.010340336
0.010328009
0.010315674
0.010303312
0.010290906
0.010278434
0.010265872
0.010253193
0.010240359
0.010227329
0.010214052
0.010200479
0.010186563
0.010172276
0.010157612
0.010142587
0.010127216
0.010111483
0.010095318
0.01007864
0.010061493
0.01004438
0.010029465
0.010017804
0.010008799
0.010002041
0.0099971785
0.0099938963
0.0099919462
0.0099911173
0.0099911359
0.0099916877
0.0099926591
0.0099942659
0.0099966627
0.0099991089
0.01387428
0.012961493
0.011090576
0.01088245
0.010713447
0.010680041
0.010664088
0.010669219
0.010680542
0.010693941
0.010706331
0.010716316
0.010723199
0.010726765
0.010727098
0.010724451
0.010719162
0.0107116
0.010702137
0.010691123
0.010678868
0.010665649
0.010651702
0.010637225
0.010622384
0.010607318
0.010592136
0.010576928
0.010561764
0.010546697
0.010531768
0.010517005
0.01050243
0.010488052
0.010473876
0.010459901
0.01044612
0.010432523
0.010419095
0.010405821
0.01039268
0.010379651
0.010366714
0.010353844
0.010341021
0.01032822
0.010315419
0.010302598
0.010289735
0.010276809
0.010263798
0.010250679
0.010237424
0.010224001
0.010210368
0.01019648
0.010182284
0.010167733
0.010152788
0.010137436
0.010121689
0.010105574
0.010089112
0.0100723
0.010055192
0.010038385
0.010025328
0.010014983
0.010007059
0.01000116
0.0099969652
0.0099942007
0.009992648
0.0099920913
0.0099922615
0.0099929038
0.0099939456
0.0099955571
0.0099977531
0.0099996037
0.013552889
0.012586119
0.011082247
0.01093622
0.010814715
0.01079553
0.010789411
0.010795809
0.010804302
0.010811737
0.01081627
0.010817317
0.01081484
0.010809102
0.010800511
0.010789525
0.010776596
0.010762137
0.010746513
0.010730037
0.010712969
0.010695524
0.010677874
0.010660159
0.010642486
0.010624939
0.010607585
0.010590469
0.010573627
0.01055708
0.010540843
0.010524921
0.010509313
0.010494015
0.010479015
0.0104643
0.010449851
0.010435649
0.010421672
0.010407894
0.01039429
0.010380834
0.010367496
0.010354248
0.010341063
0.010327911
0.010314765
0.010301599
0.010288388
0.010275107
0.010261735
0.010248248
0.010234626
0.010220842
0.01020687
0.010192675
0.010178215
0.010163445
0.010148313
0.010132772
0.010116787
0.01010035
0.010083496
0.010066347
0.010049327
0.01003421
0.010022386
0.010013113
0.010006021
0.010000766
0.0099970531
0.0099946402
0.0099933324
0.0099929247
0.0099931685
0.009993855
0.0099949169
0.0099964071
0.009998238
0.00999968
0.013325976
0.01231309
0.011121587
0.011031812
0.010946163
0.010931399
0.010926274
0.01092662
0.010925954
0.010922502
0.010915606
0.010905388
0.01089227
0.010876769
0.010859407
0.010840654
0.01082092
0.010800541
0.010779792
0.010758892
0.010738009
0.010717275
0.010696788
0.01067662
0.010656823
0.010637432
0.010618471
0.010599951
0.010581878
0.010564248
0.010547053
0.010530282
0.010513919
0.010497946
0.010482341
0.010467081
0.010452141
0.010437495
0.010423113
0.010408968
0.010395028
0.010381262
0.010367639
0.010354125
0.010340689
0.010327297
0.010313918
0.010300521
0.010287074
0.01027355
0.010259923
0.010246166
0.010232257
0.010218175
0.010203896
0.010189399
0.010174657
0.010159642
0.010144318
0.010128644
0.010112574
0.010096066
0.010079112
0.010061838
0.01004492
0.010031324
0.010020461
0.010011984
0.0100055
0.010000706
0.0099973278
0.0099951321
0.0099939324
0.0099935567
0.0099937947
0.0099944612
0.0099954909
0.0099968436
0.0099983797
0.0099996192
0.013195091
0.012141191
0.011212868
0.011158258
0.011092725
0.011074248
0.011060392
0.011048029
0.011033552
0.011016453
0.010996852
0.010975209
0.01095205
0.010927862
0.010903059
0.010877974
0.01085287
0.010827944
0.010803345
0.010779179
0.010755521
0.010732421
0.010709911
0.010688005
0.010666711
0.010646024
0.010625936
0.01060643
0.010587491
0.010569097
0.010551224
0.010533849
0.010516946
0.010500486
0.010484443
0.010468786
0.010453487
0.010438513
0.010423835
0.010409419
0.010395234
0.010381246
0.010367421
0.010353725
0.010340123
0.010326581
0.010313063
0.010299534
0.01028596
0.010272308
0.010258546
0.010244642
0.010230568
0.010216297
0.010201803
0.010187066
0.010172065
0.010156781
0.010141195
0.01012529
0.010109046
0.010092446
0.010075506
0.010058405
0.010042069
0.010029476
0.010019333
0.010011414
0.010005344
0.010000849
0.0099976758
0.0099955874
0.009994397
0.009993969
0.0099941428
0.0099947481
0.0099957017
0.0099969114
0.0099982455
0.009999473
0.013125414
0.012067019
0.011368106
0.01129908
0.01123797
0.011205413
0.011175971
0.011147373
0.011117905
0.011087563
0.011056607
0.011025394
0.010994247
0.010963428
0.010933132
0.010903498
0.010874617
0.010846548
0.010819323
0.010792953
0.010767437
0.010742761
0.010718906
0.010695847
0.010673557
0.010652006
0.010631161
0.01061099
0.010591461
0.010572541
0.010554197
0.010536396
0.010519106
0.010502294
0.010485928
0.010469976
0.010454404
0.01043918
0.010424272
0.010409646
0.010395269
0.010381107
0.010367128
0.010353295
0.010339575
0.010325934
0.010312335
0.010298742
0.010285121
0.010271434
0.010257645
0.010243718
0.010229618
0.01021531
0.010200761
0.010185941
0.010170821
0.010155376
0.010139587
0.010123436
0.010106916
0.010090039
0.010072891
0.010055849
0.010040532
0.010028501
0.010018842
0.010011274
0.010005455
0.01000112
0.009998021
0.0099959365
0.0099947007
0.0099941977
0.0099942276
0.0099947703
0.0099956341
0.0099967239
0.0099979441
0.0099992757
0.01313005
0.012024413
0.011521919
0.011430577
0.01135823
0.011307387
0.011260973
0.011217444
0.011175496
0.011134932
0.011095693
0.011057798
0.011021265
0.010986094
0.010952268
0.010919756
0.010888518
0.010858506
0.010829668
0.010801951
0.0107753
0.010749663
0.010724987
0.010701222
0.010678317
0.010656227
0.010634906
0.01061431
0.010594399
0.010575132
0.01055647
0.010538376
0.010520814
0.010503749
0.010487144
0.010470967
0.010455184
0.010439761
0.010424665
0.010409863
0.010395323
0.01038101
0.010366893
0.010352939
0.010339114
0.010325385
0.010311718
0.010298079
0.010284434
0.010270747
0.010256983
0.010243104
0.010229073
0.010214853
0.010200406
0.010185696
0.010170687
0.010155343
0.010139629
0.010123509
0.010106952
0.010089951
0.010072599
0.010055386
0.010040444
0.01002862
0.010019114
0.01001165
0.010005885
0.010001543
0.0099983737
0.0099961806
0.0099948435
0.0099942858
0.0099941821
0.0099946229
0.0099954122
0.0099964301
0.0099976185
0.0099990865
0.013218686
0.012047795
0.011636972
0.011526332
0.011438744
0.011372115
0.011312896
0.01125912
0.011209146
0.011162314
0.011118176
0.011076437
0.011036866
0.010999279
0.010963517
0.010929441
0.010896928
0.010865868
0.010836163
0.01080772
0.010780457
0.010754299
0.010729175
0.010705019
0.010681772
0.010659377
0.010637782
0.010616937
0.010596795
0.010577314
0.010558451
0.010540167
0.010522422
0.010505181
0.010488406
0.010472064
0.010456119
0.010440538
0.010425287
0.010410334
0.010395647
0.010381193
0.01036694
0.010352856
0.01033891
0.01032507
0.010311304
0.01029758
0.010283866
0.010270129
0.010256336
0.010242453
0.010228445
0.010214279
0.010199922
0.010185343
0.010170512
0.0101554
0.010139977
0.010124211
0.010108071
0.010091543
0.010074674
0.010057789
0.010042363
0.010030282
0.01002052
0.010012824
0.010006828
0.010002253
0.0099988733
0.0099965264
0.0099950666
0.0099943089
0.0099940697
0.009994439
0.0099951607
0.009996142
0.0099973487
0.0099989555
0.013342226
0.012104059
0.011696984
0.011574733
0.011476976
0.011402101
0.011336839
0.011278594
0.01122531
0.011175996
0.011129977
0.011086794
0.011046103
0.011007634
0.010971167
0.010936521
0.010903539
0.010872087
0.010842047
0.010813315
0.010785797
0.010759409
0.010734075
0.010709724
0.010686293
0.010663723
0.010641959
0.010620949
0.010600646
0.010581005
0.010561983
0.010543539
0.010525635
0.010508233
0.010491297
0.010474792
0.010458683
0.010442936
0.010427519
0.010412399
0.010397543
0.010382918
0.010368494
0.010354239
0.010340121
0.010326108
0.010312169
0.010298272
0.010284384
0.010270474
0.010256505
0.010242445
0.010228259
0.010213911
0.010199369
0.010184602
0.010169581
0.010154276
0.010138656
0.010122691
0.010106355
0.010089642
0.010072646
0.010055857
0.010041401
0.010029846
0.010020493
0.01001303
0.010007128
0.010002558
0.0099991612
0.0099968001
0.0099952744
0.0099943576
0.0099940122
0.0099943368
0.0099949961
0.0099959536
0.0099971814
0.0099988802
66.803232
363.11352
122.82782
14.994305
0.41618042
0.021295536
0.019954362
0.019655014
0.019402077
0.018358403
0.017045997
0.015868412
0.014973021
0.014406804
0.014004146
0.013626472
0.013261553
0.012936496
0.01266128
0.01243021
0.01223396
0.012064916
0.011917771
0.011788722
0.011674789
0.011573523
0.01148296
0.011401529
0.011328
0.011261399
0.01120092
0.011145858
0.011095603
0.011049641
0.011007571
0.010969066
0.010933848
0.010901668
0.010872296
0.010845527
0.010821182
0.010799089
0.010779075
0.010760982
0.01074466
0.010729955
0.010716707
0.010704761
0.010693976
0.010684227