/*--------------------------------*- C++ -*----------------------------------*\
  =========                 |
  \\      /  F ield         | OpenFOAM: The Open Source CFD Toolbox
   \\    /   O peration     | Website:  https://openfoam.org
    \\  /    A nd           | Version:  12
     \\/     M anipulation  |
\*---------------------------------------------------------------------------*/
FoamFile
{
    format      ascii;
    class       volScalarField;
    location    "0.077";
    object      Ma;
}
// * * * * * * * * * * * * * * * * * * * * * * * * * * * * * * * * * * * * * //

dimensions      [];

internalField   nonuniform List<scalar> 
16000
(
0.62325065
0.73958765
0.69540989
0.71945942
0.70464607
0.71144242
0.7058239
0.70729636
0.70468743
0.70422942
0.70261794
0.70148647
0.70007952
0.69870609
0.69725125
0.69575046
0.69419251
0.69257898
0.69090862
0.68918096
0.6873956
0.68555238
0.6836514
0.68169304
0.67967799
0.67760728
0.67548229
0.67330482
0.67107702
0.6688015
0.66648127
0.66411978
0.66172088
0.65928885
0.65682837
0.65434445
0.65184245
0.64932802
0.64680702
0.64428547
0.64176951
0.63926529
0.63677892
0.63431639
0.63188349
0.62948575
0.62712836
0.62481614
0.62255343
0.62034412
0.61819154
0.61609849
0.6140672
0.6120993
0.61019586
0.60835732
0.60658354
0.60487384
0.60322695
0.60164097
0.60011327
0.59864085
0.59722022
0.59584719
0.59451692
0.59322402
0.59196263
0.59072648
0.58950902
0.58830446
0.58711078
0.58593449
0.58479565
0.58372824
0.58275957
0.5819601
0.58093828
0.5810384
0.57874873
0.58060859
0.62757971
0.74466738
0.69854981
0.72398009
0.70834674
0.71560231
0.70953922
0.711128
0.70833712
0.70780716
0.70610712
0.70486032
0.70336169
0.70187426
0.70031093
0.69869382
0.69701705
0.6952805
0.69348357
0.69162581
0.68970709
0.68772754
0.68568758
0.683588
0.68142993
0.67921491
0.6769449
0.67462225
0.67224981
0.66983085
0.66736912
0.66486879
0.66233452
0.65977133
0.65718468
0.65458033
0.65196434
0.64934302
0.6467228
0.64411023
0.64151184
0.63893408
0.63638325
0.63386541
0.63138627
0.6289512
0.62656508
0.62423232
0.62195678
0.61974175
0.61758992
0.61550341
0.61348373
0.61153179
0.60964791
0.60783183
0.60608275
0.60439935
0.6027798
0.60122172
0.59972208
0.59827745
0.59688408
0.59553757
0.59423298
0.59296488
0.59172749
0.59051471
0.58932033
0.58813913
0.58696963
0.5858185
0.58470564
0.58366501
0.58272806
0.58188184
0.58110273
0.58065952
0.57911142
0.5802222
0.63162683
0.7493334
0.70201998
0.72790689
0.71182194
0.719182
0.71296034
0.71443885
0.71159283
0.71090776
0.70913917
0.70775538
0.70615271
0.70453903
0.70285168
0.70110414
0.6992931
0.69741819
0.69547907
0.69347563
0.69140808
0.68927696
0.68708314
0.68482792
0.68251301
0.68014055
0.67771318
0.675234
0.67270663
0.67013517
0.66752425
0.66487895
0.66220482
0.65950782
0.65679428
0.65407082
0.65134429
0.64862171
0.64591012
0.64321657
0.64054794
0.63791092
0.63531187
0.63275676
0.6302511
0.62779987
0.62540746
0.62307764
0.62081356
0.6186177
0.61649191
0.61443742
0.6124548
0.61054406
0.60870465
0.60693545
0.60523487
0.60360086
0.60203094
0.60052218
0.59907108
0.59767381
0.5963263
0.59502395
0.59376172
0.59253419
0.59133565
0.59016025
0.58900223
0.58785711
0.58672423
0.58561098
0.58453788
0.58353783
0.58263369
0.58180994
0.58110882
0.58047312
0.57929595
0.57997457
0.63531817
0.75358667
0.70496461
0.73132081
0.71484511
0.72231723
0.71593085
0.71728043
0.71436982
0.7135112
0.71165991
0.71012318
0.70839866
0.70664275
0.70481413
0.70291962
0.7009579
0.69892859
0.69683168
0.69466744
0.69243647
0.69013978
0.68777878
0.68535535
0.68287188
0.68033127
0.67773697
0.67509299
0.6724039
0.66967484
0.66691147
0.66411994
0.66130686
0.65847924
0.65564438
0.65280981
0.6499832
0.64717224
0.64438452
0.64162746
0.63890816
0.63623334
0.6336092
0.63104141
0.62853496
0.6260942
0.62372273
0.62142346
0.61919854
0.61704944
0.61497694
0.61298117
0.61106164
0.60921733
0.60744668
0.60574766
0.60411786
0.60255446
0.60105432
0.59961395
0.5982294
0.5968965
0.59561088
0.59436779
0.59316214
0.59198854
0.59084144
0.58971524
0.58860473
0.58750611
0.58641949
0.58535292
0.58432733
0.58337319
0.58250736
0.5817275
0.58106143
0.5803426
0.57936756
0.57977766
0.6386416
0.75736356
0.70763689
0.73415489
0.71725112
0.72490106
0.71839492
0.71956044
0.71659834
0.71553567
0.71359115
0.71188397
0.71001951
0.70810618
0.70611979
0.70406276
0.70193478
0.69973564
0.6974656
0.69512532
0.69271587
0.69023883
0.68769628
0.6850909
0.68242597
0.67970539
0.67693369
0.67411604
0.67125825
0.6683667
0.66544833
0.66251056
0.65956123
0.65660849
0.6536607
0.65072632
0.64781378
0.64493135
0.64208703
0.63928841
0.63654255
0.63385593
0.63123431
0.62868267
0.62620522
0.62380531
0.62148548
0.61924743
0.61709209
0.61501965
0.61302962
0.61112087
0.60929173
0.60754
0.6058631
0.60425804
0.60272155
0.60125007
0.59983981
0.59848676
0.59718659
0.59593481
0.59472682
0.59355782
0.59242268
0.59131612
0.59023281
0.58916751
0.58811556
0.58707393
0.58604352
0.58503317
0.58406377
0.58316281
0.58234502
0.58161578
0.58097609
0.58023916
0.57939326
0.5796262
0.64154607
0.76058139
0.70987044
0.73654138
0.71937401
0.72685555
0.72020789
0.72120408
0.71817488
0.71691009
0.71486129
0.71297357
0.71095399
0.70887086
0.70671192
0.70447723
0.70216692
0.69978116
0.6973207
0.6947868
0.69218129
0.68950661
0.68676589
0.68396292
0.68110224
0.67818907
0.67522937
0.67222982
0.66919772
0.66614097
0.66306803
0.65998775
0.6569093
0.65384204
0.65079536
0.64777856
0.64480067
0.64187034
0.63899568
0.63618411
0.63344231
0.6307761
0.62819037
0.62568907
0.62327515
0.62095064
0.61871664
0.61657337
0.61452025
0.61255599
0.61067866
0.60888575
0.60717431
0.60554096
0.60398207
0.60249374
0.60107186
0.5997122
0.5984104
0.59716201
0.5959624
0.59480686
0.59369067
0.59260901
0.59155685
0.59052908
0.58952065
0.58852675
0.58754334
0.58656817
0.58560298
0.58465732
0.58375154
0.58291036
0.58214834
0.58147415
0.58086549
0.58013786
0.57938539
0.5794872
0.64401162
0.76323118
0.71166497
0.73844833
0.7210228
0.72817309
0.7215778
0.72219811
0.71918545
0.71762094
0.715454
0.71337466
0.71118005
0.70890856
0.70655561
0.70412077
0.70160477
0.6990086
0.69633387
0.69358286
0.69075853
0.68786462
0.68490566
0.68188696
0.67881469
0.67569581
0.67253804
0.66934986
0.66614038
0.66291928
0.65969665
0.65648289
0.65328852
0.65012404
0.64699971
0.64392543
0.64091054
0.63796364
0.63509252
0.63230399
0.62960381
0.62699664
0.624486
0.6220743
0.61976283
0.61755188
0.61544076
0.61342794
0.61151111
0.60968734
0.60795315
0.60630462
0.60473749
0.60324728
0.60182936
0.60047897
0.59919133
0.59796162
0.59678504
0.59565682
0.59457214
0.5935262
0.59251427
0.59153162
0.59057339
0.58963474
0.58871097
0.58779779
0.58689181
0.58599162
0.58509981
0.58422652
0.58339119
0.58261613
0.58191658
0.58130167
0.58073099
0.58003266
0.5793554
0.57934873
0.64608785
0.76534789
0.71306581
0.73990802
0.72227487
0.72910727
0.72243634
0.72295516
0.71951811
0.71769378
0.7153718
0.71307384
0.71066945
0.70817751
0.70559766
0.70293015
0.7001765
0.69733876
0.69441974
0.69142308
0.68835326
0.68521569
0.68201671
0.6787636
0.67546454
0.67212861
0.66876569
0.66538636
0.66200179
0.65862356
0.65526351
0.65193353
0.64864535
0.64541036
0.64223934
0.63914235
0.6361285
0.6332058
0.63038109
0.6276599
0.62504645
0.62254362
0.62015297
0.61787487
0.61570848
0.61365199
0.61170265
0.60985693
0.60811069
0.60645928
0.60489766
0.60342057
0.60202255
0.60069812
0.5994418
0.59824815
0.59711185
0.59602767
0.59499056
0.59399556
0.59303782
0.59211256
0.5912152
0.59034118
0.58948593
0.58864496
0.58781402
0.58698937
0.58616836
0.58535038
0.58453892
0.5837445
0.58298544
0.58228204
0.58165053
0.581099
0.58057385
0.57992089
0.5793021
0.57920169
0.64783788
0.7669527
0.71402466
0.74091205
0.7228825
0.72904547
0.72250303
0.72220196
0.7191885
0.71706873
0.71454334
0.71199113
0.70933553
0.70658448
0.70373944
0.70080183
0.69777423
0.69466008
0.6914638
0.6881908
0.68484759
0.68144174
0.67798195
0.67447793
0.67094041
0.667381
0.66381209
0.66024664
0.65669802
0.65317977
0.64970534
0.64628788
0.64293996
0.63967335
0.63649876
0.63342569
0.63046228
0.62761514
0.62488932
0.6222883
0.61981399
0.61746682
0.61524581
0.61314877
0.61117239
0.60931244
0.60756394
0.60592131
0.60437855
0.60292937
0.60156734
0.60028596
0.59907883
0.59793965
0.59686231
0.59584094
0.59486987
0.59394369
0.59305725
0.59220563
0.59138408
0.59058802
0.5898131
0.58905508
0.58830975
0.58757307
0.5868413
0.58611134
0.58538125
0.58465129
0.58392577
0.58321543
0.58253732
0.5819102
0.5813513
0.58086683
0.58039459
0.57979882
0.57922026
0.57904024
0.64925547
0.76802012
0.71447758
0.74124012
0.72279004
0.72853145
0.72199714
0.72131662
0.71808991
0.71562505
0.71284768
0.71000479
0.70705562
0.70400406
0.70085264
0.69760457
0.69426406
0.69083655
0.68732869
0.68374835
0.68010474
0.67640828
0.67267066
0.66890467
0.66512409
0.6613435
0.65757808
0.6538433
0.65015471
0.64652755
0.64297655
0.63951555
0.63615724
0.63291293
0.62979233
0.62680338
0.62395217
0.62124288
0.61867783
0.61625752
0.61398079
0.61184495
0.609846
0.60797882
0.60623738
0.60461497
0.60310438
0.60169808
0.60038837
0.59916758
0.59802812
0.59696259
0.59596389
0.59502521
0.59414013
0.59330255
0.59250674
0.59174735
0.59101934
0.59031799
0.58963883
0.58897761
0.58833035
0.58769321
0.58706246
0.58643455
0.58580634
0.58517539
0.5845405
0.58390276
0.58326724
0.58264469
0.58205088
0.58150354
0.5810206
0.58060558
0.58019127
0.57966025
0.57914233
0.5788486
0.65027701
0.76844442
0.71434592
0.74004704
0.72194585
0.72712722
0.720708
0.71943949
0.7160864
0.71324879
0.71016299
0.70698457
0.70369356
0.70029413
0.69679013
0.69318708
0.68949164
0.68571203
0.68185796
0.67794066
0.67397289
0.6699688
0.66594382
0.66191444
0.65789797
0.65391225
0.6499753
0.64610498
0.64231859
0.63863253
0.63506193
0.63162032
0.62831934
0.62516857
0.62217535
0.61934473
0.61667946
0.61418012
0.61184524
0.60967153
0.60765405
0.60578657
0.60406176
0.60247146
0.60100697
0.59965923
0.59841905
0.59727727
0.59622487
0.59525315
0.59435375
0.59351878
0.59274079
0.59201283
0.59132843
0.59068161
0.59006683
0.58947901
0.58891344
0.58836578
0.58783199
0.58730826
0.58679111
0.58627718
0.58576328
0.58524644
0.58472414
0.5841946
0.58365739
0.58311438
0.58257128
0.58203862
0.58153106
0.58106571
0.58066038
0.58031449
0.57996035
0.57950482
0.57905728
0.57863274
0.65081005
0.76806362
0.71351378
0.73827222
0.72050646
0.72485512
0.71850615
0.71663727
0.71305394
0.70980466
0.70634745
0.70277943
0.69909141
0.69529016
0.69138181
0.68737508
0.68328016
0.6791092
0.67487616
0.6705968
0.66628849
0.66197002
0.65766128
0.65338296
0.64915613
0.64500182
0.64094055
0.63699189
0.63317397
0.62950308
0.62599327
0.62265613
0.6195005
0.61653246
0.61375526
0.6111695
0.60877326
0.60656236
0.6045307
0.60267058
0.60097299
0.59942799
0.59802501
0.59675311
0.59560126
0.59455849
0.59361411
0.59275783
0.59197985
0.59127091
0.59062241
0.59002636
0.58947538
0.58896272
0.58848223
0.5880283
0.58759583
0.58718024
0.58677732
0.58638327
0.58599459
0.58560804
0.58522069
0.58482975
0.58443261
0.58402693
0.58361084
0.58318323
0.58274437
0.58229688
0.58184688
0.58140458
0.58098375
0.58060109
0.58027282
0.57999303
0.5796994
0.57932827
0.57895012
0.57839876
0.65079749
0.76680995
0.71185087
0.73573912
0.71820585
0.72157805
0.71526533
0.71274271
0.70884797
0.70513626
0.70123618
0.697213
0.69306339
0.68879828
0.68442772
0.67996506
0.67542563
0.67082709
0.66618913
0.66153329
0.65688262
0.65226129
0.64769414
0.64320613
0.6388218
0.63456467
0.63045665
0.62651748
0.62276424
0.61921098
0.6158684
0.61274374
0.60984081
0.60716008
0.60469894
0.60245204
0.60041167
0.59856818
0.59691044
0.59542624
0.59410264
0.5929264
0.59188421
0.59096295
0.59014991
0.58943292
0.58880047
0.58824178
0.58774688
0.58730655
0.5869124
0.5865568
0.58623286
0.58593436
0.58565573
0.58539201
0.58513877
0.58489206
0.58464836
0.5844045
0.58415761
0.58390511
0.58364465
0.58337407
0.58309139
0.58279489
0.58248335
0.5821563
0.5818147
0.58146178
0.58110388
0.58075079
0.58041566
0.58011455
0.57986058
0.57964328
0.57941138
0.57912446
0.57880088
0.5781827
0.65022134
0.76458639
0.70928753
0.73214572
0.71491886
0.71719246
0.71083892
0.70761153
0.7032957
0.69905111
0.69462395
0.69006612
0.68537955
0.68058105
0.67568689
0.67071711
0.66569416
0.66064293
0.65559031
0.65056475
0.64559577
0.64071327
0.63594685
0.63132504
0.62687456
0.62261953
0.61858082
0.61477554
0.61121666
0.6079128
0.60486826
0.6020832
0.59955395
0.59727348
0.59523189
0.593417
0.59181488
0.59041038
0.58918764
0.58813051
0.58722291
0.58644912
0.585794
0.58524318
0.58478318
0.58440147
0.5840865
0.58382773
0.5836156
0.5834415
0.58329772
0.58317739
0.58307443
0.58298346
0.58289974
0.58281913
0.58273802
0.58265324
0.58256204
0.58246196
0.58235081
0.5822267
0.58208791
0.58193292
0.58176037
0.58156919
0.58135874
0.58112921
0.58088213
0.58062119
0.58035273
0.58008614
0.57983411
0.57961144
0.57942743
0.57927
0.57910194
0.57889293
0.57860453
0.57798337
0.64902186
0.76122331
0.70576767
0.72739753
0.71048216
0.71152792
0.70502774
0.70102846
0.69616553
0.69129428
0.68624121
0.68105675
0.67575069
0.67034801
0.66487389
0.65935735
0.65382995
0.64832546
0.64287923
0.63752743
0.6323061
0.62725026
0.62239277
0.61776339
0.61338784
0.60928709
0.60547684
0.60196728
0.59876313
0.59586387
0.59326423
0.59095477
0.58892261
0.58715214
0.58562578
0.58432461
0.58322905
0.58231935
0.58157601
0.58098016
0.58051381
0.58016
0.57990296
0.57972817
0.57962236
0.57957349
0.57957077
0.57960452
0.57966619
0.57974822
0.57984396
0.57994764
0.58005421
0.58015935
0.58025932
0.58035093
0.58043147
0.58049864
0.58055047
0.58058526
0.58060154
0.58059808
0.58057382
0.58052785
0.58045943
0.58036809
0.58025376
0.58011719
0.57996041
0.57978734
0.5796042
0.57942001
0.57924692
0.5790979
0.57897877
0.57887913
0.57877523
0.57863571
0.5783772
0.57778562
0.6471446
0.75648585
0.70133053
0.72130811
0.70469283
0.70436284
0.69756571
0.69269954
0.68714189
0.68152748
0.6757386
0.66983124
0.66382667
0.65776061
0.65166986
0.64559482
0.63957823
0.63366424
0.62789734
0.62232094
0.61697601
0.61189966
0.60712389
0.60267454
0.59857069
0.59482426
0.59144018
0.58841667
0.58574602
0.58341536
0.58140766
0.57970272
0.57827813
0.57711012
0.57617436
0.57544661
0.57490321
0.57452148
0.57428004
0.57415893
0.57413979
0.57420584
0.57434191
0.57453439
0.57477113
0.57504141
0.57533578
0.57564601
0.57596493
0.57628638
0.57660506
0.57691646
0.57721677
0.5775028
0.57777192
0.57802193
0.57825106
0.57845787
0.57864119
0.57880009
0.57893376
0.57904166
0.57912333
0.57917845
0.57920686
0.57920862
0.5791842
0.57913481
0.57906285
0.5789723
0.57886916
0.57876208
0.57866243
0.57858105
0.57852158
0.57847752
0.57843505
0.57835596
0.5781292
0.57759552
0.64453253
0.74999316
0.69587194
0.71361687
0.69724576
0.69535454
0.68806855
0.68221469
0.67580432
0.66932081
0.6626883
0.65597239
0.64921018
0.64245169
0.63574876
0.62915609
0.62272925
0.61652295
0.61058897
0.60497421
0.59971888
0.59485515
0.59040621
0.58638587
0.58279881
0.57964113
0.57690139
0.5745618
0.57259958
0.5709883
0.56969915
0.56870207
0.56796669
0.56746319
0.5671628
0.5670383
0.56706431
0.56721743
0.56747634
0.56782181
0.56823662
0.56870547
0.56921487
0.56975303
0.57030966
0.57087589
0.57144411
0.57200784
0.57256157
0.57310073
0.57362149
0.57412071
0.57459586
0.57504493
0.57546637
0.57585899
0.57622192
0.57655456
0.57685649
0.57712749
0.57736744
0.57757637
0.57775442
0.57790179
0.57801885
0.57810613
0.57816454
0.57819567
0.57820212
0.57818782
0.57815851
0.57812236
0.57808961
0.57806911
0.57806406
0.5780728
0.57808689
0.57805923
0.57786725
0.57741317
0.64105471
0.74108162
0.68877981
0.70387557
0.68768742
0.68403068
0.676034
0.66906055
0.66164172
0.65416658
0.64659795
0.63901621
0.63148074
0.6240612
0.61682804
0.60985139
0.6031978
0.59692746
0.59109161
0.58573062
0.58087276
0.5765338
0.5727174
0.56941609
0.56661282
0.56428271
0.56239494
0.56091462
0.55980443
0.55902611
0.55854166
0.55831426
0.55830895
0.5584931
0.55883666
0.55931233
0.55989553
0.56056434
0.56129941
0.56208372
0.56290248
0.56374286
0.56459386
0.56544608
0.56629155
0.5671236
0.56793667
0.56872617
0.56948839
0.57022034
0.57091969
0.57158469
0.57221402
0.57280682
0.57336255
0.57388097
0.57436206
0.57480598
0.57521301
0.57558356
0.57591814
0.57621732
0.57648173
0.57671209
0.57690917
0.57707391
0.57720757
0.57731202
0.57738994
0.57744514
0.57748304
0.57751114
0.57753819
0.57757149
0.57761545
0.57767331
0.577738
0.57775367
0.57760072
0.57724978
0.63642673
0.72971992
0.6796275
0.69152482
0.67544102
0.66983359
0.66086533
0.65262259
0.64404464
0.63547218
0.62691513
0.61847727
0.61024679
0.60231592
0.59477166
0.58769264
0.5811451
0.57518029
0.56983277
0.56512011
0.56104364
0.5575901
0.55473398
0.55244011
0.55066642
0.54936639
0.54849141
0.54799252
0.54782199
0.54793436
0.54828714
0.54884131
0.54956148
0.55041596
0.55137663
0.55241879
0.5535209
0.5546643
0.55583297
0.55701325
0.55819354
0.55936409
0.5605168
0.56164494
0.56274305
0.56380672
0.56483246
0.56581759
0.5667601
0.56765856
0.56851204
0.56932004
0.57008241
0.5707993
0.57147111
0.57209843
0.57268201
0.57322266
0.57372131
0.57417891
0.57459653
0.57497521
0.57531603
0.5756201
0.57588856
0.57612266
0.57632395
0.57649442
0.57663679
0.57675469
0.57685317
0.5769388
0.57701869
0.57709898
0.57718612
0.57728828
0.57739878
0.57745483
0.57734574
0.57709595
0.63028617
0.71696685
0.66785682
0.67598523
0.65979623
0.65204897
0.64180166
0.63212065
0.62226694
0.61256405
0.60308105
0.59395053
0.58528669
0.57719454
0.56976108
0.56305221
0.5571104
0.55195452
0.54758137
0.5439684
0.54107729
0.53885796
0.53725234
0.53619802
0.53563116
0.53548889
0.53571111
0.53624162
0.53702891
0.5380265
0.53919297
0.54049182
0.54189123
0.54336368
0.54488554
0.54643671
0.54800017
0.54956163
0.55110921
0.55263308
0.5541252
0.55557908
0.55698956
0.55835261
0.55966516
0.56092498
0.56213052
0.56328084
0.56437549
0.56541443
0.56639798
0.56732678
0.56820166
0.56902368
0.56979404
0.57051405
0.57118509
0.57180858
0.57238596
0.57291872
0.57340833
0.57385627
0.574264
0.57463293
0.57496451
0.57526023
0.57552183
0.57575138
0.57595154
0.57612573
0.57627854
0.57641555
0.57654227
0.57666388
0.57678854
0.57692866
0.57707999
0.57717704
0.57711647
0.57697226
0.62230975
0.70025194
0.65264579
0.6563775
0.63971952
0.62962669
0.61781829
0.60659585
0.59549497
0.58483347
0.57473611
0.56535144
0.55679471
0.54915237
0.54247685
0.5367874
0.53207263
0.52829517
0.5253973
0.52330696
0.52194336
0.52122196
0.52105843
0.52137168
0.52208583
0.52313153
0.5244465
0.52597566
0.52767091
0.52949073
0.53139955
0.53336721
0.53536831
0.5373816
0.53938949
0.54137748
0.54333375
0.54524876
0.54711491
0.54892626
0.55067822
0.55236741
0.55399141
0.55554863
0.5570382
0.55845978
0.55981355
0.56110007
0.56232023
0.5634752
0.56456636
0.56559527
0.56656362
0.56747323
0.56832595
0.56912371
0.5698684
0.57056195
0.57120627
0.57180324
0.57235474
0.57286257
0.57332849
0.57375418
0.5741413
0.57449157
0.57480683
0.57508919
0.57534117
0.57556595
0.5757676
0.57595078
0.57611979
0.57627911
0.57643734
0.57660838
0.57679112
0.57692845
0.57693297
0.57688923
0.61186326
0.67861899
0.63261493
0.63129294
0.61374458
0.60118594
0.58774531
0.57514183
0.56315858
0.55209009
0.54207598
0.53323564
0.5256338
0.51928856
0.51417437
0.51023026
0.50736873
0.50548501
0.50446543
0.50419444
0.50455985
0.50545651
0.50678856
0.5084705
0.51042739
0.51259452
0.51491668
0.51734726
0.51984727
0.52238437
0.5249319
0.52746814
0.52997548
0.53243979
0.5348499
0.53719705
0.53947454
0.54167736
0.54380189
0.54584572
0.54780734
0.54968609
0.55148193
0.55319536
0.55482733
0.55637913
0.55785235
0.55924879
0.56057045
0.56181947
0.56299809
0.56410865
0.56515351
0.56613509
0.5670558
0.56791803
0.56872414
0.56947644
0.57017723
0.57082876
0.57143319
0.57199262
0.57250903
0.57298432
0.57342033
0.57381892
0.57418202
0.57451173
0.57481043
0.57508099
0.57532694
0.57555209
0.57576007
0.57595528
0.57614622
0.57634442
0.57654655
0.57671089
0.57679082
0.57684171
0.59779899
0.64997369
0.60585399
0.59898263
0.58026294
0.56534816
0.55068475
0.5373879
0.52542035
0.51499691
0.50618901
0.49901339
0.49342004
0.48931021
0.48654979
0.48498433
0.48445166
0.4847919
0.48585446
0.48750234
0.48961427
0.49208515
0.49482548
0.49776011
0.50082669
0.50397399
0.50716034
0.5103521
0.51352239
0.51664988
0.51971788
0.52271348
0.52562686
0.52845076
0.53117995
0.53381088
0.53634137
0.53877034
0.54109757
0.54332358
0.54544945
0.54747672
0.5494073
0.55124338
0.55298735
0.55464179
0.5562094
0.55769298
0.55909539
0.56041952
0.5616683
0.56284466
0.56395149
0.56499167
0.56596805
0.56688341
0.56774045
0.56854183
0.56929016
0.56998798
0.5706377
0.57124164
0.57180196
0.57232074
0.57279995
0.57324157
0.57364757
0.57402003
0.57436118
0.57467359
0.5749602
0.57522408
0.5754684
0.57569778
0.57592043
0.57614507
0.57636569
0.57654921
0.5766765
0.57684607
0.57815669
0.61197558
0.57016895
0.55763976
0.53823247
0.52139605
0.50664522
0.49406241
0.48361351
0.47534118
0.46914831
0.46487622
0.46231517
0.46123277
0.4613929
0.46257071
0.46456166
0.46718613
0.47029059
0.4737466
0.47744848
0.48131054
0.48526404
0.48925446
0.49323895
0.49718421
0.50106461
0.50486071
0.50855804
0.51214603
0.51561727
0.51896684
0.52219176
0.5252906
0.52826317
0.5311102
0.53383318
0.53643416
0.53891564
0.54128045
0.54353166
0.54567253
0.54770644
0.54963687
0.55146732
0.55320135
0.55484249
0.55639429
0.55786024
0.55924383
0.56054847
0.56177754
0.56293434
0.5640221
0.56504399
0.5660031
0.56690241
0.56774487
0.56853335
0.5692706
0.56995926
0.57060181
0.57120056
0.57175772
0.57227538
0.57275559
0.57320038
0.57361175
0.57399183
0.57434286
0.57466723
0.57496738
0.57524609
0.57550774
0.57575931
0.57600695
0.57624575
0.57645537
0.5766323
0.57685461
0.55032844
0.5621208
0.5241681
0.50589881
0.48540458
0.4700436
0.45716005
0.44735051
0.44035093
0.43591993
0.43371333
0.43337015
0.43453521
0.43688448
0.4401355
0.44405095
0.44843678
0.4531377
0.45803149
0.4630233
0.46804045
0.4730279
0.47794449
0.4827599
0.48745223
0.49200607
0.49641102
0.5006605
0.50475085
0.50868064
0.51245014
0.51606086
0.51951526
0.5228165
0.52596825
0.52897452
0.53183956
0.5345678
0.53716372
0.53963188
0.5419768
0.54420301
0.54631495
0.54831704
0.55021358
0.55200883
0.55370692
0.55531193
0.55682783
0.55825849
0.55960771
0.56087917
0.56207647
0.5632031
0.56426247
0.56525791
0.56619263
0.5670698
0.5678925
0.56866368
0.56938614
0.5700625
0.57069519
0.57128653
0.57183868
0.57235378
0.57283384
0.57328088
0.57369687
0.57408377
0.57444348
0.57477791
0.57508945
0.57538183
0.57566021
0.5759284
0.57618371
0.57641748
0.57663449
0.57688285
0.51020891
0.49780728
0.46082899
0.44306444
0.42575873
0.4136457
0.40539556
0.40079615
0.39919701
0.40001595
0.40268793
0.40672926
0.4117406
0.41740595
0.4234818
0.42978462
0.43617848
0.44256431
0.44887101
0.45504852
0.4610624
0.46688978
0.47251627
0.47793373
0.4831385
0.4881302
0.49291079
0.49748386
0.50185416
0.50602719
0.51000894
0.51380571
0.51742393
0.52087008
0.52415057
0.52727178
0.5302399
0.53306102
0.53574103
0.53828568
0.5407005
0.54299088
0.54516203
0.54721898
0.54916659
0.55100959
0.55275255
0.55439988
0.55595587
0.5574247
0.55881038
0.56011683
0.56134784
0.56250709
0.56359819
0.56462461
0.56558977
0.56649702
0.56734961
0.56815064
0.56890304
0.56960954
0.5702727
0.5708949
0.57147837
0.57202527
0.57253765
0.5730175
0.57346668
0.57388689
0.57427961
0.57464627
0.57498877
0.57530994
0.57561308
0.57590033
0.57617122
0.57642476
0.57666706
0.57691795
0.44892949
0.41658181
0.38705508
0.37231665
0.3615523
0.35678565
0.35622442
0.3589559
0.36399466
0.37058592
0.37814815
0.38625975
0.39462243
0.40303068
0.41134599
0.41947736
0.42736704
0.43498026
0.44229806
0.44931222
0.45602177
0.46243055
0.4685455
0.47437551
0.47993061
0.48522142
0.49025877
0.49505348
0.49961612
0.503957
0.50808604
0.51201276
0.51574627
0.51929525
0.52266799
0.52587237
0.52891591
0.53180576
0.53454875
0.53715139
0.53961989
0.54196018
0.54417796
0.54627867
0.54826754
0.55014959
0.55192965
0.55361239
0.5552023
0.55670372
0.55812084
0.55945771
0.56071826
0.56190632
0.5630256
0.56407972
0.56507224
0.56600663
0.56688629
0.56771444
0.56849412
0.56922817
0.56991921
0.57056969
0.57118188
0.57175797
0.5723
0.57280993
0.57328954
0.57374029
0.57416332
0.57455968
0.57493071
0.57527817
0.5756036
0.57590795
0.57619261
0.57646097
0.57671565
0.57694976
0.35383741
0.32053372
0.30302224
0.2985772
0.29995386
0.30618182
0.31529317
0.32603014
0.33752453
0.34922863
0.36080906
0.37207129
0.38290856
0.39326843
0.4031316
0.41249866
0.42138175
0.42979942
0.43777344
0.44532685
0.45248276
0.45926367
0.46569108
0.47178531
0.47756541
0.48304916
0.48825311
0.49319264
0.49788206
0.50233467
0.50656283
0.51057806
0.51439113
0.51801207
0.5214503
0.52471463
0.52781337
0.53075433
0.53354489
0.53619201
0.5387023
0.54108205
0.54333721
0.54547349
0.54749633
0.54941093
0.55122229
0.5529352
0.55455429
0.556084
0.55752863
0.55889231
0.56017907
0.5613928
0.56253732
0.56361633
0.56463348
0.56559234
0.56649641
0.56734898
0.56815319
0.56891195
0.56962795
0.57030368
0.57094146
0.57154344
0.57211169
0.5726481
0.57315436
0.57363175
0.57408119
0.57450342
0.57489928
0.57526948
0.5756141
0.57593315
0.57622922
0.57650757
0.57676562
0.57697622
0.21549901
0.21422833
0.21958642
0.23291182
0.25011734
0.26839223
0.28653941
0.30391287
0.32028537
0.33559374
0.34986338
0.36315462
0.37554105
0.38709773
0.3978962
0.40800229
0.41747554
0.42636927
0.43473108
0.44260335
0.45002385
0.45702631
0.46364087
0.46989458
0.47581174
0.48141429
0.48672208
0.49175313
0.49652388
0.50104931
0.50534319
0.50941817
0.51328593
0.51695728
0.52044226
0.5237502
0.52688984
0.52986935
0.53269639
0.53537821
0.53792162
0.54033307
0.54261869
0.54478431
0.54683547
0.54877749
0.55061543
0.55235419
0.55399843
0.55555267
0.55702125
0.55840837
0.55971809
0.56095436
0.56212103
0.56322188
0.5642606
0.56524082
0.56616609
0.56703979
0.56786511
0.56864505
0.56938235
0.57007955
0.57073899
0.57136285
0.57195317
0.57251183
0.57304041
0.57354008
0.57401162
0.57445557
0.57487236
0.57526189
0.57562308
0.57595515
0.57626099
0.57654637
0.57680457
0.57699527
0.091492873
0.12123837
0.15846711
0.19193332
0.2218967
0.24826842
0.2716663
0.29255438
0.3113471
0.3283693
0.34388283
0.35809741
0.37118329
0.38327979
0.39450212
0.4049465
0.41469394
0.42381324
0.43236331
0.44039491
0.44795209
0.45507331
0.46179238
0.46813913
0.47414007
0.47981884
0.48519664
0.49029256
0.49512386
0.49970624
0.50405398
0.50818019
0.51209688
0.51581515
0.51934527
0.52269675
0.52587848
0.52889873
0.53176529
0.53448545
0.53706609
0.53951372
0.5418345
0.54403427
0.54611863
0.54809289
0.54996215
0.5517313
0.55340504
0.55498791
0.55648424
0.55789828
0.55923409
0.56049566
0.56168687
0.56281155
0.56387343
0.56487623
0.56582356
0.5667189
0.56756554
0.56836657
0.56912482
0.5698429
0.57052323
0.57116801
0.57177933
0.57235905
0.57290874
0.57342946
0.57392184
0.57438624
0.57482278
0.57523079
0.57560839
0.57595408
0.57627046
0.57656298
0.57682299
0.57700451
0.010873599
0.29600479
0.47042974
0.51844384
0.52828365
0.52886843
0.52855969
0.52968383
0.53115643
0.53263289
0.53410771
0.53554169
0.53695804
0.53835517
0.53975114
0.54115429
0.54256525
0.54398456
0.54541205
0.54684672
0.54828707
0.54973127
0.5511773
0.55262301
0.55406621
0.55550465
0.55693613
0.55835848
0.55976956
0.5611673
0.56254965
0.56391465
0.56526033
0.56658477
0.56788609
0.56916241
0.57041185
0.57163255
0.57282265
0.57398026
0.57510349
0.57619043
0.57723918
0.57824779
0.57921432
0.58013684
0.58101341
0.58184212
0.58262109
0.58334849
0.58402257
0.58464168
0.5852043
0.58570906
0.5861548
0.58654061
0.58686583
0.58713007
0.58733328
0.58747539
0.58755621
0.58757583
0.58753438
0.58743235
0.58726785
0.58704343
0.58674889
0.58640259
0.58595859
0.58550432
0.58485612
0.5843405
0.58333678
0.58284637
0.58119369
0.58095454
0.57876083
0.57944249
0.57745738
0.57934931
0.064162605
0.38373331
0.52085568
0.54593093
0.54688442
0.54512469
0.54426994
0.54440115
0.5445965
0.544897
0.54528172
0.54583352
0.54650462
0.5472678
0.54809351
0.54897823
0.54991507
0.55089978
0.55192701
0.55299151
0.5540885
0.55521347
0.55636219
0.55753064
0.55871499
0.5599116
0.56111699
0.56232782
0.56354087
0.56475307
0.56596143
0.56716306
0.56835518
0.56953505
0.57070002
0.5718475
0.57297495
0.57407988
0.57515982
0.57621236
0.57723509
0.57822565
0.5791817
0.58010093
0.58098105
0.58181982
0.58261504
0.58336458
0.58406637
0.58471843
0.58531888
0.58586601
0.58635824
0.5867942
0.58717274
0.58749296
0.58775429
0.58795642
0.58809935
0.58818308
0.58820745
0.58817261
0.58807875
0.58792626
0.58771359
0.58744264
0.58710489
0.58671573
0.58623516
0.58573953
0.58506447
0.5845069
0.58348736
0.58294943
0.58129531
0.5810413
0.57884046
0.57960142
0.57750037
0.5795063
0.14946917
0.46475218
0.54047116
0.55326405
0.55200829
0.55110249
0.55107666
0.5516309
0.55204072
0.55256224
0.55306244
0.55362597
0.55420949
0.55483491
0.55549399
0.55619109
0.55692194
0.55768709
0.55848494
0.5593137
0.56017153
0.56105642
0.56196624
0.56289868
0.56385132
0.56482166
0.56580707
0.56680486
0.5678123
0.5688266
0.56984491
0.5708644
0.57188221
0.57289544
0.57390125
0.57489675
0.57587909
0.57684544
0.57779296
0.57871887
0.57962037
0.58049473
0.58133924
0.58215124
0.5829281
0.5836673
0.58436634
0.58502283
0.58563449
0.58619914
0.58671478
0.58717955
0.5875918
0.58795011
0.58825329
0.58850045
0.58869105
0.58882481
0.58890176
0.58892193
0.58888518
0.58879169
0.58864167
0.58843546
0.58817169
0.58785192
0.58746872
0.58703554
0.5865162
0.58597993
0.58527406
0.58467725
0.58363663
0.58305629
0.58139496
0.58113134
0.57892202
0.5797517
0.57755183
0.57965924
0.23237448
0.51196009
0.55398626
0.56159592
0.55900466
0.5592438
0.55928883
0.55988871
0.56015742
0.56061186
0.56098524
0.56144117
0.56189869
0.56238858
0.56289599
0.56342844
0.56398311
0.56456245
0.5651662
0.56579424
0.56644623
0.56712162
0.56781964
0.56853928
0.5692793
0.57003826
0.57081452
0.57160624
0.57241141
0.57322785
0.57405326
0.57488518
0.57572105
0.5765582
0.57739388
0.57822526
0.57904948
0.57986359
0.58066464
0.58144965
0.58221564
0.58295964
0.58367867
0.58436984
0.58503027
0.58565717
0.58624782
0.58679962
0.58731007
0.58777684
0.58819776
0.58857089
0.58889447
0.58916703
0.58938736