/*--------------------------------*- C++ -*----------------------------------*\
  =========                 |
  \\      /  F ield         | OpenFOAM: The Open Source CFD Toolbox
   \\    /   O peration     | Website:  https://openfoam.org
    \\  /    A nd           | Version:  12
     \\/     M anipulation  |
\*---------------------------------------------------------------------------*/
FoamFile
{
    format      ascii;
    class       volScalarField;
    location    "0.077";
    object      nut;
}
// * * * * * * * * * * * * * * * * * * * * * * * * * * * * * * * * * * * * * //

dimensions      [0 2 -1 0 0 0 0];

internalField   nonuniform List<scalar> 
16000
(
4.6755075e-07
9.8352166e-06
1.9069002e-05
2.3897967e-05
1.8336574e-05
2.5143714e-05
1.778398e-05
2.4332679e-05
1.9010194e-05
2.6124485e-05
2.2045685e-05
2.5842211e-05
2.3586461e-05
2.4195429e-05
2.3384803e-05
2.3247897e-05
2.3005503e-05
2.2938454e-05
2.294931e-05
2.3057549e-05
2.3256139e-05
2.3543954e-05
2.3918595e-05
2.4380104e-05
2.4930572e-05
2.5575844e-05
2.6323839e-05
2.7187163e-05
2.8181145e-05
2.9322227e-05
3.0628475e-05
3.2123946e-05
3.3839704e-05
3.5814022e-05
3.8093952e-05
4.0735573e-05
4.3805624e-05
4.7383652e-05
5.1568105e-05
5.6480841e-05
6.2264659e-05
6.9087668e-05
7.7161721e-05
8.6745867e-05
9.8147767e-05
0.00011173594
0.00012796664
0.00014739464
0.00017069394
0.00019868412
0.00023236588
0.00027296347
0.00032196925
0.00038120602
0.00045289948
0.00053977796
0.00064519764
0.00077330387
0.00092924358
0.0010188603
0.0010187226
0.0010185552
0.0010183828
0.0010181781
0.0010179469
0.0010176807
0.0010173648
0.0010169756
0.0010164739
0.0010157894
0.001014795
0.0010132826
0.0010110232
0.0010082007
0.001005759
0.0010040053
0.0010027723
0.0010028139
0.0010007201
0.0010020133
4.2815005e-07
9.3522268e-06
1.9785875e-05
2.1438874e-05
1.6566679e-05
2.2596767e-05
1.5812701e-05
2.1351647e-05
1.6818609e-05
2.3107077e-05
1.9978602e-05
2.3321619e-05
2.1587349e-05
2.1943762e-05
2.1310724e-05
2.112441e-05
2.0922483e-05
2.0851324e-05
2.08635e-05
2.0962212e-05
2.1145461e-05
2.1411797e-05
2.1759403e-05
2.2188413e-05
2.2700449e-05
2.3300958e-05
2.3996797e-05
2.4799321e-05
2.5723039e-05
2.6783986e-05
2.7998959e-05
2.938992e-05
3.0985598e-05
3.282141e-05
3.494135e-05
3.7398121e-05
4.0254847e-05
4.3586198e-05
4.7483782e-05
5.2062899e-05
5.7460671e-05
6.3835183e-05
7.138577e-05
8.0359283e-05
9.1050963e-05
0.00010381065
0.000119073
0.00013736839
0.00015934266
0.00018578172
0.00021764556
0.0002561117
0.00030261716
0.00035892023
0.00042716977
0.00051000216
0.00061066313
0.00073315639
0.00088243749
0.0010181872
0.0010180761
0.0010178865
0.0010176976
0.0010174741
0.0010172212
0.0010169297
0.0010165838
0.0010161588
0.0010156146
0.0010148807
0.0010138335
0.0010122713
0.0010099987
0.0010073659
0.0010051327
0.0010034838
0.0010025185
0.0010022638
0.001000492
0.0010013975
3.834776e-07
8.9889104e-06
1.8733565e-05
1.9687371e-05
1.486937e-05
1.9928355e-05
1.4101857e-05
1.8583256e-05
1.5144764e-05
2.0301543e-05
1.8236474e-05
2.078998e-05
1.9572729e-05
1.9671163e-05
1.918344e-05
1.8976382e-05
1.8806227e-05
1.8740548e-05
1.8755967e-05
1.8849545e-05
1.9020647e-05
1.926818e-05
1.9590603e-05
1.9988297e-05
2.0462523e-05
2.1018521e-05
2.1662412e-05
2.2404483e-05
2.3258269e-05
2.4239415e-05
2.536387e-05
2.6651944e-05
2.8130439e-05
2.9832316e-05
3.1798866e-05
3.4079702e-05
3.6734777e-05
3.9834971e-05
4.3466175e-05
4.773718e-05
5.278053e-05
5.8746646e-05
6.5824162e-05
7.4248593e-05
8.4305376e-05
9.632931e-05
0.00011073708
0.00012803884
0.00014885723
0.00017395107
0.00020424685
0.0002408837
0.00028525305
0.00033906056
0.00040439272
0.00048381108
0.00058047133
0.0006982686
0.0008420171
0.0010175543
0.0010174718
0.0010172564
0.0010170444
0.0010167964
0.0010165161
0.0010161939
0.001015813
0.0010153475
0.0010147553
0.0010139645
0.0010128569
0.0010112439
0.0010089487
0.0010065167
0.0010044837
0.0010030016
0.0010022174
0.0010018001
0.0010003773
0.0010010764
3.4024135e-07
8.7067713e-06
1.7807926e-05
1.8519938e-05
1.3398726e-05
1.7621238e-05
1.2583116e-05
1.6261834e-05
1.3648213e-05
1.7916115e-05
1.6659705e-05
1.8543056e-05
1.7707909e-05
1.7619564e-05
1.7240525e-05
1.7033396e-05
1.6891498e-05
1.6836435e-05
1.6857866e-05
1.6949798e-05
1.711222e-05
1.7344488e-05
1.7645385e-05
1.8015671e-05
1.8456393e-05
1.8972734e-05
1.9570339e-05
2.0258655e-05
2.1050296e-05
2.1960589e-05
2.3004933e-05
2.4202237e-05
2.5577742e-05
2.7162301e-05
2.8994931e-05
3.1122586e-05
3.3602494e-05
3.6502587e-05
3.990423e-05
4.391016e-05
4.8649436e-05
5.4266697e-05
6.0941988e-05
6.8900764e-05
7.8421436e-05
8.9827276e-05
0.00010352082
0.0001199966
0.00013985947
0.0001638484
0.00019286437
0.00022801837
0.00027066848
0.00032248301
0.00038550506
0.00046224436
0.00055579435
0.00066997732
0.00080951946
0.00098026468
0.0010169099
0.0010166651
0.0010164245
0.0010161471
0.0010158346
0.0010154772
0.0010150577
0.001014549
0.0010139071
0.0010130581
0.0010118898
0.0010102413
0.0010079545
0.0010057201
0.0010038751
0.0010025493
0.0010019071
0.0010013882
0.0010002751
0.0010008042
3.1089804e-07
8.502429e-06
1.7021907e-05
1.8513549e-05
1.360088e-05
1.5604951e-05
1.1248093e-05
1.4264046e-05
1.2358287e-05
1.5857215e-05
1.5254567e-05
1.6515474e-05
1.5966655e-05
1.5752658e-05
1.5454294e-05
1.5260795e-05
1.514219e-05
1.5098095e-05
1.5124137e-05
1.5213628e-05
1.5366826e-05
1.5583721e-05
1.5863469e-05
1.6207312e-05
1.6616216e-05
1.7095386e-05
1.7650116e-05
1.8289195e-05
1.9024311e-05
1.9870431e-05
2.0842593e-05
2.1958544e-05
2.3242235e-05
2.4722706e-05
2.6437021e-05
2.8429829e-05
3.0755932e-05
3.3480894e-05
3.6682701e-05
4.0458337e-05
4.4933952e-05
5.0249882e-05
5.6579488e-05
6.4138804e-05
7.3200993e-05
8.408044e-05
9.7168087e-05
0.00011294577
0.00013200369
0.00015506542
0.00018301109
0.00021692937
0.00025815156
0.00030831648
0.00036943324
0.00044397085
0.00053497401
0.00064620817
0.00078233218
0.00094909866
0.0010163887
0.0010161119
0.0010158376
0.0010155263
0.0010151774
0.0010147808
0.0010143192
0.0010137644
0.001013071
0.0010121628
0.0010109306
0.0010092504
0.0010070132
0.0010049706
0.0010033051
0.0010021395
0.0010015965
0.0010010504
0.001000224
0.0010006043
2.8621974e-07
8.3791432e-06
1.6397335e-05
1.8205115e-05
1.3284538e-05
1.383568e-05
1.0826942e-05
1.2612742e-05
1.1823428e-05
1.4143256e-05
1.4026958e-05
1.4736248e-05
1.4377704e-05
1.4089222e-05
1.3841081e-05
1.366267e-05
1.3558778e-05
1.3521287e-05
1.354823e-05
1.3633083e-05
1.3776089e-05
1.3977766e-05
1.4237484e-05
1.4556832e-05
1.4936811e-05
1.5382604e-05
1.5899185e-05
1.6494857e-05
1.71804e-05
1.7970386e-05
1.8879667e-05
1.9925055e-05
2.1129486e-05
2.2520499e-05
2.4133563e-05
2.6011425e-05
2.8206844e-05
3.0783514e-05
3.3817282e-05
3.7400171e-05
4.1655685e-05
4.6721397e-05
5.2766393e-05
5.9998188e-05
6.8686613e-05
7.9140209e-05
9.1741322e-05
0.00010696274
0.00012538372
0.0001477181
0.00017483107
0.00020779655
0.00024792786
0.0002968447
0.00035653511
0.00042944278
0.00051858224
0.00062768484
0.00076137364
0.00092535978
0.0010159038
0.0010155918
0.0010152794
0.0010149302
0.0010145414
0.0010141024
0.0010135957
0.0010129925
0.0010122462
0.00101128
0.0010099838
0.0010082666
0.0010061347
0.0010042779
0.001002784
0.0010017668
0.0010013001
0.0010007907
0.0010001861
0.0010004423
2.5657507e-07
8.311093e-06
1.5904025e-05
1.716168e-05
1.3187153e-05
1.2227459e-05
1.0781945e-05
1.1686605e-05
1.1040718e-05
1.2604396e-05
1.291996e-05
1.31612e-05
1.2899621e-05
1.2579109e-05
1.2359277e-05
1.2196346e-05
1.2103606e-05
1.207189e-05
1.2099728e-05
1.2181075e-05
1.2315824e-05
1.2504948e-05
1.274785e-05
1.2969934e-05
1.3316033e-05
1.3725247e-05
1.4201886e-05
1.4753482e-05
1.5389759e-05
1.6124558e-05
1.6972516e-05
1.7949542e-05
1.9077637e-05
2.0382906e-05
2.1899342e-05
2.3667948e-05
2.5739562e-05
2.817604e-05
3.1051853e-05
3.4714918e-05
3.8791831e-05
4.3655737e-05
4.9473896e-05
5.6446516e-05
6.484116e-05
7.496348e-05
8.7190104e-05
0.00010198808
0.00011992888
0.00014172188
0.00016822264
0.00020049716
0.00023984861
0.0002878866
0.00034658934
0.00041838884
0.00050628595
0.00061399762
0.00074613612
0.00090840574
0.0010154514
0.0010151017
0.0010147472
0.0010143566
0.0010139251
0.0010134409
0.0010128868
0.0010122334
0.001011433
0.001010411
0.0010090575
0.0010072905
0.0010053266
0.0010036487
0.001002318
0.0010014249
0.0010010201
0.001000609
0.0010002436
0.0010003161
2.3251103e-07
8.2734782e-06
1.5475907e-05
1.5579341e-05
1.1894852e-05
1.065951e-05
9.1835914e-06
1.0375728e-05
9.6145314e-06
1.1346208e-05
1.1794992e-05
1.1707036e-05
1.1483476e-05
1.1172459e-05
1.0976759e-05
1.0834357e-05
1.0755674e-05
1.0732954e-05
1.0699845e-05
1.0765145e-05
1.0883748e-05
1.105575e-05
1.127905e-05
1.155381e-05
1.1884166e-05
1.2273223e-05
1.2725523e-05
1.3248545e-05
1.3851466e-05
1.4547709e-05
1.5352116e-05
1.6280115e-05
1.7353261e-05
1.8596747e-05
2.0043697e-05
2.1734007e-05
2.371735e-05
2.6054439e-05
2.881926e-05
3.21018e-05
3.6011621e-05
4.0687324e-05
4.6296208e-05
5.3479791e-05
6.1661186e-05
7.1547474e-05
8.351278e-05
9.8021632e-05
0.00011564099
0.0001370814
0.00016319438
0.00019504511
0.00023393503
0.00028147321
0.00033963997
0.00041087041
0.00049816952
0.0006052612
0.00073677289
0.00089843801
0.0010150268
0.0010146371
0.0010142372
0.0010138022
0.0010133253
0.001012794
0.0010121907
0.0010114861
0.0010106311
0.001009555
0.00100816
0.0010063609
0.0010045926
0.0010030868
0.0010019089
0.0010011288
0.0010007713
0.0010005008
0.0010004161
0.0010002632
2.1437994e-07
8.2343447e-06
1.5013768e-05
1.3643395e-05
9.7850121e-06
9.4784223e-06
7.5864641e-06
8.8527007e-06
9.0341658e-06
1.0190669e-05
1.0654823e-05
1.0352576e-05
1.0147482e-05
9.8691891e-06
9.6981189e-06
9.5117728e-06
9.4241387e-06
9.3972375e-06
9.4241617e-06
9.5016955e-06
9.6254053e-06
9.7977429e-06
1.0016968e-05
1.0283338e-05
1.0601018e-05
1.097396e-05
1.140677e-05
1.1906959e-05
1.2483335e-05
1.314888e-05
1.3918731e-05
1.4808061e-05
1.5838261e-05
1.7033887e-05
1.8427522e-05
2.0058392e-05
2.1975464e-05
2.4238825e-05
2.6921828e-05
3.0113637e-05
3.3924125e-05
3.8489829e-05
4.3980754e-05
5.0593684e-05
5.8580645e-05
6.8254571e-05
8.069688e-05
9.5049698e-05
0.00011250517
0.00013378039
0.00015972873
0.00019142167
0.00023016732
0.00027758399
0.00033566621
0.00040686745
0.00049421505
0.00060146148
0.00073327466
0.00089545111
0.0010146247
0.0010141931
0.0010137454
0.0010132634
0.001012739
0.001012159
0.0010115056
0.0010107496
0.0010098411
0.0010087115
0.0010072905
0.0010055259
0.0010039351
0.0010025937
0.0010015572
0.0010008888
0.0010005371
0.001000429
0.0010005379
0.0010003017
1.9687232e-07
8.1935954e-06
1.3494369e-05
1.1903653e-05
7.9184422e-06
8.4228408e-06
6.7761321e-06
7.9830788e-06
8.3574337e-06
9.1123875e-06
9.5271619e-06
9.1180778e-06
8.9188696e-06
8.5944636e-06
8.414507e-06
8.2982984e-06
8.2432325e-06
8.2405342e-06
8.2838319e-06
8.3728222e-06
8.5027904e-06
8.6753489e-06
8.8916798e-06
9.1518027e-06
9.4601057e-06
9.8209416e-06
1.0239069e-05
1.0722157e-05
1.1278778e-05
1.1921497e-05
1.2665797e-05
1.3526897e-05
1.4526239e-05
1.5688014e-05
1.7044577e-05
1.8634873e-05
2.0507593e-05
2.272271e-05
2.5353854e-05
2.8490557e-05
3.2242732e-05
3.674646e-05
4.2174824e-05
4.872461e-05
5.665003e-05
6.6265974e-05
7.7959785e-05
9.2184808e-05
0.00011051645
0.00013181536
0.00015782478
0.00018962941
0.00022855305
0.00027623348
0.00033469229
0.00040641729
0.00049447757
0.0006026772
0.00073575059
0.00089958996
0.0010142398
0.0010137647
0.0010132677
0.0010127367
0.001012163
0.0010115335
0.0010108294
0.0010100224
0.0010090639
0.0010078835
0.0010064356
0.0010047765
0.0010033555
0.0010021694
0.0010012608
0.0010006978
0.0010003402
0.0010003754
0.0010006305
0.0010004356
1.8157864e-07
8.1485968e-06
1.0726244e-05
9.8430505e-06
6.5169588e-06
7.4941168e-06
6.1746857e-06
7.1677342e-06
7.8134657e-06
8.1319582e-06
8.4204009e-06
7.9085177e-06
7.662651e-06
7.4357622e-06
7.3016205e-06
7.2231669e-06
7.1956512e-06
7.2140299e-06
7.2727659e-06
7.3706941e-06
7.506215e-06
7.6808171e-06
7.8961694e-06
8.1527943e-06
8.4551702e-06
8.8080814e-06
9.2165515e-06
9.6884586e-06
1.0232333e-05
1.0860391e-05
1.1529198e-05
1.236281e-05
1.3332685e-05
1.4462618e-05
1.5784729e-05
1.7337714e-05
1.9170051e-05
2.1341648e-05
2.3926522e-05
2.7014849e-05
3.0717585e-05
3.5447925e-05
4.0869711e-05
4.7423776e-05
5.5366613e-05
6.5016243e-05
7.6770936e-05
9.1094617e-05
0.00010857137
0.00012992769
0.00015747931
0.00018966914
0.00022909862
0.00027743575
0.0003367426
0.00040955848
0.00049901452
0.00060899098
0.00074431624
0.00091100939
0.0010138664
0.0010133465
0.0010127998
0.0010122187
0.0010115946
0.001010915
0.0010101608
0.0010093034
0.0010082986
0.0010070784
0.0010055959
0.0010041119
0.0010028523
0.0010018143
0.0010010212
0.0010005782
0.0010002071
0.0010003196
0.0010006317
0.001000574
1.6807376e-07
8.1025678e-06
8.4725127e-06
8.4008182e-06
5.7405506e-06
6.6342972e-06
5.6653848e-06
6.4545864e-06
7.2576955e-06
7.2161357e-06
7.2209919e-06
6.7860762e-06
6.5845142e-06
6.4168325e-06
6.3216646e-06
6.2747097e-06
6.2713232e-06
6.3073598e-06
6.3793498e-06
6.4870378e-06
6.6289945e-06
6.8070421e-06
7.0236626e-06
7.2798412e-06
7.58014e-06
7.8957508e-06
8.2928556e-06
8.7527082e-06
9.2837017e-06
9.8976154e-06
1.0608637e-05
1.1435221e-05
1.2398157e-05
1.3521313e-05
1.4837121e-05
1.6384688e-05
1.8213096e-05
2.0383055e-05
2.2970084e-05
2.606628e-05
2.9785247e-05
3.4268805e-05
3.96905e-05
4.625812e-05
5.4232406e-05
6.4492848e-05
7.6420369e-05
9.097456e-05
0.00010874977
0.00013049507
0.00015712297
0.00019154254
0.00023181316
0.00028120987
0.00034184928
0.00041634046
0.00050789835
0.00062050583
0.00075911557
0.00092990314
0.0010134993
0.0010129334
0.0010123374
0.0010117063
0.0010110316
0.0010103017
0.0010094984
0.0010085922
0.0010075429
0.0010063026
0.0010048349
0.0010035293
0.0010024235
0.0010015272
0.0010008417
0.0010004375
0.0010001147
0.0010002473
0.0010005335
0.0010006142
1.5597485e-07
8.045217e-06
6.7451091e-06
7.3669479e-06
5.1125049e-06
5.8650864e-06
5.2267075e-06
5.8221514e-06
6.5967455e-06
6.1777458e-06
6.1379782e-06
5.8030782e-06
5.6424306e-06
5.5226005e-06
5.4608115e-06
5.4409221e-06
5.4586422e-06
5.5114636e-06
5.5964958e-06
5.7141838e-06
5.8638861e-06
6.047522e-06
6.2416702e-06
6.4948861e-06
6.791829e-06
7.1366878e-06
7.5365212e-06
7.9988857e-06
8.5323918e-06
9.1490207e-06
9.8631115e-06
1.0692902e-05
1.1660426e-05
1.278992e-05
1.4114368e-05
1.567365e-05
1.7517975e-05
1.9709351e-05
2.2325482e-05
2.5461392e-05
2.9233512e-05
3.3786812e-05
3.930374e-05
4.5997263e-05
5.4136218e-05
6.4054592e-05
7.6166651e-05
9.0972053e-05
0.00011004558
0.00013237149
0.0001597307
0.00019328506
0.00023670046
0.00028757024
0.00035004011
0.00042680866
0.00052119799
0.00063732158
0.00078029144
0.00095646994
0.0010131339
0.0010125208
0.0010118762
0.0010111963
0.0010104719
0.0010096925
0.0010088418
0.0010078906
0.0010067986
0.0010055449
0.0010041746
0.0010030284
0.0010020673
0.0010012913
0.0010007099
0.0010003401
0.0010000763
0.0010001637
0.0010003925
0.0010004812
1.4517755e-07
7.9731525e-06
5.4096609e-06
6.4303015e-06
4.5515456e-06
5.1795252e-06
4.8511734e-06
5.1773523e-06
5.76816e-06
5.2749576e-06
5.1869959e-06
4.9420509e-06
4.8199724e-06
4.7400598e-06
4.7078547e-06
4.7123345e-06
4.7497855e-06
4.8187313e-06
4.9171158e-06
5.0270549e-06
5.1802817e-06
5.3672893e-06
5.5903483e-06
5.8524331e-06
6.1578247e-06
6.5110951e-06
6.9192316e-06
7.3904217e-06
7.9335033e-06
8.5606217e-06
9.2862422e-06
1.0128833e-05
1.10607e-05
1.2197317e-05
1.3531103e-05
1.5102678e-05
1.6963581e-05
1.9177172e-05
2.1823389e-05
2.5000689e-05
2.8829345e-05
3.3712661e-05
3.9376763e-05
4.6259145e-05
5.4637848e-05
6.4856377e-05
7.7348917e-05
9.2637351e-05
0.00011135944
0.00013553783
0.00016386251
0.00019862109
0.0002412921
0.00029651812
0.00036132892
0.00044099254
0.00053896463
0.00065951785
0.00080796381
0.00099088901
0.0010127661
0.0010121048
0.001011413
0.0010106857
0.0010099137
0.0010090867
0.0010081906
0.0010072001
0.0010060757
0.0010048002
0.0010036043
0.001002607
0.0010017832
0.0010011203
0.0010006275
0.0010002823
0.0010001005
0.0010000902
0.0010002385
0.0010002718
1.3554483e-07
7.8478112e-06
4.3884958e-06
5.5956027e-06
4.0499313e-06
4.568635e-06
4.5212709e-06
4.4777225e-06
4.9330363e-06
4.4692068e-06
4.362084e-06
4.1910903e-06
4.1057171e-06
4.0602797e-06
4.0549508e-06
4.0819521e-06
4.1382777e-06
4.2065903e-06
4.3133943e-06
4.4503178e-06
4.618228e-06
4.8186637e-06
5.0545879e-06
5.3291853e-06
5.6473059e-06
6.0137891e-06
6.4356926e-06
6.9008759e-06
7.4542472e-06
8.0923837e-06
8.8297973e-06
9.6849772e-06
1.0680525e-05
1.1844832e-05
1.3211762e-05
1.4823258e-05
1.6733182e-05
1.9007264e-05
2.1728601e-05
2.5000632e-05
2.8949147e-05
3.3732557e-05
3.9542269e-05
4.6613872e-05
5.5237344e-05
6.6321268e-05
7.9302412e-05
9.5201902e-05
0.0001146891
0.0001385878
0.00016948807
0.00020573359
0.00025025147
0.00030493864
0.00037569983
0.00045888723
0.00056120905
0.00068712672
0.00084219411
0.0010130921
0.0010123926
0.0010116834
0.0010109454
0.0010101726
0.0010093559
0.0010084849
0.0010075461
0.0010065198
0.0010053854
0.0010041526
0.0010031178
0.0010022575
0.0010015585
0.0010010015
0.0010005779
0.0010002695
0.0010000765
0.0010000419
0.0010001502
0.0010001665
1.2699431e-07
7.5320156e-06
3.6799827e-06
4.85424e-06
3.6026866e-06
4.0267754e-06
4.0069227e-06
3.8446466e-06
4.1289678e-06
3.7563371e-06
3.6545927e-06
3.5424935e-06
3.4915541e-06
3.4765275e-06
3.4957791e-06
3.5308952e-06
3.5992581e-06
3.6966773e-06
3.8223711e-06
3.9766042e-06
4.1608772e-06
4.3772542e-06
4.6291224e-06
4.9199572e-06
5.2431059e-06
5.6235511e-06
6.0598834e-06
6.5602699e-06
7.1349749e-06
7.7962234e-06
8.5589061e-06
9.4422636e-06
1.0469827e-05
1.1671075e-05
1.3082211e-05
1.4746732e-05
1.6721392e-05
1.9075036e-05
2.1894203e-05
2.5288527e-05
2.9388884e-05
3.4361744e-05
4.0411102e-05
4.7783232e-05
5.678468e-05
6.779111e-05
8.1985909e-05
9.8625007e-05
0.00011902898
0.00014407268
0.00017480695
0.00021456723
0.00026127078
0.00031866607
0.00038920422
0.00048042828
0.00058787166
0.00072009789
0.00088294042
0.001012744
0.0010120104
0.0010112557
0.0010104733
0.001009657
0.0010087984
0.0010078878
0.0010069124
0.0010058543
0.0010047119
0.001003607
0.0010027094
0.001001971
0.0010013726
0.0010009044
0.0010005417
0.0010002704
0.0010000816
0.0010000017
0.0010000557
0.0010000885
1.195992e-07
7.1187576e-06
3.2312403e-06
4.1963336e-06
3.2041043e-06
3.3967642e-06
3.5512437e-06
3.2647626e-06
3.4022311e-06
3.1367757e-06
3.0555079e-06
2.9898839e-06
2.9702166e-06
2.9823197e-06
3.0091223e-06
3.0727639e-06
3.1642549e-06
3.2824277e-06
3.4274154e-06
3.600217e-06
3.8028803e-06
4.0377533e-06
4.3003486e-06
4.608026e-06
4.960008e-06
5.3620277e-06
5.8209761e-06
6.3453101e-06
6.945502e-06
7.6345494e-06
8.4278166e-06
9.3453632e-06
1.0411792e-05
1.1658062e-05
1.3066339e-05
1.4780984e-05
1.6816989e-05
1.924684e-05
2.2294305e-05
2.5836535e-05
3.0120478e-05
3.5320665e-05
4.1654867e-05
4.9382811e-05
5.8826958e-05
7.0386063e-05
8.4548661e-05
0.00010191333
0.00012431487
0.00015068083
0.00018305442
0.00022281775
0.00027424352
0.00033474963
0.00040912725
0.00050546151
0.00061878484
0.00075825511
0.00093001406
0.0010123879
0.0010116188
0.0010108224
0.0010099986
0.0010091411
0.001008243
0.0010072964
0.0010062914
0.0010052179
0.0010040911
0.001003147
0.0010023704
0.0010017407
0.0010012336
0.0010008351
0.0010005267
0.0010002866
0.0010000984
0.00099998351
0.00099998707
0.0010000341
1.1362474e-07
6.2089893e-06
2.8471671e-06
3.5987777e-06
2.8581758e-06
2.8160189e-06
3.0980463e-06
2.7399504e-06
2.7786098e-06
2.6074192e-06
2.5535318e-06
2.5255071e-06
2.5265196e-06
2.5561074e-06
2.6170205e-06
2.7052137e-06
2.8188373e-06
2.9577498e-06
3.1228399e-06
3.3155504e-06
3.5331821e-06
3.786766e-06
4.0764511e-06
4.4063295e-06
4.781288e-06
5.2072514e-06
5.6914227e-06
6.2425843e-06
6.8715352e-06
7.5751324e-06
8.3975707e-06
9.347267e-06
1.0449837e-05
1.1737367e-05
1.3249981e-05
1.5037828e-05
1.7162903e-05
1.970279e-05
2.2753722e-05
2.6434553e-05
3.0892791e-05
3.6571539e-05
4.3231268e-05
5.1365687e-05
6.1314378e-05
7.3499038e-05
8.8437646e-05
0.00010676685
0.00013045443
0.0001583067
0.00019252126
0.00023455799
0.00028899729
0.00035298905
0.00043167384
0.00052844716
0.00065363106
0.0008012426
0.00098302025
0.0010120234
0.001011219
0.0010103852
0.0010095234
0.0010086284
0.0010076938
0.0010067141
0.0010056835
0.0010046084
0.0010035832
0.0010027618
0.0010020913
0.0010015522
0.0010011255
0.0010007878
0.0010005249
0.0010003123
0.0010001287
0.00099999339
0.000999955
0.00099999037
1.0866285e-07
4.3210675e-06
2.4996063e-06
3.0445377e-06
2.4254052e-06
2.3294571e-06
2.6238311e-06
2.2732074e-06
2.2598727e-06
2.1616229e-06
2.138032e-06
2.1352716e-06
2.1640666e-06
2.2237696e-06
2.310365e-06
2.4215544e-06
2.5567079e-06
2.7163697e-06
2.8992237e-06
3.1113365e-06
3.3537626e-06
3.6293838e-06
3.9417017e-06
4.294969e-06
4.6943099e-06
5.1458961e-06
5.6572157e-06
6.2280125e-06
6.8846401e-06
7.6345206e-06
8.4949733e-06
9.4875088e-06
1.0639234e-05
1.1984185e-05
1.3565029e-05
1.5434936e-05
1.7659986e-05
2.0322383e-05
2.3524379e-05
2.7392817e-05
3.2084811e-05
3.7793986e-05
4.5092637e-05
5.3676513e-05
6.4182893e-05
7.705837e-05
9.2852034e-05
0.0001122401
0.00013605482
0.00016680281
0.00020303354
0.00024756219
0.00030230392
0.00037308343
0.00045648304
0.00055907409
0.00069189801
0.00084846209
0.0010124834
0.001011653
0.001010814
0.0010099466
0.0010090504
0.0010081218
0.0010071551
0.0010061468
0.0010050999
0.001004039
0.0010031613
0.0010024453
0.0010018668
0.0010014038
0.0010010401
0.001000756
0.0010005324
0.0010003443
0.0010001707
0.0010000323
0.00099998013
0.00099999632
1.0336839e-07
3.5632762e-06
2.1370724e-06
2.5353689e-06
2.071368e-06
1.9230697e-06
2.137627e-06
1.8642612e-06
1.8381599e-06
1.7951254e-06
1.7977044e-06
1.8256948e-06
1.8859137e-06
1.9721007e-06
2.081918e-06
2.2145217e-06
2.3701873e-06
2.5481144e-06
2.7530969e-06
2.9862877e-06
3.250248e-06
3.5480768e-06
3.8834754e-06
4.2608602e-06
4.6855311e-06
5.1638826e-06
5.6973408e-06
6.3053322e-06
6.9952855e-06
7.7817162e-06
8.6828802e-06
9.7215682e-06
1.0926444e-05
1.2333544e-05
1.3988223e-05
1.5947267e-05
1.8281175e-05
2.107732e-05
2.4444354e-05
2.8516545e-05
3.3460511e-05
3.9767905e-05
4.7182119e-05
5.6248801e-05
6.7354019e-05
8.0970724e-05
9.7680865e-05
0.000118201
0.0001447419
0.00017597279
0.00021435387
0.00026154047
0.00031956593
0.00039460953
0.00048305041
0.00059186987
0.00073282767
0.00089899999
0.0010121292
0.0010112789
0.0010104087
0.0010095112
0.0010085835
0.0010076244
0.001006631
0.0010055998
0.001004547
0.001003585
0.0010028135
0.0010021896
0.0010016892
0.0010012903
0.0010009765
0.0010007351
0.0010005448
0.0010003797
0.0010002225
0.0010000919
0.0010000321
0.0010000181
9.947298e-08
2.8447483e-06
1.8238933e-06
2.0266651e-06
1.7781905e-06
1.5753198e-06
1.6891737e-06
1.5178294e-06
1.5061454e-06
1.5067012e-06
1.5359099e-06
1.5967507e-06
1.6833578e-06
1.7922708e-06
1.9226074e-06
2.0746127e-06
2.2482645e-06
2.4467087e-06
2.6715474e-06
2.9251319e-06
3.2102691e-06
3.5302377e-06
3.8888762e-06
4.2907239e-06
4.7412198e-06
5.243367e-06
5.8105485e-06
6.4503028e-06
7.1747635e-06
7.9991546e-06
8.9427972e-06
1.0029836e-05
1.1290666e-05
1.2763456e-05
1.4496212e-05
1.6549307e-05
1.8998215e-05
2.1935603e-05
2.547718e-05
2.9765379e-05
3.5206795e-05
4.1610224e-05
4.9431221e-05
5.9002627e-05
7.0732197e-05
8.51217e-05
0.00010278756
0.00012448925
0.00015252341
0.00018555952
0.00022617379
0.00027612008
0.00033755898
0.0004169887
0.00051067666
0.00062598899
0.0007753707
0.00095157129
0.0010117782
0.0010109061
0.0010100087
0.0010090855
0.0010081305
0.0010071427
0.0010061259
0.0010050878
0.0010040549
0.0010032184
0.0010025366
0.0010019891
0.0010015526
0.0010012059
0.0010009331
0.0010007234
0.0010005583
0.0010004135
0.0010002767
0.0010001622
0.0010000982
0.0010000484
9.7172273e-08
2.2171221e-06
1.5514701e-06
1.5431464e-06
1.5080011e-06
1.2782058e-06
1.324268e-06
1.2412202e-06
1.2568519e-06
1.2882565e-06
1.3506619e-06
1.4373279e-06
1.5452645e-06
1.6731643e-06
1.821309e-06
1.9907327e-06
2.1823144e-06
2.399058e-06
2.6428179e-06
2.916168e-06
3.2220601e-06
3.5638929e-06
3.9456095e-06
4.3718504e-06
4.848164e-06
5.3812941e-06
5.9795526e-06
6.6532699e-06
7.4068398e-06
8.2697963e-06
9.2566983e-06
1.0393135e-05
1.1711362e-05
1.3251882e-05
1.506541e-05
1.7285499e-05
1.9871734e-05
2.2977014e-05
2.6724759e-05
3.1267214e-05
3.6791864e-05
4.3529206e-05
5.1763878e-05
6.1846066e-05
7.4206768e-05
8.9376712e-05
0.00010800814
0.00013204712
0.00016039919
0.00019525172
0.00023811126
0.00029083329
0.00035907171
0.0004394934
0.00053847199
0.00066034535
0.00081816781
0.0010045077
0.0010114378
0.0010105432
0.0010096212
0.0010086757
0.0010077006
0.0010066908
0.0010056487
0.0010046037
0.0010036774
0.0010029289
0.0010023236
0.0010018377
0.0010014511
0.0010011453
0.0010009054
0.0010007198
0.0010005719
0.0010004419
0.0010003227
0.0010002244
0.0010001536
0.0010000665
9.7257919e-08
1.6824903e-06
1.3215488e-06
1.1732154e-06
1.2361134e-06
1.0295826e-06
1.056348e-06
1.0366002e-06
1.0805104e-06
1.1413278e-06
1.2277286e-06
1.3339327e-06
1.4588911e-06
1.6027656e-06
1.7666335e-06
1.9520142e-06
2.1604555e-06
2.3945529e-06
2.6565058e-06
2.949001e-06
3.2750778e-06
3.6382155e-06
4.0424455e-06
4.4925125e-06
4.994096e-06
5.5541112e-06
6.1811111e-06
6.8857904e-06
7.6816127e-06
8.585606e-06
9.6192996e-06
1.0809968e-05
1.2191994e-05
1.3808624e-05
1.5714017e-05
1.797576e-05
2.0677971e-05
2.3925323e-05
2.7847351e-05
3.2604398e-05
3.8394474e-05
4.5461097e-05
5.410198e-05
6.4685722e-05
7.7664782e-05
9.4371167e-05
0.00011408859
0.00013831245
0.00016808811
0.00020470367
0.00024974423
0.00030802722
0.00037673184
0.00046129047
0.00056540641
0.00070039708
0.00085959429
0.0010120232
0.0010111173
0.0010102016
0.0010092574
0.0010082891
0.001007296
0.0010062776
0.0010052368
0.0010042078
0.0010033849
0.00100271
0.0010021656
0.0010017281
0.0010013789
0.0010011027
0.0010008872
0.0010007197
0.0010005837
0.0010004635
0.0010003546
0.0010002647
0.0010001932
0.0010000862
1.0053437e-07
1.2461527e-06
1.1310141e-06
9.0270399e-07
1.0778941e-06
8.2465993e-07
8.7235902e-07
8.9768842e-07
9.6432177e-07
1.0482161e-06
1.1520108e-06
1.2732583e-06
1.4123527e-06
1.5703025e-06
1.7485956e-06
1.9489698e-06
2.1733988e-06
2.4239369e-06
2.7032463e-06
3.0139942e-06
3.3592871e-06
3.7426797e-06
4.1682951e-06
4.640992e-06
5.1665962e-06
5.7522128e-06
6.4066486e-06
7.140987e-06
7.9692259e-06
8.9091475e-06
9.983261e-06
1.1220157e-05
1.2655911e-05
1.4335936e-05
1.6317114e-05
1.8670462e-05
2.1484287e-05
2.4868089e-05
2.8957315e-05
3.391923e-05
4.0232882e-05
4.7667056e-05
5.6757379e-05
6.7891091e-05
8.1543827e-05
9.8300904e-05
0.00011888298
0.00014417732
0.0001752733
0.00021551411
0.00026292029
0.00032124193
0.00039302046
0.00048139572
0.00059600688
0.00073112277
0.00089763519
0.0010117324
0.0010108203
0.0010098916
0.0010089328
0.0010079449
0.0010069288
0.0010058908
0.0010048545
0.0010039199
0.0010031656
0.0010025501
0.0010020519
0.0010016508
0.0010013292
0.0010010737
0.0010008737
0.0010007174
0.0010005889
0.0010004755
0.0010003734
0.0010002843
0.0010002019
0.001000084
1.0710469e-07
9.5945839e-07
9.6479721e-07
7.639773e-07
7.6765342e-07
7.0327038e-07
7.491843e-07
8.0968253e-07
8.9355107e-07
9.9357242e-07
1.1104761e-06
1.2441796e-06
1.3957604e-06
1.5665518e-06
1.7581649e-06
1.9723969e-06
2.2112547e-06
2.4769732e-06
2.7720543e-06
3.0993125e-06
3.461941e-06
3.8636014e-06
4.3085488e-06
4.801811e-06
5.3494355e-06
5.9567073e-06
6.6358234e-06
7.3969079e-06
8.2618545e-06
9.2376759e-06
1.0352959e-05
1.1637731e-05
1.3129851e-05
1.4876915e-05
1.6938499e-05
1.9388881e-05
2.232035e-05
2.5847265e-05
3.0110984e-05
3.5285986e-05
4.1587363e-05
4.9280081e-05
5.8690181e-05
7.021698e-05
8.435368e-05
0.00010170646
0.00012411657
0.00015051529
0.00018296199
0.00022286158
0.00027194521
0.00033235089
0.00040671753
0.00050304166
0.00061669666
0.00075673827
0.00092936953
0.0010114755
0.0010105551
0.0010096169
0.0010086519
0.0010076586
0.0010066358
0.0010055903
0.0010045596
0.0010037103
0.0010030095
0.0010024379
0.0010019732
0.0010015983
0.0010012968
0.0010010549
0.0010008623
0.0010007098
0.0010005843
0.0010004737
0.001000375
0.0010002846
0.0010001939
0.001000075
1.216506e-07
9.6525118e-07
8.0469236e-07
5.6604366e-07
6.098872e-07
6.1300756e-07
6.7708051e-07
7.5636574e-07
8.537399e-07
9.6594993e-07
1.0940081e-06
1.2387499e-06
1.4014829e-06
1.5836342e-06
1.7868406e-06
2.0129243e-06
2.2639219e-06
2.5421109e-06
2.8500462e-06
3.1906053e-06
3.56705e-06
3.9831139e-06
4.4431272e-06
4.9521959e-06
5.5164556e-06
6.1434209e-06
6.8424478e-06
7.6253298e-06
8.5070528e-06
9.5066992e-06
1.0648536e-05
1.1963378e-05
1.3490133e-05
1.5277728e-05
1.7387389e-05
1.9895413e-05
2.2896554e-05
2.6508112e-05
3.0874968e-05
3.6175745e-05
4.2630507e-05
5.0871966e-05
6.0585141e-05
7.2479678e-05
8.7063769e-05
0.0001049617
0.00012694257
0.000153954
0.00018716403
0.00022801131
0.00027827473
0.00034328948
0.00042003386
0.00051454645
0.00063099279
0.00077452239
0.00095149123
0.0010112786
0.0010103445
0.0010093915
0.0010084156
0.0010074161
0.0010063934
0.0010053573
0.0010043593
0.001003566
0.001002905
0.0010023639
0.001001922
0.0010015645
0.0010012761
0.0010010419
0.0010008509
0.0010006969
0.0010005704
0.00100046
0.0010003613
0.0010002684
0.0010001733
0.0010000622
1.115209e-07
6.2136854e-07
6.376024e-07
4.6870831e-07
5.1168999e-07
5.5778934e-07
6.369358e-07
7.2986814e-07
8.3794203e-07
9.6049668e-07
1.0986231e-06
1.2533867e-06
1.4261203e-06
1.6183058e-06
1.8316136e-06
2.0679136e-06
2.329299e-06
2.6180801e-06
2.9369253e-06
3.2887652e-06
3.6769348e-06
4.1052427e-06
4.5780965e-06
5.1006833e-06
5.6792288e-06
6.3213519e-06
7.0365381e-06
7.8367525e-06
8.744323e-06
9.7676543e-06
1.0936403e-05
1.2282189e-05
1.3844879e-05
1.5674567e-05
1.7833879e-05
2.0400817e-05
2.3472187e-05
2.7167804e-05
3.1635641e-05
3.705814e-05
4.365994e-05
5.1717297e-05
6.156963e-05
7.3635567e-05
8.8429611e-05
0.00010658554
0.00012888422
0.00015765969
0.00019160241
0.00023334292
0.00028469962
0.00034791582
0.00042576372
0.00052166905
0.00063986479
0.00078558041
0.00096525852
0.0010111712
0.0010102256
0.0010092574
0.0010082651
0.0010072495
0.001006215
0.0010051821
0.0010042411
0.001003479
0.0010028446
0.0010023228
0.0010018952
0.0010015471
0.0010012637