/*--------------------------------*- C++ -*----------------------------------*\
  =========                 |
  \\      /  F ield         | OpenFOAM: The Open Source CFD Toolbox
   \\    /   O peration     | Website:  https://openfoam.org
    \\  /    A nd           | Version:  12
     \\/     M anipulation  |
\*---------------------------------------------------------------------------*/
FoamFile
{
    format      ascii;
    class       volScalarField;
    location    "0.077";
    object      omega;
}
// * * * * * * * * * * * * * * * * * * * * * * * * * * * * * * * * * * * * * //

dimensions      [0 0 -1 0 0 0 0];

internalField   nonuniform List<scalar> 
16000
(
1090.1631
2175.5836
1065.6817
642.94102
453.67151
315.51358
239.27519
180.65084
145.47448
117.85255
100.11707
85.701176
75.006378
66.077068
58.790038
52.65185
47.470605
43.052063
39.255743
35.969809
33.110275
30.60622
28.399379
26.443312
24.700572
23.142048
21.743647
20.486758
19.355586
18.335712
17.414117
16.58054
15.826809
15.146007
14.532217
13.979942
13.484005
13.039527
12.642434
12.289284
11.976209
11.699152
11.455166
11.241552
11.055238
10.893109
10.752744
10.631841
10.528195
10.43972
10.364549
10.301044
10.247681
10.203118
10.166183
10.135969
10.111874
10.093654
10.08161
10.076427
10.076271
10.075939
10.075246
10.074519
10.073675
10.072659
10.071359
10.069613
10.067147
10.063444
10.057554
10.047914
10.032804
10.013657
9.9976979
9.9871092
9.9811502
9.9864034
9.978649
10.000543
1131.7601
2170.5668
1055.9625
643.37115
453.85779
318.44942
240.35886
182.48622
146.30934
118.8885
100.6666
86.26929
75.371568
66.39343
59.019778
52.830716
47.60214
43.148361
39.324412
36.016499
33.139879
30.623331
28.407611
26.445573
24.698729
23.137582
21.737338
20.479036
19.346968
18.326952
17.405697
16.572584
15.819298
15.138809
14.525236
13.97315
13.477483
13.033292
12.636313
12.283228
11.970459
11.693726
11.449929
11.236495
11.050526
10.888756
10.74872
10.628136
10.52482
10.436681
10.361821
10.298614
10.245533
10.20124
10.164541
10.134492
10.110445
10.092059
10.079391
10.073006
10.072332
10.071954
10.071136
10.070268
10.069266
10.068065
10.066542
10.064527
10.061736
10.057653
10.051351
10.041303
10.026041
10.008283
9.9938208
9.9839645
9.9804744
9.9841223
9.9780855
9.9994326
1171.7666
2172.1235
1044.9744
639.792
450.54916
318.74225
239.2892
182.69995
145.87382
119.05334
100.52218
86.286471
75.274684
66.300329
58.893319
52.692123
47.452335
42.99304
39.167627
35.860548
32.986678
30.47492
28.265444
26.310874
24.571928
23.019021
21.626892
20.376304
19.251581
18.238896
17.324886
16.498665
15.751842
15.077297
14.469194
13.922154
13.431242
12.991561
12.598666
12.249218
11.940015
11.666659
11.425867
11.215097
11.031704
10.872311
10.734407
10.615729
10.514129
10.427541
10.354043
10.292039
10.240012
10.196649
10.160755
10.131368
10.107822
10.08975
10.077088
10.070116
10.068784
10.068287
10.067306
10.066255
10.065054
10.06363
10.061851
10.059533
10.056381
10.051866
10.045098
10.034642
10.01916
10.00288
9.9898905
9.981666
9.9793643
9.9820161
9.9785681
9.9974822
1209.9856
2182.7811
1035.4624
636.42417
446.83118
318.82286
237.91524
182.74994
145.29595
119.11451
100.32443
86.239936
75.135146
66.158735
58.725419
52.513954
47.266316
42.804011
38.979667
35.675797
32.806756
30.301726
28.100246
26.154848
24.42538
22.88222
21.499665
20.258186
19.142047
18.137823
17.232165
16.413895
15.67456
15.006923
14.405197
13.864035
13.37863
12.944187
12.556109
12.210899
11.9058
11.636354
11.399089
11.19139
11.010939
10.854265
10.718798
10.602286
10.502614
10.417766
10.345789
10.28512
10.234253
10.191902
10.156884
10.12822
10.105221
10.087494
10.074919
10.067673
10.065589
10.064911
10.063729
10.062459
10.061021
10.05934
10.057277
10.054639
10.051114
10.046158
10.038924
10.028181
10.012721
9.9979215
9.9864374
9.9798724
9.9782983
9.9807497
9.9795381
9.9962328
1246.2316
2202.564
1028.5368
632.92662
442.40025
318.15765
235.86126
182.31052
144.34393
118.89622
99.937266
86.015734
74.855666
65.884256
58.441933
52.23126
46.986769
42.530524
38.715339
35.421902
32.563967
30.071222
27.882628
25.950816
24.234836
22.705103
21.335543
20.106379
19.001718
18.008572
17.113733
16.305732
15.576083
14.917416
14.324003
13.790511
13.312246
12.884564
12.502803
12.163146
11.863315
11.598871
11.366192
11.162447
10.985716
10.832473
10.700072
10.586278
10.488996
10.406294
10.33618
10.277138
10.227671
10.186531
10.152556
10.124762
10.102438
10.085175
10.072811
10.065374
10.062754
10.061827
10.060412
10.058889
10.057185
10.055217
10.052846
10.049867
10.045958
10.040555
10.032831
10.021833
10.006725
9.9934068
9.9834714
9.978285
9.9772794
9.980072
9.9806536
9.99524
1280.3685
2229.5318
1026.0113
630.09485
438.63385
316.86196
233.34622
181.46039
143.13443
118.4378
99.405264
85.636142
74.455882
65.494298
58.057532
51.857397
46.625333
42.18292
38.383712
35.106893
32.265444
29.789793
27.618338
25.703851
24.004884
22.491834
21.138307
19.924343
18.833791
17.854092
16.972319
16.176697
15.458744
14.810933
14.2276
13.703425
13.233796
12.814239
12.440157
12.107296
11.813776
11.555284
11.328141
11.129142
10.956804
10.807603
10.67881
10.568206
10.473699
10.393481
10.325512
10.268333
10.220462
10.180689
10.147887
10.121073
10.099521
10.082805
10.070742
10.063287
10.060225
10.058999
10.057319
10.055518
10.053521
10.051243
10.048541
10.045206
10.040903
10.035064
10.02685
10.015558
10.001252
9.9894058
9.9809602
9.9768763
9.9764628
9.9797711
9.9821944
9.9947063
1312.3691
2261.2422
1027.104
627.36703
434.80534
314.92682
230.81505
180.23808
141.8202
117.74465
98.738193
85.100531
73.932467
64.987076
57.569251
51.389561
46.179065
41.758341
37.981793
34.727877
31.90845
29.454868
27.305093
25.411367
23.733131
22.240238
20.905988
19.710318
18.636731
17.673047
16.806773
16.025808
15.321723
14.6868
14.115451
13.602362
13.142988
12.732995
12.368005
12.043417
11.757307
11.505713
11.285079
11.091662
10.924385
10.779827
10.655172
10.548225
10.456859
10.379446
10.313885
10.258792
10.212697
10.174435
10.142923
10.11719
10.096497
10.080401
10.068713
10.061338
10.057972
10.056404
10.054432
10.052329
10.05002
10.047411
10.044362
10.040657
10.035952
10.029696
10.021042
10.00936
9.9963656
9.9859506
9.978849
9.9757123
9.9759129
9.9798722
9.9839123
9.9945788
1342.3422
2295.2566
1029.3568
624.28016
431.03788
312.33517
228.20082
178.79282
140.28621
116.83211
97.952939
84.417623
73.286474
64.364575
56.977133
50.827157
45.646849
41.255605
37.507534
34.282728
31.490941
29.064473
26.941278
25.069856
23.416212
21.947182
20.635696
19.461687
18.408218
17.463382
16.615298
15.851506
15.163689
14.543895
13.986622
13.486561
13.039226
12.640379
12.285914
11.971827
11.694274
11.450501
11.237314
11.05043
10.888848
10.749486
10.62947
10.526613
10.438714
10.364388
10.301466
10.248646
10.204481
10.167849
10.137721
10.11315
10.093389
10.077977
10.066716
10.059505
10.055952
10.054009
10.051723
10.049296
10.046657
10.043704
10.040294
10.036212
10.031104
10.024444
10.015473
10.00354
9.9920883
9.9830529
9.9771259
9.9747546
9.9754846
9.9803334
9.9858585
9.9949531
1370.3778
2329.5026
1027.6657
620.39296
426.20756
309.04013
224.63417
176.93135
138.42809
115.73649
97.044147
83.585966
72.510599
63.621909
56.2761
50.164468
45.023045
40.66968
36.953005
33.763469
31.00529
28.611321
26.520487
24.68019
23.05556
21.614532
20.329577
19.18077
18.150705
17.227607
16.400396
15.656263
14.987069
14.384582
13.843393
13.358201
12.924581
12.538386
12.195575
11.892123
11.624441
11.389491
11.18468
11.005812
10.850547
10.71688
10.60204
10.503669
10.419531
10.348531
10.288437
10.238046
10.195934
10.161023
10.13235
10.109001
10.090228
10.075549
10.064757
10.057761
10.054117
10.051781
10.049163
10.046394
10.043409
10.040101
10.036324
10.031864
10.026361
10.0193
10.010136
9.9984752
9.9884283
9.9807144
9.9758334
9.9740549
9.9753958
9.9809897
9.9881659
9.9959333
1396.575
2362.4673
1019.0997
615.43322
419.69642
305.30711
220.26129
174.60256
136.54371
114.4533
96.001951
82.600321
71.596983
62.75127
55.458305
49.388821
44.293947
39.987408
36.316743
33.171077
30.454154
28.099123
26.046265
24.241538
22.650618
21.241866
19.987365
18.867464
17.864279
16.965971
16.162379
15.440496
14.792387
14.209469
13.686441
13.218005
12.799792
12.42775
12.098
11.806579
11.549817
11.324536
11.128667
10.957716
10.809478
10.681973
10.57318
10.479659
10.399594
10.332109
10.274999
10.227149
10.187182
10.154054
10.126878
10.104789
10.087043
10.073136
10.06284
10.056085
10.05242
10.049682
10.046718
10.043595
10.040252
10.036583
10.032436
10.027601
10.021728
10.014287
10.004927
9.9940985
9.9853909
9.9789189
9.9750488
9.9738127
9.9758369
9.9816786
9.9902439
9.9973179
1421.0429
2393.5638
1010.1886
609.40516
411.52454
301.16621
215.65329
172.07032
134.55131
112.98851
94.81391
81.454133
70.53433
61.732445
54.501508
48.49557
43.461097
39.212968
35.596996
32.503791
29.83576
27.526325
25.517559
23.754119
22.201846
20.829792
19.609869
18.522751
17.550112
16.679839
15.902387
15.20539
14.580883
14.019838
13.517062
13.06726
12.666124
12.309677
11.994209
11.715856
11.471032
11.256354
11.070134
10.907837
10.767104
10.645925
10.542845
10.454539
10.379141
10.315314
10.261351
10.216124
10.178357
10.147045
10.12138
10.100562
10.083859
10.070753
10.060974
10.054462
10.050809
10.047673
10.044358
10.040872
10.037163
10.033129
10.028615
10.023411
10.017196
10.009459
9.9998454
9.9904078
9.9829707
9.9776395
9.9747497
9.9738544
9.9764825
9.982324
9.9915043
9.9984829
1443.9154
2423.8312
996.77531
601.79897
401.97234
296.60731
210.86448
169.27948
132.53437
111.34688
93.453188
80.117343
69.285212
60.559246
53.409497
47.481619
42.520946
38.343113
34.792279
31.76081
29.149959
26.893138
24.934716
23.218406
21.710109
20.378989
19.197965
18.147702
17.209438
16.370781
15.6207
14.95125
14.352916
13.816103
13.335714
12.906444
12.524065
12.184644
11.884688
11.620442
11.388453
11.18591
11.009835
10.856609
10.72383
10.609361
10.512225
10.429171
10.358122
10.298091
10.247631
10.20512
10.169587
10.140096
10.115927
10.096367
10.080703
10.06841
10.05917
10.052887
10.049235
10.045713
10.042046
10.038199
10.034122
10.029723
10.024853
10.019291
10.012746
10.004863
9.9953813
9.9873702
9.9811611
9.9768581
9.974795
9.9747198
9.9771824
9.9828953
9.9917859
9.9991274
1465.509
2452.2795
979.47182
593.3457
391.93032
291.6397
206.00383
166.28723
130.46455
109.50741
91.855063
78.573629
67.854993
59.225922
52.176027
46.343435
41.470971
37.376312
33.901657
30.941466
28.396669
26.200114
24.298104
22.635117
21.176707
19.889083
18.751403
17.742246
16.842285
16.039373
15.322442
14.683129
14.113374
13.602983
13.146897
12.73978
12.377537
12.056248
11.772673
11.523263
11.304473
11.113415
10.947998
10.804235
10.679773
10.572744
10.48155
10.403876
10.337415
10.281077
10.233738
10.194227
10.160982
10.133307
10.110593
10.092248
10.077598
10.066112
10.057433
10.051368
10.047653
10.043765
10.03975
10.035549
10.031111
10.026352
10.02114
10.015251
10.008389
10.000413
9.9917002
9.9849524
9.9799269
9.976679
9.9751947
9.9756327
9.9781114
9.983403
9.9914484
9.9987188
1486.0572
2475.2753
958.01432
584.309
381.43643
286.31098
201.15709
163.10161
128.27176
107.37541
90.004081
76.812481
66.231206
57.724518
50.795254
45.076463
40.308124
36.310428
32.924225
30.045015
27.575849
25.448151
23.606389
22.003008
20.601214
19.3665
18.277203
17.313739
16.456186
15.692486
15.011385
14.404717
13.865341
13.383251
12.953114
12.569486
12.228507
11.926221
11.659629
11.425536
11.220487
11.041465
10.886751
10.752527
10.636328
10.536107
10.450873
10.378541
10.317082
10.264564
10.220231
10.183309
10.152584
10.126753
10.105447
10.088252
10.074567
10.063855
10.055757
10.049928
10.046025
10.041795
10.037438
10.032896
10.028112
10.023009
10.01747
10.011298
10.004198
9.9960622
9.9887188
9.9831303
9.9791591
9.9768392
9.9759658
9.9767199
9.979209
9.9839471
9.9909753
9.9979387
1505.8194
2488.2832
932.44903
574.62635
370.56011
280.65417
196.39913
159.6431
125.83606
104.95864
87.873315
74.816522
64.401748
56.045248
49.260111
43.675891
39.029714
35.143332
31.859452
29.068442
26.684733
24.635712
22.868026
21.331918
19.993364
18.816988
17.781188
16.867395
16.056055
15.334958
14.692647
14.120883
13.611902
13.159461
12.756523
12.397347
12.078443
11.795798
11.546558
11.32802
11.13685
10.970762
10.826676
10.701899
10.594072
10.500859
10.42138
10.35401
10.296939
10.248646
10.207338
10.172809
10.144228
10.120454
10.100547
10.08442
10.071638
10.061638
10.054107
10.048585
10.044329
10.039779
10.035089
10.030218
10.02511
10.019691
10.013846
10.007415
10.000251
9.992458
9.9863858
9.9818714
9.9788122
9.9772148
9.9769487
9.9779663
9.9803873
9.9846181
9.9908587
9.9975285
1525.0164
2481.3845
903.14628
564.33587
359.3493
274.67507
191.72485
155.78555
123.08082
102.21288
85.433608
72.563529
62.351032
54.17739
47.563527
42.136456
37.633215
33.869284
30.703067
28.02052
25.735726
23.776144
22.09097
20.630012
19.360997
18.249028
17.271692
16.409432
15.647346
14.971498
14.370078
13.835444
13.360081
12.937818
12.56268
12.228315
11.931718
11.668899
11.43693
11.233832
11.055994
10.901479
10.767929
10.652379
10.552778
10.467102
10.393317
10.33073
10.277653
10.233059
10.195121
10.162915
10.136238
10.114237
10.095905
10.080791
10.068838
10.059477
10.052427
10.047225
10.042557
10.037703
10.032695
10.02751
10.022099
10.016395
10.010288
10.003628
9.9964138
9.9896308
9.9846436
9.9811081
9.9789112
9.977898
9.9780704
9.9793045
9.981634
9.9853757
9.9909002
9.997292
1543.8193
2434.4799
871.54507
553.47231
347.86147
268.28655
186.82544
151.50234
119.8931
99.09099
82.651899
70.029385
60.06368
52.111732
45.69924
40.448974
36.111382
32.499921
29.471277
26.912235
24.740176
22.881341
21.287737
19.909654
18.713693
17.670848
16.756645
15.951771
15.241046
14.612273
14.052976
13.55605
13.114313
12.722085
12.374415
12.064658
11.790076
11.546957
11.332027
11.144029
10.979325
10.835987
10.712422
10.605643
10.513566
10.434532
10.366848
10.308889
10.259538
10.218284
10.183308
10.153683
10.12875
10.108325
10.091373
10.077384
10.066189
10.057407
10.050712
10.045712
10.040706
10.035564
10.030262
10.024781
10.019085
10.013119
10.0068
10.000037
9.9929608
9.9874558
9.9834296
9.9807197
9.9792113
9.9787595
9.9792916
9.9806993
9.9829289
9.986232
9.991089
9.9971401
1562.101
2397.9968
839.6557
541.97966
336.10044
260.94702
181.77582
146.69169
116.15988
95.535832
79.493949
67.190688
57.524887
49.840389
43.655145
38.62509
34.485557
31.050462
28.180447
25.76185
23.715636
21.968538
20.471529
19.183359
18.0686
17.098484
16.249834
15.50376
14.845166
14.263654
13.74664
13.287325
12.878973
12.515997
12.193627
11.907747
11.654374
11.430412
11.23301
11.059453
10.907457
10.774741
10.660479
10.561999
10.477038
10.404054
10.341568
10.288214
10.242751
10.204519
10.172237
10.14489
10.121835
10.102789
10.087105
10.074174
10.06369
10.055464
10.049038
10.04406
10.038773
10.033367
10.027799
10.022052
10.016093
10.009887
10.003385
9.9966268
9.9903642
9.9858379
9.9826665
9.9806769
9.9797176
9.9797292
9.9805712
9.9821133
9.9842622
9.987237
9.9915171
9.9970325
1579.4075
2356.987
806.8572
529.52083
323.96623
252.42292
176.3838
141.23997
111.77389
91.487475
75.927207
64.027311
54.71648
47.349248
41.456344
36.686942
32.779355
29.546921
26.855499
24.593216
22.680784
21.055264
19.665517
18.471316
17.439943
16.544123
15.761626
15.074509
14.46749
13.930723
13.45494
13.032065
12.655983
12.321646
12.024745
11.761366
11.527981
11.321575
11.139592
10.97975
10.839979
10.718234
10.612579
10.52175
10.443408
10.376073
10.318386
10.269151
10.227297
10.191848
10.162005
10.136773
10.115495
10.097671
10.083083
10.071049
10.061313
10.053636
10.047491
10.042286
10.036774
10.031126
10.025319
10.019341
10.013157
10.006745
10.000131
9.9935064
9.9884188
9.9847232
9.9822588
9.9808621
9.980389
9.9807626
9.9818626
9.9835141
9.985612
9.9883818
9.9923039
9.9973225
1595.0676
2289.3673
772.39684
515.58872
310.70435
242.56834
170.33647
135.00988
106.63637
86.88829
71.926598
60.520448
51.655683
44.685528
39.138586
34.672639
31.030237
28.023754
25.523856
23.431021
21.666094
20.167749
18.888194
17.789657
16.841757
16.019289
15.301117
14.669688
14.113222
13.620851
13.184176
12.795876
12.450183
12.142468
11.868994
11.626471
11.411707
11.221776
11.054284
10.90699
10.778048
10.665844
10.56898
10.485083
10.412785
10.350621
10.297304
10.25172
10.212912
10.18033
10.152636
10.129256
10.109548
10.093021
10.079407
10.068154
10.059031
10.051832
10.045972
10.040442
10.034735
10.028871
10.022849
10.016667
10.010306
10.003738
9.9970928
9.9912571
9.9870178
9.9840432
9.9821625
9.9812412
9.9811659
9.9818266
9.9831204
9.9848708
9.9869701
9.9896245
9.9932438
9.9977142
1608.0008
2220.9621
735.37398
499.62035
296.64861
231.19191
163.16495
127.83653
100.67191
81.708909
67.486415
56.710441
48.40333
41.907193
36.760491
32.634332
29.283843
26.517609
24.225754
22.309579
20.695487
19.326191
18.15685
17.152407
16.285214
15.532758
14.874627
14.297422
13.788169
13.33693
12.936568
12.580323
12.262868
11.979847
11.727829
11.504106
11.306215
11.131197
10.976961
10.841332
10.72245
10.61936
10.529671
10.452106
10.385225
10.327733
10.278408
10.236223
10.20032
10.169961
10.144209
10.122459
10.104151
10.088805
10.076074
10.065519
10.056897
10.050035
10.044368
10.038584
10.032696
10.026653
10.020445
10.014073
10.007565
10.000969
9.9944923
9.9896394
9.9861006
9.9837191
9.9823255
9.981792
9.9820149
9.9828913
9.9843132
9.9861359
9.9882749
9.9908907
9.994252
9.9981398
1615.4228
2137.9032
695.56148
479.91596
281.55301
217.97504
154.39582
119.58381
93.880527
75.996094
62.689354
52.703767
45.054846
39.09954
34.395311
30.632741
27.585395
25.074644
22.994219
21.255615
19.790713
18.547288
17.484421
16.569996
15.778698
15.090472
14.489112
13.961028
13.495208
13.081483
12.713978
12.386712
12.094875
11.834444
11.602068
11.395132
11.212264
11.050453
10.907925
10.782843
10.6734
10.577863
10.494802
10.422854
10.360761
10.307388
10.261633
10.222382
10.189161
10.160818
10.136754
10.116398
10.099282
10.085016
10.073074
10.063161
10.054999
10.048358
10.042745
10.036767
10.030709
10.024513
10.018172
10.011654
10.004977
9.998351
9.9927177
9.9885483
9.9855968
9.983694
9.9826925
9.9824636
9.9829072
9.983931
9.9854256
9.9872748
9.9894355
9.992024
9.9951278
9.9984443
1612.1881
2035.9521
652.44582
454.17212
265.2403
202.57276
143.78821
110.27614
86.411901
69.876218
57.719061
48.646368
41.728566
36.357302
32.120006
28.731664
25.988253
23.731913
21.858798
20.291298
18.968231
17.843101
16.87952
16.048824
15.328296
14.699908
14.149273
13.664606
13.236149
12.855995
12.517611
12.215913
11.946643
11.706302
11.491926
11.300973
11.13126
10.980975
10.848379
10.731918
10.630117
10.541458
10.46426
10.397339
10.33947
10.289624
10.247134
10.210643
10.179444
10.152892
10.130337
10.111184
10.095156
10.081659
10.070388
10.061034
10.053354
10.046937
10.041158
10.035063
10.028848
10.022497
10.016035
10.009465
10.00281
9.9963223
9.9915074
9.9879164
9.9854353
9.9839069
9.983199
9.9831924
9.9837904
9.9849049
9.9864325
9.9882742
9.9904032
9.9929117
9.9958222
9.998742
1592.1327
1905.2866
606.24167
421.71595
247.71229
184.78172
131.56202
100.23664
78.612893
63.671752
52.794844
44.702748
38.547441
33.773624
30.00625
26.987418
24.536158
22.521722
20.843189
19.433978
18.2406
17.22251
16.348051
15.592167
14.934774
14.359719
13.854174
13.408235
13.013236
12.662217
12.34917
12.069601
11.819701
11.596356
11.396945
11.219222
11.06121
10.921129
10.797358
10.6884
10.592947
10.510171
10.438062
10.375548
10.321518
10.274957
10.234956
10.200683
10.171278
10.146184
10.124993
10.106957
10.091688
10.078837
10.06809
10.059207
10.051817
10.045587
10.039681
10.033524
10.027216
10.020736
10.014111
10.007396
10.000778
9.99503
9.9907589
9.9876436
9.985531
9.9842843
9.9837825
9.9839205
9.9846084
9.9857611
9.9872874
9.9891055
9.9911858
9.9935665
9.9962201
9.9988397
1546.4208
1745.4225
558.11291
383.33763
229.9308
164.88072
118.39934
90.08486
70.937378
57.70505
48.140708
41.033034
35.628615
31.433565
28.115582
25.447083
23.269265
21.469387
19.965647
18.696878
17.617527
16.692701
15.895246
15.203671
14.600661
14.071936
13.605021
13.191957
12.825039
12.498808
12.207268
11.946483
11.713036
11.504134
11.317416
11.150854
11.002667
10.871245
10.755113
10.652892
10.563291
10.485087
10.4171
10.358043
10.30694
10.262825
10.224882
10.19256
10.164799
10.141062
10.120811
10.103598
10.089001
10.076654
10.066358
10.057723
10.050521
10.044378
10.038362
10.032166
10.025831
10.019332
10.01267
10.005903
9.999327
9.9942427
9.9903952
9.9876357
9.9857953
9.9847471
9.9843799
9.9845993
9.9853219
9.9864679
9.9879591
9.9897292
9.9917444
9.9939997
9.9964415
9.9988692
1466.7701
1582.0486
509.02616
343.87782
205.99735
145.60117
105.23853
80.504849
63.839967
52.289894
43.972907
37.793189
33.083396
29.41352
26.496835
24.138314
22.202194
20.592051
19.238209
18.08957
17.10701
16.260744
15.527449
14.88862
14.329354
13.837499
13.403046
13.017705
12.674746
12.368567
12.094526
11.848971
11.628834
11.431585
11.255079
11.097464
10.957097
10.832483
10.72223
10.625028
10.539651
10.465017
10.400416
10.344241
10.29563
10.25367
10.21755
10.186533
10.159955
10.137171
10.117701
10.101115
10.087125
10.075237
10.065196
10.056749
10.049641
10.043504
10.037364
10.031083
10.024682
10.01815
10.011498
10.004806
9.9984829
9.9938377
9.990311
9.9878043
9.9861502
9.9852276
9.9849339
9.9851838
9.9858997
9.9870088
9.9884451
9.9901526
9.9920912
9.9942289
9.9965135
9.9988514
1354.891
1494.8783
462.89556
296.46133
182.19864
127.49591
93.334933
72.017818
57.695477
47.720853
40.510253
35.135076
31.015791
27.784011
25.19703
23.090462
21.349859
19.893395
18.660379
17.608545
16.704188
15.921626
15.240587
14.644864
14.121312
13.659185
13.24959
12.885206
12.56009
12.269765
12.00931
11.775534
11.565628
11.377287
11.208551
11.057724
10.923301
10.803909
10.698269
10.605165
10.523425
10.451904
10.389478
10.335215
10.28817
10.247497
10.212426
10.182294
10.156634
10.13461
10.115789
10.099728
10.086055
10.074452
10.064629
10.056335
10.049312
10.043182
10.036953
10.030579
10.024066
10.017418
10.010675
10.004007
9.9981287
9.9937332
9.9904236
9.9880743
9.9865293
9.9856709
9.9854027
9.9856452
9.9863263
9.9873808
9.9887528
9.9903946
9.9922599
9.9943017
9.9964827
9.9987994
1222.2627
1251.3866
422.71949
254.18023
160.05868
112.39221
83.479853
65.161855
52.838329
44.199125
37.906445
33.172513
29.510987
26.612319
24.272071
22.351161
20.752295
19.405745
18.260418
17.278068
16.429637
15.692509
15.048778
14.483983
13.986249
13.545696
13.154293
12.805293
12.49313
12.213205
11.961752
11.735631
11.532259
11.349474
11.18544
11.038564
10.907426
10.79073
10.68727
10.595914
10.515641
10.44572
10.384595
10.331431
10.285309
10.245411
10.210979
10.181333
10.155862
10.134032
10.115358
10.099421
10.085854
10.074337
10.064594
10.056374
10.049423
10.043358
10.037173
10.030819
10.024299
10.017603
10.010775
10.004036
9.9983252
9.9940216
9.9907772
9.9884661
9.9869361
9.9860723
9.9857808
9.9859837
9.9866093
9.9876001
9.9889079
9.9904908
9.992299
9.9942788
9.9964091
9.9987415
1102.8854
1114.0534
390.08065
223.45829
143.48808
101.27501
76.177328
60.167271
49.365797
41.727584
36.10724
31.838284
28.505647
25.844746
23.679601
21.889684
20.390082
19.11955
18.032955
17.096381
16.283839
15.575037
14.953839
14.407285
13.925253
13.497427
13.116554
12.776261
12.471309
12.197343
11.950771
11.72863
11.52847
11.348247
11.186226
11.0409
10.91093
10.795087
10.692219
10.601229
10.521061
10.450704
10.389194
10.335598
10.289048
10.248732
10.213904
10.183888
10.158074
10.135919
10.116942
10.100722
10.086891
10.075129
10.065158
10.056733
10.049609
10.04345
10.037434
10.031229
10.024898
10.018417
10.011812
10.005226
9.9993071
9.994885
9.9915149
9.9890913
9.9874594
9.9865033
9.9861237
9.9862434
9.9867959
9.9877126
9.9889574
9.9904893
9.9922576
9.9942065
9.9963262
9.998697
1048.0641
1072.4576
365.84472
206.38
132.62056
93.720424
70.729962
56.194518
46.405229
39.472494
34.355131
30.450216
27.38856
24.933789
22.928618
21.264922
19.866299
18.677469
17.657603
16.775972
16.009023
15.338354
14.749293
14.229905
13.770307
13.362221
12.998637
12.673646
12.382282
12.120402
11.884569
11.671943
11.480179
11.307324
11.15173
11.011976
10.886804
10.775068
10.675695
10.587662
10.509986
10.441716
10.381935
10.32977
10.284397
10.245044
10.211001
10.18162
10.156316
10.134565
10.115904
10.099926
10.086271
10.074631
10.064734
10.05634
10.049209
10.043004
10.036887
10.030594
10.024174
10.017609
10.010944
10.004392
9.9988868
9.9946845
9.9914899
9.9891797
9.9876195
9.9866989
9.9862997
9.9862924
9.9868877
9.9877482
9.9889486
9.9904433
9.9921857
9.9941236
9.9962524
9.9986638
31496.338
79004.043
37067.805
10783.839
1419.5604
608.08701
431.3578
348.02876
288.21308
234.43552
191.11864
158.14779
133.73348
115.5797
101.59426
90.192573
80.570299
72.356697
65.311441
59.231287
53.945033
49.31792
45.244826
41.640623
38.440412
35.580156
33.014848
30.704819
28.618495
26.730939
25.020819
23.469098
22.059183
20.776515
19.609688
18.549076
17.585991
16.712717
15.922211
15.208081
14.564758
13.986692
13.468834
13.006656
12.595695
12.23172
11.910896
11.629209
11.383003
11.168933
10.983736
10.824312
10.687704
10.571397
10.472889
10.390206
10.323365
10.271673
10.23499
10.215245
10.208717
10.206823
10.204644
10.201613
10.198149
10.194317
10.188737
10.182098
10.172536
10.165988
10.150089
10.146749
10.128567
10.141269
10.092303
10.102789
10.002683
10.007465
9.9619948
9.9872855
19927.04
59503.113
24679.355
5113.0686
966.90427
525.65316
395.1936
319.05467
262.04565
211.11634
173.26893
144.64739
123.73553
108.0131
95.603693
85.23635
76.413851
68.8635
62.365739
56.732832
51.81322
47.490254
43.671742
40.282105
37.259883
34.552401
32.118569
29.921282
27.932685
26.13034
24.494548
23.007666
21.654425
20.421436
19.298501
18.276703
17.347933
16.505022
15.741364
15.050988
14.428686
13.869138
13.36761
12.919811
12.521453
12.168502
11.857296
11.583931
11.344922
11.137056
10.95717
10.802269
10.669501
10.556454
10.460716
10.380099
10.314633
10.264112
10.228504
10.209822
10.203804
10.202008
10.199794
10.196777
10.193366
10.189704
10.184927
10.178869
10.170073
10.163818
10.149233
10.146468
10.128638
10.141408
10.091015
10.100909
10.001007
10.0065
9.9622
9.9870096
28200.847
35479.277
13546.377
2553.0125
831.84506
495.91602
385.19508
303.83767
248.76735
199.65965
165.59196
138.58712
119.20565
104.35592
92.529962
82.578172
74.126442
66.891725
60.65772
55.245645
50.513113
46.350577
42.670348
39.40014
36.47955
33.8617
31.506772
29.378602
27.451373
25.703554
24.116135
22.672157
21.357042
20.157996
19.065506
18.070962
17.166578
16.345498
15.601357
14.928432
14.321729
13.776051
13.286871
12.850042
12.461378
12.116978
11.813295
11.546488
11.313202
11.110304
10.934705
10.783486
10.653883
10.543577
10.45008
10.37131
10.30686
10.257215
10.22241
10.204511
10.198876
10.197159
10.194933
10.191949
10.188596
10.184973
10.180876
10.175438
10.167452
10.161515
10.148289
10.146009
10.128576
10.141011
10.089468
10.098679
9.9993368
10.00558
9.9624278
9.9866628
35797.868
23965.755
8344.6432
1537.9556
749.33525
472.73723
372.86135
287.98316
237.6888
189.09519
158.64677
132.70356
114.91039
100.83727
89.596786
80.052672
71.95906
65.020026
59.033572
53.829025
49.272188
45.260114
41.709446
38.551184
35.728191
33.193001
30.912006
28.849159
26.980215
25.284333
23.743174
22.340398
21.062056
19.895893
18.833044
17.865127
16.98467
16.185097
15.460253
14.804647
14.213479
13.681653
13.204849
12.779041
12.400142
12.06438
11.768309
11.508153
11.280681
11.082841
10.911612
10.764156
10.63786
10.53027
10.439084
10.362298
10.298968
10.250231
10.216258
10.19909
10.193916
10.19228
10.190049
10.187105
10.183816
10.180272
10.176509
10.171725
10.164595
10.159003
10.147157
10.145453
10.128321
10.14027
10.087687
10.096171
9.9976887
10.00476
9.9626493
9.9864518
40347.175
20450.089
5862.735
1216.2303
715.16273
455.48287
363.20374
275.60646
229.63927
181.01468
153.73199
128.12911
111.67684
98.043251
87.244764
77.999098
70.183291
63.471303
57.677231
52.63527
48.217601
44.325949
40.879911
37.812852
35.069582
32.60523
30.384228
28.376409
26.55702
24.905625
23.404388
22.037436
20.79131
19.65417
18.617683
17.673584
16.814672
16.034584
15.327326
14.687597
14.110744
13.591745
13.126465
12.710966
12.341239
12.013627
11.724767
11.470933
11.249013
11.056019
10.888997
10.745186
10.622056
10.517115
10.428179
10.353304
10.291214
10.243336
10.210157
10.193664
10.188942
10.187374
10.185149
10.182254
10.179034
10.175564
10.171897
10.167757
10.161525
10.156309
10.145657
10.144702
10.127839
10.139166
10.085687
10.093378
9.9960712
10.003978
9.9628515
9.9863947
43148.371
19080.978
4491.8024
1143.8284
694.96363
437.12783
355.74241
265.88283
223.49617
174.57532
149.88182
124.26137
109.0115
95.636613
85.223674
76.218671
68.635995
62.112635
56.480318
51.575882
47.2768
43.488341
40.13241
37.144287
34.47051
32.067558
29.899909
27.940704
26.165239
24.553531
23.088101
21.75345
20.53653
19.425844
18.413524
17.491352
16.652381
15.890414
15.199588
14.574764
14.01141
13.504557
13.050239
12.644582
12.283645
11.963872
11.681973
11.43426
11.217737
11.02947
10.866576
10.726402
10.606301
10.503963
10.417251
10.344271
10.283542
10.236488
10.204082
10.188315
10.183957
10.182449
10.180238
10.177399
10.174252
10.170862
10.167279
10.163535
10.158233
10.153434
10.143821
10.143629
10.127122
10.137683
10.083479
10.090327
9.9944934
10.003205
9.9630483
9.9865023
45363.391
17168.777
3594.0162
1093.1395
679.88868
424.54916
349.91674
258.10126
218.7592
169.45895
146.8218
121.01214
106.80609
93.56383
83.485873
74.672782
67.285135
60.918629
55.422229
50.634048
46.435989
42.735967
39.457696
36.537983
33.924733
31.575672
29.456574
27.539139
25.802478
24.226178
22.792879
21.487364
20.296924
19.210349
18.220173
17.318171
16.497641
15.752506
15.077012
14.466163
13.915517
13.420144
12.976235
12.579957
12.227428
11.915183
11.639989
11.398193
11.186911
11.003264
10.844475
10.707733
10.590616
10.490843
10.406324
10.335213
10.275967
10.229695
10.198044
10.182964
10.178958
10.177508
10.175322
10.172545
10.169473
10.166167
10.162683
10.159102
10.154725
10.150391
10.141843
10.142115
10.126182
10.135844
10.081072
10.087045
9.9929625
10.002423
9.9632485
9.986698
46994.033
14519.425
3020.3976
1062.3842