/*--------------------------------*- C++ -*----------------------------------*\
  =========                 |
  \\      /  F ield         | OpenFOAM: The Open Source CFD Toolbox
   \\    /   O peration     | Website:  https://openfoam.org
    \\  /    A nd           | Version:  12
     \\/     M anipulation  |
\*---------------------------------------------------------------------------*/
FoamFile
{
    format      ascii;
    class       volScalarField;
    location    "0.077";
    object      rho;
}
// * * * * * * * * * * * * * * * * * * * * * * * * * * * * * * * * * * * * * //

dimensions      [1 -3 0 0 0 0 0];

internalField   nonuniform List<scalar> 
16000
(
1.0574838
1.0896385
1.0777415
1.0857971
1.0820261
1.0853981
1.0844394
1.0862261
1.0863766
1.0875644
1.0882076
1.0892078
1.0900745
1.0910586
1.0920424
1.0930779
1.0941454
1.0952525
1.0963974
1.0975808
1.0988028
1.1000632
1.1013619
1.1026984
1.104072
1.1054819
1.1069269
1.1084055
1.1099161
1.1114567
1.1130251
1.1146186
1.1162346
1.1178699
1.1195211
1.1211847
1.1228568
1.1245335
1.1262107
1.127884
1.1295493
1.1312021
1.1328382
1.1344534
1.1360437
1.1376051
1.1391339
1.1406266
1.1420802
1.1434916
1.1448583
1.146178
1.1474486
1.1486686
1.1498365
1.1509512
1.1520117
1.1530175
1.153968
1.1548629
1.155702
1.1564851
1.1572124
1.1578841
1.1585006
1.1590624
1.1595701
1.1600246
1.1604273
1.1607807
1.1610903
1.1613676
1.1616313
1.1619035
1.1622053
1.1625387
1.1630626
1.1629455
1.1646458
1.1626642
1.0542911
1.0869611
1.0744107
1.0830642
1.0790686
1.0827061
1.0816474
1.0836035
1.0837472
1.0850364
1.0857305
1.0868051
1.0877449
1.0888025
1.0898659
1.0909814
1.0921331
1.0933265
1.0945606
1.0958358
1.0971519
1.0985087
1.0999056
1.101342
1.1028167
1.1043285
1.1058759
1.1074569
1.1090695
1.1107112
1.1123792
1.1140705
1.1157816
1.117509
1.1192488
1.1209969
1.1227489
1.1245004
1.1262469
1.1279839
1.1297066
1.1314106
1.1330916
1.1347452
1.1363674
1.1379545
1.139503
1.1410097
1.1424718
1.1438868
1.1452525
1.1465672
1.1478294
1.1490379
1.1501918
1.1512904
1.1523335
1.1533207
1.1542521
1.1551275
1.1559472
1.1567114
1.1574205
1.1580749
1.1586752
1.1592221
1.1597164
1.160159
1.1605517
1.1608972
1.161201
1.1614747
1.1617362
1.162006
1.1623047
1.1626771
1.1630636
1.163256
1.1644428
1.1629373
1.0513977
1.0845258
1.0715792
1.0805541
1.0764187
1.080257
1.0791699
1.0812444
1.0814295
1.0828012
1.0835684
1.084719
1.0857436
1.0868835
1.0880366
1.0892426
1.0904887
1.0917791
1.0931127
1.0944897
1.0959096
1.0973719
1.0988756
1.1004196
1.1020026
1.1036228
1.1052782
1.1069665
1.108685
1.1104306
1.1122
1.1139896
1.1157954
1.117613
1.1194382
1.1212661
1.1230921
1.1249111
1.1267183
1.1285087
1.1302776
1.1320204
1.1337327
1.1354102
1.1370491
1.1386461
1.1401978
1.1417017
1.1431554
1.144557
1.1459049
1.147198
1.1484352
1.1496162
1.1507406
1.1518084
1.1528196
1.1537746
1.1546736
1.1555172
1.1563057
1.1570399
1.1577203
1.1583476
1.1589226
1.159446
1.1599189
1.1603425
1.1607186
1.1610503
1.1613437
1.16161
1.1618663
1.1621318
1.1624338
1.1628032
1.163143
1.1634735
1.1643498
1.163156
1.0488211
1.0823281
1.0689987
1.078292
1.0740254
1.0780988
1.0769892
1.0792008
1.0794364
1.0809041
1.0817585
1.0829971
1.0841212
1.0853563
1.0866123
1.0879216
1.0892744
1.0906733
1.0921175
1.0936068
1.0951405
1.0967176
1.0983371
1.0999973
1.1016964
1.1034322
1.1052022
1.1070034
1.1088324
1.1106855
1.1125588
1.1144477
1.1163476
1.1182536
1.1201606
1.1220632
1.1239561
1.125834
1.1276917
1.1295239
1.1313259
1.1330929
1.1348208
1.1365056
1.1381438
1.1397324
1.1412689
1.1427511
1.1441775
1.1455467
1.146858
1.148111
1.1493054
1.1504414
1.1515195
1.1525401
1.153504
1.1544119
1.1552646
1.1560629
1.1568078
1.1575
1.1581406
1.1587303
1.1592702
1.1597611
1.1602042
1.1606009
1.1609531
1.1612644
1.161541
1.1617941
1.1620393
1.1622961
1.1625944
1.1629474
1.1632722
1.1636476
1.164335
1.1633169
1.0466071
1.0805033
1.0667791
1.0763694
1.0719431
1.0763027
1.0751811
1.0775358
1.0778405
1.0794127
1.0803728
1.0817087
1.0829449
1.0842855
1.085654
1.0870758
1.0885441
1.0900603
1.0916238
1.0932341
1.0948903
1.096591
1.0983347
1.1001192
1.1019421
1.1038005
1.1056911
1.1076101
1.1095533
1.1115163
1.1134939
1.1154811
1.1174723
1.1194617
1.1214436
1.1234121
1.1253613
1.1272856
1.1291795
1.1310378
1.1328555
1.1346284
1.1363525
1.1380243
1.1396411
1.1412004
1.1427005
1.14414
1.1455183
1.146835
1.14809
1.1492838
1.1504171
1.1514908
1.152506
1.1534638
1.1543655
1.1552124
1.1560056
1.1567465
1.1574362
1.1580758
1.1586664
1.1592093
1.1597053
1.1601556
1.1605613
1.1609241
1.161246
1.1615309
1.1617854
1.1620202
1.16225
1.1624947
1.162783
1.1631152
1.1634282
1.1638203
1.1643595
1.163463
1.0447956
1.0790668
1.0649983
1.0749005
1.0703917
1.0749383
1.0738003
1.0763237
1.0767075
1.0783922
1.0794685
1.0809037
1.0822579
1.0837095
1.0851971
1.0867395
1.0883322
1.0899757
1.0916692
1.0934116
1.0952016
1.097037
1.0989157
1.1008346
1.1027905
1.1047794
1.1067972
1.108839
1.1108996
1.1129734
1.1150545
1.1171366
1.1192134
1.1212783
1.1233248
1.1253466
1.1273375
1.1292915
1.1312031
1.1330673
1.1348796
1.136636
1.1383333
1.1399688
1.1415404
1.1430469
1.1444873
1.1458614
1.1471696
1.1484123
1.1495908
1.1507061
1.15176
1.1527541
1.1536902
1.1545701
1.1553954
1.1561681
1.1568896
1.1575616
1.1581855
1.1587626
1.1592943
1.1597816
1.1602259
1.1606282
1.1609898
1.1613123
1.161598
1.161851
1.1620782
1.1622899
1.1625
1.1627285
1.1630008
1.163309
1.1636086
1.163997
1.1644092
1.1636057
1.0433738
1.0780135
1.0636333
1.0738789
1.0692722
1.0740261
1.0729301
1.075588
1.0760721
1.0778333
1.0790328
1.0805718
1.0820548
1.0836306
1.0852518
1.0869309
1.0886644
1.0904519
1.092292
1.0941827
1.0961218
1.0981065
1.1001334
1.1021986
1.1042976
1.1064253
1.1085764
1.1107446
1.1129237
1.1151069
1.117287
1.1194569
1.1216092
1.1237368
1.1258326
1.1278898
1.1299021
1.1318637
1.1337694
1.1356145
1.1373953
1.1391086
1.1407521
1.1423244
1.1438244
1.1452521
1.1466078
1.1478925
1.1491076
1.1502549
1.1513364
1.1523544
1.1533112
1.1542094
1.1550513
1.1558392
1.1565755
1.1572622
1.1579011
1.1584943
1.1590432
1.1595493
1.1600141
1.1604387
1.1608244
1.1611724
1.1614841
1.1617609
1.1620054
1.1622218
1.1624171
1.1626015
1.1627879
1.162996
1.1632471
1.1635283
1.1638118
1.1641844
1.164479
1.1637561
1.0422825
1.0772874
1.0626194
1.073252
1.0685429
1.0735328
1.0724522
1.0753061
1.0758024
1.077683
1.079041
1.0807112
1.0823499
1.0840762
1.0858552
1.0876945
1.0895914
1.0915444
1.0935513
1.0956095
1.0977156
1.0998655
1.1020547
1.104278
1.1065295
1.1088027
1.1110907
1.1133861
1.115681
1.1179673
1.120237
1.1224817
1.1246934
1.1268645
1.1289874
1.1310555
1.1330627
1.1350035
1.1368735
1.1386689
1.1403872
1.1420265
1.1435858
1.145065
1.1464646
1.147786
1.149031
1.1502018
1.1513011
1.1523317
1.1532969
1.1541997
1.1550433
1.1558308
1.1565651
1.157249
1.1578851
1.1584757
1.1590231
1.1595291
1.1599955
1.1604237
1.1608152
1.1611712
1.1614929
1.1617817
1.1620386
1.1622654
1.1624645
1.1626404
1.1628001
1.1629532
1.1631123
1.1632961
1.1635211
1.1637724
1.1640366
1.1643843
1.1645723
1.1639195
1.0415218
1.0768803
1.0619465
1.0730426
1.0681446
1.0732601
1.0723072
1.0751723
1.0760099
1.0780286
1.0795743
1.0813996
1.0832183
1.0851205
1.0870816
1.0891056
1.0911894
1.0933306
1.0955259
1.0977714
1.1000622
1.1023929
1.1047574
1.1071487
1.1095593
1.1119809
1.114405
1.1168225
1.1192242
1.1216007
1.1239428
1.1262415
1.1284883
1.1306752
1.1327951
1.1348415
1.1368092
1.1386938
1.140492
1.1422018
1.143822
1.1453524
1.146794
1.1481482
1.1494175
1.1506046
1.1517129
1.1527461
1.153708
1.1546027
1.155434
1.1562059
1.1569223
1.1575866
1.1582022
1.1587722
1.1592994
1.1597863
1.1602351
1.1606477
1.1610259
1.1613711
1.1616846
1.1619677
1.1622216
1.1624473
1.1626461
1.1628196
1.1629704
1.1631029
1.163224
1.1633427
1.1634712
1.1636267
1.1638214
1.1640403
1.1642809
1.1645962
1.1647018
1.1640985
1.0411242
1.0768258
1.0616511
1.0731697
1.0681337
1.0735917
1.0727018
1.0757795
1.0767795
1.0789456
1.080708
1.0827156
1.0847405
1.0868468
1.0890171
1.0912522
1.0935483
1.0959016
1.0983072
1.1007594
1.1032518
1.1057769
1.1083265
1.1108916
1.1134626
1.1160293
1.1185813
1.1211078
1.1235983
1.1260422
1.1284296
1.1307511
1.1329981
1.1351633
1.13724
1.1392232
1.141109
1.1428948
1.1445792
1.1461623
1.147645
1.1490293
1.1503182
1.1515153
1.1526245
1.1536506
1.1545982
1.1554723
1.1562779
1.1570197
1.1577027
1.1583311
1.1589092
1.1594409
1.1599297
1.1603788
1.160791
1.1611689
1.1615145
1.1618298
1.1621162
1.1623752
1.162608
1.1628156
1.1629991
1.1631596
1.1632982
1.1634165
1.1635171
1.1636042
1.1636845
1.1637665
1.1638618
1.1639858
1.1641468
1.1643315
1.1645457
1.1648226
1.164865
1.1643051
1.0411625
1.0771986
1.0617937
1.0734718
1.0686069
1.0742802
1.0736669
1.0768997
1.0781719
1.0805107
1.0825238
1.0847473
1.0870088
1.0893505
1.0917597
1.0942345
1.0967696
1.0993593
1.1019968
1.104674
1.107382
1.110111
1.1128501
1.1155879
1.1183123
1.1210112
1.123672
1.1262827
1.1288314
1.1313071
1.1336996
1.1359998
1.1382001
1.1402942
1.1422774
1.1441466
1.1459004
1.1475386
1.1490626
1.150475
1.1517793
1.15298
1.1540822
1.1550915
1.1560137
1.156855
1.1576213
1.1583187
1.1589528
1.1595292
1.1600531
1.1605291
1.1609617
1.1613549
1.1617121
1.1620364
1.1623306
1.1625969
1.1628374
1.1630536
1.1632471
1.1634188
1.1635698
1.1637011
1.1638135
1.163908
1.1639857
1.164048
1.1640976
1.1641385
1.1641769
1.1642207
1.164281
1.1643709
1.1644959
1.164647
1.1648344
1.1650647
1.1650495
1.1645563
1.041712
1.0780659
1.0624702
1.0744743
1.0697433
1.0756703
1.0752932
1.0787016
1.0802808
1.0828203
1.0851177
1.0875947
1.0901265
1.0927382
1.0954191
1.0981643
1.1009665
1.1038171
1.1067064
1.1096233
1.1125558
1.1154907
1.1184144
1.1213125
1.1241707
1.1269745
1.12971
1.1323639
1.1349241
1.1373796
1.1397212
1.1419413
1.1440342
1.1459962
1.1478257
1.1495225
1.1510886
1.152527
1.1538424
1.1550402
1.1561268
1.1571091
1.1579943
1.1587897
1.1595027
1.1601405
1.1607102
1.1612183
1.1616711
1.1620742
1.162433
1.1627523
1.1630363
1.1632888
1.1635131
1.163712
1.1638881
1.1640432
1.1641791
1.1642971
1.1643983
1.1644836
1.1645538
1.1646096
1.1646518
1.164681
1.1646984
1.1647053
1.1647042
1.1646991
1.1646954
1.1647006
1.1647248
1.164779
1.1648675
1.1649867
1.1651463
1.1653224
1.1652658
1.1648637
1.0427637
1.0794311
1.0636691
1.0760854
1.0715167
1.0776802
1.0776401
1.0812387
1.0831876
1.0859697
1.0885917
1.0913678
1.0942107
1.0971325
1.1001221
1.103171
1.1062684
1.1094019
1.1125579
1.1157214
1.1188765
1.1220065
1.1250946
1.1281236
1.1310769
1.1339385
1.1366936
1.1393291
1.1418336
1.144198
1.1464153
1.1484814
1.150394
1.1521535
1.1537623
1.1552245
1.1565459
1.1577333
1.1587947
1.1597384
1.1605734
1.1613087
1.1619532
1.1625155
1.163004
1.1634267
1.1637909
1.1641035
1.1643707
1.1645982
1.164791
1.1649537
1.1650902
1.1652038
1.1652975
1.1653737
1.1654344
1.1654812
1.1655155
1.1655381
1.16555
1.1655517
1.1655437
1.1655265
1.1655007
1.1654669
1.1654258
1.1653789
1.1653286
1.1652785
1.1652335
1.1652005
1.1651886
1.1652068
1.1652599
1.165349
1.1654768
1.165597
1.1655222
1.1652189
1.0443733
1.0813489
1.0654574
1.0783171
1.0740198
1.0804312
1.080812
1.0846255
1.0870046
1.0900837
1.0930776
1.0962061
1.0994081
1.1026848
1.106022
1.1094063
1.1128219
1.1162518
1.1196773
1.123079
1.1264368
1.1297302
1.1329391
1.1360443
1.1390277
1.1418731
1.1445667
1.1470973
1.1494567
1.1516397
1.1536441
1.1554707
1.1571225
1.1586052
1.159926
1.1610938
1.1621183
1.16301
1.1637798
1.1644387
1.1649974
1.1654664
1.1658556
1.1661744
1.1664316
1.1666351
1.1667923
1.1669098
1.1669934
1.1670483
1.1670792
1.1670899
1.1670839
1.167064
1.1670325
1.1669915
1.1669423
1.1668862
1.1668239
1.1667562
1.1666834
1.1666059
1.1665238
1.1664375
1.1663473
1.1662536
1.1661571
1.1660592
1.165962
1.1658688
1.1657842
1.1657144
1.1656671
1.1656504
1.1656705
1.1657306
1.1658221
1.1658922
1.1658194
1.1656083
1.0466006
1.0838767
1.0679423
1.0812861
1.0773435
1.0840159
1.0849223
1.0889921
1.0918718
1.0953211
1.0987467
1.1022895
1.1059035
1.1095795
1.1132981
1.1170399
1.1207832
1.1245049
1.128181
1.131787
1.1352983
1.1386914
1.141944
1.145036
1.1479505
1.1506737
1.1531958
1.1555108
1.1576165
1.1595141
1.1612084
1.1627066
1.1640183
1.1651546
1.1661279
1.1669512
1.167638
1.1682015
1.1686548
1.1690104
1.1692801
1.1694748
1.1696049
1.1696796
1.1697073
1.1696957
1.1696515
1.1695805
1.169488
1.1693785
1.1692558
1.1691232
1.1689832
1.1688382
1.1686898
1.1685394
1.168388
1.1682361
1.1680842
1.1679326
1.1677812
1.1676302
1.1674794
1.167329
1.167179
1.1670297
1.1668817
1.1667362
1.1665953
1.1664618
1.16634
1.1662354
1.1661546
1.1661052
1.1660953
1.1661268
1.1661803
1.1662076
1.1661572
1.1660355
1.0495031
1.0870467
1.0712484
1.0850651
1.081612
1.0885703
1.0901331
1.0945328
1.0979951
1.1019027
1.1058261
1.1098443
1.1139171
1.1180257
1.1221438
1.1262446
1.1302991
1.1342774
1.1381493
1.1418853
1.1454578
1.1488418
1.1520162
1.154964
1.1576734
1.1601377
1.1623547
1.1643272
1.1660617
1.1675681
1.168859
1.1699486
1.1708528
1.1715878
1.1721701
1.1726159
1.172941
1.1731601
1.1732874
1.1733356
1.1733165
1.173241
1.1731186
1.1729578
1.1727664
1.1725508
1.172317
1.1720699
1.1718136
1.1715519
1.1712876
1.1710232
1.1707605
1.1705012
1.1702461
1.1699961
1.1697515
1.1695125
1.1692792
1.1690513
1.1688285
1.1686107
1.1683974
1.1681886
1.1679842
1.1677842
1.1675893
1.1674005
1.1672195
1.1670491
1.166893
1.1667561
1.1666443
1.1665655
1.1665286
1.1665323
1.1665495
1.1665457
1.1665284
1.166487
1.0531493
1.0908666
1.0755002
1.0898004
1.0870253
1.0943347
1.0967022
1.1015251
1.1056497
1.1101017
1.1145821
1.1191242
1.1236863
1.1282388
1.1327462
1.1371716
1.1414772
1.1456258
1.1495823
1.1533151
1.1567976
1.1600091
1.1629353
1.1655687
1.1679081
1.1699582
1.1717284
1.1732324
1.1744868
1.1755103
1.1763229
1.176945
1.177397
1.1776986
1.1778687
1.177925
1.1778838
1.1777602
1.1775678
1.1773187
1.1770238
1.1766926
1.1763336
1.1759542
1.1755605
1.1751581
1.1747516
1.1743446
1.1739405
1.1735417
1.1731503
1.1727679
1.1723956
1.1720342
1.171684
1.1713452
1.1710177
1.1707011
1.1703952
1.1700993
1.169813
1.1695355
1.1692665
1.1690056
1.1687525
1.1685072
1.1682703
1.1680426
1.1678257
1.167622
1.1674349
1.1672688
1.1671293
1.1670245
1.1669631
1.1669405
1.1669268
1.1669036
1.1669195
1.1669469
1.0577243
1.0954808
1.0809257
1.0958162
1.0939133
1.1016356
1.1049488
1.1102888
1.1151427
1.1202163
1.1253023
1.1303977
1.1354517
1.1404196
1.1452527
1.1499033
1.1543259
1.15848
1.1623317
1.1658553
1.169034
1.1718599
1.1743334
1.1764623
1.1782607
1.1797474
1.1809446
1.1818769
1.1825697
1.1830488
1.1833393
1.1834653
1.1834493
1.1833123
1.1830733
1.1827498
1.1823571
1.181909
1.1814175
1.1808932
1.1803454
1.1797818
1.1792094
1.1786338
1.1780599
1.1774916
1.1769323
1.1763846
1.1758505
1.1753317
1.1748291
1.1743437
1.1738756
1.1734251
1.172992
1.1725757
1.1721759
1.1717917
1.1714223
1.1710671
1.1707251
1.1703955
1.1700776
1.1697708
1.1694749
1.1691898
1.1689158
1.1686538
1.168405
1.1681718
1.1679572
1.167765
1.167601
1.1674734
1.1673897
1.1673425
1.1673052
1.1672753
1.1673197
1.1673916
1.0635075
1.101463
1.0879214
1.1034494
1.1026191
1.1107925
1.115197
1.1211709
1.1268228
1.1325875
1.1383061
1.1439412
1.1494247
1.1546944
1.1596905
1.16436
1.1686594
1.1725567
1.1760322
1.1790783
1.1816983
1.1839055
1.1857203
1.1871691
1.1882819
1.189091
1.189629
1.1899283
1.1900199
1.1899331
1.1896948
1.1893297
1.1888597
1.1883047
1.1876822
1.1870073
1.1862933
1.1855518
1.1847925
1.1840239
1.1832531
1.182486
1.1817276
1.1809819
1.1802522
1.1795412
1.1788507
1.1781824
1.1775371
1.1769157
1.1763182
1.1757448
1.1751951
1.1746686
1.1741645
1.1736821
1.1732203
1.1727782
1.1723545
1.1719483
1.1715584
1.1711838
1.1708237
1.1704773
1.1701442
1.1698244
1.1695181
1.1692259
1.1689492
1.1686899
1.1684509
1.1682357
1.1680498
1.1679016
1.1677968
1.1677266
1.1676703
1.1676417
1.1677129
1.1678072
1.0706905
1.1093352
1.0966867
1.1129152
1.1135021
1.1222152
1.1278767
1.1346332
1.1411389
1.1476136
1.1539094
1.1599555
1.1656684
1.1709782
1.1758283
1.1801787
1.1840067
1.1873064
1.1900866
1.1923684
1.1941824
1.1955654
1.1965584
1.1972036
1.1975432
1.1976179
1.197466
1.1971227
1.1966202
1.1959869
1.1952485
1.1944271
1.1935421
1.1926104
1.1916461
1.1906617
1.1896673
1.1886718
1.1876823
1.186705
1.1857447
1.1848053
1.1838901
1.1830015
1.1821412
1.1813107
1.1805106
1.1797416
1.1790036
1.1782966
1.1776199
1.1769731
1.1763551
1.175765
1.1752015
1.1746636
1.1741498
1.1736588
1.1731893
1.17274
1.1723095
1.1718966
1.1715004
1.17112
1.1707549
1.1704051
1.1700706
1.169752
1.1694505
1.169168
1.168907
1.1686708
1.1684651
1.1682975
1.1681721
1.1680795
1.1680066
1.1679815
1.168073
1.1681667
1.079396
1.118966
1.1078069
1.1247593
1.1271969
1.1365839
1.1436245
1.1512621
1.1585697
1.1656105
1.1722345
1.1783541
1.1838931
1.1888015
1.193054
1.1966487
1.1996037
1.2019527
1.2037411
1.2050208
1.2058475
1.2062773
1.2063644
1.2061599
1.2057109
1.2050599
1.2042445
1.2032979
1.2022489
1.2011223
1.1999394
1.1987182
1.1974739
1.1962193
1.1949651
1.1937199
1.1924909
1.1912842
1.1901043
1.1889549
1.1878389
1.1867585
1.1857151
1.1847098
1.1837431
1.1828152
1.1819259
1.1810748
1.1802612
1.1794843
1.178743
1.178036
1.1773621
1.1767197
1.1761074
1.1755236
1.1749667
1.1744352
1.1739275
1.1734421
1.1729774
1.1725322
1.1721053
1.1716958
1.1713033
1.1709273
1.1705682
1.1702262
1.1699025
1.1695987
1.1693171
1.169061
1.1688359
1.1686488
1.1685019
1.1683866
1.1682975
1.1682734
1.1683726
1.1684444
1.0903531
1.1312511
1.1221735
1.1399087
1.1446379
1.1547791
1.1631312
1.1715297
1.1793247
1.1864928
1.1929115
1.198521
1.203294
1.2072369
1.2103832
1.2127867
1.2145143
1.2156402
1.2162403
1.216389
1.2161562
1.2156062
1.2147963
1.2137772
1.212593
1.2112815
1.2098749
1.2084004
1.2068808
1.2053352
1.2037792
1.2022259
1.2006857
1.1991672
1.1976774
1.1962216
1.1948041
1.1934281
1.192096
1.1908095
1.1895697
1.1883772
1.187232
1.1861341
1.1850828
1.1840776
1.1831173
1.1822009
1.181327
1.1804942
1.179701
1.1789457
1.1782266
1.177542
1.17689
1.1762688
1.1756767
1.1751118
1.1745725
1.174057
1.1735637
1.1730911
1.1726381
1.1722036
1.1717871
1.1713883
1.1710071
1.1706439
1.1702995
1.1699755
1.1696738
1.1693978
1.1691529
1.1689449
1.1687747
1.168636
1.1685314
1.1685002
1.16858
1.1686391
1.1051027
1.1472755
1.141043
1.1594188
1.1667804
1.1775646
1.1867553
1.1953558
1.2029248
1.2094408
1.2148688
1.219233
1.2225919
1.2250308
1.2266495
1.227554
1.2278489
1.2276331
1.2269968
1.2260201
1.2247731
1.2233156
1.2216983
1.2199637
1.2181472
1.216278
1.2143798
1.2124723
1.2105711
1.2086889
1.2068358
1.2050197
1.2032468
1.2015219
1.1998484
1.198229
1.1966653
1.1951583
1.1937087
1.1923163
1.1909809
1.1897017
1.1884779
1.1873082
1.1861914
1.185126
1.1841104
1.1831429
1.1822217
1.181345
1.1805108
1.1797172
1.1789621
1.1782437
1.1775597
1.1769083
1.1762875
1.1756953
1.1751299
1.1745893
1.1740718
1.1735759
1.1731003
1.172644
1.1722063
1.1717868
1.1713853
1.1710021
1.1706379
1.1702938
1.169972
1.1696756
1.1694095
1.1691784
1.1689831
1.1688201
1.1686964
1.1686477
1.1686999
1.1687299
1.1251109
1.1683249
1.1658345
1.1843058
1.1940114
1.2049111
1.2139318
1.2216638
1.2279438
1.232838
1.2364411
1.2388891
1.2403325
1.2409245
1.2408107
1.2401232
1.2389784
1.2374763
1.2357011
1.2337226
1.2315984
1.2293752
1.2270909
1.2247758
1.222454
1.2201448
1.2178631
1.2156207
1.2134267
1.2112879
1.2092094
1.2071949
1.2052469
1.203367
1.2015559
1.199814
1.1981409
1.196536
1.1949983
1.1935266
1.1921194
1.190775
1.1894918
1.1882679
1.1871013
1.1859901
1.1849321
1.1839253
1.1829676
1.1820567
1.1811905
1.1803668
1.1795833
1.1788379
1.1781284
1.1774526
1.1768084
1.1761937
1.1756065
1.1750448
1.1745068
1.1739907
1.1734954
1.1730196
1.1725626
1.1721239
1.1717032
1.1713006
1.1709166
1.1705524
1.1702098
1.1698919
1.1696029
1.1693467
1.1691245
1.1689365
1.1687917
1.1687156
1.1687202
1.1687171
1.1529459
1.1951903
1.1976527
1.2154619
1.225542
1.2352441
1.2427094
1.2483309
1.2522347
1.2546562
1.2558285
1.2559797
1.2553152
1.2540136
1.252225
1.2500732
1.2476584
1.2450608
1.2423438
1.2395573
1.2367404
1.2339231
1.2311289
1.2283754
1.225676
1.2230407
1.2204768
1.2179895
1.2155823
1.2132573
1.2110157
1.2088579
1.2067835
1.2047918
1.2028815
1.2010511
1.1992989
1.197623
1.1960213
1.1944917
1.1930319
1.1916397
1.1903126
1.1890484
1.1878447
1.1866991
1.1856091
1.1845725
1.1835868
1.1826496
1.1817585
1.1809111
1.1801052
1.1793384
1.1786084
1.1779128
1.1772495
1.1766162
1.1760108
1.1754312
1.1748754
1.1743417
1.1738287
1.1733353
1.1728604
1.1724035
1.1719642
1.1715425
1.1711387
1.1707539
1.1703898
1.1700494
1.1697361
1.1694534
1.1692036
1.1689893
1.1688191
1.1687088
1.1686629
1.1686331
1.191194
1.2296658
1.2353154
1.2503973
1.2593717
1.266162
1.2704613
1.2728109
1.2735665
1.2730884
1.2716717
1.2695604
1.2669481
1.2639866
1.2607928
1.2574558
1.2540432
1.2506058
1.2471814
1.2437981
1.2404764
1.2372312
1.2340728
1.2310085
1.2280429
1.2251788
1.2224175
1.2197592
1.2172032
1.2147484
1.2123931
1.2101351
1.2079722
1.2059019
1.2039215
1.2020285
1.20022
1.1984932
1.1968454
1.1952737
1.1937755
1.192348
1.1909883
1.189694
1.1884621
1.1872903
1.1861757
1.1851158
1.1841082
1.1831501
1.1822392
1.1813729
1.1805487
1.1797643
1.1790172
1.1783051
1.1776257
1.1769765
1.1763553
1.1757599
1.1751883
1.1746387
1.1741096
1.1735996
1.1731078
1.1726333
1.1721758
1.171735
1.1713113
1.1709056
1.1705196
1.170156
1.169818
1.1695087
1.1692314
1.1689906
1.1687933
1.1686479
1.1685568
1.1685058
1.2380691
1.2701448
1.2771629
1.2868083
1.2916207
1.2939058
1.2940463
1.2926827
1.2902424
1.2870659
1.283402
1.2794338
1.2752937
1.2710768
1.2668507
1.2626633
1.2585481
1.2545279
1.2506184
1.2468292
1.2431665
1.2396334
1.2362307
1.2329582
1.2298142
1.2267964
1.2239022
1.2211282
1.2184711
1.2159275
1.2134936
1.2111659
1.2089408
1.2068147
1.204784
1.2028454
1.2009953
1.1992306
1.1975478
1.1959439
1.1944158
1.1929603
1.1915746
1.1902558
1.1890009
1.1878072
1.1866719
1.1855923
1.1845658
1.1835896
1.1826613
1.1817782
1.1809379
1.1801378
1.1793754
1.1786483
1.177954
1.1772902
1.1766544
1.1760444
1.175458
1.1748933
1.1743487
1.1738229
1.1733146
1.172823
1.1723475
1.1718879
1.1714445
1.1710182
1.1706106
1.1702242
1.1698619
1.1695272
1.1692243
1.1689585
1.1687352
1.1685579
1.168431
1.168367
1.2913834
1.311735
1.3161926
1.3185101
1.3177097
1.3150829
1.3112344
1.3066471
1.3016374
1.2964198
1.2911359
1.2858793
1.2807104
1.2756681
1.2707759
1.2660479
1.2614911
1.2571079
1.2528981
1.248859
1.2449869
1.2412772
1.2377249
1.2343245
1.2310707
1.227958
1.2249811
1.2221348
1.219414
1.2168138
1.2143295
1.2119565
1.2096904
1.207527
1.2054623
1.2034924
1.2016133
1.1998217
1.1981138
1.1964864
1.194936
1.1934596
1.1920541
1.1907163
1.1894433
1.1882324
1.1870805
1.1859849
1.184943
1.183952
1.1830093
1.1821123
1.1812584
1.1804451
1.1796698
1.17893
1.1782233
1.177547
1.1768988
1.1762763
1.1756772
1.1750996
1.1745417
1.174002
1.1734793
1.1729727
1.1724815
1.1720053
1.1715444
1.1710997
1.1706728
1.1702662
1.1698826
1.1695257
1.1692004
1.1689129
1.168667
1.1684641
1.1683124
1.1682429
1.3435323
1.3467604
1.3455284
1.3411105
1.3353425
1.3288432
1.3220696
1.31526
1.3085582
1.3020422
1.2957541
1.2897136
1.2839276
1.278395
1.2731102
1.2680651
1.2632503
1.2586559
1.2542717
1.2500878
1.2460946
1.242283
1.2386444
1.2351705
1.2318537
1.2286865
1.2256624
1.2227747
1.2200174
1.2173849
1.2148717
1.2124727
1.2101831
1.2079983
1.2059139
1.2039257
1.2020297
1.2002222
1.1984994
1.1968579
1.1952942
1.193805
1.1923871
1.1910376
1.1897533
1.1885313
1.1873688
1.1862629
1.185211
1.1842102
1.183258
1.1823517
1.1814887
1.1806666
1.1798827
1.1791345
1.1784194
1.1777349
1.1770785
1.1764477
1.1758402
1.1752539
1.174687
1.1741379
1.1736052
1.173088
1.1725854
1.172097
1.1716231
1.1711643
1.1707224
1.1702996
1.1698988
1.1695241
1.1691809
1.1688756
1.1686118
1.16839
1.1682217
1.1681505
1.3771211
1.3696251
1.3621545
1.3539856
1.3454997
1.3371077
1.3289724
1.321167
1.3137192
1.3066321
1.2998971
1.2934996
1.2874225
1.281648
1.2761585
1.2709371
1.265968
1.2612365
1.2567288
1.2524323
1.2483353
1.2444272
1.240698
1.2371386
1.2337405
1.2304958
1.2273972
1.224438
1.2216118
1.2189127
1.2163351
1.2138737
1.2115237
1.2092803
1.207139
1.2050957
1.2031463
1.201287
1.199514
1.1978239
1.1962132
1.1946785
1.1932168
1.1918249
1.1904997
1.1892384
1.188038
1.1868957
1.1858088
1.1847746
1.1837902
1.1828532
1.1819609
1.1811106
1.1802999
1.1795261
1.1787865
1.1780786
1.1773998
1.1767474
1.176119
1.1755125
1.1749258
1.1743572
1.1738053
1.173269
1.1727474
1.1722401
1.1717471
1.1712692
1.1708079
1.1703657
1.1699457
1.1695521
1.1691909
1.1688689
1.1685897
1.1683537
1.1681741
1.1680999
1.1632232
1.1676252
1.1819976
1.1938231
1.1993227
1.200596
1.2006653
1.2003371
1.2003651
1.2000769
1.1998288
1.1992703
1.1986897
1.1980347
1.1973454
1.1966186
1.195856
1.1950634
1.1942455
1.1934065
1.1925503
1.1916804
1.1907999
1.1899118
1.1890186
1.1881226
1.1872261
1.186331
1.1854392
1.1845523
1.1836719
1.1827994
1.1819364
1.1810841
1.1802437
1.1794166
1.1786039
1.1778067
1.1770263
1.1762637
1.17552
1.1747964
1.1740938
1.1734133
1.172756
1.1721227
1.1715145
1.1709322
1.1703766
1.1698485
1.1693485
1.1688771
1.1684349
1.1680221
1.1676389
1.1672852
1.1669608
1.1666655
1.1663987
1.1661597
1.1659473
1.1657601
1.1655966
1.1654545
1.1653321
1.1652235
1.1651315
1.1650351
1.1649637
1.164837
1.1647921
1.1645463
1.16458
1.1640575
1.1643121
1.1633477
1.164171
1.1628338
1.164655
1.1624516
1.1589279
1.1695802
1.1857412
1.1940375
1.1963053
1.1962172
1.1956968
1.1954457
1.1951268
1.1948234
1.1944276
1.1940332
1.1935883
1.1931113
1.1925941
1.1920445
1.1914637
1.1908548
1.1902201
1.189562
1.1888828
1.1881847
1.18747
1.1867409
1.1859996
1.1852482
1.1844889
1.1837236
1.1829545
1.1821833
1.1814121
1.1806426
1.1798766
1.1791159
1.178362
1.1776167
1.1768814
1.1761578
1.1754473
1.1747515
1.1740716
1.1734091
1.1727654
1.1721417
1.1715393
1.1709593
1.1704029
1.169871
1.1693647
1.1688848
1.168432
1.168007
1.1676102
1.1672419
1.1669023
1.1665914
1.166309
1.1660546
1.1658277
1.1656274
1.1654524
1.1653013
1.1651725
1.1650634
1.1649721
1.1648929
1.1648275
1.1647572
1.1647067
1.1646045
1.1645722
1.1643517
1.1643889
1.1639011
1.1641574
1.1632276
1.1640824
1.1627402
1.1646458
1.1623815
1.1593687
1.1725925
1.1842112
1.1905668
1.1915487
1.1910755
1.1905587
1.1902923
1.1899941
1.1897092
1.1893748
1.1890376
1.1886653
1.1882803
1.1878683
1.1874371
1.1869829
1.1865079
1.1860121
1.1854964
1.1849617
1.1844091
1.1838397
1.1832547
1.1826555
1.1820436
1.1814205
1.1807877
1.1801468
1.1794996
1.1788477
1.1781929
1.1775369
1.1768816
1.1762285
1.1755796
1.1749365
1.174301
1.1736747
1.1730595
1.1724569
1.1718685
1.171296
1.1707408
1.1702044
1.1696882
1.1691934
1.1687213
1.1682729
1.1678493
1.1674514
1.1670797
1.1667348
1.1664171
1.1661268
1.1658638
1.1656279
1.1654186
1.1652354
1.1650772
1.1649428
1.1648306
1.1647387
1.1646646
1.1646061
1.1645578
1.1645205
1.1644769
1.1644488
1.1643708
1.1643538
1.1641574
1.1642012
1.1637444
1.1640063
1.1631104
1.1639948
1.1626542
1.1646392
1.1623133
1.1571258
1.1712635
1.1818415
1.186551
1.1863852
1.1859922
1.1855403
1.1853358
1.1850126
1.1847579
1.1844413
1.1841556
1.1838376
1.1835241
1.1831901
1.1828479
1.1824904
1.1821202
1.1817358
1.181337
1.1809238
1.1804961
1.180054
1.179598
1.1791285
1.1786463
1.178152
1.1776468
1.1771317
1.1766078
1.1760767
1.1755395
1.174998
1.1744536
1.173908
1.1733629
1.1728201
1.1722812
1.171748
1.1712224
1.1707062
1.170201
1.1697085
1.1692305
1.1687686
1.1683243
1.167899
1.1674942
1.167111
1.1667505
1.1664137
1.1661013
1.165814
1.1655522
1.1653159
1.1651053
1.1649201
1.1647597
1.1646236
1.1645107
1.1644196
1.1643486
1.1642957
1.1642585
1.1642344
1.1642183
1.16421
1.1641941
1.1641893
1.1641354
1.1641357
1.163963
1.1640158
1.1635883
1.1638584
1.1629951
1.1639091
1.162575
1.1646278
1.1622477
1.1514755
1.1676079
1.1773995
1.1809386
1.1803872
1.1802975
1.1799267
1.1798605
1.1796108
1.1794737
1.1792471
1.1790698
1.1788484
1.1786412
1.1784115
1.1781777
1.1779294
1.1776709
1.1773998
1.1771161
1.1768196
1.1765101
1.1761874
1.1758518
1.1755034
1.1751424
1.1747695
1.1743852
1.1739902
1.1735854
1.1731718
1.1727505
1.1723227
1.1718897
1.1714531
1.1710143
1.1705749
1.1701366
1.1697011
1.1692703
1.1688459
1.1684296
1.1680233
1.1676287
1.1672475
1.1668814
1.1665318
1.1662002
1.165888
1.1655963
1.1653262
1.1650784
1.1648536
1.1646523
1.1644745
1.1643204
1.1641895
1.1640816
1.1639957
1.1639308
1.1638854
1.1638578
1.1638459
1.1638472
1.1638589
1.163876
1.1638979
1.1639103
1.1639295
1.1639002
1.1639189
1.16377
1.1638331
1.1634339
1.163714
1.162883
1.1638256
1.1625018
1.1646118
1.1621874
1.1454503
1.1639881
1.1724302
1.1753301
1.1746232
1.174792
1.1744653
1.1745383
1.1743535
1.1743295
1.174184
1.1741091
1.1739772
1.1738688
1.1737341
1.1735987
1.1734482
1.1732892
1.1731189
1.1729376
1.172745
1.172541
1.1723254
1.1720982
1.1718593
1.1716089
1.1713471
1.1710743
1.170791
1.1704977
1.1701951
1.169884
1.1695655
1.1692406
1.1689104
1.1685764
1.16824
1.1679027
1.1675661
1.1672319
1.1669018
1.1665776
1.1662609
1.1659536
1.1656572
1.1653736
1.1651042
1.1648505
1.164614
1.1643957
1.1641966
1.1640178
1.1638597
1.1637228
1.1636073
1.1635132
1.16344
1.1633874
1.1633545
1.1633401
1.1633427
1.1633604
1.1633912
1.1634323
1.163481
1.1635323
1.1635852
1.1636266
1.1636704
1.1636663
1.1637036
1.1635789
1.1636535
1.1632823
1.1635734
1.1627747
1.1637446
1.162434
1.1645944
1.1621338
1.1402083
1.160548
1.1675221
1.1701172
1.1693046
1.1696772
1.1693582
1.169543
1.1693975
1.1694629
1.1693799
1.1693922
1.1693348
1.1693048
1.1692441
1.169188
1.1691181
1.1690429
1.1689585
1.1688653
1.168763
1.1686511
1.1685294
1.1683976
1.1682557
1.1681036
1.1679414
1.1677691
1.167587
1.1673955
1.1671951
1.1669864
1.1667701
1.1665471
1.1663184
1.1660852
1.1658486
1.16561
1.1653709
1.1651328
1.1648973
1.1646659
1.1644403
1.1642222
1.1640132
1.1638149
1.1636288
1.1634563
1.1632988
1.1631574
1.163033
1.1629266
1.1628387
1.1627696
1.1627196
1.1626884
1.1626758
1.1626812
1.1627036
1.1627418
1.1627943
1.162859
1.1629338
1.1630159
1.1631025
1.1631889
1.1632733
1.1633442
1.163413
1.1634346
1.1634904
1.1633906
1.1634779
1.1631341
1.1634365
1.1626709
1.1636666
1.1623715
1.1645757
1.162086
1.1353266
1.1574679
1.1629179
1.1653933
1.1644723
1.1650089