/*--------------------------------*- C++ -*----------------------------------*\
  =========                 |
  \\      /  F ield         | OpenFOAM: The Open Source CFD Toolbox
   \\    /   O peration     | Website:  https://openfoam.org
    \\  /    A nd           | Version:  12
     \\/     M anipulation  |
\*---------------------------------------------------------------------------*/
FoamFile
{
    format      ascii;
    class       volVectorField;
    location    "0.077";
    object      U;
}
// * * * * * * * * * * * * * * * * * * * * * * * * * * * * * * * * * * * * * //

dimensions      [0 1 -1 0 0 0 0];

internalField   nonuniform List<vector> 
16000
(
(214.66924 -3.1422997e-17 -8.314167)
(251.25915 0 5.3372741)
(237.50155 0 -7.5057492)
(245.07681 4.9760095e-17 3.7527332)
(240.43944 -4.9112248e-17 -5.8970137)
(242.61745 0 1.7367417)
(240.84288 0 -4.2795845)
(241.33915 8.4067721e-17 -0.027545529)
(240.50944 -7.9870041e-17 -3.1212525)
(240.38479 0 -1.2509858)
(239.8745 7.2167684e-17 -2.5311206)
(239.52861 -2.0560584e-16 -1.9560259)
(239.08755 1.3013584e-16 -2.3875953)
(238.66123 -1.2378679e-16 -2.3232718)
(238.2071 1.1745002e-16 -2.4801885)
(237.73924 -3.4842029e-18 -2.5486346)
(237.25293 -3.3098182e-18 -2.6480948)
(236.74906 -9.7658699e-17 -2.7366891)
(236.22709 1.9133432e-16 -2.8268099)
(235.68688 -9.0780552e-17 -2.914499)
(235.12827 1.7267196e-16 -3.0001331)
(234.55119 -1.6367967e-16 -3.0830085)
(233.95564 0 -3.1626217)
(233.34172 1.5235344e-16 -3.2383861)
(232.70962 -4.1265759e-18 -3.3097069)
(232.05962 -2.658994e-16 -3.3759579)
(231.39216 1.2602674e-16 -3.4365061)
(230.70775 0 -3.4907063)
(230.00706 0 -3.5379175)
(229.29089 2.1885227e-16 -3.5775077)
(228.56015 -2.0391377e-16 -3.6088681)
(227.81593 0 -3.6314213)
(227.0594 0 -3.6446321)
(226.29192 0 -3.6480215)
(225.51493 5.1443727e-18 -3.6411765)
(224.73001 1.5610836e-16 -3.6237613)
(223.93884 -1.4290592e-16 -3.5955289)
(223.14321 -1.3995905e-16 -3.5563288)
(222.34495 1.239268e-16 -3.5061161)
(221.54597 0 -3.444959)
(220.74821 -1.1860146e-16 -3.3730394)
(219.95364 1.1194847e-16 -3.2906577)
(219.16418 -2.1215288e-16 -3.1982289)
(218.38175 2.001646e-16 -3.0962794)
(217.6082 -1.9548115e-16 -2.9854388)
(216.84529 3.5789564e-16 -2.866429)
(216.09471 5.6016159e-18 -2.7400529)
(215.358 2.9205927e-19 -2.6071797)
(214.63658 -1.5063978e-16 -2.4687282)
(213.93171 1.4246557e-16 -2.32565)
(213.24448 -1.2584401e-16 -2.1789112)
(212.57583 0 -2.0294726)
(211.92651 7.4794048e-18 -1.8782733)
(211.29709 0 -1.7262133)
(210.68795 6.6556807e-18 -1.5741382)
(210.09929 2.0723639e-16 -1.4228254)
(209.53112 -3.7878337e-16 -1.2729692)
(208.98327 1.0943222e-17 -1.1251688)
(208.4554 1.6832341e-16 -0.97992025)
(207.94695 -1.489869e-16 -0.83762746)
(207.45713 1.4034294e-16 -0.69858175)
(206.98505 -8.8312819e-18 -0.56301124)
(206.52962 0 -0.43105349)
(206.08956 0 -0.30276044)
(205.66333 -1.1129548e-16 -0.17813948)
(205.24923 1.1198245e-16 -0.057171841)
(204.84541 -9.9228589e-17 0.060148268)
(204.44983 1.9370129e-16 0.17377372)
(204.06037 -1.8904637e-16 0.28354419)
(203.67504 8.3813109e-17 0.38905429)
(203.29295 5.2928702e-18 0.48929192)
(202.91576 0 0.5819522)
(202.5493 4.7589618e-18 0.6634058)
(202.20384 -4.5202753e-18 0.72997301)
(201.88759 0 0.77876534)
(201.62306 -3.3796457e-17 0.80503352)
(201.28363 6.2528224e-17 0.80083875)
(201.30807 -3.1768925e-17 0.95705195)
(200.56185 0 0.46039835)
(201.15461 0 1.7621681)
(215.93274 0 -11.120619)
(252.85246 -3.7324566e-18 3.2991116)
(238.3797 -1.1991778e-16 -10.417304)
(246.49741 1.1058098e-16 1.676228)
(241.50531 0 -8.7454941)
(243.91391 1.0173666e-16 -0.41145909)
(241.93501 -1.8786242e-16 -7.0131888)
(242.51929 -1.0133596e-19 -2.2973323)
(241.5983 8.4663125e-17 -5.701065)
(241.47436 0 -3.6379952)
(240.92299 -1.5292945e-16 -4.9966029)
(240.54819 1.4959514e-16 -4.3884031)
(240.07508 1.4227665e-16 -4.8069088)
(239.61444 -2.6191082e-16 -4.7430767)
(239.12588 1.2040152e-16 -4.8801392)
(238.62179 1.1069131e-17 -4.9412322)
(238.09828 1.1574423e-16 -5.0252183)
(237.55597 -1.0308366e-16 -5.1001407)
(236.99445 0 -5.17428)
(236.41361 0 -5.244939)
(235.81338 5.6883872e-18 -5.3119954)
(235.19376 -1.7843602e-16 -5.3747364)
(234.55489 3.3834737e-16 -5.4325257)
(233.89697 -3.1615574e-16 -5.4846778)
(233.22034 1.4289878e-16 -5.5304937)
(232.52547 0 -5.569261)
(231.81294 1.2462717e-16 -5.6002593)
(231.08348 -1.3364001e-16 -5.6227764)
(230.33796 0 -5.6361145)
(229.57739 3.5320364e-18 -5.6396029)
(228.80293 -1.3395593e-17 -5.6326086)
(228.01589 0 -5.6145514)
(227.2177 0 -5.5849122)
(226.40995 -1.7091296e-16 -5.5432524)
(225.59432 3.3937623e-16 -5.4892217)
(224.77264 -1.6296549e-16 -5.4225722)
(223.9468 -1.5935577e-16 -5.3431703)
(223.11878 1.4585441e-16 -5.2510034)
(222.29062 -1.1233442e-16 -5.1461891)
(221.46436 -2.8180018e-19 -5.0289795)
(220.64208 -2.6351712e-19 -4.8997621)
(219.82581 2.3315849e-16 -4.7590587)
(219.01754 -1.1000751e-16 -4.6075203)
(218.2192 0 -4.4459175)
(217.4326 2.0268333e-16 -4.275131)
(216.65946 1.1949031e-17 -4.0961362)
(215.90134 -5.131539e-18 -3.9099864)
(215.15965 -1.6478736e-16 -3.717795)
(214.43564 0 -3.5207149)
(213.73038 -1.4677009e-16 -3.3199175)
(213.04477 -8.8670251e-18 -3.1165716)
(212.3795 2.6049277e-16 -2.9118216)
(211.7351 -1.3027919e-16 -2.7067705)
(211.1119 0 -2.5024617)
(210.51005 -2.0412247e-17 -2.2998624)
(209.92952 -2.1150791e-16 -2.0998494)
(209.37011 3.6179026e-16 -1.9031933)
(208.83145 -2.15585e-16 -1.7105502)
(208.31301 0 -1.5224557)
(207.81409 -1.7103897e-16 -1.3393373)
(207.33377 1.7974221e-16 -1.1614986)
(206.87102 2.6724456e-17 -0.98915879)
(206.42467 0 -0.82245711)
(205.99338 -1.4209502e-16 -0.66143672)
(205.57557 7.3357591e-18 -0.50609757)
(205.16954 1.1187703e-16 -0.3564153)
(204.77344 -1.976673e-17 -0.21237892)
(204.38531 9.3142619e-17 -0.074036985)
(204.00311 -1.0529047e-16 0.058438691)
(203.62503 5.5173549e-18 0.18461804)
(203.25036 -5.2061532e-18 0.30342508)
(202.88084 0 0.41249061)
(202.52227 -4.6452948e-18 0.508386)
(202.18494 4.3935223e-18 0.58827414)
(201.87841 8.320119e-18 0.64849229)
(201.59823 9.8564179e-19 0.6783088)
(201.3371 0 0.71257893)
(201.18339 3.0254024e-17 0.80342601)
(200.67829 -5.7574745e-17 0.42959223)
(201.0318 2.5864359e-17 1.6089343)
(217.06331 0 -13.998498)
(254.29871 -1.2277673e-16 1.0651942)
(239.31591 2.5031489e-16 -13.413383)
(247.7144 -2.2358751e-16 -0.56950023)
(242.46299 1.1041356e-16 -11.670621)
(245.0079 -3.2694092e-18 -2.7498113)
(242.90196 9.9513601e-17 -9.7945215)
(243.51151 -9.4251528e-17 -4.7634648)
(242.53408 -5.5952554e-18 -8.3442102)
(242.38693 -5.312683e-18 -6.1898049)
(241.80026 -1.0092127e-17 -7.5595365)
(241.3896 1.3922697e-16 -6.9564033)
(240.88113 -1.4112694e-16 -7.3439301)
(240.38213 1.3850539e-16 -7.2867535)
(239.85464 -1.1898463e-16 -7.4025258)
(239.30996 -1.5594349e-17 -7.455453)
(238.74465 0 -7.5237935)
(238.15928 -1.1541279e-20 -7.5838087)
(237.55354 -2.2680656e-16 -7.6408145)
(236.92744 -3.6340908e-19 -7.6927788)
(236.28099 1.738397e-16 -7.739264)
(235.61437 1.7075729e-17 -7.7794732)
(234.92783 -2.1597807e-17 -7.8126505)
(234.22175 0 -7.8380078)
(233.49666 6.3106414e-21 -7.8547518)
(232.75321 -1.657876e-16 -7.8620869)
(231.99222 1.4811269e-16 -7.8592269)
(231.21464 8.2659129e-18 -7.8454026)
(230.42159 0 -7.819881)
(229.61436 -7.4153866e-18 -7.7819716)
(228.79437 -2.4851283e-21 -7.7310467)
(227.96321 -1.9960871e-16 -7.6665533)
(227.12261 2.0103436e-16 -7.5880282)
(226.27444 1.1913368e-17 -7.4951166)
(225.42067 -1.8032562e-16 -7.3875807)
(224.56337 1.4882524e-16 -7.2653167)
(223.7047 -1.8133448e-16 -7.1283629)
(222.84683 1.5199226e-16 -6.9769089)
(221.99199 -1.4390402e-16 -6.8112979)
(221.14239 1.3562606e-16 -6.6320315)
(220.30017 1.6036167e-17 -6.439765)
(219.46746 0 -6.2353003)
(218.64623 2.0002087e-16 -6.0195774)
(217.83839 -2.4211054e-16 -5.7936595)
(217.04566 0 -5.5587164)
(216.26963 1.7967991e-16 -5.3160063)
(215.51168 -1.5767643e-16 -5.0668519)
(214.77303 1.7011638e-16 -4.8126196)
(214.05468 -1.7994059e-16 -4.5546935)
(213.35744 0 -4.2944524)
(212.68193 1.774253e-16 -4.0332469)
(212.02857 -1.3334327e-16 -3.772377)
(211.39757 0 -3.513075)
(210.78899 0 -3.2564882)
(210.20269 1.2492988e-16 -3.0036613)
(209.63836 -2.0864181e-16 -2.7555237)
(209.09557 1.2247713e-16 -2.5128763)
(208.5737 1.8431771e-16 -2.2763879)
(208.07203 1.9365293e-19 -2.0465912)
(207.58968 1.7204739e-19 -1.8238965)
(207.12558 -3.2443424e-16 -1.6085888)
(206.67858 8.9539152e-17 -1.400846)
(206.24741 0 -1.200779)
(205.83065 1.4230721e-16 -1.0083999)
(205.42672 -1.6324687e-16 -0.82367829)
(205.0339 1.1157829e-16 -0.64656665)
(204.65039 1.3166829e-17 -0.47703616)
(204.27427 -8.6104149e-17 -0.31512567)
(203.90365 1.1562728e-17 -0.16100396)
(203.53697 2.1745848e-17 -0.015124332)
(203.17375 -1.0226337e-16 0.12134518)
(202.81599 9.6180493e-17 0.24599314)
(202.46975 -7.2464964e-17 0.35572816)
(202.14501 1.3649159e-16 0.44789868)
(201.84854 -5.6275575e-17 0.51689823)
(201.57498 -6.0705394e-17 0.55774993)
(201.33849 5.0141445e-17 0.61315018)
(201.12265 0 0.66124938)
(200.7375 3.2072897e-18 0.39300409)
(200.95261 -1.2164532e-17 1.4378362)
(218.03664 0 -16.944184)
(255.59588 0 -1.3046488)
(240.03852 0 -16.541017)
(248.75017 1.0686558e-16 -2.9169101)
(243.23751 -1.2407376e-16 -14.721906)
(245.93856 -2.2098685e-16 -5.2036848)
(243.69095 2.1017125e-16 -12.691342)
(244.32887 -1.2449091e-17 -7.354741)
(243.28716 5.9271751e-18 -11.096042)
(243.11319 -1.7430688e-16 -8.8710894)
(242.48662 1.7064418e-16 -10.232262)
(242.03465 1.0140784e-17 -9.6481705)
(241.48598 -1.539936e-16 -9.9968757)
(240.94337 1.3679774e-16 -9.9479362)
(240.37189 -1.2835143e-20 -10.041126)
(239.78158 -8.2052171e-18 -10.083889)
(239.16956 0 -10.134913)
(238.53635 -7.4053521e-18 -10.177501)
(237.8818 -2.1080401e-16 -10.21465)
(237.206 2.128555e-16 -10.244779)
(236.50914 1.2633904e-17 -10.267226)
(235.79152 -1.1977876e-17 -10.28111)
(235.05356 2.1584757e-16 -10.285579)
(234.29586 -1.7193467e-16 -10.279754)
(233.51914 1.0195455e-17 -10.262755)
(232.72431 1.9332469e-16 -10.233716)
(231.91244 -1.2788521e-16 -10.191788)
(231.08478 0 -10.136164)
(230.24275 1.4776147e-16 -10.066088)
(229.38795 -1.2402882e-16 -9.9808787)
(228.52215 2.4995162e-16 -9.8799407)
(227.64727 -1.3357886e-17 -9.7627892)
(226.76537 -2.0995308e-16 -9.6290629)
(225.87863 1.741296e-16 -9.4785424)
(224.98933 -1.8758408e-16 -9.3111615)
(224.09982 -3.1011851e-20 -9.1270227)
(223.21249 2.096873e-16 -8.9264023)
(222.32973 -3.1645076e-16 -8.7097555)
(221.45391 9.3137738e-17 -8.4777173)
(220.58734 3.5261085e-17 -8.2310976)
(219.73224 -4.9858732e-17 -7.9708748)
(218.89068 0 -7.6981795)
(218.06462 -8.8712122e-17 -7.4142809)
(217.25581 1.3894087e-16 -7.1205635)
(216.46582 -2.0977871e-16 -6.818506)
(215.69601 1.9711078e-16 -6.5096576)
(214.94751 -2.0905544e-16 -6.1956077)
(214.22124 3.9309434e-16 -5.8779611)
(213.51789 -3.0805281e-16 -5.5583113)
(212.83793 3.0890253e-16 -5.2382135)
(212.18165 -1.4498742e-16 -4.9191625)
(211.5491 1.3647392e-16 -4.6025729)
(210.94016 -9.5940319e-17 -4.2897601)
(210.35457 3.0083704e-17 -3.9819272)
(209.79186 0 -3.6801467)
(209.25144 0 -3.385352)
(208.73262 0 -3.0983292)
(208.23453 2.3285649e-17 -2.8197164)
(207.75626 0 -2.5500058)
(207.29674 -1.6389008e-16 -2.2895571)
(206.85478 1.9186439e-16 -2.0386043)
(206.4291 -1.0798979e-16 -1.797264)
(206.01836 -1.1309352e-19 -1.5655897)
(205.62108 2.5265809e-16 -1.3435458)
(205.23568 2.9670874e-17 -1.1310543)
(204.86044 -1.3858255e-16 -0.92802934)
(204.49361 5.1968276e-17 -0.73441305)
(204.13337 -1.4600713e-16 -0.55022379)
(203.77798 -4.5623432e-17 -0.37562124)
(203.42609 -6.4134333e-17 -0.21108934)
(203.07747 -6.0142127e-17 -0.057882629)
(202.73436 5.636229e-17 0.081625218)
(202.40299 0 0.20465222)
(202.0926 0 0.30820971)
(201.808 -1.5531129e-17 0.38613561)
(201.54808 0 0.44013183)
(201.32245 6.8573498e-18 0.50589616)
(201.08 5.1632162e-17 0.53048447)
(200.75982 -7.2882684e-17 0.34760222)
(200.88951 -2.1568054e-20 1.2647001)
(218.83498 0 -20.085453)
(256.72293 -8.8365742e-18 -3.7500857)
(240.62729 2.6718747e-16 -19.803426)
(249.58139 -2.4962059e-16 -5.3879889)
(243.77523 2.5469326e-16 -17.887197)
(246.66908 -2.3303366e-16 -7.8101911)
(244.28191 -2.2213071e-16 -15.693334)
(244.93823 2.1027962e-16 -10.103256)
(243.83324 0 -13.950377)
(243.62319 0 -11.701441)
(242.95456 1.8020553e-16 -13.018418)
(242.45462 -1.7072214e-16 -12.471634)
(241.86116 -1.014143e-17 -12.771666)
(241.26992 2.8846969e-17 -12.730095)
(240.6497 -9.1282994e-18 -12.798483)
(240.00911 3.4622476e-17 -12.827234)
(239.3458 0 -12.857901)
(238.66027 0 -12.879246)
(237.95248 -2.3643688e-16 -12.892671)
(237.22265 2.0968754e-16 -12.896817)
(236.4711 0 -12.890839)
(235.69834 0 -12.873751)
(234.90502 -1.9077352e-16 -12.844569)
(234.09197 3.6103579e-16 -12.80231)
(233.26022 -1.7075715e-16 -12.745993)
(232.411 -2.0228317e-17 -12.674669)
(231.54571 -3.8312637e-17 -12.587438)
(230.66599 -1.4516772e-16 -12.483466)
(229.77363 1.1986026e-16 -12.362005)
(228.87063 0 -12.222419)
(227.95916 -3.0697046e-17 -12.064199)
(227.04153 0 -11.886989)
(226.12017 0 -11.690597)
(225.19762 2.0720772e-16 -11.475018)
(224.27648 -2.1962692e-16 -11.240439)
(223.35937 2.3037661e-17 -10.987252)
(222.44889 -2.1736945e-17 -10.716055)
(221.5476 -4.1094788e-17 -10.427652)
(220.65798 -8.6376738e-20 -10.123047)
(219.78236 8.1982452e-20 -9.8034264)
(218.92293 -7.7320516e-20 -9.470152)
(218.08166 0 -9.1247301)
(217.26034 -1.2197677e-16 -8.7687949)
(216.4605 1.1454363e-16 -8.4040746)
(215.68342 0 -8.0323641)
(214.93015 -5.0766333e-17 -7.6554981)
(214.20145 1.9079853e-16 -7.2753135)
(213.49786 -2.2367264e-16 -6.8936249)
(212.81968 -2.1042584e-16 -6.5121941)
(212.16697 1.5776673e-16 -6.1327063)
(211.53959 1.1126548e-16 -5.756748)
(210.93722 -1.3888817e-16 -5.3857909)
(210.35936 -3.2561137e-17 -5.0211744)
(209.80536 -2.1390693e-16 -4.664096)
(209.27446 1.1440698e-16 -4.315596)
(208.76576 -1.0729877e-16 -3.9765552)
(208.27828 1.0036393e-16 -3.6476922)
(207.81096 2.351499e-16 -3.3295671)
(207.36266 -1.7587589e-16 -3.0225884)
(206.93216 0 -2.7270292)
(206.51815 -3.8486804e-17 -2.4430359)
(206.11926 -7.2040811e-17 -2.1706398)
(205.73409 1.3462027e-16 -1.9098117)
(205.36113 1.2594882e-16 -1.6604481)
(204.99879 -2.3537549e-16 -1.422406)
(204.64541 8.2437902e-17 -1.1955479)
(204.29929 5.1389366e-17 -0.97977515)
(203.95872 9.6076709e-17 -0.77507723)
(203.62216 1.3469414e-16 -0.58160336)
(203.28848 2.2937089e-20 -0.39987668)
(202.95771 0 -0.23122074)
(202.63235 0 -0.077922317)
(202.31868 -3.4279285e-17 0.057412606)
(202.025 9.6169784e-17 0.17133034)
(201.75544 -8.9931521e-17 0.25831033)
(201.51142 -8.4165671e-17 0.32486238)
(201.29404 5.2506273e-17 0.39649607)
(201.04582 0 0.40784429)
(200.76782 4.6078029e-17 0.29515271)
(200.84077 3.9173655e-20 1.0950128)
(219.43686 0 -23.397261)
(257.6533 1.8064325e-20 -6.2719571)
(241.02583 9.0928578e-18 -23.162471)
(250.24632 2.8914311e-16 -7.9954218)
(244.17285 3.3057572e-19 -21.153214)
(247.17141 -5.0714906e-16 -10.563833)
(244.62766 -3.2102951e-19 -18.787765)
(245.31152 4.5739973e-16 -13.01154)
(244.13727 -2.1044978e-16 -16.90387)
(243.89022 -1.2483522e-17 -14.679572)
(243.17844 1.1855316e-17 -15.916137)
(242.62577 -1.8002158e-16 -15.41904)
(241.98407 1.9179322e-16 -15.662291)
(241.34019 -1.8222836e-16 -15.624022)
(240.66704 3.0696778e-16 -15.665295)
(239.97175 -3.0927574e-16 -15.675604)
(239.25252 1.3784088e-16 -15.682559)
(238.50982 0 -15.67872)
(237.74383 0 -15.664352)
(236.95495 1.4681603e-17 -15.638103)
(236.14378 -2.7839173e-17 -15.598907)
(235.31109 0 -15.545618)
(234.45788 1.9989903e-16 -15.477099)
(233.58534 4.6730027e-19 -15.392242)
(232.69491 -3.5774401e-16 -15.289973)
(231.78822 1.6903503e-16 -15.169282)
(230.86715 1.9998964e-17 -15.029251)
(229.93379 0 -14.869067)
(228.99043 -1.7914828e-16 -14.688054)
(228.03951 1.3508957e-16 -14.485695)
(227.08368 -2.2400332e-16 -14.261653)
(226.12568 2.1084586e-16 -14.015794)
(225.16836 -2.28179e-16 -13.748196)
(224.21459 2.1478338e-16 -13.459172)
(223.26728 7.613619e-17 -13.149269)
(222.32928 0 -12.819271)
(221.40336 0 -12.470199)
(220.49217 4.243127e-17 -12.103294)
(219.59817 3.9963947e-17 -11.720006)
(218.72362 -3.7624537e-17 -11.32197)
(217.87055 3.5407213e-17 -10.910977)
(217.04071 6.6800182e-17 -10.488944)
(216.23558 -6.2738475e-17 -10.057888)
(215.45632 3.537287e-16 -9.6198801)
(214.70383 -2.7669875e-16 -9.1770159)
(213.97869 5.193219e-17 -8.731383)
(213.28122 -4.8864726e-17 -8.2850232)
(212.61149 0 -7.8399058)
(211.96929 2.1476429e-16 -7.3978995)
(211.35422 -1.6086423e-16 -6.9607519)
(210.76571 0 -6.5300703)
(210.20298 0 -6.1073111)
(209.66514 1.3235713e-16 -5.6937654)
(209.15118 -6.1866011e-17 -5.2905543)
(208.66001 0 -4.8986213)
(208.19044 -1.6254268e-16 -4.518734)
(207.74125 1.0118085e-16 -4.1514896)
(207.31116 1.42017e-16 -3.797323)
(206.89887 -1.7666186e-16 -3.4565173)
(206.50303 1.6512327e-16 -3.1292232)
(206.12223 -1.5402962e-16 -2.8154701)
(205.75505 6.7684229e-20 -2.5151791)
(205.40004 0 -2.2282182)
(205.0557 6.2607078e-17 -1.9543985)
(204.72048 -2.9191537e-16 -1.6934996)
(204.39276 1.6326467e-16 -1.4453216)
(204.07094 0 -1.2097179)
(203.75347 -1.4195584e-16 -0.98664438)
(203.43898 8.8185047e-17 -0.77624531)
(203.12659 1.2336688e-16 -0.57908987)
(202.8166 3.1981929e-20 -0.3965462)
(202.51176 -7.1402526e-17 -0.23079535)
(202.2182 9.9852586e-17 -0.084387376)
(201.9434 -1.5510264e-16 0.038886137)
(201.69144 8.6735173e-17 0.13481299)
(201.46484 2.6939184e-17 0.21270946)
(201.25733 5.0268126e-17 0.28742971)
(201.0123 0 0.29254147)
(200.76454 -4.3746345e-17 0.23807222)
(200.79568 2.0389574e-17 0.93183628)
(219.82902 0 -26.877477)
(258.38202 9.834385e-18 -8.8971416)
(241.22804 -3.0660738e-16 -26.644266)
(250.73044 2.503964e-16 -10.744865)
(244.37245 2.5717438e-16 -24.517792)
(247.43825 -5.016259e-16 -13.470562)
(244.79055 2.3072996e-16 -21.964463)
(245.43908 2.3359262e-16 -16.079755)
(244.2237 -2.213825e-16 -19.940284)
(243.90584 3.940536e-17 -17.790367)
(243.15024 0 -18.911937)
(242.53939 0 -18.474013)
(241.84446 -2.2409962e-17 -18.657175)
(241.14205 -1.701413e-16 -18.618342)
(240.40959 1.4080596e-16 -18.632024)
(239.6529 1.9100859e-17 -18.620567)
(238.87081 -3.6206955e-17 -18.600968)
(238.06396 3.089008e-16 -18.568156)
(237.23284 -2.270005e-16 -18.521598)
(236.37819 2.4637448e-16 -18.459836)
(235.50098 -2.0359866e-16 -18.3816)
(234.60241 2.7603722e-17 -18.285593)
(233.68392 1.5681716e-16 -18.170554)
(232.74721 -1.9723894e-16 -18.035289)
(231.7942 0 -17.878681)
(230.82711 0 -17.699725)
(229.84836 0 -17.497557)
(228.86059 -1.9752359e-16 -17.27148)
(227.86664 1.8606903e-16 -17.02099)
(226.86952 -3.5255442e-17 -16.745799)
(225.87234 0 -16.445866)
(224.87833 -2.8260398e-16 -16.121405)
(223.8907 2.3620059e-16 -15.772896)
(222.91267 -5.586454e-17 -15.401098)
(221.94736 1.5797988e-16 -15.007047)
(220.99778 -4.9098729e-17 -14.592034)
(220.06675 -1.8621205e-16 -14.157608)
(219.15685 2.196593e-16 -13.705539)
(218.27042 -1.6490936e-16 -13.237792)
(217.40946 7.7783514e-17 -12.756498)
(216.57568 -7.2985677e-17 -12.263911)
(215.77044 1.3719961e-16 -11.762367)
(214.99475 -6.4287133e-17 -11.254249)
(214.24927 -2.4194852e-16 -10.741943)
(213.53435 5.101809e-16 -10.227795)
(212.85003 -2.124839e-16 -9.7140825)
(212.19604 -1.4972891e-16 -9.2029795)
(211.57189 9.3095236e-17 -8.6965275)
(210.97684 8.7567331e-17 -8.1966164)
(210.40999 -1.6381243e-16 -7.7049676)
(209.87026 1.5305608e-16 -7.2231223)
(209.35644 0 -6.7524351)
(208.86726 1.3396176e-16 -6.294068)
(208.40136 -1.8763971e-16 -5.8489906)
(207.95733 5.8473809e-17 -5.4179816)
(207.53375 5.4494715e-17 -5.0016366)
(207.12918 0 -4.6003803)
(206.74217 0 -4.2144779)
(206.3713 0 -3.8440498)
(206.01511 0 -3.4890933)
(205.67216 0 -3.1494953)
(205.34098 -7.1598044e-17 -2.8250482)
(205.02015 0 -2.5155022)
(204.7082 -5.4839801e-20 -2.2205706)
(204.40363 2.3120362e-16 -1.9399484)
(204.10491 -2.1508515e-16 -1.673367)
(203.81057 -1.0012183e-16 -1.420628)
(203.51921 -1.8616557e-16 -1.1816548)
(203.22966 2.5951347e-16 -0.9565947)
(202.94133 4.5271258e-20 -0.74606569)
(202.65478 7.4745634e-17 -0.55145443)
(202.37296 0 -0.37484141)
(202.10176 0 -0.21880439)
(201.84791 0 -0.087265883)
(201.61577 -1.1152126e-16 0.017114756)
(201.40808 0 0.10482158)
(201.21281 -9.6306537e-17 0.18112611)
(200.97741 1.3421693e-16 0.18527869)
(200.75391 8.3156795e-17 0.1789681)
(200.75043 -1.9302923e-17 0.77617815)
(220.01852 0 -30.533269)
(258.91699 0 -11.630796)
(241.24137 3.2262386e-16 -30.25781)
(251.03858 1.9353453e-17 -13.651684)
(244.38937 -2.7000015e-16 -27.993361)
(247.54032 0 -16.554214)
(244.74408 1.6177142e-17 -25.218453)
(245.44256 -3.0665663e-17 -19.29929)
(244.05636 0 -23.039946)
(243.67385 1.9329789e-16 -21.018903)
(242.86686 -4.1848619e-16 -22.004021)
(242.18704 1.9816022e-16 -21.633213)
(241.42889 2.3519915e-17 -21.758333)
(240.65793 0 -21.714458)
(239.85619 2.1103129e-17 -21.699638)
(239.02835 -3.4040655e-16 -21.662009)
(238.17394 7.5052503e-17 -21.611258)
(237.29386 2.5086513e-16 -21.543726)
(236.38899 2.3823102e-16 -21.458391)
(235.46055 -2.5696679e-16 -21.353686)
(234.50997 0 -21.228183)
(233.539 -2.8830915e-16 -21.080479)
(232.54967 2.4479433e-16 -20.909241)
(231.54428 -2.063206e-16 -20.713255)
(230.52542 1.9446349e-16 -20.491445)
(229.49595 -1.8428145e-16 -20.242903)
(228.45895 3.4763734e-16 -19.966938)
(227.41772 -1.6404883e-16 -19.663089)
(226.37571 1.5514113e-16 -19.331168)
(225.3365 -2.9248691e-16 -18.97127)
(224.3037 1.3766199e-16 -18.583803)
(223.28095 1.3000501e-16 -18.169494)
(222.27181 -2.4527779e-16 -17.729381)
(221.27971 5.6953744e-17 -17.264821)
(220.30788 -5.6649938e-19 -16.777471)
(219.35931 2.5517436e-16 -16.26925)
(218.43669 0 -15.742329)
(217.54237 1.922761e-19 -15.199079)
(216.67831 0 -14.642026)
(215.8461 -7.9643628e-17 -14.073813)
(215.0469 -1.4967188e-16 -13.49715)
(214.28147 7.0273097e-17 -12.91476)
(213.5502 0 -12.329338)
(212.85309 -6.1920685e-17 -11.743506)
(212.18979 2.8981834e-16 -11.159774)
(211.55969 -3.2537597e-16 -10.58051)
(210.96186 -3.0486361e-16 -10.00791)
(210.39521 2.846506e-16 -9.4439799)
(209.85842 -1.7763597e-16 -8.8905209)
(209.35005 0 -8.3491228)
(208.86856 0 -7.8211605)
(208.41235 7.2496864e-17 -7.3077938)
(207.97977 6.7656381e-17 -6.8099722)
(207.56915 1.2608804e-16 -6.3284403)
(207.17885 -5.8796892e-17 -5.8637491)
(206.80725 -1.0952465e-16 -5.4162696)
(206.45276 -2.0423776e-16 -4.9862093)
(206.1138 -9.5278249e-17 -4.5736276)
(205.78888 1.7690221e-16 -4.178453)
(205.47651 0 -3.8005071)
(205.17523 -7.662291e-17 -3.4395167)
(204.88361 -1.4242564e-16 -3.0951337)
(204.60025 1.3233464e-16 -2.7669841)
(204.32377 6.1383269e-17 -2.4546771)
(204.05274 5.7090476e-17 -2.1578217)
(203.78578 0 -1.8760805)
(203.52153 1.9681848e-16 -1.6092045)
(203.25879 1.8263367e-16 -1.3570902)
(202.99663 -2.5414087e-16 -1.1198977)
(202.73469 7.8601841e-17 -0.89829041)
(202.47386 -7.285457e-17 -0.69365002)
(202.21719 -4.0643941e-20 -0.50797667)
(201.97027 2.5038564e-16 -0.34391737)
(201.73921 -2.320295e-16 -0.20531494)
(201.52876 5.3709246e-17 -0.093333184)
(201.3414 1.4936052e-16 0.002386861)
(201.16092 -4.6124598e-17 0.079529211)
(200.94033 -4.2716222e-17 0.086867944)
(200.7357 0 0.12038996)
(200.70208 3.6621239e-17 0.62889917)
(220.01484 3.9227724e-16 -34.374252)
(259.26126 5.3861138e-19 -14.479601)
(241.04243 -3.596483e-16 -34.01685)
(251.16267 0 -16.719008)
(244.14784 0 -31.541392)
(247.28765 -2.6835139e-16 -19.807568)
(244.40358 2.7146758e-16 -28.52694)
(244.92468 6.4385163e-17 -22.679992)
(243.63271 -2.4437117e-16 -26.242466)
(243.16729 2.3114586e-16 -24.394538)
(242.29859 -2.4703501e-16 -25.221207)
(241.53709 2.076363e-16 -24.912784)
(240.70377 -4.9257221e-17 -24.978966)
(239.85274 -4.6709557e-17 -24.920263)
(238.97037 -1.7699398e-16 -24.87172)
(238.06049 1.6717648e-16 -24.800045)
(237.12332 -3.5699627e-16 -24.710092)
(236.16013 6.0008649e-16 -24.598904)
(235.17238 -2.8353219e-16 -24.465068)
(234.16185 -2.6901151e-16 -24.306883)
(233.13064 2.5368423e-16 -24.122791)
(232.08118 -3.0208582e-17 -23.911324)
(231.01625 -2.2739248e-16 -23.67115)
(229.93893 2.1420863e-16 -23.401133)
(228.85258 2.5373868e-16 -23.10035)
(227.76084 -1.4307958e-16 -22.768137)
(226.66755 0 -22.404132)
(225.57671 2.5585628e-16 -22.008292)
(224.49242 -3.2136084e-16 -21.580934)
(223.4188 1.1307682e-16 -21.122734)
(222.35992 -2.8586284e-16 -20.634748)
(221.31971 2.0140678e-16 -20.118399)
(220.30193 -6.3457781e-17 -19.575466)
(219.31005 2.3846911e-16 -19.008053)
(218.34719 -2.2369226e-16 -18.418568)
(217.41609 -2.1081384e-16 -17.80966)
(216.51906 1.9759358e-16 -17.184184)
(215.65793 -4.6343145e-17 -16.545145)
(214.83407 0 -15.895631)
(214.04836 8.2001689e-17 -15.238764)
(213.3012 -7.6538652e-17 -14.577643)
(212.59257 0 -13.915288)
(211.92201 1.3476476e-16 -13.254596)
(211.28875 -6.3041623e-17 -12.598301)
(210.69164 -1.767607e-16 -11.948941)
(210.12933 5.5135329e-16 -11.308835)
(209.60022 -2.0642979e-16 -10.680062)
(209.10257 9.627954e-17 -10.06446)
(208.63451 -2.6996472e-16 -9.4636166)
(208.19411 -1.8055462e-19 -8.8788743)
(207.77941 1.5652826e-16 -8.3113382)
(207.38846 -1.4602029e-16 -7.7618838)
(207.01932 -6.7954905e-17 -7.2311696)
(206.6701 -6.329894e-17 -6.7196524)
(206.33899 -1.181892e-16 -6.2276034)
(206.02424 2.1949404e-16 -5.7551283)
(205.72416 0 -5.3021852)
(205.43715 9.4852642e-17 -4.8686033)
(205.16169 -3.5294725e-16 -4.4541017)
(204.89631 2.4564957e-16 -4.0583145)
(204.63961 7.6022002e-17 -3.6808012)
(204.39021 1.4122764e-16 -3.3210709)
(204.14681 1.3121687e-16 -2.9786267)
(203.90812 -1.2142501e-16 -2.6529753)
(203.67285 -1.125235e-16 -2.3436446)
(203.43973 -3.1300243e-16 -2.0502334)
(203.2076 -3.6910202e-20 -1.7724486)
(202.97545 -8.9454345e-17 -1.5101695)
(202.74258 0 -1.2635785)
(202.50893 -2.2996186e-16 -1.0333757)
(202.27562 7.0912392e-17 -0.8209192)
(202.04584 0 -0.62815746)
(201.82475 1.2130306e-16 -0.45781007)
(201.61804 0 -0.31345847)
(201.43084 1.0360008e-16 -0.19503251)
(201.2651 -1.4353547e-16 -0.09322031)
(201.10187 1.3260086e-16 -0.015406067)
(200.9 -8.1647241e-17 -0.0021746482)
(200.70793 7.5385681e-17 0.063314353)
(200.64893 0 0.49166311)
(219.80395 -4.1215128e-16 -38.408142)
(259.40229 3.6431337e-16 -17.461704)
(240.59896 -3.3368847e-16 -37.950094)
(251.02818 3.3186465e-16 -19.959569)
(243.62809 3.1776789e-16 -35.150805)
(246.82304 -1.8069597e-17 -23.24686)
(243.82896 -2.8453303e-16 -31.919082)
(244.29346 -2.7009747e-16 -26.252443)
(242.91241 2.8748776e-16 -29.563978)
(242.34119 0 -27.916184)
(241.40058 2.8684508e-17 -28.569)
(240.54514 0 -28.310954)
(239.62426 -1.2901039e-16 -28.317636)
(238.68114 2.4359261e-16 -28.232521)
(237.70619 0 -28.142459)
(236.70282 0 -28.026475)
(235.67202 0 -27.886392)
(234.61571 3.9226893e-17 -27.719535)
(233.53607 0 -27.524205)
(232.43566 -2.453273e-16 -27.298607)
(231.31747 3.3054103e-16 -27.041125)
(230.18482 1.2506649e-16 -26.750339)
(229.04143 1.7733294e-16 -26.425046)
(227.89131 -2.785426e-16 -26.064344)
(226.73877 -5.2489053e-17 -25.667655)
(225.58831 -2.4838996e-16 -25.23477)
(224.44459 1.8694715e-16 -24.765887)
(223.31233 -2.2079243e-16 -24.261632)
(222.19621 8.26141e-17 -23.723068)
(221.10079 7.8101077e-17 -23.151698)
(220.03044 0 -22.549452)
(218.98919 2.7782371e-16 -21.918653)
(217.98073 -2.6093444e-16 -21.26199)
(217.00826 0 -20.582454)
(216.07451 -2.3066583e-16 -19.883297)
(215.18162 2.1605659e-16 -19.167951)
(214.33118 -1.0181132e-16 -18.439966)
(213.52421 1.9061437e-16 -17.702943)
(212.76114 -2.6782946e-16 -16.960456)
(212.0419 1.2618526e-19 -16.215997)
(211.36589 -1.5648433e-16 -15.472915)
(210.73212 -7.3232898e-17 -14.734369)
(210.13918 -1.3744082e-16 -14.003283)
(209.58538 2.5622501e-16 -13.282325)
(209.06877 -1.1956818e-16 -12.573883)
(208.58723 0 -11.880055)
(208.13849 -3.775641e-19 -11.202648)
(207.72024 9.7267682e-17 -10.543185)
(207.33013 0 -9.9029122)
(206.96581 8.4601079e-17 -9.282814)
(206.625 7.9100279e-17 -8.6836318)
(206.3055 -7.3447323e-17 -8.1058798)
(206.00518 2.7344681e-16 -7.5498657)
(205.72202 -2.5420753e-16 -7.0157117)
(205.45414 -1.1822702e-16 -6.5033758)
(205.19972 -1.0983222e-16 -6.0126737)
(204.9571 1.0198375e-16 -5.5432983)
(204.7247 1.891791e-16 -5.0948394)
(204.50105 -3.5092337e-16 -4.6668033)
(204.28475 4.0669843e-16 -4.2586375)
(204.07451 -1.5069644e-16 -3.8697378)
(203.86905 1.3968572e-16 -3.4994779)
(203.6672 -1.2930612e-16 -3.1472481)
(203.46781 2.3947706e-16 -2.8124607)
(203.26972 -3.3244465e-16 -2.4945734)
(203.07186 2.0494198e-16 -2.1931312)
(202.87322 -7.8422977e-20 -1.9078085)
(202.67302 8.7598571e-17 -1.6384808)
(202.47081 0 -1.3853589)
(202.26678 0 -1.1491669)
(202.06234 0 -0.9312326)
(201.86067 -1.2729426e-16 -0.73348193)
(201.66657 1.4698924e-20 -0.55867)
(201.48542 0 -0.40995927)
(201.32263 0 -0.28638593)
(201.17935 9.2003877e-17 -0.18028838)
(201.03504 -1.6949714e-16 -0.10157048)
(200.85429 0 -0.08006321)
(200.68159 0 0.0085005772)
(200.5856 -1.3201795e-16 0.36729858)
(219.35163 2.7814324e-17 -42.643539)
(259.30178 -7.8885012e-16 -20.596849)
(239.88219 3.491482e-16 -42.024358)
(250.37089 -2.1816534e-17 -23.384364)
(242.79947 3.7458693e-16 -38.88244)
(246.02544 -3.5326525e-16 -26.909827)
(242.94408 0 -35.427682)
(243.27831 -3.1819225e-16 -30.015712)
(241.84688 2.3391824e-16 -32.998952)
(241.1523 2.2216597e-16 -31.576208)
(240.12651 -2.398139e-16 -32.049754)
(239.1632 0 -31.823386)
(238.14054 1.8985673e-19 -31.76838)
(237.09192 0 -31.643055)
(236.0114 3.8624379e-16 -31.500101)
(234.90237 -7.2964514e-16 -31.326175)
(233.7668 3.4446795e-16 -31.121277)
(232.6075 -4.0690096e-17 -30.882842)
(231.42763 -3.8662142e-17 -30.608998)
(230.23085 3.6742472e-17 -30.297951)
(229.02123 -6.8618899e-17 -29.948184)
(227.80328 -3.2504309e-16 -29.558481)
(226.58183 3.0592481e-16 -29.128003)
(225.36201 5.7669625e-17 -28.65634)
(224.14916 -2.732779e-16 -28.143536)
(222.9487 -6.8948652e-19 -27.590154)
(221.76608 2.9024449e-16 -26.997265)
(220.60662 -1.8216605e-16 -26.366473)
(219.47542 -6.0633517e-19 -25.699887)
(218.37724 0 -25.000102)
(217.31643 0 -24.270154)
(216.29678 -7.1669635e-17 -23.513457)
(215.32149 1.3417832e-16 -22.733742)
(214.39311 0 -21.934972)
(213.51349 -1.1858498e-16 -21.121261)
(212.68379 2.2189195e-16 -20.296789)
(211.90447 -1.0395463e-16 -19.46571)
(211.17536 -1.9480916e-16 -18.632082)