/*--------------------------------*- C++ -*----------------------------------*\
  =========                 |
  \\      /  F ield         | OpenFOAM: The Open Source CFD Toolbox
   \\    /   O peration     | Website:  https://openfoam.org
    \\  /    A nd           | Version:  12
     \\/     M anipulation  |
\*---------------------------------------------------------------------------*/
FoamFile
{
    format      ascii;
    class       volScalarField;
    location    "0.062";
    object      omega;
}
// * * * * * * * * * * * * * * * * * * * * * * * * * * * * * * * * * * * * * //

dimensions      [0 0 -1 0 0 0 0];

internalField   nonuniform List<scalar> 
16000
(
1093.2248
2201.8469
1064.5598
641.92311
452.56824
314.91706
238.74698
180.37071
145.26893
117.73227
100.04893
85.688807
75.00685
66.09412
58.813229
52.679847
47.50055
43.082466
39.285445
35.998046
33.136593
30.630363
28.421162
26.462662
24.717457
23.156477
21.755656
20.49641
19.362973
18.340942
17.417299
16.581783
15.826224
15.143703
14.52831
13.974552
13.477251
13.031525
12.633301
12.279139
11.965161
11.687293
11.44258
11.228331
11.041485
10.878924
10.738226
10.617089
10.513307
10.424802
10.349724
10.286452
10.233465
10.189421
10.153165
10.123812
10.100727
10.08354
10.072384
10.06796
10.069285
10.070809
10.071332
10.071353
10.070717
10.069529
10.068027
10.066623
10.065836
10.066118
10.067609
10.070012
10.072637
10.07447
10.074137
10.069982
10.060602
10.045961
10.032549
10.043738
1135.1552
2192.7141
1058.7614
642.13681
452.80211
317.72989
239.8513
182.15262
146.12241
118.76529
100.60234
86.255953
75.374139
66.411051
59.044168
52.859599
47.632958
43.179495
39.354711
36.045173
33.166455
30.647569
28.429333
26.464714
24.715266
23.151533
21.748748
20.487972
19.353525
18.331248
17.407848
16.572708
15.817512
15.135231
14.519989
13.96636
13.469279
13.0238
12.625659
12.271542
11.957868
11.680335
11.435832
11.221792
11.035327
10.873169
10.732856
10.612105
10.508733
10.420653
10.34598
10.283107
10.230511
10.186848
10.150929
10.121834
10.098905
10.081706
10.070141
10.064682
10.065306
10.066787
10.067213
10.067145
10.066451
10.065239
10.063748
10.062368
10.061572
10.061766
10.063079
10.065244
10.067633
10.069284
10.068795
10.06435
10.054303
10.039328
10.029055
10.039163
1175.4918
2193.9883
1047.3009
638.69339
449.5546
318.01896
238.81382
182.3698
145.712
118.9353
100.46814
86.27646
75.282477
66.321198
58.920883
52.723555
47.485316
43.025943
39.19935
35.890324
33.014047
30.499681
28.287446
26.330074
24.588329
23.03266
21.637829
20.384621
19.257382
18.24231
17.326043
16.497693
15.74887
15.072452
14.462609
13.913964
13.421589
12.980582
12.586497
12.235999
11.925888
11.651745
11.410275
11.198932
11.015085
10.855355
10.717235
10.59846
10.496886
10.41045
10.337241
10.275678
10.224247
10.181627
10.146624
10.118292
10.095963
10.079194
10.067798
10.061984
10.061853
10.063175
10.063439
10.063213
10.062397
10.061107
10.059586
10.058211
10.057411
10.057537
10.058688
10.060613
10.06274
10.064155
10.063426
10.058604
10.047984
10.032774
10.025504
10.033729
1214.0226
2201.6848
1038.1408
635.39511
445.90362
318.08795
237.48258
182.42201
145.16448
119.00722
100.28382
86.236279
75.150114
66.184792
58.757684
52.549289
47.302605
42.839678
39.013669
35.707424
32.835572
30.327581
28.123032
26.174551
24.442038
22.895894
21.510438
20.26616
19.147338
18.140577
17.232529
16.41201
15.670568
15.000964
14.397416
13.854578
13.367651
12.931839
12.542538
12.196254
11.89024
11.620018
11.382099
11.17386
10.992997
10.836037
10.700412
10.583872
10.484305
10.3997
10.328108
10.26798
10.217813
10.176314
10.142292
10.114778
10.093089
10.076771
10.065585
10.059584
10.058786
10.059884
10.059953
10.059535
10.058566
10.057168
10.055585
10.054175
10.053331
10.053348
10.054297
10.05595
10.057789
10.058945
10.057956
10.052754
10.041617
10.026996
10.021755
10.028505
1250.5631
2219.8785
1030.1275
631.77135
441.4971
317.42234
235.47361
181.99203
144.24248
118.80346
99.912442
86.020741
74.879242
65.917014
58.480067
52.27153
47.027216
42.569673
38.752223
35.455891
32.594658
30.098529
27.906499
25.971273
24.251959
22.718985
21.346295
20.114127
19.006596
18.010746
17.113369
16.302988
15.571119
14.910385
14.315065
13.779827
13.299981
12.870887
12.487874
12.147126
11.846375
11.581169
11.347864
11.143617
10.966522
10.813048
10.680553
10.566801
10.469705
10.387334
10.317701
10.259299
10.210633
10.170447
10.137569
10.111016
10.090087
10.074324
10.063461
10.057434
10.056112
10.056919
10.056753
10.056108
10.054951
10.053413
10.051735
10.050257
10.049337
10.049219
10.049938
10.051288
10.052808
10.053673
10.052405
10.046845
10.035322
10.021693
10.017889
10.023137
1284.9671
2245.8267
1025.7745
628.86961
437.58731
316.12897
232.98828
181.15552
143.04959
118.36193
99.397959
85.651951
74.489251
65.53501
58.102476
51.903401
46.670582
42.226081
38.423906
35.143591
32.298294
29.818773
27.643469
25.725193
24.022566
22.505989
21.149078
19.931886
18.838263
17.855681
16.971216
16.173078
15.45279
14.802814
14.217493
13.691505
13.220246
12.799239
12.423887
12.089926
11.79549
11.536255
11.308525
11.10907
10.936423
10.787054
10.658236
10.547751
10.453511
10.373713
10.30632
10.249878
10.202905
10.164183
10.132573
10.107088
10.087009
10.071872
10.0614
10.055483
10.053768
10.054229
10.053796
10.052894
10.051522
10.049816
10.048013
10.046432
10.045398
10.045111
10.045571
10.046587
10.047758
10.048302
10.046743
10.040886
10.029416
10.016867
10.013974
10.017415
1317.1938
2277.0143
1025.76
626.10617
433.74821
314.20057
230.40653
179.94932
141.68428
117.6854
98.74895
85.128665
73.976362
65.03659
57.621647
51.44184
46.229533
41.805841
38.025535
34.767452
31.943568
29.485576
27.331493
25.433564
23.751312
22.254585
20.916679
19.717548
18.640684
17.673936
16.804817
16.021205
15.314678
14.677502
14.104095
13.589141
13.1281
12.716636
12.350372
12.024693
11.737686
11.485383
11.264211
11.070398
10.902878
10.758225
10.633623
10.526876
10.435862
10.35896
10.294069
10.239808
10.194704
10.157583
10.12735
10.103028
10.083878
10.069433
10.059414
10.053625
10.05171
10.05178
10.051052
10.049869
10.048256
10.046357
10.044398
10.042678
10.041487
10.040994
10.041171
10.041835
10.042632
10.042827
10.040974
10.034898
10.023941
10.012528
10.010126
10.011598
1347.355
2310.8151
1027.2051
623.01302
429.95218
311.62644
227.82294
178.51529
140.20326
116.79472
97.981757
84.459182
73.341559
64.423583
57.037501
50.886104
45.702792
41.307593
37.554867
34.325142
31.528232
29.096769
26.968762
25.092683
23.43464
21.961457
20.646041
19.46834
18.411394
17.463325
16.612257
15.845705
15.155358
14.533245
13.973868
13.471914
13.022899
12.622585
12.266864
11.951725
11.673316
11.428884
11.215225
11.02802
10.866275
10.726902
10.607026
10.504458
10.417
10.343276
10.281115
10.22922
10.186136
10.150729
10.121961
10.098873
10.080717
10.067011
10.057483
10.051914
10.049878
10.049527
10.048479
10.046993
10.04512
10.043004
10.040864
10.038967
10.037575
10.036833
10.036701
10.037
10.037413
10.037248
10.035107
10.029078
10.018959
10.008728
10.006549
10.006916
1375.5486
2344.9875
1025.3172
619.13624
425.18776
308.35844
224.32037
176.68444
138.3876
115.72092
97.091617
83.642234
72.577666
63.691024
56.344811
50.230262
45.084469
40.726039
37.003678
33.808383
31.044366
28.644789
26.548616
24.703219
23.073819
21.628326
20.339178
19.186465
18.152746
17.22627
16.395965
15.648987
14.977207
14.372365
13.829058
13.341977
12.906697
12.51907
12.175048
11.870602
11.602131
11.366593
11.161396
10.982307
10.826973
10.69339
10.578787
10.480801
10.397196
10.326889
10.267646
10.218265
10.177318
10.14371
10.116467
10.094665
10.07755
10.06462
10.055604
10.050306
10.048215
10.047422
10.046034
10.044229
10.042076
10.039724
10.037377
10.035274
10.033639
10.032602
10.032128
10.032046
10.032067
10.031551
10.029161
10.023618
10.014492
10.005565
10.003422
10.002915
1401.8693
2377.8768
1017.0914
614.18199
418.72049
304.65868
220.00581
174.3892
136.5393
114.46342
96.068153
82.67223
71.676468
62.830668
55.535298
49.461187
44.360419
40.047579
36.370183
33.21788
30.494395
28.133105
26.074406
24.264149
22.668103
21.254602
19.995676
18.87169
17.864714
16.962923
16.15617
15.431401
14.780694
14.195431
13.670315
13.200037
12.780224
12.406821
12.075942
11.783616
11.52616
11.300388
11.104236
10.93317
10.784972
10.657657
10.549211
10.456176
10.376738
10.310036
10.25386
10.207101
10.168373
10.136619
10.110933
10.090442
10.074396
10.062271
10.053775
10.048746
10.04666
10.045415
10.04367
10.041534
10.039088
10.036481
10.033908
10.031574
10.029663
10.028288
10.027431
10.026943
10.026552
10.025704
10.023327
10.018499
10.010524
10.002927
10.000774
9.999438
1426.4115
2408.7696
1008.1121
608.15439
410.59922
300.5454
215.4628
171.89635
134.58394
113.02531
94.898316
81.541756
70.626065
61.821669
54.586114
48.573748
43.531819
39.27606
35.6523
32.551545
29.876222
27.559932
25.544847
23.775489
22.21778
20.840743
19.616216
18.524892
17.548385
16.674586
15.893959
15.194095
14.567038
14.003715
13.498934
13.047387
12.64476
12.287064
11.970586
11.691449
11.446055
11.231007
11.044624
10.882334
10.74176
10.620885
10.518257
10.43054
10.355868
10.292908
10.239956
10.195889
10.159427
10.129548
10.105424
10.086243
10.071269
10.059963
10.051995
10.047216
10.045147
10.043452
10.041339
10.038865
10.036116
10.033241
10.030422
10.027837
10.02563
10.023886
10.022609
10.021689
10.020876
10.019739
10.017845
10.013711
10.006984
10.00073
9.998686
9.996845
1449.3033
2438.7409
994.68003
600.55406
401.11116
296.022
210.73922
169.1482
132.60088
111.41039
93.555157
80.22016
69.388455
60.65734
53.500619
47.564395
42.594741
38.407847
34.848139
31.808283
29.189461
26.925234
24.960081
23.237535
21.723571
20.387301
19.201577
18.147068
17.204941
16.362799
15.609583
14.937362
14.336599
13.797643
13.315396
12.884534
12.500819
12.160307
11.859497
11.59462
11.362208
11.159445
10.983341
10.830251
10.697757
10.583709
10.487133
10.404767
10.334533
10.275448
10.22607
10.184777
10.1506
10.122589
10.099999
10.0821
10.068178
10.05769
10.050259
10.045695
10.04361
10.041479
10.038995
10.036182
10.033129
10.029974
10.026886
10.024026
10.021505
10.01938
10.017666
10.016304
10.015141
10.014205
10.012711
10.00926
10.003772
9.9989444
9.9971493
9.9952853
1470.8653
2466.7293
977.32191
592.13955
391.17698
291.1013
205.94404
166.20109
130.56231
109.59726
91.973879
78.690599
67.968515
59.331398
52.272047
46.429096
41.545979
37.441026
33.956475
30.987114
28.433763
26.229355
24.320294
22.650865
21.186672
19.8938
18.751433
17.738103
16.834391
16.028143
15.308254
14.666352
14.094367
13.582037
13.1243
12.715796
12.352418
12.030231
11.745985
11.496118
11.277069
11.08594
10.920636
10.777143
10.653093
10.546605
10.456074
10.379182
10.313616
10.258294
10.212092
10.173844
10.141989
10.115825
10.094717
10.078046
10.065131
10.055435
10.048552
10.04418
10.041988
10.039446
10.036595
10.033448
10.030091
10.026648
10.02327
10.0201
10.017236
10.014722
10.012586
10.010833
10.009686
10.0091
10.007993
10.005195
10.000865
9.997382
9.9962533
9.9943351
1491.3262
2488.8802
955.8079
583.1348
380.78782
285.82442
201.16224
163.06298
128.39742
107.49046
90.138484
76.941792
66.353022
57.835202
50.893938
45.162801
40.382248
36.373055
32.976062
30.087026
27.608871
25.473036
23.623992
22.014115
20.606584
19.366747
18.272924
17.305497
16.444432
15.677657
14.993869
14.384882
13.843544
13.359783
12.928253
12.543484
12.201603
11.898636
11.631574
11.397211
11.192075
11.013137
10.858677
10.724852
10.609182
10.509609
10.425133
10.353665
10.293175
10.241731
10.198577
10.162946
10.133628
10.109319
10.089629
10.074108
10.062137
10.053178
10.046845
10.042683
10.040233
10.037309
10.0341
10.030625
10.026966
10.02323
10.019537
10.016017
10.012769
10.009853
10.00735
10.005451
10.004755
10.004483
10.003756
10.001615
9.9983464
9.9960231
9.9958282
9.9941516
1510.9454
2500.3623
930.20509
573.49046
370.02185
280.22574
196.46671
159.65301
125.98587
105.0965
88.021186
74.955442
64.529029
56.158232
49.358594
43.760148
39.10035
35.201457
31.90611
29.104745
26.711828
24.654615
22.879746
21.337309
19.993265
18.812062
17.772064
16.854656
16.040169
15.316365
14.671729
14.09799
13.587352
13.133552
12.729517
12.369471
12.049915
11.766818
11.517314
11.298694
11.107607
10.94176
10.79806
10.673801
10.56661
10.474138
10.3955
10.329064
10.273017
10.225841
10.185742
10.152517
10.12534
10.103076
10.084774
10.07031
10.059209
10.050903
10.04508
10.041204
10.03831
10.03503
10.031473
10.027675
10.023711
10.019672
10.01565
10.011749
10.008082
10.004761
10.002006
10.000692
10.000334
10.000385
10.000066
9.9986238
9.9963695
9.9950936
9.9957458
9.9950274
1529.9442
2489.9819
900.93238
563.24387
358.92551
274.31139
191.84983
155.84363
123.25081
102.36997
85.591767
72.708361
62.480086
54.289048
47.658361
42.215402
37.697433
33.920154
30.74211
28.049145
25.755271
23.787758
22.095764
20.628895
19.354849
18.238541
17.257495
16.392063
15.627297
14.949193
14.345871
13.80966
13.333007
12.909715
12.533784
12.198823
11.901823
11.638775
11.406739
11.203733
11.026132
10.871991
10.738946
10.624017
10.525143
10.440289
10.367411
10.305812
10.253799
10.210348
10.173633
10.142731
10.117439
10.096913
10.080148
10.066667
10.056361
10.048626
10.043188
10.03956
10.036203
10.032577
10.028682
10.024558
10.020277
10.015922
10.011561
10.007276
10.003198
9.999602
9.9973738
9.9964479
9.9964368
9.9968291
9.9969742
9.9962755
9.9949801
9.9945963
9.9960147
9.9962029
1548.4845
2437.7985
869.56103
552.43458
347.55392
267.993
187.00016
151.60527
120.07926
99.262539
82.815981
70.175415
60.189938
52.217754
45.786445
40.518906
36.165924
32.540964
29.500654
26.931568
24.750963
22.884809
21.285038
19.901709
18.701328
17.654782
16.737479
15.930013
15.217133
14.586591
14.025836
13.527736
13.08507
12.692134
12.343961
12.033868
11.759111
11.515966
11.301146
11.113396
10.949063
10.806214
10.683251
10.577177
10.485897
10.407743
10.341015
10.28408
10.235819
10.195719
10.161964
10.133626
10.110047
10.091044
10.075596
10.063183
10.053591
10.046377
10.041188
10.037649
10.033894
10.029925
10.025697
10.02124
10.016625
10.011933
10.007227
10.002584
9.9982202
9.9949949
9.9932765
9.992742
9.9930676
9.9938327
9.9944854
9.9945175
9.994067
9.9943118
9.9962738
9.9968445
1566.4183
2403.6803
837.89945
540.99731
335.90868
260.72872
181.98982
146.83404
116.35767
95.715687
79.658154
67.33204
57.642862
49.935869
43.730254
38.682497
34.527739
31.079672
28.198756
25.770994
23.717164
21.963678
20.46135
19.168784
18.050401
17.077304
16.22621
15.478137
14.817916
14.23511
13.717063
13.256949
12.848002
12.484609
12.161983
11.875994
11.622646
11.398834
11.201697
11.028516
10.877001
10.744865
10.63128
10.533568
10.449453
10.37739
10.315889
10.263579
10.219214
10.182132
10.151053
10.124964
10.10322
10.085533
10.071267
10.059822
10.050874
10.044171
10.039164
10.035475
10.03137
10.027061
10.022502
10.017709
10.012743
10.007693
10.002642
9.9977234
9.9935239
9.991001
9.989747
9.9895762
9.9902355
9.9913865
9.9925454
9.9932137
9.9933649
9.9941236
9.9961458
9.997936
1583.2931
2360.1169
805.28751
528.60101
323.88604
252.28508
176.62479
141.41399
111.97684
91.667416
76.083969
64.156936
54.819889
47.428897
41.515629
36.729206
32.8075
29.563372
26.862376
24.592228
22.673358
21.042592
19.648568
18.450889
17.416704
16.518619
15.734308
15.045747
14.43758
13.899927
13.423481
13.000133
12.62374
12.289235
11.992296
11.728995
11.495797
11.289679
11.10808
10.948714
10.809508
10.688412
10.583488
10.493465
10.416001
10.349607
10.292916
10.244729
10.203965
10.169648
10.140978
10.11696
10.096938
10.080408
10.067146
10.056485
10.048174
10.041948
10.037189
10.03306
10.028639
10.023995
10.019109
10.013985
10.008666
10.003246
9.9978802
9.9928966
9.9895934
9.9876053
9.9867887
9.9869602
9.9879338
9.9894441
9.9910654
9.9923116
9.9930402
9.9941609
9.9961969
9.9983408
1598.455
2292.222
771.00593
514.76164
310.71188
242.51141
170.58967
135.20354
106.83475
87.057811
72.06699
60.630706
51.738861
44.745702
39.179903
34.698784
31.044204
28.027871
25.520051
23.420876
21.65087
20.148455
18.86564
17.764499
16.814531
15.990434
15.270989
14.638573
14.081364
13.588454
13.151415
12.7629
12.41712
12.109432
11.836086
11.593787
11.379333
11.189795
11.022775
10.876029
10.747709
10.636199
10.540097
10.457027
10.385617
10.324396
10.272072
10.227524
10.189788
10.158306
10.131741
10.109521
10.091004
10.075696
10.063321
10.053329
10.045488
10.039588
10.034995
10.030466
10.025731
10.020765
10.015564
10.010128
10.004482
9.9987246
9.9931592
9.9890178
9.9863015
9.9848207
9.9843899
9.9848637
9.9861031
9.9879008
9.9898922
9.9916271
9.992883
9.9943052
9.9962614
9.9986934
1610.7839
2222.5905
734.16781
498.88736
296.75525
231.20646
163.41397
128.03335
100.85333
81.856657
67.601683
56.795466
48.463178
41.946744
36.784017
32.645331
29.285053
26.511012
24.213014
22.291999
20.674092
19.301788
18.130075
17.123766
16.255118
15.501544
14.842561
14.264733
13.755044
13.303525
12.903021
12.546751
12.229374
11.946522
11.694754
11.471358
11.273866
11.099314
10.94561
10.810575
10.69235
10.589977
10.501062
10.424327
10.358328
10.301766
10.253415
10.212238
10.177374
10.148076
10.123404
10.102749
10.085554
10.071343
10.059763
10.050372
10.042912
10.037189
10.032617
10.027747
10.02271
10.01744
10.011943
10.006224
10.000313
9.9943862
9.9892859
9.9858389
9.9836565
9.9825859
9.9824647
9.9831671
9.9845875
9.9865593
9.9887834
9.9908962
9.9926983
9.9945375
9.9964689
9.998927
1617.4476
2138.3718
694.52429
479.28234
281.72983
218.04881
154.62349
119.76496
94.032477
76.112772
62.774077
52.761802
45.091872
39.120235
34.4034
30.631137
27.576334
25.059723
22.97473
21.232572
19.764902
18.519322
17.45478
16.539057
15.746764
15.05779
14.45589
13.927437
13.461396
13.047571
12.680075
12.352912
12.061263
11.801096
11.569052
11.362511
11.180098
11.0188
10.876839
10.752377
10.643605
10.548791
10.466501
10.39537
10.334139
10.281669
10.236854
10.198574
10.166347
10.139016
10.115975
10.096647
10.080564
10.067336
10.056442
10.04759
10.040492
10.034873
10.030121
10.024976
10.01966
10.014109
10.008336
10.002369
9.9962938
9.9904102
9.9861968
9.9832746
9.9815199
9.980752
9.9808342
9.9816645
9.9831618
9.9851871
9.9875025
9.9898669
9.9922148
9.9946728
9.99682
9.9991441
1613.2324
2034.9715
651.56425
453.65461
265.45405
202.68363
143.97855
110.42404
86.52567
69.957357
57.773705
48.680189
41.746453
36.362953
32.116253
28.720698
25.971773
23.711151
21.834711
20.264646
18.939597
17.812937
16.84818
16.016587
15.295384
14.666505
14.115532
13.630661
13.202114
12.821972
12.48369
12.182172
11.913155
11.673132
11.459134
11.268614
11.099387
10.949637
10.817623
10.70179
10.600659
10.512714
10.43627
10.370142
10.313103
10.264121
10.222525
10.186955
10.156697
10.1311
10.109506
10.091314
10.076239
10.063687
10.053354
10.044935
10.038182
10.032655
10.027588
10.022223
10.016663
10.010869
10.004844
9.9986301
9.9924468
9.9872608
9.9836024
9.9811302
9.9796877
9.9791203
9.9793103
9.9801837
9.981682
9.9836881
9.9860069
9.9884876
9.9912189
9.9943115
9.9970012
9.999356
1592.023
1902.8337
605.49177
421.32583
247.93483
184.89895
131.70503
100.34118
78.687504
63.720936
52.824909
44.718008
38.551263
33.768562
29.9943
26.970151
24.514812
22.497258
20.816302
19.405229
18.210417
17.191225
16.315922
15.559401
14.901538
14.32615
13.820391
13.374344
12.97933
12.628382
12.315481
12.036128
11.786509
11.563503
11.364487
11.187209
11.029689
10.890146
10.766956
10.658618
10.563823
10.481741
10.410361
10.348607
10.295365
10.249622
10.210461
10.17705
10.148525
10.124321
10.104022
10.086877
10.072488
10.060499
10.050594
10.042526
10.035926
10.030435
10.025107
10.019541
10.013775
10.007783
10.001579
9.9952383
9.9890823
9.9845805
9.9813343
9.9792015
9.9779938
9.9775736
9.9778416
9.9787451
9.9802409
9.9822275
9.9845314
9.9870287
9.9898661
9.9932616
9.9966602
9.9995281
1544.9312
1742.0176
557.46556
383.07578
230.05064
164.96186
118.49384
90.148105
70.979823
57.730605
48.153472
41.035517
35.622889
31.421361
28.098319
25.425896
23.245044
21.442828
19.937289
18.667132
17.586712
16.661061
15.862974
15.170922
14.567562
14.038596
13.571533
13.158406
12.791505
12.465364
12.173982
11.913418
11.680252
11.471685
11.285354
11.119228
10.971522
10.840624
10.725055
10.623434
10.534468
10.456931
10.38964
10.331305
10.280949
10.2376
10.200442
10.168919
10.141969
10.119049
10.099617
10.083219
10.069426
10.057865
10.048327
10.040415
10.033892
10.028356
10.022787
10.017023
10.011059
10.004875
9.9984919
9.9920682
9.9863254
9.982231
9.9793038
9.9774254
9.9764188
9.976154
9.9765404
9.9775271
9.9790653
9.9810588
9.9833656
9.9858983
9.9887847
9.9921927
9.9957891
9.9990873
1463.9039
1580.1112
508.4865
343.54069
206.08114
145.65204
105.28899
80.538401
63.860965
52.300078
43.974169
37.787021
33.071213
29.396583
26.476183
24.114769
22.176396
20.564493
19.209277
18.059569
17.076176
16.229262
15.495464
14.856254
14.296705
13.804653
13.370084
12.984697
12.641761
12.335669
12.061775
11.816425
11.596548
11.399611
11.223466
11.06626
10.926346
10.802226
10.692507
10.595875
10.511101
10.4371
10.373157
10.317663
10.269754
10.228511
10.19312
10.16284
10.137005
10.114966
10.096237
10.080384
10.067113
10.055926
10.04656
10.038752
10.032235
10.026613
10.020829
10.014871
10.008714
10.002351
9.9958192
9.9893657
9.984105
9.9802661
9.9775741
9.9758901
9.9750625
9.974963
9.9754956
9.9765985
9.9782083
9.9802277
9.9825429
9.9851126
9.9880575
9.9914876
9.9951759
9.9987326
1350.8684
1490.0567
462.40617
296.26187
182.21668
127.51287
93.354596
72.032241
57.703087
47.72102
40.503688
35.122937
30.999213
27.763946
25.174238
23.065533
21.323252
19.865463
18.631384
17.578712
16.673692
15.890607
15.209157
14.613115
14.089324
13.627028
13.217329
12.852902
12.527801
12.237549
11.977221
11.743625
11.533948
11.345886
11.177474
11.027017
10.893006
10.774067
10.668918
10.57634
10.49516
10.424228
10.362417
10.308792
10.262401
10.222397
10.188003
10.158553
10.133574
10.112227
10.094071
10.078661
10.065618
10.054619
10.045369
10.03761
10.031077
10.025372
10.019434
10.013325
10.007012
10.000502
9.993853
9.9873779
9.9824479
9.978795
9.9762605
9.9747049
9.9739991
9.9740173
9.9746523
9.9758346
9.9775015
9.9795652
9.9819361
9.9845907
9.9876068
9.9910503
9.9947794
9.9984596
1217.4526
1248.4909
422.25493
254.04216
160.02886
112.38627
83.48218
65.164479
52.836552
44.191989
37.894394
33.156417
29.491648
26.590403
24.248104
22.325558
20.725383
19.377786
18.231621
17.248599
16.399628
15.662069
15.017992
14.452926
13.954981
13.514275
13.122771
12.773722
12.461561
12.181687
11.930334
11.70436
11.501182
11.318635
11.154883
11.00833
10.877557
10.761265
10.658246
10.567366
10.487603
10.418221
10.357663
10.305088
10.259576
10.220301
10.186503
10.157495
10.132662
10.111462
10.093404
10.078061
10.065058
10.054067
10.044802
10.037005
10.030414
10.024633
10.018621
10.012419
10.006008
9.9993992
9.9926647
9.9861581
9.9813955
9.9778415
9.975389
9.9738922
9.9732328
9.9733011
9.9739926
9.9752299
9.9769534
9.9790795
9.98153
9.9842811
9.9873688
9.9908203
9.9945395
9.9982827
1097.6321
1111.1051
389.59099
223.35601
143.43379
101.25963
76.170535
60.161755
49.357131
41.715231
36.091376
31.819521
28.484506
25.821672
23.654952
21.86375
20.3631
19.091715
18.004428
17.067291
16.254293
15.545121
14.923621
14.376823
13.894598
13.466621
13.085639
12.745277
12.4403
12.166351
11.919838
11.6978
11.497787
11.317753
11.155962
11.01091
10.881253
10.765763
10.663287
10.572725
10.493021
10.423158
10.362173
10.309128
10.263151
10.223426
10.189204
10.159802
10.134606
10.113064
10.094691
10.079055
10.065779
10.054533
10.045028
10.037006
10.03021
10.024275
10.018298
10.012088
10.005672
9.9990493
9.9922947
9.9857577
9.9809292
9.977358
9.9749141
9.9734292
9.9727544
9.972808
9.9735455
9.9748174
9.9765692
9.9787367
9.9812532
9.984091
9.9872479
9.990711
9.9944032
9.9981742
1042.5806
1069.796
365.33648
206.27048
132.56309
93.705742
70.72146
56.185294
46.392763
39.457059
34.337168
30.430195
27.366859
24.910711
22.904407
21.239779
19.84039
18.650937
17.630568
16.748539
15.981278
15.310367
14.721121
14.201592
13.74189
13.333734
12.970107
12.645101
12.353751
12.091914
11.856153
11.643631
11.452
11.279309
11.12391
10.98438
10.859463
10.748009
10.648947
10.561254
10.483943
10.416061
10.356693
10.304963
10.260042
10.221158
10.187597
10.158707
10.1339
10.112646
10.094478
10.078978
10.065782
10.054572
10.045067
10.037017
10.030175
10.024192
10.018208
10.011991
10.005574
9.9989499
9.9921976
9.9856711
9.9808574
9.9772757
9.9747929
9.9732428
9.9725405
9.9723987
9.9732769
9.9745722
9.9763012
9.9784977
9.9810516
9.9839439
9.9871458
9.990622
9.9943067
9.9981106
31869.893
79728.971
37385.964
10858.05
1430.3838
614.74391
436.82741
353.0181
292.44417
237.73485
193.52421
160.04588
135.33056
116.98332
102.86824
91.32359
81.547203
73.212011
66.082033
59.934682
54.587896
49.905703
45.783456
42.135622
38.896557
36.001433
33.404653
31.066019
28.953491
27.041794
25.309394
23.737107
22.308167
21.007787
19.824352
18.748101
17.770253
16.883044
16.07938
15.352798
14.697667
14.108414
13.579963
13.107732
12.687233
12.314251
11.98497
11.695343
11.44167
11.220594
11.02885
10.863342
10.721107
10.599624
10.496371
10.409131
10.336977
10.280545
10.23956
10.215727
10.207195
10.205807
10.205101
10.203566
10.201416
10.198543
10.19458
10.188614
10.179227
10.165947
10.147683
10.127278
10.1044
10.100982
10.09567
10.110635
10.108189
10.138119
10.104785
10.141342
20005.904
60176.661
24967.23
5180.2419
981.56743
531.55183
400.09002
323.50969
265.60933
213.83423
175.2312
146.30731
125.15485
109.28173
96.758257
86.243348
77.278895
69.631336
63.065492
57.373398
52.39902
48.02671
44.164388
40.735764
37.678654
34.93975
32.477466
30.254215
28.241751
26.417365
24.761201
23.255488
21.884788
20.635498
19.497242
18.460993
17.518566
16.662752
15.8869
15.184968
14.551698
13.981753
13.470367
13.013203
12.605951
12.244602
11.925509
11.644729
11.398741
11.184319
10.998305
10.837708
10.699672
10.581783
10.481606
10.396929
10.326539
10.271545
10.231818
10.209102
10.201304
10.200171
10.199496
10.197984
10.195856
10.192974
10.188945
10.18331
10.174594
10.162071
10.144913
10.12634
10.105304
10.103381
10.099138
10.114115
10.109954
10.138539
10.101661
10.136906
28198.426
36051.328
13766.426
2594.8905
843.06665
501.03371
389.7342
307.9296
251.8693
202.0472
167.33017
140.13385
120.50094
105.52873
93.591914
83.491697
74.913644
67.597643
61.302781
55.835701
51.052876
46.845384
43.125185
39.819323
36.866752
34.220065
31.83899
29.686912
27.737674
25.969512
24.363283
22.901906
21.57064
20.356489
19.249788
18.241829
17.324761
16.491693
15.736216
15.052538
14.435626
13.880265
13.381897
12.93633
12.539365
12.187128
11.876082
11.602346
11.362531
11.153497
10.972158
10.815602
10.681068
10.56623
10.468579
10.386076
10.317223
10.263332
10.224572
10.202735
10.195456
10.194525
10.193892
10.192418
10.190323
10.187449
10.183423
10.177846
10.16983
10.158157
10.142221
10.12551
10.10623
10.105654
10.102441
10.117407
10.11157
10.138807
10.098052
10.131938
35807.791
24266.58
8482.8933
1567.2431
759.0045
477.40384
377.05928
291.69136
240.32162
191.17251
160.1775
134.13979
116.07834
101.92144
90.567953
80.877939
72.67421
65.666831
59.625625
54.370575
49.767914
45.714973
42.12792
38.937154
36.084965
33.523371
31.218416
29.133621
27.244446
25.529851
23.971382
22.552585
21.259353
20.079241
19.003255
18.02293
17.130734
16.320062
15.584717
14.919142
14.318505
13.777693
13.292356
12.858426
12.471807
12.128755
11.825835
11.559226
11.325667
11.122102
10.945515
10.793075
10.662179
10.550357
10.455294
10.375007
10.30786
10.25508
10.217309
10.19639
10.18962
10.188895
10.188303
10.186872
10.184818
10.181966
10.177948
10.17238
10.164863
10.154108
10.139481
10.124598
10.107214
10.107829
10.105669
10.120528
10.11306
10.138904
10.093822
10.126395
40431.374
20618.733
5964.9993
1237.1727
723.47969
459.78985
367.18532
278.94028
231.86902
182.87228
155.09769
129.46971
112.72887
99.050315
88.130794
78.746034
70.835549
64.064777
58.220568
53.132218
48.672793
44.743913
41.26468
38.16793
35.397956
32.909429
30.666425
28.638443
26.800456
25.131848
23.614686
22.232988
20.973141
19.823131
18.774515
17.818954
16.949195
16.158848
15.441878
14.792924
14.207306
13.679986
13.206797
12.783763
12.406871
12.072495
11.777278
11.517446
11.289865
11.091541
10.919525
10.771071
10.643657
10.534771
10.442224
10.364096
10.298723
10.24698
10.210154
10.190072
10.183813
10.183285
10.182737
10.181358
10.179355
10.176538
10.172553
10.167054
10.159768
10.149972
10.136727
10.123613
10.108269
10.110038
10.108912
10.123453
10.114363
10.138709
10.089331
10.120795
43267.966
19237.905
4586.5033
1163.4795
702.39544
441.01444
359.40691
268.84746
225.42014
176.22351
151.09964
125.50703
109.95664
96.572123
86.02796
76.894236
69.230653
62.655879
56.977638
52.030887
47.693885
43.871572
40.485412
37.470222
34.772065
32.34701
30.159197
28.181504
26.388967
24.761455
23.281399
21.933197
20.703654
19.581115
18.557619
17.624878
16.775904
16.004475
15.304686
14.671344
14.099895
13.585354
13.123722
12.711091
12.343522
12.017489
11.729702
11.476429
11.254651
11.061434
10.893898
10.74941
10.625321
10.519313
10.429245
10.353247
10.289724
10.238985
10.203079
10.183726
10.178045
10.177705
10.177205
10.175886
10.173945
10.171178
10.167244
10.16183
10.154705
10.145759
10.133947
10.122526
10.109347
10.112288
10.112022
10.126093
10.115441
10.13811
10.085114
10.115422
45529.968
17328.704
3682.7434
1111.589
686.50844
428.08615
353.19217
260.73542
220.4325
170.93061
147.9068
122.15762
107.6533
94.430547
84.211966
75.282758
67.826269
61.414362
55.876096
51.049582
46.817226
43.086521
39.780808
36.836486
34.201033
31.831809
29.694294
27.759915
26.007609
24.41682
22.97011
21.652161
20.450128
19.352651
18.352195
17.440467
16.610728
15.856882
15.173133
14.554435
13.99633
13.493869
13.043212
12.640493
12.281839
11.963812
11.683177
11.436238
11.22009
11.031855
10.868763
10.728014
10.607193
10.504012
10.41638
10.342481
10.280778
10.231108
10.196094
10.177498
10.172332
10.172165
10.171717
10.170468
10.168599
10.165897
10.162034
10.156728
10.149827
10.14149
10.131137
10.12133
10.110526
10.114509
10.11438
10.128352
10.116259
10.137049
10.080975
10.110292
47204.226
14660.629
3109.4164
1079.9164
674.38775
417.63386