/*--------------------------------*- C++ -*----------------------------------*\
  =========                 |
  \\      /  F ield         | OpenFOAM: The Open Source CFD Toolbox
   \\    /   O peration     | Website:  https://openfoam.org
    \\  /    A nd           | Version:  12
     \\/     M anipulation  |
\*---------------------------------------------------------------------------*/
FoamFile
{
    format      ascii;
    class       surfaceScalarField;
    location    "0.062";
    object      phi;
}
// * * * * * * * * * * * * * * * * * * * * * * * * * * * * * * * * * * * * * //

dimensions      [1 0 -1 0 0 0 0];

internalField   nonuniform List<scalar> 
31760
(
-0.00065126345
-0.051193774
0.051841963
-0.0016284542
-0.064699218
0.065673439
-0.0026328676
-0.063327892
0.064332652
-0.0036682579
-0.069032785
0.070064854
-0.0047587344
-0.070720417
0.071807453
-0.0058776744
-0.075010952
0.076126408
-0.0070686384
-0.077960603
0.079147914
-0.0082979925
-0.081991992
0.083217575
-0.0095894681
-0.085640277
0.086927814
-0.01093991
-0.089784741
0.091131094
-0.012347053
-0.093946924
0.095349801
-0.013822305
-0.098387983
0.099858788
-0.015360483
-0.10299472
0.10452825
-0.016969819
-0.10782942
0.10943391
-0.018649955
-0.11288086
0.11455593
-0.020405661
-0.11816581
0.11991623
-0.022239645
-0.1236924
0.12552086
-0.024155138
-0.12947216
0.13138188
-0.02615542
-0.13551618
0.13751043
-0.028243927
-0.14183583
0.14391803
-0.030424133
-0.14844361
0.15061722
-0.032699841
-0.15535158
0.15762039
-0.035074689
-0.16257344
0.16494107
-0.03755263
-0.170123
0.17259338
-0.040136675
-0.17801487
0.18059101
-0.042831457
-0.18626329
0.1889498
-0.045640918
-0.19488458
0.19768541
-0.048568527
-0.20389547
0.20681406
-0.051617825
-0.21331298
0.21635285
-0.054792908
-0.22315527
0.22632052
-0.05809713
-0.23344139
0.23673535
-0.061533866
-0.24419125
0.24761728
-0.065105971
-0.25542644
0.25898739
-0.068816531
-0.26716817
0.27086712
-0.072667568
-0.27944063
0.2832796
-0.076660765
-0.2922682
0.29624887
-0.08079747
-0.30567671
0.30980043
-0.08507816
-0.31969398
0.32396122
-0.08950264
-0.33434811
0.33875868
-0.094069563
-0.34967069
0.35422324
-0.098776877
-0.36569361
0.37038611
-0.10362107
-0.38245082
0.38727975
-0.10859742
-0.39997853
0.40493921
-0.11369995
-0.41831481
0.4234013
-0.11892072
-0.43750026
0.44270465
-0.12425031
-0.45757676
0.46288972
-0.12967684
-0.47858954
0.48399924
-0.13518698
-0.5005853
0.50607851
-0.14076477
-0.52361448
0.52917536
-0.14639134
-0.54772931
0.5533391
-0.152045
-0.57298464
0.57862184
-0.15770148
-0.59943908
0.60507963
-0.1633325
-0.62715364
0.63276953
-0.1689061
-0.65619276
0.66175235
-0.17438664
-0.68662412
0.69209217
-0.17973287
-0.71851986
0.72385566
-0.18489927
-0.75195517
0.75711381
-0.18983481
-0.78700945
0.79194074
-0.19448132
-0.82376674
0.82841354
-0.19877477
-0.86231484
0.86661439
-0.20264305
-0.90274537
0.90662718
-0.20600624
-0.94515331
0.9485394
-0.20877499
-0.9896373
0.99244062
-0.21085007
-1.0362984
1.0384224
-0.2121211
-1.0852375
1.0865749
-0.21246591
-1.1365564
1.1369883
-0.2117474
-1.1903534
1.1897462
-0.20981959
-1.2467208
1.2449321
-0.20651546
-1.305751
1.3026168
-0.20164806
-1.367528
1.362864
-0.19501538
-1.4321285
1.4257346
-0.18639835
-1.4996193
1.4912775
-0.17554546
-1.5700618
1.5595204
-0.16219415
-1.6435074
1.6305007
-0.14604654
-1.7200299
1.7042509
-0.12680246
-1.7997591
1.7808898
-0.10400503
-1.8829758
1.8605255
-0.077660975
-1.9701407
1.9440753
-0.046269405
-2.061438
2.0302315
-2.1594988
2.1244479
-0.00064669039
-0.050549523
-0.001527915
-0.063820519
-0.0024331242
-0.062427158
-0.0034070616
-0.068061413
-0.0043929821
-0.069737198
-0.0054564371
-0.073950165
-0.0065360668
-0.076883945
-0.0076961568
-0.080835016
-0.0088830252
-0.08445669
-0.010144872
-0.088526334
-0.011450595
-0.092644811
-0.012824513
-0.097017848
-0.01425678
-0.10156642
-0.015756449
-0.10633391
-0.017323765
-0.11131789
-0.018962915
-0.11653122
-0.020676122
-0.12198397
-0.022467206
-0.12768607
-0.024339429
-0.13364919
-0.026296425
-0.13988431
-0.028341903
-0.14640386
-0.03047917
-0.15322031
-0.032712386
-0.1603465
-0.035045299
-0.16779664
-0.037482769
-0.17558426
-0.040027662
-0.18372555
-0.042684737
-0.19223498
-0.045457792
-0.20113022
-0.048351179
-0.21042773
-0.051368534
-0.2201464
-0.054514008
-0.23030475
-0.057791004
-0.24092344
-0.061202895
-0.2520241
-0.064752738
-0.26362824
-0.068443025
-0.27576062
-0.072276145
-0.28844572
-0.076253322
-0.30171054
-0.080376117
-0.31558255
-0.084643909
-0.33009202
-0.089056317
-0.34527031
-0.09361174
-0.36115054
-0.098307048
-0.37776814
-0.10313781
-0.39516065
-0.10809885
-0.41336686
-0.11318293
-0.4324294
-0.11838128
-0.45239171
-0.12368339
-0.4733007
-0.12907629
-0.49520554
-0.13454527
-0.5181584
-0.14007324
-0.54221382
-0.14564021
-0.56742956
-0.15122339
-0.59386697
-0.1567967
-0.62159028
-0.16233086
-0.65066712
-0.16779265
-0.681169
-0.17314449
-0.71317232
-0.1783445
-0.74675643
-0.18334556
-0.78200582
-0.18809463
-0.81901023
-0.19253305
-0.85786282
-0.19659484
-0.8986622
-0.20020663
-0.9415104
-0.20328635
-0.98651439
-0.20574402
-1.0337827
-0.20747844
-1.0834273
-0.20837901
-1.1355587
-0.20831916
-1.1902912
-0.20716307
-1.2477264
-0.20475967
-1.3079722
-0.2009402
-1.3711309
-0.1955206
-1.4372954
-0.18829468
-1.5065554
-0.17903776
-1.5789922
-0.16750227
-1.6546836
-0.15342568
-1.7337247
-0.13650641
-1.8162928
-0.11641702
-1.9027093
-0.092905599
-1.9933708
-0.065103134
-2.08904
-2.1909035
-0.00058390737
-0.049967701
-0.0014057453
-0.063000747
-0.0022281359
-0.061606911
-0.0031439902
-0.067147788
-0.0040499289
-0.068833575
-0.0050426038
-0.072959619
-0.0060376233
-0.075891505
-0.007116552
-0.079758795
-0.0082155667
-0.083360526
-0.0093878873
-0.087356998
-0.010600831
-0.091434999
-0.011878359
-0.0957436
-0.013211581
-0.10023663
-0.01460876
-0.10494033
-0.016070607
-0.10985981
-0.017600744
-0.11500503
-0.019202555
-0.12038628
-0.020879026
-0.12601392
-0.022634471
-0.13189826
-0.024471753
-0.13805176
-0.026395406
-0.14448516
-0.028408997
-0.15121189
-0.030516455
-0.15824445
-0.032722616
-0.16559613
-0.035030797
-0.17328197
-0.037446269
-0.18131624
-0.039972533
-0.18971514
-0.042614721
-0.19849472
-0.045376447
-0.20767297
-0.048262933
-0.21726716
-0.05127735
-0.22729786
-0.054424102
-0.2377845
-0.05770707
-0.24874923
-0.061129007
-0.26021469
-0.064693582
-0.27220472
-0.06840303
-0.28474522
-0.072259658
-0.29786313
-0.076264035
-0.31158765
-0.080417226
-0.32594856
-0.084718747
-0.34097874
-0.089166816
-0.35671262
-0.093759303
-0.37318596
-0.098492783
-0.39043758
-0.1033617
-0.4085084
-0.10835995
-0.42744161
-0.11347935
-0.44728265
-0.11871046
-0.46807974
-0.12404106
-0.48988477
-0.12945823
-0.51275058
-0.13494587
-0.5367349
-0.14048526
-0.56189804
-0.14605634
-0.58830265
-0.15163505
-0.61601695
-0.1571946
-0.6451112
-0.16270478
-0.67566026
-0.16813153
-0.70774429
-0.17343696
-0.74144633
-0.17857748
-0.77685642
-0.18350602
-0.81406753
-0.18816841
-0.85317968
-0.19250541
-0.89429627
-0.19645008
-0.93752661
-0.19992895
-0.98298384
-0.20285942
-1.0307853
-0.20515006
-1.0810513
-0.20669853
-1.133903
-0.20739584
-1.1894612
-0.20711538
-1.2478451
-0.20571733
-1.3091761
-0.20305348
-1.3735657
-0.19895046
-1.4411327
-0.19322678
-1.5119757
-0.1856727
-1.5862061
-0.1760674
-1.6639163
-0.16416476
-1.7452336
-0.1496933
-1.8303705
-0.13237506
-1.9196679
-0.11188691
-2.0135736
-0.087670233
-2.1130473
-2.2185314
-0.00052681218
-0.049442736
-0.0012869555
-0.062242437
-0.0020340033
-0.060861532
-0.0028965424
-0.06628724
-0.0037354651
-0.067996654
-0.0046604182
-0.072036405
-0.005577545
-0.074976636
-0.0065818852
-0.078756825
-0.0075995801
-0.082345301
-0.0086897244
-0.086269437
-0.0098172552
-0.090310173
-0.011006401
-0.094557282
-0.012249261
-0.09899673
-0.013553137
-0.10363955
-0.01491974
-0.10849645
-0.016352879
-0.11357528
-0.01785589
-0.11888682
-0.01943219
-0.12444133
-0.021085291
-0.13024904
-0.022819587
-0.13632152
-0.024638289
-0.1426707
-0.026546513
-0.1493081
-0.028548217
-0.15624737
-0.030647438
-0.16350174
-0.032849395
-0.17108506
-0.035158098
-0.17901279
-0.037578656
-0.18730005
-0.040115478
-0.19596358
-0.042774097
-0.20502025
-0.045557943
-0.21448944
-0.048472236
-0.22438992
-0.051521422
-0.23474189
-0.054709279
-0.24556817
-0.058039774
-0.2568912
-0.061516397
-0.26873532
-0.065141678
-0.28112737
-0.068917901
-0.29409453
-0.072847043
-0.3076663
-0.076929497
-0.32187405
-0.081165338
-0.33675098
-0.085553973
-0.35233215
-0.090092705
-0.36865544
-0.094778683
-0.38575981
-0.09960746
-0.40368776
-0.10457298
-0.42248407
-0.10966859
-0.44219478
-0.11488435
-0.46287135
-0.12021107
-0.48456492
-0.12563559
-0.50733228
-0.13114385
-0.53123202
-0.13671965
-0.55632655
-0.14234375
-0.58268151
-0.14799517
-0.61036683
-0.15365018
-0.63945544
-0.15928071
-0.67002647
-0.16485725
-0.7021614
-0.17034507
-0.73594839
-0.17570589
-0.77148084
-0.18089701
-0.80885594
-0.18587035
-0.84817882
-0.1905725
-0.88955793
-0.19494379
-0.93310846
-0.19891827
-0.97894948
-0.202422
-1.027206
-0.20537314
-1.0780056
-0.20768272
-1.1314766
-0.20924462
-1.1877565
-0.20995255
-1.2469649
-0.20967787
-1.3092458
-0.20828807
-1.3747154
-0.20562993
-1.4435137
-0.2015274
-1.5157635
-0.19580457
-1.5915774
-0.18825226
-1.6710853
-0.17865308
-1.7544295
-0.16676472
-1.8418584
-0.15232904
-1.9337423
-0.13503046
-2.0305849
-0.11445654
-2.133407
-2.2422309
-0.00047071184
-0.04897359
-0.001182547
-0.061532169
-0.0018504249
-0.060195374
-0.0026556673
-0.065483688
-0.0034195877
-0.067234417
-0.0042855529
-0.071171942
-0.0051346194
-0.074129512
-0.0060719941
-0.077821478
-0.0070170788
-0.081402315
-0.0080327201
-0.085255989
-0.0090844944
-0.089260695
-0.010195378
-0.0934488
-0.011359574
-0.097835049
-0.012583294
-0.10241846
-0.01386894
-0.10721356
-0.015219645
-0.11222746
-0.016639195
-0.11747029
-0.018131398
-0.12295229
-0.019699983
-0.12868377
-0.021349019
-0.13467595
-0.023083268
-0.14094007
-0.024906119
-0.14748903
-0.026823146
-0.15433429
-0.028838994
-0.16149
-0.030958248
-0.16897008
-0.033186262
-0.17678921
-0.035528328
-0.18496259
-0.037989473
-0.19350721
-0.040574721
-0.20243995
-0.043289382
-0.21177989
-0.046138443
-0.22154614
-0.049126493
-0.2317593
-0.052258011
-0.24244227
-0.055537474
-0.25361752
-0.058968161
-0.26531056
-0.062553275
-0.27754832
-0.06629543
-0.29035855
-0.070196627
-0.30377139
-0.074257701
-0.31781933
-0.078479106
-0.33253597
-0.082859833
-0.34795781
-0.087398716
-0.36412289
-0.092092435
-0.38107231
-0.096937235
-0.39884899
-0.10192854
-0.41749853
-0.10705917
-0.43706954
-0.11232169
-0.45761373
-0.11770664
-0.47918423
-0.12320293
-0.50183944
-0.12879852
-0.52563885
-0.13447835
-0.55064786
-0.1402263
-0.57693314
-0.14602353
-0.60456727
-0.15184877
-0.63362554
-0.15767861
-0.66418913
-0.16348605
-0.69634302
-0.16924055
-0.73017879
-0.1749093
-0.76579192
-0.18045405
-0.80328484
-0.18583316
-0.84276582
-0.19099914
-0.88434887
-0.19589972
-0.9281536
-0.20047629
-0.97430511
-0.20466414
-1.0229341
-0.20839112
-1.0741753
-0.21157563
-1.1281661
-0.21413182
-1.185048
-0.21595353
-1.2449612
-0.21694009
-1.3080445
-0.21695788
-1.3744476
-0.21587858
-1.4443063
-0.2135482
-1.5177697
-0.20980065
-1.5949648
-0.2044547
-1.6760402
-0.19731064
-1.7611641
-0.188152
-1.850613
-0.17675609
-1.9447775
-0.16281963
-2.044236
-0.14601817
-2.1499946
-2.2618225
-0.00042024944
-0.048554664
-0.0010902905
-0.060863443
-0.001694741
-0.059592293
-0.0024405112
-0.064739334
-0.003126945
-0.06654941
-0.0039403302
-0.070360035
-0.004721143
-0.073350368
-0.0055975086
-0.076946822
-0.0064777666
-0.080523839
-0.0074305134
-0.084305094
-0.0084207263
-0.088272426
-0.0094679544
-0.092403608
-0.010568619
-0.096736521
-0.011727416
-0.1012619
-0.01294718
-0.10599614
-0.0142318
-0.1109453
-0.015584798
-0.11611987
-0.017010076
-0.12152971
-0.018512168
-0.1271845
-0.020095096
-0.13309597
-0.021764
-0.13927423
-0.023523739
-0.14573249
-0.025379509
-0.15248184
-0.027336474
-0.15953648
-0.029400317
-0.1669098
-0.031576928
-0.1746163
-0.033871121
-0.18267222
-0.036289298
-0.19109299
-0.038836855
-0.19989647
-0.041519277
-0.20910168
-0.044342266
-0.21872748
-0.047310508
-0.2287955
-0.050429519
-0.23932782
-0.053702706
-0.25034899
-0.057134697
-0.26188332
-0.060728938
-0.2739589
-0.064487734
-0.28660463
-0.068413168
-0.29985085
-0.072506875
-0.31373052
-0.076768985
-0.32827871
-0.081199441
-0.34353213
-0.085796252
-0.35953072
-0.090557676
-0.37631532
-0.09548041
-0.39393041
-0.10055928
-0.41242344
-0.10578905
-0.43184307
-0.11116374
-0.45224172
-0.11667421
-0.47367567
-0.12231216
-0.49620245
-0.12806571
-0.51988507
-0.13392372
-0.54478818
-0.13987153
-0.57098189
-0.14589335
-0.59853987
-0.15197119
-0.62753952
-0.1580847
-0.65806432
-0.16421097
-0.69020168
-0.170325
-0.72404511
-0.17639735
-0.75969443
-0.18239605
-0.79725433
-0.18828451
-0.8368375
-0.19402297
-0.87856081
-0.19956593
-0.92254932
-0.20486314
-0.96893252
-0.20985829
-1.0178468
-0.21448866
-1.0694332
-0.21868425
-1.1238358
-0.22236719
-1.181204
-0.22545309
-1.2416844
-0.22783975
-1.3054344
-0.22942597
-1.372603
-0.2300867
-1.443351
-0.22968997
-1.5178353
-0.22808887
-1.5961998
-0.22512053
-1.6786133
-0.22060836
-1.7652646
-0.21436557
-1.8564526
-0.20618665
-1.9526005
-0.19580974
-2.054333
-0.18296293
-2.1626322
-2.2771067
-0.00037699549
-0.048178804
-0.0010154177
-0.060226146
-0.0015640808
-0.059044806
-0.0022613298
-0.064043288
-0.0028874035
-0.065924661
-0.0036515385
-0.069597434
-0.0043760037
-0.07262729
-0.0051897603
-0.076134499
-0.0060275201
-0.079687587
-0.006932892
-0.083401305
-0.0078756921
-0.087331289
-0.0088718602
-0.091409184
-0.0099210218
-0.095689188
-0.011027261
-0.10015758
-0.012194643
-0.10483077
-0.013426675
-0.10971537
-0.014728244
-0.11482049
-0.01610347
-0.12015677
-0.017557188
-0.12573316
-0.019094837
-0.13156079
-0.020721062
-0.13765057
-0.022442129
-0.14401408
-0.024263313
-0.1506634
-0.026190375
-0.15761226
-0.028229755
-0.16487335
-0.030387179
-0.1724619
-0.032669641
-0.18039287
-0.035082804
-0.18868303
-0.037632516
-0.19735006
-0.04032551
-0.20641206
-0.043166916
-0.21588954
-0.046162455
-0.2258035
-0.049316934
-0.23617694
-0.052635608
-0.24703397
-0.056121653
-0.25840096
-0.059778863
-0.27030539
-0.063610463
-0.28277672
-0.067618227
-0.29584674
-0.071803351
-0.30954898
-0.076166533
-0.323919
-0.080707751
-0.33899422
-0.085425738
-0.35481582
-0.090318884
-0.37142498
-0.095383932
-0.3888678
-0.10061782
-0.40719152
-0.10601582
-0.42644647
-0.11157219
-0.44668602
-0.11728113
-0.46796652
-0.12313424
-0.49034804
-0.12912365
-0.51389304
-0.13523873
-0.53866887
-0.14146847
-0.56474598
-0.14780039
-0.59219943
-0.15421947
-0.6211091
-0.16070953
-0.6515595
-0.16725161
-0.68364074
-0.17382516
-0.71744778
-0.18040638
-0.7530835
-0.18696847
-0.7906554
-0.19348194
-0.83027862
-0.19991264
-0.87207441
-0.20622334
-0.91617066
-0.21237154
-0.9627018
-0.2183103
-1.0118084
-0.22398693
-1.0636369
-0.22934177
-1.1183382
-0.23430888
-1.1760678
-0.2388153
-1.2369794
-0.24277551
-1.3012434
-0.24609678
-1.3690168
-0.24867886
-1.4404686
-0.25040225
-1.5157763
-0.2511367
-1.5950966
-0.25074723
-1.6786069
-0.24907383
-1.7665285
-0.24595472
-1.8591745
-0.24121905
-1.9569904
-0.23462957
-2.0606528
-0.22596169
-2.1711011
-2.2878565
-0.00033311365
-0.047846679
-0.00094532397
-0.059614909
-0.0014439202
-0.058547232
-0.0020941517
-0.063394093
-0.0026753935
-0.065344567
-0.0034109568
-0.068863354
-0.0041012259
-0.071938229
-0.0049001358
-0.075336815
-0.0056964883
-0.078892548
-0.0065542781
-0.08254488
-0.0074533086
-0.086433686
-0.0084050608
-0.090458924
-0.0094120004
-0.094683807
-0.010477591
-0.099093614
-0.011606277
-0.10370377
-0.01280266
-0.10852074
-0.014070718
-0.11355426
-0.015416468
-0.11881292
-0.016844776
-0.12430681
-0.018361363
-0.13004623
-0.019972122
-0.13604191
-0.021683118
-0.14230524
-0.023500733
-0.14884801
-0.025432294
-0.15568298
-0.027483359
-0.16282464
-0.029661522
-0.17028615
-0.03197303
-0.17808384
-0.034424834
-0.18623376
-0.03702357
-0.19475392
-0.039775424
-0.20366286
-0.042686258
-0.21298139
-0.045761942
-0.22273053
-0.049007734
-0.23293388
-0.052427804
-0.24361663
-0.056026507
-0.25480497
-0.059807453
-0.26652712
-0.063772911
-0.27881388
-0.067925217
-0.29169695
-0.072265767
-0.30521081
-0.076795166
-0.31939181
-0.081513266
-0.3342781
-0.086420045
-0.34991073
-0.091513361
-0.36633299
-0.096791556
-0.38359049
-0.102252
-0.40173141
-0.10789117
-0.42080696
-0.11370522
-0.44087081
-0.11968953
-0.46198007
-0.12583852
-0.48419572
-0.13214589
-0.50758087
-0.13860473
-0.53220349
-0.14520622
-0.55813583
-0.15194121
-0.58545325
-0.15879867
-0.61423739
-0.16576651
-0.64457376
-0.17283078
-0.67655416
-0.179975
-0.71027597
-0.18718112
-0.74584347
-0.19442855
-0.78336646
-0.20169374
-0.82296286
-0.20895019
-0.8647566
-0.21616799
-0.90887871
-0.22331318
-0.95546745
-0.2303482
-1.0046668
-0.2372297
-1.0566285
-0.2439101
-1.1115077
-0.25033464
-1.1694669
-0.25644084
-1.2306679
-0.26216131
-1.2952862
-0.26742135
-1.3634869
-0.27212408
-1.4354621
-0.27617919
-1.5113838
-0.27947065
-1.5914366
-0.28188182
-1.6758029
-0.28328166
-1.7647257
-0.28353614
-1.8585344
-0.28249575
-1.9577014
-0.27996038
-2.0629346
-0.27576537
-2.1751126
-2.293808
-0.00029048253
-0.04755705
-0.00088311199
-0.059023121
-0.0013406778
-0.058090548
-0.0019681697
-0.062767487
-0.0025269582
-0.06478676
-0.003236985
-0.068154952
-0.0038981663
-0.071278095
-0.0046719317
-0.074564017
-0.0054370808
-0.078128505
-0.0062615096
-0.081721602
-0.007132338
-0.085564056
-0.008056379
-0.089536128
-0.0090384692
-0.093703008
-0.010082074
-0.098051349
-0.011192283
-0.10259495
-0.012373954
-0.10734051
-0.013632785
-0.11229691
-0.014974223
-0.11747301
-0.016404324
-0.12287828
-0.017929914
-0.12852226
-0.019557092
-0.13441639
-0.021293462
-0.14057058
-0.023145475
-0.14699775
-0.025120617
-0.15370964
-0.027226574
-0.16072052
-0.029470238
-0.16804436
-0.03185926
-0.17569673
-0.034400629
-0.18369434
-0.037100907
-0.19205561
-0.039967026
-0.20079872
-0.043005173
-0.20994523
-0.046220519
-0.21951716
-0.049618056
-0.2295383
-0.053202699
-0.2400339
-0.056978216
-0.2510313
-0.060947452
-0.26255964
-0.065113367
-0.2746496
-0.069477887
-0.28733392
-0.074042093
-0.30064791
-0.07880708
-0.31462788
-0.083772838
-0.32931311
-0.088938996
-0.344745
-0.094305205
-0.36096678
-0.09987069
-0.37802448
-0.1056336
-0.39596735
-0.11159231
-0.41484635
-0.11774448
-0.43471583
-0.12408758
-0.45563306
-0.13061872
-0.47765936
-0.13733391
-0.50085889
-0.14422929
-0.52529943
-0.15129995
-0.55105424
-0.15853985
-0.57819969
-0.16594265
-0.60681768
-0.17350015
-0.63699543
-0.1812033
-0.6688255
-0.18904073
-0.70240743
-0.19700069
-0.73784569
-0.20506814
-0.77525319
-0.21322626
-0.81474939
-0.2214562
-0.85646004
-0.22973592
-0.90051911
-0.23804047
-0.9470676
-0.24634076
-0.99625334
-0.25460518
-1.0482306
-0.26279604
-1.1031602
-0.27087217
-1.1612083
-0.278783
-1.2225462
-0.2864759
-1.287352
-0.29388468
-1.355805
-0.30094221
-1.4280993
-0.30756602
-1.5044233
-0.31366611
-1.5849716
-0.31913938
-1.6699436
-0.32388172
-1.7595914
-0.32778727
-1.8542603
-0.33073015
-1.9544515
-0.33255417
-2.0608797
-0.33313131
-2.1743753
-2.2946405
-0.00025070306
-0.047307068
-0.00083108856
-0.058443444
-0.0012573082
-0.057665076
-0.0019112491
-0.062114315
-0.0024533947
-0.064245431
-0.0031413919
-0.0674679
-0.0037784633
-0.070641888
-0.0045080503
-0.073835381
-0.0052589136
-0.077378548
-0.0060664626
-0.080914987
-0.0069261706
-0.084705314
-0.007840968
-0.088622328
-0.0088179459
-0.092727061
-0.0098610639
-0.097009294
-0.010976097
-0.10148101
-0.012168828
-0.1061489
-0.013445533
-0.11102137
-0.014812937
-0.11610679
-0.016277885
-0.12141456
-0.01784715
-0.12695425
-0.019529436
-0.13273539
-0.021331273
-0.13877005
-0.023261628
-0.14506874
-0.025327886
-0.15164474
-0.027537985
-0.15851181
-0.02990014
-0.16568361
-0.032421867
-0.17317642
-0.035110257
-0.18100737
-0.03797283
-0.18919444
-0.041015675
-0.19775727
-0.044244488
-0.20671778
-0.047665025
-0.21609794
-0.051281799
-0.22592277
-0.055099088
-0.23621778
-0.059120232
-0.24701122
-0.06334809
-0.25833271
-0.06778492
-0.27021354
-0.072432424
-0.28268698
-0.077292325
-0.29578833
-0.082365243
-0.309555
-0.087652004
-0.32402604
-0.093153253
-0.33924302
-0.098869299
-0.35524951
-0.10479994
-0.37209202
-0.11094577
-0.389819
-0.11730699
-0.40848177
-0.12388323
-0.42813525
-0.13067451
-0.44883624
-0.13768059
-0.47064633
-0.14490114
-0.49362971
-0.15233482
-0.51785509
-0.15998119
-0.54339481
-0.167838
-0.57032692
-0.17590291
-0.59873336
-0.18417293
-0.62870186
-0.19264374
-0.6603262
-0.20131033
-0.69370643
-0.21016584
-0.72894873
-0.21920252
-0.76616667
-0.22841076
-0.80548135
-0.23777844
-0.84702086
-0.24729237
-0.89092005
-0.25693635
-0.93732271
-0.26669193
-0.98637879
-0.27653679
-1.0382462
-0.28644532
-1.0930892
-0.29638726
-1.1510785
-0.3063287
-1.2123892
-0.31622721
-1.2772087
-0.32603712
-1.3457202
-0.33570683
-1.4181246
-0.34516664
-1.4946299
-0.35435024
-1.5754294
-0.3631775
-1.6607406
-0.37156889
-1.7508237
-0.37943963
-1.8460434
-0.3866993
-1.9469115
-0.39321712
-2.0541572
-0.39893278
-2.1685271
-2.2899854
-0.00021627673
-0.047091373
-0.00079726274
-0.057863025
-0.0012000709
-0.057262865
-0.0018673817
-0.061447627
-0.0023852683
-0.063728173
-0.0030664791
-0.066787186
-0.0036964832
-0.07001254
-0.0044207946
-0.073111743
-0.0051732945
-0.076626752
-0.0059803001
-0.080108707
-0.0068468157
-0.083839548
-0.0077730718
-0.087696844
-0.0087675092
-0.091733419
-0.0098349671
-0.095942654
-0.010982141
-0.10033468
-0.012215777
-0.10491613
-0.013543098
-0.10969493
-0.01497149
-0.11467931
-0.016509457
-0.11987752
-0.018164997
-0.12529965
-0.01994647
-0.13095488
-0.021862896
-0.1368546
-0.023922522
-0.14301009
-0.02613418
-0.14943407
-0.028506713
-0.15614026
-0.031047648
-0.16314366
-0.033764956
-0.17046008
-0.036666058
-0.17810721
-0.039757841
-0.18610357
-0.043045654
-0.19447031
-0.04653604
-0.20322819
-0.050232942
-0.21240176
-0.054141215
-0.22201512
-0.058263681
-0.23209582
-0.062603183
-0.24267207
-0.067162659
-0.25377343
-0.071944
-0.26543218
-0.076948678
-0.27768204
-0.082178346
-0.29055811
-0.087634696
-0.30409776
-0.093319097
-0.31834035
-0.099233167
-0.33332719
-0.10537836
-0.34910199
-0.11175704
-0.36571037
-0.11837126
-0.38320103
-0.12522307
-0.40162528
-0.13231577
-0.4210368
-0.13965142
-0.44149355
-0.14723357
-0.46305563
-0.15506499
-0.48578792
-0.16314893
-0.50975863
-0.1714876
-0.53504106
-0.18008406
-0.56171232
-0.18894076
-0.58985488
-0.19805926
-0.61955723
-0.20744093
-0.65091321
-0.21708669
-0.68402315
-0.22699603
-0.7189945
-0.23716774
-0.75594133
-0.24759922
-0.79498593
-0.2582877
-0.83625637
-0.26922737
-0.8798904
-0.28041177
-0.9260323
-0.2918323
-0.97483404
-0.30347786
-1.026456
-0.31533464
-1.081065
-0.32738562
-1.1388351
-0.33960781
-1.1999479
-0.35197848
-1.2645909
-0.36446558
-1.3329577
-0.37702844
-1.4052586
-0.38963173
-1.481698
-0.40221626
-1.562495
-0.414725
-1.6478696
-0.42710014
-1.7380919
-0.43929811
-1.8335257
-0.45124134
-1.9347162
-0.4628403
-2.042383
-0.47409128
-2.157173
-2.2794057
-0.00019496672
-0.046896867
-0.00079575611
-0.057262677
-0.0011951582
-0.056863928
-0.0018530993
-0.060790138
-0.002364029
-0.063217722
-0.0030465005
-0.066105254
-0.0036910695
-0.069368481
-0.004421417
-0.072381915
-0.0051949995
-0.075853707
-0.0060226371
-0.079281621
-0.0069178097
-0.082944944
-0.0078798443
-0.086735392
-0.0089183027
-0.09069556
-0.010039284
-0.094822285
-0.011250548
-0.099124044
-0.012560033
-0.10360729
-0.013976249
-0.10827937
-0.015508106
-0.11314811
-0.017164325
-0.11822197
-0.018954959
-0.12350969
-0.020888923
-0.12902159
-0.022976006
-0.13476819
-0.025225157
-0.14076161
-0.027645607
-0.14701428
-0.03024601
-0.15354049
-0.033034561
-0.16035571
-0.036018394
-0.16747682
-0.039204762
-0.17492136
-0.042599223
-0.18270957
-0.046207865
-0.19086206
-0.050034558
-0.1994018
-0.054083491
-0.20835301
-0.058357994
-0.21774068
-0.062860638
-0.22759308
-0.067593859
-0.23793859
-0.072559831
-0.24880698
-0.077760155
-0.26023114
-0.083197182
-0.27224402
-0.088872716
-0.28488125
-0.094789328
-0.29817943
-0.10094973
-0.31217777
-0.1073571
-0.32691712
-0.11401536
-0.3424404
-0.12092852
-0.35879316
-0.12810116
-0.3760235
-0.13553889
-0.39418166
-0.14324718
-0.41332144
-0.15123229
-0.43350001
-0.15950048
-0.45477738
-0.16805873
-0.47721767
-0.176914
-0.50088909
-0.18607409
-0.52586398
-0.19554595
-0.55222025
-0.20533711
-0.58003968
-0.21545438
-0.60941135
-0.22590555
-0.64042799
-0.23669672
-0.67319148
-0.24783444
-0.70780862
-0.25932475
-0.7443938
-0.27117322
-0.7830696
-0.28338428
-0.82396509
-0.29596209
-0.86721815
-0.30890964
-0.91297411
-0.32222866
-0.9613861
-0.33591969
-1.0126157
-0.34998089
-1.066832
-0.3644078
-1.1242121
-0.37919277
-1.1849411
-0.39432874
-1.2492065
-0.40979561
-1.3172159
-0.4255804
-1.3891739
-0.44165375
-1.4653025
-0.4579878
-1.5458218
-0.47454882
-1.6309622
-0.49129959
-1.7210072
-0.50821577
-1.8163178
-0.52525839
-1.9174489
-0.54239546
-2.025104
-0.55963594
-2.1398661
-2.2624198
-0.00017539971
-0.046721833
-0.00080435775
-0.056634065
-0.0012091975
-0.056459452
-0.001879284
-0.06012041
-0.002402581
-0.062694794
-0.0030993324
-0.065408862
-0.0037733785
-0.06869482
-0.0045264142
-0.071629271
-0.00533913
-0.075041395
-0.0062097468
-0.078411416
-0.0071577031
-0.081997409
-0.0081830415
-0.085710483
-0.0092960969
-0.089582942
-0.010504631
-0.093614195
-0.011817757
-0.097811368
-0.013244882
-0.10218061
-0.014795854
-0.10672885
-0.016480892
-0.11146353
-0.018310397
-0.11639292
-0.02029444
-0.12152609
-0.022443588
-0.12687287
-0.024767601
-0.13244459
-0.027275842
-0.13825376
-0.029977665
-0.14431282
-0.032881014
-0.15063747
-0.035993331
-0.15724367
-0.039321967
-0.1641484
-0.042871896
-0.17137158
-0.046648439
-0.17893309
-0.050655581
-0.18685489
-0.054896775
-0.19516046
-0.059375072
-0.20387444
-0.064091812
-0.21302351
-0.0690502
-0.22263409
-0.074251605
-0.23273637
-0.079697902
-0.24335963
-0.085391898
-0.25453581
-0.091335766
-0.2662985
-0.09753358
-0.27868141
-0.10398899
-0.29172155
-0.11070651
-0.30545729
-0.11769151
-0.31992856
-0.12495055
-0.33517714
-0.13249032
-0.35124836
-0.14031868
-0.3681892
-0.14844432
-0.386049
-0.15687628
-0.4048812
-0.16562439
-0.42474214
-0.17469943
-0.44569084
-0.18411216
-0.46779139
-0.19387445
-0.49111084
-0.20399756
-0.51572205
-0.21449474
-0.54170086
-0.22537804
-0.56913014
-0.23666096
-0.59809742
-0.24835597
-0.62869631
-0.26047696
-0.6610271
-0.273037
-0.69519725
-0.28604935
-0.73132077
-0.2995282
-0.76951917
-0.31348629
-0.80992283
-0.32793728
-0.8526686
-0.3428945
-0.89790203
-0.35837068
-0.94577683
-0.37437748
-0.99645558
-0.39092621
-1.0501079
-0.40802654
-1.1069128
-0.42568693
-1.1670569
-0.44390996
-1.2307346
-0.46270037
-1.2981522
-0.48205788
-1.3695208
-0.50198072
-1.4450656
-0.52245855
-1.5250172
-0.54347438
-1.6096178
-0.56502697
-1.6991451
-0.58710578
-1.7939753
-0.60971902
-1.894636
-0.6328756
-2.0018297
-0.65660512
-2.1161096
-2.238484
-0.00016087286
-0.046561249
-0.00083201792
-0.055963187
-0.0012496087
-0.056042142
-0.0019490095
-0.059421279
-0.0025019598
-0.062142123
-0.0032268718
-0.064684232
-0.0039512343
-0.067970743
-0.0047483963
-0.070832397
-0.0056234411
-0.074166643
-0.0065643325
-0.07747082
-0.0075945235
-0.080967517
-0.0087162473
-0.08458906
-0.0099409547
-0.088358536
-0.011278515
-0.092276935
-0.012739612
-0.096350569
-0.01433544
-0.10058508
-0.01607727
-0.10498731
-0.017976487
-0.10956458
-0.020044376
-0.11432528
-0.022291911
-0.1192788
-0.024729379
-0.12443562
-0.027366892
-0.12980726
-0.030213815
-0.13540698
-0.033277841
-0.14124889
-0.036566649
-0.14734871
-0.040086335
-0.15372397
-0.043841873
-0.16039277
-0.047837676
-0.1673756
-0.052076933
-0.17469356
-0.056562014
-0.18236942
-0.061294678
-0.19042728
-0.066276994
-0.19889145
-0.071510373
-0.20778928
-0.076996514
-0.2171469
-0.08273783
-0.22699376
-0.088736908
-0.23735899
-0.094997124
-0.24827373
-0.10152347
-0.25976992
-0.10832022
-0.27188201
-0.11539433
-0.28464432
-0.12275256
-0.29809538
-0.13040412
-0.31227268
-0.1383573
-0.3272189
-0.14662274
-0.342977
-0.15521225
-0.35959278
-0.16413724
-0.37711593
-0.17341117
-0.39559786
-0.18304818
-0.41509413
-0.19306265
-0.43566352
-0.20347052
-0.4573685
-0.21428761
-0.48027616
-0.22553169
-0.50445737
-0.2372196
-0.52998879
-0.2493698
-0.55695157
-0.26200164
-0.58543223
-0.27513442
-0.61552428
-0.28878801
-0.6473273
-0.30298388
-0.68094696
-0.31774318
-0.71649746
-0.33308745
-0.75409976
-0.34903963
-0.79388274
-0.36562325
-0.83598256
-0.38286195
-0.88054462
-0.4007794
-0.92772256
-0.41940095
-0.97767731
-0.43875054
-1.0305801
-0.45885174
-1.0866105
-0.47972742
-1.1459565
-0.5013982
-1.2088156
-0.5238879
-1.2753922
-0.5472151
-1.345904
-0.57139615
-1.42058
-0.59644581
-1.4996546
-0.62237865
-1.5833755
-0.64920537
-1.6720332
-0.67694748
-1.7659953
-0.70563654
-1.8657702
-0.73534105
-1.9720359
-0.76611113
-2.0853582
-2.2069275
-0.00015246521
-0.046409008
-0.00088495851
-0.055230895
-0.0013200995
-0.05560721
-0.0020632949
-0.058678282
-0.002666874
-0.061538747
-0.0034379172
-0.063913388
-0.0042354946
-0.067173368
-0.0051014902
-0.069966602
-0.0060645044
-0.073203829
-0.0071070634
-0.076428459
-0.0082547983
-0.079819977
-0.0095135157
-0.083330532
-0.010896205
-0.086976031
-0.012414808
-0.090758507
-0.014081843
-0.094683698
-0.015909808
-0.098757264
-0.01791119
-0.10298606
-0.020098059
-0.10737783
-0.022482131
-0.1119413
-0.025074353
-0.11668663
-0.027884978
-0.12162502
-0.030922871
-0.12676935
-0.034195826
-0.13213396
-0.037710789
-0.1377338
-0.041472586
-0.14358672
-0.045485656
-0.14971064
-0.049752255
-0.15612582
-0.054274578
-0.16285283
-0.059054042
-0.16991353
-0.064091326
-0.17733144
-0.069387641
-0.18513011
-0.07494377
-0.1933343
-0.08076179
-0.20197004
-0.086843801
-0.21106344
-0.093193556
-0.2206423
-0.099814885
-0.23073565
-0.10671392
-0.24137234
-0.11389674
-0.25258435
-0.12137223
-0.26440331
-0.12914876
-0.27686408
-0.13723789
-0.29000192
-0.14565011
-0.30385544
-0.154399
-0.3184642
-0.16349881
-0.33387044
-0.17296419
-0.35011958
-0.18281151
-0.36725955
-0.19305809
-0.38534077
-0.20372216
-0.40441786
-0.2148233
-0.42454823
-0.22638137
-0.44579396
-0.23841818
-0.46822018
-0.25095558