/*--------------------------------*- C++ -*----------------------------------*\
  =========                 |
  \\      /  F ield         | OpenFOAM: The Open Source CFD Toolbox
   \\    /   O peration     | Website:  https://openfoam.org
    \\  /    A nd           | Version:  12
     \\/     M anipulation  |
\*---------------------------------------------------------------------------*/
FoamFile
{
    format      ascii;
    class       volVectorField;
    location    "0.062";
    object      U;
}
// * * * * * * * * * * * * * * * * * * * * * * * * * * * * * * * * * * * * * //

dimensions      [0 1 -1 0 0 0 0];

internalField   nonuniform List<vector> 
16000
(
(217.49982 -3.1242985e-17 -8.4644207)
(254.60059 0 5.4420888)
(240.57741 0 -7.6266953)
(248.33628 4.9414276e-17 3.8262124)
(243.63176 -4.8776953e-17 -5.974738)
(245.84211 0 1.7739952)
(244.04664 0 -4.318351)
(244.54861 8.3484351e-17 -0.016269253)
(243.70869 -7.9314078e-17 -3.1357302)
(243.58296 0 -1.2500548)
(243.06726 7.1666192e-17 -2.5348326)
(242.7163 -2.0417398e-16 -1.9558502)
(242.26948 1.2922667e-16 -2.3867223)
(241.83702 -1.2292727e-16 -2.3207373)
(241.37628 1.1663072e-16 -2.4763285)
(240.90139 -3.4595547e-18 -2.5434104)
(240.40761 -3.2864554e-18 -2.6415963)
(239.89585 -9.698611e-17 -2.728963)
(239.36556 1.9001488e-16 -2.817928)
(238.81661 -9.0154222e-17 -2.904531)
(238.24883 1.7149345e-16 -2.9891547)
(237.66214 -1.6255827e-16 -3.0710986)
(237.05655 0 -3.1498617)
(236.43213 1.5132645e-16 -3.2248586)
(235.78905 -4.0900547e-18 -3.2954949)
(235.1276 -2.6411871e-16 -3.3611433)
(234.44817 1.2518349e-16 -3.421169)
(233.75126 0 -3.4749231)
(233.03753 0 -3.521759)
(232.30773 2.1742925e-16 -3.5610376)
(231.56279 -2.0258327e-16 -3.5921403)
(230.80373 0 -3.6144785)
(230.03174 0 -3.6275045)
(229.24814 0 -3.6307265)
(228.45437 5.1116501e-18 -3.6237187)
(227.652 1.5514155e-16 -3.6061333)
(226.84271 -1.4201744e-16 -3.5777124)
(226.02826 -1.3910847e-16 -3.5382964)
(225.21051 1.231707e-16 -3.4878338)
(224.39139 0 -3.4263894)
(223.57285 -1.1790249e-16 -3.354147)
(222.75688 1.1128589e-16 -3.2714152)
(221.94544 -2.1092973e-16 -3.1786263)
(221.14049 1.9900548e-16 -3.0763346)
(220.34392 -1.9437927e-16 -2.9652115)
(219.55755 3.5588649e-16 -2.8460357)
(218.7831 5.5861263e-18 -2.719684)
(218.02219 3.0548789e-19 -2.5871165)
(217.27629 -1.4981714e-16 -2.4493623)
(216.54671 1.4171073e-16 -2.3075039)
(215.83464 -1.2517328e-16 -2.1626629)
(215.14107 0 -2.0159841)
(214.46686 7.4407509e-18 -1.8686238)
(213.81272 0 -1.7217359)
(213.1792 6.6221668e-18 -1.5764607)
(212.56676 2.0621991e-16 -1.4339166)
(211.97576 -3.7692847e-16 -1.2951905)
(211.40642 1.0869543e-17 -1.1613269)
(210.85888 1.6750758e-16 -1.0333069)
(210.33307 -1.4829089e-16 -0.91203228)
(209.82864 1.3967432e-16 -0.79828147)
(209.34501 -8.7901899e-18 -0.69270487)
(208.88124 0 -0.59577029)
(208.43596 0 -0.50770106)
(208.00716 -1.107977e-16 -0.42846583)
(207.59217 1.1146572e-16 -0.35774404)
(207.18743 -9.8791797e-17 -0.29490997)
(206.7885 1.9283802e-16 -0.23903571)
(206.39007 -1.8821422e-16 -0.1889374)
(205.98622 8.3440861e-17 -0.14329619)
(205.57057 5.2707377e-18 -0.10082224)
(205.13655 0 -0.060389401)
(204.67778 4.7408849e-18 -0.021163915)
(204.18892 -4.5046211e-18 0.017236449)
(203.6674 0 0.054983978)
(203.11593 -3.3714774e-17 0.091029765)
(202.53845 6.2425847e-17 0.12137877)
(201.9831 -3.1731307e-17 0.15187373)
(201.32883 0 0.11459386)
(201.08201 0 0.28028408)
(218.82645 0 -11.313964)
(256.2597 -3.7044744e-18 3.3823858)
(241.6001 -1.1909746e-16 -10.581716)
(249.81617 1.0978214e-16 1.7220239)
(244.75099 0 -8.865998)
(247.19827 1.0100653e-16 -0.4033162)
(245.19397 -1.8652076e-16 -7.0915755)
(245.7881 -1.0374128e-19 -2.3173826)
(244.85477 8.4053427e-17 -5.7522155)
(244.73093 0 -3.6705605)
(244.17397 -1.518306e-16 -5.0351075)
(243.79419 1.4851365e-16 -4.4224699)
(243.31521 1.4125439e-16 -4.8404096)
(242.84827 -2.6002652e-16 -4.7748372)
(242.35286 1.1953429e-16 -4.910623)
(241.8414 1.0989378e-17 -4.970367)
(241.31002 1.1491948e-16 -5.0531372)
(240.75933 -1.0234683e-16 -5.1269003)
(240.18893 0 -5.1999708)
(239.59872 0 -5.269645)
(238.98861 5.6476698e-18 -5.3358051)
(238.35863 -1.7718686e-16 -5.3977389)
(237.70886 3.3598039e-16 -5.4548101)
(237.03953 -3.1395666e-16 -5.5063317)
(236.35096 1.419065e-16 -5.5516016)
(235.6436 0 -5.5899032)
(234.918 1.237804e-16 -5.6205098)
(234.17489 -1.3272718e-16 -5.6427012)
(233.41512 0 -5.6557693)
(232.63967 3.5075711e-18 -5.6590313)
(231.84969 -1.3305659e-17 -5.6518397)
(231.04646 0 -5.6335991)
(230.23142 0 -5.6037736)
(229.40613 -1.6981335e-16 -5.5619075)
(228.57228 3.3719571e-16 -5.5076335)
(227.73169 -1.6192124e-16 -5.4406873)
(226.88626 -1.5835855e-16 -5.3609207)
(226.03798 1.4493768e-16 -5.2683084)
(225.18889 -1.1164716e-16 -5.1629591)
(224.34109 -2.9219681e-19 -5.0451205)
(223.49667 -2.735086e-19 -4.9151828)
(222.6577 2.3176488e-16 -4.7736789)
(221.82622 -1.093522e-16 -4.6212815)
(221.0042 0 -4.458796)
(220.19353 2.0152338e-16 -4.2871524)
(219.39595 1.1898767e-17 -4.1073909)
(218.61311 -5.0856512e-18 -3.9206471)
(217.84648 -1.6386267e-16 -3.7281345)
(217.09736 0 -3.5311257)
(216.36689 -1.4598161e-16 -3.3309337)
(215.65604 -8.8338196e-18 -3.1288944)
(214.96557 2.5911621e-16 -2.9263472)
(214.2961 -1.2959335e-16 -2.7246208)
(213.64808 0 -2.5250175)
(213.02184 -2.0308534e-17 -2.3288015)
(212.41758 -2.1045782e-16 -2.1371906)
(211.8354 3.5999666e-16 -1.9513462)
(211.27533 -2.145182e-16 -1.7723627)
(210.73725 0 -1.601248)
(210.22092 -1.7023018e-16 -1.438908)
(209.72581 1.7887954e-16 -1.2861119)
(209.25116 2.6599074e-17 -1.1434689)
(208.79588 0 -1.0114088)
(208.35848 -1.4144925e-16 -0.89010214)
(207.93688 7.2822889e-18 -0.77945742)
(207.52831 1.1135872e-16 -0.67909569)
(207.12922 -1.9678017e-17 -0.58833748)
(206.73513 9.2737671e-17 -0.50621407)
(206.34078 -1.0481989e-16 -0.43152055)
(205.94032 5.493473e-18 -0.36294057)
(205.52752 -5.1842189e-18 -0.29919196)
(205.09597 0 -0.23911667)
(204.63939 -4.6275821e-18 -0.18181648)
(204.15232 4.3782782e-18 -0.12686789)
(203.63201 8.296194e-18 -0.07396013)
(203.08162 9.8331822e-19 -0.023532494)
(202.51171 0 0.019881856)
(201.93386 3.0217191e-17 0.049164586)
(201.35904 -5.7570639e-17 0.061171104)
(200.99056 2.5849523e-17 0.15020481)
(220.01433 0 -14.236871)
(257.76245 -1.2184064e-16 1.1193794)
(242.5657 2.4852385e-16 -13.62058)
(251.09151 -2.2191253e-16 -0.54838698)
(245.76261 1.0960437e-16 -11.829661)
(248.3475 -3.2455074e-18 -2.7724398)
(246.21478 9.8779531e-17 -9.9094521)
(246.83467 -9.3547904e-17 -4.8176131)
(245.8442 -5.5530481e-18 -8.4309206)
(245.69679 -5.272559e-18 -6.2582957)
(245.10429 -1.0015955e-17 -7.633853)
(244.68822 1.3819566e-16 -7.0268828)
(244.17348 -1.4007718e-16 -7.4139148)
(243.66771 1.3748172e-16 -7.3552886)
(243.13284 -1.1810137e-16 -7.4699791)
(242.58023 -1.5479341e-17 -7.5217786)
(242.00641 0 -7.5891097)
(241.41198 -1.2831893e-20 -7.648181)
(240.79661 -2.2515411e-16 -7.704333)
(240.16032 -3.7285188e-19 -7.7555316)
(239.50312 1.7257483e-16 -7.8013412)
(238.82518 1.6952281e-17 -7.8409643)
(238.12673 -2.1443122e-17 -7.8736426)
(237.40817 0 -7.8985836)
(236.66999 7.7537998e-21 -7.9149879)
(235.91284 -1.6462467e-16 -7.9220519)
(235.13752 1.4707246e-16 -7.9189789)
(234.34496 8.2091556e-18 -7.9049874)
(233.53628 0 -7.8793292)
(232.71273 -7.3652119e-18 -7.8412969)
(231.87574 -9.06787e-22 -7.7902434)
(231.02689 -1.9827705e-16 -7.7255947)
(230.1679 1.9968647e-16 -7.6468657)
(229.30064 1.1833283e-17 -7.5536792)
(228.42708 -1.7915556e-16 -7.4457755)
(227.54931 1.4785493e-16 -7.3230301)
(226.66949 -1.8018054e-16 -7.1854629)
(225.78985 1.5102192e-16 -7.0332489)
(224.91263 -1.4301025e-16 -6.8667217)
(224.04007 1.3477886e-16 -6.6863798)
(223.17438 1.5937734e-17 -6.4928853)
(222.31772 0 -6.2870565)
(221.47215 1.9883579e-16 -6.0698633)
(220.63961 -2.4066837e-16 -5.8424125)
(219.82189 0 -5.6059332)
(219.02065 1.7865339e-16 -5.36176)
(218.23735 -1.5676951e-16 -5.1113092)
(217.47326 1.691689e-16 -4.8560596)
(216.72946 -1.7893396e-16 -4.5975286)
(216.00682 0 -4.3372508)
(215.30602 1.7647378e-16 -4.0767578)
(214.62754 -1.326248e-16 -3.8175566)
(213.97168 0 -3.5611138)
(213.33861 0 -3.3088421)
(212.72835 1.2429534e-16 -3.0620867)
(212.14082 -2.0758523e-16 -2.8221208)
(211.57585 1.2185889e-16 -2.5901342)
(211.03318 1.834185e-16 -2.3672254)
(210.51249 2.1513071e-19 -2.1543828)
(210.01327 1.9330785e-19 -1.9524702)
(209.5348 -3.2288499e-16 -1.762201)
(209.0761 8.91047e-17 -1.5841021)
(208.63593 0 -1.4185169)
(208.2126 1.41658e-16 -1.2655245)
(207.80392 -1.6248735e-16 -1.1249356)
(207.40703 1.1108185e-16 -0.9962807)
(207.01833 1.3128166e-17 -0.8787977)
(206.63334 -8.5713149e-17 -0.77145219)
(206.24688 1.1512031e-17 -0.67300041)
(205.85322 2.165468e-17 -0.5821195)
(205.44638 -1.0185401e-16 -0.4975275)
(205.0202 9.5795227e-17 -0.41803874)
(204.56858 -7.2207698e-17 -0.34275568)
(204.08611 1.3604021e-16 -0.27126005)
(203.57045 -5.610911e-17 -0.2028051)
(203.02608 -6.0577622e-17 -0.13756957)
(202.46199 5.0059688e-17 -0.083759167)
(201.88609 0 -0.045034271)
(201.35546 3.2051603e-18 0.0024085097)
(200.92106 -1.2155267e-17 0.019124152)
(221.04027 0 -17.22938)
(259.11291 0 -1.2795899)
(243.32798 0 -16.796194)
(252.18568 1.0603955e-16 -2.9276259)
(246.58556 -1.2313329e-16 -14.925142)
(249.32781 -2.1929409e-16 -5.261117)
(247.05114 2.0856469e-16 -12.847594)
(247.70004 -1.2352365e-17 -7.4465248)
(246.64437 5.8824326e-18 -11.222157)
(246.46949 -1.7297439e-16 -8.9789459)
(245.83657 1.6933627e-16 -10.345868)
(245.37863 1.0064268e-17 -9.7582986)
(244.82308 -1.5282363e-16 -10.106593)
(244.27305 1.3575255e-16 -10.056431)
(243.69351 -1.4254059e-20 -10.148749)
(243.09452 -8.1410374e-18 -10.190622)
(242.47318 0 -10.240882)
(241.83004 -7.3503195e-18 -10.282784)
(241.16494 -2.0923196e-16 -10.31934)
(240.47796 2.1126276e-16 -10.348967)
(239.76929 1.2541263e-17 -10.370999)
(239.03922 -1.1890506e-17 -10.384552)
(238.28819 2.1427267e-16 -10.388768)
(237.51675 -1.7067671e-16 -10.382762)
(236.72563 1.0122416e-17 -10.365644)
(235.91573 1.9194368e-16 -10.336535)
(235.0881 -1.2696879e-16 -10.294572)
(234.24398 0 -10.23893)
(233.38478 1.4673105e-16 -10.168833)
(232.5121 -1.2316137e-16 -10.083575)
(231.62769 2.4824182e-16 -9.9825353)
(230.73349 -1.3246374e-17 -9.865202)
(229.83155 -2.0852444e-16 -9.7311852)
(228.92407 1.7297373e-16 -9.5802375)
(228.01335 -1.8633294e-16 -9.4122664)
(227.10178 -3.0127256e-20 -9.2273498)
(226.19176 2.0833793e-16 -9.025744)
(225.28574 -3.1442362e-16 -8.8078894)
(224.38613 9.2539634e-17 -8.5744136)
(223.49531 3.5040686e-17 -8.3261284)
(222.61553 -4.955097e-17 -8.0640248)
(221.74897 0 -7.7892591)
(220.89762 -8.8182783e-17 -7.5031401)
(220.06331 1.3810734e-16 -7.2071076)
(219.2477 -2.0855555e-16 -6.9027124)
(218.4522 1.9595559e-16 -6.5915927)
(217.67802 -2.0786668e-16 -6.2754457)
(216.92615 3.9087072e-16 -5.9560037)
(216.19735 -3.0633241e-16 -5.6350084)
(215.49214 3.0720004e-16 -5.3141862)
(214.81085 -1.4419036e-16 -4.995226)
(214.1536 1.357488e-16 -4.6797599)
(213.52035 -9.542459e-17 -4.3693458)
(212.91092 2.9927043e-17 -4.0654573)
(212.325 0 -3.7694719)
(211.76219 0 -3.4826677)
(211.22204 0 -3.2062154)
(210.70402 2.3169832e-17 -2.9411711)
(210.20754 0 -2.688461)
(209.73188 -1.6310728e-16 -2.4488695)
(209.2761 1.9093457e-16 -2.2230152)
(208.83905 -1.0748986e-16 -2.0113152)
(208.41929 -1.3488116e-19 -1.8139945)
(208.01501 2.5148641e-16 -1.6310174)
(207.62391 2.9556049e-17 -1.462078)
(207.24306 -1.3794495e-16 -1.3066015)
(206.86883 5.1744789e-17 -1.1637343)
(206.49678 -1.4535764e-16 -1.0323692)
(206.12182 -4.5429694e-17 -0.91121807)
(205.73843 -6.3867556e-17 -0.79894081)
(205.34085 -5.9910487e-17 -0.69423499)
(204.92321 5.6138263e-17 -0.59588832)
(204.47954 0 -0.50305118)
(204.00447 0 -0.4152355)
(203.49638 -1.5488496e-17 -0.33107519)
(202.96045 0 -0.2514761)
(202.40298 6.8473451e-18 -0.18797757)
(201.83805 5.1581708e-17 -0.13330579)
(201.33636 -7.2874909e-17 -0.06213924)
(200.85378 -1.4029668e-20 -0.10961583)
(221.8834 0 -20.421866)
(260.28691 -8.7639513e-18 -3.7559458)
(243.95801 2.6516694e-16 -20.108933)
(253.05237 -2.4762462e-16 -5.4336243)
(247.16753 2.5271278e-16 -18.136734)
(250.1 -2.3118681e-16 -7.9042985)
(247.68218 -2.2039142e-16 -15.892694)
(248.34899 2.0861695e-16 -10.235261)
(247.23043 0 -14.118006)
(247.01765 0 -11.851287)
(246.34209 1.787962e-16 -13.173882)
(245.83547 -1.6937846e-16 -12.624142)
(245.2344 -1.0062901e-17 -12.923931)
(244.63492 2.8621445e-17 -12.881465)
(244.00577 -9.0579968e-18 -12.949275)
(243.35558 3.4354514e-17 -12.97745)
(242.68198 0 -13.007653)
(241.98548 0 -13.02861)
(241.26603 -2.3463834e-16 -13.04173)
(240.52386 2.0808638e-16 -13.045654)
(239.75928 0 -13.039532)
(238.97279 0 -13.022373)
(238.16502 -1.893605e-16 -12.993187)
(237.33682 3.5836275e-16 -12.95098)
(236.48919 -1.6949507e-16 -12.894757)
(235.62333 -2.0081663e-17 -12.823552)
(234.74068 -3.8036119e-17 -12.736443)
(233.84283 -1.4413404e-16 -12.632569)
(232.9316 1.1900191e-16 -12.511156)
(232.00898 0 -12.371534)
(231.07715 -3.0483323e-17 -12.21316)
(230.13843 0 -12.035644)
(229.19529 0 -11.83876)
(228.25029 2.0581944e-16 -11.62247)
(227.30607 -2.1815036e-16 -11.386931)
(226.36529 2.2885663e-17 -11.13251)
(225.43062 -2.1595121e-17 -10.859785)
(224.50467 -4.0830874e-17 -10.569549)
(223.58998 -8.7098989e-20 -10.262804)
(222.68896 8.2811713e-20 -9.9407477)
(221.80387 -7.8224963e-20 -9.6047643)
(220.93677 0 -9.2563979)
(220.0895 -1.2124409e-16 -8.8973358)
(219.26369 1.1385217e-16 -8.529376)
(218.46069 0 -8.1544007)
(217.68162 -5.0472237e-17 -7.7743499)
(216.92732 1.8971116e-16 -7.3911843)
(216.19838 -2.2239284e-16 -7.0068626)
(215.49515 -2.0925753e-16 -6.6233111)
(214.81774 1.5688636e-16 -6.2424001)
(214.16605 1.1066719e-16 -5.8659221)
(213.53981 -1.3813328e-16 -5.495575)
(212.93858 -3.2387697e-17 -5.132947)
(212.36179 -2.1279433e-16 -4.7795112)
(211.80878 1.1380885e-16 -4.4366162)
(211.27885 -1.0675754e-16 -4.1054867)
(210.77123 9.9852166e-17 -3.7872195)
(210.28514 2.3399382e-16 -3.4827768)
(209.81973 -1.7500017e-16 -3.1929769)
(209.37406 0 -2.9184832)
(208.94702 -3.8301345e-17 -2.6597821)
(208.53727 -7.1708604e-17 -2.4171487)
(208.14322 1.3397843e-16 -2.1906591)
(207.76293 1.2537765e-16 -1.9801372)
(207.394 -2.343006e-16 -1.7851391)
(207.03346 8.2051952e-17 -1.6049666)
(206.67767 5.1159561e-17 -1.438659)
(206.32227 9.5659733e-17 -1.2850248)
(205.9623 1.3413163e-16 -1.142722)
(205.59245 3.3572979e-20 -1.0103798)
(205.20728 0 -0.88665997)
(204.80119 0 -0.77034323)
(204.36832 -3.4164066e-17 -0.66065362)
(203.9035 9.5885606e-17 -0.55688149)
(203.40593 -8.9698478e-17 -0.45707321)
(202.88072 -8.4010417e-17 -0.36381088)
(202.3326 5.2434048e-17 -0.29024704)
(201.78465 0 -0.21604297)
(201.30509 4.608892e-17 -0.12915272)
(200.7895 2.2527837e-20 -0.23320598)
(222.52227 0 -23.788082)
(261.25744 1.9382168e-20 -6.3089827)
(244.38758 9.0225373e-18 -23.51767)
(253.74841 2.8678478e-16 -8.0790506)
(247.588 3.3848872e-19 -21.452306)
(250.63561 -5.030396e-16 -10.699434)
(248.06253 -3.2879665e-19 -19.033627)
(248.7524 4.5370156e-16 -13.18776)
(247.57039 -2.0874695e-16 -17.11578)
(247.31409 -1.2382306e-17 -14.874136)
(246.5945 1.1760804e-17 -16.11617)
(246.03419 -1.7858316e-16 -15.616813)
(245.38391 1.902537e-16 -15.860084)
(244.73079 -1.8078287e-16 -15.821273)
(244.04767 3.0453181e-16 -15.862258)
(243.34169 -3.0683327e-16 -15.872278)
(242.61102 1.3675224e-16 -15.879037)
(241.85616 0 -15.875076)
(241.07725 0 -15.860667)
(240.27471 1.4568741e-17 -15.834456)
(239.4491 -2.7625192e-17 -15.795374)
(238.6012 0 -15.742266)
(237.73198 1.9839522e-16 -15.673982)
(236.84265 4.8101193e-19 -15.589397)
(235.93462 -3.5508218e-16 -15.487414)
(235.00954 1.6778012e-16 -15.366994)
(234.06928 1.985305e-17 -15.227189)
(233.11594 0 -15.067148)
(232.1518 -1.7787253e-16 -14.886158)
(231.17937 1.3412405e-16 -14.68366)
(230.20128 -2.2244474e-16 -14.459275)
(229.22034 2.0936759e-16 -14.212829)
(228.23942 -2.266249e-16 -13.944359)
(227.26147 2.1331354e-16 -13.654146)
(226.28944 7.5627393e-17 -13.342705)
(225.32625 0 -13.010797)
(224.37476 0 -12.65943)
(223.43767 4.2155843e-17 -12.289843)
(222.51755 3.9707691e-17 -11.903494)
(221.61673 -3.7386261e-17 -11.50204)
(220.73733 3.5185788e-17 -11.087311)
(219.88118 6.6393446e-17 -10.661279)
(219.04983 -6.2361369e-17 -10.226028)
(218.24455 3.5161793e-16 -9.7837179)
(217.46629 -2.7505553e-16 -9.3365502)
(216.71571 5.1627861e-17 -8.8867353)
(215.99317 -4.8586196e-17 -8.4364569)
(215.2988 0 -7.9878449)
(214.63242 2.1356934e-16 -7.5429467)
(213.99367 -1.5996695e-16 -7.1037075)
(213.38199 0 -6.6719489)
(212.79664 0 -6.2493598)
(212.23677 1.3166177e-16 -5.8374848)
(211.70142 -6.1536886e-17 -5.4377236)
(211.1896 0 -5.0513288)
(210.70026 -1.6172212e-16 -4.6794081)
(210.23239 1.0066523e-16 -4.3229263)
(209.78492 1.4132485e-16 -3.9827017)
(209.35682 -1.7578308e-16 -3.6593997)
(208.94695 1.6433528e-16 -3.3535241)
(208.55403 -1.5328085e-16 -3.065396)
(208.17657 7.2752218e-20 -2.795121)
(207.81287 0 -2.542603)
(207.4609 6.2327922e-17 -2.3075049)
(207.11818 -2.9059428e-16 -2.0892293)
(206.78173 1.6252202e-16 -1.8869412)
(206.44794 0 -1.6995632)
(206.11255 -1.4135642e-16 -1.5258119)
(205.77076 8.7806563e-17 -1.3642854)
(205.41754 1.2288913e-16 -1.2135677)
(205.04775 5.1824872e-20 -1.0722753)
(204.6561 -7.1134944e-17 -0.9392101)
(204.23683 9.9527324e-17 -0.81365263)
(203.78505 -1.5464669e-16 -0.69449926)
(203.30071 8.6517298e-17 -0.57942174)
(202.78826 2.6877871e-17 -0.47329712)
(202.25217 5.0204642e-17 -0.3888242)
(201.72509 0 -0.29282301)
(201.26519 -4.375873e-17 -0.19628862)
(200.72392 2.0365338e-17 -0.35031914)
(222.94166 0 -27.324344)
(262.01761 9.7506082e-18 -8.9685014)
(244.61309 -3.041577e-16 -27.051971)
(254.25623 2.4829219e-16 -10.867892)
(247.80917 2.5507936e-16 -24.867699)
(250.92476 -4.9747082e-16 -13.650789)
(248.23973 2.2882495e-16 -22.257799)
(248.89588 2.3167114e-16 -16.303218)
(247.67016 -2.1955433e-16 -20.199264)
(247.34889 3.9081293e-17 -18.033292)
(246.58444 0 -19.159822)
(245.96493 0 -18.720081)
(245.26039 -2.2228385e-17 -18.903315)
(244.54767 -1.6876767e-16 -18.86412)
(243.80411 1.3966384e-16 -18.877683)
(243.03552 1.8947337e-17 -18.866152)
(242.24073 -3.5917734e-17 -18.846589)
(241.42036 3.064607e-16 -18.81391)
(240.57486 -2.2519967e-16 -18.767581)
(239.705 2.4445669e-16 -18.706133)
(238.8117 -2.020059e-16 -18.628283)
(237.89618 2.7391541e-17 -18.532714)
(236.95986 1.5562806e-16 -18.418138)
(236.00444 -1.9573497e-16 -18.283335)
(235.03188 0 -18.127149)
(234.04437 0 -17.948536)
(233.04436 0 -17.74659)
(232.03452 -1.9609598e-16 -17.520566)
(231.01774 1.8471955e-16 -17.26991)
(229.99705 -3.5006372e-17 -16.994287)
(228.97564 0 -16.693608)
(227.95677 -2.8065665e-16 -16.368042)
(226.94375 2.3456225e-16 -16.018031)
(225.93985 -5.5489e-17 -15.644299)
(224.9483 1.5693431e-16 -15.247858)
(223.97219 -4.8753979e-17 -14.829986)
(223.01442 -1.8498293e-16 -14.392228)
(222.07769 2.1825418e-16 -13.936363)
(221.16441 -1.6384861e-16 -13.464384)
(220.2767 7.7300145e-17 -12.978461)
(219.41635 -7.2534967e-17 -12.480905)
(218.5848 1.3635999e-16 -11.974126)
(217.78314 -6.389513e-17 -11.460598)
(217.0121 -2.4051764e-16 -10.942815)
(216.2721 5.07174e-16 -10.423247)
(215.56322 -2.1123823e-16 -9.9043146)
(214.88524 -1.4888308e-16 -9.3883501)
(214.23768 9.2553045e-17 -8.8775703)
(213.61983 8.7083862e-17 -8.3740556)
(213.03079 -1.6291845e-16 -7.8797325)
(212.46949 1.5221628e-16 -7.3963617)
(211.93473 0 -6.9255336)
(211.42524 1.3325988e-16 -6.468665)
(210.9397 -1.866561e-16 -6.0270045)
(210.47679 5.8175313e-17 -5.6016366)
(210.03519 5.4215493e-17 -5.1934892)
(209.61361 0 -4.8033393)
(209.21083 0 -4.4318142)
(208.82559 0 -4.0793867)
(208.45662 0 -3.746368)
(208.10253 0 -3.4328864)
(207.76171 -7.1258663e-17 -3.1388579)
(207.43238 0 -2.8639979)
(207.11245 -6.0666395e-20 -2.6077943)
(206.79943 2.3017725e-16 -2.3694873)
(206.49035 -2.1413625e-16 -2.1480971)
(206.18167 -9.9718751e-17 -1.9424233)
(205.86926 -1.8542152e-16 -1.7510884)
(205.54852 2.5843667e-16 -1.5726241)
(205.2147 5.2052187e-20 -1.4055556)
(204.86303 7.4455872e-17 -1.248453)
(204.48849 0 -1.1001629)
(204.08545 0 -0.95995842)
(203.64941 0 -0.82619731)
(203.18082 -1.1126788e-16 -0.69654575)
(202.68302 0 -0.57842285)
(202.16165 -9.6203075e-17 -0.48186839)
(201.65856 1.3414513e-16 -0.36266523)
(201.21683 8.3184409e-17 -0.26094032)
(200.65599 -1.9254351e-17 -0.45852974)
(223.14696 0 -31.038849)
(262.57461 0 -11.737283)
(244.64117 3.1998179e-16 -30.718885)
(254.58015 1.9205498e-17 -13.816199)
(247.84054 -2.6773541e-16 -28.392925)
(251.03511 0 -16.780674)
(248.20895 1.6041706e-17 -25.560277)
(248.91144 -3.0407476e-17 -19.572742)
(247.51512 0 -23.347697)
(247.12529 1.9168716e-16 -21.312127)
(246.30865 -4.149975e-16 -22.301314)
(245.61917 1.9650698e-16 -21.929067)
(244.85033 2.3325469e-17 -22.054361)
(244.06786 0 -22.010384)
(243.25371 2.093063e-17 -21.995717)
(242.41255 -3.3765035e-16 -21.958336)
(241.54389 7.4420207e-17 -21.907955)
(240.64861 2.4883829e-16 -21.840898)
(239.72759 2.36346e-16 -21.756125)
(238.78203 -2.5492336e-16 -21.652045)
(237.81338 0 -21.527204)
(236.82338 -2.8608304e-16 -21.380166)
(235.81406 2.4289885e-16 -21.209559)
(234.78776 -2.0476032e-16 -21.014127)
(233.74707 1.9298645e-16 -20.792747)
(232.6949 -1.8291746e-16 -20.544456)
(231.63436 3.4507283e-16 -20.268512)
(230.56881 -1.6284789e-16 -19.964396)
(229.50176 1.5403214e-16 -19.631864)
(228.43686 -2.9040902e-16 -19.27096)
(227.37782 1.3668506e-16 -18.882041)
(226.32836 1.2910403e-16 -18.46579)
(225.29213 -2.4361008e-16 -18.023214)
(224.27266 5.6536076e-17 -17.555643)
(223.27331 -5.8899774e-19 -17.06472)
(222.29717 2.5347493e-16 -16.552366)
(221.34705 0 -16.020766)
(220.42539 1.9887801e-19 -15.472321)
(219.53427 0 -14.909605)
(218.67536 -7.9139619e-17 -14.335325)
(217.84991 -1.4874352e-16 -13.752271)
(217.05877 6.9842382e-17 -13.163263)
(216.30238 0 -12.571109)
(215.58079 -6.1558874e-17 -11.978562)
(214.89371 2.8813861e-16 -11.388277)
(214.24052 -3.2349459e-16 -10.802778)
(213.62035 -3.0314379e-16 -10.224437)
(213.03207 2.8303437e-16 -9.6554427)
(212.47436 -1.7665108e-16 -9.0977949)
(211.94578 0 -8.5532915)
(211.44476 0 -8.0235275)
(210.96966 7.2114583e-17 -7.5098975)
(210.51885 6.7304195e-17 -7.013604)
(210.09066 1.2543342e-16 -6.5356664)
(209.6835 -5.8492707e-17 -6.0769335)
(209.29583 -1.0896414e-16 -5.6380958)
(208.92618 -2.0323041e-16 -5.2196947)
(208.57316 -9.483834e-17 -4.8221272)
(208.23541 1.7603022e-16 -4.4456422)
(207.91154 0 -4.0903348)
(207.60009 -7.6264608e-17 -3.7561219)
(207.2994 -1.4177385e-16 -3.4427174)
(207.00767 1.3171006e-16 -3.1496417)
(206.72278 6.1078373e-17 -2.8762021)
(206.44227 5.6828172e-17 -2.6214746)
(206.16322 0 -2.3843339)
(205.88221 1.9598233e-16 -2.163458)
(205.59526 1.8187899e-16 -1.9573774)
(205.29801 -2.5314139e-16 -1.7645533)
(204.98602 7.8296837e-17 -1.5834403)
(204.65488 -7.260389e-17 -1.4125684)
(204.29984 -7.7603054e-20 -1.2508381)
(203.91546 2.4961956e-16 -1.0974045)
(203.49771 -2.314135e-16 -0.95001738)
(203.04715 5.3566983e-17 -0.80683374)
(202.56574 1.4912299e-16 -0.67767028)
(202.06173 -4.6085038e-17 -0.56775652)
(201.58489 -4.2691246e-17 -0.42486383)
(201.15927 0 -0.32129338)
(200.58514 3.6547045e-17 -0.55026758)
(223.14958 3.8929179e-16 -34.941467)
(262.9337 5.5121214e-19 -14.622891)
(244.44871 -3.5661778e-16 -34.533988)
(254.71367 0 -16.928062)
(247.60345 0 -31.991677)
(250.78993 -2.6604221e-16 -20.083356)
(247.86993 2.691392e-16 -28.917625)
(248.39703 6.3834659e-17 -23.00461)
(247.09021 -2.422969e-16 -26.598556)
(246.61769 2.2917217e-16 -24.73821)
(245.73817 -2.449532e-16 -25.568617)
(244.96563 2.0587865e-16 -25.259451)
(244.12015 -4.8845094e-17 -25.326221)
(243.25598 -4.6322053e-17 -25.26791)
(242.35946 -1.7553696e-16 -25.219969)
(241.43439 1.6579446e-16 -25.148981)
(240.48098 -3.5409869e-16 -25.059804)
(239.50051 5.9523074e-16 -24.949456)
(238.49441 -2.8124273e-16 -24.816496)
(237.46447 -2.6688764e-16 -24.65919)
(236.41281 2.516728e-16 -24.47594)
(235.34188 -2.9979582e-17 -24.265236)
(234.25447 -2.256522e-16 -24.025693)
(233.15371 2.1256181e-16 -23.75612)
(232.04301 2.5184264e-16 -23.455534)
(230.92606 -1.4199618e-16 -23.123208)
(229.80679 0 -22.758716)
(228.68927 2.5400783e-16 -22.361955)
(227.5777 -3.1905283e-16 -21.933181)
(226.47631 1.1225299e-16 -21.47302)
(225.38929 -2.8388062e-16 -20.982482)
(224.3207 2.000047e-16 -20.462956)
(223.27441 -6.3033393e-17 -19.916199)
(222.25402 2.3688053e-16 -19.344305)
(221.26279 -2.2219459e-16 -18.749689)
(220.30359 -2.0944679e-16 -18.135024)
(219.37885 1.9630609e-16 -17.503204)
(218.4905 -4.6043544e-17 -16.85729)
(217.64001 0 -16.200447)
(216.82834 8.1502729e-17 -15.535887)
(216.05597 -7.6063374e-17 -14.866816)
(215.32293 0 -14.196377)
(214.6288 1.3396837e-16 -13.527603)
(213.97282 -6.2669927e-17 -12.863376)
(213.35387 -1.7572969e-16 -12.206395)
(212.77057 5.4818573e-16 -11.559149)
(212.22132 -2.0526955e-16 -10.9239)
(211.70434 9.5742792e-17 -10.302676)
(211.21773 -2.6848326e-16 -9.69726)
(210.75952 -1.9501236e-19 -9.1092027)
(210.3277 1.5568059e-16 -8.5398251)
(209.92026 -1.4524715e-16 -7.9902322)
(209.53524 -6.7595522e-17 -7.4613292)
(209.17075 -6.296863e-17 -6.9538383)
(208.82498 -1.1760633e-16 -6.4683163)
(208.49624 2.1837849e-16 -6.0051712)
(208.18295 0 -5.5646735)
(207.88364 9.4383674e-17 -5.1469631)
(207.59687 -3.51269e-16 -4.7520466)
(207.32124 2.444523e-16 -4.3797896)
(207.05526 7.566154e-17 -4.0298895)
(206.79727 1.4058801e-16 -3.7018559)
(206.54547 1.3067339e-16 -3.3950166)
(206.2978 -1.2084173e-16 -3.1085007)
(206.05185 -1.119943e-16 -2.8412269)
(205.80481 -3.1167465e-16 -2.591931)
(205.55342 -6.1171553e-20 -2.3591784)
(205.29388 -8.9085746e-17 -2.141414)
(205.02209 0 -1.9370264)
(204.73392 -2.2912014e-16 -1.744394)
(204.42535 7.0648575e-17 -1.5620201)
(204.09187 0 -1.3888419)
(203.72831 1.2096019e-16 -1.223755)
(203.3312 0 -1.0639465)
(202.90066 1.0340264e-16 -0.90862459)
(202.43722 -1.4331388e-16 -0.76944402)
(201.95331 1.3249112e-16 -0.64499537)
(201.50466 -8.1609969e-17 -0.47919036)
(201.09234 7.5372073e-17 -0.37900658)
(200.51151 0 -0.63502949)
(222.93728 -4.0893646e-16 -39.03964)
(263.08267 3.6095369e-16 -17.644492)
(244.00202 -3.3084111e-16 -38.527534)
(254.58318 3.2890042e-16 -20.218652)
(247.0777 3.1501872e-16 -35.653182)
(250.31962 -1.7887129e-17 -23.573948)
(247.28892 -2.8204875e-16 -32.357466)
(247.75749 -2.6775739e-16 -26.629251)
(246.36098 2.8499285e-16 -29.969728)
(245.78046 0 -28.31212)
(244.82729 2.8438237e-17 -28.968542)
(243.95885 0 -28.710502)
(243.02379 -1.2792589e-16 -28.718218)
(242.06541 2.4153405e-16 -28.633975)
(241.07408 0 -28.544916)
(240.0532 0 -28.429979)
(239.00374 0 -28.290975)
(237.92762 3.8911749e-17 -28.125195)
(236.82701 0 -27.930902)
(235.70452 -2.4338694e-16 -27.706256)
(234.56313 3.279284e-16 -27.449586)
(233.40623 1.240949e-16 -27.159413)
(232.23756 1.7597577e-16 -26.834467)
(231.06123 -2.7641698e-16 -26.473778)
(229.88162 -5.2089898e-17 -26.076696)
(228.70332 -2.4655661e-16 -25.642941)
(227.53112 1.8556639e-16 -25.172643)
(226.36986 -2.1920517e-16 -24.666366)
(225.22434 8.2001793e-17 -24.125118)
(224.09929 7.7543321e-17 -23.550359)
(222.99921 0 -22.943987)
(221.92831 2.7594236e-16 -22.308308)
(220.89041 -2.5917605e-16 -21.646011)
(219.88889 0 -20.960104)
(218.92658 -2.2916681e-16 -20.253875)
(218.00578 2.146459e-16 -19.530809)
(217.12819 -1.0117614e-16 -18.794529)
(216.29492 1.8942453e-16 -18.048724)
(215.50648 -2.6616797e-16 -17.297077)
(214.76284 1.3214587e-19 -16.543199)
(214.06347 -1.5552965e-16 -15.790571)
(213.40736 -7.2793591e-17 -15.042496)
(212.79314 -1.3664932e-16 -14.302054)
(212.21907 2.547221e-16 -13.572075)
(211.6832 -1.1887007e-16 -12.855117)
(211.18334 0 -12.153454)
(210.7172 -3.9404199e-19 -11.469075)
(210.28238 9.6721806e-17 -10.80369)
(209.87648 0 -10.158737)
(209.49709 8.4145218e-17 -9.5354008)
(209.14185 7.86989e-17 -8.9346299)
(208.80849 -7.3059661e-17 -8.3571592)
(208.49482 2.7204411e-16 -7.8035316)
(208.19881 -2.5290824e-16 -7.2741219)
(207.91855 -1.1763735e-16 -6.7691567)
(207.65228 -1.0929166e-16 -6.2887341)
(207.39839 1.0148861e-16 -5.832836)
(207.1554 1.8827379e-16 -5.4013345)
(206.92188 -3.4924594e-16 -4.9939885)
(206.69645 4.0477816e-16 -4.6104344)
(206.47765 -1.4998811e-16 -4.2501526)
(206.26389 1.3903605e-16 -3.912456)
(206.05342 -1.2871813e-16 -3.5964909)
(205.84427 2.3842818e-16 -3.3012192)
(205.63413 -3.3102538e-16 -3.0254156)
(205.42036 2.0405582e-16 -2.767691)
(205.19986 -9.2573086e-20 -2.5265137)
(204.96908 8.7259223e-17 -2.3002543)
(204.72418 0 -2.0872286)
(204.46138 0 -1.8857428)
(204.17697 0 -1.6942946)
(203.86669 -1.2691407e-16 -1.5118079)
(203.52586 8.7246491e-21 -1.3367719)
(203.15145 0 -1.165995)
(202.74264 0 -1.0002559)
(202.29863 9.188941e-17 -0.85206573)
(201.83767 -1.6934904e-16 -0.71217577)
(201.41896 0 -0.52570187)
(201.01633 0 -0.43358571)
(200.43695 -1.3188533e-16 -0.70946373)
(222.47449 2.7619527e-17 -43.341339)
(262.98106 -7.8147021e-16 -20.821656)
(243.27171 3.4609141e-16 -42.659843)
(253.90816 -2.1620871e-17 -23.693838)
(246.23322 3.7129668e-16 -39.436866)
(249.50722 -3.5011271e-16 -27.291718)
(246.3871 0 -35.917119)
(246.72314 -3.1540397e-16 -30.448133)
(245.27435 2.3186275e-16 -33.457538)
(244.56818 2.2024324e-16 -32.02704)
(243.52768 -2.3772971e-16 -32.50389)
(242.54905 0 -32.27802)
(241.5098 1.9603682e-19 -32.224289)
(240.4434 0 -32.100132)
(239.34387 3.8303179e-16 -31.958411)
(238.21459 -7.2359297e-16 -31.785716)
(237.05752 3.4161804e-16 -31.582012)
(235.87547 -4.0355966e-17 -31.344682)
(234.67164 -3.8356641e-17 -31.071797)
(233.44971 3.6464516e-17 -30.761499)
(232.21382 -6.8073286e-17 -30.412194)
(230.96853 -3.2253531e-16 -30.022592)
(229.7188 3.0356061e-16 -29.59177)
(228.46984 5.7227344e-17 -29.11924)
(227.22714 -2.7126805e-16 -28.604967)
(225.99625 -7.1374734e-19 -28.049441)
(224.78278 2.8812575e-16 -27.45367)
(223.59223 -1.8085275e-16 -26.819201)
(222.42987 -6.2964009e-19 -26.148106)
(221.30067 0 -25.442955)
(220.20913 0 -24.706776)
(219.15925 -7.1199128e-17 -23.942998)
(218.15439 1.3328844e-16 -23.155385)
(217.19724 0 -22.347953)
(216.2898 -1.1783806e-16 -21.524892)
(215.43333 2.2048894e-16 -20.690473)
(214.62839 -1.0330322e-16 -19.848959)
(213.87486 -1.9360917e-16 -19.004532)