/*--------------------------------*- C++ -*----------------------------------*\
  =========                 |
  \\      /  F ield         | OpenFOAM: The Open Source CFD Toolbox
   \\    /   O peration     | Website:  https://openfoam.org
    \\  /    A nd           | Version:  12
     \\/     M anipulation  |
\*---------------------------------------------------------------------------*/
FoamFile
{
    format      ascii;
    class       volScalarField;
    location    "1250";
    object      alphat;
}
// * * * * * * * * * * * * * * * * * * * * * * * * * * * * * * * * * * * * * //

dimensions      [1 -1 -1 0 0 0 0];

internalField   nonuniform List<scalar> 
16200
(
0.0004810547074
0.001646139932
0.002738838268
0.003590096007
0.003847965383
0.003387987855
0.002494707465
0.001366028942
0.0007057631852
0.0001812436025
5.680048494e-06
2.616162651e-06
2.371591629e-06
2.333057428e-06
1.854607721e-06
1.598535849e-06
1.396238388e-06
1.253619884e-06
1.161218373e-06
1.101790599e-06
1.067768123e-06
1.05636185e-06
1.064824782e-06
1.091497219e-06
1.136047064e-06
1.199722691e-06
1.285768335e-06
1.400044636e-06
1.552333644e-06
1.759080373e-06
2.048567448e-06
2.470514795e-06
3.11422752e-06
4.145956106e-06
5.892971888e-06
9.034386699e-06
1.503489791e-05
2.712556432e-05
5.25329723e-05
0.0001076077755
0.0002297579372
0.0005054153195
0.001135915129
0.001165245007
0.001165810478
0.001165488536
0.001164491638
0.001164184456
0.001164196146
0.00116430848
0.001164436476
0.001164552033
0.001164650224
0.001164735155
0.00116481414
0.00116489674
0.001164993384
0.001165121438
0.001165294232
0.001165566177
0.0004695244941
0.001592487155
0.002620209963
0.003368039881
0.00346193846
0.002888805285
0.002017207077
0.0009982728057
0.0005516598149
3.994496845e-05
2.644447853e-06
2.177759105e-06
1.984599231e-06
1.947208946e-06
1.649895447e-06
1.418783851e-06
1.235855584e-06
1.106995632e-06
1.02511877e-06
9.736705879e-07
9.45403465e-07
9.374639309e-07
9.471324066e-07
9.726860313e-07
1.013697468e-06
1.071199441e-06
1.148058366e-06
1.249577294e-06
1.384797912e-06
1.569068497e-06
1.828592904e-06
2.208734635e-06
2.790013687e-06
3.721387887e-06
5.295297903e-06
8.118017452e-06
1.349728529e-05
2.431886189e-05
4.703739282e-05
9.625526826e-05
0.0002053807436
0.0004516241968
0.001014925772
0.001165076624
0.001165681481
0.00116548013
0.001164492541
0.001164180664
0.001164192845
0.001164307802
0.001164438905
0.001164557286
0.001164657743
0.001164744265
0.001164824252
0.001164907075
0.001165003523
0.001165130933
0.001165303522
0.001165579309
0.000459843887
0.001541935513
0.002506075924
0.003146959637
0.003086811336
0.002430184316
0.00153964588
0.0007252128144
0.0003627215477
1.377650404e-05
2.056205251e-06
1.822738907e-06
1.666507168e-06
1.631522299e-06
1.460995186e-06
1.253514069e-06
1.089255683e-06
9.735245896e-07
9.013130533e-07
8.568520467e-07
8.33218044e-07
8.274656861e-07
8.36891095e-07
8.597344115e-07
8.955218469e-07
9.451777893e-07
1.011414092e-06
1.099400257e-06
1.218061192e-06
1.382314376e-06
1.616808794e-06
1.962986834e-06
2.493381202e-06
3.341711487e-06
4.770381063e-06
7.323046506e-06
1.217125894e-05
2.189643471e-05
4.225962576e-05
8.625912252e-05
0.0001835534866
0.0004025254265
0.0009022302011
0.001165006558
0.001165604511
0.001165480134
0.001164508785
0.0011641905
0.001164199845
0.001164314289
0.001164446039
0.001164565481
0.001164666997
0.001164754351
0.00116483486
0.001164917725
0.001165013879
0.001165140704
0.001165313147
0.001165592804
0.0004529233251
0.001495258508
0.00239464685
0.002900092357
0.002712522564
0.002020376346
0.001090474215
0.0005355405298
0.0001749896694
4.792413004e-06
1.717035369e-06
1.543095164e-06
1.415404642e-06
1.382617858e-06
1.295844915e-06
1.108483948e-06
9.602963171e-07
8.559600332e-07
7.919868284e-07
7.5331861e-07
7.333235374e-07
7.289801532e-07
7.376352317e-07
7.576041529e-07
7.885215563e-07
8.314487391e-07
8.893082738e-07
9.675947305e-07
1.075532208e-06
1.227876701e-06
1.448014676e-06
1.774296022e-06
2.273417596e-06
3.068649391e-06
4.402561221e-06
6.778165858e-06
1.127933691e-05
2.029270872e-05
3.913748633e-05
7.979333924e-05
0.0001695426906
0.0003711810619
0.000830555834
0.00116504907
0.001165595532
0.001165487003
0.001164542889
0.001164217668
0.001164220708
0.001164330894
0.001164460148
0.001164578273
0.001164679158
0.001164766205
0.001164846494
0.001164929004
0.001165024623
0.001165150806
0.001165322985
0.001165605936
0.0004472272774
0.001452165113
0.002287805399
0.002660338797
0.002353324234
0.001664963933
0.0007849995428
0.0004054566477
4.15798041e-05
1.984430127e-06
1.452646693e-06
1.309880316e-06
1.20558885e-06
1.175631645e-06
1.142967929e-06
9.747628389e-07
8.41980709e-07
7.486199269e-07
6.92387269e-07
6.590121038e-07
6.422455209e-07
6.390843893e-07
6.470283017e-07
6.646105725e-07
6.917393153e-07
7.298240386e-07
7.822213753e-07
8.54881317e-07
9.572710129e-07
1.103824749e-06
1.316682029e-06
1.631601715e-06
2.110696917e-06
2.869284543e-06
4.135093994e-06
6.380787243e-06
1.062415212e-05
1.910295558e-05
3.679366467e-05
7.487446307e-05
0.0001587334922
0.0003466585076
0.000773724373
0.001165173967
0.001165639078
0.001165505812
0.00116459025
0.001164257653
0.001164251799
0.001164354928
0.001164479334
0.001164594366
0.001164693364
0.001164779266
0.00116485881
0.001164940697
0.001165035662
0.001165161212
0.001165333136
0.001165619147
0.0004421940025
0.001412177821
0.002183710287
0.002422050104
0.002007724915
0.001296974051
0.0005808361455
0.0002781689024
1.641683692e-05
1.498491935e-06
1.229706271e-06
1.11765377e-06
1.031801791e-06
1.004049898e-06
1.003314122e-06
8.525471412e-07
7.340218496e-07
6.510522282e-07
6.02125395e-07
5.738001697e-07
5.602464703e-07
5.585414178e-07
5.664162577e-07
5.827369675e-07
6.078089674e-07
6.435062593e-07
6.936686508e-07
7.646280943e-07
8.6594867e-07
1.011711743e-06
1.22311408e-06
1.534119944e-06
2.003719734e-06
2.741923796e-06
3.966868067e-06
6.131911512e-06
1.021260416e-05
1.835014718e-05
3.529469288e-05
7.16857281e-05
0.0001516171522
0.0003302510442
0.0007350935999
0.001165365283
0.001165728094
0.001165549907
0.001164647412
0.001164308212
0.001164291759
0.001164385612
0.001164503175
0.001164613551
0.001164709525
0.001164793508
0.001164871815
0.001164952816
0.001165047013
0.00116517193
0.001165343591
0.001165632351
0.0004371539409
0.0013740327
0.002080020712
0.002174013653
0.001682510052
0.0009490419362
0.0004366345727
0.0001643394163
5.070566755e-06
1.240917855e-06
1.046326506e-06
9.532946489e-07
8.824474367e-07
8.57248554e-07
8.735652872e-07
7.398046609e-07
6.353176888e-07
5.628487401e-07
5.213195051e-07
4.981941107e-07
4.881195569e-07
4.883467714e-07
4.969400311e-07
5.131938462e-07
5.378727974e-07
5.730841616e-07
6.2355601e-07
6.956319174e-07
7.988694228e-07
9.470608075e-07
1.1613893e-06
1.473763143e-06
1.941546103e-06
2.671310596e-06
3.875300101e-06
5.995416665e-06
9.981866206e-06
1.791598994e-05
3.440246704e-05
6.972283225e-05
0.0001470861112
0.0003194648624
0.0007089519869
0.001165602344
0.001165849436
0.001165611392
0.001164711233
0.001164366519
0.001164338458
0.001164421472
0.001164530704
0.001164635218
0.001164727275
0.001164808721
0.001164885399
0.001164965305
0.001165058657
0.001165182957
0.001165354371
0.001165645621
0.0004314053646
0.001335854845
0.001972965935
0.001923460324
0.001391906757
0.0006859214286
0.0003388671647
7.250452987e-05
2.443487294e-06
1.045969715e-06
8.903944912e-07
8.135024266e-07
7.553646768e-07
7.330124614e-07
7.565777104e-07
6.389590211e-07
5.478551029e-07
4.855564509e-07
4.511742503e-07
4.331240006e-07
4.265809461e-07
4.290477175e-07
4.389794428e-07
4.561254483e-07
4.814813331e-07
5.182856247e-07
5.708764441e-07
6.460112235e-07
7.532846837e-07
9.064024191e-07
1.125699431e-06
1.444256986e-06
1.916697815e-06
2.648221944e-06
3.848325808e-06
5.95422423e-06
9.905491645e-06
1.775575694e-05
3.403534165e-05
6.882748272e-05
0.0001448194003
0.0003136278471
0.0006938601172
0.001165868243
0.001165992235
0.001165683617
0.001164778909
0.001164430119
0.001164390071
0.00116446126
0.001164561115
0.001164658872
0.001164746326
0.001164824748
0.001164899485
0.00116497813
0.001165070587
0.001165194295
0.001165365483
0.001165658962
0.0004249691512
0.001295509372
0.00183911736
0.00167094353
0.001113323021
0.0005139319199
0.0002578523809
3.012039228e-05
1.430378022e-06
8.871512725e-07
7.626706668e-07
6.979595303e-07
6.498121202e-07
6.299599321e-07
6.542327013e-07
5.510689863e-07
4.721020437e-07
4.192470767e-07
3.915357041e-07
3.783044435e-07
3.752406497e-07
3.801218669e-07
3.915607505e-07
4.102867801e-07
4.376848965e-07
4.768858251e-07
5.327514023e-07
6.122068593e-07
7.249402555e-07
8.847409309e-07
1.112012139e-06
1.439597715e-06
1.92193305e-06
2.663459056e-06
3.873426317e-06
5.989808215e-06
9.95342625e-06
1.781611388e-05
3.409102401e-05
6.879122765e-05
0.0001443731019
0.0003117650328
0.000687630691
0.001166148268
0.001166146756
0.001165760391
0.001164848287
0.001164496871
0.001164444902
0.001164503768
0.001164593603
0.001164684005
0.001164766372
0.001164841419
0.001164913987
0.001164991253
0.001165082792
0.001165205943
0.001165376933
0.001165672397
0.0004176728685
0.001252794302
0.001690155999
0.001422985719
0.0008244893653
0.000389603567
0.000183925269
1.768843777e-05
1.122729621e-06
7.559878342e-07
6.55439782e-07
6.007931375e-07
5.607432857e-07
5.433546046e-07
5.646740054e-07
4.7468685e-07
4.069045555e-07
3.629301948e-07
3.41500971e-07
3.328383572e-07
3.331182506e-07
3.401570442e-07
3.538429129e-07
3.745519837e-07
4.043072893e-07
4.466065289e-07
5.065500154e-07
5.912261413e-07
7.104911102e-07
8.783716922e-07
1.115577525e-06
1.455095e-06
1.951713481e-06
2.710157742e-06
3.941545017e-06
6.089247828e-06
1.010549895e-05
1.806252892e-05
3.450528374e-05
6.948634598e-05
0.0001454802612
0.0003132981904
0.0006889796607
0.001166430875
0.001166305205
0.001165836589
0.001164917687
0.001164565018
0.001164501522
0.001164547957
0.001164627462
0.001164710165
0.001164787141
0.001164858581
0.001164928829
0.001165004642
0.001165095262
0.001165217903
0.001165388724
0.00116568594
0.0004092692697
0.001207186142
0.001531015735
0.001186520997
0.0006007269459
0.0002993985743
0.0001218215609
1.211320907e-05
9.236364563e-07
6.47092187e-07
5.655218547e-07
5.189927731e-07
4.855391169e-07
4.704840787e-07
4.869734988e-07
4.089469323e-07
3.51431256e-07
3.157203724e-07
3.000808234e-07
2.95592458e-07
2.986193682e-07
3.08271406e-07
3.240204999e-07
3.46934284e-07
3.794621545e-07
4.253869869e-07
4.90003411e-07
5.805799972e-07
7.07218921e-07
8.843135444e-07
1.133068683e-06
1.486926005e-06
2.001466056e-06
2.782582023e-06
4.045055326e-06
6.241628647e-06
1.034466203e-05
1.846580346e-05
3.522370924e-05
7.080427478e-05
0.0001479129487
0.0003177310432
0.0006967986159
0.001166707284
0.001166461517
0.001165908076
0.001164985899
0.001164633172
0.001164558754
0.001164592946
0.001164662085
0.001164736956
0.001164808392
0.001164876098
0.00116494394
0.001165018265
0.001165107991
0.001165230172
0.001165400859
0.001165699602
0.0003992941206
0.001157179957
0.001366932782
0.0009509073452
0.0004559033316
0.0002364770554
5.882479659e-05
6.722026978e-06
7.475985502e-07
5.562218104e-07
4.894899204e-07
4.498440581e-07
4.218712355e-07
4.091051021e-07
4.200651505e-07
3.528120031e-07
3.046225376e-07
2.764655381e-07
2.660104104e-07
2.648976441e-07
2.709196548e-07
2.827683403e-07
3.005827024e-07
3.259298484e-07
3.61588164e-07
4.1155549e-07
4.813006576e-07
5.783053463e-07
7.129912367e-07
9.002242318e-07
1.161855804e-06
1.532044255e-06
2.067532449e-06
2.876154957e-06
4.177938146e-06
6.438495139e-06
1.065800293e-05
1.900430652e-05
3.620673926e-05
7.266719073e-05
0.0001515093566
0.0003247133897
0.0007103078038
0.001166971224
0.001166611253
0.001165971709
0.001165052061
0.001164700278
0.001164615667
0.001164638021
0.001164696966
0.001164764043
0.001164829915
0.001164893848
0.001164959259
0.001165032098
0.001165120971
0.001165242751
0.001165413336
0.001165713394
0.0003874920854
0.001100363547
0.001196504691
0.0007225208513
0.0003589005954
0.0001856176834
3.042652358e-05
3.494126551e-06
6.096754706e-07
4.799943598e-07
4.253720463e-07
3.914599079e-07
3.680108763e-07
3.57300829e-07
3.62581481e-07
3.049234588e-07
2.65160705e-07
2.438500054e-07
2.379677766e-07
2.400173273e-07
2.485243379e-07
2.623953483e-07
2.823630554e-07
3.103838208e-07
3.494765032e-07
4.038083722e-07
4.790252967e-07
5.828619656e-07
7.261230713e-07
9.242320314e-07
1.19980999e-06
1.587952678e-06
2.146890055e-06
2.987086056e-06
4.335232082e-06
6.672955739e-06
1.103515407e-05
1.966093061e-05
3.742347981e-05
7.50148896e-05
0.0001561450951
0.0003339769858
0.0007289108577
0.00116721848
0.001166751337
0.001166025216
0.001165115599
0.001164765564
0.001164671555
0.001164682625
0.001164731701
0.001164791153
0.001164851537
0.001164911732
0.001164974735
0.001165046118
0.001165134196
0.001165255637
0.001165426156
0.001165727321
0.0003742957856
0.001035559379
0.001023085081
0.0005466790685
0.0002796042121
0.0001389984253
1.847183826e-05
1.916545923e-06
5.035574669e-07
4.14439662e-07
3.710704934e-07
3.417840912e-07
3.218887712e-07
3.129218194e-07
3.127982498e-07
2.638275354e-07
2.318090671e-07
2.167331862e-07
2.14497749e-07
2.197715468e-07
2.304132234e-07
2.462582947e-07
2.6851756e-07
2.994313189e-07
3.421931561e-07
4.011205418e-07
4.820535526e-07
5.930181781e-07
7.452533675e-07
9.548082064e-07
1.245261013e-06
1.652580503e-06
2.237030261e-06
3.112244437e-06
4.512886789e-06
6.93948854e-06
1.146799947e-05
2.042260079e-05
3.885081647e-05
7.780308249e-05
0.0001617297718
0.0003453284547
0.0007521798311
0.001167446473
0.001166879796
0.001166067068
0.00116517615
0.001164828495
0.001164725902
0.001164726333
0.001164765974
0.001164818067
0.001164873119
0.001164929667
0.001164990324
0.001165060307
0.001165147662
0.001165268827
0.001165439311
0.00116574139
0.0003607506625
0.000964873595
0.0008341561218
0.0004242199155
0.0002286123364
0.0001019300847
1.298022629e-05
1.10901387e-06
4.202201158e-07
3.575896757e-07
3.22520728e-07
2.982763952e-07
2.81455863e-07
2.742007303e-07
2.694364408e-07
2.285581941e-07
2.03754554e-07
1.943125204e-07
1.955910538e-07
2.033171174e-07
2.158857681e-07
2.337326351e-07
2.58425107e-07
2.92400853e-07
3.389899961e-07
4.026601772e-07
4.894672265e-07
6.077601355e-07
7.692521702e-07
9.906740433e-07
1.296544253e-06
1.724186923e-06
2.335850393e-06
3.249023723e-06
4.707571518e-06
7.233636508e-06
1.195014136e-05
2.127926785e-05
4.047139684e-05
8.099916396e-05
0.0001681978124
0.0003586289079
0.0007798092223
0.001167653871
0.00116699551
0.001166096328
0.001165233512
0.001164888719
0.001164778348
0.00116476884
0.001164799551
0.001164844618
0.00116489455
0.001164947586
0.001165005991
0.001165074651
0.001165161365
0.001165282319
0.001165452795
0.001165755602
0.0003474259819
0.0008864721771
0.0006813726072
0.0003524104794
0.0001950224098
5.781902494e-05
8.781473934e-06
6.984641196e-07
3.544026558e-07
3.083806014e-07
2.799783264e-07
2.597439222e-07
2.461976394e-07
2.405718367e-07
2.320134594e-07
1.986197975e-07
1.804555445e-07
1.756098198e-07
1.802709164e-07
1.900521641e-07
2.044435617e-07
2.243502449e-07
2.515869256e-07
2.887307217e-07
3.392334053e-07
4.077218685e-07
5.004869376e-07
6.262250261e-07
7.971557084e-07
1.030739228e-06
1.352518357e-06
1.801302917e-06
2.441591232e-06
3.395267173e-06
4.916572985e-06
7.55184952e-06
1.247662986e-05
2.22234082e-05
4.227264488e-05
8.458016833e-05
0.0001755040598
0.0003737842095
0.0008115940409
0.001167840249
0.001167098
0.001166118094
0.001165287602
0.001164946035
0.001164828662
0.001164809934
0.001164832259
0.00116487068
0.001164915743
0.001164965436
0.001165021709
0.001165089138
0.001165175303
0.001165296107
0.001165466609
0.001165769958
0.000336831711
0.0007992166285
0.0005598456773
0.0002960975283
0.0001641149372
3.226442542e-05
4.220391844e-06
4.766935727e-07
3.017326725e-07
2.66494917e-07
2.433314586e-07
2.263811286e-07
2.153092755e-07
2.114475741e-07
1.999522129e-07
1.734857314e-07
1.613784911e-07
1.60848462e-07
1.679602366e-07
1.795322559e-07
1.957045437e-07
2.177231193e-07
2.475688006e-07
2.87927181e-07
3.423699034e-07
4.156934261e-07
5.144385041e-07
6.476680808e-07
8.281352225e-07
1.074080617e-06
1.412121698e-06
1.882698551e-06
2.552796367e-06
3.54921199e-06
5.137711875e-06
7.891348226e-06
1.304372402e-05
2.324957583e-05
4.424587091e-05
8.853091524e-05
0.0001836197627
0.0003907360465
0.0008474095217
0.001168005828
0.001167186962
0.001166138138
0.001165338423
0.001165000351
0.001164876711
0.00116484948
0.001164863985
0.001164896163
0.001164936638
0.001164983179
0.001165037454
0.001165103758
0.001165189471
0.001165310188
0.001165480776
0.001165784459
0.0003322702268
0.0007060134433
0.0004680176449
0.0002505445994
0.000134633482
1.943744781e-05
2.040138623e-06
3.492862163e-07
2.583142486e-07
2.304638923e-07
2.114425928e-07
1.972712209e-07
1.882765435e-07
1.859427164e-07
1.726693357e-07
1.527054372e-07
1.457312426e-07
1.491337636e-07
1.582118762e-07
1.713994688e-07
1.893341065e-07
2.134918546e-07
2.459664384e-07
2.895380005e-07
3.479007346e-07
4.260293267e-07
5.307262767e-07
6.714373558e-07
8.614748049e-07
1.119885069e-06
1.474462824e-06
1.967356699e-06
2.668278927e-06
3.709443989e-06
5.369276435e-06
8.250018705e-06
1.364871109e-05
2.435406914e-05
4.638561643e-05
9.284265022e-05
0.0001925296385
0.000409455395
0.0008871962938
0.001168151271
0.001167262169
0.00116615658
0.001165386042
0.001165051654
0.001164922436
0.001164887403
0.001164894654
0.001164921007
0.001164957187
0.001165000784
0.00116505321
0.001165118503
0.001165203868
0.001165324562
0.001165495319
0.001165799104
0.0003368292856
0.000611591842
0.0003858771808
0.0002168481813
0.0001077032426
1.290735186e-05
1.006832698e-06
2.723549202e-07
2.216352671e-07
1.991820059e-07
1.835849476e-07
1.718901035e-07
1.647853887e-07
1.638724235e-07
1.498765112e-07
1.359715232e-07
1.338018929e-07
1.399651141e-07
1.506445475e-07
1.653350372e-07
1.850202796e-07
2.113191611e-07
2.464073366e-07
2.93154583e-07
3.553815146e-07
4.382485059e-07
5.48830302e-07
6.969706457e-07
8.965625676e-07
1.167499824e-06
1.538808736e-06
2.054454208e-06
2.787092972e-06
3.874855634e-06
5.609960677e-06
8.626317781e-06
1.428975209e-05
2.553466059e-05
4.868914653e-05
9.751203222e-05
0.0002022297485
0.0004299378885
0.0009309500111
0.001168277535
0.001167323687
0.001166173523
0.001165430564
0.001165099995
0.001164965837
0.001164923674
0.001164924227
0.001164945175
0.001164977362
0.00116501823
0.001165068966
0.001165133368
0.001165218489
0.00116533923
0.001165510254
0.001165813889
0.0003518609545
0.0005243162545
0.0003324726408
0.000195805686
6.378360914e-05
9.205237045e-06
5.265103945e-07
2.21549126e-07
1.906607592e-07
1.723660657e-07
1.596397744e-07
1.501339752e-07
1.447229089e-07
1.451442216e-07
1.312860387e-07
1.228824005e-07
1.246740627e-07
1.328632378e-07
1.449043555e-07
1.610381876e-07
1.8246306e-07
2.108834233e-07
2.48542851e-07
2.98400949e-07
3.64409512e-07
4.519218004e-07
5.682949416e-07
7.237853126e-07
9.328885668e-07
1.216379618e-06
1.60457155e-06
2.143344626e-06
2.908510342e-06
4.044614093e-06
5.858818381e-06
9.019202072e-06
1.496576309e-05
2.679038016e-05
5.115602435e-05
0.0001025402438
0.0002127255643
0.0004521995253
0.000978711949
0.001168385743
0.001167371782
0.001166189063
0.001165472127
0.001165145463
0.001165006953
0.001164958296
0.00116495269
0.001164968645
0.001164997143
0.001165035503
0.00116508471
0.001165148348
0.001165233332
0.001165354194
0.001165525529
0.001165828807
0.0003753302121
0.0004938833279
0.0002939184518
0.0001783035718
3.452035029e-05
3.845454307e-06
3.064482547e-07
1.857791377e-07
1.648842653e-07
1.498079674e-07
1.393983688e-07
1.317400163e-07
1.278298348e-07
1.293821907e-07
1.164508973e-07
1.127272711e-07
1.177229864e-07
1.274186412e-07
1.406928283e-07
1.582444566e-07
1.813901187e-07
2.118919607e-07
2.520582925e-07
3.049415856e-07
3.746302359e-07
4.666776363e-07
5.887332776e-07
7.514801678e-07
9.700375271e-07
1.266092592e-06
1.671296757e-06
2.233539709e-06
3.03199414e-06
4.218124842e-06
6.115213253e-06
9.428057076e-06
1.567630713e-05
2.812133669e-05
5.378778947e-05
0.00010793237
0.0002240306892
0.0004762739559
0.00103056342
0.001168477101
0.001167406849
0.00116620329
0.001165510881
0.001165188174
0.001165045849
0.001164991299
0.001164980049
0.001164991412
0.00116501652
0.001165052593
0.001165100436
0.001165163436
0.00116524839
0.00116536945
0.001165541104
0.001165843846
0.000403752211
0.0004379149806
0.0002680538161
0.000160402453
1.89488787e-05
1.483935726e-06
2.071457671e-07
1.587623401e-07
1.433188328e-07
1.307836588e-07
1.222214606e-07
1.161626166e-07
1.136424576e-07
1.148686536e-07
1.04863023e-07
1.052756309e-07
1.12427472e-07
1.23322539e-07
1.377731252e-07
1.567233303e-07
1.81554849e-07
2.140789561e-07
2.566704381e-07
3.12478764e-07
3.857344577e-07
4.821982004e-07
6.098214684e-07
7.797273272e-07
1.007677867e-06
1.316302208e-06
1.738638683e-06
2.32467709e-06
3.157156763e-06
4.394977196e-06
6.37874655e-06
9.852596458e-06
1.642144372e-05
2.952847378e-05
5.658752935e-05
0.0001136965922
0.000236165258
0.0005022091313
0.001086618315
0.001168552829
0.001167429347
0.00116621629
0.001165546988
0.00116522826
0.001165082609
0.001165022726
0.001165006321
0.00116501348
0.001165035491
0.001165069495
0.001165116138
0.001165178629
0.001165263661
0.00116538499
0.001165556979
0.001165858988
0.0004382167156
0.0004091987301
0.0002572878048
0.0001399727072
1.117000475e-05
5.416342595e-07
1.608531938e-07
1.370172195e-07
1.24927999e-07
1.144919694e-07
1.075479015e-07
1.029671161e-07
1.015167952e-07
1.013051939e-07
9.606524949e-08
9.977907535e-08
1.084200326e-07
1.203560225e-07
1.359512887e-07
1.562683589e-07
1.827327166e-07
2.172043226e-07
2.621274793e-07
3.207528658e-07
3.974584534e-07
4.982190949e-07
6.312973721e-07
8.082689916e-07
1.045557143e-06
1.366760916e-06
1.806352339e-06
2.416510114e-06
3.283747305e-06
4.574928355e-06
6.649236019e-06
1.029283186e-05
1.720168066e-05
3.101348301e-05
5.955970594e-05
0.0001198438125
0.0002491550859
0.0005300652271
0.001147015671
0.001168614131
0.001167439753
0.001166228147
0.00116558061
0.00116526586
0.00116511733
0.001165052633
0.001165031536
0.001165034859
0.001165054056
0.001165086206
0.001165131812
0.00116519392
0.001165279137
0.001165400808
0.001165573111
0.00116587422
0.000475805921
0.0004017138624
0.0002558045792
9.610135277e-05
5.686075708e-06
2.224752369e-07
1.346843055e-07
1.187970067e-07
1.090649139e-07
1.006503594e-07
9.499539031e-08
9.163547145e-08
9.125537809e-08
9.065906925e-08
8.96147116e-08
9.567324574e-08
1.054525837e-07
1.183471622e-07
1.350519938e-07
1.56687781e-07
1.847178635e-07
2.210525194e-07
2.682086178e-07
3.295420342e-07
4.095832123e-07
5.145276352e-07
6.529575087e-07
8.369130018e-07
1.083495792e-06
1.417302114e-06
1.874283403e-06
2.508895448e-06
3.411636052e-06
4.757883467e-06
6.926689232e-06
1.074903448e-05
1.801791327e-05
3.25786963e-05
6.270994405e-05
0.0001263872101
0.0002630306922
0.0005599124325
0.001169788825
0.001168662173
0.001167438518
0.001166238941
0.001165611908
0.001165301117
0.001165150112
0.001165081083
0.001165055727
0.001165055566
0.001165072221
0.001165102726
0.001165147453
0.001165209305
0.001165294813
0.001165416889
0.001165589403
0.001165889541
0.0005327311862
0.0004107832808
0.0002599125211
4.744771885e-05
1.563248954e-06
1.386582664e-07
1.160534031e-07
1.036874261e-07
9.576040783e-08
8.877962558e-08
8.427054755e-08
8.209450085e-08
8.277594242e-08
8.267233156e-08
8.502986896e-08
9.267568045e-08
1.033474253e-07
1.171461487e-07
1.349146388e-07
1.578087285e-07
1.873289067e-07
2.25437701e-07
2.747274419e-07
3.386629346e-07
4.219317685e-07
5.309560172e-07
6.7464544e-07
8.655158713e-07
1.121364292e-06
1.467810776e-06
1.942331403e-06
2.601747603e-06
3.540758464e-06
4.943826107e-06
7.211214699e-06
1.122161565e-05
1.887125204e-05
3.422681762e-05
6.604458492e-05
0.0001333414516
0.0002778258322
0.0005918281447
0.001169869667
0.001168698072
0.001167426036
0.001166248749
0.001165641035
0.001165334171
0.001165181054
0.001165108141
0.001165078931
0.001165075618
0.001165089994
0.001165119055
0.001165163057
0.001165224778
0.001165310683
0.0011654332
0.001165605738
0.001165904955
0.0005887903833
0.0004111415075
0.0002578497628
2.254669247e-05
3.820985244e-07
1.132592571e-07
1.014280802e-07
9.119017699e-08
8.448654115e-08
7.87292502e-08
7.528597397e-08
7.424778126e-08
7.595700746e-08
7.696326505e-08
8.181485035e-08
9.051810602e-08
1.01954711e-07
1.166102665e-07
1.353884401e-07
1.594741349e-07
1.904058546e-07
2.302004115e-07
2.815283585e-07
3.479668836e-07
4.343649829e-07
5.473767802e-07
6.962470041e-07
8.939779277e-07
1.159078348e-06
1.518218721e-06
2.010445018e-06
2.695034014e-06
3.671109523e-06
5.132810803e-06
7.503010639e-06
1.171110807e-05
1.976298741e-05
3.596085045e-05
6.957052488e-05
0.0001407223193
0.0002935766268
0.0006258950161
0.001169935527
0.001168722902
0.001167402608
0.001166257645
0.00116566814
0.001165365155
0.001165210259
0.001165133871
0.001165101188
0.001165095038
0.001165107382
0.001165135193
0.00116517862
0.001165240332
0.001165326735
0.001165449687
0.001165622176
0.001165920443
0.0006447694468
0.0004070296778
0.0002461586844
1.137653274e-05
1.502220614e-07
9.845315066e-08
8.923275891e-08
8.072359253e-08
7.49954558e-08
7.028676043e-08
6.786162796e-08
6.792903419e-08
7.061441997e-08
7.303592784e-08
7.955221303e-08
8.901064793e-08
1.011431852e-07
1.166070714e-07
1.363370914e-07
1.615462258e-07
1.938124586e-07
2.35209008e-07
2.884872686e-07
3.573399817e-07
4.467814353e-07
5.637028813e-07
7.176910986e-07
9.222453833e-07
1.196602852e-06
1.568511055e-06
2.078631581e-06
2.788788035e-06
3.802760778e-06
5.324984628e-06
7.802391912e-06
1.22181989e-05
2.069462954e-05
3.778413908e-05
7.329523673e-05
0.0001485466416
0.0003103212082
0.0006621997968
0.001169987684
0.001168737701
0.001167368417
0.001166265698
0.001165693361
0.001165394198
0.001165237822
0.00116515834
0.001165122536
0.001165113846
0.001165124395
0.001165151142
0.001165194137
0.001165255961
0.001165342953
0.001165466309
0.001165638849
0.001165935947
0.0006791944928
0.000401824894
0.0002217337888
6.776942675e-06
1.137505355e-07
8.649211334e-08
7.90142229e-08
7.189454376e-08
6.697893317e-08
6.322239138e-08
6.181466852e-08
6.295463852e-08
6.653622132e-08
7.038121615e-08
7.795483248e-08
8.801831482e-08
1.007978948e-07
1.170201843e-07
1.376431973e-07
1.639088406e-07
1.974362145e-07
2.403570026e-07
2.955058418e-07
3.666938874e-07
4.591042774e-07
5.798701741e-07
7.389272811e-07
9.50282411e-07
1.233917594e-06
1.618684438e-06
2.14690641e-06
2.88304749e-06
3.935785221e-06
5.52049372e-06
8.10966917e-06
1.274356385e-05
2.166766267e-05
3.96999766e-05
7.722610094e-05
0.0001568310945
0.0003280974701
0.0007008289385
0.001170027296
0.001168743494
0.001167331542
0.001166272973
0.001165716825
0.001165421421
0.001165263835
0.00116518161
0.001165143017
0.001165132064
0.001165141043
0.001165166902
0.001165209603
0.001165271657
0.001165359318
0.001165483037
0.001165655761
0.001165951415
0.0006773802776
0.0004028701014
0.0001863070691
2.667493047e-06
9.434545456e-08
7.657412191e-08
7.039899428e-08
6.440545578e-08
6.020072898e-08
5.736172211e-08
5.698636619e-08
5.913097205e-08
6.346433773e-08
6.857412886e-08
7.684009725e-08
8.74329871e-08
1.008159865e-07
1.177470172e-07
1.392062618e-07
1.66465787e-07
2.011873928e-07
2.455630915e-07
3.025128829e-07
3.759688822e-07
4.712863562e-07
5.958449231e-07
7.599359664e-07
9.780843013e-07
1.271033635e-06
1.668766939e-06
2.215316517e-06
2.977882638e-06
4.070289903e-06
5.719521025e-06
8.425192588e-06
1.328791828e-05
2.268360335e-05
4.171166391e-05
8.137043698e-05
0.0001655921105
0.0003469426059
0.0007418670589
0.001170055409
0.001168740977
0.001167296856
0.001166279531
0.001165738652
0.001165446938
0.001165288386
0.001165203741
0.001165162666
0.001165149713
0.001165157335
0.001165182473
0.001165225012
0.00116528741
0.001165375808
0.00116549985
0.001165672912
0.001165966817
0.000670766868
0.0004072043376
0.0001016719618
9.191304822e-07
8.139429937e-08
6.836289411e-08
6.315852668e-08
5.807428994e-08
5.451445382e-08
5.258957733e-08
5.323131909e-08
5.626140758e-08
6.102445565e-08
6.732474825e-08
7.60931515e-08
8.716771185e-08
1.011116498e-07
1.187030289e-07
1.409447639e-07
1.691402914e-07
2.049955383e-07
2.507644671e-07
3.094543047e-07
3.851204203e-07
4.832932732e-07
6.116033121e-07
7.807042732e-07
1.00564945e-06
1.307961103e-06
1.718781087e-06
2.283898052e-06
3.073346642e-06
4.206357398e-06
5.922214712e-06
8.749258788e-06
1.385188555e-05
2.374379702e-05
4.382216682e-05
8.573488705e-05
0.000174844714
0.0003668908222
0.0007853923013
0.001170072978
0.0011687306
0.001167264209
0.001166285428
0.001165758954
0.001165470853
0.001165311557
0.00116522479
0.00116518152
0.001165166813
0.001165173278
0.001165197855
0.001165240358
0.001165303209
0.001165392397
0.001165516732
0.001165690287
0.001165982092
0.0006583018074
0.0004080385621
5.648160328e-05
3.516899259e-07
7.182829121e-08
6.154752364e-08
5.705928553e-08
5.271912166e-08
4.978437722e-08
4.878730631e-08
5.037905359e-08
5.414270462e-08
5.940909306e-08
6.645283013e-08
7.562948347e-08
8.714717326e-08
1.016113306e-07
1.198177529e-07
1.427928878e-07
1.718726186e-07
2.088082358e-07
2.55917041e-07
3.162951423e-07
3.941232713e-07
4.951099841e-07
6.271408355e-07
8.012385498e-07
1.032995443e-06
1.344729309e-06
1.768768718e-06
2.352706622e-06
3.169512349e-06
4.344090046e-06
6.128741021e-06
9.08217423e-06
1.443607391e-05
2.484951011e-05
4.603421754e-05
9.0325488e-05
0.0001846024329
0.0003879726923
0.0008314741001
0.001170080888
0.00116871274
0.001167233466
0.001166290715
0.001165777831
0.001165493265
0.001165333425
0.001165244812
0.001165199614
0.001165183384
0.001165188882
0.001165213046
0.001165255634
0.001165319044
0.001165409054
0.001165533665
0.001165707862
0.001165997196
0.0006396493803
0.0003989756374
2.787861577e-05
1.588132775e-07
6.424381932e-08
5.591823159e-08
5.195242942e-08
4.821605051e-08
4.591095008e-08
4.583439881e-08
4.825242055e-08
5.259172372e-08
5.832376543e-08
6.585042895e-08
7.538358603e-08
8.730971646e-08
1.022562179e-07
1.210365517e-07
1.447014716e-07
1.74620255e-07
2.12590619e-07
2.609944221e-07