/*--------------------------------*- C++ -*----------------------------------*\
  =========                 |
  \\      /  F ield         | OpenFOAM: The Open Source CFD Toolbox
   \\    /   O peration     | Website:  https://openfoam.org
    \\  /    A nd           | Version:  12
     \\/     M anipulation  |
\*---------------------------------------------------------------------------*/
FoamFile
{
    format      ascii;
    class       volScalarField;
    location    "1250";
    object      omega;
}
// * * * * * * * * * * * * * * * * * * * * * * * * * * * * * * * * * * * * * //

dimensions      [0 0 -1 0 0 0 0];

internalField   nonuniform List<scalar> 
16200
(
714053.2273
282951.143
160350.8431
111154.9819
86457.1298
70318.96952
55363.17973
33587.1345
7690.922152
777.8435144
319.0126147
200.2316149
129.7982437
87.08378883
62.20899718
46.65676734
35.15165443
26.72874266
20.59958354
16.00901208
12.5323443
9.894171251
7.884021904
6.343241321
5.153775002
4.227659255
3.500571995
2.925777417
2.469568678
2.10808901
1.823908318
1.602739697
1.431512091
1.299059015
1.197647269
1.122275468
1.069047309
1.033862546
1.012196987
0.9997210882
0.9929697291
0.9895621046
0.9880443469
0.9876181639
0.9872684815
0.9865172107
0.9854601971
0.9849687878
0.9847724673
0.9847110825
0.9847209891
0.9847838471
0.9849045036
0.9851027002
0.9854117196
0.9858818355
0.9865882414
0.9876487472
0.989260771
0.9918110294
750483.781
298543.803
169025.5801
117138.4695
90853.43416
72857.62759
54809.24724
26724.44199
4004.499876
596.9726106
322.924611
204.0574394
132.2819776
88.54288535
62.88054091
47.08517398
35.3819038
26.81790346
20.61472097
15.98479459
12.4870159
9.840279318
7.829299926
6.291998529
5.108237233
4.188658401
3.468100457
2.899314257
2.448240218
2.090937555
1.810223632
1.592237436
1.42409384
1.294391067
1.195107265
1.121128175
1.068659814
1.033810303
1.012251733
0.9997837225
0.9930069001
0.9895662383
0.9880127679
0.9875480987
0.9872354962
0.9865712016
0.9855253582
0.985035464
0.9848442965
0.9847897847
0.9848070121
0.9848767475
0.985003101
0.9852050872
0.9855152973
0.9859833996
0.986684706
0.9877388615
0.9893510218
0.9919388246
785552.81
313714.2823
177481.8887
122970.1705
94807.16888
74822.23655
52362.66191
18962.02244
2098.589198
547.0272172
327.7573569
207.457167
134.4562921
89.80397174
63.4429707
47.42520156
35.54096308
26.84955091
20.58303781
15.9234629
12.41265196
9.763787915
7.756921094
6.226777499
5.051439723
4.140426931
3.427959595
2.866452326
2.421605451
2.069435812
1.793002175
1.578879845
1.414418815
1.288011158
1.191345436
1.119174929
1.067790651
1.033505024
1.012197479
0.9998178311
0.9930550415
0.9895980416
0.9880142814
0.9875077144
0.9872124912
0.9866136268
0.9855883851
0.9851018894
0.9849155112
0.9848669077
0.984890535
0.9849665122
0.9850982998
0.9853042305
0.9856162057
0.9860832954
0.9867807827
0.9878298834
0.9894425589
0.9920648835
818236.876
327826.4351
185502.7962
128562.3432
98175.62642
76215.59003
47142.75194
11691.21835
1289.207505
536.8804073
331.5712755
210.1240912
136.1618921
90.78369002
63.85677035
47.65050566
35.61137444
26.81129021
20.49677201
15.81928694
12.3048393
9.66109642
7.663778265
6.144783592
4.980810759
4.080587658
3.377977666
2.825265818
2.388043606
2.042318255
1.771339041
1.562067749
1.402104044
1.279666956
1.186180327
1.116272816
1.066321891
1.032849366
1.011955738
0.9997618761
0.9930669692
0.9896218597
0.9880227157
0.987481935
0.9871905529
0.9866283128
0.9856395073
0.9851620624
0.9849823585
0.9849400936
0.9849700947
0.9850522615
0.9851896001
0.9853998635
0.9857143186
0.9861814656
0.9868764835
0.9879219193
0.9895357453
0.9921900666
848060.1044
340881.0022
192988.9881
133816.1292
101237.2722
75697.65575
38222.33265
6478.817868
1010.365528
537.5100783
334.3875673
212.0933702
137.4083175
91.47834377
64.12145164
47.75797068
35.58946249
26.70002842
20.35349724
15.67017455
12.16180015
9.530656858
7.548486047
6.044773045
4.895257683
4.008231649
3.317473695
2.77534415
2.347436671
2.009740934
1.74559695
1.542268226
1.387619864
1.269763358
1.179922656
1.112639454
1.06439446
1.031928475
1.011575002
0.9996422347
0.9930565342
0.9896446578
0.9880413483
0.9874723722
0.9871747922
0.9866295196
0.9856833519
0.9852184379
0.9850463173
0.9850103572
0.9850464622
0.9851346173
0.9852775133
0.9854924006
0.9858099579
0.9862781409
0.9869719672
0.9880151035
0.9896307858
0.9923145654
874476.923
352893.2975
200001.6628
138564.4252
103771.3689
72689.06226
29155.38511
3798.068366
927.9563726
539.5071113
336.0525867
213.2868989
138.1474116
91.85577382
64.21903921
47.73293043
35.4637616
26.50736891
20.14701593
15.47129621
11.97973424
9.369422162
7.408568515
5.924748873
4.793223117
3.92223603
3.245762315
2.716420128
2.299873164
1.972043947
1.716245214
1.519966303
1.371385674
1.258615452
1.172781203
1.108396852
1.0620697
1.030766567
1.01105971
0.9994545196
0.993016478
0.989658985
0.9880635315
0.9874747737
0.9871644683
0.9866285213
0.9857190822
0.9852704353
0.9851070883
0.9850776218
0.9851197157
0.9852137542
0.9853622636
0.9855820761
0.985903339
0.9863734956
0.9870673669
0.9881095537
0.9897278734
0.9924386821
897256.8242
364069.9804
206728.6988
142580.9891
106099.9726
66645.38364
20665.60537
2534.923078
901.582809
539.7847014
336.4955741
213.6907934
138.369538
91.9044645
64.14009296
47.56547718
35.225007
26.22582142
19.87149934
15.21811617
11.75522721
9.174867662
7.24220309
5.78348468
4.674022907
3.822428796
3.163138504
2.649162972
2.246255138
1.930205882
1.684211209
1.49595806
1.354030813
1.246684526
1.165070293
1.103744258
1.059464701
1.029426834
1.010440601
0.9992116045
0.9929506918
0.9896645707
0.9880871077
0.9874863695
0.9871584659
0.9866253267
0.9857482289
0.9853186858
0.9851650212
0.9851421776
0.9851901519
0.9852899835
0.9854441643
0.9856691866
0.9859947223
0.9864677375
0.9871628347
0.9882053848
0.9898271519
0.992562611
916162.3838
374599.1728
213349.7822
146443.9098
106310.0405
55704.52755
13406.30273
1979.791731
886.2391892
538.6025329
335.8293844
213.3296214
138.0744652
91.61396167
63.87164356
47.24248639
34.86171829
25.84699364
19.5211976
14.90683029
11.48590855
8.945609585
7.048711423
5.620875068
4.538058898
3.709251173
3.070433427
2.574666865
2.18776152
1.885330467
1.650544857
1.471057786
1.336154453
1.234389196
1.157066195
1.098852819
1.056678105
1.027961378
1.009742167
0.9989229678
0.992861235
0.9896601541
0.9881093705
0.9875039884
0.987155203
0.9866194294
0.9857716354
0.9853634431
0.9852202382
0.985204167
0.9852579674
0.9853635484
0.9855234835
0.9857540012
0.9860843546
0.9865610706
0.9872585225
0.9883027048
0.9899287382
0.9926865273
931060.8732
384878.8087
219709.9785
149953.4364
103060.2427
44269.93183
8613.728708
1716.81534
881.3801179
535.7146493
333.9654024
212.1568714
137.2371117
90.9683688
63.39960165
46.7525876
34.36538992
25.36585427
19.09351315
14.5364273
11.17177001
8.682242619
6.829097909
5.438272809
4.386381521
3.584866668
2.969950051
2.495140219
2.126320157
1.838956534
1.616184943
1.446036236
1.318301304
1.222104296
1.149017612
1.093879807
1.053803629
1.026422148
1.008990731
0.9986003718
0.992752232
0.9896461379
0.9881288921
0.9875250352
0.9871533763
0.9866103984
0.9857904842
0.9854051467
0.9852729569
0.9852637778
0.9853233783
0.9854346983
0.9856004909
0.9858367895
0.9861724845
0.9866537034
0.9873545854
0.9884016171
0.9900327208
0.9928105654
942259.3376
394976.9475
225335.1102
153619.3718
95827.85224
33655.29452
5843.167085
1583.043434
873.4148955
531.050852
330.9134361
210.178859
135.8623944
89.9693916
62.71727616
46.08970427
33.73156957
24.78082929
18.58878532
14.10845707
10.81497324
8.387165819
6.584971099
5.237349381
4.222100022
3.452030924
2.8642781
2.412832016
2.063727932
1.79242401
1.582169283
1.421523706
1.300898647
1.21011862
1.141116404
1.088948172
1.05091601
1.024851599
1.008208465
0.9982541561
0.9926276228
0.9896232341
0.988144745
0.9875473111
0.9871518417
0.9865977732
0.9858057999
0.9854441866
0.9853233747
0.9853211831
0.9853865855
0.9855036679
0.9856754431
0.9859178119
0.9862593558
0.9867458425
0.9874511782
0.9885022198
0.9901391658
0.9929348328
949945.7182
405053.6883
230549.7957
156093.7993
83064.70869
24034.7053
4268.362226
1504.180966
863.1613092
524.7372649
326.7392165
207.4281855
133.966936
88.62563234
61.81998167
45.24979001
32.9583391
24.09339794
18.01032641
13.62711552
10.41979463
8.063207134
6.320509307
5.022369829
4.048759392
3.314030037
2.756262072
2.330009153
2.001648046
1.746868972
1.54923614
1.397989813
1.284252778
1.198637303
1.133501011
1.084149335
1.048072876
1.023283798
1.007413997
0.9978935651
0.9924913507
0.9895925783
0.9881565851
0.9875691116
0.9871497103
0.9865811667
0.9858185385
0.9854809578
0.9853717042
0.9853765645
0.9854477904
0.9855706871
0.9857485893
0.9859973214
0.9863452065
0.986837692
0.9875484537
0.988604605
0.9902481184
0.9930594091
954214.1745
415135.8241
235782.0476
153529.3256
68993.51169
16612.44512
3395.07296
1449.226245
848.8265966
516.7560589
321.4578706
203.9209934
131.5645432
86.94786104
60.70413481
44.23116302
32.04717602
23.30882867
17.36461211
13.09894532
9.99056158
7.71599229
6.040405734
4.797722902
3.870423346
3.17440366
2.648736187
2.248749394
1.941482029
1.70317169
1.517911731
1.375744192
1.268555581
1.187787677
1.126259804
1.079544409
1.045314703
1.021743842
1.006621727
0.9975261478
0.9923469042
0.9895553994
0.9881644222
0.9875891597
0.9871463193
0.9865602712
0.985829503
0.9855158193
0.9854181547
0.985430104
0.9855071913
0.9856359786
0.98582017
0.9860755624
0.986430268
0.986929451
0.9876465609
0.9887088581
0.9903596051
0.9931843509
955240.8677
424967.1544
241520.1518
145352.8546
56268.74242
11857.33378
2910.766868
1406.307845
831.1054123
507.1579485
315.1473278
199.703259
128.6838013
84.95571494
59.37047199
43.03638293
31.00398024
22.43635416
16.66074427
12.53030552
9.534605461
7.351350138
5.749959714
4.568349145
3.691455389
3.036672181
2.5442848
2.170789893
1.884304798
1.661947875
1.488527403
1.35496041
1.253905754
1.177634764
1.119440997
1.075169893
1.042667771
1.020249217
1.005842337
0.9971578764
0.9921972785
0.989512932
0.9881685207
0.9876065545
0.9871412123
0.9865348741
0.985839355
0.9855490965
0.9854629326
0.9854819849
0.9855649844
0.9856997593
0.9858904173
0.9861527704
0.9865147634
0.9870213124
0.9877456438
0.9888150573
0.9904736355
0.9933096927
953365.5543
433676.1406
248888.5586
131783.0856
42890.73619
8702.328651
2610.0075
1364.84117
810.7499878
494.9390231
307.8498688
194.8143395
125.3563412
82.67301602
57.82229061
41.67085517
29.83786136
21.48790364
15.90919962
11.9303034
9.059096158
6.975537011
5.455060702
4.33956801
3.516181801
2.903993034
2.445008222
2.097417787
1.830841126
1.623566814
1.461250078
1.335704789
1.240331177
1.168196666
1.113062215
1.071043096
1.040146957
1.018811072
1.005083267
0.9967932476
0.9920449258
0.9894663191
0.9881692881
0.9876206989
0.9871341008
0.9865048526
0.9858486157
0.985581075
0.9855062369
0.9855323896
0.9856213629
0.9857622395
0.9859595545
0.9862291713
0.9865989072
0.9871134618
0.9878458396
0.9889232728
0.9905902029
0.9934354497
949184.6259
441209.1659
250498.5925
113793.5769
32046.94858
6718.426087
2411.66391
1322.121034
787.9133019
481.1991697
299.1638928
189.3317072
121.6284949
80.12792399
56.06412645
40.14138335
28.56030332
20.47739016
15.11766781
11.30804974
8.571443657
6.595480269
5.162155503
4.116684374
3.348413148
2.778824627
2.352364133
2.029431388
1.781485
1.588189358
1.436187232
1.317966119
1.227810481
1.159459132
1.107119679
1.06716753
1.037758667
1.017435681
1.004349369
0.9964355163
0.9918917978
0.9894165766
0.9881672038
0.9876312351
0.9871248289
0.9864701626
0.9858576861
0.9856120041
0.9855482582
0.9855814974
0.9856765155
0.9858236225
0.9860277957
0.9863049812
0.9866829039
0.9872060761
0.9879472782
0.9890335656
0.9907092859
0.993561619
943244.3685
445239.9594
242260.2776
98598.69558
24163.79939
5488.450999
2272.996002
1279.963736
763.5595671
466.2540563
289.5811434
183.0514335
117.5283491
77.339229
54.096874
38.45513748
27.18546224
19.42065428
14.29979909
10.67260348
8.079702966
6.218913469
4.877776215
3.90430895
3.190982419
2.662736545
2.267139741
1.967176932
1.736350621
1.555809228
1.413210536
1.301681208
1.216290687
1.151387285
1.101595633
1.063537328
1.0355033
1.016125713
1.003643488
0.996086925
0.9917394027
0.9893645772
0.988162766
0.9876379855
0.9871133405
0.9864345224
0.9858668669
0.9856420997
0.9855891771
0.9856294835
0.985730626
0.985884104
0.9860953454
0.9863804053
0.9867669481
0.9872993225
0.9880500802
0.9891459871
0.9908308493
0.9936881811
936439.634
443656.949
225977.383
82053.0257
18295.96818
4695.346583
2163.695618
1236.970837
737.6025856
450.1164581
279.1753699
176.1827355
112.9518626
74.32759737
51.92469001
36.62450021
25.73248057
18.32742916
13.46767817
10.0335334
7.593056588
5.853966568
4.607638874
3.705763724
3.045571827
2.556452747
2.189555232
1.910644583
1.695343569
1.52631113
1.392209307
1.286755766
1.205701031
1.143934722
1.09646417
1.060140813
1.033377296
1.014881321
1.002967002
0.9957489331
0.9915888805
0.9893110546
0.9881564603
0.9876409046
0.9870994613
0.9864019265
0.9858763794
0.9856715491
0.9856291639
0.9856765173
0.9857838715
0.9859438714
0.9861623983
0.9864556384
0.986851223
0.987393358
0.9881543564
0.9892605779
0.9909548475
0.9938151009
930120.8905
435240.6805
201566.1546
65801.48646
14014.22318
4158.306092
2065.439418
1192.375727
710.0559994
432.8654874
268.0217396
168.8050524
108.0209335
71.07305719
49.55489945
34.66704643
24.22463322
17.22268993
12.63315848
9.401434995
7.121507102
5.507904796
4.355769283
3.522896655
2.912838457
2.460036072
2.119420496
1.859578867
1.658229945
1.499540788
1.373037949
1.273079232
1.195962412
1.137049685
1.091695238
1.056963
1.031374613
1.013700966
1.002320235
0.9954224031
0.9914410697
0.9892566132
0.9881487403
0.9876400489
0.9870829092
0.9863724776
0.9858863839
0.9857005153
0.9856683786
0.9857227614
0.9858364221
0.9860031033
0.9862291385
0.9865308637
0.9869359006
0.9874883283
0.9882602065
0.9893773678
0.9910812234
0.9939423293
925254.815
420511.3451
176698.343
52214.56655
11025.58644
3787.268211
1972.721609
1146.464588
681.3511899
414.7529633
256.2636409
161.0038441
102.8036168
67.62831194
46.99982232
32.60810177
22.6765392
16.12640389
11.80875098
8.78834609
6.674558325
5.185910275
4.1243302
3.3563438
2.792705243
2.373115196
2.056294648
1.813582651
1.624712825
1.475229764
1.355535379
1.260536048
1.186994319
1.130679552
1.087257608
1.053987498
1.029487895
1.012582075
1.001702804
0.9951077676
0.9912965739
0.9892017454
0.9881400202
0.9876355525
0.9870634911
0.9863461798
0.9858969956
0.9857291412
0.9857069714
0.9857683711
0.9858884401
0.9860619688
0.9862957396
0.9866062531
0.9870211408
0.9875843671
0.9883677184
0.9894963747
0.9912099054
0.9940698034
921422.3528
400951.2208
158951.381
41518.97376
8954.321773
3516.207809
1884.858952
1097.887575
651.6280077
395.8682534
243.9593241
152.8237397
97.3368067
64.04959658
44.27959106
30.48216902
21.1293073
15.04698548
11.00799883
8.206400808
6.259175344
4.890641786
3.913948372
3.205877109
2.684611044
2.295055855
1.999600146
1.772188856
1.594426308
1.453139571
1.339536941
1.249012013
1.178718548
1.124773235
1.083120499
1.051197618
1.027709176
1.011521471
1.001113859
0.9948051462
0.9911558118
0.9891468453
0.9881306727
0.9876275989
0.9870410843
0.9863229726
0.9859082968
0.9857575532
0.9857450822
0.9858134936
0.9859400791
0.9861206277
0.9863623644
0.9866819664
0.9871070912
0.9876815956
0.9884769675
0.9896176037
0.9913408014
0.9941974477
916786.1987
378694.5059
142175.0373
32798.95012
7504.644969
3302.197338
1799.234315
1048.142654
621.0378879
376.3264882
231.2020164
144.3405549
91.71454033
60.38626554
41.4319543
28.33455561
19.61533717
13.99865782
10.24563354
7.665482818
5.879028618
4.62280737
3.724249283
3.070738522
2.587722763
2.225098281
1.948710988
1.73492027
1.567027453
1.433035252
1.324884114
1.238399419
1.171062155
1.119283086
1.079254902
1.048577279
1.026030482
1.010515737
1.000552287
0.9945144537
0.9910190663
0.9890922253
0.9881210338
0.9876164017
0.9870156179
0.9863027565
0.9859203463
0.9857858636
0.9857828417
0.9858582677
0.985991484
0.9861792296
0.9864291645
0.9867581517
0.9871938869
0.987780122
0.9885880154
0.9897410456
0.9914738014
0.994325174
911487.8703
350473.9235
123235.4947
25556.94219
6471.81298
3114.325866
1714.922398
997.5509986
589.8859557
356.3443381
218.1431487
135.6994116
86.07524465
56.65013438
38.51026695
26.20192475
18.16256561
12.99714581
9.535122089
7.171104584
5.534973597
4.381801694
3.554201163
2.949839223
2.501060428
2.162434889
1.902999733
1.701308399
1.542188049
1.414694182
1.311428577
1.228598813
1.163958302
1.114165444
1.075634018
1.046111373
1.024444103
1.009561407
1.000016834
0.9942354651
0.9908865167
0.9890381276
0.98811141
0.987602191
0.9869870536
0.9862854106
0.9859331865
0.9858141732
0.9858203712
0.9859028236
0.9860427905
0.986237914
0.9864962802
0.9868349444
0.9872816494
0.9878800404
0.9887009093
0.9898666759
0.991608788
0.994452883
903887.0772
328369.1892
106100.4321
19885.77835
5755.750866
2948.700663
1631.651658
946.9730187
558.6805782
336.2191016
205.0901202
127.1388267
80.35929045
52.84556528
35.58145977
24.14822007
16.79326753
12.05864068
8.885424864
6.724657611
5.226095851
4.166218557
3.402380484
2.84192088
2.423595403
2.106267317
1.861868828
1.670920747
1.519605262
1.397911842
1.299034913
1.219520137
1.157346783
1.109380971
1.072233553
1.043786025
1.022942807
1.008655113
0.9995061959
0.9939678714
0.9907582677
0.9889847345
0.9881020872
0.9875852059
0.9869553671
0.9862708049
0.9859468486
0.9858425726
0.9858577831
0.9859472828
0.9860941249
0.9862968099
0.9865638403
0.9869124676
0.9873704869
0.9879814306
0.9888156817
0.9899944548
0.9917456293
0.9945804652
892671.222
316948.7933
89340.1745
15600.84639
5269.587295
2800.146327
1548.33958
897.2384544
527.8529695
316.6709232
192.1819386
118.5043373
74.62819225
48.96445879
32.72226943
22.22249586
15.52412271
11.19697885
8.299650932
6.324875625
4.950453422
3.974173575
3.267158483
2.745668358
2.354314254
2.055839786
1.824767964
1.643364722
1.499005964
1.38250403
1.287581479
1.211082885
1.15117397
1.104894626
1.06903176
1.041588685
1.021519937
1.007793674
0.9990190808
0.9937113174
0.9906343708
0.9889321755
0.9880933421
0.9875656913
0.9869205304
0.9862588081
0.9859613558
0.9858711438
0.9858951812
0.9859917575
0.9861456039
0.9863560359
0.9866319618
0.9869908313
0.9874604934
0.9880843573
0.988932349
0.9901243258
0.9918841701
0.9947078037
877125.5382
312887.3668
72791.63081
12706.20393
4948.114824
2665.301589
1469.110116
849.9283534
498.4542646
297.1800162
179.2070073
109.8784303
68.959922
45.10104333
30.01088813
20.44647087
14.36627837
10.41972681
7.776566576
5.969108242
4.70554543
3.803553736
3.146852418
2.659796601
2.292264683
2.010461351
1.791203274
1.618291902
1.480148793
1.368307973
1.276960849
1.203216168
1.145392753
1.100675631
1.066009477
1.039508204
1.020169499
1.006974166
0.9985542615
0.9934654338
0.9905148439
0.9888805335
0.9880828902
0.9875438988
0.9868824945
0.986249293
0.9859767255
0.9858999606
0.9859326604
0.9860363511
0.9861973342
0.9864156994
0.9867007495
0.9870701319
0.9875517479
0.9881888689
0.9890509104
0.9902562127
0.9920242347
0.9948347743
857327.5448
297740.272
56914.34097
10866.52972
4703.318387
2530.721536
1396.232913
803.9992496
469.0601872
277.6608578
166.2506918
101.3634224
63.44860127
41.36722966
27.50922463
18.83800949
13.32548843
9.726976758
7.312426764
5.653871634
4.488526861
3.652142743
3.039794366
2.583082381
2.236566066
1.969506003
1.760733503
1.595393591
1.462820553
1.355179754
1.267077967
1.195857346
1.139961592
1.096696858
1.063149768
1.037534661
1.018886091
1.006193904
0.9981105779
0.9932298463
0.9903996799
0.9888299476
0.9880695878
0.9875200895
0.9868411711
0.9862421384
0.9859929713
0.9859290895
0.9859703073
0.9860811576
0.9862494124
0.9864758967
0.9867702957
0.9871504519
0.9876443143
0.9882949975
0.9891713473
0.9903900188
0.9921656508
0.9949612435
833494.6172
273644.8577
43007.20386
9712.265051
4485.0458
2405.739601
1324.254935
758.5149546
439.8181962
258.2485348
153.4609743
93.10069572
58.20128765
37.87143149
25.25205008
17.40172423
12.39703531
9.114181017
6.902431088
5.375344374
4.296482731
3.517778874
2.944415945
2.514406022
2.186427862
1.932419428
1.73297156
1.574400496
1.446835586
1.342993889
1.257849846
1.18895177
1.134844293
1.092934695
1.060437868
1.035659353
1.017664925
1.005450472
0.9976869612
0.9930041924
0.9902888555
0.9887805783
0.9880536739
0.9874945418
0.9867964147
0.9862372312
0.9860101032
0.9859585897
0.9860082
0.9861262618
0.9863019251
0.9865367129
0.9868406801
0.9872318597
0.9877382403
0.9884027573
0.9892936217
0.9905256291
0.9923082556
0.9950870641
806106.5195
242024.7502
32142.26346
9047.671762
4286.075193
2283.776987
1253.873942
713.897711
410.9789075
239.1424561
141.0362901
85.24833003
53.31537268
34.68983727
23.24709518
16.13230797
11.57734072
8.574694572
6.541331131
5.129619553
4.126567033
3.398424557
2.859277517
2.452759648
2.141148393
1.898714454
1.707579501
1.555078456
1.432032672
1.331641292
1.249204256
1.182451887
1.13000941
1.089368651
1.057860957
1.03387469
1.016501784
1.004741709
0.9972824372
0.9927881281
0.9901823365
0.9887325633
0.9880353691
0.9874675619
0.9867533459
0.9862344661
0.9860281286
0.9859885141
0.9860464084
0.9861717393
0.9863549484
0.9865982212
0.9869119691
0.9873144087
0.9878335574
0.9885121449
0.9894176764
0.9906629123
0.9924518645
0.9952120797
775246.2111
205309.6796
24876.64701
8595.154993
4091.051728
2165.865279
1185.510124
670.3936989
382.7221738
220.5419389
129.1842087
77.94193944
48.85652642
31.85359247
21.48339723
15.01783739
10.85793355
8.101078761
6.223739397
4.912861793
3.976080512
3.292197688
2.783075355
2.397243633
2.100107765
1.867963752
1.684262323
1.537223672
1.41827163
1.321027016
1.241078248
1.176316265
1.125429589
1.085980939
1.0554079
1.032174049
1.015392952
1.004065689
0.9968961193
0.9925813284
0.9900800812
0.9886860278
0.9880148749
0.9874392726
0.9867149779
0.9862337453
0.9860470519
0.9860189085
0.9860849938
0.9862176561
0.9864085477
0.9866604829
0.9869842154
0.9873981369
0.9879302793
0.9886231375
0.9895434332
0.9908017198
0.9925962673
0.9953361312
740536.6038
167656.7566
20601.05009
8186.107546
3895.353821
2053.172322
1119.750604
628.3330921
355.2995803
202.7178229
118.1241652
71.28588388
44.85751914
29.36130973
19.94252332
14.04420086
10.22879745
7.68605829
5.944575254
4.721549722
3.842597614
3.197434925
2.714671506
2.347079745
2.062773065
1.839801505
1.662768193
1.520662476
1.405433079
1.311070172
1.233418169
1.170509597
1.121081559
1.082756463
1.053069256
1.030551789
1.014335234
1.003420732
0.9965272218
0.9923834969
0.9899820476
0.9886410961
0.9879923825
0.9874096655
0.9866810063
0.9862349781
0.9860668747
0.9860498122
0.9861240092
0.9862640682
0.9864627774
0.9867235467
0.9870574577
0.9874830659
0.9880284021
0.9887356922
0.9896707931
0.9909418844
0.9927412406
0.9954590527
701623.1275
134049.9814
17895.6841
7788.974024
3710.070748
1945.921825
1056.739898
587.8376979
328.9003049
185.9211647
108.0085767
65.32380147
41.30041112
27.1884931
18.60121299
13.19557792
9.679222793
7.322363178
5.698921955
4.552360757
3.723874168
3.112619838
2.653039615
2.301571406
2.028669808
1.813903181
1.642874268
1.505241462
1.393411666
1.301699348
1.22617662
1.165000716
1.116944829
1.079681972
1.050836742
1.029002942
1.01332579
1.002805324
0.9961750239
0.9921943513
0.9898881893
0.9885978996
0.9879680795
0.987378712
0.9866511533
0.9862380796
0.9860875957
0.9860812578
0.9861634989
0.9863110222
0.9865176805
0.9867874485
0.9871317199
0.987569201
0.9881279029
0.9888497457
0.989799635
0.9910832198
0.9928865467
0.9955806727
658940.4519
105008.8952
16242.48927
7429.274751
3535.882294
1844.730309
996.7843699
549.1223078
303.8036205
170.4098736
98.9309076
60.06168483
38.18399515
25.30335933
17.43639147
12.4568007
9.199184344
7.0033427
5.482356353
4.402346491
3.617939837
3.036431529
2.59729071
2.260117616
1.997389688
1.789990027
1.624389418
1.490829237
1.382117266
1.292853518
1.219313136
1.159763049
1.113001983
1.076746255
1.048703365
1.027523296
1.012362188
1.002218152
0.9958388891
0.9920136343
0.9897984608
0.9885565895
0.9879421554
0.9873463483
0.986625166
0.9862429698
0.9861092103
0.9861132707
0.9862034984
0.9863585536
0.9865732882
0.9868522104
0.9872070096
0.9876565289
0.9882287382
0.988965212
0.9899298145
0.9912255187
0.9930319331
0.9957008164
612552.2563
80864.68017
15162.76096
7107.77024
3373.329082
1750.154461
940.1727448
512.4035641
280.3094798
156.3657947
90.90966988
55.4676306
35.47839145
23.67181554
16.4257759
11.81359355
8.779447979
6.722981016
5.290936144
4.268909788
3.5230747
2.967724814
2.546657946
2.222201888
1.968582844
1.767823792
1.607150679
1.477314061
1.371473447
1.284481072
1.212793601
1.154774267
1.109238466
1.073940003
1.046663341
1.026109355
1.011442386
1.001658098
0.9955182674
0.9918411167
0.9897128187
0.98851735
0.9879148099
0.9873124591
0.9866028135
0.986249572
0.9861317087
0.9861458675
0.9862440317
0.9864066852
0.9866296162
0.9869178368
0.9872833148
0.9877450137
0.9883308395
0.9890819772
0.9900611581
0.9913685479
0.993177129
0.9958192978
562099.2168
62024.65639
14478.64281
6825.956185
3222.919774
1662.624127
887.1612928
477.8996681
258.6900827
143.8644445
83.90365306
51.48566811
33.14018047
22.26081291
15.54867318
11.25292559
8.411709324
6.475934638
5.121194309
4.149784019
3.437786131
2.905509783
2.50048026
2.187379814
1.941948655
1.747200004
1.59101838
1.464600321
1.36141493
1.27653802
1.206588986
1.150015415
1.105641967
1.071255381
1.044711803
1.024758153
1.010564625
1.00112418
0.9952126652
0.9916765828
0.9896312118
0.9884804084
0.9878862619
0.9872768546
0.9865838825
0.9862578122
0.9861550773
0.9861790578
0.9862851141
0.9864554292
0.9866866683
0.9869843184
0.9873606074
0.9878346013
0.9884341178
0.9891999053
0.990193471
0.9915120574
0.9933218538
0.9959359273
506100.7956
49161.24261
14158.00427
6553.343239
3084.961215
1582.098049
837.7706641
445.7324032
239.089744
132.8624593
77.82216543
48.04301068
31.11972306
21.03820938
14.78542288
10.76259235
8.088284716
6.257308264
4.969979165
4.042920668
3.360730794
2.848898172
2.45816571
2.155254085
1.917218746
1.727936412
1.575868278
1.452603193
1.351884003
1.268985614
1.200673816
1.145469915
1.102201791
1.068685634
1.042844566
1.023467122
1.009727359
1.000615522
0.994921633
0.9915198252
0.9895535736
0.9884460511
0.9878567664
0.9872392453
0.986568175
0.9862676184
0.9861792983
0.9862128436
0.986326751
0.986504786
0.9867444347
0.98705163
0.987438841
0.9879252174
0.9885384617
0.9893188359
0.9903265345
0.9916557776
0.9934658126
0.9960505135
443663.9945
40817.43924
14007.64812
6283.66316
2959.079096
1508.390775
791.9547464
416.00561
221.5488496
123.2565696
72.5604956
45.06796112
29.37129168
19.97609255
14.1191294
10.33218707
7.802665915
6.062978085
4.834647259
3.946607392
3.290788829
2.797151166
2.41922298
2.125495655
1.894171408
1.709882911
1.561598424
1.441253387
1.342833774
1.261792571
1.19502766
1.141124557
1.098909481
1.066225467
1.041058354
1.022234223
1.00892933
1.000131393
0.9946447859
0.991370655
0.989479815
0.9884146431
0.9878266402
0.9871992083
0.9865555062
0.9862789186
0.9862043479
0.986247218
0.986368937
0.9865547433
0.9868028906
0.9871197294
0.9875179499
0.9880167654
0.9886437353
0.9894385825
0.9904601061
0.9917994185
0.9936086934
0.9961628765
373294.0534
35566.3074
13927.42956
6043.606107
2846.06781
1441.727275
749.8234284
388.8529418
206.0265424
114.9142135
68.01307593
42.4939633
27.85413962
19.05015383
13.53513515
9.952711003
7.549240937
5.889395909
4.712927608
3.859374599
3.226999754
2.74963541
2.383231127
2.09782286
1.87261714
1.692911502
1.548122187
1.430492326
1.334224875
1.254932855
1.189633664
1.136968533
1.095758204
1.06387066
1.039350566
1.021057812
1.008169496
0.9996711714
0.9943817897
0.9912288969
0.9894098038
0.9883866499
0.9877963023
0.9871561431
0.9865457028
0.9862916411
0.9862301966
0.9862821649
0.9864116548
0.9866052748
0.986861995
0.9871885552
0.9875978465
0.9881091247
0.9887497761
0.9895589307
0.9905939167
0.9919426665
0.9937501708
0.9962728413
292255.1465
32327.60528
13859.64821
5829.777726
2744.746238
1381.453207
711.0493654
364.1543727
192.3241637
107.6380176
64.06067666
40.25303078
26.52913656
18.23758223
13.0198691
9.615922857
7.322915741
5.733364415
4.602786276
3.779913094
3.168512135
2.705792205
2.349820767
2.071989993
1.852391765
1.676912191
1.535365851
1.420270744
1.326024658
1.24838523
1.184478338
1.132993367
1.092742736
1.06161808
1.0377193
1.019936667
1.007447058
0.9992343676
0.9941323774
0.9910944016
0.9893433386
0.9883626627
0.9877663378
0.9871094046
0.9865386005
0.9863057103
0.9862568047
0.9863176536
0.9864548694
0.9866563331
0.9869216824
0.9872580184
0.9876784117
0.9882021391
0.9888563821
0.9896796245
0.9907276573
0.9920851704
0.9938898943
0.9963802172
193821.6122
30564.8778
13771.73808
5643.870219
2655.926628
1327.765457
675.6539806
341.8806337
180.1781371
101.2945058
60.61612505
38.29380367
25.36585225
17.52055936
12.56267262
9.315322422
7.119659087
5.592346815
4.502606404
3.707180839
3.114647934
2.665176792
2.318698254
2.047802234
1.833365638
1.661798637
1.523272024
1.410550712
1.318208363
1.242133897
1.179551848
1.129192994
1.089859436
1.059465606
1.036163262
1.018869913
1.006761399
0.9988205831
0.9938963241
0.99096704
0.9892800915
0.9883391093
0.9877375753
0.9870679342
0.9865340418
0.9863210492
0.9862841261
0.9863536446
0.9864985345
0.9867078577
0.9869818718
0.9873280118
0.9877595062
0.9882956299
0.9889633277
0.9898003847
0.9908609983
0.9922265631
0.9940275118
0.9964848169
62068.65175
29967.87343
13555.85299
5483.791939
2578.734457
1280.058619
641.9125561
321.1669498
169.4243791
95.7227995
57.58733421
36.56540646
24.33549412
16.88247417
12.1537208
9.044973119
6.935817546
5.464059175
4.410940834
3.640250314
3.064806958
2.627397779
2.28960686
2.025090539
1.815427266
1.647497374
1.511792499
1.401300868
1.310755902
1.236166337
1.174846605
1.125562861
1.087105675
1.057411767
1.034681554
1.017856895
1.006112023
0.998429484
0.993673439
0.9908467193
0.9892200063
0.9883155832
0.9877101466
0.9870314197
0.9865318749
0.9863375776
0.9863121071
0.9863900872
0.9865425904
0.9867597718
0.9870424639
0.9873984073
0.9878409668