/*--------------------------------*- C++ -*----------------------------------*\
  =========                 |
  \\      /  F ield         | OpenFOAM: The Open Source CFD Toolbox
   \\    /   O peration     | Website:  https://openfoam.org
    \\  /    A nd           | Version:  12
     \\/     M anipulation  |
\*---------------------------------------------------------------------------*/
FoamFile
{
    format      ascii;
    class       volScalarField;
    location    "1250";
    object      p;
}
// * * * * * * * * * * * * * * * * * * * * * * * * * * * * * * * * * * * * * //

dimensions      [1 -1 -2 0 0 0 0];

internalField   nonuniform List<scalar> 
16200
(
79496.63014
79503.47476
79512.49524
79524.2058
79539.55774
79559.84417
79587.04001
79623.11595
79668.34835
79722.61517
79787.24368
79864.16102
79955.24234
80063.61731
80191.8129
80343.99208
80523.87701
80736.736
80987.88051
81283.94212
81632.03585
82040.37155
82517.79639
83073.85614
83718.28025
84460.37465
85307.83502
86265.02153
87330.54649
88494.3398
89734.88386
91018.2847
92301.03492
93536.61666
94683.53706
95711.46523
96603.6192
97355.78079
97973.49891
98468.88166
98857.70976
99157.10451
99383.79888
99553.00296
99677.80335
99768.96802
99835.06104
99882.70095
99916.89259
99941.35595
99958.81979
99971.2676
99980.12729
99986.42892
99990.89646
99994.08382
99996.29765
99998.00466
99998.73966
100000.0196
78387.59191
78395.83044
78405.43886
78418.39199
78435.58964
78458.5117
78489.6317
78530.30685
78580.92299
78641.29089
78713.01986
78798.40511
78899.42
79019.64818
79161.79186
79330.52863
79529.96077
79765.97464
80044.51837
80373.03872
80759.57574
81213.39983
81744.51518
82363.6434
83081.56258
83908.21346
84851.08621
85912.89628
87088.43359
88361.01826
89700.068
91062.2231
92397.35502
93657.65067
94805.74874
95818.80147
96688.10651
97416.05289
98012.4208
98491.24966
98868.55322
99160.72209
99383.3994
99550.73402
99674.95769
99766.23555
99832.74616
99880.88717
99915.55087
99940.41058
99958.18468
99970.86303
99979.8881
99986.30187
99990.84785
99994.07551
99996.32009
99998.03153
99998.74361
100000.0231
77460.6677
77469.85421
77480.63648
77495.219
77514.6687
77540.74738
77576.25765
77621.8204
77677.83661
77744.4232
77823.47404
77917.70287
78029.1584
78161.97319
78319.10299
78505.84705
78726.82806
78988.68548
79298.16092
79663.64
80094.20087
80600.24107
81192.94123
81884.11236
82685.30249
83606.48877
84653.88991
85826.86498
87113.95181
88489.17069
89911.14915
91327.58635
92684.64315
93937.24783
95055.70987
96026.7921
96850.59797
97535.94608
98096.29424
98547.00654
98903.79684
99181.87162
99395.38962
99557.08599
99678.02755
99767.51267
99833.12021
99880.85962
99915.38534
99940.23302
99958.046
99970.77598
99979.84872
99986.29902
99990.8726
99994.11255
99996.36679
99998.07541
99998.7656
100000.0669
76731.70482
76741.70315
76754.1954
76770.82254
76793.05631
76823.06863
76863.56474
76914.7336
76976.96943
77050.99386
77138.82426
77243.7011
77367.76518
77515.77089
77690.97511
77899.33723
78146.03811
78438.49147
78784.27798
79192.77772
79674.1986
80240.15007
80903.00669
81675.5034
82569.47906
83594.00555
84752.44102
86038.40556
87431.27617
88893.44258
90372.5445
91809.97345
93152.66746
94362.71792
95421.00493
96324.9615
97083.23096
97710.19576
98222.05985
98634.76218
98963.18533
99220.97961
99420.53575
99572.93324
99687.85622
99773.54053
99836.79593
99883.10293
99916.76627
99941.09798
99958.60238
99971.14644
99980.10563
99986.48461
99991.01294
99994.21974
99996.45082
99998.13909
99998.79362
100000.0935
76226.76281
76237.95414
76252.5555
76271.65449
76297.26587
76332.12011
76378.48935
76436.32538
76505.97386
76588.88391
76687.13074
76804.51338
76943.22303
77108.65536
77304.40705
77537.15543
77812.75346
78139.52092
78526.06091
78982.90955
79521.51519
80154.67086
80895.71504
81757.78854
82752.10118
83885.32271
85155.6947
86548.19395
88030.3695
89552.16094
91052.42974
92470.99313
93760.84144
94895.07418
95866.7538
96683.73114
97361.94537
97919.88494
98375.27386
98743.77274
99038.91162
99272.4877
99454.94733
99595.58909
99702.60672
99783.07165
99842.9298
99887.04825
99919.31084
99942.74858
99959.68221
99971.86058
99980.58428
99986.81034
99991.23907
99994.3786
99996.56366
99998.21945
99998.833
100000.1325
75952.53067
75965.23136
75982.34712
76004.40148
76034.10105
76074.73916
76127.98328
76193.25338
76270.89019
76363.1272
76472.22161
76602.79532
76757.20327
76941.59565
77160.04455
77420.06993
77728.33943
78094.15581
78527.18168
79039.04522
79642.28325
80350.59707
81177.8324
82136.75215
83236.61927
84479.64995
85856.19609
87339.73605
88884.52973
90429.52451
91909.29197
93267.85885
94469.03096
95499.31334
96364.04103
97080.14556
97669.05234
98151.70965
98546.14951
98866.99637
99126.02325
99332.99297
99496.33951
99623.55337
99721.31469
99795.49837
99851.14605
99892.46749
99922.88318
99945.1055
99961.2403
99972.89344
99981.27151
99987.26968
99991.54833
99994.5879
99996.70516
99998.316
99998.8815
100000.1757
75883.63775
75898.17601
75918.22213
75943.83484
75978.54003
76025.76437
76086.3894
76159.05432
76245.71365
76349.48199
76472.16785
76619.09333
76792.81917
77000.29328
77246.09568
77538.57303
77885.21596
78296.27482
78782.45238
79356.41915
80031.69999
80822.62887
81742.931
82803.81008
84010.69628
85358.75602
86827.55885
88377.09784
89948.92265
91474.87634
92891.21367
94151.77591
95234.50833
96139.96774
96884.50787
97492.08385
97987.57674
98392.80428
98725.05151
98997.31295
99219.33851
99398.78673
99542.10284
99655.02021
99742.74959
99809.99385
99860.89612
99899.00091
99927.24999
99948.01921
99963.18203
99974.18606
99982.1313
99987.8412
99991.92855
99994.84092
99996.8724
99998.42762
99998.93948
100000.2266
76014.63699
76031.62604
76054.89525
76084.66648
76125.45095
76180.18819
76249.23942
76331.33301
76429.33632
76546.38477
76684.62814
76850.18805
77045.81871
77279.30304
77555.81791
77884.58806
78274.03116
78735.41322
79280.53262
79923.03867
80677.16506
81557.2266
82575.6731
83740.40828
85050.6763
86491.82406
88030.29805
89612.28673
91169.60569
92632.75116
93945.90159
95077.03189
96019.63524
96787.34222
97405.342
97902.26102
98304.49437
98633.37857
98904.64531
99129.26472
99314.83953
99466.95214
99590.15332
99688.52545
99765.89966
99825.87005
99871.71917
99906.34434
99932.21347
99951.36301
99965.42766
99975.68931
99983.13417
99988.50778
99992.37033
99995.1327
99997.06322
99998.5534
99999.00627
100000.2845
76330.86617
76350.8372
76377.80361
76412.53711
76460.65651
76523.61547
76601.67429
76694.32806
76804.16068
76935.65678
77090.85829
77276.85958
77496.70462
77759.05885
78069.80701
78439.10249
78876.36259
79393.84887
80004.33557
80722.11451
81561.49345
82535.74651
83654.57125
84920.56657
86324.27037
87838.69222
89416.0282
90990.5508
92489.50578
93848.63073
95025.33438
96004.09533
96793.47345
97417.99627
97909.05759
98297.66157
98610.06047
98866.07916
99079.355
99258.6269
99409.34711
99535.12475
99638.75853
99722.82054
99789.88019
99842.51041
99883.19237
99914.21235
99937.58392
99955.01292
99967.89764
99977.35322
99984.24955
99989.25139
99992.86354
99995.45786
99997.27522
99998.69239
99999.08159
100000.35
76803.248
76826.68845
76857.89588
76898.50298
76954.82405
77026.44833
77113.96212
77218.54271
77342.60973
77491.19088
77666.30958
77876.05147
78123.83704
78419.24378
78768.9562
79184.0696
79675.00078
80254.86372
80937.11532
81736.16703
82665.59364
83736.44987
84954.0015
86313.26799
87793.48446
89353.53534
90932.13878
92455.92419
93854.15445
95073.97909
96089.51092
96901.99213
97533.06171
98015.30591
98383.67303
98669.55462
98897.78536
99085.98131
99245.38736
99382.46112
99500.59291
99601.57202
99686.61519
99756.94225
99813.99225
99859.41698
99894.96724
99922.36525
99943.19937
99958.86147
99970.52206
99979.13335
99985.44998
99990.05568
99993.39892
99995.81148
99997.50615
99998.84366
99999.1651
100000.4232
77417.84577
77445.32517
77481.45664
77529.23883
77594.91736
77677.24802
77776.75186
77894.45361
78033.76462
78200.9915
78398.05434
78634.08581
78912.996
79245.29403
79638.49657
80104.52913
80654.64987
81302.53847
82061.92917
82946.73785
83968.85521
85135.66599
86445.90786
87884.40892
89416.83378
90987.70464
92525.47651
93955.36746
95215.45294
96268.91581
97107.80495
97748.55846
98222.97149
98568.69868
98821.88248
99012.74144
99163.81452
99290.11055
99400.3813
99498.86986
99587.0549
99665.08758
99732.78403
99790.17416
99837.70087
99876.19854
99906.76338
99930.60595
99948.92388
99962.81673
99973.24005
99980.99037
99986.71078
99990.90571
99993.96788
99996.18894
99997.75386
99999.00631
99999.25654
100000.5044
78154.28587
78186.48066
78228.36517
78284.40007
78359.30232
78451.75482
78563.94041
78697.55256
78855.04063
79044.16354
79266.86232
79533.26981
79847.76778
80221.688
80663.34568
81185.39667
81799.86198
82520.79858
83361.81557
84335.54637
85450.87238
86709.53559
88101.17696
89597.89128
91150.72894
92691.97379
94145.38864
95441.87198
96533.99056
97403.33057
98058.97884
98529.73941
98854.29376
99072.61313
99220.13807
99324.81299
99406.3607
99477.02604
99543.11304
99606.79528
99667.82521
99724.90835
99776.64053
99822.01932
99860.62127
99892.56471
99918.3668
99938.78023
99954.64869
99966.80359
99976.00092
99982.89091
99988.01063
99991.78836
99994.56275
99996.58605
99998.01636
99999.1795
99999.35572
100000.5939
79000.46487
79038.1483
79086.71819
79152.24129
79239.59931
79345.72146
79472.04618
79623.19926
79800.86834
80014.10605
80264.83705
80564.2597
80917.35122
81336.3123
81830.3916
82412.97938
83096.7165
83895.58032
84822.20322
85886.61578
87092.81487
88434.45772
89889.4607
91415.57701
92950.36127
94418.55179
95746.23758
96876.51326
97780.00267
98456.69553
98930.19879
99238.24591
99423.27226
99525.2911
99577.6652
99605.38542
99625.12873
99646.39756
99673.19108
99705.80369
99742.46142
99780.61439
99817.80934
99852.15853
99882.49311
99908.31053
99929.62104
99946.77186
99960.28957
99970.76246
99978.76351
99984.80727
99989.33144
99992.69227
99995.17674
99996.99904
99998.29183
99999.36236
99999.46233
100000.692
79945.63315
79989.74232
80046.45818
80123.25606
80223.58349
80343.35946
80484.78558
80654.54579
80853.78367
81093.12663
81374.46261
81710.19864
82106.06093
82575.08223
83127.34553
83776.62433
84535.61095
85417.36226
86432.37291
87586.4601
88876.53755
90285.61217
91777.906
93297.09096
94770.93873
96123.2438
97289.45082
98229.54343
98933.26821
99417.0467
99715.56463
99872.02462
99929.94048
99927.66625
99895.60203
99855.45338
99820.83787
99798.65671
99790.80422
99795.90592
99810.86044
99832.04223
99856.10602
99880.4122
99903.15614
99923.30146
99940.41814
99954.49734
99965.7839
99974.64769
99981.49542
99986.71709
99990.65827
99993.60783
99995.80396
99997.42455
99998.57857
99999.55405
99999.57585
100000.7989
80967.15331
81019.06172
81085.32154
81173.38122
81286.40921
81422.44315
81582.1071
81774.09007
81998.9298
82269.10509
82586.41706
82964.39795
83409.42828
83935.10742
84552.05734
85273.99554
86113.09807
87080.64891
88183.64445
89421.66135
90781.99701
92234.80427
93730.19545
95200.50382
96569.63738
97767.62741
98744.90115
99480.53599
99982.19446
100279.4817
100414.473
100432.7712
100376.902
100282.4208
100176.2931
100076.8691
99994.83973
99934.7173
99896.51766
99877.40948
99873.15269
99879.21016
99891.48535
99906.70527
99922.52702
99937.45827
99950.68912
99961.90002
99971.08718
99978.42555
99984.17188
99988.60274
99991.97897
99994.52698
99996.43932
99997.8596
99998.87509
99999.75368
99999.69571
100000.9148
82070.83411
82132.12865
82208.85364
82310.21245
82438.04105
82592.2917
82773.19626
82991.09046
83245.40556
83550.63477
83908.48964
84333.47694
84832.56661
85419.77161
86106.06328
86904.70986
87826.61139
88879.92055
90066.07516
91375.89168
92784.76295
94249.14342
95706.93587
97084.21519
98307.99917
99320.83424
100091.4391
100617.7122
100922.3926
101044.4925
101030.0587
100924.6411
100768.3376
100593.25
100422.7535
100271.9529
100148.8343
100055.7669
99991.1194
99950.80572
99929.61969
99922.2589
99923.99922
99931.03796
99940.57935
99950.74382
99960.39537
99968.94469
99976.16965
99982.07218
99986.77456
99990.45064
99993.28384
99995.44308
99997.07851
99998.30158
99999.17998
99999.96037
99999.8221
100001.0399
83259.40545
83332.19163
83421.24908
83540.40208
83686.41703
83861.01362
84064.93691
84311.22911
84597.75551
84941.06452
85342.91618
85818.75524
86376.15562
87029.35677
87789.25166
88667.74702
89672.97582
90807.93053
92066.14319
93427.55308
94854.6341
96291.3642
97667.60447
98909.63553
99954.1779
100760.5669
101316.5719
101636.6873
101755.0416
101716.3705
101567.8564
101353.2209
101109.2527
100864.3239
100638.2855
100443.2184
100284.669
100163.1185
100075.5094
100016.6869
99980.63225
99961.40602
99953.76364
99953.4623
99957.32731
99963.15184
99969.52115
99975.61262
99981.01316
99985.57171
99989.29045
99992.25064
99994.56532
99996.35073
99997.71785
99998.74818
99999.49195
100000.1734
99999.95681
100001.1746
84534.03897
84621.07362
84724.21509
84862.33818
85027.07235
85224.53675
85453.64597
85731.20315
86053.43879
86438.9032
86889.4958
87421.41232
88042.56076
88766.73445
89603.74058
90562.67681
91647.10967
92852.93063
94163.97318
95548.25556
96955.97382
98321.85951
99573.45357
100643.8243
101484.4166
102073.1528
102415.4147
102538.8873
102485.2608
102301.8124
102034.7291
101724.756
101404.9388
101099.9154
100826.219
100593.1865
100404.2037
100258.1089
100150.6229
100075.6873
100026.6059
99996.91238
99980.93375
99974.06386
99972.81264
99974.69785
99978.06739
99981.89749
99985.60851
99988.91452
99991.71079
99993.99538
99995.81756
99997.24554
99998.35424
99999.19737
99999.8098
100000.3922
100000.1036
100001.3191
85894.46869
85998.87577
86115.52371
86272.67991
86458.83829
86683.37843
86941.81145
87255.32328
87618.55146
88051.77532
88556.86487
89150.22728
89839.513
90637.09999
91550.55197
92584.78883
93737.31039
94995.40913
96332.09233
97703.54942
99050.00893
100301.8186
101390.4998
102261.4242
102883.524
103252.7674
103389.213
103329.9159
103120.6693
102808.8071
102438.075
102045.6119
101660.6149
101304.1603
100989.7477
100724.2705
100509.2254
100342.0347
100217.38
100128.4445
100067.97
100029.0582
100005.6856
99992.94817
99987.09466
99985.41205
99986.04672
99987.80194
99989.95315
99992.0958
99994.03016
99995.67974
99997.03619
99998.12402
99998.98505
99999.64735
100000.1324
100000.6169
100000.2647
100001.4737
87355.44577
87479.97589
87611.80357
87791.23202
88000.45042
88255.81891
88547.47764
88900.86553
89309.05724
89793.67758
90356.30648
91012.91031
91770.31946
92638.61519
93622.09678
94720.28219
95923.17135
97208.14857
98536.96519
99855.49433
101098.0176
102196.3515
103091.7579
103745.4879
104144.3539
104300.0608
104243.6955
104018.0489
103670.2076
103245.8012
102785.2745
102321.9214
101881.2053
101480.9156
101131.8346
100838.709
100601.3985
100416.113
100276.6546
100175.5729
100105.147
100058.1263
100028.2033
100010.2308
100000.2428
99995.33383
99993.47955
99993.33488
99994.04939
99995.11432
99996.24571
99997.30037
99998.21798
99998.98339
99999.60806
100000.0965
100000.4588
100000.8474
100000.4361
100001.6385
88925.87221
89074.39946
89225.85713
89432.53565
89666.04487
89953.72311
90280.29663
90675.05739
91129.47541
91666.11361
92286.11155
93004.3486
93826.31261
94758.87231
95801.87346
96947.93827
98178.02838
99458.84563
100741.8213
101965.8344
103064.5547
103977.0471
104658.5024
105087.3298
105266.6453
105220.5739
104987.5453
104613.0084
104143.2681
103621.1339
103083.3451
102559.3816
102071.2211
101633.6886
101255.1675
100938.5352
100682.2413
100481.4619
100329.2571
100217.6498
100138.5399
100084.3919
100048.6699
100026.0302
100012.3314
100004.5078
100000.3912
99998.5094
99997.90289
99997.97146
99998.35654
99998.8553
99999.36063
99999.82144
100000.2214
100000.5434
100000.7879
100001.0836
100000.6154
100001.813
90605.38638
90781.64461
90952.96605
91187.20303
91446.26812
91767.57137
92130.39008
92567.51896
93068.83954
93657.38043
94333.82591
95111.18259
95992.79734
96981.02194
98069.62102
99242.73413
100471.3742
101712.205
102909.1303
103998.8341
104919.972
105623.4176
106080.3329
106285.4794
106255.4264
106023.1182
105631.0633
105125.0031
104549.0743
103942.6673
103338.7356
102763.1457
102234.7059
101765.61
101362.1436
101025.5663
100753.117
100539.0916
100375.9261
100255.2067
100168.5243
100108.1154
100067.262
100040.4634
100023.4357
100012.9807
100006.8095
100003.3412
100001.5216
100000.6704
100000.3631
100000.3436
100000.4626
100000.6364
100000.8234
100000.9868
100001.1188
100001.3251
100000.804
100001.9965
92380.4694
92586.13312
92777.1465
93042.07569
93328.29397
93684.26905
94084.68665
94565.54545
95115.25631
95756.31445
96488.63905
97322.08472
98256.49109
99288.0926
100403.0793
101576.3486
102769.4962
103931.5376
105003.0799
105923.8432
106642.1482
107123.3028
107354.3752
107344.1902
107119.3866
106718.3803
106185.1487
105564.0704
104896.2994
104217.5887
103557.2367
102937.7912
102375.2307
101879.4385
101454.8771
101101.4096
100815.2366
100589.9053
100417.3269
100288.7266
100195.4454
100129.5389
100084.1462
100053.6426
100033.6293
100020.7998
100012.7635
100007.8472
100004.9147
100003.2157
100002.267
100001.765
100001.5227
100001.427
100001.4127
100001.4253
100001.4508
100001.5717
100000.9988
100002.1889
94252.95437
94483.31165
94687.71619
94983.90388
95301.60167
95696.33829
96138.35639
96666.15322
97266.86244
97960.8484
98746.58081
99629.38837
100604.2802
101660.3302
102775.5898
103916.2222
105036.3816
106081.0522
106992.255
107717.3184
108217.2332
108472.3335
108483.912
108271.8078
107869.4094
107317.8179
106660.5753
105939.6574
105192.8558
104452.3243
103743.9615
103087.3311
102495.9156
101977.5835
101535.2172
101167.4754
100869.6678
100634.7038
100454.0534
100318.6442
100219.6166
100148.8846
100099.477
100065.6731
100042.9826
100028.0107
100018.2822
100012.045
100008.0923
100005.6123
100004.0703
100003.1201
100002.5406
100002.1921
100001.988
100001.858
100001.7832
100001.8226
100001.1925
100002.3911
96206.52046
96471.17271
96702.80262
97032.31165
97384.37824
97820.64173
98306.41295
98881.01251
99530.83194
100272.6045
101102.6269
102020.8024
103016.424
104070.998
105154.7265
106226.5775
107236.2347
108128.7769
108851.9447
109363.8738
109639.3581
109672.6856
109476.7489
109079.2217
108517.3635
107832.8463
107067.5134
106260.3801
105445.7998
104652.5239
103903.3669
103215.2475
102599.464
102062.1339
101604.7712
101224.9943
100917.3464
100674.1928
100486.6323
100345.3477
100241.32
100166.3543
100113.3964
100076.6531
100051.562
100034.6574
100023.3937
100015.9521
100011.0648
100007.8661
100005.7756
100004.4094
100003.5158
100002.9308
100002.5483
100002.2838
100002.1155
100002.0753
100001.378
100002.6049
98285.17601
98587.58756
98846.15852
99209.10058
99594.00461
100069.1215
100595.4534
101210.9952
101901.8807
102680.2266
103539.289
104472.8542
105463.9271
106486.5951
107504.3433
108471.4031
109336.5631
110048.9691
110565.3263
110856.1236
110909.4555
110731.4194
110343.5705
109778.5392
109075.1879
108274.2911
107415.2516
106533.9162
105661.3199
104823.0935
104039.3017
103324.5403
102688.2052
102134.8928
101664.9304
101275.0354
100959.0893
100708.9918
100515.5286
100369.1822
100260.8081
100182.1301
100126.0337
100086.6726
100059.4291
100040.781
100028.1249
100019.5855
100013.8423
100009.9828
100007.386
100005.6342
100004.4484
100003.6426
100003.0926
100002.7019
100002.4467
100002.326
100001.5627
100002.8299
100484.0527
100826.3151
101111.9813
101506.6556
101920.9338
102429.4511
102990.5777
103638.8497
104359.7929
105160.1393
106029.2871
106954.4827
107912.4532
108870.8579
109788.5262
110618.0803
111311.0203
111823.7386
112123.7288
112193.83
112033.7917
111658.9077
111096.612
110382.1399
109554.3166
108652.0977
107712.093
106767.0066
105844.7873
104968.2627
104155.0729
103417.7855
102764.1411
102197.4135
101716.8977
101318.5268
100995.6092
100739.6436
100541.1523
100390.4536
100278.3062
100196.3756
100137.5059
100095.8137
100066.6406
100046.4201
100032.5013
100022.9616
100016.435
100011.9682
100008.9043
100006.7957
100005.3384
100004.3268
100003.6201
100003.1116
100002.7758
100002.5723
100001.7576
100003.062
102790.7996
103170.0565
103477.7643
103902.94
104344.9385
104881.7149
105470.7739
106141.8452
106879.3526
107684.0635
108541.1109
109431.3834
110326.1058
111188.3133
111974.8654
112640.0071
113140.9573
113443.3269
113525.7973
113382.3932
113022.2832
112467.3533
111748.5573
110901.97
109965.2947
108975.167
107965.322
106965.4884
106000.8164
105091.6497
104253.5054
103497.1845
102828.986
102251.0305
101761.7101
101356.2725
101027.5257
100766.6231
100563.8634
100409.4322
100294.0147
100209.2372
100147.9184
100104.1512
100073.2485
100051.61
100036.5466
100026.0957
100018.8526
100013.8281
100010.3337
100007.8951
100006.1862
100004.9831
100004.13
100003.5122
100003.1017
100002.813
100001.9655
100003.2975
105198.5001
105610.6018
105937.1861
106386.7858
106851.2752
107408.1554
108014.7689
108695.0947
109432.1354
110220.3436
111040.5103
111867.9202
112669.7372
113406.7021
114036.52
114517.825
114815.5434
114905.1933
114775.9079
114431.059
113886.8782
113169.552
112311.7212
111349.0803
110317.568
109251.3026
108181.2346
107134.3625
106133.341
105196.3325
104337.003
103564.6139
102884.2059
102296.8888
101800.2613
101388.9679
101055.378
100790.345
100583.9784
100426.3566
100308.1115
100220.8457
100157.3659
100111.7528
100079.3004
100056.3837
100040.2829
100029.0024
100021.1043
100015.568
100011.6774
100008.9341
100006.9921
100005.6111
100004.6216
100003.903
100003.423
100003.0475
100002.1877
100003.5344
107689.0788
108129.3698
108471.3706
108938.0012
109417.4982
109984.3899
110596.0798
111269.6526
111986.6194
112735.3298
113492.745
114229.9341
114911.9436
115499.6765
115954.1304
116240.2386
116331.4985
116212.9572
115882.7525
115351.54
114640.4585
113778.1553
112797.641
111733.4603
110619.4722
109487.2806
108365.2417
107277.9004
106245.7115
105284.9322
104407.6149
103621.6778
102931.0578
102335.9744
101833.3243
101417.2175
101079.6363
100811.1727
100601.7758
100441.4381
100320.7548
100231.3182
100165.9339
100118.6797
100084.8396
100060.7711
100043.7307
100031.6954
100023.1988
100017.1934
100012.9383
100009.9141
100007.7566
100006.2107
100005.0945
100004.2836
100003.7384
100003.2757
100002.4243
100003.7701
110247.6928
110708.7045
111061.346
111537.1658
112021.7512
112585.2337
113186.3644
113834.4577
114509.6409
115194.9611
115864.5517
116486.9634
117027.1203
117448.2171
117716.2842
117803.5057
117691.8508
117374.8117
116857.7842
116156.7439
115295.9499
114305.1419
113216.8276
112063.9753
110878.2742
109688.9391
108521.9715
107399.7419
106340.7796
105359.6807
104467.0906
103669.7497
102970.6226
102369.1386
101861.569
101441.5471
101100.7117
100829.4254
100617.5012
100454.8638
100332.0854
100240.7593
100173.699
100124.9874
100089.9055
100064.7999
100046.909
100034.1873
100025.1445
100018.7094
100014.1196
100010.8366
100008.4802
100006.7817
100005.5483
100004.6534
100004.0462
100003.498
100002.6751
100004.0028
112853.8518
113325.0541
113681.9173
114157.2637
114635.5229
115179.7949
115752.4325
116355.1405
116966.874
117566.4097
118126.2608
118614.1731
118996.7063
119240.9301
119318.8674
119210.0677
118904.2062
118401.7932
117713.7489
116859.6884
115865.6195
114761.4293
113578.5979
112348.3345
111100.2121
109861.2495
108655.3474
107502.9677
106420.9598
105422.4723
104516.9192
103710.0038
103003.828
102397.1153
101885.5758
101462.4147
101118.9637
100845.3835
100631.3712
100466.7993
100342.2288
100249.2626
100180.7302
100130.726
100094.5341
100068.4955
100049.8354
100036.4901
100026.9492
100020.121
100015.2241
100011.7032
100009.1636
100007.324
100005.9826
100005.0119
100004.345
100003.7146
100002.9398
100004.2295
115489.8353
115957.1279
116305.2898
116762.7009
117221.4383
117731.1014
118257.8875
118796.6232
119325.5944
119820.5092
120253.5512
120593.2456
120809.1481
120873.1563
120763.5343
120466.6987
119978.904
119306.1953
118463.4853
117472.6994
116360.613
115156.6582
113891.0186
112593.1242
111290.5713
110008.404
108768.6726
107590.1726
106488.291
105474.9125
104558.3687
103743.4451
103031.4723
102420.5395
101905.8494
101480.2203
101134.7076
100859.2939
100643.5777
100477.3921
100351.2968
100256.9123
100187.0899
100135.9412
100098.7583
100071.8812
100052.5261
100038.615
100028.6204
100021.4329
100016.2548
100012.5155
100009.8075
100007.8377
100006.3973
100005.3583
100004.6331
100003.9265
100003.2177
100004.4461
118109.6189
118557.19
118889.1926
119318.0366
119744.1306
120204.8374
120670.1985
121128.8799
121559.2383
121935.2417
122229.9387
122413.8914
122460.4923
122346.8116
122057.0582
121583.663
120928.2312
120100.9905
119119.6011
118007.3175
116791.0271
115499.3627
114161.1181
112804.0235
111453.8801
110133.984
108864.7676
107663.5765
106544.5231
105518.3846
104592.5374
103770.948
103054.254
102439.9694
101922.8354
101495.3183
101148.2242
100871.3773
100654.2926
100486.775
100359.3908
100263.7848
100192.8351
100140.6747
100102.6084
100074.9788
100054.9965
100040.5726
100030.1652
100022.65
100017.2145
100013.2752
100010.4124
100008.3229
100006.7925
100005.6921
100004.9091
100004.1353
100003.5075
100004.647
120670.9457
121091.6591
121401.3041
121790.4653
122172.3202
122571.1033
122961.5626
123327.2671
123647.3607
123895.2779
124045.8074
124072.3456
123952.4469
123668.2185
123209.1857
122572.8093
121764.8897
120798.7087
119693.7287
118473.8522
117165.6762
115796.8732
114394.8663
112985.8224
111593.9438
110240.9957
108946.0028
107725.0499
106591.1367
105554.066
104620.3651
103793.2659
103072.7782
102455.8913
101936.9242
101508.0212
101159.762
100881.83
100663.6696
100495.067
100366.6024
100269.9494
100198.0176
100144.9652
100106.1127
100077.8086
100057.2611
100042.3728
100031.5904
100023.7766
100018.1063
100013.984
100010.9793
100008.78
100007.1682
100006.0124
100005.1719
100004.3425
100003.8047
100004.829
123158.6316
123537.333
123814.0238
124151.3274
124477.4136
124803.3579
125108.6033
125372.5657
125575.6241
125691.6193
125697.5883
125570.1309
125290.8908
124846.5768
124231.2627
123446.4826
122501.2432
121411.0009
120196.3428
118881.3792
117492.1992
116055.4773
114597.354
113142.5954
111714.0007
110332.0041
109014.4096
107776.2054
106629.4165
105582.9842
104642.6775
103811.0644
103087.5823
102468.7393
101948.4656
101518.6097
101169.5451
100890.8296
100671.8484
100502.3769
100373.0149
100275.4698
100202.6855
100148.8483
100109.2973
100080.3896
100059.3334
100044.0254
100032.9028
100024.8174
100018.9329
100014.6436
100011.5091
100009.2095
100007.5244
100006.3182
100005.4212
100004.5496
100004.1013
100004.9982
125522.0848
125852.4811
126092.2142
126371.3267
126634.6511
126881.0218
127094.9923
127253.0614
127337.1738
127322.2696
127187.8204
126913.6728
126485.249
125893.2929
125135.6619
124217.1256
123149.107
121948.588
120636.8222
119237.8661
117777.2099
116280.5688
114772.9244
113277.8104
111816.8073
110409.1978
109071.7284
107818.4316
106660.4755
105606.0361
104660.1999
103824.9319
103099.1444
102478.9014
101957.7737
101527.3369
101177.7762
100898.5372
100678.9557
100508.8036
100378.7051
100280.4044
100206.883
100152.3572
100112.1868
100082.7398
100061.2263
100045.5395
100034.1088
100025.7767
100019.6974
100015.2558
100012.0028
100009.6118
100007.8614
100006.6088
100005.6568
100004.757
100004.3918
100005.1611
127749.3842
128021.2953
128216.6647
128430.9528
128626.222
128789.6429
128910.4018
128962.9563
128930.7043
128790.0526
128522.867
128112.0975
127546.5326
126820.3691
125934.5634
124896.4349
123719.2252
122420.9866
121023.3492
119550.1809
118026.3662
116476.7439
114925.2749
113394.4247
111904.7233
110474.4608
109119.4676
107852.9412
106685.2936
105624.0167
104673.5801
103835.3973
103107.8964
102486.7298
101965.1346
101534.4342
101184.6411
100905.1009
100685.1087
100514.4389
100383.7441
100284.8081
100210.6518
100155.5231
100114.8045
100084.8762
100062.9525
100046.9241
100035.2147
100026.6588
100020.4026
100015.8226
100012.4614
100009.9877
100008.1793
100006.8835
100005.8793
100004.9645
100004.6714
100005.3162
129798.3288
130010.4604
130161.773
130311.1984
130438.6886
130520.9877
130551.1413
130502.5922
130360.1171
130101.8715
129711.9976
129176.3148
128486.545
127639.7972
126639.553
125495.1464
124221.2034
122836.5424
121363.0018
119824.2117
118244.4935
116647.9148
115057.5558
113494.9663
111979.7769
110529.4236
109158.9429
107880.8014
106704.7407
105637.6382
104683.4029
103842.9413
103114.2332
102492.5481
101970.8126
101540.116
101190.3126
100910.659
100690.4172
100519.3691
100388.1992
100288.7327
100214.0314
100158.376
100117.1728
100086.8156
100064.524
100048.188
100036.2268
100027.4683
100021.0517
100016.3458
100012.8863
100010.3381
100008.4783
100007.1417
100006.0893
100005.1705
100004.9349
100005.4656
131655.0091
131807.7461
131918.2167
132006.2405
132068.9563
132074.8613
132019.8435
131877.2305
131633.0249
131267.2456
130766.0975
130117.973
129317.1078
128363.0512
127261.3477
126022.9439
124663.5471
123202.5496
121661.9133
120065.0359
118435.7467
116797.4548
115172.4933
113581.6358
112043.7464
110575.5281
109191.3286
107902.9731
106719.6065
105647.5522
104690.2069
103848.0092
103118.5224
102496.6588
101975.0552
101544.5836
101194.9536
100915.3421
100694.9851
100523.6762
100392.1344
100292.2279
100217.06
100160.9449
100119.3135
100088.5742
100065.9529
100049.3401
100037.1514
100028.2097
100021.6478
100016.8277
100013.2789
100010.6639
100008.7586
100007.3834
100006.2874
100005.3726
100005.1811
100005.6164
133315.8633
133414.2636
133487.0466
133518.6739
133520.8541
133456.5819
133323.535
133095.513
132759.4591
132297.2099
131696.7625
130948.7593
130049.5692
129000.7838
127809.6502
126488.4321
125053.7125
123525.3446
121925.3845
120277.0342
118603.715
116928.2889
115272.4661
113656.3682
112098.2098
110614.0661
109217.6875
107920.3345
106730.6196
105654.3645
104694.496
103851.02
103121.1113
102499.3483
101978.0972
101548.0286
101198.7189
100919.2745
100698.9113
100527.4385
100395.6111
100295.3414
100219.7742
100163.2578
100121.2479
100090.1679
100067.251
100050.389
100037.995
100028.8876
100022.1941
100017.2704
100013.6407
100010.9663
100009.0206
100007.6084
100006.4735
100005.5691
100005.4177
100005.7712
134791.6717
134839.1221
134874.8093
134855.3805
134802.3402
134675.2224
134472.4027