/*--------------------------------*- C++ -*----------------------------------*\
  =========                 |
  \\      /  F ield         | OpenFOAM: The Open Source CFD Toolbox
   \\    /   O peration     | Website:  https://openfoam.org
    \\  /    A nd           | Version:  12
     \\/     M anipulation  |
\*---------------------------------------------------------------------------*/
FoamFile
{
    format      ascii;
    class       surfaceScalarField;
    location    "1250";
    object      phi;
}
// * * * * * * * * * * * * * * * * * * * * * * * * * * * * * * * * * * * * * //

dimensions      [1 0 -1 0 0 0 0];

internalField   nonuniform List<scalar> 
32120
(
-0.0006191794444
-0.0451763655
0.04579554494
-0.001376010611
-0.06422983243
0.06498666386
-0.002304403269
-0.08353080194
0.08445919479
-0.003421778708
-0.1061918279
0.1073092035
-0.004655480419
-0.1341376288
0.1353713307
-0.005800292143
-0.1698165727
0.1709613848
-0.006787545534
-0.216098842
0.2170860959
-0.009674442896
-0.2726295392
0.2755164374
-0.01739100337
-0.330927787
0.3386443489
-0.02789798128
-0.394531744
0.4050387238
-0.04041164831
-0.4696153068
0.4821289762
-0.05526486506
-0.5591128165
0.573966036
-0.07291871767
-0.665592052
0.6832459079
-0.09390212047
-0.7923894886
0.8133728953
-0.1188359665
-0.943288189
0.9682220394
-0.1484630234
-1.122917133
1.152544195
-0.1836589768
-1.336686249
1.371882208
-0.2254678459
-1.591085228
1.632894103
-0.2751254014
-1.893777636
1.943435198
-0.3341024419
-2.253883312
2.31286036
-0.4041455524
-2.682195764
2.752238882
-0.4873351088
-3.191505032
3.274694596
-0.5861508929
-3.796926147
3.895741938
-0.7035582617
-4.516299777
4.633707153
-0.8431137875
-5.370633554
5.510189086
-1.009100468
-6.384609693
6.55059638
-1.206695683
-7.587162725
7.784757944
-1.442170149
-9.01216533
9.247639798
-1.723105582
-10.69928353
10.98021896
-2.058601198
-12.69511058
13.0306062
-2.459426788
-15.05473352
15.45555911
-2.938086744
-17.84391041
18.32257038
-3.508828847
-21.14194521
21.71268733
-4.187732797
-25.04514731
25.72405127
-4.993043701
-29.67061899
30.47592991
-5.945808317
-35.16021675
36.11298137
-7.070719485
-41.68479123
42.80970241
-8.396985339
-49.44901164
50.77527751
-9.959062683
-58.69711957
60.25919692
-11.79716489
-69.7199422
71.55804443
-13.95752887
-82.86347696
85.02384094
-16.49241606
-98.53941686
101.0743041
-19.45977446
-117.237997
120.2053554
-22.92237943
-139.5436253
143.0062303
-26.94612944
-166.1538265
170.1775765
-31.59700615
-197.9021751
202.5530518
-36.93597026
-235.7860312
241.1249953
-43.01074565
-281.0001762
287.0749516
-49.84298993
-334.9777199
341.8099641
-57.40868221
-399.440049
407.0057413
-65.60862086
-476.458073
484.6580117
-74.22458338
-568.5276722
577.1436347
-82.8547477
-678.6631628
687.2933271
-90.81929
-810.5136539
818.4781962
-97.02314499
-968.508976
974.712831
-99.75732875
-1158.043782
1160.777965
-96.41261826
-1385.712232
1382.367522
-83.06697667
-1659.60926
1646.263619
-53.89480548
-1989.701584
1960.529413
-2388.359546
2334.786541
-0.0005363456309
-0.04464001974
-0.001203160298
-0.06356301749
-0.00201531429
-0.08271864773
-0.002975547285
-0.1052315947
-0.004018589875
-0.1330945858
-0.004997102892
-0.1688380592
-0.005955818402
-0.2151401256
-0.009905330496
-0.2686800258
-0.01745446652
-0.3233786491
-0.02678128019
-0.3852049279
-0.0378667196
-0.4585298645
-0.05105873866
-0.545920794
-0.06675021421
-0.6499005725
-0.0854177716
-0.7737219267
-0.1076195364
-0.921086419
-0.1340255113
-1.096511152
-0.1654245552
-1.305287198
-0.2027580797
-1.553751696
-0.2471398746
-1.849395834
-0.2998964169
-2.201126761
-0.3626048141
-2.619487359
-0.4371484628
-3.116961375
-0.525781887
-3.708292715
-0.631216522
-4.410865134
-0.7567292257
-5.245120845
-0.906301726
-6.235037187
-1.084791994
-7.408672454
-1.298131525
-8.798825792
-1.553528772
-10.44388627
-1.859638588
-12.38900075
-2.226635875
-14.68773621
-2.666160798
-17.40438546
-3.191214736
-20.61689125
-3.816203402
-24.42015859
-4.557297734
-28.92952465
-5.433121587
-34.28439282
-6.46561872
-40.65229409
-7.68090563
-48.23372463
-9.109969858
-57.26805534
-10.78914828
-68.04076368
-12.76037074
-80.89225449
-15.07115379
-96.22863375
-17.77427566
-114.5348752
-20.92697393
-136.390927
-24.58937554
-162.4914249
-28.82172561
-193.669825
-33.67974681
-230.92801
-39.20718345
-275.4727395
-45.42416362
-328.7607397
-52.30941131
-392.5548013
-59.77348752
-468.9939968
-67.61900744
-560.6821522
-75.48207805
-670.8000922
-82.74660491
-803.2491271
-88.4197785
-962.8358024
-90.9517822
-1155.511778
-87.97593978
-1388.688075
-75.93440244
-1671.650798
-49.54179864
-2016.094188
-2436.882687
-0.000407973
-0.04423204656
-0.0009024904924
-0.06306849964
-0.001492576814
-0.08212856112
-0.0021468469
-0.1045773243
-0.002755254997
-0.1324861773
-0.00320507303
-0.1683882404
-0.003929597383
-0.2144156001
-0.008157133574
-0.2644524878
-0.0150107617
-0.3165250186
-0.02332031064
-0.3768953759
-0.03319333756
-0.4486568338
-0.04493953114
-0.5341745961
-0.05890886945
-0.6359312292
-0.07552586147
-0.757104929
-0.09528503707
-0.901327237
-0.1187818866
-1.073014296
-0.1467173663
-1.277351711
-0.1799303364
-1.520538718
-0.219416322
-1.809909839
-0.2663660358
-2.154177038
-0.3222023837
-2.563651002
-0.3886345396
-3.05052921
-0.4677229345
-3.629204313
-0.5619673419
-4.316620719
-0.6744207088
-5.132667473
-0.8088351063
-6.100622784
-0.9698360296
-7.247671529
-1.163113257
-8.605548563
-1.395594675
-10.21140485
-1.675542257
-12.10905316
-2.012502951
-14.35077551
-2.41713101
-16.99975739
-2.901043081
-20.13297918
-3.476923521
-23.84427814
-4.158986704
-28.24746146
-4.963718252
-33.47966125
-5.91071644
-39.70529591
-7.023468346
-47.1209727
-8.329965156
-55.96155853
-9.863124074
-66.50760474
-11.66100517
-79.0943734
-13.76680702
-94.12283187
-16.22857118
-112.073111
-19.09844761
-133.5210506
-22.43126921
-159.1586033
-26.28202885
-189.8190653
-30.70167214
-226.5083667
-35.73034213
-270.4440695
-41.38683537
-323.1042464
-47.65248498
-386.2891517
-54.44691904
-462.1995628
-61.59201669
-553.5370546
-68.75881928
-663.6332896
-75.38988942
-796.6180569
-80.58642531
-957.6392665
-82.94486116
-1153.153342
-80.32129019
-1391.311645
-69.49220165
-1682.479886
-45.66811174
-2039.918278
-2480.752067
-0.0002985921078
-0.04393345426
-0.0006527903622
-0.06271430104
-0.001063671499
-0.08171767969
-0.001468522459
-0.104172473
-0.001701146276
-0.132253553
-0.001641199777
-0.1684481862
-0.002615203552
-0.2134415951
-0.00695764848
-0.260110041
-0.0130860807
-0.3103965839
-0.02040649386
-0.3695749598
-0.029101492
-0.4399618322
-0.03944678203
-0.523829302
-0.05174858332
-0.6236294233
-0.06638328295
-0.7424702241
-0.08378840813
-0.8839221059
-0.1044936454
-1.052309052
-0.1291237082
-1.252721641
-0.1584287021
-1.491233716
-0.1933014836
-1.77503705
-0.2348135627
-2.112664951
-0.2842517386
-2.514212819
-0.3431728918
-2.991608048
-0.4134730848
-3.558904114
-0.4974819983
-4.232611799
-0.5980844867
-5.032064981
-0.7188713438
-5.979835923
-0.8643122253
-7.102230645
-1.039927122
-8.429933664
-1.252402165
-9.998929803
-1.509572611
-11.85188271
-1.820239151
-14.04010896
-2.193921506
-16.62607503
-2.640768386
-19.68613229
-3.171798097
-23.31324841
-3.799468375
-27.61979118
-4.538430067
-32.74069954
-5.406293208
-38.83743276
-6.424292251
-46.10297364
-7.617804862
-54.76804592
-9.016710399
-65.10869919
-10.65558781
-77.45549599
-12.5737163
-92.20470337
-14.81481716
-109.8320102
-17.42639451
-130.9094732
-20.45844486
-156.1265529
-23.96117497
-186.3163352
-27.98119519
-222.4883465
-32.55540774
-265.869857
-37.70146941
-317.9581848
-43.40321376
-380.5874073
-49.58871703
-456.0140595
-56.09768454
-547.0280871
-62.63339214
-657.097582
-68.69244829
-790.5590008
-73.46255362
-952.8691612
-75.67462516
-1150.941271
-73.38948329
-1393.596787
-63.69077662
-1692.178593
-42.24444957
-2061.364605
-2520.32673
-0.0002002777313
-0.04373317629
-0.0004162744223
-0.06249830398
-0.0006438833769
-0.08149007041
-0.0007987423305
-0.1040176136
-0.0006768511578
-0.1323754436
-0.0001355893736
-0.168989447
-0.001470842381
-0.2121063406
-0.005563280483
-0.2560176009
-0.01092251739
-0.3050373444
-0.0172910686
-0.3632064054
-0.02486966911
-0.432383228
-0.03389577416
-0.5148031928
-0.04463842905
-0.6128867636
-0.05743091971
-0.729677728
-0.07265929184
-0.8686937276
-0.09079199628
-1.034176341
-0.112381769
-1.231131861
-0.1380939588
-1.465521519
-0.1687244668
-1.744406534
-0.2052357224
-2.076153687
-0.2487965809
-2.470651953
-0.3008403567
-2.939564265
-0.3631393695
-3.496605096
-0.4379049957
-4.157846167
-0.527915167
-4.942054807
-0.636667835
-5.871083252
-0.7685435731
-6.970354904
-0.9289337799
-8.269543455
-1.124260807
-9.803602772
-1.361824358
-11.61431915
-1.649518242
-13.75241507
-1.995605422
-16.27998784
-2.408767552
-19.27297016
-2.898501212
-22.82351475
-3.475758501
-27.04253388
-4.153658421
-32.06279961
-4.948140815
-38.04295036
-5.878507524
-45.17260692
-6.967844289
-53.67870915
-8.24332502
-63.83321844
-9.736390067
-75.96243094
-11.48276208
-90.45833135
-13.52222685
-107.7925454
-15.89804987
-128.5336502
-18.65581781
-153.368785
-21.84138402
-183.130769
-25.49743239
-218.8322981
-29.65796232
-261.7093271
-34.33967538
-313.2764717
-39.52881611
-375.3982666
-45.16135381
-450.3815218
-51.09352236
-541.0959185
-57.05841667
-651.1326877
-62.60245376
-785.0149637
-66.99305064
-948.4785643
-69.08488843
-1148.849433
-67.12710594
-1395.55457
-58.48573999
-1700.819959
-39.24529416
-2080.605051
-2555.931773
-0.0001257052774
-0.0436074708
-0.0002215703868
-0.06240243858
-0.0002791321867
-0.08143250833
-0.0001818786143
-0.1041148668
0.0002914451641
-0.1328487668
0.00105312201
-0.1697511231
-0.0005412942677
-0.2105119231
-0.004064570435
-0.2524943231
-0.00872561993
-0.3003762928
-0.01427163349
-0.3576603894
-0.02087109036
-0.4257837683
-0.02872845648
-0.5069458233
-0.03807582629
-0.60353939
-0.04920349958
-0.7185500504
-0.06244756107
-0.8554496614
-0.07821838956
-1.018405507
-0.09700361388
-1.212346631
-0.1193954618
-1.443129665
-0.1461106433
-1.717691347
-0.1780266218
-2.044237702
-0.2162239785
-2.432454591
-0.2620470168
-2.893741221
-0.3171843523
-3.441467756
-0.3837767062
-4.091253808
-0.4645511815
-4.861280329
-0.5629706501
-5.77266378
-0.6833654639
-6.849960087
-0.830984921
-8.121923994
-1.011891139
-9.62269655
-1.232685909
-11.39352437
-1.500206573
-13.4848944
-1.821417463
-15.95877694
-2.203638
-18.89074961
-2.655062674
-22.37209006
-3.185407873
-26.51218868
-3.806534162
-31.44167332
-4.532971472
-37.31651305
-5.382342904
-44.32323548
-6.375703072
-52.68534897
-7.537799865
-62.67112164
-8.897239339
-74.60299147
-10.48651823
-88.86905245
-12.34184426
-105.9372194
-14.50262596
-126.3728685
-17.01044391
-150.8609671
-19.90720408
-180.2340088
-23.23205002
-215.5074522
-27.0163965
-257.9249806
-31.2761748
-309.0166934
-35.9999671
-370.6744743
-41.13115233
-445.2503366
-46.54133556
-535.6857353
-51.99119128
-645.682832
-57.07318795
-779.932967
-61.12824683
-944.4235054
-63.12507668
-1146.852603
-61.48620997
-1397.193437
-53.83751487
-1708.468654
-36.64848914
-2097.794077
-2587.860994
-5.811324402e-05
-0.04354935736
-3.791254318e-05
-0.062422639
8.313468002e-05
-0.08155355529
0.0004659540809
-0.1044976859
0.001357251172
-0.1337400634
0.002008568812
-0.1704024399
0.0001304231613
-0.2086337763
-0.003206169002
-0.2491577294
-0.007179464411
-0.2964029956
-0.01191730614
-0.3529225454
-0.01755169341
-0.4201493785
-0.02426557993
-0.5002319339
-0.03225957331
-0.5955453933
-0.04178766993
-0.7090219501
-0.05314506651
-0.8440922607
-0.06669484766
-1.004855721
-0.08287222058
-1.196169253
-0.1022103638
-1.423791516
-0.1253619103
-1.694539795
-0.1531359291
-2.016463678
-0.186544636
-2.399045879
-0.2268705948
-2.853415258
-0.2757569624
-3.392581385
-0.3353230241
-4.031687742
-0.4082971789
-4.788306171
-0.4981444696
-5.682816486
-0.6091395409
-6.738965012
-0.7463103276
-7.984753203
-0.9152062265
-9.453800646
-1.121565671
-11.18716492
-1.371088279
-13.23537179
-1.669503558
-15.66036166
-2.022961428
-18.53729174
-2.438609056
-21.95644243
-2.925182337
-26.02561539
-3.49350997
-30.87334568
-4.156914894
-36.65310812
-4.931539175
-43.54861119
-5.836618732
-51.78026941
-6.894711872
-61.61302849
-8.131860256
-73.36584308
-9.577634328
-87.42327837
-11.264995
-104.2498587
-13.22985352
-124.40801
-15.5101592
-148.5806614
-18.1442541
-177.5999139
-21.16810512
-212.4836012
-24.61084883
-254.4822369
-28.48782181
-305.1397204
-32.78990187
-366.3723942
-37.46744407
-440.5727943
-42.40638358
-530.7467958
-47.39300061
-640.6962149
-52.06235423
-775.2636134
-55.82325278
-940.6626069
-57.74962373
-1144.926232
-56.42378346
-1398.519277
-49.7109411
-1715.181496
-34.43503418
-2113.069983
-2616.379295
-2.876521337e-06
-0.04354648069
0.0001210676554
-0.062546583
0.0004226687279
-0.08185515619
0.001095233002
-0.1051702499
0.002388242158
-0.1350330722
0.002774299325
-0.1707884965
0.0008449954636
-0.2067044717
-0.002124563689
-0.2461881692
-0.005483849079
-0.293043709
-0.009487876071
-0.348918517
-0.01425519708
-0.4153820558
-0.01994514491
-0.4945419842
-0.02673099331
-0.5887595428
-0.03483426334
-0.7009186777
-0.04451395606
-0.8344125654
-0.05609097469
-0.9932786999
-0.0699544582
-1.182305767
-0.08658689751
-1.407159074
-0.1065889852
-1.674537704
-0.1307200065
-1.992332654
-0.1599517617
-2.369814121
-0.1955437396
-2.817823276
-0.2391401304
-3.348984991
-0.2928851828
-3.977942686
-0.3595414886
-4.721649862
-0.442575415
-5.599782557
-0.5461442554
-6.635396167
-0.6749200966
-7.855977357
-0.8337705931
-9.294950144
-1.027456571
-10.99347894
-1.260559217
-13.00226913
-1.537733119
-15.38318775
-1.864199978
-18.21082487
-2.246308705
-21.5743337
-2.692027661
-25.57989643
-3.211326901
-30.35404643
-3.816473408
-36.04796161
-4.522281329
-42.84280326
-5.346341547
-50.95620919
-6.309229473
-60.65014056
-7.434661291
-72.24041126
-8.749558767
-86.10838089
-10.28394271
-102.7154748
-12.07056101
-122.6213917
-14.14408642
-146.507136
-16.53965756
-175.2043428
-19.29041061
-209.7328481
-22.42349322
-251.3491542
-25.9538292
-301.6093844
-29.87456102
-362.4516624
-34.1426506
-436.3047048
-38.65743818
-526.2320082
-43.22901084
-636.1246423
-47.53192379
-770.9607004
-51.03779515
-937.1567355
-52.91773204
-1143.046295
-51.90153143
-1399.535477
-46.07508809
-1721.00794
-32.58897619
-2126.556095
-2641.724907
4.604689531e-05
-0.04359252745
0.0002744228386
-0.06277495873
0.0007635829765
-0.08234431612
0.001718559487
-0.1061252262
0.003231912069
-0.1365464244
0.003212758962
-0.1707693428
0.001358332598
-0.2048500445
-0.0009874153533
-0.2438424202
-0.003802840142
-0.2902282829
-0.007164474653
-0.3455568811
-0.01116891427
-0.4113776145
-0.01595221968
-0.4897586768
-0.02166341713
-0.5830483432
-0.02849528017
-0.6940868122
-0.03667598042
-0.8262318626
-0.04649143269
-0.9834632448
-0.0582946377
-1.170502559
-0.07253141035
-1.392922298
-0.08977014585
-1.657298966
-0.1107469202
-1.971355876
-0.1364262484
-2.34413479
-0.1680814518
-2.78616807
-0.2073930145
-3.309673426
-0.2565558233
-3.928779874
-0.3183688146
-4.659836866
-0.396255162
-5.521896206
-0.4941432152
-6.53750811
-0.6161880786
-7.733932489
-0.7664383699
-9.144699848
-0.9486524062
-10.8112649
-1.166413239
-12.7845083
-1.423522479
-15.1260785
-1.724519061
-17.90982829
-2.075165307
-21.22368745
-2.482822905
-25.17223883
-2.95672598
-29.88014335
-3.508196191
-35.49649139
-4.150841347
-42.2001581
-4.90075537
-50.20629516
-5.77671181
-59.77418411
-6.800321909
-71.21680116
-7.996110476
-84.91259232
-9.391445639
-101.3201396
-11.01622372
-120.9966136
-12.90217531
-144.6211844
-15.08157562
-173.0249425
-17.58505559
-207.2293682
-20.43805624
-248.4961536
-23.65526392
-298.3921767
-27.2320828
-358.8748435
-31.13176316
-432.4050244
-35.26622661
-522.0975448
-39.46777633
-631.9230926
-43.447647
-766.9808298
-46.73568252
-933.8687
-48.5929065
-1141.189071
-47.88542184
-1400.242962
-42.9028693
-1725.990492
-31.09721601
-2138.361749
-2664.111315
0.0001024833444
-0.04369501072
0.0004543634756
-0.06312683871
0.001155832755
-0.08304578526
0.002440293585
-0.1074096868
0.003944386724
-0.1380505173
0.003445717754
-0.1702706735
0.001804131301
-0.2032084575
-0.000139830383
-0.2418984579
-0.002438306353
-0.2879298062
-0.005191882451
-0.342803304
-0.008481496809
-0.4080879991
-0.01242496654
-0.4858152059
-0.01715154812
-0.5783217602
-0.02283005263
-0.6884083062
-0.02966392135
-0.8193979921
-0.03791228529
-0.9752148789
-0.04790353256
-1.16051131
-0.06006291429
-1.380762914
-0.07494727036
-1.642414608
-0.09329429657
-1.953008848
-0.116088237
-2.321340848
-0.14464293
-2.757613374
-0.1806971024
-3.273619251
-0.2265028413
-3.882974131
-0.2848673236
-4.60147238
-0.3590833898
-5.447680135
-0.4527052977
-6.443886198
-0.5692220451
-7.617415737
-0.711799476
-9.002122413
-0.8832695033
-10.63979487
-1.0864115
-12.5813663
-1.324413008
-14.88807699
-1.601344898
-17.63289639
-1.922541896
-20.90249045
-2.294868161
-24.79991256
-2.726905295
-29.44810621
-3.229112052
-34.99428463
-3.813990659
-41.61527949
-4.496268295
-49.52401752
-5.293082729
-58.97736967
-6.224140462
-70.28574342
-7.3118057
-83.82492708
-8.581059289
-100.050886
-10.05924083
-119.5184321
-11.77544967
-142.9049755
-13.75942036
-171.0409718
-16.03959075
-204.9491978
-18.63996194
-245.8957824
-21.57516606
-295.4569726
-24.84287948
-355.6071301
-28.41237347
-428.8355304
-32.20743377
-518.3024845
-36.08113971
-628.0493866
-39.77890152
-763.283068
-42.88463993
-930.7629616
-44.74274948
-1139.330962
-44.34547346
-1400.640238
-40.17088124
-1730.165084
-29.94938927
-2148.583241
-2683.729084
0.0001517690394
-0.04384677965
0.0006317872039
-0.0636068567
0.001545195272
-0.08395919315
0.003152895572
-0.1090173869
0.004455945304
-0.1393535666
0.003702703852
-0.1695174315
0.002394249592
-0.2019000026
0.0008255063886
-0.2403297139
-0.00103888639
-0.2860654125
-0.003276344395
-0.340565845
-0.005953938648
-0.4054104036
-0.009172432629
-0.4825967105
-0.01304456081
-0.5744496305
-0.01772064751
-0.6837322178
-0.02338789232
-0.8137307455
-0.03029056371
-0.9683122057
-0.03874719893
-1.152054672
-0.04917949793
-1.370330613
-0.06215131534
-1.629442789
-0.07842233934
-1.936737822
-0.09901854867
-2.300744636
-0.1253152872
-2.731316633
-0.1591207962
-3.23981374
-0.2027294177
-3.839365507
-0.2588910869
-4.545310707
-0.3306428089
-5.375928409
-0.4210145729
-6.353514431
-0.532735257
-7.50569505
-0.6681195364
-8.866738129
-0.8292333341
-10.47868106
-1.018278754
-12.39232087
-1.23804638
-14.66830936
-1.492302241
-17.37864053
-1.786058821
-20.60873386
-2.125750555
-24.46022082
-2.519362311
-29.05449445
-2.976555703
-34.53709123
-3.508815972
-41.08301921
-4.129623487
-48.90321001
-4.854632439
-58.25236072
-5.701832247
-69.43854361
-6.691646068
-82.83511326
-7.846916559
-98.89561551
-9.192700812
-118.1726478
-10.75576419
-141.3419122
-12.56360278
-169.2331332
-14.64275677
-202.8700438
-17.01605176
-243.5224874
-19.69824326
-292.7747811
-22.68931548
-352.6160579
-25.96433997
-425.5605059
-29.45833467
-514.8084898
-33.0438932
-624.4638281
-36.49835355
-759.8286076
-39.45597597
-927.8053391
-41.33859596
-1137.448342
-41.25546125
-1400.723373
-37.85915577
-1733.56139
-29.13775639
-2157.30464
-2700.747459
0.0001977739125
-0.04404455346
0.00081739915
-0.06422648177
0.001953291378
-0.08509508521
0.003766398747
-0.110830494
0.004490425469
-0.140077593
0.003790312135
-0.1688173177
0.002762477101
-0.2008721671
0.001546567277
-0.2391138034
9.645346719e-05
-0.2846152979
-0.001654664933
-0.3388147256
-0.00376524929
-0.4032998182
-0.006324704454
-0.4800372542
-0.009436633563
-0.5713377001
-0.01324104009
-0.6799278099
-0.01791723809
-0.809054546
-0.02370290849
-0.9625265337
-0.03091521063
-1.144842369
-0.03998291568
-1.361262907
-0.05149170501
-1.617933998
-0.06624287196
-1.921986653
-0.08532517105
-2.281662335
-0.1101898554
-2.706451946
-0.1427082086
-3.207295383
-0.1851682718
-3.796905441
-0.2401572964
-4.490321679
-0.3103137563
-5.305771947
-0.3980298166
-6.265798367
-0.5052656251
-7.398459238
-0.6336064942
-8.738397257
-0.7845591017
-10.32772845
-0.9599648808
-12.21691509
-1.162387391
-14.46588685
-1.395395734
-17.14563218
-1.663740942
-20.34038865
-1.973466609
-24.15049515
-2.332001348
-28.69595971
-2.748266266
-34.12082631
-3.232812498
-40.59847298
-3.797985784
-48.33803672
-4.45810159
-57.59224491
-5.229606837
-68.66703836
-6.131188411
-81.93353168
-7.18378571
-97.84301821
-8.41043288
-116.9460006
-9.835837091
-139.916508
-11.48554579
-167.5834245
-13.38448662
-200.9711029
-15.55456053
-241.3524135
-18.01083244
-290.3185092
-20.75564507
-349.8712453
-23.76969628
-422.5464547
-26.9987007
-511.5794853
-30.33363159
-621.1288972
-33.58175475
-756.5804845
-36.42434428
-924.9627496
-38.35533306
-1135.517353
-38.59271227
-1400.485994
-35.95099682
-1736.203105
-28.6571119
-2164.598525
-2715.315766
0.0002455144745
-0.04429006786
0.001018723378
-0.06499969064
0.002410518673
-0.08648688045
0.004275582557
-0.1126955578
0.004641282126
-0.1404432925
0.004062120193
-0.1682381557
0.003289402095
-0.2000994488
0.002371051592
-0.2381954527
0.001263180977
-0.283507427
-9.041265487e-05
-0.3374611317
-0.001741874733
-0.4016483558
-0.003772535451
-0.4780065931
-0.006278359253
-0.5688318759
-0.009391008366
-0.6768151603
-0.01328500365
-0.8051605502
-0.01819799824
-0.9576135386
-0.02445757857
-1.138582788
-0.03251771551
-1.353202769
-0.04300811849
-1.607443593
-0.05679345486
-1.908201315
-0.07503981101
-2.263415977
-0.09927172898
-2.682220026
-0.1313872588
-3.17517985
-0.1735817508
-3.754710946
-0.2281502581
-4.435753169
-0.2972101956
-5.236712007
-0.382474381
-6.18053418
-0.4852162788
-7.295717338
-0.6064726128
-8.61714092
-0.7474017548
-10.18679931
-0.9096606553
-12.05465618
-1.095700415
-14.27984708
-1.308953125
-16.93237947
-1.553937627
-20.09540415
-1.836329494
-23.86810328
-2.163034257
-28.36925495
-2.542286932
-33.74157364
-2.983784308
-40.1569756
-3.498844977
-47.82297605
-4.100583053
-56.99050683
-4.804067328
-67.96355408
-5.626443693
-81.11115531
-6.586966532
-96.88249537
-7.706890418
-115.8260767
-9.009129321
-138.614269
-10.51755655
-166.0749972
-12.25575843
-199.2329011
-14.24496046
-239.3632115
-16.50072348
-288.0627462
-19.02781964
-347.3441491
-21.81244417
-419.7618302
-24.81054108
-508.5813884
-27.93049919
-618.0089391
-31.0077327
-753.503251
-33.76752507
-922.2029572
-35.77114352
-1133.513734
-36.33786664
-1399.91927
-34.43281124
-1738.108161
-28.50473794
-2170.526598
-2727.564743
0.000296227147
-0.04458629491
0.001222676284
-0.06592613967
0.002844885184
-0.08810908923
0.004582008672
-0.1144326811
0.004739968926
-0.1406012525
0.004269291129
-0.1677674776
0.003695278384
-0.1995254357
0.003005807129
-0.237505981
0.002167248986
-0.2826688684
0.001130756113
-0.3364246383
-0.0001494627957
-0.4003681364
-0.001747282652
-0.4764087726
-0.003756174084
-0.5668229838
-0.006306371186
-0.6742649626
-0.00957899443
-0.8018879263
-0.01382743637
-0.953365096
-0.01940791799
-1.133002305
-0.02681768059
-1.345793006
-0.03674548676
-1.597515786
-0.05012883827
-1.894817963
-0.06820915122
-2.245335662
-0.09255731089
-2.657871864
-0.1250289719
-3.142708186
-0.1676137395
-3.712126175
-0.2221921951
-4.381174712
-0.2902955461
-5.168608655
-0.3730016551
-6.09782807
-0.4710473273
-7.197671664
-0.5851196363
-8.503068609
-0.7162086053
-10.05571033
-0.865909623
-11.90495516
-1.036625232
-14.10913147
-1.231675901
-16.7373288
-1.455359313
-19.87172073
-1.712999002
-23.61046359
-2.011010036
-28.07124391
-2.356995378
-33.39558829
-2.759876451
-39.75409452
-3.230049858
-47.35280264
-3.779557026
-56.44099966
-4.422247174
-67.32086393
-5.173906168
-80.35949632
-6.052311497
-96.00409004
-7.07717094
-114.8012173
-8.269853292
-137.4215867
-9.652821278
-164.6920293
-11.2485826
-197.6371397
-13.07793165
-237.5338624
-15.15711594
-285.9835619
-17.49342775
-345.0078373
-20.07847017
-417.1767878
-22.87803666
-505.7818219
-25.81708827
-615.0698875
-28.75760166
-750.5627376
-31.46624738
-919.4943115
-33.56732787
-1131.412654
-34.47473177
-1399.011867
-33.29398054
-1739.288912
-28.68030506
-2175.140274
-2737.607643
0.0003775769011
-0.04496387185
0.001488134178
-0.06703669709
0.003258365485
-0.08987932068
0.004572031422
-0.1157463473
0.004528755934
-0.1405579773
0.004203273054
-0.167441995
0.003823496621
-0.1991456596
0.003354850866
-0.2370373357
0.002771894559
-0.2820859126
0.002029909425
-0.3356826537
0.001083153586
-0.399421381
-0.0001411220832
-0.4751844975
-0.001741774645
-0.5652223317
-0.003859437182
-0.6721473005
-0.006691990841
-0.7990553729
-0.01051871075
-0.9495383764
-0.01573324874
-1.127787767
-0.02288433508
-1.338641919
-0.03272736626
-1.587672754
-0.04627446612
-1.881270862
-0.06482513901
-2.226784987
-0.08994292303
-2.632754077
-0.1233447905
-3.109306315
-0.1666989473
-3.668772015
-0.2213921297
-4.326481528
-0.2883812215
-5.101619562
-0.3682260729
-6.017983217
-0.4613076083
-7.104590127
-0.5681425963
-8.396233619
-0.6896838496
-9.934169078
-0.8275364327
-11.76710258
-0.9840800212
-13.95258788
-1.162527787
-16.55888103
-1.366960142
-19.66728837
-1.602364393
-23.37505934
-1.874699319
-27.79890898
-2.190992254
-33.07929536
-2.559467551
-39.38561922
-2.989701075
-46.92256912
-3.492786861
-55.93791387
-4.08150382
-66.73214697
-4.770449841
-79.67055029
-5.576125107
-95.19841478
-6.516905627
-113.8604368
-7.612857859
-136.3256345
-8.885284521
-163.4196026
-10.35587132
-196.1665529
-12.04522016
-235.8445136
-13.97046498
-284.0583171
-16.14152718
-342.8367751
-18.55536996
-414.762945
-21.18733324
-503.1498587
-23.97820902
-612.2790117
-26.81519943
-747.7257472
-29.50398506
-916.8055259
-31.72811784
-1129.188521
-32.99011901
-1397.749865
-32.52673545
-1739.752295
-29.18588388
-2178.481125
-2745.541257
0.0004864974411
-0.04545036927
0.001779246173
-0.06832944578
0.003577019133
-0.09167709359
0.004443224591
-0.1166125527
0.004413079745
-0.1405278324
0.004222600499
-0.1672515157
0.004004483338
-0.1989275424
0.003715066593
-0.2367479188
0.003332531266
-0.2817033771
0.00281251293
-0.3351626352
0.002105308313
-0.3987141763
0.001133071793
-0.4742122609
-0.0002118614513
-0.5638773984
-0.002084058918
-0.670275103
-0.004704256414
-0.7964351753
-0.00838371859
-0.9458589142
-0.01356322101
-1.122608264
-0.020854957
-1.331350183
-0.03108813247
-1.577439577
-0.04533893265
-1.86702006
-0.06492176954
-2.207202148
-0.09131098738
-2.606364856
-0.125979753
-3.074637548
-0.17018954
-3.624562227
-0.2248197388
-4.271851329
-0.2903371737
-5.036102127
-0.3669412662
-5.941379124
-0.4548303678
-7.016701024
-0.554488381
-8.296575604
-0.6669108181
-9.821746639
-0.7937420808
-11.64027131
-0.9373411789
-13.80898878
-1.100809335
-16.39541287
-1.288012682
-19.48008503
-1.503621406
-23.15945061
-1.753176239
-27.54935415
-2.043186466
-32.78928513
-2.381257559
-39.04754813
-2.776243108
-46.52758357
-3.238411284
-55.47574569
-3.779610433
-66.19094782
-4.41341782
-79.03674291
-5.155240857
-94.45659174
-6.02233731
-112.9933403
-7.033697162
-135.3142746
-8.209708502
-162.2435913
-9.571484513
-194.8047769
-11.13967471
-234.2763234
-12.93250273
-282.265489
-14.96264867
-340.8066291
-17.23242966
-412.493164
-19.72648637
-500.655802
-22.40085466
-609.6046434
-25.16675916
-744.9598427
-27.86685771
-914.1054273
-30.24055393
-1126.814825
-31.87369497
-1396.116724
-32.12606264
-1739.499928
-30.02584302
-2180.581345
-2751.446806
0.0006448759932
-0.04609524537
0.002075157547
-0.06975972745
0.003788597134
-0.09339053331
0.004469293324
-0.117293249
0.004447703743
-0.140506243
0.004351860893
-0.1671556731
0.004238861849
-0.1988145436
0.004062651195
-0.2365717085
0.003801675752
-0.281442402
0.003410372862
-0.3347713327
0.002833555975
-0.3981373598
0.00198626747
-0.4733649728
0.0007474885958
-0.5626386198
-0.001056737634
-0.668470877
-0.003678196027
-0.7938137169
-0.007474598539
-0.9420625118
-0.01294775744
-1.117135105
-0.02078037906
-1.323517561
-0.03186509035
-1.566354865
-0.04730418998
-1.851580958
-0.06835727268
-2.186149062
-0.09631735207
-2.578404774
-0.1323297958
-3.038625102
-0.1772183193
-3.579673702
-0.2314093589
-4.217660289
-0.2950108551
-4.97250063
-0.3680237571
-5.868366222
-0.4506039267
-6.934120853
-0.5432908586
-8.203888671
-0.6471593732
-9.717878122
-0.7638964317
-11.52353425
-0.8958305407
-13.67705467
-1.045945146
-16.24529826
-1.217899238
-19.30813093
-1.416069462
-22.96128039
-1.645619995
-27.31980361
-1.912601438
-32.52230369
-2.2240781
-38.73607146
-2.588277466
-46.1633842
-3.014756888
-55.04926627
-3.51457122
-65.69113349
-4.100434331
-78.45087979
-4.786841385
-93.77018468
-5.590131926
-112.1900498
-6.528442021
-134.3759645
-7.621481436
-161.1505518
-8.890036007
-193.5362223
-10.3550437
-232.8113157
-12.03603105
-280.5845017
-13.94858539
-338.8940748
-16.10040896
-410.3413404
-18.48528048
-498.2709304
-21.07397106
-607.0159528
-23.80073728
-742.2330764
-26.54341188
-911.3627527
-29.09430168
-1124.263935
-31.11785604
-1394.09317
-32.08957938
-1738.528204
-31.20688403
-2181.46404
-2755.39072
0.0008696743243
-0.04696491967
0.002374593635
-0.07126464674
0.003927227174
-0.09494316683
0.004349624036
-0.1177156459
0.004345816569
-0.1405024355
0.004308356948
-0.1671182134
0.004254940374
-0.198761127
0.004141681492
-0.2364584496
0.003944477988
-0.2812451985
0.003614093283
-0.334440948
0.003086372763
-0.3976096392
0.002263361794
-0.4725419618
0.001002290721
-0.5613775487
-0.0009021725121
-0.6665664139
-0.003745893197
-0.7909699961
-0.007943060426
-0.9378653446
-0.01405843008
-1.111019735
-0.02283213458
-1.314743856
-0.03518658487
-1.554000412
-0.05219292422
-1.834574616
-0.07497893829
-2.163363045
-0.1045790641
-2.548804646
-0.1417695298
-3.001434635
-0.1869652502
-3.534477982
-0.240243511
-4.164382028
-0.3014993278
-4.911244813
-0.3706735584
-5.799191991
-0.4479753467
-6.856819064
-0.5340445806
-8.117819436
-0.6300420171
-9.621880684
-0.7376858484
-11.41589042
-0.8592622047
-13.55547831
-0.9976343273
-16.10692614
-1.156266361
-19.1494989
-1.339269816
-22.77827693
-1.551476665
-27.10759676
-1.798539632
-32.27524072
-2.087058265
-38.44755283
-2.424728212
-45.82571425
-2.820506345
-54.65348813
-3.284787467
-65.22685237
-3.82957142
-77.90609584
-4.468614377
-93.13114173
-5.217533207
-111.4411309
-6.093824358
-133.4996734