/*--------------------------------*- C++ -*----------------------------------*\
  =========                 |
  \\      /  F ield         | OpenFOAM: The Open Source CFD Toolbox
   \\    /   O peration     | Website:  https://openfoam.org
    \\  /    A nd           | Version:  12
     \\/     M anipulation  |
\*---------------------------------------------------------------------------*/
FoamFile
{
    format      ascii;
    class       volScalarField;
    location    "1250";
    object      rho;
}
// * * * * * * * * * * * * * * * * * * * * * * * * * * * * * * * * * * * * * //

dimensions      [1 -3 0 0 0 0 0];

internalField   nonuniform List<scalar> 
16200
(
0.9388761714
0.9389037922
0.939443222
0.9407007404
0.943205811
0.9483123804
0.9591564111
0.9794245899
0.991812639
0.9934474729
0.9938881214
0.9945146776
0.9952367027
0.9961309058
0.9971916852
0.9984721492
0.9999946838
1.001811237
1.003964831
1.006515139
1.009522967
1.013059839
1.017201504
1.022029404
1.027625379
1.034066424
1.041414111
1.049699645
1.058903207
1.068929301
1.079584255
1.090570344
1.101512018
1.11201417
1.121730487
1.13041343
1.137931387
1.144257757
1.149445988
1.153602352
1.156862103
1.159370505
1.161268802
1.162685021
1.163729148
1.164491576
1.165044141
1.165442308
1.165727991
1.165932318
1.16607811
1.166181941
1.166255718
1.166307991
1.166344724
1.166370471
1.166387783
1.166401026
1.166403849
1.166410572
0.9286450124
0.9288138872
0.9295481311
0.931121988
0.9342190382
0.9406445934
0.9542385049
0.9748274318
0.9828543278
0.9838831766
0.984405808
0.985109872
0.9859291292
0.9869392161
0.9881347345
0.9895736511
0.9912815292
0.993315468
0.9957240439
0.9985737752
1.001933506
1.0058838
1.010510344
1.015904528
1.02215695
1.029349546
1.037541251
1.046747829
1.056914988
1.06788875
1.079396285
1.091058341
1.102443721
1.113148462
1.122864051
1.13140876
1.138720951
1.144830743
1.149827707
1.153834564
1.156988565
1.15942877
1.161287144
1.162682658
1.163717948
1.164478186
1.165031817
1.16543232
1.165720545
1.165927132
1.166074735
1.16617992
1.166254666
1.166307588
1.166344785
1.166370724
1.16638817
1.166401342
1.166403866
1.166410052
0.9201715868
0.9205217915
0.9215102524
0.9234659805
0.9272641089
0.935266525
0.9523015564
0.9704224864
0.9753061321
0.9759755203
0.9765664015
0.9773538421
0.9782672942
0.9793911124
0.9807218521
0.9823230234
0.9842251587
0.9864918034
0.9891787828
0.9923605838
0.9961150017
1.000531926
1.005706721
1.011739438
1.018726356
1.026748406
1.035851963
1.046022241
1.057149809
1.069000106
1.081208316
1.093320951
1.104878865
1.1155054
1.124960067
1.13314377
1.140069135
1.14581961
1.150514662
1.154287218
1.157271315
1.159595609
1.161379334
1.162729458
1.163738796
1.164485257
1.165032291
1.165430165
1.165717784
1.165924675
1.166072899
1.166178732
1.166254035
1.166307382
1.166344906
1.166371013
1.166388579
1.166401738
1.166404152
1.166410642
0.9134833268
0.9140354789
0.915325745
0.9177639244
0.9224742204
0.9323653864
0.9525946108
0.9664965606
0.9691559145
0.9697889591
0.970468234
0.9713545172
0.9723844157
0.9736481473
0.9751451388
0.9769443045
0.9790815021
0.9816265403
0.9846426718
0.9882125895
0.9924237318
0.9973760685
1.003174856
1.009927341
1.017731142
1.026657829
1.036727478
1.047874419
1.059909355
1.072497592
1.085181475
1.097456843
1.10887554
1.11912574
1.128058938
1.135666915
1.142033832
1.147288996
1.151573975
1.15502574
1.157770802
1.1599244
1.161590717
1.162862697
1.163821482
1.164536024
1.165063301
1.165449137
1.165729498
1.165932038
1.166077654
1.16618191
1.166256249
1.166308996
1.166346148
1.166371985
1.166389345
1.166402309
1.166404432
1.166410843
0.9088804433
0.9096486641
0.9112693909
0.914272343
0.9201729213
0.9326573818
0.9542637966
0.9634173231
0.9649325948
0.9656347745
0.9664135639
0.9674150097
0.9685790422
0.9700013324
0.9716850165
0.9737044893
0.976102134
0.9789551565
0.9823360397
0.9863372568
0.991056948
0.9966048099
1.003093629
1.010632862
1.019313125
1.029183637
1.040218917
1.052277681
1.065068305
1.078150051
1.090993158
1.103084936
1.114033855
1.123625079
1.131814558
1.138681585
1.144370429
1.149043402
1.152853555
1.155934592
1.15840108
1.160352358
1.161876103
1.163050228
1.163943332
1.164614597
1.165113766
1.165481535
1.16575036
1.165945554
1.166086491
1.166187756
1.166260176
1.166311686
1.166348041
1.166373347
1.166390327
1.166403009
1.166404817
1.166411235
0.9064418537
0.9074305678
0.9093972899
0.9130207798
0.9203476356
0.9363240051
0.9561801283
0.9618865951
0.962740095
0.9635804342
0.9644532423
0.9655726829
0.9668774923
0.9684688205
0.9703553751
0.9726179109
0.9753068051
0.9785072536
0.9823011637
0.9867899154
0.992080572
0.9982897031
1.005533333
1.013916298
1.023511031
1.034327011
1.046269515
1.059097318
1.07240477
1.085659338
1.098299481
1.109854271
1.120028819
1.128724176
1.135999995
1.142010719
1.146944937
1.150983951
1.154282131
1.156963646
1.159127814
1.16085663
1.162220746
1.163282846
1.164098809
1.164717784
1.165181939
1.165526472
1.165779969
1.165965085
1.166099403
1.16619632
1.166265882
1.166315514
1.16635064
1.166375135
1.166391551
1.166403841
1.166405265
1.166411636
0.9059172102
0.9071478817
0.9095039204
0.9138871006
0.9229896283
0.9426077475
0.9587601091
0.9621824659
0.9625049767
0.9633890166
0.9643793231
0.9656449136
0.9671233587
0.9689207045
0.9710518614
0.9736033808
0.9766335605
0.9802349479
0.9844984065
0.9895335698
0.9954554482
1.002385169
1.010436714
1.019700231
1.030213738
1.041924531
1.054643805
1.068014062
1.081522437
1.094580303
1.106646979
1.117340961
1.126490742
1.134116844
1.140370522
1.145463181
1.149610314
1.152998825
1.155775637
1.158050513
1.159905393
1.161404407
1.162601435
1.163544389
1.164276825
1.164838076
1.165262794
1.16558062
1.165816143
1.165989215
1.166115482
1.166207026
1.16627301
1.166320265
1.16635382
1.166377279
1.166392984
1.166404794
1.16640579
1.166412115
0.907224109
0.9087257893
0.9115309297
0.9169219066
0.9285126784
0.9503635707
0.9616488235
0.9632778162
0.9640306223
0.9650497792
0.9661898933
0.9676211815
0.9692956031
0.9713236043
0.9737273579
0.9765993984
0.9800068456
0.984050166
0.9888296711
0.9944627626
1.001069961
1.008771189
1.017668127
1.027820897
1.039212582
1.051704491
1.064994326
1.078607412
1.091951833
1.104434254
1.11558845
1.12515762
1.133103344
1.139555398
1.144737059
1.148896437
1.152259599
1.155007873
1.157274173
1.159150715
1.160701133
1.161972009
1.163001287
1.163823027
1.164469229
1.16496995
1.165352648
1.165641559
1.165857319
1.166016948
1.166134107
1.166219496
1.166281335
1.166325809
1.166357513
1.166379743
1.166394611
1.166405863
1.166406384
1.166412652
0.9102242771
0.9119995079
0.9153273671
0.9219850889
0.9370198087
0.9584921243
0.9660509321
0.9665081877
0.9672919009
0.9684364202
0.9697252534
0.9713354993
0.9732238442
0.9755049564
0.9782095
0.9814363144
0.9852619471
0.9897945746
0.9951427515
1.001428494
1.008771918
1.01728245
1.027036348
1.038046311
1.050219002
1.063308842
1.076892065
1.090395692
1.103195509
1.114750626
1.124713235
1.132968898
1.139605817
1.144843091
1.148953198
1.152201602
1.154811242
1.1569495
1.158730976
1.160228775
1.161488307
1.162539541
1.163405713
1.164108238
1.164668561
1.165108203
1.165447931
1.165706877
1.16590189
1.166047235
1.166154602
1.166233305
1.166290597
1.166331993
1.16636163
1.166382482
1.166396412
1.166407038
1.166407046
1.16641326
0.9146879128
0.9167671577
0.9207390606
0.9289324518
0.9478580449
0.9662346034
0.9700784264
0.9710512295
0.9719990378
0.9732946012
0.9747614318
0.9765793446
0.9787140539
0.9812842032
0.9843298633
0.9879562275
0.9922491199
0.9973230102
1.003291782
1.010277178
1.018391581
1.027723594
1.038309639
1.050095739
1.062890538
1.076327721
1.089871173
1.10288895
1.114782254
1.125114374
1.133682884
1.140515097
1.145807042
1.149842283
1.152920063
1.155306739
1.157211782
1.158783107
1.16011474
1.161260413
1.162248156
1.16309266
1.16380392
1.164392043
1.164869031
1.165248712
1.165545756
1.165774591
1.165948519
1.166079188
1.166176391
1.166248086
1.166300569
1.166338683
1.166366098
1.166385454
1.16639837
1.166408314
1.166407774
1.166413937
0.9204736643
0.9229044154
0.9277478
0.9381288023
0.9601119819
0.9745745073
0.9760949697
0.9769922923
0.978081327
0.979537288
0.9811971427
0.9832424531
0.9856490356
0.9885393764
0.9919631093
0.9960305588
1.000834985
1.006494319
1.013123903
1.020839748
1.029738273
1.039874915
1.051228525
1.063656596
1.076851521
1.090326466
1.103463323
1.115626346
1.126299762
1.135187892
1.142240976
1.147612335
1.151579896
1.154466243
1.156577823
1.158169235
1.15942954
1.160484163
1.161405925
1.162229882
1.162968018
1.163621319
1.164188077
1.164668466
1.165066175
1.165388212
1.165643785
1.165843056
1.16599607
1.166112039
1.166198965
1.166263512
1.166311046
1.166345754
1.166370844
1.166388622
1.166400466
1.166409683
1.166408567
1.166414689
0.9273875435
0.930215173
0.936143932
0.9496538554
0.9725117044
0.9816790003
0.9829925746
0.984061837
0.9853213157
0.9869664538
0.9888525443
0.9911610328
0.9938779432
0.9971282257
1.000970428
1.005519049
1.010873978
1.017155137
1.024475895
1.032939803
1.042615892
1.053509639
1.065520761
1.078397489
1.091708999
1.10486889
1.117226992
1.128204511
1.137414858
1.144720129
1.150212664
1.154146211
1.156852573
1.15867048
1.159898197
1.160769854
1.161450147
1.162040976
1.16259452
1.163128473
1.163640389
1.16411919
1.164552997
1.164933375
1.165256791
1.165524285
1.165740236
1.165910989
1.166043639
1.166145164
1.166221904
1.166279304
1.166321851
1.166353098
1.166375805
1.166391951
1.166402683
1.166411138
1.166409423
1.166415517
0.9353032507
0.9386459502
0.9459345654
0.9632023259
0.9839581706
0.9900750431
0.990982093
0.9922408382
0.9936817185
0.9955321439
0.9976618128
1.000251909
1.003299905
1.006933788
1.011222236
1.016284277
1.022225081
1.029162447
1.037199992
1.04641714
1.056839432
1.068401887
1.080903572
1.093971509
1.107063861
1.119537309
1.13077036
1.140294946
1.147880522
1.153543572
1.157495096
1.160059549
1.161596456
1.16244219
1.162875924
1.163106135
1.163271582
1.16345105
1.163677403
1.163952647
1.164261619
1.164582793
1.164895558
1.16518411
1.16543871
1.165655223
1.165833805
1.165977421
1.166090524
1.166178066
1.166244863
1.166295233
1.166332833
1.16636062
1.166380925
1.166395411
1.166405009
1.166412672
1.16641034
1.166416426
0.9440946883
0.9481635892
0.9573735228
0.9781448108
0.9960209714
0.9990149196
0.9998979689
1.001349933
1.002978052
1.005047097
1.007438732
1.010335385
1.013747181
1.017804933
1.022586042
1.028210651
1.03478355
1.042412754
1.051182027
1.061133237
1.072230271
1.084316691
1.097075612
1.110017514
1.122523956
1.133952372
1.143768655
1.151652062
1.157533406
1.161564224
1.164044045
1.165338969
1.165814405
1.165790834
1.165521538
1.165187
1.164900214
1.164718197
1.164656269
1.16470256
1.164830883
1.16501078
1.165214229
1.165419178
1.165610596
1.165779904
1.165923591
1.166041655
1.166136202
1.166210365
1.166267575
1.166311111
1.166343868
1.16636824
1.166386155
1.166398974
1.166407427
1.166414278
1.166411316
1.166417417
0.9535134968
0.9585500877
0.9704038541
0.9932167936
1.006162737
1.008546576
1.009538194
1.011200217
1.013051012
1.015381034
1.018082167
1.021337417
1.025167823
1.029704589
1.035030606
1.04126331
1.04850225
1.056838868
1.066325967
1.076951069
1.088595396
1.100993451
1.11371102
1.126168119
1.137721984
1.147791381
1.155974411
1.162112451
1.166284329
1.168747693
1.169859394
1.170002017
1.169530349
1.16874016
1.167855423
1.167028387
1.166347595
1.165850194
1.165535917
1.165380821
1.165349289
1.165403311
1.165508636
1.165637951
1.165771752
1.165897666
1.166009017
1.166103218
1.166180302
1.166241779
1.166289831
1.166326793
1.166354854
1.166375891
1.166391452
1.166402615
1.166409926
1.166415949
1.166412346
1.166418493
0.9636514731
0.9700578907
0.9850167875
1.007389816
1.016949122
1.0187803
1.01999118
1.021888869
1.023993796
1.02661849
1.029664743
1.03331488
1.037599724
1.042650034
1.048552518
1.055419075
1.063337723
1.072371842
1.082525588
1.093710852
1.105707679
1.118136461
1.13046459
1.142066933
1.152335729
1.160801877
1.167219798
1.171587145
1.174104802
1.175104292
1.174971623
1.174086184
1.172780923
1.171322053
1.169903354
1.168650009
1.16762811
1.166857061
1.166322979
1.165991558
1.165819199
1.165761566
1.165779211
1.16584043
1.165921957
1.166008196
1.166089761
1.166161815
1.166222574
1.166272108
1.166311478
1.166342164
1.166365711
1.166383518
1.166396782
1.166406313
1.166412495
1.166417679
1.166413437
1.166419657
0.97456527
0.9827639495
1.000849517
1.022116163
1.028199662
1.029857421
1.031306954
1.033448505
1.035826682
1.038766843
1.042181998
1.046253959
1.051023179
1.056618934
1.063127814
1.070648271
1.079243494
1.088931225
1.099647267
1.111211161
1.123295399
1.135419346
1.146989655
1.157391385
1.166105663
1.172807969
1.177411641
1.180049368
1.181012253
1.180675161
1.179430406
1.177640259
1.175609197
1.173572071
1.171693319
1.170073083
1.168757306
1.167749822
1.167024999
1.166539727
1.166243711
1.166087358
1.166026921
1.166027045
1.166061324
1.166111441
1.166165688
1.166217288
1.166262868
1.16630122
1.166332408
1.16635714
1.166376376
1.166391075
1.166402113
1.166410049
1.166415123
1.166419461
1.166414611
1.166420912
0.9864486714
0.9967329427
1.017338841
1.036447334
1.040059194
1.041722854
1.043418866
1.045821442
1.048500164
1.051787845
1.055609557
1.060145214
1.065441899
1.071621541
1.078761222
1.086933301
1.09616078
1.106400101
1.117505091
1.129196303
1.141046588
1.152503776
1.162962967
1.171873716
1.178845046
1.183708276
1.186520656
1.187520041
1.187055812
1.185520409
1.183295644
1.180717931
1.178060241
1.175526386
1.173253394
1.171318803
1.169750785
1.168539674
1.167649799
1.167030628
1.166626292
1.166382863
1.166253054
1.166198507
1.166190199
1.166207525
1.166236804
1.166269584
1.166301103
1.166329034
1.166352547
1.166371659
1.166386799
1.166398527
1.16640742
1.166413806
1.1664178
1.166421294
1.166415892
1.166422262
0.9996129486
1.011904348
1.034040392
1.049100619
1.052528236
1.054364115
1.056335509
1.059035644
1.062060119
1.065742211
1.070017631
1.075059604
1.080916002
1.087693197
1.09544873
1.104217924
1.113972008
1.124595089
1.135851307
1.147364974
1.158630664
1.169066688
1.178108913
1.185315024
1.190441368
1.193467319
1.194567735
1.194053484
1.192304074
1.189709826
1.186630936
1.183373389
1.180178206
1.177219841
1.174610405
1.172407395
1.170623502
1.169237454
1.168205063
1.167469578
1.166970521
1.166650411
1.166459076
1.166355691
1.166309074
1.1662967
1.166303213
1.166318722
1.166337259
1.166355509
1.16637185
1.166385678
1.166396944
1.166405845
1.166412681
1.166417569
1.166420518
1.166423179
1.166417294
1.166423708
1.014323934
1.028328796
1.050499104
1.063374987
1.06583061
1.067944286
1.070221843
1.073247572
1.076647763
1.080749687
1.085497573
1.091052636
1.097458463
1.104799138
1.113104505
1.122363686
1.132485142
1.143270868
1.154393152
1.165394423
1.175725973
1.18482555
1.192215954
1.197589454
1.200849627
1.202102459
1.201609401
1.19972459
1.196835288
1.193316055
1.189499093
1.185658482
1.18200454
1.178684803
1.175789167
1.173357584
1.171389364
1.169853323
1.16869808
1.1678617
1.167279918
1.166892359
1.166646516
1.166499558
1.166418523
1.166379289
1.166365082
1.166364775
1.166371354
1.166380633
1.166390292
1.166399169
1.166406784
1.166413004
1.166417877
1.166421325
1.166423267
1.166425116
1.166418782
1.166425252
1.030470615
1.046063735
1.067510792
1.078024878
1.080134985
1.082561945
1.085144464
1.0885005
1.092280136
1.096798968
1.102008631
1.108053548
1.114968554
1.12280861
1.131566306
1.141172767
1.151461473
1.162146989
1.172819184
1.182967909
1.192046131
1.199557828
1.205144633
1.208640632
1.210081036
1.20966987
1.207724826
1.20461869
1.200730304
1.196410065
1.191959413
1.18762113
1.183577075
1.179950629
1.176812145
1.174186344
1.172061038
1.170396604
1.169135605
1.168211804
1.167557835
1.167110995
1.166816897
1.166631091
1.166519163
1.166455663
1.16642262
1.166407851
1.166403432
1.166404418
1.166407865
1.166412116
1.1664163
1.166419987
1.166422993
1.166425063
1.16642604
1.166427103
1.166420335
1.166426891
1.0477282
1.064863789
1.085602816
1.093403728
1.095350172
1.098092576
1.100983976
1.104672512
1.108831479
1.113759762
1.119416354
1.125923263
1.133299619
1.141560839
1.150648786
1.160423908
1.170638254
1.180926059
1.190819746
1.199797301
1.207358999
1.213110367
1.216825548
1.218471038
1.218188682
1.216250684
1.213004745
1.208823766
1.20406762
1.199058254
1.194066092
1.189304504
1.184929616
1.181043455
1.177699338
1.174908829
1.172649886
1.170875714
1.169523789
1.168524314
1.167807403
1.167308486
1.166971688
1.166751262
1.166611619
1.16652621
1.166476058
1.16644808
1.166433561
1.16642689
1.166424573
1.16642451
1.166425478
1.166426778
1.166428016
1.166428772
1.166428831
1.166429137
1.166421969
1.16642862
1.065986115
1.084247052
1.102753379
1.109385162
1.111354762
1.114401782
1.117606042
1.121632904
1.126179252
1.13151821
1.137612772
1.144552452
1.152328446
1.160903799
1.170157715
1.1798751
1.189732805
1.199306333
1.208106675
1.215642733
1.221498686
1.225400269
1.227250771
1.227128491
1.22525361
1.221939472
1.217543248
1.212425265
1.206920448
1.201320969
1.195867589
1.190746832
1.186091949
1.181986276
1.178468358
1.175538425
1.173165992
1.171298174
1.169868172
1.168803251
1.168031491
1.167486846
1.167112272
1.166861003
1.166696501
1.166591319
1.166525637
1.166485601
1.166461815
1.166448085
1.166440428
1.166436349
1.166434311
1.166433368
1.166432933
1.166432441
1.166431632
1.166431217
1.166423655
1.166430437
1.085045935
1.104063664
1.120139678
1.125882051
1.128029126
1.131402171
1.134953329
1.139344995
1.144299485
1.150050921
1.156559238
1.163871138
1.17193897
1.180666159
1.189866068
1.199254045
1.208449632
1.217000351
1.2244343
1.230327232
1.234369242
1.23640834
1.236461182
1.234692104
1.231372668
1.226835343
1.221432083
1.215502886
1.209355153
1.203251919
1.197406546
1.19198154
1.187090046
1.182799141
1.179134593
1.176086867
1.173618242
1.171670646
1.170173695
1.169052232
1.168232706
1.167647922
1.167239934
1.16696119
1.166774396
1.166651372
1.166571597
1.16652056
1.166488279
1.166468045
1.166455447
1.166447636
1.166442791
1.166439746
1.166437734
1.166436063
1.166434438
1.166433336
1.166425331
1.166432351
1.104574103
1.123216027
1.138183928
1.143120011
1.145551412
1.149251542
1.153164638
1.157915208
1.163255373
1.169369729
1.176208095
1.183768852
1.191958795
1.200619772
1.209502902
1.21826783
1.22650194
1.233758513
1.239616723
1.243743049
1.245940132
1.246167386
1.244532355
1.241259457
1.236648791
1.23103557
1.224757011
1.218128823
1.21143063
1.20489815
1.198720032
1.193037571
1.187946374
1.183499413
1.179711403
1.176564385
1.174014417
1.171999003
1.170444741
1.169274486
1.168413396
1.167793393
1.167355855
1.167052639
1.166845853
1.166706732
1.16661417
1.166553102
1.166513036
1.166486818
1.166469653
1.166458378
1.166450918
1.166445906
1.166442411
1.166439629
1.166437246
1.166435471
1.166426921
1.166434376
1.125144037
1.143534385
1.156915683
1.161317128
1.164059101
1.168042439
1.172282471
1.177335822
1.182985821
1.189363106
1.19639881
1.204038808
1.212140051
1.220485092
1.228772999
1.2366286
1.243636408
1.249386947
1.253534998
1.255847955
1.256234797
1.254747653
1.25156082
1.246935866
1.241183788
1.234631397
1.227595772
1.220367056
1.213198323
1.206300394
1.19983998
1.193939817
1.188680261
1.184102058
1.180210344
1.176979865
1.174361308
1.172288393
1.170685175
1.169472884
1.168575661
1.167924773
1.167461111
1.167136096
1.166911384
1.166757741
1.166653581
1.166583368
1.166536173
1.16650445
1.166483069
1.166468584
1.166458691
1.166451841
1.166446956
1.166443132
1.166440047
1.16643759
1.166428507
1.166436505
1.146584792
1.165199689
1.176333579
1.180397966
1.183429988
1.187641226
1.192153829
1.197439197
1.203303475
1.209820564
1.216895197
1.224418626
1.232198705
1.239967882
1.247390743
1.254082997
1.259654962
1.263758649
1.266137123
1.266656632
1.265317778
1.262243775
1.257653403
1.251827026
1.245074022
1.237705985
1.230017464
1.22227353
1.214702745
1.207493682
1.200793783
1.19470962
1.189308306
1.184619963
1.1806414
1.177341014
1.174664836
1.17254333
1.170898407
1.169649968
1.168721374
1.168043423
1.167556673
1.167212246
1.16697146
1.166804718
1.166690039
1.166611493
1.166557773
1.166520992
1.166495721
1.166478263
1.16646611
1.166457549
1.166451361
1.166446566
1.166442834
1.166439671
1.166430205
1.166438699
1.168612113
1.187518105
1.196255432
1.200166021
1.203470125
1.207867342
1.212592199
1.218027121
1.223992435
1.230503742
1.2374357
1.244627879
1.251846035
1.258787949
1.26510574
1.270431725
1.274425078
1.276813396
1.277429359
1.276227237
1.273280569
1.268762743
1.262918542
1.256033595
1.248407563
1.24033328
1.232082414
1.223896509
1.215982028
1.208507916
1.201604798
1.195365194
1.189844704
1.185064187
1.181013172
1.177654503
1.174930148
1.172767759
1.17108743
1.169807987
1.168852202
1.16815056
1.167643418
1.167281709
1.167026515
1.166847959
1.166723743
1.166637605
1.166577916
1.166536489
1.166507633
1.166487427
1.166473179
1.166463024
1.16645562
1.166449927
1.166445595
1.166441706
1.166432019
1.166440933
1.191215741
1.209622501
1.216689605
1.220534932
1.224057239
1.228572104
1.233418769
1.238890859
1.244816428
1.251152553
1.257742729
1.264381987
1.270806065
1.276697208
1.281717443
1.285536967
1.287878248
1.288548292
1.287462063
1.284646307
1.280228486
1.27441416
1.26746002
1.259647795
1.251262773
1.242577788
1.233842575
1.225277228
1.21706861
1.209368492
1.202292872
1.195922051
1.190301582
1.185444215
1.181333071
1.177926106
1.17516172
1.172965124
1.171254874
1.169948925
1.168969624
1.168247272
1.167722134
1.167345048
1.167076942
1.166887735
1.166754875
1.166661825
1.166596678
1.166550988
1.166518831
1.166496088
1.1664799
1.166468265
1.166459728
1.166453209
1.166448321
1.166443691
1.166433967
1.166443198
1.214291704
1.23179345
1.237514578
1.241321324
1.244992728
1.249545204
1.254410792
1.259791585
1.265519585
1.271497578
1.277541983
1.283415428
1.288839475
1.293500401
1.297088937
1.29932716
1.300006219
1.299008167
1.296317828
1.292017678
1.286272123
1.279304699
1.271374058
1.262752379
1.253708429
1.244495301
1.235342455
1.226450825
1.217990066
1.210097001
1.202874909
1.196393437
1.190689337
1.185768207
1.181607499
1.178160833
1.175363456
1.173138446
1.171403052
1.170074537
1.169074955
1.168334531
1.16779353
1.167402772
1.167123102
1.166924297
1.166783606
1.166684266
1.166614133
1.166564534
1.166529341
1.166504258
1.166486277
1.16647327
1.166463682
1.166456408
1.166450999
1.166445628
1.166436056
1.166445456
1.237661755
1.253955317
1.258605528
1.262376597
1.266102427
1.270585239
1.275341582
1.280481649
1.285839418
1.291271973
1.296576564
1.30149742
1.305757551
1.30906362
1.311147835
1.311790426
1.310849212
1.308271795
1.304098599
1.298452302
1.291520442
1.283534151
1.274747581
1.265420341
1.255804216
1.246133719
1.236620026
1.227447179
1.218769831
1.21071181
1.20336532
1.196790686
1.191016897
1.186043205
1.181842008
1.178363046
1.175538767
1.173290375
1.171534007
1.170186379
1.169169366
1.168413209
1.167858245
1.167455343
1.167165323
1.166957873
1.166810094
1.166705033
1.166630348
1.16657717
1.166539189
1.16651195
1.166492314
1.166478037
1.166467477
1.166459521
1.166453616
1.166447519
1.166438284
1.166447688
1.261111999
1.275961727
1.279767994
1.283473675
1.287154664
1.291443588
1.295946481
1.300689811
1.305508753
1.310224337
1.31462387
1.318446823
1.321431018
1.323315248
1.323879722
1.322962659
1.320481647
1.316438097
1.310914277
1.304060039
1.296075621
1.287192712
1.277657173
1.267714866
1.257601197
1.247533723
1.23770741
1.228291537
1.219427719
1.211228485
1.203776367
1.197123479
1.191291925
1.186275283
1.182041403
1.178536542
1.175690636
1.173423238
1.171649538
1.170285827
1.169253899
1.168484083
1.167916852
1.167503176
1.167203903
1.166988676
1.166834484
1.166724226
1.16664539
1.166588936
1.166548397
1.166519178
1.166498018
1.166482567
1.166471113
1.166462541
1.166456158
1.166449369
1.166440649
1.166449871
1.284508283
1.297699281
1.300756716
1.304325854
1.30784928
1.311826729
1.315940835
1.320145608
1.324279455
1.328137894
1.331508014
1.334136897
1.335787212
1.336236576
1.33531423
1.33291169
1.328996955
1.323613433
1.316873325
1.308943526
1.300029629
1.290359476
1.280168793
1.269689719
1.259142491
1.248729528
1.23863159
1.229005127
1.219980436
1.211660207
1.204118478
1.197400096
1.191521011
1.186469687
1.182209862
1.178684635
1.17582168
1.173539087
1.171751237
1.170374108
1.169329485
1.168547852
1.16796987
1.167546651
1.167239116
1.167016898
1.166856912
1.166741938
1.16665932
1.166599874
1.166556991
1.166525955
1.166503392
1.166486858
1.166474587
1.166465466
1.166458612
1.166451188
1.166443147
1.166451963
1.307519463
1.31880098
1.321339088
1.324652338
1.327913096
1.331472046
1.335079207
1.338625874
1.341957865
1.344856561
1.347117647
1.348505388
1.348813155
1.347859348
1.345519219
1.341730414
1.336501517
1.329907392
1.322080656
1.313197873
1.303465163
1.293104087
1.28233968
1.271391117
1.260464962
1.249750316
1.239415583
1.229606093
1.220442313
1.212018328
1.204400683
1.197627744
1.191709918
1.186631032
1.182351074
1.178810264
1.175934228
1.173639752
1.171840535
1.170452323
1.169396966
1.168605153
1.168017771
1.167586117
1.167271214
1.167042721
1.166877505
1.166758255
1.166672197
1.16661002
1.166564995
1.166532293
1.166508443
1.166490914
1.1664779
1.166468287
1.166460966
1.166452989
1.166445767
1.166453917
1.329686783
1.33905233
1.341231282
1.344206951
1.347114805
1.350159851
1.353159337
1.355954181
1.358401558
1.360278714
1.361396016
1.361540725
1.360538761
1.358247659
1.354583325
1.349521617
1.34310267
1.335424156
1.326631978
1.316907324
1.306453944
1.29548604
1.28421824
1.272857895
1.261599482
1.250620507
1.240078675
1.230109688
1.220825452
1.21231249
1.204630697
1.197812618
1.191863635
1.186763336
1.182468269
1.178916016
1.176030339
1.173726864
1.171918707
1.170521463
1.169457103
1.168656561
1.168060988
1.167621893
1.167300432
1.167066313
1.166896384
1.166773262
1.166684079
1.166619414
1.166572433
1.166538209
1.166513178
1.166494736
1.166481053
1.166470999
1.16646321
1.166454789
1.166448471
1.166455703
1.350928199
1.358389422
1.360246342
1.362781933
1.365245635
1.367697782
1.370014935
1.371997823
1.373516642
1.37435219
1.374332732
1.373270998
1.371024345
1.367485667
1.362605302
1.356389821
1.348903316
1.340259614
1.330612864
1.320145676
1.309057912
1.297556253
1.285845687
1.274123061
1.262572318
1.251360942
1.240637408
1.230529069
1.221140356
1.212551119
1.204815306
1.197960201
1.191986597
1.186870187
1.182564343
1.179004219
1.176111875
1.173801897
1.171986912
1.170582431
1.169510589
1.168702605
1.168099919
1.167654276
1.167326987
1.167087832
1.16691366
1.16678704
1.166695021
1.166628093
1.166579329
1.166543715
1.166517604
1.166498329
1.166484048
1.166473593
1.166465341
1.166456602
1.166451192
1.166457385
1.370776971
1.376521392
1.378103893
1.380158107
1.382128313
1.383943469
1.385537761
1.386684618
1.387268389
1.38707915
1.385963837
1.383760665
1.380355642
1.3756724
1.3696897
1.362438362
1.354000448
1.344501089
1.334099313
1.322977284
1.311330398
1.299358194
1.287257035
1.275214604
1.263405754
1.251989352
1.241105912
1.230875543
1.221396116
1.212741555
1.204960462
1.198075333
1.192082745
1.186954788
1.182641893
1.179076968
1.176180514
1.173866187
1.172046205
1.170636049
1.169558062
1.168743772
1.168134933
1.167683542
1.167351084
1.167107429
1.166929443
1.166799663
1.166705076
1.166636093
1.166585708
1.166548828
1.16652173
1.166501697
1.166486885
1.166476062
1.166467359
1.16645843
1.16645388
1.166458989
1.389208338
1.393414654
1.394687134
1.396208839
1.397644629
1.398802848
1.39966518
1.399986654
1.39966306
1.398496706
1.396352359
1.393092392
1.388628074
1.382909176
1.375937594
1.367763185
1.358481503
1.348225614
1.337157333
1.325457452
1.313316928
1.300928854
1.288482072
1.276156387
1.264118869
1.252521005
1.241496444
1.23115899
1.221600735
1.212890313
1.205071487
1.198162369
1.192155643
1.18702005
1.182703289
1.179136181
1.176237799
1.173920965
1.172097558
1.17068308
1.169600112
1.168780516
1.168166376
1.16770995
1.167372915
1.167125244
1.166943835
1.166811207
1.166714297
1.16664345
1.166591593
1.166553562
1.166525565
1.166504846
1.166489567
1.1664784
1.166469271
1.166460273
1.166456471
1.166460539
1.405863591
1.408818234
1.409795699
1.410795981
1.41170505
1.412229041
1.412386059
1.411923251
1.410746201
1.408671941
1.40558186
1.401360577
1.395941187
1.389295398
1.381443874
1.372451475
1.362424026
1.351500304
1.339843709
1.327633362
1.315056163
1.302299602
1.289546091
1.276968742
1.264728015
1.252969084
1.241819676
1.231388092
1.221761313
1.213003222
1.20515318
1.198225266
1.192208548
1.187068651
1.182750717
1.179183636
1.176285164
1.173967378
1.172141883
1.170724241
1.1696373
1.16881327
1.168194576
1.16773375
1.167392668
1.167141417
1.166956939
1.166821746
1.166722736
1.166650202
1.166597011
1.166557935
1.16652912
1.166507785
1.166492094
1.166480602
1.166471081
1.166462115
1.166458932
1.166462051
1.420685732
1.422685313
1.42338315
1.423897528
1.424305787
1.424238193
1.423736616
1.422549203
1.420589181
1.417689311
1.413745748
1.408662971
1.402392651
1.394924807
1.386295392
1.376581265
1.365896288
1.354383558
1.342207484
1.3295456
1.316581334
1.303497448
1.290470961
1.277669363
1.26524753
1.253345246
1.24208513
1.231570668
1.221884297
1.213085617
1.205209964
1.198267689
1.192244494
1.187103087
1.182786227
1.179221001
1.176323958
1.174006511
1.172180041
1.170760212
1.169670157
1.168842445
1.16821985
1.167755182
1.167410524
1.167156082
1.166968853
1.166831351
1.166730447
1.166656387
1.166601988
1.166561964
1.166532406
1.166510522
1.166494468
1.166482668
1.166472795
1.166463935
1.166461246
1.166463585
1.433709792
1.435046361
1.435477109
1.435551678
1.435493301
1.434886382
1.433784677
1.431943213
1.429279907
1.425642922
1.420940998
1.415095907
1.408075001
1.399883575
1.390570172
1.380221457
1.368957831
1.3569259
1.344290897
1.331229087
1.317921082
1.304545773
1.291275736
1.278273792
1.265690126
1.253659935
1.242301428
1.231713866
1.221975637
1.21314246
1.205245979
1.198293087
1.192266344
1.187125727
1.182811763
1.179249863
1.176355467
1.174039395
1.172212857
1.170791645
1.169699193
1.168868439
1.168242503