/*--------------------------------*- C++ -*----------------------------------*\
  =========                 |
  \\      /  F ield         | OpenFOAM: The Open Source CFD Toolbox
   \\    /   O peration     | Website:  https://openfoam.org
    \\  /    A nd           | Version:  12
     \\/     M anipulation  |
\*---------------------------------------------------------------------------*/
FoamFile
{
    format      ascii;
    class       volScalarField;
    location    "0.094";
    object      alphat;
}
// * * * * * * * * * * * * * * * * * * * * * * * * * * * * * * * * * * * * * //

dimensions      [1 -1 -1 0 0 0 0];

internalField   nonuniform List<scalar> 
16000
(
4.9430629e-07
1.0786601e-05
1.9857006e-05
2.5894882e-05
1.9768088e-05
2.7223281e-05
1.919614e-05
2.6354649e-05
2.0518344e-05
2.8346195e-05
2.3825591e-05
2.8059053e-05
2.5575102e-05
2.6294547e-05
2.5419918e-05
2.5300668e-05
2.5057989e-05
2.5010465e-05
2.5048085e-05
2.5193802e-05
2.5439449e-05
2.5784807e-05
2.6227488e-05
2.676787e-05
2.7408681e-05
2.8156796e-05
2.9021383e-05
3.0016923e-05
3.1161065e-05
3.247288e-05
3.3973321e-05
3.5690127e-05
3.7659061e-05
3.9924212e-05
4.2539863e-05
4.5570861e-05
4.9094571e-05
5.3203359e-05
5.8011612e-05
6.366122e-05
7.0319085e-05
7.8182125e-05
8.749884e-05
9.8574292e-05
0.00011177248
0.00012753076
0.00014639206
0.00016901916
0.00019622078
0.00022898489
0.00026852438
0.00031633216
0.00037423993
0.00044450002
0.00052988318
0.00063381378
0.0007605423
0.00091537729
0.0011049996
0.0011808159
0.0011816184
0.001182345
0.0011829713
0.0011834701
0.0011838417
0.0011840771
0.0011841667
0.0011840988
0.0011838541
0.0011833962
0.001182642
0.0011813993
0.0011795218
0.0011779055
0.001176328
0.0011747744
0.0011732583
0.0011717453
0.0011714303
0.0011727948
4.4313748e-07
1.0218766e-05
2.1284379e-05
2.3136551e-05
1.7799207e-05
2.4382974e-05
1.7022855e-05
2.3058784e-05
1.8120073e-05
2.5013866e-05
2.1557777e-05
2.5273402e-05
2.3371309e-05
2.380712e-05
2.3131306e-05
2.2956042e-05
2.2758514e-05
2.2705916e-05
2.2744619e-05
2.2879346e-05
2.3107445e-05
2.3428316e-05
2.384027e-05
2.4343768e-05
2.4941026e-05
2.5638491e-05
2.6444163e-05
2.7371124e-05
2.8436073e-05
2.9657603e-05
3.1055241e-05
3.2654363e-05
3.4488087e-05
3.659725e-05
3.9032645e-05
4.1855251e-05
4.5138294e-05
4.8968589e-05
5.3452727e-05
5.8725028e-05
6.4945858e-05
7.2300689e-05
8.1023578e-05
9.1405317e-05
0.00010379541
0.00011860952
0.00013636539
0.00015769728
0.00018338085
0.0002143644
0.00025181239
0.00029716179
0.00035217776
0.00041903437
0.00050040808
0.00059960919
0.00072074901
0.00086895063
0.0010506387
0.0011802617
0.0011810629
0.0011817512
0.0011823496
0.0011828239
0.0011831745
0.0011833922
0.0011834665
0.0011833836
0.0011831232
0.0011826499
0.0011818951
0.0011806984
0.0011788703
0.0011772773
0.0011757412
0.0011742587
0.0011728075
0.0011714002
0.0011710576
0.0011719363
3.9053749e-07
9.7742919e-06
2.0097451e-05
2.1174098e-05
1.592691e-05
2.144608e-05
1.5146124e-05
2.002325e-05
1.6282077e-05
2.1931482e-05
1.9645678e-05
2.2492016e-05
2.1161916e-05
2.1310866e-05
2.0796237e-05
2.0596526e-05
2.0433464e-05
2.0385784e-05
2.042692e-05
2.0554817e-05
2.0768263e-05
2.1067021e-05
2.1449737e-05
2.1917125e-05
2.2470994e-05
2.3117542e-05
2.3863942e-05
2.472206e-05
2.5707456e-05
2.683822e-05
2.8132884e-05
2.9614932e-05
3.1315265e-05
3.3271893e-05
3.5532492e-05
3.815445e-05
4.1207283e-05
4.4773391e-05
4.8952749e-05
5.3872062e-05
5.9686198e-05
6.6571635e-05
7.4749844e-05
8.4498026e-05
9.6153697e-05
0.00011011444
0.00012687628
0.00014704876
0.00017137903
0.00020078175
0.00023637944
0.00027956022
0.00033203055
0.00039589546
0.00047374764
0.00056879436
0.00068502012
0.00082738852
0.0010021034
0.0011798955
0.0011806855
0.0011813177
0.0011818684
0.0011822992
0.0011826103
0.0011827928
0.001182835
0.0011827215
0.0011824306
0.0011819254
0.001181143
0.001179954
0.0011781889
0.0011766361
0.0011751529
0.0011737426
0.0011723704
0.001171072
0.0011706806
0.0011712369
3.5338439e-07
9.4396524e-06
1.9055029e-05
1.9646766e-05
1.4304357e-05
1.8921929e-05
1.3488073e-05
1.7488003e-05
1.4647167e-05
1.9321342e-05
1.7926183e-05
2.0033935e-05
1.9126705e-05
1.9066489e-05
1.8671693e-05
1.8469942e-05
1.8337008e-05
1.8299755e-05
1.8346325e-05
1.8471327e-05
1.8674154e-05
1.8954996e-05
1.9312865e-05
1.9748858e-05
2.0264512e-05
2.0865937e-05
2.1559754e-05
2.2356867e-05
2.3271763e-05
2.4322121e-05
2.5525817e-05
2.6904733e-05
2.8487981e-05
3.0311154e-05
3.2419303e-05
3.4866738e-05
3.771979e-05
4.105741e-05
4.4974326e-05
4.9590197e-05
5.5055666e-05
6.1540375e-05
6.9255688e-05
7.8466774e-05
8.9502413e-05
0.00010274624
0.00011867704
0.00013788513
0.0001610955
0.00018919784
0.00022328234
0.00026470063
0.00031511516
0.00037658035
0.00045162802
0.00054339036
0.00065575864
0.00079358209
0.00096291588
0.0011713285
0.0011805153
0.0011810748
0.00118156
0.0011819306
0.0011821861
0.0011823177
0.0011823129
0.001182155
0.001181821
0.0011812722
0.0011804483
0.0011792498
0.0011775366
0.0011760324
0.0011746082
0.0011732697
0.0011719806
0.0011707886
0.0011703405
0.0011706342
3.2040389e-07
9.1902032e-06
1.8145903e-05
1.9626702e-05
1.4239522e-05
1.6724224e-05
1.2033584e-05
1.5315112e-05
1.3242851e-05
1.7071123e-05
1.6398811e-05
1.7822298e-05
1.7230777e-05
1.7029141e-05
1.6722911e-05
1.6534683e-05
1.6426678e-05
1.6400718e-05
1.6451604e-05
1.6573238e-05
1.6765213e-05
1.7028338e-05
1.7362038e-05
1.7767913e-05
1.8247383e-05
1.8806564e-05
1.945168e-05
2.0192877e-05
2.1043588e-05
2.2021046e-05
2.3142691e-05
2.4429076e-05
2.5907837e-05
2.7612486e-05
2.9585824e-05
3.1879493e-05
3.4556992e-05
3.7694475e-05
4.1382739e-05
4.5734764e-05
5.0897634e-05
5.7035844e-05
6.4352849e-05
7.3102584e-05
8.3607147e-05
9.6239243e-05
0.00011146342
0.0001298541
0.0001521178
0.00017912441
0.00021193721
0.00025187804
0.00030057278
0.00036003397
0.00043274311
0.00052176941
0.00063092521
0.00076496184
0.00092980946
0.0011328638
0.0011805332
0.0011810052
0.0011814081
0.0011817025
0.0011818871
0.0011819529
0.0011818871
0.0011816717
0.0011812824
0.001180679
0.0011797993
0.0011785733
0.0011769191
0.0011754718
0.0011741117
0.001172845
0.0011716434
0.001170535
0.0011700162
0.0011700554
2.9327775e-07
9.0368719e-06
1.7420334e-05
1.9369969e-05
1.3998804e-05
1.4805222e-05
1.136031e-05
1.3522727e-05
1.225913e-05
1.5178065e-05
1.5065456e-05
1.5885482e-05
1.5504296e-05
1.5219063e-05
1.4968639e-05
1.4796393e-05
1.4704353e-05
1.4685263e-05
1.4736596e-05
1.485254e-05
1.5032639e-05
1.5278224e-05
1.5588963e-05
1.5966874e-05
1.641335e-05
1.693449e-05
1.7536195e-05
1.8228018e-05
1.902238e-05
1.9936036e-05
2.0986193e-05
2.2192331e-05
2.3580925e-05
2.5183767e-05
2.7041824e-05
2.920454e-05
3.1733035e-05
3.4701258e-05
3.8197482e-05
4.2328958e-05
4.7239564e-05
5.3090419e-05
6.0079872e-05
6.8451752e-05
7.8523739e-05
9.0661164e-05
0.00010531787
0.00012305673
0.00014457015
0.00017071489
0.00020253431
0.00024132923
0.00028869914
0.00034662655
0.0004175576
0.00050451622
0.00061125684
0.00074245761
0.00090395539
0.0011030173
0.0011807266
0.0011810977
0.0011814032
0.0011816073
0.0011817073
0.0011816941
0.0011815546
0.0011812697
0.0011808143
0.0011801475
0.0011792022
0.0011779279
0.001176344
0.0011749619
0.0011736719
0.0011724778
0.001171364
0.0011703349
0.0011697309
0.0011695539
2.6195391e-07
8.9509447e-06
1.6854644e-05
1.8318123e-05
1.3875689e-05
1.3075122e-05
1.1410742e-05
1.2453544e-05
1.1823536e-05
1.3547478e-05
1.3872386e-05
1.4179478e-05
1.3908223e-05
1.3585731e-05
1.3366617e-05
1.321041e-05
1.3129875e-05
1.3116277e-05
1.3167628e-05
1.3278744e-05
1.3448814e-05
1.3679607e-05
1.3970759e-05
1.4240359e-05
1.464819e-05
1.5127667e-05
1.5683856e-05
1.6325511e-05
1.7063838e-05
1.7914756e-05
1.88952e-05
2.0023617e-05
2.1325412e-05
2.2830743e-05
2.4578877e-05
2.6617258e-05
2.9004778e-05
3.1813233e-05
3.5129249e-05
3.9350251e-05
4.4056909e-05
4.9676871e-05
5.6406218e-05
6.4480153e-05
7.421326e-05
8.5966952e-05
0.00010018779
0.00011743105
0.0001383788
0.00016388085
0.00019496682
0.00023292449
0.00027933593
0.00033616408
0.00040583262
0.00049133583
0.00059638839
0.00072561639
0.00088479006
0.0010810842
0.0011810775
0.0011813357
0.0011815307
0.001181632
0.0011816354
0.0011815319
0.0011813078
0.0011809433
0.0011804122
0.0011796747
0.0011786598
0.0011773206
0.0011758222
0.001174512
0.0011732979
0.0011721779
0.0011711461
0.0011701771
0.0011694939
0.0011692304
2.3837476e-07
8.901984e-06
1.6374752e-05
1.6652676e-05
1.2702565e-05
1.1395182e-05
9.8576396e-06
1.1113597e-05
1.0379431e-05
1.2178418e-05
1.2675262e-05
1.2616529e-05
1.2388778e-05
1.2073301e-05
1.1879427e-05
1.1743984e-05
1.1677458e-05
1.1672449e-05
1.1655789e-05
1.1747953e-05
1.1899113e-05
1.2109964e-05
1.2378364e-05
1.2704888e-05
1.3094425e-05
1.3550665e-05
1.4078984e-05
1.4688051e-05
1.5388457e-05
1.6195636e-05
1.7126732e-05
1.8199637e-05
1.9439251e-05
2.0874698e-05
2.2544259e-05
2.4494114e-05
2.6781826e-05
2.9477866e-05
3.2668268e-05
3.6457846e-05
4.0974448e-05
4.6379987e-05
5.2870418e-05
6.118576e-05
7.0674819e-05
8.2157076e-05
9.607563e-05
0.00011298199
0.00013355179
0.00015863444
0.00018925237
0.00022668857
0.00027251746
0.00032869345
0.00039763155
0.00048231331
0.00058643343
0.00071458896
0.00087251108
0.0010673207
0.0011815645
0.0011816996
0.0011817731
0.0011817612
0.0011816585
0.0011814553
0.0011811378
0.0011806855
0.0011800709
0.0011792566
0.0011781745
0.0011767754
0.0011753614
0.0011741284
0.001172996
0.0011719533
0.0011709978
0.001170073
0.0011693361
0.0011690033
2.2017754e-07
8.8535796e-06
1.5881401e-05
1.4569107e-05
1.0441325e-05
1.013272e-05
8.1298301e-06
9.4761123e-06
9.668567e-06
1.0957926e-05
1.1462294e-05
1.1165619e-05
1.0957932e-05
1.0675341e-05
1.050704e-05
1.0322157e-05
1.0244493e-05
1.0233599e-05
1.0281702e-05
1.0385938e-05
1.0542104e-05
1.0752223e-05
1.1015441e-05
1.1332019e-05
1.1706862e-05
1.2144643e-05
1.2650776e-05
1.3233965e-05
1.3904387e-05
1.4676978e-05
1.5569206e-05
1.6598677e-05
1.7790114e-05
1.9171933e-05
2.078182e-05
2.266521e-05
2.4878879e-05
2.7492593e-05
3.0591672e-05
3.4279984e-05
3.8685707e-05
4.3968352e-05
5.0326876e-05
5.799223e-05
6.7260589e-05
7.8500684e-05
9.2970017e-05
0.00010969717
0.00013007579
0.00015496112
0.00018537529
0.00022260485
0.00026822639
0.0003241971
0.0003929373
0.00047743316
0.00058137991
0.00070936915
0.00086712049
0.0010617376
0.0011821631
0.0011821669
0.0011821107
0.0011819775
0.0011817611
0.0011814513
0.0011810339
0.0011804882
0.0011797847
0.0011788884
0.0011777435
0.0011763004
0.0011749701
0.001173817
0.0011727712
0.0011718101
0.0011709273
0.0011700435
0.0011692772
0.0011688921
2.015602e-07
8.8086502e-06
1.4274577e-05
1.2691708e-05
8.4495362e-06
8.9982209e-06
7.232822e-06
8.5568455e-06
8.9556103e-06
9.8066577e-06
1.0260768e-05
9.8440105e-06
9.6430725e-06
9.3085492e-06
9.1294731e-06
9.019874e-06
8.9768563e-06
8.9914377e-06
9.0574561e-06
9.1715861e-06
9.335016e-06
9.5450357e-06
9.8045279e-06
1.0113758e-05
1.0477853e-05
1.0901913e-05
1.1391517e-05
1.1955548e-05
1.2603928e-05
1.3351136e-05
1.4215038e-05
1.5213297e-05
1.6370726e-05
1.7715348e-05
1.9284627e-05
2.1123714e-05
2.328911e-05
2.5850488e-05
2.8893518e-05
3.2522523e-05
3.6865752e-05
4.2082205e-05
4.8374352e-05
5.5973081e-05
6.5176941e-05
7.6356617e-05
8.9969433e-05
0.0001065526
0.000127947
0.00015285887
0.00018333662
0.0002206785
0.00026647388
0.00032269461
0.00039178098
0.00047674221
0.00058129599
0.00071005433
0.0008687543
0.0010645189
0.0011828466
0.0011827132
0.0011825217
0.0011822618
0.0011819267
0.0011815055
0.0011809839
0.0011803414
0.001179547
0.0011785652
0.0011773612
0.0011759051
0.0011746551
0.0011735819
0.0011726261
0.0011717515
0.0011709319
0.0011700788
0.0011693418
0.001168938
1.8612837e-07
8.761897e-06
1.1337514e-05
1.053477e-05
6.9411265e-06
8.0119305e-06
6.5958039e-06
7.6927265e-06
8.3831091e-06
8.7627561e-06
9.0833025e-06
8.5509826e-06
8.2991328e-06
8.0689767e-06
7.9387902e-06
7.8693681e-06
7.8559107e-06
7.8924318e-06
7.9740532e-06
8.0999514e-06
8.2674229e-06
8.4793348e-06
8.7374902e-06
9.0426725e-06
9.4001118e-06
9.8153885e-06
1.0294379e-05
1.084621e-05
1.1480771e-05
1.2212174e-05
1.2991652e-05
1.3959891e-05
1.5085278e-05
1.6395422e-05
1.7927563e-05
1.9726611e-05
2.1848877e-05
2.4364013e-05
2.7358185e-05
3.0936504e-05
3.5228464e-05
4.0711512e-05
4.7003495e-05
5.4615352e-05
6.3848211e-05
7.5076168e-05
8.8768768e-05
0.00010547485
0.00012588656
0.00015086671
0.00018313305
0.00022091085
0.00026726782
0.00032420295
0.00039419202
0.00048028703
0.00058625181
0.00071674711
0.00087755934
0.0010758677
0.001183587
0.0011833129
0.0011829835
0.001182594
0.0011821373
0.0011816025
0.0011809748
0.0011802343
0.0011793503
0.001178283
0.0011770177
0.0011755957
0.0011744219
0.0011734259
0.0011725615
0.001171777
0.0011710115
0.0011701832
0.0011695462
0.0011691491
1.724263e-07
8.7181807e-06
8.9484922e-06
8.9628181e-06
6.1083452e-06
7.1064839e-06
6.0612801e-06
6.9385873e-06
7.804463e-06
7.7913179e-06
7.8069402e-06
7.3539562e-06
7.1494296e-06
6.9821801e-06
6.8934639e-06
6.8574726e-06
6.8693676e-06
6.9251093e-06
7.0209008e-06
7.1567208e-06
7.3314019e-06
7.5469845e-06
7.8065236e-06
8.1113027e-06
8.4666488e-06
8.8402642e-06
9.3069145e-06
9.8457784e-06
1.0466609e-05
1.1183052e-05
1.2011545e-05
1.2973472e-05
1.4092973e-05
1.5397784e-05
1.6925554e-05
1.8721729e-05
2.0843384e-05
2.3361172e-05
2.6363068e-05
2.995649e-05
3.4274063e-05
3.9481539e-05
4.5782036e-05
5.3419119e-05
6.2698789e-05
7.464492e-05
8.8549805e-05
0.00010553491
0.00012630338
0.00015174272
0.00018293646
0.00022330285
0.00027061779
0.0003287435
0.00040020762
0.00048812641
0.00059633573
0.00072957683
0.00089372211
0.0010960441
0.0011843562
0.0011839402
0.001183473
0.0011829536
0.0011823752
0.0011817268
0.0011809933
0.0011801553
0.0011791853
0.0011780404
0.0011767066
0.0011753748
0.0011742741
0.001173351
0.0011725768
0.0011718842
0.0011711606
0.0011703587
0.0011698245
0.0011695177
1.6024761e-07
8.6670596e-06
7.1230275e-06
7.8743695e-06
5.448392e-06
6.2937895e-06
5.6052621e-06
6.2747836e-06
7.114508e-06
6.6878148e-06
6.6559388e-06
6.3082655e-06
6.1472381e-06
6.0308456e-06
5.9776804e-06
5.9705962e-06
6.0051406e-06
6.0788178e-06
6.1887003e-06
6.3355038e-06
6.5186609e-06
6.7405481e-06
6.9749114e-06
7.2766113e-06
7.6285872e-06
8.0357531e-06
8.5063115e-06
9.0490579e-06
9.6740071e-06
1.0395062e-05
1.1228866e-05
1.2196589e-05
1.3323839e-05
1.4638813e-05
1.6179865e-05
1.7993396e-05
2.0137866e-05
2.2685514e-05
2.5726943e-05
2.9373058e-05
3.3759867e-05
3.9056874e-05
4.5477599e-05
5.3271672e-05
6.2754496e-05
7.4318391e-05
8.8450773e-05
0.00010574072
0.00012803123
0.00015415619
0.00018620644
0.00022555989
0.00027652626
0.00033633152
0.00040985981
0.00050031535
0.00061163478
0.00074867474
0.00091743779
0.0011253308
0.0011851268
0.00118457
0.001183968
0.0011833209
0.0011826225
0.0011818628
0.0011810262
0.0011800931
0.0011790404
0.0011778357
0.0011764623
0.0011752409
0.001174213
0.0011733583
0.0011726693
0.001172069
0.0011713806
0.0011706005
0.0011702518
0.0011699598
1.4945612e-07
8.6057558e-06
5.719152e-06
6.8877382e-06
4.8628544e-06
5.5735781e-06
5.218818e-06
5.5982548e-06
6.2432454e-06
5.7303415e-06
5.6464264e-06
5.3940861e-06
5.274101e-06
5.200279e-06
5.1787838e-06
5.1978953e-06
5.2537656e-06
5.3450341e-06
5.4696042e-06
5.6075021e-06
5.7946331e-06
6.0204771e-06
6.2877763e-06
6.6000599e-06
6.9623522e-06
7.3800043e-06
7.8611478e-06
8.4153112e-06
9.0527833e-06
9.787684e-06
1.0636831e-05
1.1621703e-05
1.2710626e-05
1.403695e-05
1.5592381e-05
1.7424247e-05
1.9592633e-05
2.2171439e-05
2.5253957e-05
2.8955184e-05
3.3415694e-05
3.9104884e-05
4.5707058e-05
5.373231e-05
6.3506773e-05
7.5433753e-05
9.0023561e-05
0.00010789061
0.00012978683
0.00015808252
0.00019126565
0.00023202318
0.00028210465
0.00034696655
0.00042316464
0.00051689184
0.00063221878
0.00077415484
0.00094888543
0.0011640041
0.0011858736
0.0011851794
0.0011844477
0.0011836775
0.0011828631
0.0011819958
0.0011810609
0.0011800379
0.0011789051
0.001177653
0.0011763135
0.0011751908
0.0011742374
0.001173448
0.0011728344
0.0011723149
0.001171669
0.0011709291
0.0011707432
0.0011705979
1.3990467e-07
8.483953e-06
4.6494098e-06
6.0114489e-06
4.3410374e-06
4.9337106e-06
4.8832734e-06
4.8613763e-06
5.3631207e-06
4.8766882e-06
4.7717295e-06
4.598124e-06
4.5173523e-06
4.480501e-06
4.4879971e-06
4.5315722e-06
4.6081233e-06
4.698297e-06
4.8321884e-06
5.0005568e-06
5.2045546e-06
5.4460751e-06
5.7286308e-06
6.0559774e-06
6.433789e-06
6.8677216e-06
7.3659979e-06
7.9146904e-06
8.5657096e-06
9.3152511e-06
1.0180216e-05
1.1182147e-05
1.2347386e-05
1.370904e-05
1.5306611e-05
1.7189035e-05
1.9419184e-05
2.207381e-05
2.5249988e-05
2.9068623e-05
3.3676819e-05
3.9259942e-05
4.6042127e-05
5.4299414e-05
6.437184e-05
7.7321528e-05
9.2495812e-05
0.00011109054
0.00013389369
0.00016187606
0.00019807535
0.00024057078
0.00029279983
0.00035699997
0.00044010422
0.00053785572
0.00065811401
0.00080608157
0.00098818476
0.0011873927
0.0011865738
0.0011857482
0.0011848938
0.0011840071
0.0011830825
0.0011821127
0.0011810851
0.0011799803
0.0011787761
0.0011774734
0.0011762468
0.0011752192
0.0011743419
0.0011736177
0.0011730692
0.0011726131
0.0011720178
0.0011713455
0.0011712753
0.0011712376
1.3151003e-07
8.1557027e-06
3.9131473e-06
5.2348444e-06
3.8777806e-06
4.3681438e-06
4.3486008e-06
4.1949895e-06
4.5138769e-06
4.1221187e-06
4.0224469e-06
3.9118147e-06
3.8680368e-06
3.8640487e-06
3.8983358e-06
3.9504234e-06
4.0401812e-06
4.1631235e-06
4.3185586e-06
4.5069392e-06
4.7301068e-06
4.9905276e-06
5.2921881e-06
5.6391658e-06
6.023791e-06
6.4750568e-06
6.9913892e-06
7.582313e-06
8.2598009e-06
9.0381146e-06
9.9346239e-06
1.0971785e-05
1.2177067e-05
1.3584897e-05
1.5237567e-05
1.7185887e-05
1.9496187e-05
2.2248941e-05
2.5545335e-05
2.9513613e-05
3.4306904e-05
4.0120074e-05
4.7192034e-05
5.5811334e-05
6.6337339e-05
7.9210743e-05
9.5817049e-05
0.00011529015
0.00013917831
0.00016851086
0.00020452501
0.00025113399
0.00030591216
0.00037325852
0.00045605316
0.00056313876
0.00068926725
0.00084442689
0.0010353397
0.0011881423
0.0011872083
0.0011862603
0.0011852913
0.0011842962
0.0011832689
0.0011822029
0.0011810882
0.001179909
0.0011786544
0.0011773526
0.0011762528
0.0011753171
0.0011745166
0.0011738593
0.0011733687
0.0011729544
0.0011723949
0.0011717976
0.0011718693
0.0011718967
1.2435596e-07
7.7408228e-06
3.4504726e-06
4.5468293e-06
3.4670525e-06
3.7051939e-06
3.8774027e-06
3.5844794e-06
3.745102e-06
3.4668364e-06
3.3887739e-06
3.3281039e-06
3.3182117e-06
3.3438945e-06
3.3860218e-06
3.4700656e-06
3.5860624e-06
3.7328629e-06
3.9107567e-06
4.120992e-06
4.3660097e-06
4.6485794e-06
4.9634774e-06
5.330966e-06
5.7501512e-06
6.2277276e-06
6.7717395e-06
7.3920603e-06
8.1009209e-06
8.9135096e-06
9.8477755e-06
1.092717e-05
1.2180459e-05
1.3643852e-05
1.5296309e-05
1.7307009e-05
1.9693355e-05
2.2540156e-05
2.6109505e-05
3.0257207e-05
3.5272506e-05
4.135976e-05
4.8774052e-05
5.7819682e-05
6.8874602e-05
8.2406421e-05
9.898833e-05
0.00011932301
0.00014556164
0.00017645242
0.0002143932
0.00026100922
0.00032131341
0.00039228766
0.00047954878
0.00059256881
0.00072550037
0.00088901682
0.0010901832
0.0011888062
0.0011877633
0.0011867039
0.0011856292
0.0011845345
0.0011834134
0.0011822587
0.0011810637
0.0011798177
0.0011785218
0.001177319
0.0011763224
0.0011754738
0.0011747486
0.00117416
0.0011737215
0.0011733288
0.0011727853
0.0011722732
0.0011724721
0.0011726378
1.1873385e-07
6.707342e-06
3.0569262e-06
3.9227767e-06
3.1134583e-06
3.0929009e-06
3.4080376e-06
3.0316171e-06
3.0846102e-06
2.9072188e-06
2.8584977e-06
2.8386496e-06
2.851148e-06
2.8959804e-06
2.9766412e-06
3.088774e-06
3.2304197e-06
3.4015294e-06
3.6032093e-06
3.837181e-06
4.1002676e-06
4.4054219e-06
4.7527999e-06
5.1471815e-06
5.5942727e-06
6.1009933e-06
6.6757601e-06
7.3288398e-06
8.0728624e-06
8.9039736e-06
9.8742001e-06
1.0993269e-05
1.2291175e-05
1.3805494e-05
1.5583212e-05
1.7683061e-05
2.017763e-05
2.3157761e-05
2.6736133e-05
3.1051908e-05
3.6277813e-05
4.2933618e-05
5.0737207e-05
6.0267712e-05
7.1923091e-05
8.6197724e-05
0.00010369911
0.00012517424
0.00015293124
0.00018557242
0.00022567723
0.00027496108
0.00033879829
0.00041385175
0.00050614823
0.00061965966
0.00076646087
0.00093946818
0.0011523055
0.0011893739
0.001188231
0.0011870719
0.0011859008
0.0011847152
0.0011835096
0.0011822753
0.0011810068
0.0011797109
0.0011784223
0.0011773521
0.0011764488
0.001175679
0.0011750256
0.0011745058
0.0011741159
0.0011737318
0.0011731991
0.0011727974
0.0011730942
0.0011733549
1.1421657e-07
4.7109526e-06
2.7013325e-06
3.3443851e-06
2.6632953e-06
2.5800938e-06
2.9131181e-06
2.5392399e-06
2.5346794e-06
2.4361215e-06
2.420443e-06
2.428136e-06
2.4716515e-06
2.5507363e-06
2.6610251e-06
2.8000207e-06
2.9670781e-06
3.1628779e-06
3.3858533e-06
3.643167e-06
3.9360283e-06
4.267797e-06
4.6425554e-06
5.0652664e-06
5.5419151e-06
6.0797166e-06
6.6874315e-06
7.3645782e-06
8.1423193e-06
9.029232e-06
1.0045621e-05
1.1216704e-05
1.2574262e-05
1.4158203e-05
1.6018545e-05
1.8217604e-05
2.083281e-05
2.3960468e-05
2.772035e-05
3.2261016e-05
3.7766475e-05
4.4463498e-05
5.3024051e-05
6.3088652e-05
7.5405453e-05
9.049792e-05
0.00010900989
0.00013173454
0.00015964851
0.00019569346
0.00023816881
0.00029038036
0.00035457841
0.00043759875
0.0005354336
0.00065578307
0.00081157189
0.00099512028
0.0011910869
0.0011898409
0.0011886077
0.0011873617
0.0011861047
0.0011848362
0.001183554
0.0011822512
0.0011809193
0.0011795787
0.0011784109
0.00117744
0.001176622
0.0011759231
0.0011753364
0.0011748812
0.0011745372
0.0011741619
0.0011736359
0.0011733301
0.0011737352
0.0011740261
1.0945577e-07
3.9145529e-06
2.3294906e-06
2.8114605e-06
2.2966563e-06
2.1519364e-06
2.4003965e-06
2.1069421e-06
2.0876303e-06
2.0495416e-06
2.0627404e-06
2.104979e-06
2.184525e-06
2.2944071e-06
2.4320334e-06
2.5964798e-06
2.7880842e-06
3.0058464e-06
3.2554528e-06
3.5382073e-06
3.8570852e-06
4.2156921e-06
4.6183418e-06
5.0701894e-06
5.5774304e-06
6.147549e-06
6.7820408e-06
7.5039587e-06
8.3219017e-06
9.2529045e-06
1.0318398e-05
1.1545136e-05
1.2966761e-05
1.4625561e-05
1.6574748e-05
1.8880922e-05
2.1626734e-05
2.4914577e-05
2.8871745e-05
3.3655509e-05
3.9461009e-05
4.6866266e-05
5.5566522e-05
6.6202898e-05
7.9227737e-05
9.5195334e-05
0.00011478798
0.00013884615
0.00016996534
0.00020658213
0.00025158692
0.00030692578
0.00037499002
0.00046303716
0.0005668242
0.00069454341
0.00085997992
0.0010549622
0.0011915187
0.0011902057
0.001188894
0.0011875743
0.0011862433
0.0011849006
0.0011835469
0.0011821834
0.0011808186
0.0011795083
0.0011784553
0.0011775737
0.0011768304
0.0011761962
0.0011756699
0.0011752686
0.0011749591
0.0011746022
0.001174111
0.0011738932
0.0011743392
0.0011745994
1.0625781e-07
3.1537309e-06
2.0088457e-06
2.2721528e-06
1.9961204e-06
1.7856283e-06
1.9235354e-06
1.7402925e-06
1.736665e-06
1.7472137e-06
1.7904446e-06
1.8706241e-06
1.9811092e-06
2.1179476e-06
2.280122e-06
2.4679069e-06
2.6812032e-06
2.9237338e-06
3.19733e-06
3.5047156e-06
3.8491506e-06
4.2344511e-06
4.6650923e-06
5.1463758e-06
5.684665e-06
6.2833471e-06
6.9583195e-06
7.7183488e-06
8.5776853e-06
9.5542159e-06
1.067065e-05
1.1955357e-05
1.3444046e-05
1.5181535e-05
1.7224174e-05
1.9642801e-05
2.2525933e-05
2.5982177e-05
3.0147111e-05
3.5187563e-05
4.1582103e-05
4.9102197e-05
5.82835e-05
6.9515852e-05
8.3276943e-05
0.00010015482
0.00012087224
0.0001463202
0.00017919635
0.00021793685
0.00026557089
0.00032416318
0.00039625923
0.0004895002
0.00059952048
0.00073498336
0.00091051085
0.0011175789
0.0011918481
0.0011904728
0.0011890946
0.0011877126
0.0011863208
0.0011849161
0.0011834989
0.0011820766
0.0011806843
0.0011795167
0.0011785462
0.0011777407
0.001177062
0.0011764868
0.0011760158
0.0011756572
0.0011753637
0.001175013
0.0011745832
0.0011744412
0.0011749056
0.0011751314
1.0493456e-07
2.4874903e-06
1.7317086e-06
1.7542902e-06
1.7191581e-06
1.4722138e-06
1.5341143e-06
1.4482012e-06
1.4754222e-06
1.5209479e-06
1.6028632e-06
1.7135582e-06
1.8495323e-06
2.0092164e-06
2.1928954e-06
2.4017396e-06
2.6367011e-06
2.9013323e-06
3.1977515e-06
3.5289452e-06
3.898345e-06
4.3099085e-06
4.7682351e-06
5.2787468e-06
5.847938e-06
6.4837151e-06
7.1958369e-06
7.9964437e-06
8.8904421e-06
9.913003e-06
1.1081064e-05
1.2424717e-05
1.398188e-05
1.5800138e-05
1.7939036e-05
2.0556505e-05
2.360284e-05
2.7258356e-05
3.1667657e-05
3.7009052e-05
4.3502063e-05
5.1416542e-05
6.1085755e-05
7.2919788e-05
8.7423532e-05
0.00010521901
0.00012707118
0.00015526671
0.00018851699
0.00022939549
0.00027967705
0.00034155062
0.00042167194
0.00051615072
0.00063250527
0.00077587322
0.00096164536
0.0011811411
0.0011920874
0.0011906549
0.0011892192
0.0011877832
0.0011863408
0.0011848875
0.0011834228
0.0011819699
0.0011806513
0.0011795727
0.0011786766
0.0011779318
0.0011773065
0.0011767837
0.0011763627
0.0011760408
0.0011757601
0.0011754166
0.0011750348
0.0011749645
0.0011754279
0.0011756191
1.0654276e-07
1.9166701e-06
1.5007104e-06
1.3573884e-06
1.4369837e-06
1.2093962e-06
1.249101e-06
1.2343135e-06
1.2942768e-06
1.3742023e-06
1.4847099e-06
1.6189003e-06
1.7754442e-06
1.9544561e-06
2.1571475e-06
2.3852603e-06
2.6405533e-06
2.926076e-06
3.2443632e-06
3.5985352e-06
3.9921263e-06
4.4291882e-06
4.9144239e-06
5.4533779e-06
6.0527001e-06
6.7205016e-06
7.4668303e-06
8.3042638e-06
9.248647e-06
1.0320025e-05
1.1543739e-05
1.2951881e-05
1.4584886e-05
1.6493579e-05
1.8741563e-05
2.140815e-05
2.4591984e-05
2.8415745e-05
3.3031174e-05
3.862603e-05
4.5432128e-05
5.3734519e-05
6.3881688e-05
7.630524e-05
9.1535192e-05
0.00011113726
0.00013426393
0.00016267442
0.00019759842
0.00024055378
0.00029341188
0.00036184837
0.00044257598
0.00054201749
0.00066458346
0.00082366361
0.0010115351
0.0011937632
0.0011922539
0.0011907695
0.0011892842
0.0011877995
0.0011863119
0.0011848203
0.0011833294
0.0011818772
0.0011806782
0.0011796723
0.0011788373
0.0011781416
0.0011775598
0.0011770798
0.0011767008
0.0011764065
0.0011761342
0.0011758027
0.001175473
0.0011754575
0.0011758941
0.0011760401
1.1224091e-07
1.4480726e-06
1.3132721e-06
1.067631e-06
1.2824979e-06
9.9108954e-07
1.055684e-06
1.0928821e-06
1.1797658e-06
1.2873504e-06
1.4188893e-06
1.5712954e-06
1.7449391e-06
1.9409457e-06
2.1610226e-06
2.4071767e-06
2.6816933e-06
2.9869396e-06
3.326025e-06
3.7020386e-06
4.1185909e-06
4.5798205e-06
5.0905362e-06
5.6564162e-06
6.2842827e-06
6.9824721e-06
7.7613345e-06
8.6339125e-06
9.6166892e-06
1.0730609e-05
1.2002178e-05
1.3465048e-05
1.5161657e-05
1.7145379e-05
1.9483021e-05
2.2257915e-05
2.5573607e-05
2.9558406e-05
3.4370938e-05
4.0207009e-05
4.7631092e-05
5.6365295e-05
6.7039951e-05
8.010845e-05
9.6128e-05
0.00011578489
0.00013992511
0.00016959183
0.00020606824
0.0002532908
0.0003089463
0.00037746758
0.00046188186
0.00056594294
0.00070108324
0.00086070962
0.0010578439
0.0011939053
0.0011923613
0.0011908352
0.0011893099
0.0011877839
0.0011862538
0.0011847223
0.0011832156
0.0011818629
0.0011807427
0.0011798034
0.0011790191
0.0011783611
0.0011778229
0.0011773712
0.0011770241
0.0011767471
0.00117648
0.0011761662
0.0011758897
0.0011759115
0.0011762958
0.001176379
1.2267745e-07
1.1468608e-06
1.1519543e-06
9.2696132e-07
9.3875834e-07
8.6688849e-07
9.2851296e-07
1.0078071e-06
1.1155036e-06
1.2426591e-06
1.3900735e-06
1.5575206e-06
1.7462103e-06
1.9576663e-06
2.1937478e-06
2.4565318e-06
2.7483411e-06
3.0717641e-06
3.4297013e-06
3.8254197e-06
4.2626309e-06
4.745598e-06
5.2792852e-06
5.8695701e-06
6.5235386e-06
7.2472834e-06
8.0553137e-06
8.9594767e-06
9.9858352e-06
1.1142196e-05
1.2462433e-05
1.3981894e-05
1.5745117e-05
1.7808042e-05
2.024063e-05
2.313003e-05
2.6584438e-05
3.0737828e-05
3.5755718e-05
4.1842322e-05
4.9249337e-05
5.8286819e-05
6.9336364e-05
8.2865529e-05
9.945227e-05
0.00011980771
0.00014609765
0.00017706299
0.000215132
0.00026196715
0.00031962398
0.00039065114
0.00047820902
0.00059179566
0.00072611712
0.00089204981
0.001097236
0.0011940073
0.0011924311
0.0011908699
0.0011893126
0.0011877568
0.0011862002
0.0011846487
0.0011831443
0.0011818934
0.001180837
0.001179952
0.0011792092
0.0011785863
0.0011780936
0.0011776514
0.0011773255
0.0011770536
0.0011767885
0.0011764962
0.001176267
0.0011763014
0.0011766113
0.0011766432
1.4418267e-07
1.1853914e-06
9.918547e-07
7.07297e-07
7.6686684e-07
7.7476144e-07
8.5829505e-07
9.6041563e-07
1.0845669e-06
1.2265219e-06
1.3874164e-06
1.568168e-06
1.770277e-06
1.9953822e-06
2.2453718e-06
2.5223506e-06
2.8286744e-06
3.1669806e-06
3.5402318e-06
3.9517684e-06
4.4053826e-06
4.9054217e-06
5.4569374e-06
6.0658991e-06
6.7394961e-06
7.4865515e-06
8.3180709e-06
9.247943e-06
1.0293829e-05
1.147822e-05
1.282971e-05
1.4384584e-05
1.6188623e-05
1.8299343e-05
2.078865e-05
2.3746074e-05
2.7282709e-05
3.1535995e-05
3.667559e-05
4.2910594e-05
5.0498575e-05
6.0184796e-05
7.1591724e-05
8.555477e-05
0.00010266995
0.00012367042
0.00014946106
0.00018115931
0.0002201465
0.00026812985
0.00032722909
0.00040376629
0.00049426691
0.00060595969
0.00074394735
0.00091460788
0.0011259159
0.0011941109
0.0011925019
0.0011909055
0.0011893153
0.001187729
0.0011861474
0.0011845884
0.0011831441
0.0011819585
0.001180955
0.0011801138
0.0011794067
0.0011788124
0.0011783477
0.0011779102
0.0011775943
0.0011773187
0.0011770534
0.0011767848
0.0011765961
0.0011766283
0.0011768551
0.0011768467
1.3745863e-07
7.9069685e-07
8.1343572e-07
6.0300591e-07
6.6013019e-07
7.2065508e-07
8.22778e-07
9.4168068e-07
1.0789113e-06
1.2334694e-06
1.4065969e-06
1.5994958e-06
1.8136969e-06
2.0509052e-06
2.3130492e-06
2.6022909e-06
2.9210542e-06
3.2720137e-06
3.6582717e-06
4.0832298e-06
4.5507665e-06
5.0653169e-06
5.6320228e-06
6.2569479e-06
6.9473858e-06
7.7122819e-06
8.562793e-06
9.5130112e-06
1.0589527e-05
1.1801783e-05
1.318493e-05
1.4776199e-05
1.6622499e-05
1.8782708e-05
2.1330371e-05
2.4357005e-05
2.7976099e-05
3.2328022e-05
3.7586045e-05
4.3963733e-05
5.1724022e-05
6.1190307e-05
7.2760097e-05
8.6924062e-05
0.00010428593
0.00012559059
0.0001517577
0.000185538
0.00022539887
0.0002744555
0.0003348814
0.00040937405
0.00050129181
0.00061482392
0.00075520844
0.00092901093
0.0011444613
0.0011942651
0.0011926273
0.0011909982
0.0011893748
0.0011877559
0.0011861469
0.0011845808
0.0011832045
0.0011820588
0.0011810932
0.0011802825
0.0011795989
0.0011790267
0.0011785589
0.0011781429