/*--------------------------------*- C++ -*----------------------------------*\
  =========                 |
  \\      /  F ield         | OpenFOAM: The Open Source CFD Toolbox
   \\    /   O peration     | Website:  https://openfoam.org
    \\  /    A nd           | Version:  12
     \\/     M anipulation  |
\*---------------------------------------------------------------------------*/
FoamFile
{
    format      ascii;
    class       volScalarField;
    location    "0.094";
    object      k;
}
// * * * * * * * * * * * * * * * * * * * * * * * * * * * * * * * * * * * * * //

dimensions      [0 2 -2 0 0 0 0];

internalField   nonuniform List<scalar> 
16000
(
0.049511757
0.02163964
0.022452044
0.016493169
0.013999402
0.012675758
0.011889026
0.011418494
0.011099429
0.010884555
0.010726183
0.010608219
0.010516223
0.010443423
0.010384823
0.010337275
0.010298454
0.010266717
0.010240831
0.010219608
0.010202026
0.01018777
0.010176339
0.010167175
0.010160047
0.010154598
0.010150651
0.010148036
0.010146615
0.010146257
0.010146839
0.010148259
0.010150433
0.010153291
0.010156773
0.010160816
0.010165362
0.010170347
0.010175713
0.010181402
0.01018735
0.010193494
0.010199776
0.010206144
0.010212536
0.010218891
0.010225152
0.010231261
0.010237158
0.010242782
0.010248079
0.010253001
0.010257507
0.010261556
0.010265106
0.010268111
0.010270522
0.010272291
0.010273371
0.010273717
0.010273266
0.010271954
0.010269732
0.010266538
0.010262293
0.010256893
0.010250217
0.010242109
0.010232306
0.010220286
0.010204837
0.010183109
0.010152977
0.010128259
0.010105415
0.010084286
0.010064877
0.010045247
0.010050204
0.010080042
0.045588935
0.02046688
0.021004631
0.015949596
0.013653657
0.012471239
0.011725574
0.011300629
0.010997874
0.010800292
0.010652225
0.010543047
0.010457468
0.010390162
0.01033608
0.010292408
0.01025691
0.01022805
0.010204726
0.010185878
0.010170401
0.010158033
0.010148382
0.010140849
0.010135266
0.010131261
0.010128664
0.010127316
0.010127081
0.010127838
0.010129469
0.01013187
0.010134957
0.010138659
0.010142913
0.010147661
0.010152843
0.010158398
0.010164267
0.010170392
0.010176713
0.010183168
0.010189698
0.010196253
0.010202778
0.010209214
0.010215506
0.010221603
0.010227448
0.010232985
0.010238158
0.010242922
0.010247236
0.010251065
0.010254373
0.010257121
0.01025927
0.010260777
0.010261606
0.010261718
0.010261067
0.010259595
0.010257252
0.010253979
0.010249697
0.010244297
0.010237637
0.010229537
0.010219718
0.01020767
0.010192397
0.01017153
0.010142291
0.010118043
0.010095999
0.010076194
0.010057681
0.010040219
0.010045158
0.010066505
0.04140684
0.019632828
0.019675659
0.015386752
0.013300662
0.012244143
0.011556636
0.011173726
0.010894249
0.010714894
0.010578007
0.01047805
0.010399367
0.010337837
0.010288567
0.010249007
0.01021706
0.010191277
0.010170674
0.010154342
0.010141116
0.010130762
0.010123004
0.010117198
0.010113246
0.010110765
0.010109594
0.01010958
0.010110593
0.010112519
0.010115244
0.010118664
0.010122695
0.010127263
0.010132307
0.010137766
0.010143582
0.010149694
0.010156043
0.010162571
0.010169222
0.010175933
0.010182648
0.010189318
0.010195893
0.010202319
0.010208544
0.010214523
0.010220204
0.010225536
0.010230467
0.010234951
0.010238952
0.010242437
0.010245377
0.010247742
0.0102495
0.010250619
0.010251067
0.010250817
0.010249833
0.010248067
0.010245472
0.010241989
0.010237538
0.010232007
0.010225239
0.01021703
0.010207079
0.010194856
0.010179441
0.010158935
0.010130865
0.010107395
0.010086365
0.01006787
0.010050586
0.010035303
0.01003983
0.010056293
0.038552678
0.01907046
0.0185245
0.014882908
0.012981116
0.012038592
0.01140202
0.011057823
0.010799191
0.010636364
0.010510154
0.010418721
0.010346619
0.010290548
0.010245875
0.010210252
0.010181726
0.010158922
0.010140941
0.010127056
0.010116038
0.010107648
0.010101748
0.010097639
0.010095286
0.010094302
0.010094533
0.010095828
0.010098063
0.010101127
0.01010491
0.01010931
0.010114239
0.010119623
0.010125397
0.010131501
0.010137876
0.010144463
0.010151202
0.010158036
0.010164912
0.01017177
0.010178555
0.01018522
0.010191723
0.010198013
0.010204045
0.010209778
0.010215168
0.010220169
0.010224734
0.010228821
0.010232393
0.010235425
0.010237891
0.010239771
0.01024104
0.010241674
0.01024165
0.010240947
0.010239539
0.010237388
0.010234452
0.010230668
0.010225955
0.010220199
0.01021323
0.010204825
0.010194665
0.010182191
0.01016652
0.010146205
0.010119204
0.010096706
0.01007684
0.010059685
0.010043803
0.010030674
0.01003449
0.010045198
0.035863973
0.018753383
0.017534619
0.014416149
0.012683826
0.011844421
0.011257131
0.010948657
0.010710518
0.010563169
0.010447425
0.010364123
0.010298462
0.010247691
0.010207519
0.010175755
0.010150602
0.010130748
0.010115351
0.010103891
0.010095081
0.010088654
0.010084609
0.010082211
0.010081445
0.010081961
0.010083591
0.010086193
0.01008964
0.010093827
0.010098645
0.010103993
0.01010978
0.010115929
0.010122374
0.010129053
0.010135908
0.010142879
0.010149909
0.010156943
0.010163928
0.01017081
0.010177538
0.010184068
0.010190363
0.01019638
0.010202081
0.010207429
0.01021239
0.010216926
0.010220993
0.010224554
0.010227577
0.010230039
0.010231921
0.010233207
0.010233884
0.010233933
0.01023334
0.010232088
0.010230161
0.01022753
0.010224156
0.010219978
0.010214908
0.010208829
0.010201565
0.010192874
0.01018242
0.010169622
0.010153564
0.010133237
0.010107485
0.010086143
0.010067556
0.010051758
0.01003741
0.010026149
0.010028988
0.010035007
0.033500586
0.018680968
0.016795975
0.013988466
0.012410368
0.011663893
0.011123291
0.010847558
0.01062913
0.010496036
0.010390438
0.010314803
0.010255375
0.010209709
0.0101739
0.010145891
0.010124041
0.010107099
0.010094242
0.010085175
0.010078567
0.010074127
0.01007191
0.01007128
0.010072051
0.010074061
0.010077084
0.010080978
0.010085616
0.010090894
0.010096706
0.010102947
0.010109527
0.010116365
0.010123393
0.010130548
0.010137771
0.010145005
0.010152196
0.010159291
0.010166241
0.010172998
0.010179516
0.010185756
0.010191689
0.010197279
0.010202496
0.010207311
0.010211698
0.010215626
0.010219062
0.01022197
0.010224324
0.010226104
0.010227295
0.010227889
0.010227878
0.010227252
0.010226002
0.010224118
0.010221588
0.010218392
0.010214496
0.010209839
0.010204329
0.010197841
0.010190197
0.010181137
0.010170316
0.01015714
0.01014062
0.010120036
0.01009577
0.010075762
0.010058577
0.010044158
0.010031421
0.010022021
0.010023608
0.010025519
0.030527047
0.018778347
0.016271008
0.013596449
0.012158468
0.01149631
0.011000253
0.010754367
0.010554916
0.010434891
0.010339095
0.010270727
0.010217338
0.010176625
0.010145078
0.010120759
0.010102178
0.010088146
0.010077814
0.010071131
0.010066725
0.010064411
0.010063923
0.010065299
0.010067412
0.010070911
0.010075315
0.01008048
0.010086277
0.0100926
0.010099343
0.010106403
0.010113685
0.010121107
0.0101286
0.010136098
0.010143547
0.010150892
0.010158083
0.010165071
0.010171814
0.010178271
0.010184405
0.010190182
0.010195581
0.010200578
0.010205149
0.010209275
0.010212938
0.010216118
0.010218787
0.010220918
0.010222487
0.010223477
0.010223878
0.010223686
0.010222899
0.010221515
0.010219529
0.010216936
0.010213727
0.010209889
0.010205395
0.010200183
0.010194157
0.010187186
0.010179086
0.010169585
0.010158324
0.01014473
0.010127753
0.010106716
0.010084217
0.010065696
0.010050018
0.010036988
0.010025853
0.010018157
0.010018447
0.010017482
0.028484933
0.018964518
0.015846648
0.013237645
0.011926671
0.011341431
0.010887417
0.010668928
0.010487528
0.010379606
0.010293308
0.010231913
0.010184426
0.010148577
0.010121241
0.010100589
0.010085274
0.010074179
0.010066397
0.010062072
0.010059829
0.010060161
0.010060994
0.01006382
0.010067895
0.010072864
0.010078624
0.010085019
0.010091916
0.010099208
0.010106788
0.010114553
0.010122408
0.010130269
0.010138066
0.010145738
0.010153229
0.010160494
0.010167487
0.010174168
0.010180503
0.01018646
0.010192013
0.010197137
0.010201819
0.010206046
0.010209806
0.010213086
0.010215878
0.010218171
0.010219946
0.010221181
0.010221857
0.01022196
0.010221483
0.010220424
0.010218785
0.010216569
0.010213779
0.01021041
0.010206458
0.010201913
0.010196752
0.010190919
0.010184312
0.010176794
0.010168177
0.010158177
0.010146415
0.01013236
0.01011501
0.010093639
0.010072933
0.010056024
0.010041946
0.010030321
0.010020755
0.010014654
0.010013863
0.010010118
0.026811229
0.019147121
0.015355227
0.01290885
0.01171334
0.011198496
0.010784127
0.010590491
0.010426997
0.010330396
0.010253294
0.010198648
0.010156947
0.010125907
0.010102756
0.010085766
0.010073728
0.010065606
0.01006044
0.010058288
0.010057686
0.010060222
0.0100637
0.010068291
0.010073881
0.010080299
0.010087358
0.010094906
0.010102807
0.010110948
0.010119224
0.010127534
0.010135783
0.010143888
0.010151781
0.010159405
0.010166713
0.010173664
0.010180226
0.010186367
0.010192066
0.010197303
0.010202062
0.010206331
0.010210106
0.010213387
0.010216171
0.010218455
0.010220237
0.010221516
0.010222281
0.010222516
0.010222206
0.010221338
0.010219907
0.010217913
0.010215359
0.010212253
0.010208601
0.010204403
0.010199655
0.010194348
0.010188465
0.010181953
0.010174712
0.010166594
0.010157409
0.01014687
0.010134567
0.010120008
0.010102381
0.010080947
0.010062052
0.010046827
0.010034418
0.010024226
0.01001615
0.010011502
0.010010011
0.010003754
0.025006223
0.019317902
0.014687059
0.012607283
0.011518356
0.011068127
0.010691201
0.01052006
0.010373871
0.010287698
0.010219473
0.010171392
0.010135367
0.010109095
0.010090114
0.010076796
0.010068036
0.010062921
0.010060524
0.010058233
0.010063455
0.010067134
0.01007235
0.010078651
0.010085796
0.010093581
0.010101838
0.010110411
0.010119162
0.010127974
0.010136745
0.010145376
0.010153778
0.010161871
0.010169594
0.0101769
0.010183749
0.010190116
0.010195978
0.010201322
0.010206137
0.010210419
0.010214166
0.010217377
0.010220061
0.010222227
0.010223883
0.010225033
0.010225684
0.01022584
0.010225498
0.010224648
0.010223276
0.010221372
0.01021893
0.010215949
0.010212435
0.010208395
0.010203838
0.010198769
0.010193185
0.010187075
0.010180426
0.01017319
0.010165269
0.010156512
0.010146722
0.010135616
0.010122762
0.01010766
0.010089823
0.01006881
0.010051691
0.010038167
0.010027458
0.010018741
0.010012055
0.010008668
0.010007088
0.009998915
0.023521474
0.019458287
0.014149769
0.012330814
0.011342198
0.010949704
0.0106091
0.010458359
0.010328339
0.010251916
0.010192272
0.010150632
0.010120201
0.01009868
0.010083874
0.01007426
0.010068725
0.010066666
0.010067338
0.010070552
0.010074421
0.010080423
0.0100875
0.010095436
0.010104013
0.010113029
0.010122315
0.010131713
0.010141085
0.010150314
0.0101593
0.010167954
0.010176196
0.010183956
0.010191185
0.010197849
0.010203924
0.0102094
0.010214273
0.010218544
0.010222221
0.010225315
0.010227838
0.010229802
0.010231227
0.010232129
0.010232527
0.010232432
0.010231854
0.010230803
0.010229282
0.010227283
0.010224797
0.010221813
0.010218323
0.010214325
0.010209821
0.010204819
0.010199331
0.010193363
0.010186915
0.010179975
0.010172529
0.010164536
0.010155903
0.010146477
0.010136056
0.010124368
0.010110984
0.010095339
0.010077249
0.010057372
0.010041964
0.010030096
0.01002107
0.010013867
0.010008457
0.010006075
0.010005015
0.009995632
0.022165684
0.019586068
0.013684592
0.012079674
0.011184844
0.010843578
0.010537689
0.010405129
0.010290737
0.010223528
0.010172191
0.010136921
0.010112034
0.010095275
0.010084668
0.010078814
0.010076718
0.01007761
0.010080871
0.010086006
0.010092875
0.010100772
0.010109575
0.010119003
0.010128831
0.010138855
0.010148907
0.010158835
0.010168501
0.010177796
0.010186628
0.010194923
0.010202617
0.010209659
0.010216017
0.010221675
0.010226632
0.010230896
0.010234482
0.010237411
0.010239708
0.010241399
0.01024251
0.010243066
0.010243092
0.010242614
0.010241657
0.010240235
0.010238364
0.010236053
0.010233309
0.010230128
0.0102265
0.010222414
0.010217861
0.010212834
0.010207332
0.010201359
0.010194929
0.010188049
0.010180723
0.010172938
0.010164679
0.010155905
0.010146536
0.010136425
0.01012536
0.010113079
0.010099202
0.010083116
0.010064639
0.010046733
0.010032973
0.010022669
0.010015251
0.010009572
0.010005313
0.010003705
0.010003227
0.009993988
0.020943792
0.019670788
0.013256605
0.011853843
0.011045864
0.010750181
0.010477064
0.010360895
0.010261403
0.01020305
0.010159803
0.010130893
0.010111544
0.010099581
0.010093215
0.010091144
0.01009243
0.010096378
0.010102408
0.010110052
0.010118871
0.010128609
0.010138941
0.010149609
0.010160388
0.010171077
0.010181514
0.010191554
0.010201073
0.010209977
0.010218191
0.010225664
0.010232356
0.010238244
0.01024332
0.010247594
0.010251085
0.010253825
0.010255848
0.010257195
0.010257904
0.010258016
0.010257569
0.010256594
0.010255126
0.010253193
0.010250823
0.010248033
0.010244838
0.010241248
0.010237269
0.010232899
0.010228128
0.010222943
0.010217332
0.010211285
0.010204795
0.010197861
0.010190494
0.010182704
0.010174498
0.010165867
0.010156789
0.010147226
0.010137108
0.010126302
0.010114596
0.01010172
0.010087364
0.010071074
0.010052622
0.010036953
0.010024807
0.010015952
0.010010011
0.010005813
0.01000258
0.010001516
0.010002348
0.0099934558
0.019844627
0.019675106
0.012868866
0.011651305
0.010924423
0.010668891
0.010427331
0.010326024
0.010240803
0.010191133
0.010155839
0.010133325
0.010119549
0.01011244
0.010110363
0.010112105
0.010116779
0.010123714
0.010132349
0.010142231
0.010152981
0.010164253
0.010175771
0.010187277
0.010198554
0.010209413
0.010219702
0.010229301
0.01023811
0.010246062
0.010253113
0.010259241
0.010264442
0.010268726
0.010272115
0.010274642
0.010276354
0.0102773
0.010277534
0.01027711
0.010276081
0.010274495
0.010272396
0.010269825
0.010266816
0.0102634
0.010259602
0.010255441
0.01025093
0.010246076
0.010240881
0.010235343
0.010229452
0.010223193
0.010216551
0.01020951
0.01020206
0.010194191
0.01018591
0.010177226
0.01016815
0.01015868
0.010148792
0.010138444
0.010127573
0.010116069
0.010103735
0.01009029
0.010075444
0.010059089
0.010041732
0.010028076
0.010017526
0.010010013
0.01000537
0.010002529
0.010000341
0.0099998086
0.010001769
0.0099949928
0.01885392
0.019446606
0.012518887
0.011471009
0.010820354
0.010600213
0.0103888
0.010301174
0.010229664
0.010188678
0.010161261
0.010145219
0.010137071
0.010134861
0.010137083
0.010142599
0.01015056
0.01016032
0.010171337
0.010183156
0.010195398
0.010207739
0.010219903
0.010231649
0.01024278
0.010253134
0.010262592
0.010271067
0.010278504
0.010284876
0.010290178
0.01029443
0.010297665
0.010299929
0.010301273
0.010301756
0.010301443
0.0103004
0.010298694
0.010296387
0.010293538
0.010290202
0.010286425
0.010282248
0.010277704
0.010272823
0.010267627
0.010262131
0.010256346
0.010250272
0.010243909
0.01023725
0.010230284
0.010222995
0.010215364
0.010207373
0.010199004
0.010190243
0.010181085
0.010171538
0.010161615
0.010151323
0.010140642
0.010129525
0.01011791
0.010105707
0.010092757
0.010078797
0.010063531
0.010046995
0.010031882
0.010020131
0.01001114
0.010004889
0.010001347
0.0099996242
0.0099984979
0.0099987258
0.010001439
0.0099964277
0.017957238
0.018576149
0.012204128
0.011312244
0.010733902
0.010544468
0.010362025
0.010287316
0.010229056
0.010196864
0.010177306
0.010167801
0.010165301
0.010167964
0.010174392
0.010183507
0.010194494
0.010206718
0.01021965
0.010232847
0.010245941
0.010258623
0.010270647
0.010281807
0.010291951
0.010300967
0.010308787
0.010315379
0.010320744
0.010324905
0.010327906
0.010329807
0.010330678
0.010330595
0.010329635
0.010327875
0.010325392
0.010322262
0.010318555
0.010314338
0.010309669
0.010304602
0.010299181
0.010293443
0.010287421
0.010281137
0.010274609
0.010267847
0.010260857
0.010253635
0.010246174
0.010238462
0.010230485
0.010222225
0.010213662
0.010204775
0.010195542
0.010185941
0.010175958
0.010165592
0.010154857
0.010143768
0.010132316
0.010120456
0.010108118
0.010095225
0.010081659
0.010067219
0.010051774
0.010035776
0.010023044
0.010013093
0.0100056
0.010000549
0.0099979384
0.00999703
0.0099967524
0.0099977515
0.010001147
0.0099977615
0.01714683
0.017220389
0.01192685
0.011174769
0.010664156
0.010502624
0.010348068
0.01028587
0.010240436
0.010217167
0.010205429
0.010202446
0.010205502
0.010212863
0.010223211
0.01023552
0.010248997
0.010263021
0.010277085
0.010290769
0.010303743
0.010315747
0.010326591
0.01033614
0.010344313
0.01035107
0.010356416
0.010360384
0.010363035
0.010364446
0.010364703
0.010363904
0.010362146
0.010359524
0.010356131
0.010352053
0.010347371
0.010342161
0.010336489
0.010330419
0.010324003
0.010317288
0.010310314
0.010303111
0.010295705
0.010288114
0.01028035
0.010272417
0.010264313
0.010256032
0.010247559
0.010238877
0.010229968
0.01022081
0.010211381
0.01020166
0.010191621
0.01018124
0.010170494
0.010159368
0.010147869
0.010136016
0.010123819
0.010111245
0.010098219
0.010084657
0.010070488
0.010055596
0.010040031
0.010025983
0.010015209
0.01000692
0.010000823
0.0099969062
0.0099950967
0.0099947225
0.009994988
0.0099967896
0.010000569
0.0099989045
0.016418585
0.016367164
0.011692939
0.011058988
0.010612024
0.010476071
0.010348434
0.010298524
0.010265504
0.010251227
0.010247188
0.010250559
0.010258871
0.010270481
0.010284129
0.010298841
0.010313849
0.010328572
0.010342558
0.010355457
0.010367018
0.010377074
0.010385531
0.010392353
0.010397553
0.01040118
0.010403313
0.010404052
0.010403511
0.010401808
0.010399062
0.010395391
0.010390906
0.01038571
0.010379899
0.010373557
0.010366759
0.010359572
0.010352055
0.010344261
0.010336232
0.010328006
0.010319613
0.010311076
0.010302413
0.010293636
0.010284751
0.010275756
0.010266644
0.010257403
0.010248014
0.010238455
0.0102287
0.010218725
0.010208504
0.010198016
0.010187235
0.010176136
0.01016469
0.010152872
0.010140672
0.010128103
0.010115187
0.010101922
0.010088247
0.010074057
0.010059301
0.010044125
0.010029091
0.010017425
0.010008391
0.010001577
0.0099967415
0.0099938818
0.0099928062
0.0099927948
0.0099933445
0.0099958654
0.0099998562
0.0099999964
0.015764542
0.015370168
0.011493298
0.010965429
0.010578454
0.010466516
0.010364772
0.010327195
0.010306186
0.010300836
0.010304181
0.010313422
0.010326278
0.010341183
0.010356956
0.010372691
0.010387709
0.010401525
0.010413809
0.010424338
0.010432996
0.010439748
0.010444623
0.010447699
0.010449086
0.010448915
0.01044733
0.010444477
0.010440505
0.010435555
0.010429759
0.010423238
0.010416102
0.010408449
0.010400364
0.010391921
0.010383182
0.010374201
0.010365023
0.010355686
0.010346222
0.010336657
0.010327008
0.010317292
0.010307517
0.010297689
0.010287807
0.010277866
0.010267856
0.010257759
0.010247552
0.010237209
0.010226699
0.010215992
0.010205059
0.010193875
0.010182416
0.010170658
0.010158573
0.010146131
0.010133304
0.010120085
0.010106492
0.010092548
0.010078245
0.010063504
0.010048229
0.010032766
0.010019902
0.010010036
0.010002557
0.0099970352
0.0099933113
0.0099913959
0.0099910072
0.0099913248
0.0099919557
0.0099948638
0.009999401
0.010000973
0.015179151
0.014697989
0.011330435
0.010894813
0.010564489
0.010476177
0.010399291
0.010374257
0.010364728
0.01036785
0.010377741
0.010391698
0.010407626
0.010424085
0.010440037
0.010454746
0.010467709
0.010478627
0.010487357
0.010493863
0.010498191
0.010500454
0.010500802
0.010499412
0.010496469
0.010492161
0.010486665
0.010480153
0.010472779
0.010464685
0.010455996
0.010446822
0.010437256
0.01042738
0.010417263
0.010406962
0.010396521
0.010385978
0.010375362
0.010364696
0.010353998
0.010343282
0.010332556
0.010321825
0.01031109
0.01030035
0.0102896
0.010278831
0.010268029
0.010257175
0.010246245
0.010235208
0.010224031
0.010212678
0.010201113
0.010189307
0.010177235
0.010164876
0.010152205
0.010139195
0.010125812
0.010112026
0.010097826
0.010083231
0.01006828
0.010053021
0.010037608
0.010022919
0.010012063
0.01000378
0.0099976377
0.0099932508
0.0099904901
0.0099893502
0.0099895136
0.0099902008
0.0099910607
0.0099941886
0.0099988443
0.010001252
0.014656843
0.013949826
0.011200992
0.010849789
0.010571937
0.010508418
0.01045506
0.010442439
0.010443232
0.01045342
0.010467969
0.010484392
0.010500872
0.010516232
0.010529713
0.010540865
0.010549463
0.010555458
0.010558935
0.010560045
0.010558993
0.010556009
0.010551329
0.010545189
0.01053781
0.010529394
0.010520125
0.010510164
0.010499652
0.01048871
0.010477442
0.010465934
0.010454258
0.010442471
0.010430622
0.010418748
0.010406875
0.010395024
0.010383208
0.010371436
0.010359713
0.010348039
0.010336414
0.010324832
0.010313289
0.010301776
0.010290283
0.010278799
0.010267307
0.010255789
0.010244219
0.010232569
0.010220803
0.010208882
0.010196764
0.010184413
0.010171797
0.010158895
0.010145687
0.010132152
0.010118264
0.010103984
0.010089274
0.010074119
0.010058554
0.010042723
0.010027182
0.010014907
0.01000551
0.009998556
0.0099935459
0.0099901479
0.0099882291
0.0099877106
0.0099882235
0.0099891271
0.0099904216
0.0099937497
0.0099984949
0.010001392
0.014197411
0.01337357
0.01110971
0.010835115
0.01060464
0.010567315
0.010535194
0.01053358
0.010542134
0.010556433
0.010572311
0.010587713
0.010601294
0.010612311
0.010620415
0.010625523
0.010627725
0.010627226
0.010624302
0.01061925
0.010612373
0.010603958
0.010594273
0.010583557
0.010572024
0.010559858
0.010547214
0.010534226
0.010521001
0.010507632
0.01049419
0.010480736
0.010467314
0.010453959
0.010440696
0.010427543
0.010414511
0.010401603
0.010388821
0.010376158
0.010363609
0.010351163
0.01033881
0.010326537
0.010314331
0.010302178
0.010290064
0.010277973
0.010265889
0.010253791
0.010241658
0.010229463
0.010217171
0.010204745
0.01019214
0.010179315
0.010166229
0.010152852
0.010139162
0.010125142
0.010110775
0.010096037
0.010080889
0.010065295
0.010049283
0.010033235
0.010019034
0.0100083
0.010000192
0.0099942969
0.0099902111
0.0099876465
0.0099864556
0.0099864726
0.0099872803
0.0099883504
0.0099899042
0.009993428
0.0099982096
0.010001476
0.013806349
0.012915394
0.011059038
0.01085592
0.010688551
0.010655907
0.010640738
0.010646447
0.010658228
0.01067198
0.010684632
0.010694795
0.010701779
0.010705378
0.010705685
0.010702958
0.010697545
0.010689822
0.010680166
0.010668933
0.010656441
0.010642969
0.010628757
0.010614008
0.010598891
0.010583547
0.010568089
0.010552607
0.010537175
0.010521847
0.010506666
0.010491664
0.010476861
0.01046227
0.010447898
0.010433745
0.010419807
0.010406076
0.010392538
0.010379181
0.010365988
0.010352939
0.010340016
0.010327199
0.010314468
0.010301804
0.010289186
0.010276596
0.010264014
0.010251421
0.010238795
0.010226113
0.010213346
0.01020046
0.010187414
0.010174167
0.010160672
0.010146892
0.010132791
0.010118345
0.010103535
0.010088346
0.010072772
0.010056831
0.010040635
0.010024789
0.010012566
0.010003079
0.0099960211
0.0099909747
0.0099876175
0.0099857156
0.0099851071
0.0099855506
0.009986601
0.009987845
0.0099896545
0.0099932806
0.0099980269
0.010001444
0.013492943
0.012547426
0.011053068
0.010912019
0.010791748
0.010773429
0.010767931
0.010774768
0.010783569
0.010791201
0.010795837
0.010796904
0.010794375
0.010788526
0.010779775
0.010768588
0.010755425
0.010740706
0.010724802
0.010708032
0.010690659
0.010672902
0.010654937
0.010636905
0.010618916
0.010601057
0.010583395
0.010565979
0.010548844
0.010532015
0.010515506
0.010499325
0.010483473
0.010467945
0.010452732
0.010437822
0.010423199
0.010408844
0.010394737
0.010380855
0.010367175
0.010353671
0.010340318
0.01032709
0.010313961
0.010300906
0.0102879
0.010274919
0.01026194
0.01024894
0.010235898
0.010222792
0.010209597
0.010196286
0.010182827
0.010169182
0.010155313
0.010141175
0.01012673
0.010111938
0.010096764
0.010081179
0.010065171
0.010048814
0.010032545
0.010018359
0.010007463
0.0099990962
0.0099929075
0.0099885534
0.0099857666
0.0099843598
0.0099841639
0.0099848975
0.0099861288
0.0099875527
0.0099896028
0.0099932543
0.0099978728
0.010001283
0.013274186
0.012281179
0.011094611
0.01101005
0.010925389
0.010911261
0.010906555
0.010907145
0.010906593
0.010903151
0.010896179
0.010885816
0.010872497
0.010856753
0.010839113
0.010820057
0.010799999
0.010779283
0.010758189
0.010736936
0.010715699
0.01069461
0.01067377
0.010653253
0.010633112
0.010613384
0.010594093
0.010575254
0.01055687
0.010538941
0.01052146
0.010504416
0.010487794
0.010471578
0.010455746
0.010440278
0.010425149
0.010410333
0.010395805
0.010381537
0.010367498
0.010353661
0.010339996
0.010326471
0.010313056
0.010299722
0.010286438
0.010273177
0.010259908
0.010246605
0.010233243
0.010219797
0.010206244
0.010192558
0.010178716
0.010164689
0.010150446
0.010135954
0.010121175
0.010106072
0.010090609
0.010074757
0.010058517
0.010042014
0.010025923
0.010013403
0.010003586
0.0099961522
0.0099906955
0.0099869164
0.0099845817
0.0099835259
0.0099835741
0.0099844383
0.0099857571
0.0099873319
0.0099895699
0.0099931477
0.0099975121
0.010000769
0.013148425
0.012115505
0.011190421
0.011138792
0.01107396
0.011055872
0.011042179
0.011029832
0.011015257
0.010997977
0.010978133
0.0109562
0.010932715
0.010908177
0.010883005
0.01085754
0.010832048
0.010806731
0.010781739
0.010757181
0.010733135
0.010709651
0.010686762
0.010664485
0.010642827
0.010621785
0.010601352
0.010581512
0.010562249
0.010543543
0.010525373
0.010507713
0.01049054
0.010473826
0.010457545
0.010441669
0.010426167
0.010411012
0.010396172
0.010381617
0.010367315
0.010353235
0.010339343
0.010325608
0.010311997
0.010298475
0.01028501
0.010271569
0.010258118
0.010244625
0.010231059
0.01021739
0.010203588
0.010189627
0.010175481
0.010161125
0.010146534
0.010131682
0.010116541
0.010101083
0.010085279
0.010069116
0.010052639
0.010036157
0.010021102
0.010009673
0.010000746
0.0099940428
0.0099891732
0.009985854
0.009983869
0.0099830525
0.0099832188
0.0099840954
0.0099854131
0.0099870876
0.0099894534
0.0099929315
0.0099970594
0.010000211
0.01308507
0.012045248
0.011350058
0.011281725
0.011220914
0.011188449
0.011158901
0.011130092
0.011100334
0.011069652
0.011038319
0.011006706
0.010975144
0.010943901
0.010913175
0.01088311
0.0108538
0.010825304
0.010797656
0.01077087
0.010744942
0.010719863
0.010695613
0.010672168
0.010649501
0.010627582
0.01060638
0.010585864
0.010566001
0.01054676
0.010528107
0.010510012
0.010492443
0.010475367
0.010458753
0.010442569
0.010426785
0.010411367
0.010396284
0.010381505
0.010366995
0.010352724
0.010338657
0.010324762
0.010311006
0.010297354
0.010283771
0.010270223
0.010256674
0.010243089
0.010229431
0.010215665
0.010201756
0.01018767
0.010173373
0.010158834
0.010144023
0.01012891
0.010113468
0.010097672
0.010081506
0.010064984
0.010048221
0.010031749
0.010017831
0.010007095
0.0099988114
0.0099926272
0.0099881765
0.0099851808
0.0099834346
0.0099827962
0.0099829647
0.0099839032
0.0099852147
0.009986969
0.0099893535
0.0099925633
0.0099962321
0.0099992606
0.013096236
0.012005759
0.011504968
0.011414969
0.011342416
0.011291394
0.011244643
0.011200724
0.011158346
0.01111733
0.011077627
0.011039263
0.01100226
0.01096662
0.010932329
0.010899358
0.010867667
0.010837208
0.01080793
0.010779781
0.010752708
0.010726656
0.010701574
0.010677412
0.010654122
0.010631655
0.010609968
0.010589019
0.010568765
0.010549167
0.010530189
0.010511792
0.010493941
0.010476601
0.01045974
0.010443322
0.010427315
0.010411687
0.010396405
0.010381437
0.010366751
0.010352315
0.010338095
0.01032406
0.010310177
0.010296413
0.010282735
0.010269107
0.010255496
0.010241865
0.010228179
0.010214401
0.010200493
0.010186418
0.010172138
0.010157613
0.010142807
0.010127679
0.010112191
0.010096306
0.010079996
0.010063267
0.010046259
0.010029642
0.010016255
0.010005852
0.0099978699
0.0099919416
0.0099877116
0.009984903
0.0099833006
0.0099827329
0.0099826708
0.009983851
0.009985159
0.0099869794
0.0099893457
0.0099923588
0.0099957607
0.0099988179
0.013190202
0.012031996
0.011621524
0.011511749
0.011423699
0.011356676
0.011296972
0.011242693
0.011192206
0.01114486
0.011100212
0.011057969
0.011017901
0.010979825
0.010943581
0.010909033
0.010876056
0.010844541
0.010814389
0.010785509
0.010757818
0.01073124
0.010705705
0.010681149
0.010657511
0.010634735
0.010612769
0.010591564
0.010571075
0.010551257
0.010532071
0.010513476
0.010495435
0.010477912
0.010460872
0.01044428
0.010428103
0.010412307
0.010396861
0.010381732
0.010366889
0.010352299
0.010337932
0.010323755
0.010309737
0.010295847
0.010282051
0.010268318
0.010254614
0.010240906
0.010227159
0.01021334
0.010199414
0.010185345
0.010171098
0.010156638
0.01014193
0.010126938
0.010111627
0.010095961
0.010079914
0.010063482
0.010046776
0.010030368
0.010016747
0.010006222
0.0099981098
0.00999208
0.0099877842
0.0099849475
0.0099833429
0.0099827858
0.0099828352
0.0099838111
0.0099851811
0.0099870419
0.0099893764
0.0099921845
0.009995332
0.0099985043
0.013315706
0.012088491
0.011682878
0.011560551
0.011462298
0.01138691
0.011321098
0.011262305
0.011208476
0.011158627
0.011112084
0.011068387
0.011027192
0.010988229
0.010951279
0.010916159
0.010882713
0.010850807
0.010820321
0.010791152
0.010763207
0.0107364
0.010710656
0.010685905
0.010662083
0.010639132
0.010616996
0.010595625
0.010574972
0.010554992
0.010535643
0.010516885
0.01049868
0.010480991
0.010463783
0.010447022
0.010430673
0.010414704
0.010399083
0.010383777
0.010368754
0.010353984
0.010339434
0.010325074
0.010310872
0.010296796
0.010282814
0.010268895
0.010255005
0.010241112
0.010227181
0.010213179
0.01019907
0.010184822
0.010170398
0.010155767
0.010140893
0.010125745
0.010110292
0.010094506
0.010078362
0.01006187
0.01004516
0.010028892
0.010015931
0.010005729
0.0099978437
0.0099919382
0.0099877146
0.0099849225
0.0099833386
0.009982766
0.0099826939
0.0099838605
0.0099851928
0.0099870715
0.0099893713
0.0099920714
0.0099950865
0.0099983415
67.082342
364.87577
122.64854
14.729655
0.40728524
0.021656306
0.020295361
0.019981809
0.019711409
0.018650058
0.017292659
0.016098592
0.015189725
0.014605755
0.014191808
0.013798517
0.013413164
0.013072621
0.012788976
0.012552628
0.012351695
0.012178268
0.012027249
0.011894847
0.011777982
0.01167411
0.011581196
0.011497629
0.011422145
0.011353742
0.011291587
0.011234957
0.011183222
0.011135847
0.011092408
0.011052561
0.01101601
0.010982491
0.01095176
0.010923594
0.010897797
0.010874182
0.010852567
0.010832788
0.010814697
0.010798153
0.010783015
0.010769142
0.010756399
0.010744653
0.010733767