/*--------------------------------*- C++ -*----------------------------------*\
  =========                 |
  \\      /  F ield         | OpenFOAM: The Open Source CFD Toolbox
   \\    /   O peration     | Website:  https://openfoam.org
    \\  /    A nd           | Version:  12
     \\/     M anipulation  |
\*---------------------------------------------------------------------------*/
FoamFile
{
    format      ascii;
    class       volScalarField;
    location    "0.094";
    object      nut;
}
// * * * * * * * * * * * * * * * * * * * * * * * * * * * * * * * * * * * * * //

dimensions      [0 2 -1 0 0 0 0];

internalField   nonuniform List<scalar> 
16000
(
4.6780094e-07
9.8813857e-06
1.8605789e-05
2.3787662e-05
1.8235466e-05
2.5037671e-05
1.7668615e-05
2.4219488e-05
1.8851002e-05
2.6015703e-05
2.1852431e-05
2.5712003e-05
2.3416803e-05
2.4053649e-05
2.3232395e-05
2.3101245e-05
2.2857067e-05
2.2790352e-05
2.2800475e-05
2.2908042e-05
2.3105313e-05
2.3391766e-05
2.3764904e-05
2.4224727e-05
2.477335e-05
2.5416605e-05
2.6162355e-05
2.7023192e-05
2.8014478e-05
2.9152755e-05
3.045615e-05
3.1948756e-05
3.3661696e-05
3.5633341e-05
3.7910923e-05
4.0550804e-05
4.3620139e-05
4.7199016e-05
5.1386585e-05
5.630578e-05
6.2100967e-05
6.8942223e-05
7.7044181e-05
8.6670145e-05
9.8133917e-05
0.00011181217
0.00012817239
0.00014778489
0.00017134507
0.00019970192
0.00023389712
0.00027521219
0.0003252187
0.0003858482
0.00045947588
0.0005490361
0.00065816999
0.00079142416
0.0009545201
0.0010192704
0.0010191673
0.0010190455
0.0010188844
0.0010186607
0.0010183748
0.0010180193
0.0010175866
0.0010170669
0.0010164442
0.0010156879
0.0010147271
0.0010133978
0.0010115746
0.0010100254
0.001008554
0.0010071524
0.0010058169
0.0010044335
0.0010043602
0.0010055253
4.1911405e-07
9.3844878e-06
1.9778375e-05
2.1317958e-05
1.6466974e-05
2.2479908e-05
1.5710422e-05
2.1240902e-05
1.6690148e-05
2.3010919e-05
1.981951e-05
2.3211505e-05
2.1446161e-05
2.1824411e-05
2.1183993e-05
2.1001687e-05
2.0798732e-05
2.0727699e-05
2.0739296e-05
2.0837525e-05
2.1019662e-05
2.128484e-05
2.1631195e-05
2.2058807e-05
2.2569336e-05
2.316824e-05
2.3862344e-05
2.4663e-05
2.5584745e-05
2.6643721e-05
2.7856809e-05
2.9246025e-05
3.0840172e-05
3.2674773e-05
3.4794013e-05
3.7250876e-05
4.010892e-05
4.3443395e-05
4.7346642e-05
5.1935018e-05
5.7347241e-05
6.3743437e-05
7.1325692e-05
8.0344969e-05
9.1102575e-05
0.00010395644
0.00011935227
0.00013783575
0.00016007378
0.00018688117
0.00021925788
0.00025843736
0.00030593401
0.00036361221
0.00043376616
0.00051923232
0.0006235325
0.00075105431
0.00090729948
0.0010185154
0.0010184285
0.0010182909
0.0010181226
0.0010178938
0.001017605
0.0010172488
0.0010168161
0.0010162959
0.0010156712
0.0010149123
0.0010139607
0.0010126797
0.0010109074
0.0010093852
0.0010079577
0.0010066279
0.0010053399
0.0010040753
0.0010039947
0.0010046984
3.7065041e-07
8.9968319e-06
1.8725903e-05
1.9565617e-05
1.4772327e-05
1.9818421e-05
1.4011458e-05
1.8486423e-05
1.5030335e-05
2.0218888e-05
1.8098906e-05
2.069844e-05
1.9455838e-05
1.9571786e-05
1.9078602e-05
1.8874117e-05
1.8702959e-05
1.863692e-05
1.8651394e-05
1.8744203e-05
1.8913936e-05
1.9160065e-05
1.9481036e-05
1.9877167e-05
2.0349756e-05
2.0904053e-05
2.1546152e-05
2.2286331e-05
2.3138128e-05
2.4117264e-05
2.523976e-05
2.6525967e-05
2.8002746e-05
2.9703136e-05
3.1668588e-05
3.3948949e-05
3.6604539e-05
3.9706755e-05
4.3342152e-05
4.7620431e-05
5.2675556e-05
5.865983e-05
6.576438e-05
7.422837e-05
8.4342747e-05
9.6449776e-05
0.00011097635
0.00012844677
0.00014950331
0.00017493175
0.00020569589
0.00024298714
0.0002882694
0.00034334767
0.00041044417
0.0004923069
0.00059234889
0.00071482104
0.00086503565
0.0010178092
0.0010177405
0.0010175815
0.001017398
0.0010171566
0.0010168574
0.0010164927
0.001016053
0.0010155254
0.0010148921
0.0010141218
0.0010131611
0.0010119
0.0010101936
0.0010087158
0.0010073446
0.0010060857
0.0010048636
0.0010037184
0.0010036113
0.0010039943
3.3693432e-07
8.7069625e-06
1.7798861e-05
1.8189576e-05
1.329728e-05
1.7522068e-05
1.2503405e-05
1.6177408e-05
1.3546615e-05
1.7844744e-05
1.654303e-05
1.8466465e-05
1.7611697e-05
1.7535901e-05
1.7152646e-05
1.6946566e-05
1.6803377e-05
1.6747396e-05
1.6767467e-05
1.6858366e-05
1.701924e-05
1.7249961e-05
1.7549316e-05
1.7917977e-05
1.835701e-05
1.8871599e-05
1.9467353e-05
2.0153701e-05
2.0943237e-05
2.1851335e-05
2.2893451e-05
2.4088522e-05
2.5461833e-05
2.7044293e-05
2.8875045e-05
3.1001225e-05
3.3480363e-05
3.6380831e-05
3.9784577e-05
4.3795119e-05
4.8542738e-05
5.4173771e-05
6.0870513e-05
6.8861621e-05
7.8430455e-05
8.9907132e-05
0.00010370356
0.00012032734
0.00014040152
0.00016469025
0.00019412941
0.00022987886
0.00027336451
0.00032634773
0.00039099833
0.00046999971
0.00056668485
0.00068520642
0.00083074905
0.0010097922
0.0010171039
0.00101692
0.001016716
0.0010164569
0.0010161418
0.0010157634
0.0010153112
0.0010147714
0.0010141248
0.001013339
0.0010123625
0.0010111113
0.0010094653
0.0010080431
0.0010067368
0.0010055504
0.0010044033
0.0010033779
0.0010032406
0.001003347
3.0645019e-07
8.4917291e-06
1.6986088e-05
1.8204874e-05
1.3263153e-05
1.5513487e-05
1.1174389e-05
1.4189827e-05
1.2266478e-05
1.5788909e-05
1.5153532e-05
1.6448083e-05
1.5883771e-05
1.5678144e-05
1.5376497e-05
1.5183217e-05
1.5063369e-05
1.5018306e-05
1.5042977e-05
1.5131514e-05
1.528326e-05
1.5498656e-05
1.5776878e-05
1.611907e-05
1.6526198e-05
1.7003465e-05
1.7556137e-05
1.8192971e-05
1.8925628e-05
1.9769096e-05
2.0738454e-05
2.1851467e-05
2.3132112e-05
2.4609457e-05
2.6320651e-05
2.8310476e-05
3.0633956e-05
3.3357001e-05
3.655809e-05
4.0334851e-05
4.4814436e-05
5.0138662e-05
5.6482879e-05
6.4065885e-05
7.3165182e-05
8.4101326e-05
9.727378e-05
0.00011317627
0.00013241573
0.00015573913
0.00018405893
0.00021850916
0.00026048404
0.0003117087
0.00037430948
0.00045091552
0.0005447918
0.00066000673
0.00080163737
0.00097601471
0.0010165162
0.001016304
0.0010160741
0.0010157918
0.0010154555
0.0010150577
0.0010145876
0.0010140303
0.0010133657
0.0010125598
0.00101156
0.0010103072
0.0010087313
0.0010073753
0.0010061409
0.001005028
0.0010039629
0.0010030423
0.0010028582
0.0010026867
2.8020779e-07
8.3615995e-06
1.6334973e-05
1.7992226e-05
1.3059115e-05
1.3751479e-05
1.0563379e-05
1.2543824e-05
1.1367985e-05
1.4051919e-05
1.3933578e-05
1.4672023e-05
1.4301752e-05
1.4019496e-05
1.3769591e-05
1.3591497e-05
1.3486856e-05
1.3448696e-05
1.3474418e-05
1.3558428e-05
1.370003e-05
1.3900154e-05
1.4158205e-05
1.4475717e-05
1.4853644e-05
1.5297183e-05
1.5811315e-05
1.6404275e-05
1.7086817e-05
1.7873512e-05
1.8779233e-05
1.9820796e-05
2.1021142e-05
2.2407807e-05
2.4016305e-05
2.588946e-05
2.8080177e-05
3.0652401e-05
3.3682363e-05
3.7262613e-05
4.1517438e-05
4.6585657e-05
5.2638085e-05
5.9884607e-05
6.8598772e-05
7.9094621e-05
9.1762175e-05
0.00010708499
0.00012565761
0.00014821544
0.00017565351
0.00020908745
0.00024988844
0.00029975546
0.0003607841
0.00043556425
0.00052731074
0.00064002875
0.00077871476
0.00094958875
0.0010159709
0.0010157279
0.001015467
0.0010151568
0.0010147945
0.0010143724
0.0010138795
0.0010132999
0.001012613
0.0010117842
0.0010107567
0.0010094882
0.0010079954
0.0010067156
0.0010055608
0.0010045231
0.0010035434
0.0010027273
0.0010024806
0.0010020673
2.501468e-07
8.2906044e-06
1.5825297e-05
1.7031961e-05
1.2958059e-05
1.2155281e-05
1.0619043e-05
1.1560413e-05
1.0970501e-05
1.2549059e-05
1.2835536e-05
1.3100567e-05
1.2832042e-05
1.2515947e-05
1.2295376e-05
1.2132595e-05
1.2039105e-05
1.2006586e-05
1.203294e-05
1.2113155e-05
1.224622e-05
1.2433471e-05
1.2674297e-05
1.2894245e-05
1.323786e-05
1.3644404e-05
1.4118103e-05
1.4666473e-05
1.529918e-05
1.6030042e-05
1.6873693e-05
1.7846023e-05
1.8969019e-05
2.0268752e-05
2.1779216e-05
2.354144e-05
2.5606337e-05
2.8035915e-05
3.0904918e-05
3.4560695e-05
3.8632342e-05
4.349308e-05
4.9311645e-05
5.629026e-05
6.4699613e-05
7.4850184e-05
8.7125481e-05
0.00010200224
0.0001200658
0.00014204526
0.00016882348
0.00020150445
0.00024144393
0.00029032361
0.00035021932
0.00042369492
0.00051393051
0.0006248859
0.00076149963
0.00092991172
0.0010154636
0.0010151868
0.0010148906
0.0010145481
0.0010141555
0.0010137047
0.0010131845
0.0010125786
0.0010118652
0.0010110111
0.0010099562
0.0010086608
0.0010072666
0.0010060715
0.001005003
0.0010040421
0.0010031464
0.0010024207
0.0010021112
0.0010015632
2.2881287e-07
8.2507407e-06
1.5389637e-05
1.549277e-05
1.1870598e-05
1.0598681e-05
9.1777941e-06
1.0319353e-05
9.6329027e-06
1.1282524e-05
1.1727793e-05
1.1655044e-05
1.1427028e-05
1.1117998e-05
1.0921237e-05
1.0778148e-05
1.069812e-05
1.0674068e-05
1.0638933e-05
1.0702563e-05
1.0819109e-05
1.0988916e-05
1.1209758e-05
1.148187e-05
1.1809385e-05
1.2195328e-05
1.2644215e-05
1.3163489e-05
1.3762268e-05
1.4453929e-05
1.5253288e-05
1.6175735e-05
1.7242789e-05
1.8479585e-05
1.9919209e-05
2.1601535e-05
2.3576249e-05
2.5904136e-05
2.865934e-05
3.1932129e-05
3.5832528e-05
4.0499874e-05
4.6102657e-05
5.3282563e-05
6.1468407e-05
7.1369892e-05
8.336727e-05
9.7933718e-05
0.00011564868
0.00013724052
0.00016358546
0.00019578291
0.00023518149
0.00028345499
0.00034267113
0.00041538213
0.00050475014
0.0006147091
0.00075016304
0.00091720449
0.0010149877
0.0010146744
0.001014339
0.0010139604
0.0010135337
0.0010130505
0.0010124995
0.0010118638
0.0010111207
0.001010239
0.0010091614
0.0010078456
0.0010065512
0.0010054476
0.0010044713
0.0010035899
0.0010027777
0.0010021317
0.001001773
0.0010011015
2.1126041e-07
8.2090568e-06
1.4935473e-05
1.3557049e-05
9.7611012e-06
9.4264877e-06
7.5701503e-06
8.7996885e-06
8.9715285e-06
1.0148489e-05
1.0600151e-05
1.0308032e-05
1.009902e-05
9.8210339e-06
9.6484625e-06
9.4607669e-06
9.3713436e-06
9.3427228e-06
9.3674974e-06
9.4427661e-06
9.5644312e-06
9.7340667e-06
9.9506223e-06
1.0214075e-05
1.0528579e-05
1.0898051e-05
1.1327052e-05
1.1823055e-05
1.2394801e-05
1.3055212e-05
1.3819377e-05
1.4702418e-05
1.5725669e-05
1.6913606e-05
1.8298745e-05
1.9920244e-05
2.182703e-05
2.4079183e-05
2.6750125e-05
2.992918e-05
3.3726529e-05
3.8279249e-05
4.3758258e-05
5.0361727e-05
5.8343856e-05
6.8021029e-05
8.0478182e-05
9.4869102e-05
0.000112395
0.0001337888
0.00015992598
0.00019190841
0.00023108596
0.00027913408
0.00033812425
0.00041061179
0.00049975828
0.00060949185
0.00074470526
0.00091147476
0.0010145366
0.0010141842
0.0010138065
0.0010133885
0.0010129245
0.001012406
0.0010118213
0.0010111535
0.0010103783
0.0010094666
0.0010083718
0.0010070509
0.001005857
0.0010048488
0.0010039686
0.0010031704
0.0010024429
0.0010018747
0.0010014767
0.0010007007
1.9338103e-07
8.167809e-06
1.3427839e-05
1.1808637e-05
7.8991032e-06
8.3680057e-06
6.7323843e-06
7.9416918e-06
8.3039088e-06
9.0744049e-06
9.4788472e-06
9.0766764e-06
8.874512e-06
8.5497564e-06
8.3682732e-06
8.2505785e-06
8.193684e-06
8.1890555e-06
8.2307894e-06
8.3155964e-06
8.4443022e-06
8.6141975e-06
8.8276439e-06
9.0846328e-06
9.3895227e-06
9.7466188e-06
1.0160632e-05
1.0639189e-05
1.1190793e-05
1.1827941e-05
1.256605e-05
1.3420273e-05
1.4411983e-05
1.5565267e-05
1.6912386e-05
1.8492182e-05
2.0353251e-05
2.2555491e-05
2.5172512e-05
2.8293896e-05
3.2029726e-05
3.6516447e-05
4.1927802e-05
4.8461688e-05
5.6374075e-05
6.5982708e-05
7.7679482e-05
9.192447e-05
0.00011030082
0.00013168754
0.00015784489
0.00018988416
0.00022916545
0.00027737595
0.00033660338
0.00040942175
0.00049901074
0.00060931457
0.00074523938
0.00091287621
0.0010141035
0.0010137094
0.001013287
0.0010128269
0.0010123232
0.0010117669
0.0010111464
0.001010445
0.0010096371
0.0010086935
0.0010075853
0.0010062865
0.0010051912
0.0010042788
0.0010034967
0.0010027852
0.0010021385
0.0010016372
0.0010012376
0.0010003905
1.786074e-07
8.1215562e-06
1.0663432e-05
9.7985163e-06
6.486014e-06
7.4465493e-06
6.1338292e-06
7.1320383e-06
7.7628103e-06
8.0964497e-06
8.3767276e-06
7.8693578e-06
7.6214105e-06
7.3938363e-06
7.2582031e-06
7.1781677e-06
7.1490258e-06
7.1650376e-06
7.2214919e-06
7.3173994e-06
7.4500819e-06
7.6219003e-06
7.8342436e-06
8.0875863e-06
8.3863785e-06
8.7353557e-06
9.1394912e-06
9.6066167e-06
1.0145194e-05
1.0767369e-05
1.14299e-05
1.2256293e-05
1.3218123e-05
1.4339071e-05
1.565113e-05
1.7192859e-05
1.9012596e-05
2.1170109e-05
2.3739315e-05
2.6810332e-05
3.0494155e-05
3.5202388e-05
4.0602702e-05
4.7135167e-05
5.505767e-05
6.4690539e-05
7.6435798e-05
9.0763117e-05
0.00010826483
0.00012967923
0.00015733742
0.00018970909
0.0002294242
0.00027819232
0.0003381305
0.00041184827
0.00050256344
0.00061426045
0.00075188583
0.00092157656
0.0010136814
0.0010132436
0.0010127747
0.0010122706
0.0010117252
0.0010111295
0.0010104717
0.0010097358
0.0010088965
0.001007921
0.0010067973
0.0010055608
0.0010045604
0.0010037412
0.0010030563
0.0010024344
0.0010018643
0.0010014196
0.0010010653
0.0010001782
1.6535848e-07
8.074324e-06
8.4109055e-06
8.328754e-06
5.7016381e-06
6.5961202e-06
5.6280043e-06
6.4218782e-06
7.2125316e-06
7.183168e-06
7.1820508e-06
6.749638e-06
6.5464038e-06
6.3777048e-06
6.2809795e-06
6.2322813e-06
6.22691e-06
6.2609246e-06
6.3306455e-06
6.4358256e-06
6.5751979e-06
6.750386e-06
6.9639129e-06
7.2167136e-06
7.5133203e-06
7.8249377e-06
8.217614e-06
8.6725839e-06
9.1981713e-06
9.8060811e-06
1.0510409e-05
1.1329513e-05
1.2284075e-05
1.3397834e-05
1.4703069e-05
1.6238717e-05
1.8053677e-05
2.0208464e-05
2.2778417e-05
2.585549e-05
2.9553197e-05
3.4013395e-05
3.9409884e-05
4.5951012e-05
5.3898548e-05
6.4130717e-05
7.6037351e-05
9.0579935e-05
0.00010835972
0.00013013556
0.00015683383
0.00019138122
0.00023186731
0.00028159796
0.00034273351
0.00041793719
0.00051048696
0.00062443441
0.00076479759
0.00093779103
0.0010132642
0.0010127804
0.0010122643
0.0010117148
0.0010111264
0.0010104904
0.0010097946
0.0010090237
0.0010081552
0.0010071536
0.001006007
0.0010048798
0.0010039708
0.0010032393
0.0010026476
0.0010021172
0.0010016171
0.0010012209
0.0010009029
0.0010000611
1.5351917e-07
8.0164952e-06
6.6873024e-06
7.3060021e-06
5.0769728e-06
5.8306415e-06
5.1929667e-06
5.7935469e-06
6.5568368e-06
6.1475005e-06
6.1031907e-06
5.7694096e-06
5.607264e-06
5.4861773e-06
5.4227647e-06
5.4010908e-06
5.4168457e-06
5.4675242e-06
5.5502638e-06
5.665499e-06
5.8125239e-06
5.993271e-06
6.1842822e-06
6.4340993e-06
6.7273354e-06
7.0681266e-06
7.4634848e-06
7.92091e-06
8.4489405e-06
9.0594765e-06
9.7667572e-06
1.0588906e-05
1.1547833e-05
1.2667625e-05
1.3981092e-05
1.5527911e-05
1.7358068e-05
1.9533327e-05
2.2131141e-05
2.5246303e-05
2.899505e-05
3.3522243e-05
3.9010364e-05
4.5672703e-05
5.3778772e-05
6.3663813e-05
7.5744315e-05
9.0523597e-05
0.00010957795
0.00013190774
0.00015930098
0.00019293483
0.00023649348
0.00028760213
0.00035043551
0.00042773068
0.00052285019
0.00063994236
0.00078413434
0.00096175294
0.0010128462
0.0010123148
0.0010117511
0.0010111556
0.0010105235
0.0010098468
0.0010091133
0.0010083072
0.0010074104
0.001006396
0.0010052497
0.0010042469
0.0010034275
0.0010027772
0.0010022712
0.001001833
0.0010014
0.0010010391
0.0010008136
0.00099997565
1.4295217e-07
7.9452485e-06
5.3600144e-06
6.3770107e-06
4.5205239e-06
5.1499473e-06
4.82041e-06
5.1523754e-06
5.733181e-06
5.2470415e-06
5.1557812e-06
4.9110545e-06
4.7875715e-06
4.7062729e-06
4.672415e-06
4.6750829e-06
4.7105541e-06
4.7773771e-06
4.8734691e-06
4.9809039e-06
5.131472e-06
5.315608e-06
5.5355586e-06
5.794262e-06
6.0959634e-06
6.4451826e-06
6.8488542e-06
7.3151042e-06
7.8526931e-06
8.4736787e-06
9.1924178e-06
1.0027252e-05
1.0950692e-05
1.2077446e-05
1.3400001e-05
1.4958746e-05
1.6804963e-05
1.9001719e-05
2.1628633e-05
2.4783845e-05
2.8587322e-05
3.3440171e-05
3.9071963e-05
4.5918566e-05
5.4258361e-05
6.4435623e-05
7.6885992e-05
9.2133977e-05
0.00011082152
0.00013497231
0.00016329522
0.00019808437
0.00024083345
0.00029620072
0.00036124605
0.0004412565
0.00053970738
0.00066087553
0.00081004191
0.00099369008
0.0010124227
0.0010118423
0.0010112317
0.0010105904
0.0010099142
0.0010091968
0.0010084264
0.0010075869
0.001006661
0.0010056417
0.0010045557
0.001003665
0.0010029345
0.0010023591
0.0010019275
0.0010015726
0.0010012131
0.001000895
0.0010007304
0.0010000304
1.3352231e-07
7.8139938e-06
4.347017e-06
5.5500167e-06
4.0226703e-06
4.5432685e-06
4.4929811e-06
4.4558194e-06
4.9024935e-06
4.4435446e-06
4.3341027e-06
4.1627492e-06
4.076014e-06
4.0291201e-06
4.0221269e-06
4.0473163e-06
4.1016766e-06
4.1678289e-06
4.2723583e-06
4.4068496e-06
4.5721495e-06
4.7697679e-06
5.0026394e-06
5.2739085e-06
5.588387e-06
5.9508601e-06
6.3683282e-06
6.8286643e-06
7.3765749e-06
8.0085924e-06
8.7391131e-06
9.5864915e-06
1.0573168e-05
1.1727348e-05
1.3082675e-05
1.4680834e-05
1.6575387e-05
1.8831726e-05
2.1532561e-05
2.4780922e-05
2.8702173e-05
3.3454313e-05
3.922841e-05
4.6259811e-05
5.4838467e-05
6.5869571e-05
7.8797649e-05
9.4642125e-05
0.00011407518
0.00013792497
0.00016878119
0.00020500886
0.00024953901
0.00030428076
0.00037514626
0.00045851039
0.00056107627
0.00068728345
0.00084261615
0.0010126107
0.0010119899
0.0010113603
0.0010107035
0.0010100173
0.0010092977
0.0010085395
0.0010077332
0.0010068633
0.0010059125
0.0010048817
0.0010039205
0.001003136
0.0010024926
0.0010019879
0.0010016191
0.0010013329
0.0010010499
0.0010007946
0.0010006514
0.0010000553
1.2515306e-07
7.4891424e-06
3.6470509e-06
4.8157661e-06
3.5788547e-06
4.0052229e-06
3.9814643e-06
3.8251077e-06
4.1026532e-06
3.7330578e-06
3.6296318e-06
3.5167888e-06
3.4644815e-06
3.4479531e-06
3.4655403e-06
3.4988126e-06
3.5652236e-06
3.660573e-06
3.7840667e-06
3.9359464e-06
4.1176878e-06
4.3313218e-06
4.580204e-06
4.8677671e-06
5.1873306e-06
5.5638119e-06
5.9957434e-06
6.49122e-06
7.0604223e-06
7.7154753e-06
8.4711468e-06
9.346531e-06
1.0364983e-05
1.1555772e-05
1.2954857e-05
1.4605441e-05
1.6563937e-05
1.8898795e-05
2.1696098e-05
2.5064971e-05
2.9135748e-05
3.4074313e-05
4.0084098e-05
4.741086e-05
5.6360727e-05
6.7309175e-05
8.1434963e-05
9.8003728e-05
0.00011833328
0.00014330106
0.00017396191
0.00021364784
0.00026029946
0.00031766353
0.00038819624
0.00047943116
0.00058690793
0.0007191381
0.0008818555
0.0010122029
0.0010115448
0.0010108675
0.0010101657
0.001009436
0.0010086742
0.0010078758
0.0010070337
0.0010061357
0.0010051735
0.0010041715
0.0010033428
0.0010026588
0.0010020995
0.0010016625
0.0010013469
0.0010011101
0.0010008871
0.0010006991
0.0010005979
0.001000064
1.179233e-07
7.0826022e-06
3.2027863e-06
4.1642031e-06
3.1834674e-06
3.3790358e-06
3.5282961e-06
3.2472128e-06
3.3798305e-06
3.1159315e-06
3.033303e-06
2.9666843e-06
2.9456344e-06
2.9562301e-06
2.9813347e-06
3.0432136e-06
3.1328456e-06
3.2490474e-06
3.3919308e-06
3.5624667e-06
3.762674e-06
3.9948647e-06
4.254509e-06
4.5589474e-06
4.9073452e-06
5.305382e-06
5.7598852e-06
6.279237e-06
6.87382e-06
7.5565253e-06
8.3425861e-06
9.2519029e-06
1.0308885e-05
1.154426e-05
1.2940349e-05
1.4640441e-05
1.6659463e-05
1.9069445e-05
2.2092516e-05
2.560718e-05
2.985881e-05
3.5021173e-05
4.1311225e-05
4.8987893e-05
5.837284e-05
6.986412e-05
8.3949773e-05
0.00010122822
0.00012352769
0.00014978977
0.00018205347
0.00022170362
0.00027300452
0.00033339904
0.00040766705
0.00050387058
0.00061704876
0.00075628897
0.00092761482
0.0010117841
0.0010110868
0.0010103644
0.0010096188
0.0010088472
0.0010080452
0.001007208
0.0010063309
0.0010054064
0.0010044363
0.0010035424
0.0010028227
0.0010022317
0.0010017511
0.0010013787
0.0010011094
0.001000905
0.0010007186
0.00100059
0.0010005287
0.0010001224
1.1209154e-07
6.1104032e-06
2.8228827e-06
3.5724739e-06
2.8403812e-06
2.8015283e-06
3.0775396e-06
2.7242257e-06
2.7595601e-06
2.5888706e-06
2.5337701e-06
2.5046259e-06
2.5042476e-06
2.5323353e-06
2.5916725e-06
2.6782151e-06
2.7900895e-06
2.9271293e-06
3.0901962e-06
3.2807016e-06
3.4958984e-06
3.7468167e-06
4.0335544e-06
4.360162e-06
4.7314786e-06
5.1533736e-06
5.6329849e-06
6.1790163e-06
6.8021718e-06
7.4992831e-06
8.3142685e-06
9.2554292e-06
1.034817e-05
1.1624321e-05
1.312369e-05
1.4896054e-05
1.7002953e-05
1.9521433e-05
2.2547096e-05
2.6198063e-05
3.0621002e-05
3.6255905e-05
4.2866079e-05
5.0942308e-05
6.0823007e-05
7.2928675e-05
8.7776161e-05
0.00010600114
0.00012956267
0.00015728188
0.00019134955
0.0002332265
0.00028747964
0.00035128691
0.00042977211
0.00052631916
0.00065119888
0.00079840991
0.00097954513
0.0010113539
0.0010106176
0.0010098532
0.0010090654
0.0010082533
0.0010074132
0.0010065394
0.0010056282
0.0010046869
0.0010037456
0.0010029843
0.0010023614
0.0010018531
0.0010014442
0.0010011331
0.0010009073
0.0010007254
0.0010005602
0.0010004877
0.0010004548
0.0010001732
1.0722534e-07
4.267849e-06
2.4780968e-06
3.0242003e-06
2.4101054e-06
2.3173553e-06
2.6059363e-06
2.2591695e-06
2.2435969e-06
2.1451851e-06
2.1204768e-06
2.1165452e-06
2.1440071e-06
2.2023202e-06
2.2874569e-06
2.3970996e-06
2.5305882e-06
2.6884371e-06
2.8692853e-06
3.0791969e-06
3.3191851e-06
3.5920972e-06
3.9013968e-06
4.2512943e-06
4.6468657e-06
5.0942252e-06
5.6007927e-06
6.1662627e-06
6.8168428e-06
7.5598492e-06
8.4124482e-06
9.3959601e-06
1.0537256e-05
1.1870084e-05
1.3436753e-05
1.529e-05
1.7495384e-05
2.0134482e-05
2.3308795e-05
2.7144286e-05
3.179704e-05
3.7459509e-05
4.4699847e-05
5.3217433e-05
6.3645625e-05
7.6429334e-05
9.2115933e-05
0.00011137994
0.00013505207
0.00016562733
0.00020167397
0.0002459979
0.00030051454
0.00037102929
0.00045415774
0.00055644284
0.00068886988
0.00084494131
0.0010116809
0.0010109142
0.0010101399
0.0010093377
0.0010085101
0.0010076582
0.0010067813
0.001005875
0.0010049335
0.0010039751
0.0010031548
0.001002494
0.0010019579
0.0010015222
0.0010011767
0.0010009211
0.0010007381
0.0010005785
0.0010004183
0.0010003746
0.0010003968
0.0010002247
1.0205029e-07
3.520633e-06
2.1195348e-06
2.5202058e-06
2.0575882e-06
1.9127227e-06
2.1226561e-06
1.8518704e-06
1.8242501e-06
1.7806829e-06
1.7821962e-06
1.8090383e-06
1.8680307e-06
1.9529306e-06
2.0613738e-06
2.1924887e-06
2.3465194e-06
2.5226204e-06
2.725583e-06
2.9565216e-06
3.2179651e-06
3.5129777e-06
3.8452225e-06
4.2190727e-06
4.6397774e-06
5.1136711e-06
5.6421225e-06
6.2444524e-06
6.9279868e-06
7.7071053e-06
8.5998943e-06
9.6289326e-06
1.082262e-05
1.2216664e-05
1.3856014e-05
1.5796954e-05
1.8109379e-05
2.0879928e-05
2.4216372e-05
2.8251933e-05
3.3151998e-05
3.9404278e-05
4.6755047e-05
5.5746078e-05
6.676143e-05
8.0271903e-05
9.6857189e-05
0.00011723159
0.0001435933
0.00017462933
0.00021278975
0.00025972989
0.00031748418
0.00039221133
0.00048033365
0.00058880724
0.00072934061
0.00089502869
0.001011255
0.0010104659
0.001009657
0.0010088217
0.0010079586
0.0010070686
0.0010061539
0.0010052169
0.0010042662
0.0010033502
0.001002642
0.0010020698
0.0010016089
0.0010012373
0.001000947
0.001000737
0.0010005893
0.0010004581
0.0010003165
0.0010002927
0.0010003336
0.001000234
9.8251494e-08
2.8114414e-06
1.8090574e-06
2.0148851e-06
1.7661802e-06
1.5666782e-06
1.6771003e-06
1.5070967e-06
1.4943047e-06
1.4941422e-06
1.5223074e-06
1.5820725e-06
1.6675346e-06
1.7752185e-06
1.9042099e-06
2.0547251e-06
2.2267019e-06
2.4232744e-06
2.646012e-06
2.897236e-06
3.1797207e-06
3.4967094e-06
3.8520009e-06
4.2500886e-06
4.6963578e-06
5.1937517e-06
5.7555737e-06
6.3892668e-06
7.1068453e-06
7.923383e-06
8.8580122e-06
9.9346399e-06
1.1183364e-05
1.2641982e-05
1.4358034e-05
1.6391321e-05
1.8816611e-05
2.172572e-05
2.5233324e-05
2.948063e-05
3.4870676e-05
4.1214296e-05
4.8963408e-05
5.844865e-05
7.0075355e-05
8.434268e-05
0.00010186435
0.00012339716
0.00015122394
0.00018403399
0.00022439312
0.00027405671
0.0003351893
0.00041427082
0.00050762538
0.00062260452
0.00077162
0.00094747722
0.0010108271
0.0010100129
0.0010091733
0.0010083089
0.0010074159
0.0010064934
0.0010055429
0.0010045724
0.0010036131
0.0010028312
0.0010022043
0.0010017069
0.0010013101
0.001000995
0.0010007534
0.0010005801
0.0010004538
0.0010003386
0.0010002332
0.0010002268
0.0010002854
0.0010002344
9.6031627e-08
2.1929428e-06
1.5391208e-06
1.5345846e-06
1.4975107e-06
1.2709659e-06
1.3147332e-06
1.2320618e-06
1.2467849e-06
1.2773604e-06
1.3387902e-06
1.4244333e-06
1.5312586e-06
1.6579317e-06
1.8047036e-06
1.9725812e-06
2.1624091e-06
2.3771772e-06
2.6187068e-06
2.8895412e-06
3.1925988e-06
3.5312409e-06
3.9093683e-06
4.3315723e-06
4.8033435e-06
5.3313562e-06
5.9238369e-06
6.5910101e-06
7.3371736e-06
8.1916451e-06
9.1687929e-06
1.029394e-05
1.1599007e-05
1.3124075e-05
1.4919334e-05
1.711709e-05
1.9677115e-05
2.2750882e-05
2.6460611e-05
3.0957116e-05
3.6426185e-05
4.3096345e-05
5.1249957e-05
6.123464e-05
7.3478564e-05
8.8509437e-05
0.00010697646
0.00013081225
0.00015893987
0.00019353673
0.00023611073
0.00028852207
0.00035640916
0.00043650229
0.00053517542
0.00065679756
0.00081442634
0.0010007431
0.0010104045
0.0010095638
0.0010086957
0.0010078042
0.0010068855
0.0010059374
0.0010049608
0.0010039771
0.0010030916
0.0010023952
0.0010018401
0.0010014023
0.0010010579
0.0010007913
0.0010005925
0.0010004519
0.0010003456
0.001000244
0.0010001588
0.0010001722
0.0010002442
0.0010002304
9.6175538e-08
1.6656689e-06
1.3113449e-06
1.1670487e-06
1.2275473e-06
1.0235262e-06
1.0488118e-06
1.028821e-06
1.0719051e-06
1.1318675e-06
1.2173331e-06
1.322525e-06
1.4463534e-06
1.588953e-06
1.7513739e-06
1.9351107e-06
2.1416815e-06
2.3736617e-06
2.6332189e-06
2.9230079e-06
3.2460323e-06
3.6057313e-06
4.0060907e-06
4.451802e-06
4.9484822e-06
5.5029711e-06
6.1237291e-06
6.8213354e-06
7.6091076e-06
8.5038885e-06
9.5269715e-06
1.0705331e-05
1.207297e-05
1.3672657e-05
1.5557953e-05
1.7795701e-05
2.04691e-05
2.3681701e-05
2.7561677e-05
3.2267736e-05
3.7995949e-05
4.4987571e-05
5.3537725e-05
6.401208e-05
7.6859898e-05
9.3401977e-05
0.00011293314
0.00013693944
0.00016646465
0.00020279752
0.00024752734
0.00030545752
0.00037383079
0.00045808749
0.0005619764
0.00069684793
0.00085620048
0.0010108581
0.0010099971
0.0010091297
0.0010082356
0.0010073173
0.0010063736
0.001005405
0.0010044172
0.001003444
0.0010026686
0.0010020414
0.001001545
0.0010011553
0.0010008529
0.0010006246
0.0010004611
0.0010003472
0.0010002577
0.0010001696
0.0010001037
0.0010001301
0.0010002111
0.0010002208
9.94841e-08
1.235376e-06
1.1227437e-06
8.9831779e-07
1.0701954e-06
8.1943779e-07
8.6626249e-07
8.9102498e-07
9.5686598e-07
1.0399126e-06
1.1427721e-06
1.2629727e-06
1.4008755e-06
1.5574651e-06
1.734205e-06
1.9328091e-06
2.1552251e-06
2.4034778e-06
2.6802011e-06
2.9880271e-06
3.3300233e-06
3.7097013e-06
4.1311341e-06
4.5991233e-06
5.1194264e-06
5.6990667e-06
6.3467505e-06
7.0734354e-06
7.8929595e-06
8.8229017e-06
9.8855108e-06
1.1109045e-05
1.2529159e-05
1.419073e-05
1.6149974e-05
1.8477074e-05
2.1259308e-05
2.4604918e-05
2.8647823e-05
3.3553455e-05
3.9795827e-05
4.7146241e-05
5.6135106e-05
6.7146383e-05
8.0652178e-05
9.7234211e-05
0.00011760983
0.00014266389
0.00017348521
0.00021340019
0.00026047422
0.000318457
0.00038991968
0.00047805119
0.00059253491
0.00072782908
0.00089497151
0.0010104872
0.0010096112
0.0010087218
0.001007806
0.0010068641
0.0010058947
0.0010049017
0.001003909
0.0010030279
0.0010023262
0.0010017613
0.0010013134
0.0010009607
0.0010006988
0.001000495
0.0010003585
0.0010002636
0.0010001878
0.0010001133
0.0010000652
0.001000099
0.0010001816
0.0010002031
1.06065e-07
9.5607535e-07
9.5828063e-07
7.5967171e-07
7.6292153e-07
6.9890329e-07
7.4402422e-07
8.0387224e-07
8.8695772e-07
9.8612009e-07
1.1020478e-06
1.2346369e-06
1.3849389e-06
1.5542647e-06
1.7442027e-06
1.9565251e-06
2.1932122e-06
2.4564689e-06
2.7487638e-06
3.0728743e-06
3.4319518e-06
3.8296107e-06
4.270052e-06
4.7582406e-06
5.3001504e-06
5.9009792e-06
6.572815e-06
7.3256452e-06
8.181155e-06
9.1461802e-06
1.0249002e-05
1.1519281e-05
1.299441e-05
1.4721395e-05
1.6759075e-05
1.9180806e-05
2.2077745e-05
2.556286e-05
2.9775829e-05
3.4889113e-05
4.1115421e-05
4.8716937e-05
5.8016535e-05
6.9410043e-05
8.3386957e-05
0.00010054983
0.00012272466
0.00014886345
0.00018101618
0.00022059337
0.00026933952
0.00032941816
0.00040351279
0.00049966222
0.000613425
0.00075401425
0.00092792407
0.0010101506
0.0010092586
0.0010083498
0.0010074165
0.0010064582
0.0010054746
0.0010044722
0.0010034884
0.0010026998
0.0010020575
0.0010015436
0.0010011355
0.0010008166
0.0010005955
0.0010003995
0.0010002818
0.0010001967
0.0010001298
0.0010000678
0.0010000343
0.0010000685
0.001000143
0.0010001625
1.2059919e-07
9.6010613e-07
7.9961367e-07
5.6324715e-07
6.0627267e-07
6.0918407e-07
6.7254718e-07
7.5115365e-07
8.4773592e-07
9.5904771e-07
1.0860677e-06
1.2296145e-06
1.3909743e-06
1.5715529e-06
1.7729639e-06
1.9970037e-06
2.2456804e-06
2.5212397e-06
2.8262011e-06
3.1634022e-06
3.5360601e-06
3.9478578e-06
4.4030679e-06
4.9067298e-06
5.4649009e-06
6.0850013e-06
6.7762716e-06
7.5503597e-06
8.4220672e-06
9.41024e-06
1.0538841e-05
1.1838297e-05
1.3347022e-05
1.5113317e-05
1.7197626e-05
1.9675274e-05
2.2639819e-05
2.6207101e-05
3.0520238e-05
3.5755754e-05
4.2131242e-05
5.02724e-05
5.9868475e-05
7.1622236e-05
8.6038311e-05
0.00010373772
0.00012548725
0.00015223412
0.00018514966
0.00022568197
0.00027562953
0.00034033641
0.00041689586
0.0005114244
0.00062825553
0.00077280683
0.00095185342
0.0010098743
0.0010089637
0.0010080336
0.0010070803
0.0010061036
0.0010051056
0.0010041034
0.0010031768
0.0010024489
0.0010018563
0.0010013841
0.0010010102
0.0010007185
0.001000522
0.0010003311
0.0010002244
0.0010001425
0.0010000795
0.0010000279
0.0010000065
0.0010000396
0.001000104
0.0010001175
1.1056874e-07
6.197724e-07
6.3403723e-07
4.6645066e-07
5.0870837e-07
5.5435205e-07
6.3283195e-07
7.2504973e-07
8.3229135e-07
9.5388623e-07
1.090903e-06
1.2443893e-06
1.4156579e-06
1.6061687e-06
1.817568e-06
2.0516984e-06
2.3106228e-06
2.596617e-06
2.9123121e-06
3.2605955e-06
3.6447542e-06
4.0685426e-06
4.5363066e-06
5.0531621e-06
5.6252512e-06
6.2600929e-06
6.9670498e-06
7.757934e-06
8.6548416e-06
9.6659735e-06
1.0820644e-05
1.2150056e-05
1.3693553e-05
1.5500561e-05
1.7632876e-05
2.0167467e-05
2.3199874e-05
2.6848369e-05
3.1259067e-05
3.6612202e-05
4.3129832e-05
5.1085254e-05
6.0814599e-05
7.2732988e-05
8.7351446e-05
0.00010530075
0.00012735999
0.00015584824
0.00018949041
0.00023091622
0.00028196937
0.00034493866
0.00042267436
0.00051873279
0.00063756153
0.00078473649
0.00096724846
0.0010096899
0.0010087633
0.0010078136
0.0010068398
0.0010058424
0.0010048278
0.0010038257
0.0010029626
0.0010022736
0.0010017181
0.0010012761
0.001000926
0.0010006556
0.0010004569
0.0010002871