/*--------------------------------*- C++ -*----------------------------------*\
  =========                 |
  \\      /  F ield         | OpenFOAM: The Open Source CFD Toolbox
   \\    /   O peration     | Website:  https://openfoam.org
    \\  /    A nd           | Version:  12
     \\/     M anipulation  |
\*---------------------------------------------------------------------------*/
FoamFile
{
    format      ascii;
    class       surfaceScalarField;
    location    "0.094";
    object      phi;
}
// * * * * * * * * * * * * * * * * * * * * * * * * * * * * * * * * * * * * * //

dimensions      [1 0 -1 0 0 0 0];

internalField   nonuniform List<scalar> 
31760
(
-0.00063735071
-0.050966814
0.051604743
-0.001601059
-0.064427055
0.065391391
-0.0025921664
-0.063066555
0.064055689
-0.0036106204
-0.068740311
0.069759528
-0.0046840976
-0.070416639
0.071490865
-0.0057863142
-0.074690082
0.07579305
-0.0069579666
-0.077623723
0.078796117
-0.0081690737
-0.081638133
0.082849987
-0.009440047
-0.08526798
0.086539709
-0.010770002
-0.089393674
0.090724393
-0.012155348
-0.093535736
0.094921862
-0.013608045
-0.097955946
0.099409443
-0.015122623
-0.10254069
0.10405609
-0.016707384
-0.10735234
0.10893796
-0.018361876
-0.1123796
0.11403498
-0.02009085
-0.11763917
0.11936906
-0.021896956
-0.12313912
0.12494618
-0.023783383
-0.12889092
0.13077834
-0.025753358
-0.13490559
0.13687661
-0.027810264
-0.14119444
0.14325243
-0.029957519
-0.14776987
0.14991826
-0.032198864
-0.15464391
0.15688643
-0.034537875
-0.16183016
0.1641704
-0.036978433
-0.16934236
0.1717842
-0.039523485
-0.17719508
0.17974146
-0.042177585
-0.18540245
0.18805793
-0.044944596
-0.19398077
0.19674921
-0.047827907
-0.20294666
0.20583147
-0.050830976
-0.21231712
0.21532174
-0.053957803
-0.22211024
0.22523869
-0.05721165
-0.23234503
0.23560056
-0.060595798
-0.24304136
0.24642726
-0.064113005
-0.25422078
0.25773982
-0.067766262
-0.26590449
0.26955967
-0.071557499
-0.27811667
0.28190991
-0.075488312
-0.29088168
0.29481459
-0.079559961
-0.30422536
0.30829919
-0.083772842
-0.31817555
0.3223907
-0.088126685
-0.33276035
0.33711656
-0.092620077
-0.34801138
0.35250726
-0.09725091
-0.36396058
0.36859402
-0.10201564
-0.3806419
0.38540939
-0.10690952
-0.39809161
0.40298844
-0.11192661
-0.4163478
0.42136805
-0.11705903
-0.43545109
0.44058692
-0.12229748
-0.4554434
0.46068556
-0.12763023
-0.47636995
0.48170676
-0.13304421
-0.49827743
0.50369587
-0.13852373
-0.5212163
0.52670077
-0.14405029
-0.54523873
0.55077083
-0.14960267
-0.57039956
0.57595818
-0.15515718
-0.59675728
0.60231883
-0.16068626
-0.62437267
0.62990976
-0.1661588
-0.65330982
0.65879147
-0.17154019
-0.68363571
0.68902748
-0.17679041
-0.71542138
0.72068344
-0.18186533
-0.74874034
0.75382877
-0.18671551
-0.7836697
0.78853528
-0.19128459
-0.82029048
0.82487708
-0.19551043
-0.85868679
0.86293253
-0.19932298
-0.89894639
0.90278149
-0.2026444
-0.94116058
0.94450751
-0.20538737
-0.98542498
0.98819675
-0.20745457
-1.0318388
1.0339385
-0.20873723
-1.0805033
1.0818225
-0.20911446
-1.1315232
1.1319415
-0.20844991
-1.1850035
1.1843851
-0.20659782
-1.2410485
1.2392483
-0.20339097
-1.2997688
1.29662
-0.19864221
-1.3612755
1.3565915
-0.19214937
-1.4256835
1.4192624
-0.18369195
-1.4931117
1.4847326
-0.17301454
-1.5636881
1.5530943
-0.15985014
-1.6375385
1.6244608
-0.1438904
-1.7148069
1.6989337
-0.12478434
-1.7957043
1.7766802
-0.10226941
-1.8804593
1.8580178
-0.075756562
-1.9690781
1.9426336
-0.044996069
-2.0622112
2.0314921
-2.1592824
2.1239206
-0.00063258611
-0.050333959
-0.001500928
-0.063558261
-0.0024005875
-0.062164089
-0.0033592601
-0.067781258
-0.0043286189
-0.069446835
-0.0053756916
-0.073642516
-0.0064377876
-0.076561096
-0.0075801682
-0.08049517
-0.0087483098
-0.084099219
-0.0099909921
-0.088150326
-0.011276638
-0.092249381
-0.012629811
-0.09660202
-0.014040445
-0.10112926
-0.015517646
-0.1058743
-0.01706158
-0.11083477
-0.018676398
-0.11602341
-0.020364281
-0.12145025
-0.022128996
-0.12712517
-0.023973755
-0.13305975
-0.025902136
-0.13926492
-0.027917789
-0.14575303
-0.03002396
-0.1525365
-0.032224747
-0.15962807
-0.034523828
-0.16704192
-0.03692599
-0.17479149
-0.039434029
-0.18289293
-0.042052626
-0.19136062
-0.044785497
-0.20021217
-0.047636906
-0.20946402
-0.050610402
-0.21913498
-0.053710043
-0.22924354
-0.056939134
-0.23981032
-0.060300953
-0.25085693
-0.063798458
-0.26240486
-0.067434041
-0.27447886
-0.071209991
-0.2871034
-0.075127436
-0.30030548
-0.079187839
-0.31411258
-0.083390492
-0.328555
-0.087734934
-0.34366409
-0.092219494
-0.35947299
-0.096840997
-0.37601717
-0.10159499
-0.39333415
-0.10647631
-0.41146275
-0.11147777
-0.43044557
-0.11659069
-0.45032605
-0.12180472
-0.47115105
-0.12710709
-0.49296969
-0.13248335
-0.51583407
-0.13791676
-0.53979865
-0.14338778
-0.56492106
-0.14887415
-0.59126246
-0.15435051
-0.61888679
-0.15978836
-0.6478612
-0.16515549
-0.67825641
-0.17041547
-0.71014763
-0.17552778
-0.74361249
-0.18044683
-0.77873311
-0.18512134
-0.81559622
-0.18949447
-0.85429143
-0.19350224
-0.89491366
-0.19707332
-0.9375615
-0.20012763
-0.98233929
-0.202577
-1.0293543
-0.20432179
-1.0787191
-0.20525257
-1.1305482
-0.20524343
-1.184963
-0.2041586
-1.2420776
-0.2018467
-1.3020183
-0.19813863
-1.3649139
-0.1928501
-1.4308951
-0.18577382
-1.5001041
-0.17668186
-1.5726906
-0.16532013
-1.6488079
-0.1514103
-1.728625
-0.13464837
-1.8123797
-0.11473833
-1.9002912
-0.091235614
-1.9925108
-0.063827312
-2.0895725
-2.190876
-0.00057227811
-0.04976136
-0.0013828521
-0.062747335
-0.0021899922
-0.061356961
-0.0030933167
-0.066877455
-0.0039855124
-0.068554112
-0.0049642905
-0.072663175
-0.0059442762
-0.075580514
-0.0070078718
-0.079430934
-0.0080904539
-0.083015962
-0.0092459034
-0.086994161
-0.010441036
-0.091053495
-0.011700094
-0.095342165
-0.013014004
-0.099814508
-0.014391073
-0.10449635
-0.01583196
-0.10939296
-0.017340258
-0.11451414
-0.01891931
-0.11987018
-0.020572062
-0.12547134
-0.022302778
-0.1313279
-0.024114276
-0.13745224
-0.026011035
-0.14385503
-0.027996569
-0.15054966
-0.030074746
-0.15754853
-0.032250342
-0.1648649
-0.034526611
-0.17251373
-0.03690875
-0.18050922
-0.039400191
-0.18886753
-0.042005982
-0.19760466
-0.044729656
-0.20673853
-0.047576339
-0.21628639
-0.050549113
-0.22626876
-0.05365228
-0.23670506
-0.056889613
-0.2476174
-0.060263764
-0.25902841
-0.063778286
-0.27096192
-0.067435307
-0.28344384
-0.07123702
-0.29650108
-0.075183892
-0.31016288
-0.079276885
-0.324459
-0.083515425
-0.33942236
-0.087897659
-0.35508735
-0.0924214
-0.37148977
-0.097083197
-0.38866841
-0.10187751
-0.40666416
-0.10679825
-0.42552017
-0.11183736
-0.44528184
-0.1169855
-0.46599728
-0.12223067
-0.48771831
-0.12756019
-0.51049764
-0.1329583
-0.53439282
-0.1384067
-0.559464
-0.14388589
-0.58577355
-0.14937246
-0.61338931
-0.1548404
-0.64238096
-0.16026047
-0.6728225
-0.16559972
-0.70479283
-0.17082158
-0.73837316
-0.17588394
-0.77365115
-0.18074141
-0.81071678
-0.18534164
-0.84966665
-0.18962726
-0.8906006
-0.19353333
-0.93362481
-0.19698827
-0.97885018
-0.1999112
-1.0263932
-0.20221215
-1.0763755
-0.20378988
-1.1289227
-0.20453587
-1.1841635
-0.20432347
-1.24223
-0.20301234
-1.3032622
-0.20045378
-1.3673976
-0.19647419
-1.4347919
-0.19089132
-1.505597
-0.18349253
-1.5799939
-0.17404907
-1.658153
-0.16230171
-1.7402751
-0.14798185
-1.826608
-0.13080396
-1.9173857
-0.11039864
-2.0128428
-0.08644135
-2.1134767
-2.2186028
-0.00051621376
-0.049244761
-0.0012662821
-0.061996833
-0.0020010027
-0.060621918
-0.0028519106
-0.066026011
-0.0036781148
-0.067727346
-0.0045903766
-0.071750314
-0.0054936514
-0.074676617
-0.0064840626
-0.078439858
-0.0074867322
-0.082012599
-0.008561593
-0.085918567
-0.0096730346
-0.089941283
-0.010845521
-0.094168867
-0.012070997
-0.098588179
-0.013356769
-0.10320968
-0.014704508
-0.10804428
-0.016117985
-0.11309967
-0.017600499
-0.11838662
-0.019155429
-0.12391532
-0.02078625
-0.12969593
-0.022497312
-0.13573996
-0.024291784
-0.14205929
-0.02617473
-0.14866538
-0.028150057
-0.1555718
-0.030221747
-0.16279173
-0.032394954
-0.17033897
-0.034673623
-0.17822892
-0.037062784
-0.18647665
-0.039566767
-0.19509886
-0.042191012
-0.20411238
-0.044938858
-0.21353654
-0.047815416
-0.2233901
-0.050825025
-0.23369324
-0.053971349
-0.24446874
-0.057258235
-0.25573906
-0.060689053
-0.26752851
-0.064266213
-0.27986394
-0.067991877
-0.29277252
-0.071867907
-0.30628377
-0.07589459
-0.32042904
-0.080071905
-0.33524154
-0.084399179
-0.35075632
-0.088873663
-0.36701123
-0.093492476
-0.38404521
-0.098251174
-0.40190069
-0.10314375
-0.42062239
-0.10816361
-0.44025626
-0.11330098
-0.46085361
-0.11854684
-0.48246548
-0.12388828
-0.50514843
-0.12931158
-0.52896086
-0.13480098
-0.55396492
-0.14033776
-0.58022593
-0.14590158
-0.60781332
-0.15146949
-0.6367994
-0.15701436
-0.66726233
-0.16250778
-0.69928225
-0.16791627
-0.73294546
-0.17320302
-0.76834292
-0.17832693
-0.8055689
-0.18324166
-0.84472518
-0.18789562
-0.88591685
-0.19223102
-0.92925623
-0.19618369
-0.97486056
-0.1996813
-1.0228544
-0.20264337
-1.0733674
-0.20498189
-1.1265327
-0.20659117
-1.1824965
-0.2073647
-1.2413918
-0.20717316
-1.3033813
-0.20588338
-1.3686067
-0.2033419
-1.4372445
-0.19937239
-1.5094702
-0.19379641
-1.5854679
-0.18639678
-1.665448
-0.17694531
-1.7496235
-0.16519928
-1.8382569
-0.15088797
-1.9316086
-0.13369627
-2.0299566
-0.11332829
-2.1337833
-2.2423497
-0.00046103663
-0.048783345
-0.0011639522
-0.06129349
-0.0018217679
-0.059963525
-0.0026164657
-0.065230783
-0.0033687127
-0.066974553
-0.0042231122
-0.070895332
-0.0050596112
-0.073839507
-0.0059845641
-0.077514252
-0.0069160258
-0.081080451
-0.0079179665
-0.084915901
-0.0089553023
-0.088903182
-0.010051183
-0.09307218
-0.011199714
-0.097438796
-0.012407096
-0.1020014
-0.013675718
-0.10677471
-0.015008685
-0.11176571
-0.01640976
-0.1169845
-0.017882725
-0.12244125
-0.019431276
-0.12814621
-0.02105945
-0.13411056
-0.022771963
-0.14034548
-0.024572164
-0.14686381
-0.026465572
-0.15367695
-0.028456772
-0.16079902
-0.030550287
-0.16824386
-0.032751396
-0.17602613
-0.035065308
-0.18416097
-0.037496961
-0.19266534
-0.04005128
-0.20155609
-0.042733467
-0.21085228
-0.045548397
-0.22057298
-0.048500539
-0.23073878
-0.051594245
-0.24137259
-0.054833865
-0.25249686
-0.058222548
-0.26413709
-0.061763367
-0.27632021
-0.065458809
-0.28907398
-0.069310754
-0.30242852
-0.073319928
-0.31641634
-0.077486689
-0.33107099
-0.081809952
-0.34642897
-0.086288495
-0.36252827
-0.090918976
-0.37940993
-0.095697645
-0.39711679
-0.10061996
-0.41569435
-0.10567886
-0.43519107
-0.11086701
-0.45565853
-0.11617517
-0.47714963
-0.1215925
-0.49972256
-0.1271073
-0.52343654
-0.13270495
-0.54835665
-0.13836986
-0.57454915
-0.14408382
-0.60208607
-0.14982634
-0.631042
-0.15557493
-0.66149709
-0.16130367
-0.69353489
-0.16698326
-0.72724507
-0.17258228
-0.76272069
-0.17806406
-0.80006124
-0.18338861
-0.8393718
-0.18851018
-0.88076319
-0.19337826
-0.92435242
-0.1979359
-0.97026313
-0.20211988
-1.018626
-0.20585926
-1.0695785
-0.20907332
-1.1232632
-0.21167649
-1.1798311
-0.21356231
-1.2394362
-0.21462925
-1.3022365
-0.21474291
-1.3684064
-0.21377467
-1.4381175
-0.2115707
-1.5115711
-0.207963
-1.5889668
-0.20276291
-1.6705369
-0.19576115
-1.7565158
-0.18673869
-1.8471763
-0.17546359
-1.9427895
-0.16164305
-2.0436935
-0.14502843
-2.1503279
-2.261963
-0.00041122006
-0.048371746
-0.0010729829
-0.060631314
-0.0016680125
-0.059368043
-0.0024046599
-0.064493631
-0.0030811423
-0.066297515
-0.0038841996
-0.070091699
-0.0046539869
-0.07306911
-0.0055194996
-0.076648095
-0.0063877311
-0.080211538
-0.0073279742
-0.083974939
-0.0083050435
-0.087925355
-0.0093386167
-0.092037806
-0.010425088
-0.096351481
-0.011569131
-0.10085646
-0.012773581
-0.10556932
-0.014042298
-0.110496
-0.015378786
-0.11564696
-0.016786916
-0.12103201
-0.018271188
-0.12666077
-0.019835589
-0.13254493
-0.021485212
-0.13869456
-0.023224867
-0.14512278
-0.025059692
-0.15184068
-0.026994788
-0.15886239
-0.029035765
-0.16620126
-0.03118843
-0.17387176
-0.033457509
-0.18189009
-0.035849299
-0.19027165
-0.038369091
-0.19903429
-0.041022251
-0.20819699
-0.043814354
-0.21777862
-0.046749961
-0.22780079
-0.04983445
-0.23828557
-0.053071095
-0.24925752
-0.056464383
-0.26074094
-0.060017627
-0.27276392
-0.063733003
-0.28535534
-0.067612473
-0.29854556
-0.071657562
-0.31236749
-0.075868311
-0.32685619
-0.080244589
-0.34204831
-0.084784363
-0.35798375
-0.089485873
-0.37470325
-0.094345829
-0.39225119
-0.099359119
-0.41067487
-0.1045206
-0.43002277
-0.10982445
-0.45034714
-0.11526174
-0.471704
-0.12082442
-0.49415061
-0.126501
-0.51774965
-0.13228074
-0.54256541
-0.13814954
-0.56866751
-0.14409225
-0.59612904
-0.15009165
-0.62502659
-0.1561283
-0.65544256
-0.16218036
-0.68746286
-0.16822405
-0.7211791
-0.17423129
-0.75668861
-0.18017161
-0.79409324
-0.18601002
-0.83350256
-0.19170842
-0.87503046
-0.1972229
-0.91879969
-0.20250479
-0.9649386
-0.20749909
-1.0135841
-0.21214417
-1.0648802
-0.21637074
-1.118977
-0.22010119
-1.1760338
-0.22325069
-1.2362118
-0.22571608
-1.2996874
-0.22739514
-1.3666345
-0.22816256
-1.4372482
-0.22788692
-1.5117369
-0.22642022
-1.5903178
-0.22359306
-1.6732459
-0.2192198
-1.760773
-0.21310922
-1.8531774
-0.20504828
-1.9507495
-0.19479096
-2.0538588
-0.1821233
-2.1629159
-2.2772601
-0.00036876214
-0.048002607
-0.00099964834
-0.060000023
-0.0015397264
-0.058827503
-0.0022289267
-0.063803941
-0.0028459863
-0.065679929
-0.0036012449
-0.069335879
-0.0043152318
-0.072354516
-0.0051193267
-0.075843373
-0.0059457842
-0.079384415
-0.0068397712
-0.083080247
-0.007770772
-0.086993609
-0.0087547444
-0.091053045
-0.0097913172
-0.095314075
-0.010884521
-0.099762379
-0.012038413
-0.1044145
-0.013256469
-0.10927696
-0.014543548
-0.11435884
-0.015903739
-0.11967072
-0.017341842
-0.12522151
-0.018863253
-0.13102229
-0.020472575
-0.13708394
-0.022176015
-0.14341797
-0.023978787
-0.15003646
-0.025886585
-0.15695306
-0.027905764
-0.16418046
-0.030041962
-0.17173384
-0.032302067
-0.17962816
-0.034691634
-0.18788016
-0.037216391
-0.19650749
-0.039882941
-0.20552827
-0.042696281
-0.21496298
-0.045661993
-0.22483263
-0.048784743
-0.23516022
-0.052069641
-0.24596985
-0.055519726
-0.25728789
-0.059138654
-0.26914181
-0.06292952
-0.28156107
-0.066893985
-0.29457743
-0.071033145
-0.30822438
-0.075347617
-0.32253744
-0.079837318
-0.33755397
-0.084500951
-0.35331507
-0.089336904
-0.36986179
-0.094341958
-0.3872401
-0.099513126
-0.40549706
-0.10484578
-0.4246828
-0.11033438
-0.44485046
-0.11597332
-0.46605611
-0.12175451
-0.48835947
-0.12767043
-0.51182267
-0.13371091
-0.53651261
-0.13986548
-0.56249922
-0.14612232
-0.58985689
-0.15246716
-0.61866466
-0.15888477
-0.64900589
-0.16535722
-0.68096917
-0.17186517
-0.71464747
-0.17838612
-0.75014125
-0.18489476
-0.78755519
-0.1913631
-0.82700144
-0.19775856
-0.86859846
-0.20404541
-0.91247209
-0.21018255
-0.95875595
-0.21612422
-1.0075916
-0.22181865
-1.0591287
-0.2272068
-1.1135249
-0.23222287
-1.170946
-0.23679341
-1.2315609
-0.24083187
-1.2955592
-0.24424433
-1.3631227
-0.24693017
-1.4344537
-0.24877078
-1.5097794
-0.24963574
-1.5893301
-0.24938476
-1.6733718
-0.24784913
-1.7621856
-0.24486012
-1.8560497
-0.24023884
-1.9552625
-0.23377072
-2.0602281
-0.22527609
-2.1713202
-2.2880197
-0.0003259045
-0.04767633
-0.00093142362
-0.059394108
-0.0014223427
-0.058336133
-0.0020655091
-0.063160302
-0.0026379384
-0.065106983
-0.0033647345
-0.068608542
-0.0040454416
-0.071673233
-0.0048341686
-0.075054043
-0.0056211262
-0.078596803
-0.0064691083
-0.082231572
-0.007357988
-0.086103997
-0.0082991917
-0.090111067
-0.0092952338
-0.094317213
-0.010349526
-0.09870722
-0.011466513
-0.10329659
-0.01265077
-0.10809173
-0.013906258
-0.11310233
-0.015238961
-0.11833693
-0.01665371
-0.12380561
-0.018156186
-0.1295186
-0.019752232
-0.13548661
-0.021447854
-0.14172099
-0.023249363
-0.14823351
-0.025164003
-0.15503689
-0.027197246
-0.1621456
-0.029356576
-0.1695728
-0.031648131
-0.17733479
-0.034078738
-0.18544762
-0.036654898
-0.19392928
-0.039382661
-0.20279833
-0.042267744
-0.21207557
-0.045315873
-0.22178202
-0.048532155
-0.23194128
-0.051920618
-0.24257855
-0.055485477
-0.25371998
-0.059230209
-0.26539381
-0.063156964
-0.27763079
-0.067267974
-0.29046261
-0.071564549
-0.30392368
-0.076047232
-0.31805029
-0.080715836
-0.3328805
-0.085570328
-0.34845526
-0.090608591
-0.3648177
-0.095829024
-0.38201327
-0.10122909
-0.40008996
-0.10680542
-0.41909871
-0.11255435
-0.43909294
-0.1184715
-0.46012943
-0.12455159
-0.4822688
-0.13078873
-0.50557378
-0.13717642
-0.53011182
-0.14370645
-0.55595461
-0.15037028
-0.58317681
-0.15715771
-0.61185913
-0.16405752
-0.6420859
-0.17105683
-0.67394737
-0.17814033
-0.70753891
-0.18529125
-0.7429624
-0.19249042
-0.78032488
-0.19971576
-0.81974139
-0.2069422
-0.86133327
-0.21414125
-0.90522975
-0.22128018
-0.9515686
-0.22832249
-1.000495
-0.2352256
-1.0521648
-0.24194243
-1.1067398
-0.24841828
-1.1643935
-0.25459019
-1.2253031
-0.26038967
-1.289664
-0.26574067
-1.3576659
-0.27054581
-1.4295331
-0.27471579
-1.5054858
-0.27813535
-1.585781
-0.28068427
-1.6706909
-0.28222317
-1.7605166
-0.28260719
-1.8555414
-0.28167642
-1.9560772
-0.27925408
-2.0625439
-0.27520474
-2.175268
-2.2939727
-0.00028411188
-0.047391851
-0.00087062306
-0.058807212
-0.0013207689
-0.057885547
-0.0019411076
-0.062539506
-0.0024915363
-0.064556054
-0.0031935123
-0.067906053
-0.0038470781
-0.071019105
-0.004612338
-0.074288156
-0.0053695079
-0.077838996
-0.00618532
-0.081415084
-0.0070472917
-0.08524131
-0.0079621246
-0.089195477
-0.0089347295
-0.093343808
-0.0099685244
-0.097672578
-0.011068597
-0.10219563
-0.012239782
-0.1069196
-0.013487754
-0.11185335
-0.014817928
-0.1170057
-0.01623632
-0.12238609
-0.017749708
-0.12800402
-0.019364131
-0.13387092
-0.021087121
-0.13999666
-0.022925049
-0.14639416
-0.024885307
-0.15307513
-0.026975471
-0.16005384
-0.029202317
-0.16734425
-0.031573367
-0.17496193
-0.034095473
-0.18292359
-0.036775054
-0.19124764
-0.039618893
-0.1999523
-0.042633024
-0.2090591
-0.045822469
-0.21859007
-0.049192074
-0.228569
-0.052746607
-0.23902113
-0.056489707
-0.24997378
-0.060424099
-0.26145607
-0.06455264
-0.27349864
-0.068877171
-0.28613416
-0.073398713
-0.29939789
-0.078118323
-0.31332604
-0.083035981
-0.32795778
-0.088151338
-0.34333436
-0.093464092
-0.35949886
-0.098973555
-0.3764971
-0.104678
-0.39437811
-0.11057597
-0.41319256
-0.11666532
-0.43299452
-0.1229438
-0.45384089
-0.12940884
-0.47579259
-0.13605684
-0.49891335
-0.14288441
-0.52327041
-0.14988719
-0.54893643
-0.15705983
-0.575987
-0.16439676
-0.60450309
-0.1718907
-0.63457066
-0.17953363
-0.66628071
-0.18731533
-0.69973076
-0.19522532
-0.73502293
-0.20324992
-0.77226741
-0.21137368
-0.81158092
-0.21957914
-0.85308681
-0.22784554
-0.89691749
-0.23614905
-0.94321371
-0.24446148
-0.99212498
-0.25275186
-1.0438097
-0.26098292
-1.098436
-0.2691135
-1.1561813
-0.27709258
-1.2172327
-0.28486645
-1.2817885
-0.2923675
-1.3500528
-0.29952778
-1.422251
-0.30626569
-1.4986177
-0.31249287
-1.5794177
-0.31810498
-1.6649402
-0.32299017
-1.7554943
-0.3270267
-1.8513732
-0.33007575
-1.9529043
-0.33200669
-2.0604985
-0.33270119
-2.1744602
-2.2948003
-0.00024558871
-0.047145901
-0.00082074207
-0.058231685
-0.0012407928
-0.057465067
-0.0018854157
-0.061894441
-0.0024206879
-0.064020294
-0.0031023976
-0.067223837
-0.0037329666
-0.070387983
-0.0044558492
-0.073564708
-0.0051993124
-0.077094914
-0.0059992561
-0.080614484
-0.0068512263
-0.084388646
-0.0077580045
-0.088287964
-0.008726759
-0.092374275
-0.0097614109
-0.096637103
-0.010867723
-0.10108844
-0.012051457
-0.10573494
-0.013318854
-0.11058498
-0.014676604
-0.11564691
-0.0161315
-0.1209301
-0.017690257
-0.1264441
-0.0193615
-0.13219844
-0.021151678
-0.13820517
-0.023069655
-0.14447479
-0.025122704
-0.1510206
-0.027318641
-0.15785633
-0.029665543
-0.16499567
-0.032170786
-0.1724549
-0.034841309
-0.18025116
-0.037684477
-0.18840244
-0.040706224
-0.19692837
-0.043912093
-0.2058509
-0.047307688
-0.21519197
-0.050897384
-0.2249766
-0.054685324
-0.23523028
-0.058674737
-0.24598123
-0.062868384
-0.25725903
-0.067268448
-0.26909489
-0.071876577
-0.28152202
-0.076694464
-0.29457563
-0.081722728
-0.308293
-0.086962215
-0.32271305
-0.092413625
-0.33787719
-0.098077346
-0.3538288
-0.10395329
-0.37061416
-0.1100422
-0.38828146
-0.11634446
-0.40688173
-0.12285993
-0.42646955
-0.12958891
-0.44710135
-0.13653148
-0.46883827
-0.14368774
-0.49174403
-0.15105681
-0.5158868
-0.15863882
-0.54133822
-0.1664322
-0.56817558
-0.17443539
-0.59647979
-0.18264632
-0.62633733
-0.19106168
-0.65784039
-0.1996776
-0.69108701
-0.20848845
-0.72618104
-0.21748777
-0.76323344
-0.22666729
-0.8023627
-0.23601615
-0.84369465
-0.24552233
-0.88736281
-0.25517066
-0.93351101
-0.26494344
-0.98229114
-0.27481893
-1.0338656
-0.28477182
-1.088406
-0.29477189
-1.1460947
-0.30478486
-1.207123
-0.31476736
-1.2716986
-0.32467224
-1.3400299
-0.33444673
-1.4123486
-0.34402156
-1.4889066
-0.35333268
-1.5699646
-0.36230143
-1.6558269
-0.37084172
-1.7468107
-0.3788478
-1.8432288
-0.38621443
-1.9454069
-0.39283665
-2.0537545
-0.39863182
-2.1685404
-2.290136
-0.00021156386
-0.046933988
-0.00078732036
-0.057655568
-0.00118442
-0.057067551
-0.0018459814
-0.061232429
-0.0023587975
-0.063507003
-0.0030336322
-0.0665485
-0.0036573701
-0.069763713
-0.0043749972
-0.072846512
-0.0051211018
-0.076348212
-0.0059214325
-0.07981352
-0.0067812481
-0.08352816
-0.0077006051
-0.087367897
-0.0086880049
-0.091386124
-0.0097482536
-0.095576057
-0.010888025
-0.099947826
-0.012114036
-0.10450804
-0.013433466
-0.1092646
-0.014853653
-0.11422572
-0.01638303
-0.11939965
-0.01802952
-0.12479648
-0.019801391
-0.13042537
-0.02170755
-0.13629773
-0.023756131
-0.14242485
-0.025955829
-0.14881945
-0.028315345
-0.15549526
-0.030842056
-0.16246731
-0.033543775
-0.16975142
-0.036427765
-0.17736528
-0.039500749
-0.18532744
-0.042767924
-0.19365903
-0.046235679
-0.20238082
-0.049907823
-0.21151732
-0.053789084
-0.22109264
-0.057882183
-0.23113426
-0.062189879
-0.24167037
-0.066715046
-0.25273043
-0.071459535
-0.26434665
-0.076424807
-0.27655267
-0.081612521
-0.28938344
-0.087024404
-0.30287622
-0.09266188
-0.31707019
-0.098526652
-0.33200649
-0.10462028
-0.34772861
-0.11094527
-0.36428193
-0.11750383
-0.38171486
-0.12429823
-0.40007841
-0.13133199
-0.41942588
-0.13860747
-0.43981484
-0.14612856
-0.46130491
-0.15389845
-0.48396047
-0.16192087
-0.50784915
-0.1701986
-0.53304352
-0.17873539
-0.55961988
-0.18753446
-0.58765963
-0.19659829
-0.61725001
-0.20592924
-0.64848323
-0.21552934
-0.68145768
-0.22539928
-0.71627847
-0.23553909
-0.75305719
-0.24594741
-0.79191362
-0.25662266
-0.83297377
-0.26756008
-0.87637425
-0.27875411
-0.92225958
-0.29019685
-0.97078394
-0.30187765
-1.0221123
-0.31378299
-1.0764193
-0.32589593
-1.1338906
-0.33819328
-1.194724
-0.35065159
-1.2591276
-0.36323747
-1.3273206
-0.37590872
-1.3995439
-0.38862964
-1.4760442
-0.40134361
-1.5571036
-0.41399765
-1.6430235
-0.42652929
-1.734131
-0.43887123
-1.8307435
-0.45093014
-1.9332122
-0.46263398
-2.0419225
-0.4739211
-2.1571184
-2.2795437
-0.0001905258
-0.046743126
-0.00078594343
-0.057059804
-0.0011796115
-0.056673484
-0.0018338079
-0.060577812
-0.0023400951
-0.063000261
-0.0030170921
-0.065871024
-0.0036562411
-0.069124054
-0.0043810973
-0.072121116
-0.0051492086
-0.075579527
-0.0059711403
-0.078990981
-0.0068606456
-0.08263801
-0.0078168836
-0.086410976
-0.008849452
-0.090352831
-0.0099644199
-0.094460322
-0.011169515
-0.098741917
-0.012472632
-0.10320406
-0.013882223
-0.10785409
-0.015407127
-0.11269984
-0.017055977
-0.11774977
-0.018838723
-0.12301264
-0.020764164
-0.12849876
-0.022841959
-0.1342187
-0.025080916
-0.14018457
-0.027490115
-0.14640884
-0.030078047
-0.15290583
-0.032852743
-0.15969101
-0.035821171
-0.16678127
-0.038990421
-0.17419419
-0.042365894
-0.18194998
-0.045953531
-0.19006926
-0.049757076
-0.19857497
-0.053780606
-0.20749131
-0.058027364
-0.21684319
-0.062499856
-0.22665885
-0.067200473
-0.23696657
-0.072131374
-0.24779606
-0.077294164
-0.25918008
-0.082691218
-0.27115147
-0.088324388
-0.28374573
-0.09419631
-0.29699929
-0.10030978
-0.31095119
-0.10666809
-0.32564208
-0.11327528
-0.34111466
-0.12013552
-0.3574142
-0.12725356
-0.3745885
-0.13463523
-0.39268749
-0.14228626
-0.41176456
-0.15021317
-0.43187646
-0.15842259
-0.45308271
-0.16692193
-0.47544689
-0.17571861
-0.49903658
-0.18482104
-0.52392338
-0.19423684
-0.55018432
-0.2039743
-0.57790013
-0.21404115
-0.60715857
-0.22444616
-0.63805079
-0.23519651
-0.6706767
-0.24629989
-0.70514088
-0.25776351
-0.74155531
-0.26959413
-0.7800402
-0.28179721
-0.82072273
-0.29437789
-0.86373979
-0.30733994
-0.90923717
-0.3206857
-0.9573704
-0.33441612
-1.0083058
-0.34852967
-1.0622205
-0.36302203
-1.1193028
-0.37788562
-1.1797541
-0.39311301
-1.2437829
-0.40868305
-1.3116223
-0.42458098
-1.383508
-0.44077629
-1.4597031
-0.4572433
-1.5404858
-0.47395403
-1.6261602
-0.49086939
-1.7170648
-0.50794362
-1.8135234
-0.52512016
-1.9158973
-0.54234839
-2.0245613
-0.55956847
-2.1397549
-2.2625285
-0.00017197157
-0.046570832
-0.00079611296
-0.056435332
-0.0011963727
-0.056272842
-0.001861716
-0.05991207
-0.0023806476
-0.062480894
-0.0030729225
-0.065178292
-0.0037425261
-0.068453962
-0.004490859
-0.071372265
-0.0052990668
-0.074770771
-0.006164944
-0.078124522
-0.0071082215
-0.081694116
-0.0081288085
-0.085389735
-0.0092370495
-0.089243896
-0.010440667
-0.093255969
-0.011748724
-0.09743308
-0.01317056
-0.10178139
-0.014715941
-0.10630783
-0.016394988
-0.11101986
-0.018217989
-0.11592578
-0.020194889
-0.12103468
-0.022336112
-0.12635641
-0.024651264
-0.13190235
-0.027149546
-0.13768501
-0.029840141
-0.14371688
-0.032730818
-0.15001369
-0.035828849
-0.15659141
-0.039141416
-0.16346702
-0.042673347
-0.17066045
-0.046429824
-0.17819155
-0.050414722
-0.18608226
-0.054631401
-0.19435602
-0.059082849
-0.2030374
-0.06377037
-0.212153
-0.068697146
-0.22172916
-0.073864558
-0.23179598
-0.079274507
-0.24238264
-0.084929841
-0.25352093
-0.090832796
-0.26524432
-0.09698752
-0.27758638
-0.10339775
-0.29058395
-0.11006811
-0.3042752
-0.11700409
-0.31869984
-0.12421238
-0.33389943
-0.13169984
-0.34991902
-0.1394745
-0.36680525
-0.14754527
-0.38460714
-0.15592146
-0.40337772
-0.16461316
-0.42317286
-0.17363154
-0.44405107
-0.18298775
-0.46607587
-0.19269418
-0.48931363
-0.20276265
-0.51383647
-0.21320709
-0.5397193
-0.22404034
-0.5670439
-0.23527677
-0.59589649
-0.24692983
-0.62636909
-0.25901445
-0.65856008
-0.27154479
-0.69257478
-0.2845352
-0.72852487
-0.29800093
-0.76652966
-0.31195568
-0.80671776
-0.32641393
-0.84922522
-0.34138972
-0.89419819
-0.3568963
-0.94179291
-0.37294574
-0.99217688
-0.38954966
-1.0455275
-0.40671808
-1.1020351
-0.42445976
-1.1619022
-0.44277745
-1.2253439
-0.46167528
-1.2925924
-0.4811513
-1.3638906
-0.50120189
-1.4395039
-0.52181802
-1.5197168
-0.54298856
-1.6048359
-0.56471355
-1.6951885
-0.5869682
-1.7911233
-0.60973939
-1.892988
-0.63297907
-2.0011864
-0.65663455
-2.1159524
-2.2385231
-0.00015797124
-0.046412553
-0.00082424414
-0.055768742
-0.0012382169
-0.055858504
-0.0019336322
-0.059216274
-0.0024828945
-0.061931219
-0.0032037259
-0.064457025
-0.0039242909
-0.067732933
-0.0047174326
-0.070578631
-0.0055887631
-0.073898918
-0.006525798
-0.077186932
-0.0075522202
-0.080667105
-0.0086701436
-0.084271187
-0.0098909861
-0.088022392
-0.011224552
-0.0919217
-0.012681446
-0.09597544
-0.014272768
-0.10018928
-0.016009683
-0.10457007
-0.017903448
-0.1091252
-0.019965207
-0.11386306
-0.02220578
-0.11879309
-0.024635284
-0.12392583
-0.027263652
-0.12927282
-0.030100066
-0.13484736
-0.033152037
-0.14066359
-0.036427069
-0.14673724
-0.039931098
-0.15308586
-0.043668959
-0.15972752
-0.04764495
-0.16668269
-0.051862171
-0.17397243
-0.056322933
-0.18161944
-0.061028961
-0.18964775
-0.065982318
-0.1980816
-0.071184426
-0.20694823
-0.076637018
-0.21627367
-0.082342556
-0.22608726
-0.08830369
-0.23641801
-0.094523866
-0.24729691
-0.10100816
-0.25875578
-0.10776093
-0.27082891
-0.11478923
-0.28355045
-0.12209995
-0.29695871
-0.12970241
-0.31109097
-0.13760503
-0.32598968
-0.14581863
-0.34169748
-0.15435517
-0.35825986
-0.16322631
-0.37572613
-0.17244573
-0.39414728
-0.18202789
-0.4135784
-0.1919875
-0.43407771
-0.20234095
-0.45570708
-0.21310453
-0.47853291
-0.2242966
-0.50262526
-0.23593467
-0.52805984
-0.24803798
-0.55491671
-0.26062674
-0.58328106
-0.2737212
-0.61324482
-0.28734223
-0.64490573
-0.30151234
-0.6783674
-0.31625366
-0.71374184
-0.33158867
-0.75114793
-0.34754114
-0.79071294
-0.36413532
-0.83257235
-0.38139544
-0.87687227
-0.39934564
-0.92376899
-0.41801169
-0.97342833
-0.43741792
-1.0260292
-0.45758841
-1.0817622
-0.47854674
-1.1408306
-0.50031419
-1.2034522
-0.52291468
-1.2698573
-0.5463656
-1.3402961
-0.57068146
-1.4150381
-0.59587729
-1.4943679
-0.62197169
-1.5785888
-0.64897831
-1.6680329
-0.67691323
-1.7630462
-0.70578592
-1.8639806
-0.73560126
-1.9712377
-0.76626597
-2.0851439
-2.2069062
-0.00015000347
-0.046262257
-0.00087735658
-0.055041087
-0.0013102223
-0.055425291
-0.0020495714
-0.058476565
-0.0026498753
-0.061330524
-0.0034174732
-0.063689013
-0.0042120342
-0.066937932
-0.0050748002
-0.069715397
-0.0060349325
-0.072938289
-0.0070745052
-0.076146832
-0.0082192913
-0.07952176
-0.0094749892
-0.083014897
-0.010854525
-0.086642228
-0.012369753
-0.090405805
-0.014033088
-0.094311396
-0.015856907
-0.098364705
-0.017853556
-0.10257263
-0.020034945
-0.10694296
-0.022412613
-0.11148449
-0.024997318
-0.11620742
-0.027799114
-0.121123
-0.030826671
-0.12624416
-0.034087598
-0.13158525
-0.03758867
-0.13716125
-0.041334569
-0.14298998
-0.045329617
-0.14908934
-0.049575989
-0.15547957
-0.054075826
-0.16218114
-0.058830523
-0.16921587
-0.063840764
-0.17660717
-0.069107786
-0.18437852
-0.074632418
-0.19255456
-0.080416793
-0.20116121
-0.086463081
-0.21022448
-0.092775107
-0.21977204
-0.099356783
-0.22983281
-0.10621432
-0.24043548
-0.11335389
-0.25161191
-0.12078447
-0.26339356
-0.12851452
-0.2758151
-0.13655571
-0.28891162
-0.14491864
-0.30272148
-0.15361702
-0.31728398
-0.16266528
-0.33264106
-0.17207821
-0.34883781
-0.18187241
-0.36592175
-0.19206545
-0.38394287
-0.20267585
-0.40295528
-0.21372353
-0.42301583