/*--------------------------------*- C++ -*----------------------------------*\
  =========                 |
  \\      /  F ield         | OpenFOAM: The Open Source CFD Toolbox
   \\    /   O peration     | Website:  https://openfoam.org
    \\  /    A nd           | Version:  12
     \\/     M anipulation  |
\*---------------------------------------------------------------------------*/
FoamFile
{
    format      ascii;
    class       volScalarField;
    location    "0.012";
    object      alphat;
}
// * * * * * * * * * * * * * * * * * * * * * * * * * * * * * * * * * * * * * //

dimensions      [1 -1 -1 0 0 0 0];

internalField   nonuniform List<scalar> 
16000
(
5.1416212e-07
1.0896594e-05
1.940567e-05
2.6125578e-05
2.0243692e-05
2.7180417e-05
1.9909305e-05
2.6325919e-05
2.1489017e-05
2.8394305e-05
2.4900658e-05
2.8367839e-05
2.6351028e-05
2.6760025e-05
2.5974662e-05
2.5773979e-05
2.5530368e-05
2.5464596e-05
2.549988e-05
2.5648453e-05
2.5905101e-05
2.6268774e-05
2.6737208e-05
2.7311179e-05
2.7993952e-05
2.8793247e-05
2.9719323e-05
3.0788045e-05
3.2018691e-05
3.3432387e-05
3.5053016e-05
3.6912303e-05
3.9051238e-05
4.1520888e-05
4.4384801e-05
4.7720275e-05
5.162142e-05
5.6203473e-05
6.1612157e-05
6.8031831e-05
7.5686861e-05
8.4853193e-05
9.5887888e-05
0.00010924458
0.00012549148
0.00014534881
0.00016975159
0.00019990587
0.00023737363
0.00028418252
0.00034296602
0.00041712912
0.00051102521
0.00063014575
0.00078125706
0.00097241505
0.0011853406
0.001187314
0.0011882962
0.0011887465
0.00118896
0.0011887681
0.0011882028
0.0011878843
0.0011879642
0.0011885121
0.001189586
0.0011911181
0.0011928557
0.0011947195
0.0011966433
0.001198456
0.0011997148
0.0011998034
0.0011988822
0.0011975169
0.0011978091
0.0011915743
0.0011917404
0.0011796565
4.5386821e-07
1.0323738e-05
2.1605453e-05
2.3319046e-05
1.8206702e-05
2.4416462e-05
1.7647994e-05
2.3161835e-05
1.8897418e-05
2.512825e-05
2.2447265e-05
2.5567026e-05
2.4034517e-05
2.4223272e-05
2.360677e-05
2.3367869e-05
2.3162388e-05
2.3092913e-05
2.3125612e-05
2.3259335e-05
2.3492728e-05
2.3824822e-05
2.4253903e-05
2.4780742e-05
2.5407913e-05
2.6142521e-05
2.6993389e-05
2.7974686e-05
2.9104376e-05
3.0402548e-05
3.1890908e-05
3.3597881e-05
3.5560596e-05
3.7825291e-05
4.0449974e-05
4.3505386e-05
4.7077959e-05
5.1272671e-05
5.622142e-05
6.2093394e-05
6.9096582e-05
7.7482883e-05
8.7579219e-05
9.9805631e-05
0.00011469186
0.00013290781
0.00015533072
0.00018310369
0.00021772591
0.00026117576
0.00031607906
0.00038593184
0.00047536985
0.00059051061
0.00073931325
0.00093186667
0.0011804935
0.0011882425
0.0011892945
0.0011896693
0.0011897331
0.001189473
0.0011887181
0.0011881345
0.0011879089
0.0011880825
0.0011887504
0.0011898605
0.0011913042
0.0011930222
0.0011949254
0.0011968399
0.0011983098
0.0011988497
0.0011983926
0.0011975369
0.0011967717
0.0011922271
0.0011913269
0.0011783538
4.1214016e-07
9.8764987e-06
2.039083e-05
2.1313913e-05
1.6278186e-05
2.1510611e-05
1.5689576e-05
2.014307e-05
1.6979201e-05
2.2064436e-05
2.0449688e-05
2.2765485e-05
2.1737996e-05
2.1686652e-05
2.1211828e-05
2.0963516e-05
2.0790422e-05
2.0728424e-05
2.0763015e-05
2.0888965e-05
2.1105639e-05
2.1412632e-05
2.1808577e-05
2.2294487e-05
2.2872391e-05
2.3549039e-05
2.4332254e-05
2.523478e-05
2.6273238e-05
2.7466901e-05
2.8836015e-05
3.0406503e-05
3.2212484e-05
3.4296312e-05
3.6711452e-05
3.9523157e-05
4.2811588e-05
4.6673757e-05
5.123014e-05
5.6636044e-05
6.3085547e-05
7.0810063e-05
8.0108608e-05
9.1367393e-05
0.00010507684
0.00012185198
0.00014249955
0.00016807346
0.00019996014
0.00023999765
0.0002906415
0.00035519738
0.00043811527
0.00054539854
0.00068510573
0.00086790949
0.0011076175
0.0011894584
0.001190549
0.0011908773
0.001190802
0.001190445
0.0011895348
0.001188705
0.001188151
0.0011879641
0.0011882002
0.0011888178
0.0011898955
0.0011913711
0.0011931452
0.0011950724
0.0011966775
0.0011974758
0.0011975647
0.0011971456
0.0011960039
0.0011925245
0.0011907127
0.0011761743
3.7238888e-07
9.5378457e-06
1.9322943e-05
1.9570573e-05
1.4599238e-05
1.9002123e-05
1.3952974e-05
1.7620081e-05
1.5265126e-05
1.946871e-05
1.8638431e-05
2.029415e-05
1.9618974e-05
1.9404757e-05
1.9031439e-05
1.879295e-05
1.8648463e-05
1.8598909e-05
1.8638907e-05
1.8761694e-05
1.896678e-05
1.9254207e-05
1.9622923e-05
2.007429e-05
2.0609919e-05
2.1236345e-05
2.1960682e-05
2.2794519e-05
2.3753222e-05
2.4855393e-05
2.6120211e-05
2.7571467e-05
2.924077e-05
3.116712e-05
3.3400079e-05
3.6000123e-05
3.9041945e-05
4.2615955e-05
4.6833018e-05
5.1835664e-05
5.7806086e-05
6.4958328e-05
7.3567055e-05
8.3987601e-05
9.6676118e-05
0.000112199
0.00013129938
0.00015495012
0.00018443321
0.00022145384
0.00026829786
0.00032806612
0.00040497206
0.00050477901
0.00063536598
0.00080742546
0.0010352115
0.0011909173
0.0011920538
0.0011923402
0.0011921548
0.0011917107
0.0011907877
0.0011898009
0.001188946
0.0011883195
0.0011879908
0.0011881247
0.0011887283
0.0011898619
0.0011914111
0.0011932363
0.0011949093
0.0011958777
0.001196246
0.0011959999
0.0011947744
0.0011919176
0.0011893237
0.0011729958
3.2733068e-07
9.2766314e-06
1.8390969e-05
1.9412761e-05
1.4309458e-05
1.6791681e-05
1.2428234e-05
1.5446364e-05
1.3793834e-05
1.722115e-05
1.7018328e-05
1.80644e-05
1.7639414e-05
1.7325526e-05
1.7028283e-05
1.6813897e-05
1.6695772e-05
1.6660931e-05
1.6707236e-05
1.6828129e-05
1.7023155e-05
1.7292957e-05
1.763685e-05
1.8056734e-05
1.8554047e-05
1.9135237e-05
1.9806955e-05
2.0579902e-05
2.1468281e-05
2.2490082e-05
2.3663763e-05
2.5011389e-05
2.6562549e-05
2.8353454e-05
3.0430436e-05
3.2849975e-05
3.5682134e-05
3.9012032e-05
4.2943021e-05
4.7606122e-05
5.3173511e-05
5.9845033e-05
6.7874839e-05
7.7590037e-05
8.9416768e-05
0.00010387786
0.00012165731
0.00014365033
0.00017103466
0.00020537651
0.00024877008
0.00030405987
0.00037511132
0.00046722162
0.00058764714
0.00074625884
0.00095622886
0.0011926024
0.0011938022
0.0011940665
0.0011937728
0.0011932625
0.0011924032
0.0011913182
0.0011902428
0.0011892516
0.0011884445
0.0011879549
0.0011880212
0.0011886256
0.0011898539
0.0011914499
0.0011930735
0.0011940711
0.0011945179
0.0011941857
0.0011926348
0.0011900622
0.001186646
0.001168902
3.0040209e-07
9.1106166e-06
1.7644936e-05
1.9060882e-05
1.4077392e-05
1.4867175e-05
1.1393811e-05
1.3637097e-05
1.2550693e-05
1.5309981e-05
1.5584167e-05
1.6103013e-05
1.5836646e-05
1.5476242e-05
1.5229359e-05
1.504046e-05
1.4941387e-05
1.4917011e-05
1.4966088e-05
1.5082851e-05
1.5266843e-05
1.5519321e-05
1.583984e-05
1.6230737e-05
1.6693523e-05
1.7234478e-05
1.7859912e-05
1.8579832e-05
1.940733e-05
2.0359805e-05
2.1455254e-05
2.2714351e-05
2.4165096e-05
2.58414e-05
2.7786981e-05
3.0055026e-05
3.2711733e-05
3.5837941e-05
3.9531487e-05
4.3913417e-05
4.9147097e-05
5.5421072e-05
6.2973096e-05
7.2104704e-05
8.3216301e-05
9.6793018e-05
0.00011346552
0.00013405792
0.00015964948
0.00019167262
0.0002320289
0.00028329337
0.00034894272
0.00043370896
0.00054401285
0.00068847418
0.00087836836
0.0011278615
0.0011957754
0.0011960446
0.0011956568
0.0011950206
0.0011942309
0.0011931294
0.0011919194
0.0011906641
0.0011894881
0.0011885064
0.0011879155
0.001187966
0.0011885691
0.0011898091
0.0011911964
0.0011919965
0.0011922434
0.0011914414
0.0011893055
0.0011866593
0.0011824776
0.0011640531
2.7691838e-07
9.0130248e-06
1.7064862e-05
1.8080367e-05
1.3928478e-05
1.317362e-05
1.1627953e-05
1.2445873e-05
1.2303068e-05
1.3701231e-05
1.4311505e-05
1.4382759e-05
1.4190888e-05
1.3819607e-05
1.3600573e-05
1.3433216e-05
1.3347233e-05
1.3330092e-05
1.3380268e-05
1.349279e-05
1.3666903e-05
1.3904363e-05
1.4204759e-05
1.4485846e-05
1.4908722e-05
1.5406133e-05
1.598365e-05
1.6650386e-05
1.7418116e-05
1.830331e-05
1.9323523e-05
2.0498133e-05
2.1853718e-05
2.3422086e-05
2.5244603e-05
2.7371529e-05
2.9865566e-05
3.2803624e-05
3.6279347e-05
4.0709291e-05
4.5672163e-05
5.16237e-05
5.8789292e-05
6.7447637e-05
7.7976459e-05
9.0828776e-05
0.00010658747
0.00012601175
0.00015008824
0.00018012287
0.00021782867
0.00026551094
0.00032624586
0.00040416497
0.00050477607
0.00063530185
0.00080488588
0.0010244156
0.0011979652
0.001198269
0.0011978173
0.0011970624
0.0011961587
0.0011951227
0.0011938331
0.0011924416
0.0011909941
0.0011896439
0.0011885487
0.0011878737
0.0011878802
0.0011883498
0.0011892681
0.001189568
0.0011893017
0.0011877368
0.0011847059
0.0011817643
0.0011772269
0.0011590195
2.4882811e-07
8.9555505e-06
1.6583838e-05
1.6531237e-05
1.321859e-05
1.1530111e-05
1.0477834e-05
1.1213101e-05
1.0998952e-05
1.2310271e-05
1.3060562e-05
1.2819931e-05
1.2640454e-05
1.2292061e-05
1.2094481e-05
1.19503e-05
1.1878883e-05
1.1871144e-05
1.1853552e-05
1.1947411e-05
1.2102589e-05
1.2319686e-05
1.2596945e-05
1.2934629e-05
1.3337825e-05
1.3810488e-05
1.4358205e-05
1.4989932e-05
1.5716741e-05
1.6554548e-05
1.7520997e-05
1.8634707e-05
1.9921468e-05
2.1411667e-05
2.3145135e-05
2.5170106e-05
2.7546854e-05
3.0349436e-05
3.366874e-05
3.761638e-05
4.2330019e-05
4.7985701e-05
5.479946e-05
6.3560622e-05
7.3628403e-05
8.5903572e-05
0.00010092719
0.00011939995
0.00014222329
0.00017058798
0.00020603116
0.00025060528
0.00030701031
0.00037881536
0.00047068272
0.00058856835
0.00073976477
0.0009325378
0.0011753096
0.0012007346
0.0012002475
0.0011994154
0.0011984018
0.0011971982
0.0011958855
0.0011944386
0.0011928175
0.0011911781
0.0011896609
0.0011884329
0.001187628
0.0011872809
0.001187259
0.0011867422
0.0011857012
0.0011832006
0.0011791514
0.0011758844
0.0011714644
0.0011545822
2.2695549e-07
8.9066805e-06
1.6123658e-05
1.459975e-05
1.0916394e-05
1.0087118e-05
8.5385078e-06
9.5668193e-06
1.002599e-05
1.1114029e-05
1.1777849e-05
1.1358894e-05
1.1176358e-05
1.0873177e-05
1.0700446e-05
1.0508848e-05
1.0427523e-05
1.0415055e-05
1.0463548e-05
1.0570184e-05
1.0730581e-05
1.0946961e-05
1.1218413e-05
1.1545386e-05
1.193287e-05
1.2385666e-05
1.2909414e-05
1.351305e-05
1.4207145e-05
1.5007059e-05
1.593068e-05
1.699616e-05
1.8228867e-05
1.9658135e-05
2.1322723e-05
2.3269427e-05
2.5556758e-05
2.825669e-05
3.1457405e-05
3.5266731e-05
3.9818516e-05
4.528058e-05
5.186372e-05
5.9816917e-05
6.9463657e-05
8.1213419e-05
9.641516e-05
0.0001141421
0.00013596457
0.00016297278
0.00019654829
0.00023852165
0.00029126791
0.00035788329
0.0004423445
0.0005496275
0.0006856964
0.00085715325
0.0010704911
0.0012034214
0.0012029306
0.0012020486
0.0012009541
0.0011996289
0.0011981259
0.0011964957
0.0011947847
0.0011928977
0.0011910018
0.0011892206
0.0011876209
0.0011862906
0.0011850698
0.0011836033
0.0011816899
0.0011783065
0.0011733618
0.0011698757
0.0011662583
0.0011512968
2.0917732e-07
8.8590578e-06
1.510984e-05
1.2768658e-05
8.8444907e-06
8.9955313e-06
7.4581344e-06
8.6639136e-06
9.2796625e-06
9.9486906e-06
1.0511212e-05
1.0017446e-05
9.8298536e-06
9.4824761e-06
9.2997048e-06
9.1862771e-06
9.1412456e-06
9.1553679e-06
9.2227231e-06
9.3396807e-06
9.5074249e-06
9.7235745e-06
9.9908689e-06
1.030972e-05
1.0685362e-05
1.1123047e-05
1.1628539e-05
1.2210908e-05
1.2880394e-05
1.3651834e-05
1.4543445e-05
1.5573282e-05
1.6766577e-05
1.815195e-05
1.9767501e-05
2.1659112e-05
2.388412e-05
2.6513147e-05
2.9632915e-05
3.3349083e-05
3.7791787e-05
4.3122915e-05
4.9549136e-05
5.7308233e-05
6.6710157e-05
7.8143791e-05
9.2095458e-05
0.00010915197
0.00013126915
0.00015724075
0.00018936408
0.00022928955
0.00027913779
0.00034165099
0.00042032232
0.0005194893
0.00064435221
0.00080074023
0.00099453388
0.0012062865
0.001205817
0.0012049023
0.0012037364
0.0012022967
0.0012006178
0.0011987303
0.0011966725
0.0011944883
0.0011922075
0.0011898313
0.0011874286
0.001185045
0.0011827207
0.0011804204
0.0011777628
0.0011738189
0.0011683484
0.0011647677
0.0011622904
0.0011498169
1.9272713e-07
8.8087955e-06
1.1928345e-05
1.0849832e-05
7.180834e-06
8.0542917e-06
6.7645847e-06
7.788499e-06
8.6667918e-06
8.8950226e-06
9.284436e-06
8.7051662e-06
8.4584737e-06
8.2210347e-06
8.08823e-06
8.0166013e-06
8.0023267e-06
8.0387597e-06
8.1225918e-06
8.2514594e-06
8.4233282e-06
8.6410396e-06
8.9064371e-06
9.2204241e-06
9.588328e-06
1.0015876e-05
1.05091e-05
1.1077279e-05
1.173055e-05
1.2483297e-05
1.3285992e-05
1.428141e-05
1.5437333e-05
1.6781659e-05
1.835186e-05
2.0192994e-05
2.2361376e-05
2.4926447e-05
2.7973765e-05
3.1607388e-05
3.5955271e-05
4.1498656e-05
4.7841271e-05
5.5496152e-05
6.4761256e-05
7.6008281e-05
8.9706667e-05
0.00010641324
0.0001268473
0.00015193163
0.00018450958
0.00022298632
0.00027077181
0.0003303807
0.00040502556
0.00049873189
0.00061642975
0.00076386408
0.00094719569
0.001172478
0.0012088098
0.0012078617
0.0012066181
0.0012050521
0.0012031741
0.0012010048
0.0011985681
0.0011958899
0.001192998
0.0011899325
0.0011867666
0.0011836194
0.0011805915
0.0011776528
0.0011745549
0.0011705356
0.0011650044
0.0011614405
0.0011596187
0.0011498607
1.7833968e-07
8.7608081e-06
9.3660797e-06
9.0458903e-06
6.2154937e-06
7.14662e-06
6.2206969e-06
7.0329588e-06
8.0444387e-06
7.912452e-06
7.9667744e-06
7.4879951e-06
7.2852402e-06
7.1139092e-06
7.0236093e-06
6.9865161e-06
6.9985031e-06
7.0553e-06
7.1529946e-06
7.2919078e-06
7.470808e-06
7.6918296e-06
7.9580485e-06
8.2708496e-06
8.6356429e-06
9.0198575e-06
9.4990797e-06
1.0052308e-05
1.0689474e-05
1.1424406e-05
1.2273753e-05
1.3259041e-05
1.4404448e-05
1.5737715e-05
1.7296355e-05
1.9125435e-05
2.1281271e-05
2.3833242e-05
2.6867203e-05
3.0487344e-05
3.4821689e-05
4.0029487e-05
4.6304704e-05
5.3878684e-05
6.3041419e-05
7.4797652e-05
8.8409659e-05
0.00010497473
0.00012517537
0.00014989611
0.00018025087
0.00021971487
0.00026632466
0.00032428168
0.00039669958
0.00048756001
0.00060188994
0.00074581642
0.00092626985
0.0011501802
0.0012117635
0.0012107629
0.0012094175
0.0012076953
0.0012055873
0.0012031085
0.0012002767
0.0011971209
0.0011936807
0.0011900198
0.0011862578
0.0011825752
0.0011791135
0.0011758638
0.001172688
0.0011690145
0.0011637406
0.0011602856
0.0011581901
0.0011517951
1.6556255e-07
8.710469e-06
7.3980236e-06
7.9568008e-06
5.534248e-06
6.3346769e-06
5.7499817e-06
6.36057e-06
7.3080881e-06
6.7941347e-06
6.7845979e-06
6.4233927e-06
6.2627652e-06
6.1442142e-06
6.0902907e-06
6.0829682e-06
6.1180478e-06
6.1930526e-06
6.3051582e-06
6.455061e-06
6.6422817e-06
6.869264e-06
7.1095229e-06
7.4184592e-06
7.7788814e-06
8.1958213e-06
8.6775872e-06
9.2330632e-06
9.8723868e-06
1.0609579e-05
1.1461397e-05
1.2449063e-05
1.3598086e-05
1.493641e-05
1.6501921e-05
1.8340169e-05
2.050817e-05
2.3075931e-05
2.6130608e-05
2.9777968e-05
3.4146695e-05
3.9395975e-05
4.5724821e-05
5.3362825e-05
6.2598453e-05
7.3788633e-05
8.7375469e-05
0.00010389387
0.00012510373
0.00014982971
0.00018011903
0.00021737135
0.00026591645
0.00032346511
0.00039537438
0.0004857485
0.00059989204
0.00074447396
0.00092710449
0.0011544348
0.0012144969
0.0012134102
0.0012119276
0.001210017
0.0012076622
0.0012048766
0.0012016871
0.0011981398
0.0011942991
0.001190263
0.0011861953
0.001182315
0.0011787727
0.0011755631
0.0011726143
0.0011694698
0.001164907
0.0011611067
0.0011587423
0.0011552023
1.5421087e-07
8.6478555e-06
5.9075473e-06
6.9589304e-06
4.939667e-06
5.6156516e-06
5.3514572e-06
5.6764896e-06
6.3912986e-06
5.8232633e-06
5.7513017e-06
5.492061e-06
5.3720215e-06
5.2971979e-06
5.2755545e-06
5.2949902e-06
5.3518355e-06
5.4447407e-06
5.5716584e-06
5.7124912e-06
5.9034879e-06
6.1340767e-06
6.4070397e-06
6.7259697e-06
7.0959449e-06
7.5224051e-06
8.0135772e-06
8.5790646e-06
9.2292303e-06
9.9782569e-06
1.0843002e-05
1.1844898e-05
1.2951037e-05
1.4296155e-05
1.5870376e-05
1.7719793e-05
1.9902488e-05
2.248934e-05
2.5569136e-05
2.9250253e-05
3.3663846e-05
3.9267257e-05
4.5722348e-05
5.3514866e-05
6.2935165e-05
7.4339465e-05
8.8177866e-05
0.00010499115
0.0001254483
0.00015177914
0.00018250433
0.00022025066
0.00026684913
0.00032784616
0.00040068424
0.00049232557
0.00060822877
0.00075511866
0.00094008382
0.0011671942
0.0012168131
0.0012156074
0.0012139594
0.0012118518
0.0012092742
0.0012062481
0.0012028203
0.0011990633
0.0011950705
0.0011909687
0.0011869453
0.0011832196
0.0011799175
0.0011770227
0.0011744864
0.0011718894
0.001167641
0.0011635114
0.0011610623
0.0011599976
1.4417103e-07
8.5468827e-06
4.7771769e-06
6.0740349e-06
4.4085233e-06
4.9751564e-06
5.0035693e-06
4.92939e-06
5.4739953e-06
4.9564207e-06
4.8575642e-06
4.6806422e-06
4.5998885e-06
4.5628327e-06
4.5707059e-06
4.6150811e-06
4.6929607e-06
4.7848466e-06
4.9211652e-06
5.0926212e-06
5.3003981e-06
5.5464396e-06
5.834299e-06
6.1677929e-06
6.5526517e-06
6.9946008e-06
7.501944e-06
8.060446e-06
8.7226882e-06
9.4846161e-06
1.0363112e-05
1.1379594e-05
1.2560125e-05
1.3937249e-05
1.5549482e-05
1.7444223e-05
1.968192e-05
2.2335697e-05
2.5497336e-05
2.9280033e-05
3.3819992e-05
3.9286999e-05
4.5883183e-05
5.3854099e-05
6.3497993e-05
7.5809343e-05
9.0083332e-05
0.00010742205
0.00012851346
0.00015422248
0.00018739443
0.00022622772
0.00027411798
0.00033350668
0.00041145059
0.00050485788
0.00062207888
0.00076866587
0.00094851775
0.0011612709
0.0012185355
0.0012171958
0.0012153895
0.0012131293
0.0012104181
0.0012072987
0.0012038404
0.0012001376
0.0011963004
0.0011924621
0.0011887976
0.0011854879
0.0011826251
0.0011802049
0.0011781634
0.0011759458
0.0011719337
0.001167161
0.0011650652
0.0011662279
1.3534584e-07
8.2571636e-06
3.9875885e-06
5.2884954e-06
3.9380811e-06
4.4077809e-06
4.4513232e-06
4.2537092e-06
4.5970911e-06
4.1895134e-06
4.0928516e-06
3.9808618e-06
3.9373925e-06
3.9337909e-06
3.9688957e-06
4.022009e-06
4.1133014e-06
4.2382765e-06
4.3962596e-06
4.5877385e-06
4.8145914e-06
5.0793363e-06
5.3860096e-06
5.7387451e-06
6.1297338e-06
6.5883558e-06
7.1129679e-06
7.7131542e-06
8.4009265e-06
9.1905411e-06
1.009932e-05
1.1149567e-05
1.2368421e-05
1.3789686e-05
1.5454565e-05
1.7412138e-05
1.972609e-05
2.2472928e-05
2.5748127e-05
2.9671682e-05
3.4384965e-05
4.006609e-05
4.6929981e-05
5.5231795e-05
6.5285281e-05
7.7470558e-05
9.3071884e-05
0.00011116432
0.0001331645
0.00015996972
0.00019268309
0.00023494208
0.0002844907
0.00034554171
0.000420938
0.00051873333
0.00063325272
0.00077205692
0.00093556946
0.0011197183
0.0012195618
0.001218102
0.0012161976
0.0012138952
0.0012112153
0.0012082215
0.0012049999
0.0012016502
0.0011982728
0.001194972
0.0011918685
0.0011890832
0.0011867076
0.0011848152
0.0011833116
0.0011813389
0.0011772773
0.001172297
0.0011710384
0.0011738331
1.2779903e-07
7.8273395e-06
3.5127383e-06
4.5934769e-06
3.520394e-06
3.7413236e-06
3.9622323e-06
3.6346346e-06
3.8085483e-06
3.5230429e-06
3.4466647e-06
3.3857774e-06
3.3765299e-06
3.4030205e-06
3.4460734e-06
3.5314838e-06
3.6492323e-06
3.7981935e-06
3.9786855e-06
4.1919988e-06
4.4406202e-06
4.7273727e-06
5.0469453e-06
5.4198961e-06
5.8452976e-06
6.3299084e-06
6.8818367e-06
7.5110173e-06
8.2297311e-06
9.0531764e-06
9.9992571e-06
1.1091289e-05
1.2357718e-05
1.3834147e-05
1.5497353e-05
1.7516796e-05
1.9906339e-05
2.2746864e-05
2.6296284e-05
3.0399107e-05
3.5334172e-05
4.1288721e-05
4.8492992e-05
5.721614e-05
6.7787921e-05
8.0611344e-05
9.6174929e-05
0.00011507158
0.00013925471
0.00016737842
0.0002015708
0.00024316902
0.00029656746
0.00035839166
0.00043299041
0.00052754664
0.00063379492
0.00075631126
0.00089604031
0.001053912
0.0012198655
0.0012183652
0.0012164841
0.0012143041
0.0012118689
0.001209253
0.0012065417
0.001203816
0.0012011374
0.0011985462
0.0011960757
0.001193785
0.0011918288
0.0011904442
0.0011894967
0.0011877002
0.0011833677
0.0011786555
0.0011784368
0.0011824215
1.2184034e-07
6.9423137e-06
3.1085729e-06
3.9622374e-06
3.1604171e-06
3.1249418e-06
3.4750357e-06
3.0740462e-06
3.1342909e-06
2.9539286e-06
2.9063928e-06
2.8869469e-06
2.9002e-06
2.945947e-06
3.0278411e-06
3.1415039e-06
3.2850047e-06
3.4583324e-06
3.6626328e-06
3.899675e-06
4.1662349e-06
4.4754896e-06
4.8275952e-06
5.2273977e-06
5.6806739e-06
6.1944204e-06
6.7771356e-06
7.4391699e-06
8.1932354e-06
9.0351321e-06
1.0017578e-05
1.1149932e-05
1.246195e-05
1.3990692e-05
1.578221e-05
1.7893689e-05
2.0395331e-05
2.3374435e-05
2.6938474e-05
3.1218945e-05
3.6377168e-05
4.2916326e-05
5.0527079e-05
5.9752998e-05
7.0940387e-05
8.4512049e-05
0.00010097634
0.00012094093
0.0001464555
0.00017592022
0.00021144276
0.00025409344
0.0003079827
0.00036861097
0.00043916235
0.00052040651
0.00061933736
0.0007260868
0.00084808956
0.00099132384
0.0011664826
0.0012181099
0.0012164164
0.0012145584
0.0012125902
0.0012105818
0.0012085991
0.0012066863
0.0012048459
0.0012030324
0.0012011751
0.0011992872
0.0011976548
0.001196743
0.0011963231
0.0011946678
0.0011902548
0.0011860201
0.0011869591
0.0011916693
1.1712784e-07
4.8137374e-06
2.7467543e-06
3.3738783e-06
2.7051451e-06
2.6088143e-06
2.9638105e-06
2.5749841e-06
2.5744951e-06
2.4749359e-06
2.4602169e-06
2.468479e-06
2.5128305e-06
2.5929899e-06
2.7046185e-06
2.8452251e-06
3.0141993e-06
3.2122666e-06
3.4378439e-06
3.6982478e-06
3.9947196e-06
4.3306859e-06
4.7103036e-06
5.1386188e-06
5.6217094e-06
6.1668946e-06
6.7830532e-06
7.4695802e-06
8.2581943e-06
9.1574385e-06
1.0187731e-05
1.1374334e-05
1.274894e-05
1.435113e-05
1.623023e-05
1.8447354e-05
2.1078022e-05
2.4215623e-05
2.7975476e-05
3.2499203e-05
3.7959833e-05
4.4566819e-05
5.2965642e-05
6.2754217e-05
7.4622073e-05
8.9004113e-05
0.00010641136
0.00012743388
0.00015273185
0.00018465074
0.00022087605
0.00026345419
0.00031272775
0.00037251475
0.00043694957
0.00050955507
0.00059707481
0.00069231704
0.00080711838
0.00095198039
0.0011427754
0.0012175198
0.0012161908
0.0012148418
0.0012135197
0.0012122744
0.0012111415
0.0012101233
0.0012091618
0.0012081195
0.0012068181
0.0012052531
0.0012039061
0.001203471
0.0012035013
0.0012019007
0.0011975614
0.0011941329
0.0011965659
0.0012013559
1.1210365e-07
4.0000873e-06
2.3653604e-06
2.8325889e-06
2.3354284e-06
2.1776557e-06
2.4377837e-06
2.1367659e-06
2.1197933e-06
2.0816186e-06
2.0955816e-06
2.1384891e-06
2.2189811e-06
2.3300274e-06
2.4690659e-06
2.6351952e-06
2.828792e-06
3.0488491e-06
3.3012002e-06
3.5871869e-06
3.9098577e-06
4.2729028e-06
4.6807323e-06
5.138612e-06
5.6528652e-06
6.231126e-06
6.8748697e-06
7.6076688e-06
8.438225e-06
9.3838309e-06
1.0466173e-05
1.1712215e-05
1.3155708e-05
1.4838868e-05
1.681457e-05
1.914869e-05
2.1922592e-05
2.5236478e-05
2.9213861e-05
3.4005394e-05
3.9794764e-05
4.7143424e-05
5.5708652e-05
6.6084212e-05
7.8643143e-05
9.381431e-05
0.00011207965
0.00013395825
0.00016145542
0.00019230565
0.00022811827
0.00026908073
0.00031524591
0.00037021658
0.00042808922
0.00049346695
0.0005750236
0.00066810243
0.00078671147
0.00094441651
0.001162528
0.0012167798
0.0012159611
0.0012152524
0.001214679
0.0012142569
0.0012139879
0.0012138413
0.0012137207
0.001213408
0.0012126078
0.0012113306
0.0012103335
0.0012104083
0.0012107442
0.0012091684
0.0012051853
0.0012027632
0.001206689
0.0012114012
1.0869792e-07
3.2215298e-06
2.0396776e-06
2.2914615e-06
2.0287044e-06
1.8068295e-06
1.9514218e-06
1.764764e-06
1.7625618e-06
1.7734737e-06
1.8173536e-06
1.8983435e-06
2.0098662e-06
2.1479577e-06
2.311632e-06
2.5011963e-06
2.7165572e-06
2.9615527e-06
3.2380686e-06
3.5489077e-06
3.8974238e-06
4.2875424e-06
4.7238659e-06
5.211846e-06
5.7580242e-06
6.3658707e-06
7.051741e-06
7.8246218e-06
8.6991187e-06
9.6935192e-06
1.0830956e-05
1.2140202e-05
1.3657299e-05
1.5427286e-05
1.7506563e-05
1.9965763e-05
2.2892709e-05
2.6394317e-05
3.0602481e-05
3.5676536e-05
4.208514e-05
4.9566202e-05
5.8616425e-05
6.9554627e-05
8.2741742e-05
9.8574407e-05
0.00011746372
0.00013980177
0.00016740596
0.00019769757
0.00023202006
0.00027034119
0.00031275681
0.00036321769
0.0004169027
0.00047967288
0.00056153401
0.00065968954
0.00078990881
0.00096872142
0.0012164703
0.0012160125
0.0012157885
0.0012157793
0.0012159736
0.0012163488
0.0012168694
0.0012174816
0.0012181024
0.0012184808
0.0012181676
0.0012172077
0.0012167095
0.0012172809
0.0012177401
0.0012162658
0.0012129494
0.0012117114
0.001216771
0.0012214018
1.0719756e-07
2.534897e-06
1.7575624e-06
1.7699615e-06
1.7457331e-06
1.4894878e-06
1.5552459e-06
1.4680089e-06
1.4961861e-06
1.5422076e-06
1.6248881e-06
1.7365192e-06
1.8736426e-06
2.0346955e-06
2.2199944e-06
2.4307494e-06
2.6679331e-06
2.9352179e-06
3.2347865e-06
3.5697248e-06
3.9435822e-06
4.3604573e-06
4.8251166e-06
5.3431825e-06
5.9213909e-06
6.5679428e-06
7.2929545e-06
8.1089951e-06
9.0211448e-06
1.0065656e-05
1.1259832e-05
1.2634361e-05
1.4227723e-05
1.6088003e-05
1.8275143e-05
2.0949527e-05
2.4057003e-05
2.7777819e-05
3.2251714e-05
3.764643e-05
4.4161042e-05
5.202866e-05
6.1519302e-05
7.2936574e-05
8.6608482e-05
0.00010286763
0.00012201707
0.00014555012
0.00017124588
0.00020020068
0.00023237903
0.00026789421
0.00031022488
0.00035521517
0.00040802157
0.00047255801
0.00055988525
0.00066877701
0.00081665381
0.0010225995
0.0012151952
0.0012152587
0.0012156442
0.0012163171
0.0012172273
0.001218317
0.0012195244
0.0012207537
0.0012218967
0.0012228837
0.0012231508
0.0012226669
0.0012227666
0.0012237301
0.0012241954
0.0012229933
0.0012206487
0.0012207533
0.0012264921
0.0012304882
1.0867388e-07
1.95003e-06
1.5223026e-06
1.369794e-06
1.4568872e-06
1.2232907e-06
1.2652113e-06
1.2501764e-06
1.3109202e-06
1.3914965e-06
1.5029067e-06
1.6381842e-06
1.7960243e-06
1.9765562e-06
2.1810253e-06
2.4112202e-06
2.6689424e-06
2.9573504e-06
3.2790654e-06
3.6373274e-06
4.0358156e-06
4.4787575e-06
4.9710687e-06
5.5185529e-06
6.1281763e-06
6.8084358e-06
7.5698467e-06
8.4255409e-06
9.392002e-06
1.0489982e-05
1.1745569e-05
1.3191625e-05
1.4869338e-05
1.6830256e-05
1.9138589e-05
2.1873871e-05
2.513393e-05
2.9038241e-05
3.3730553e-05
3.9381974e-05
4.6192973e-05
5.4393133e-05
6.4236288e-05
7.5996145e-05
8.994449e-05
0.00010720578
0.00012633747
0.00014817739
0.00017272812
0.00019997654
0.00023004982
0.00026593813
0.00030414069
0.00034906426
0.00040403751
0.00047847908
0.0005707324
0.00069490277
0.00086529923
0.0011024795
0.001213918
0.001214482
0.0012154298
0.0012167068
0.0012182316
0.0012199178
0.0012216924
0.0012234802
0.0012251446
0.0012265505
0.0012275411
0.0012277287
0.0012281949
0.0012293463
0.001229864
0.0012291592
0.0012280403
0.0012294241
0.0012353406
0.0012384618
1.1429008e-07
1.4699705e-06
1.3309288e-06
1.0771477e-06
1.3011585e-06
1.0024568e-06
1.0680529e-06
1.1056094e-06
1.1932963e-06
1.3017258e-06
1.4343427e-06
1.5880189e-06
1.7631428e-06
1.9608608e-06
2.1829183e-06
2.4313746e-06
2.7085843e-06
3.0169916e-06
3.3598336e-06
3.740331e-06
4.1622647e-06
4.6299828e-06
5.148553e-06
5.7239727e-06
6.3634571e-06
7.0758216e-06
7.8719913e-06
8.7656812e-06
9.7741317e-06
1.0919107e-05
1.2227965e-05
1.3735218e-05
1.5484149e-05
1.7528906e-05
1.993681e-05
2.2790935e-05
2.6192683e-05
3.0264261e-05
3.5150792e-05
4.1021798e-05
4.8401138e-05
5.6914645e-05
6.7062629e-05
7.9075642e-05
9.3158099e-05
0.00010946029
0.00012805761
0.00014895863
0.00017216326
0.00019965136
0.00022836151
0.00026096447
0.00029928373
0.00034616314
0.00040962624
0.00048802782
0.00059310979
0.00073636699
0.00093339896
0.0012045136
0.0012126001
0.0012135986
0.0012150145
0.0012167792
0.0012187945
0.001220956
0.0012231788
0.001225393
0.0012274726
0.0012295387
0.0012311903
0.0012318722
0.0012327045
0.0012338543
0.0012345205
0.0012345236
0.0012347848
0.0012372625
0.0012429648
0.0012451934
1.246762e-07
1.1574396e-06
1.16589e-06
9.3424436e-07
9.4879811e-07
8.7583465e-07
9.3831573e-07
1.0182548e-06
1.1268971e-06
1.2551304e-06
1.4038297e-06
1.5727627e-06
1.7631584e-06
1.9765681e-06
2.2148927e-06
2.4802654e-06
2.7750821e-06
3.1020255e-06
3.4641159e-06
3.8647707e-06
4.307891e-06
4.797977e-06
5.3402899e-06
5.9410782e-06
6.607887e-06
7.3472355e-06
8.1744953e-06
9.1021815e-06
1.0157584e-05
1.1348744e-05
1.2710698e-05
1.427966e-05
1.6100968e-05
1.8231161e-05
2.0740237e-05
2.3713952e-05
2.7255995e-05
3.1489801e-05
3.6559705e-05
4.2631033e-05
4.9888158e-05
5.8528794e-05
6.8752034e-05
8.0736977e-05
9.4622262e-05
0.00011048362
0.00012948241
0.00014948551
0.00017159905
0.00019618496
0.00022404488
0.00025663588
0.00029631077
0.00034984028
0.00041593538
0.00050434205
0.0006247378
0.00079032265
0.0010176745
0.0012102633
0.0012111411
0.0012124867
0.0012142539
0.001216371
0.0012187439
0.0012212689
0.0012238521
0.0012264244
0.0012289143
0.0012313675
0.0012334065
0.0012347817
0.0012359635
0.001237149
0.0012380576
0.001238883
0.0012404734
0.0012438299
0.0012488957
0.0012502236
1.4618498e-07
1.1996591e-06
1.0026193e-06
7.1341432e-07
7.7416938e-07
7.8208089e-07
8.6644143e-07
9.6943767e-07
1.0947096e-06
1.2379709e-06
1.4003782e-06
1.5828629e-06
1.7869498e-06
2.0143095e-06
2.266874e-06
2.5468056e-06
2.856534e-06
3.1987918e-06
3.5766616e-06
3.9936367e-06
4.4537026e-06
4.9614521e-06
5.5222475e-06
6.1424489e-06
6.8297309e-06
7.5935051e-06
8.4454663e-06
9.4002758e-06
1.0476419e-05
1.1697221e-05
1.3092077e-05
1.4698003e-05
1.6561355e-05
1.8739833e-05
2.1304557e-05
2.4342058e-05
2.7955978e-05
3.2268155e-05
3.7418843e-05
4.3565422e-05
5.0878596e-05
5.996262e-05
7.0206773e-05
8.2104546e-05
9.5743262e-05
0.00011115329
0.00012833997
0.0001473657
0.00016848224
0.0001922889
0.0002199051
0.00025549834
0.000297476
0.00035205878
0.00042500218
0.0005243872
0.00066167373
0.00085209209
0.0011131606
0.0012081999
0.0012093403
0.0012109464
0.0012129617
0.001215317
0.0012179326
0.0012207233
0.0012236007
0.0012264808
0.001229298
0.0012319957
0.0012344845
0.0012365485
0.0012378946
0.0012392299
0.0012404659
0.0012421868
0.0012449048
0.0012487924
0.001252997
0.0012533261
1.3922143e-07
7.9683925e-07
8.2074869e-07
6.0794814e-07
6.6588927e-07
7.2687867e-07
8.2992755e-07
9.499161e-07
1.0884624e-06
1.2445475e-06
1.4194339e-06
1.6143434e-06
1.8308361e-06
2.0706543e-06
2.3357732e-06
2.6284143e-06
2.9510765e-06
3.3065243e-06
3.6979831e-06
4.1290008e-06
4.6036448e-06
5.1265898e-06
5.7032836e-06
6.3401751e-06
7.0450363e-06
7.8273868e-06
8.6990451e-06
9.6748227e-06
1.0782507e-05
1.2031499e-05
1.3457897e-05
1.509941e-05
1.7003128e-05
1.9227467e-05
2.1844032e-05
2.4939324e-05
2.861596e-05
3.299319e-05
3.820631e-05
4.440423e-05
5.1743926e-05
6.0380025e-05
7.0448738e-05
8.2050648e-05
9.5236007e-05
0.00011001587
0.00012641433
0.00014584231
0.00016629602
0.00018973104
0.00021753553
0.00025184452
0.00029584116
0.00035420674
0.00043369127
0.00054393651
0.00069862421
0.00091584449
0.0012048891
0.001205621
0.0012068996
0.0012086806
0.0012109008
0.0012134688
0.0012162997
0.0012193112
0.0012224323
0.0012255941
0.0012287255
0.0012317538
0.0012345984
0.0012370766