/*--------------------------------*- C++ -*----------------------------------*\
  =========                 |
  \\      /  F ield         | OpenFOAM: The Open Source CFD Toolbox
   \\    /   O peration     | Website:  https://openfoam.org
    \\  /    A nd           | Version:  12
     \\/     M anipulation  |
\*---------------------------------------------------------------------------*/
FoamFile
{
    format      ascii;
    class       volScalarField;
    location    "0.012";
    object      Ma;
}
// * * * * * * * * * * * * * * * * * * * * * * * * * * * * * * * * * * * * * //

dimensions      [];

internalField   nonuniform List<scalar> 
16000
(
0.61795757
0.73400608
0.69024143
0.71401506
0.69937752
0.70607781
0.70061335
0.70206567
0.69953755
0.69909969
0.69753651
0.69643341
0.69505515
0.69370504
0.69226937
0.69078436
0.68923923
0.68763642
0.68597542
0.68425653
0.68248013
0.68064683
0.67875743
0.67681302
0.67481494
0.67276485
0.67066472
0.6685169
0.66632407
0.6640893
0.66181608
0.65950829
0.65717023
0.65480667
0.65242282
0.65002436
0.64761745
0.64520875
0.64280536
0.64041486
0.63804522
0.63570477
0.63340206
0.63114584
0.62894481
0.6268076
0.6247425
0.62275738
0.62085948
0.61905524
0.61735012
0.61574843
0.61425316
0.6128657
0.61158555
0.61041001
0.60933384
0.6083487
0.60744242
0.60659842
0.60579542
0.60500804
0.6042078
0.60336516
0.60245353
0.60145372
0.60035945
0.59918223
0.59795072
0.59670293
0.59547247
0.5942895
0.59320241
0.59232093
0.59184036
0.59230425
0.59210675
0.59584664
0.59047696
0.58603565
0.62246573
0.73913915
0.69344399
0.71862173
0.70316388
0.71031971
0.70439317
0.70598921
0.7032559
0.70276215
0.70110441
0.69989124
0.69842252
0.69696123
0.69541952
0.69382071
0.69215913
0.69043547
0.68864981
0.68680245
0.68489399
0.68292525
0.68089738
0.6788118
0.67667032
0.67447506
0.67222855
0.66993374
0.66759395
0.66521297
0.662795
0.66034469
0.65786713
0.65536786
0.65285285
0.65032853
0.64780172
0.6452797
0.64277013
0.64028102
0.63782072
0.63539782
0.63302111
0.63069942
0.62844156
0.62625614
0.62415146
0.62213529
0.62021481
0.61839636
0.61668532
0.61508594
0.61360121
0.61223264
0.61097998
0.60984086
0.60881065
0.60788201
0.60704427
0.60628265
0.60557774
0.60490571
0.60423881
0.60354621
0.60279744
0.60196619
0.60103503
0.60000017
0.59887428
0.59768104
0.59644394
0.59519011
0.59397553
0.59295569
0.59240597
0.59249808
0.59309909
0.59535816
0.59103072
0.58517597
0.62667091
0.74386113
0.69697386
0.72263847
0.70674297
0.71398015
0.70790669
0.70938633
0.70660154
0.70595181
0.7042284
0.70288043
0.70131064
0.69972623
0.69806389
0.69633801
0.69454551
0.69268667
0.69076182
0.68877152
0.68671671
0.68459859
0.68241877
0.68017917
0.67788215
0.67553047
0.67312733
0.6706764
0.66818179
0.66564812
0.66308045
0.66048431
0.6578657
0.65523103
0.65258715
0.64994126
0.64730095
0.6446741
0.64206891
0.63949379
0.63695735
0.63446832
0.63203549
0.62966758
0.62737318
0.6251606
0.62303776
0.62101206
0.61909027
0.61727836
0.61558142
0.61400345
0.61254729
0.61121446
0.61000495
0.60891689
0.60794635
0.60708697
0.60632941
0.6056606
0.60506341
0.60451641
0.60399362
0.60346454
0.60289678
0.60225956
0.60152651
0.60068015
0.5997141
0.59863167
0.59744326
0.59616325
0.59485788
0.59372713
0.59308679
0.59311309
0.59399164
0.59534634
0.59151488
0.58478594
0.63051873
0.74819453
0.70004107
0.7262025
0.7098959
0.71722818
0.71099058
0.71234044
0.70949212
0.70867087
0.70686639
0.70536915
0.70368062
0.70195753
0.70015739
0.69828787
0.69634783
0.69433748
0.69225748
0.69010876
0.68789267
0.6856109
0.68326558
0.68085926
0.67839496
0.67587619
0.67330698
0.67069187
0.66803593
0.66534475
0.66262444
0.65988157
0.65712318
0.65435668
0.65158986
0.64883079
0.64608777
0.64336933
0.64068409
0.63804075
0.63544804
0.63291462
0.63044904
0.62805965
0.62575452
0.62354136
0.6214274
0.61941933
0.61752322
0.61574444
0.61408746
0.61255583
0.611152
0.60987727
0.60873162
0.60771343
0.60681933
0.60604374
0.60537834
0.60481145
0.60432803
0.6039092
0.60353128
0.60316542
0.60277943
0.60234037
0.60181661
0.60117975
0.60040593
0.59947815
0.59838968
0.59713715
0.59579712
0.59461435
0.59396642
0.59411162
0.59511146
0.59601942
0.59245142
0.58501022
0.63403655
0.75210011
0.70286236
0.72915105
0.71250648
0.71997546
0.71361841
0.71477473
0.7118833
0.71085381
0.70895703
0.70729188
0.70546534
0.70358692
0.70163114
0.69960118
0.697497
0.69531892
0.69306793
0.69074529
0.68835284
0.68589282
0.68336803
0.68078177
0.67813796
0.67544104
0.67269611
0.66990884
0.6670855
0.6642329
0.6613584
0.65846982
0.65557536
0.65268356
0.64980322
0.64694326
0.64411271
0.64132057
0.63857577
0.6358871
0.63326312
0.63071213
0.62824213
0.6258607
0.62357502
0.62139179
0.61931716
0.61735676
0.61551562
0.61379814
0.61220797
0.61074793
0.6094199
0.60822478
0.60716236
0.60623116
0.60542821
0.60474868
0.60418516
0.60372736
0.60336221
0.60307328
0.60283934
0.60263375
0.60242573
0.60218233
0.6018692
0.60144946
0.60088942
0.60015531
0.59921327
0.5980544
0.59676619
0.59564439
0.59515632
0.59559538
0.59677143
0.59750681
0.59411259
0.58599222
0.63717913
0.75548579
0.70529154
0.73169047
0.71477084
0.722138
0.71567084
0.71660982
0.71369059
0.71242689
0.7104234
0.70857775
0.70659616
0.70454868
0.70242176
0.70021597
0.69793171
0.69556959
0.69313094
0.69061759
0.68803205
0.68537739
0.68265737
0.67987638
0.67703955
0.67415265
0.67122215
0.66825519
0.66525953
0.66224349
0.65921588
0.65618594
0.65316319
0.65015731
0.64717809
0.64423525
0.64133833
0.63849663
0.6357191
0.63301426
0.63039016
0.62785431
0.6254137
0.62307474
0.62084326
0.61872448
0.61672311
0.61484331
0.61308873
0.6114625
0.60996719
0.60860464
0.60737599
0.60628159
0.60532094
0.60449251
0.60379368
0.60322025
0.60276571
0.60242111
0.60217531
0.60201423
0.60191913
0.6018658
0.60182615
0.60176855
0.60165654
0.60145488
0.6011209
0.60060715
0.59986795
0.59888676
0.59777164
0.59687845
0.59675843
0.5976781
0.59917925
0.59989747
0.59662504
0.58764523
0.63988918
0.75832166
0.70729732
0.73376535
0.71661071
0.72367173
0.71716443
0.71777717
0.71486215
0.7133506
0.71122692
0.709191
0.70703649
0.70480356
0.70248622
0.70008424
0.69759849
0.69503024
0.6923816
0.68965534
0.68685508
0.68398512
0.68105062
0.6780575
0.67501248
0.67192304
0.66879743
0.66564458
0.66247404
0.65929586
0.65612051
0.65295871
0.64982131
0.64671911
0.6436627
0.64066234
0.63772783
0.63486836
0.63209244
0.62940786
0.62682162
0.62433994
0.62196828
0.61971133
0.61757306
0.61555683
0.61366542
0.61190118
0.61026608
0.60876172
0.60738929
0.60614954
0.60504268
0.60406843
0.6032259
0.60251351
0.60192894
0.60146857
0.60112683
0.6008962
0.60076758
0.60072929
0.60076504
0.60085365
0.60097095
0.60108808
0.60117077
0.60118394
0.60108633
0.60082559
0.60035567
0.59965281
0.5988588
0.59839196
0.59885382
0.60042446
0.60235701
0.60307956
0.59974599
0.58969087
0.64219345
0.76062855
0.70889816
0.73539476
0.71806123
0.72468015
0.71828174
0.71867609
0.71544185
0.71364085
0.71136692
0.70911824
0.70675973
0.70431189
0.70177319
0.69914389
0.69642567
0.69362085
0.69073273
0.68776543
0.68472407
0.68161464
0.67844411
0.67522034
0.6719521
0.66864898
0.66532135
0.66198026
0.65863728
0.65530436
0.6519937
0.64871747
0.6454877
0.64231604
0.63921358
0.63619067
0.63325682
0.63042054
0.62768929
0.62506948
0.62256642
0.6201844
0.61792674
0.61579585
0.6137934
0.61192038
0.61017735
0.60856452
0.60708195
0.60572951
0.60450691
0.60341362
0.60244889
0.60161175
0.60090099
0.60031503
0.59985187
0.59950858
0.59928066
0.59916233
0.59914676
0.59922485
0.59938311
0.59960454
0.59987009
0.60015545
0.60043304
0.60067139
0.60083229
0.60086717
0.60072885
0.60041292
0.60009075
0.60022987
0.60143536
0.60373201
0.60609489
0.60673699
0.60302401
0.59169208
0.64416925
0.76244481
0.71009746
0.73659885
0.7189385
0.72545703
0.71863157
0.71831427
0.71532493
0.71326443
0.71079039
0.70829184
0.70568655
0.70298387
0.70018434
0.69728935
0.69430159
0.69122473
0.68806365
0.68482423
0.68151358
0.67813983
0.67471228
0.67124124
0.66773798
0.66421463
0.66068406
0.65715967
0.65365523
0.65018462
0.64676163
0.64339966
0.64011156
0.63690932
0.63380391
0.63080509
0.6279213
0.62515957
0.62252551
0.62002331
0.61765586
0.61542481
0.61333073
0.61137327
0.60955131
0.6078632
0.60630699
0.60488065
0.60358219
0.60240969
0.60136135
0.60043538
0.5996301
0.59894397
0.59837558
0.59792354
0.5975864
0.59736211
0.59724765
0.59723948
0.59733357
0.59752369
0.59780011
0.59815173
0.59856561
0.5990237
0.59950729
0.59999329
0.60044928
0.60082959
0.60109243
0.60125149
0.6015037
0.60235099
0.60434822
0.60731108
0.60994902
0.61044451
0.60619867
0.59325207
0.6458359
0.76375278
0.71081866
0.73728119
0.71913428
0.7246472
0.71831141
0.71766779
0.71450369
0.71209342
0.70936812
0.70658032
0.7036839
0.70068349
0.69758083
0.69437889
0.69108194
0.68769556
0.68422676
0.68068385
0.67707655
0.67341585
0.66971401
0.66598436
0.66224125
0.65849974
0.65477548
0.65108437
0.64744234
0.64386496
0.64036726
0.63696332
0.63366607
0.63048702
0.62743607
0.62452136
0.62174924
0.61912422
0.61664904
0.61432483
0.61215123
0.61012663
0.60824832
0.60651276
0.60491583
0.60345309
0.60212008
0.60091251
0.59982644
0.59885831
0.59800489
0.59726333
0.59663124
0.5961068
0.59568865
0.5953759
0.59516806
0.5950645
0.59506428
0.59516682
0.59537147
0.5956756
0.59607477
0.59656523
0.59714028
0.59779044
0.59850569
0.5992698
0.60005577
0.60082417
0.60153492
0.60220362
0.60304894
0.60458581
0.6072742
0.61070611
0.61336288
0.6136077
0.60867059
0.59415891
0.64712052
0.76445695
0.71096048
0.73661924
0.71856642
0.72366869
0.71730637
0.71607381
0.71276942
0.70999031
0.70695827
0.70383673
0.70060105
0.69725556
0.69380344
0.69024987
0.68660149
0.68286659
0.6790552
0.6751789
0.67125097
0.66728603
0.6633001
0.65931018
0.65533412
0.65139025
0.64749704
0.64367275
0.63993507
0.63630069
0.63278503
0.62940182
0.62616294
0.62307809
0.62015475
0.61739812
0.61481114
0.61239461
0.6101474
0.60806672
0.60614832
0.60438681
0.60277594
0.60130887
0.59997847
0.59877767
0.59769969
0.59673829
0.5958879
0.59514357
0.594501
0.59395664
0.59350787
0.59315301
0.59289118
0.59272245
0.59264799
0.59266931
0.59278839
0.59300839
0.59333247
0.59376284
0.59430183
0.59495264
0.59571445
0.59658664
0.59756488
0.59863627
0.5997737
0.60093368
0.60206973
0.60320018
0.60455796
0.60664257
0.60979612
0.61343198
0.61586989
0.61571231
0.61022166
0.59439193
0.64791482
0.76437161
0.71039943
0.73488145
0.71731363
0.72163308
0.71536041
0.7135366
0.71000253
0.70681274
0.7034113
0.69990184
0.69627154
0.69252688
0.68867337
0.68471928
0.68067474
0.67655189
0.67236495
0.66812998
0.66386482
0.65958871
0.65532209
0.65108615
0.64690249
0.6427926
0.63877747
0.63487703
0.63110977
0.62749227
0.62403885
0.62076125
0.6176685
0.61476675
0.61205937
0.609547
0.60722782
0.60509784
0.60315121
0.60138058
0.59977752
0.59833276
0.59703657
0.59587904
0.59485043
0.59394145
0.59314354
0.59244902
0.59185118
0.59134423
0.59092333
0.59058482
0.59032644
0.59014731
0.59004765
0.59002915
0.59009542
0.59025097
0.59050161
0.59085481
0.59131781
0.59189851
0.59260601
0.59344779
0.59442816
0.5955509
0.59681167
0.59819326
0.59965939
0.60115318
0.60261547
0.60406748
0.60576167
0.60817286
0.61152314
0.61512097
0.61722668
0.61696198
0.61080742
0.59405312
0.64814608
0.76339689
0.70899332
0.73266117
0.71527095
0.71861963
0.71236796
0.7098956
0.70604896
0.70239762
0.69855544
0.69459261
0.69050309
0.6862972
0.68198433
0.67757739
0.67309154
0.66854439
0.66395583
0.65934766
0.65474335
0.6501675
0.64564547
0.64120271
0.63686425
0.63265407
0.62859451
0.62470566
0.62100495
0.61750665
0.61422171
0.6111575
0.60831794
0.60570354
0.60331171
0.60113712
0.59917209
0.59740709
0.59583116
0.59443239
0.59319828
0.59211608
0.59117312
0.59035707
0.58965627
0.58906
0.58855864
0.58814382
0.58780838
0.5875464
0.58735324
0.58722581
0.58716297
0.58716545
0.58723544
0.58737705
0.58759697
0.58790349
0.58830669
0.58881813
0.58945009
0.59021418
0.59112362
0.59218639
0.59340885
0.59479104
0.59632094
0.59796813
0.59967848
0.60137548
0.60298874
0.60455485
0.60635994
0.60886235
0.61218259
0.61561043
0.61772253
0.6172002
0.61045964
0.59321585
0.64778471
0.76143665
0.70665467
0.72929178
0.71220284
0.71446971
0.70817237
0.7049997
0.70073315
0.69654944
0.69218233
0.68768666
0.68306241
0.67832562
0.67349189
0.66858078
0.66361453
0.65861792
0.65361798
0.64864342
0.64372409
0.63889029
0.63417212
0.62959854
0.62519674
0.62099125
0.61700334
0.61325047
0.60974588
0.60649842
0.60351255
0.60078854
0.59832276
0.59610818
0.59413487
0.59239061
0.59086148
0.58953242
0.5883877
0.58741144
0.58658786
0.58590162
0.58533805
0.58488341
0.58452513
0.58425202
0.58405434
0.58392387
0.58385386
0.58383909
0.58387597
0.58396281
0.58410029
0.58429165
0.58454217
0.58485893
0.58525204
0.5857342
0.58631915
0.58702079
0.58785618
0.58883675
0.58997424
0.59127307
0.59273399
0.59434588
0.59608163
0.59789167
0.59970096
0.60141546
0.60296519
0.60442202
0.60612102
0.60851624
0.61167722
0.61493463
0.61703808
0.61664585
0.60915212
0.59186454
0.64678155
0.75832533
0.70332929
0.72477037
0.70797658
0.70902683
0.70257702
0.69863458
0.69382247
0.68901233
0.68402105
0.67890044
0.67365876
0.66832017
0.66290918
0.65745429
0.6519868
0.64654034
0.64115033
0.6358531
0.63068502
0.62568141
0.62087556
0.61629762
0.61197373
0.60792523
0.60416816
0.60071303
0.59756478
0.59472309
0.59218281
0.58993454
0.58796541
0.58625978
0.58479998
0.58356709
0.58254153
0.58170361
0.58103403
0.58051414
0.58012619
0.57985353
0.57968079
0.57959402
0.57958089
0.5796308
0.57973487
0.57988594
0.58007857
0.58030914
0.58057601
0.58087975
0.58122361
0.58161407
0.58206003
0.58257253
0.58316459
0.58385199
0.58465092
0.58557739
0.58664421
0.58786066
0.58923011
0.59074863
0.59240263
0.59416502
0.59599055
0.59781178
0.59953866
0.60107169
0.60236038
0.60352985
0.60496846
0.60713071
0.61008418
0.61327911
0.61557732
0.61488808
0.60703504
0.59002299
0.64507614
0.75382215
0.6990454
0.71888306
0.70237845
0.70206323
0.69531338
0.69050503
0.68500029
0.6794474
0.6737219
0.66788011
0.66194208
0.65594269
0.64991802
0.64390796
0.63795489
0.63210278
0.62639609
0.62087831
0.61559062
0.6105704
0.60584994
0.60145545
0.59740634
0.59371486
0.59038623
0.58741895
0.58480549
0.58253314
0.58058495
0.57894072
0.57757804
0.57647306
0.57560144
0.57493891
0.5744619
0.57414789
0.5739757
0.57392564
0.5739796
0.57412111
0.57433546
0.57460975
0.57493304
0.57529632
0.5756925
0.57611635
0.57656459
0.57703609
0.577532
0.57805596
0.57861455
0.57921753
0.57987746
0.58061007
0.58143047
0.58235352
0.58339253
0.58456745
0.58587634
0.5873224
0.58889411
0.59057341
0.59232978
0.59411952
0.5958832
0.59754457
0.59901254
0.60020095
0.60109748
0.60188631
0.60299689
0.6048819
0.60764233
0.61085255
0.61334481
0.61247471
0.60426996
0.58785222
0.64261295
0.74755218
0.69375612
0.71137867
0.69510799
0.69323982
0.68599863
0.68020254
0.67384712
0.66742586
0.6608585
0.65421029
0.64751726
0.64082854
0.63419524
0.62767147
0.62131236
0.61517233
0.60930302
0.60375132
0.59855754
0.59375403
0.58936419
0.58540212
0.58187277
0.57877253
0.57609019
0.57380819
0.57190392
0.57035105
0.56912084
0.56818322
0.56750783
0.56706481
0.56682541
0.56676253
0.56685096
0.56706759
0.56739143
0.56780357
0.56828716
0.56882735
0.56941134
0.57002844
0.57067005
0.57132963
0.57200264
0.57268656
0.57338102
0.57408807
0.57481233
0.57556119
0.5763447
0.57717582
0.57807187
0.57904823
0.58012008
0.5813042
0.58260165
0.5840206
0.5855538
0.58718571
0.58889178
0.59063541
0.59237128
0.59404445
0.59559178
0.59694217
0.59802066
0.5987721
0.59923131
0.59963068
0.60041686
0.60203301
0.60463102
0.60790253
0.61058326
0.60959118
0.60094264
0.58555935
0.63926905
0.73884769
0.68681452
0.70180802
0.68571013
0.68208386
0.67413069
0.66721508
0.65985393
0.65244287
0.64494198
0.63743095
0.62996809
0.62262217
0.61546284
0.60855954
0.60197829
0.5957789
0.59001237
0.58471896
0.57992695
0.57565218
0.57189846
0.56865854
0.56591557
0.5636449
0.56181592
0.56039391
0.55934169
0.55862112
0.55819424
0.55802427
0.55807626
0.55831767
0.55871861
0.55925202
0.5598937
0.56062218
0.56141858
0.56226641
0.56315143
0.5640616
0.56498709
0.56592022
0.56685551
0.56778951
0.56872085
0.56965031
0.570581
0.57151864
0.57247176
0.57345161
0.57447162
0.57554763
0.57669888
0.57793973
0.57927752
0.58071776
0.58226248
0.58389811
0.58560558
0.58735141
0.58909372
0.59078415
0.59236949
0.59379464
0.59500483
0.59594706
0.59657603
0.59687701
0.59692606
0.59698071
0.59747951
0.5988503
0.60130888
0.60465641
0.60751053
0.60634537
0.59729191
0.58323976
0.63476341
0.72760688
0.67779888
0.68960876
0.673607
0.6680401
0.65911717
0.65093356
0.642417
0.63391172
0.62542588
0.61706247
0.60890861
0.60105558
0.59358954
0.58658834
0.58011766
0.57422827
0.56895442
0.56431349
0.56030672
0.55692086
0.55413047
0.55190052
0.55018907
0.5489498
0.54813425
0.54769364
0.54758035
0.54774903
0.54815727
0.54876615
0.54954041
0.55044857
0.55146288
0.55255911
0.55371629
0.55491646
0.55614429
0.5573869
0.55863364
0.5598761
0.56110805
0.56232542
0.56352626
0.56471066
0.56588084
0.56704123
0.56819879
0.56936315
0.57054656
0.57176333
0.57303132
0.57436704
0.57578087
0.57728302
0.57887853
0.58056052
0.58231555
0.58411421
0.58591748
0.58767937
0.5893488
0.59087332
0.59220247
0.59329145
0.59410266
0.59460852
0.5947994
0.59469839
0.59440497
0.59417704
0.59442632
0.59556535
0.59788751
0.6012904
0.60425489
0.60288743
0.59356282
0.5809972
0.62872182
0.71501513
0.66614352
0.67421943
0.65810024
0.65040306
0.64020544
0.63058573
0.62079744
0.61116545
0.60175747
0.59270524
0.58412188
0.57611144
0.56876007
0.56213287
0.5562717
0.55119493
0.546899
0.54336107
0.54054271
0.53839371
0.53685605
0.53586736
0.5353639
0.53528294
0.53556451
0.53615255
0.5369957
0.53804758
0.53926692
0.54061742
0.54206755
0.54359021
0.54516237
0.54676466
0.54838093
0.54999783
0.55160448
0.55319224
0.55475459
0.55628714
0.55778759
0.55925571
0.56069329
0.56210415
0.56349425
0.56487189
0.56624783
0.56763536
0.56904996
0.57050802
0.57202605
0.57361817
0.57529116
0.5770459
0.57887417
0.58075615
0.58265865
0.58453789
0.58634393
0.58802392
0.58952577
0.59080275
0.59181659
0.5925393
0.5929539
0.59305918
0.59287709
0.5924547
0.59189624
0.59144519
0.59147284
0.59237704
0.59453606
0.59792565
0.60088099
0.59930549
0.5900479
0.57875456
0.62082695
0.69844203
0.65104596
0.65476445
0.63816752
0.6281294
0.61637663
0.60521872
0.59418727
0.58360028
0.57358129
0.56427797
0.55580459
0.54824668
0.54165585
0.53605061
0.53141897
0.52772302
0.52490466
0.5228915
0.52160253
0.52095308
0.52085877
0.52123849
0.52201643
0.52312332
0.52449699
0.5260825
0.52783188
0.52970376
0.53166282
0.53367922
0.53572804
0.53778874
0.53984458
0.54188209
0.54389061
0.54586188
0.54778971
0.5496699
0.55150017
0.5532802
0.55501163
0.55669804
0.55834493
0.55995983
0.56155241
0.56313466
0.56472082
0.56632698
0.56797017
0.56966678
0.57143046
0.57326918
0.57518176
0.57715623
0.57916889
0.58118408
0.58315538
0.58502942
0.58675172
0.58827121
0.58954392
0.59053655
0.59122802
0.59160905
0.59168167
0.5914653
0.59099952
0.59033873
0.58958896
0.58897126
0.58880357
0.5894669
0.59140824
0.59465503
0.59744407
0.59566575
0.5867485
0.57693484
0.61046394
0.6769643
0.6311455
0.62983113
0.61234496
0.59984451
0.58646573
0.57393044
0.56201976
0.55102815
0.54109422
0.5323366
0.52481918
0.51855924
0.51353054
0.50967139
0.50689372
0.50509224
0.50415287
0.50395971
0.50440032
0.50536939
0.50677094
0.50851941
0.5105399
0.51276771
0.51514773
0.51763344
0.52018599
0.52277324
0.52536889
0.5279517
0.53050478
0.53301498
0.53547226
0.53786923
0.54020067
0.54246321
0.54465522
0.54677671
0.54882947
0.55081702
0.55274472
0.55461973
0.55645106
0.55824974
0.56002888
0.56180366
0.56359091
0.56540823
0.56727242
0.56919726
0.57119064
0.57325134
0.57536625
0.5775093
0.57964231
0.58171701
0.58367869
0.58547171
0.58704536
0.58835811
0.58938032
0.59009564
0.59050076
0.59060283
0.59041613
0.58996976
0.58931217
0.58849672
0.58762448
0.58688877
0.58655783
0.58699041
0.58864841
0.59156311
0.59399817
0.59208911
0.58382116
0.57564055
0.59648529
0.64848663
0.60452928
0.59768413
0.57902909
0.564176
0.54957792
0.53635118
0.5244572
0.51411078
0.50538263
0.49828886
0.49277877
0.48875291
0.48607654
0.48459461
0.48414443
0.48456565
0.48570729
0.48743205
0.48961839
0.49216102
0.4949703
0.497971
0.5011007
0.50430817
0.50755175
0.51079787
0.51401978
0.51719642
0.52031156
0.52335295
0.52631176
0.52918192
0.53195967
0.53464312
0.53723192
0.53972712
0.5421311
0.54444772
0.54668236
0.54884204
0.55093543
0.5529729
0.55496666
0.55693083
0.55888143
0.56083604
0.56281289
0.56482939
0.56689998
0.56903324
0.57122862
0.57347328
0.57574081
0.57799207
0.58017771
0.58224196
0.58412858
0.58578712
0.58717731
0.58827201
0.58905811
0.58953569
0.58971596
0.58961761
0.58926284
0.58867852
0.58790627
0.58700156
0.58606574
0.58526129
0.5848164
0.58505246
0.58636782
0.58873299
0.5905998
0.58866646
0.58139752
0.57487649
0.57694409
0.61067317
0.56900445
0.55651642
0.5371676
0.52040465
0.50571934
0.49320588
0.48282916
0.47463166
0.46851577
0.46432223
0.46184077
0.46083845
0.46107866
0.4623361
0.46440583
0.4671079
0.47028847
0.47381881
0.47759304
0.48152525
0.48554654
0.48960224
0.49364939
0.4976546
0.50159219
0.50544276
0.50919194
0.51282951
0.51634861
0.51974517
0.5230174
0.52616534
0.52919048
0.53209552
0.53488416
0.5375611
0.54013216
0.54260444
0.54498641
0.54728807
0.54952092
0.55169813
0.55383461
0.55594705
0.55805367
0.56017344
0.5623246
0.56452259
0.56677741
0.5690904
0.57145082
0.57383347
0.57619927
0.57849877
0.58067635
0.58267507
0.58444348
0.58594158
0.58714327
0.58803711
0.58862553
0.58892225
0.58894864
0.5887286
0.58828418
0.58763565
0.58681187
0.58587088
0.58491249
0.58408694
0.58358791
0.58367364
0.58461044
0.58625638
0.58735483
0.58544694
0.57951185
0.57453537
0.54923474
0.56101874
0.52316215
0.50496123
0.48453651
0.46923715
0.45641801
0.44667528
0.4397444
0.43538374
0.43324876
0.43297809
0.43421626
0.43663894
0.43996342
0.44395213
0.44841083
0.45318399
0.45814919
0.46321138
0.46829766
0.4733528
0.47833544
0.48321509
0.48796965
0.49258358
0.49704634
0.50135136
0.50549512
0.50947656
0.51329661
0.51695779
0.52046391
0.52381976
0.52703093
0.53010362
0.53304468
0.53586169
0.53856322
0.54115897
0.54365995
0.54607855
0.54842862
0.5507256
0.5529866
0.55523028
0.55747624
0.55974375
0.56204975
0.5644062
0.56681711
0.56927533
0.57175953
0.57423303
0.57664656
0.57894433
0.58106954
0.58296929
0.58460129
0.58593852
0.58696964
0.58769756
0.58813747
0.58831283
0.5882503
0.58797417
0.58750157
0.58684206
0.58601187
0.58506989
0.58413606
0.5833464
0.58283655
0.58280092
0.58333226
0.58417434
0.58444325
0.58254254
0.57800233
0.57477422
0.50926025
0.49691178
0.46002419
0.44232343
0.42507681
0.41302577
0.40483712
0.40029983
0.39876322
0.39964511
0.40238038
0.40648535
0.41156066
0.41729033
0.42343083
0.42979859
0.4362576
0.44270869
0.44908063
0.45532321
0.4614018
0.46729335
0.47298329
0.47846324
0.48372934
0.48878105
0.49362017
0.4982503
0.50267633
0.50690422
0.51094072
0.51479324
0.51846968
0.52197826
0.52532747
0.52852605
0.53158314
0.53450848
0.53731266
0.5400074
0.54260562
0.54512157
0.54757092
0.54997089
0.55234022
0.5546989
0.55706712
0.55946354
0.56190274
0.56439219
0.56692912
0.56949772
0.572067
0.57459115
0.57701425
0.57927803
0.58132804
0.58311848
0.58461796
0.5858126
0.5867043
0.58730778
0.58764774
0.58775325
0.58765194
0.58736486
0.58690263
0.58626488
0.58545634
0.58454242
0.58368898
0.58299192
0.58247293
0.58232079
0.58241974
0.58245616
0.58197
0.58018648
0.57704961
0.57524841
0.44816774
0.41590304
0.38644446
0.37176769
0.36106113
0.3563507
0.35584423
0.3586296
0.36372149
0.37036547
0.37798034
0.38614479
0.3945608
0.40302304
0.41139309
0.41958003
0.42752607
0.43519641
0.44257201
0.44964454
0.45641289
0.46288075
0.46905489
0.47494403
0.480558
0.48590727
0.49100259
0.4958548
0.50047474
0.50487325
0.50906113
0.51304914
0.51684794
0.52046808
0.52392
0.52721417
0.5303613
0.53337261
0.53626017
0.53903708
0.54171761
0.54431733
0.5468532
0.54934364
0.55180847
0.55426831
0.55674328
0.55925074
0.56180232
0.56440063
0.56703622
0.56968548
0.57231
0.5748581
0.57727032
0.57948789
0.58146028
0.58314971
0.58453531
0.58561479
0.58640102
0.58691789
0.58719678
0.58726944
0.58716157
0.58688896
0.58645643
0.58586003
0.5851012
0.58424243
0.58347319
0.58288518
0.58238498
0.5820853
0.58172728
0.5810616
0.57999431
0.57843845
0.57660135
0.57578864
0.35328655
0.32007125
0.3026124
0.29821972
0.29964505
0.30591974
0.31507516
0.32585461
0.33739054
0.34913592
0.3607579
0.37206231
0.38294266
0.39334664
0.40325505
0.41266849
0.4215991
0.43006538
0.43808904
0.44569304
0.45290041
0.45973354
0.46621385
0.47236153
0.47819551
0.48373352
0.48899211
0.49398684
0.49873241
0.50324283
0.50753149
0.51161133
0.51549479
0.51919392
0.52272045
0.52608598
0.52930223
0.53238143
0.53533655
0.53818156
0.54093154
0.54360281
0.546213
0.54878112
0.55132737
0.55387241
0.55643574
0.55903323
0.56167377
0.56435576
0.56706419
0.56976936
0.57242778
0.57498455
0.57737817
0.57955039
0.58145564
0.58306363
0.58436186
0.58535668
0.58606921
0.58653052
0.58677694
0.58684138
0.58674637
0.58650169
0.58610803
0.58556241
0.58487322
0.58409775
0.58340361
0.58289648
0.58242595
0.58194099
0.58117956
0.58000412
0.57858646
0.57730537
0.57646692
0.57630887
0.21519902
0.21396624
0.21936429
0.23272876
0.24996826
0.26827478
0.28645229
0.30385597
0.32025922
0.33559933
0.34990189
0.36322735
0.37564932
0.38724287
0.39807949
0.40822495
0.4177387
0.42667402
0.43507842
0.44299422
0.45045912
0.45750679
0.46416731
0.47046765
0.4764321
0.48208261
0.48743914
0.49251999
0.49734213
0.50192139
0.50627275
0.5104104
0.51434787
0.5180981
0.52167361
0.52508666
0.52834959
0.53147515
0.53447678
0.53736886
0.54016681
0.54288722
0.54554794
0.54816815
0.55076808
0.55336828
0.55598792
0.55864214
0.56133869
0.56407416
0.56683073
0.56957454
0.57225694
0.57481931
0.57720108
0.57934894
0.58122131
0.58279139
0.58405099
0.58500932
0.58569294
0.58613816
0.58638487
0.58646641
0.58640219
0.58619695
0.58584411
0.58534544
0.58472321
0.58404302
0.58343402
0.58299649
0.58256107
0.58188856
0.58079678
0.57930944
0.57774051
0.57680833
0.57656793
0.57672172
0.091389214
0.12115371
0.15839172
0.1918698
0.22184719
0.24823602
0.27165388
0.29256462
0.31138243
0.32843194
0.34397478
0.35822053
0.37133922
0.38347006
0.3947281
0.40520941
0.41499487
0.42415318
0.4327431
0.44081529
0.44841369
0.45557668
0.46233793
0.46872719
0.47477087
0.48049256
0.48591352
0.49105305
0.49592889
0.50055751
0.50495433
0.50913395
0.5131102
0.51689625
0.5205048
0.52394824
0.52723902
0.53038998
0.53341469
0.53632764
0.53914448
0.5418821
0.54455879
0.54719437
0.54980994
0.55242715
0.55506645
0.55774434
0.56046981
0.5632406
0.56604011
0.56883556
0.57157839
0.57420904
0.57666545
0.57888733
0.58081689
0.58244911
0.58375775
0.58475406
0.58546985
0.58594495
0.58622425
0.58634483
0.58632674
0.58616952
0.58586352
0.58541091
0.58483931
0.58421026
0.58364357
0.58326848
0.58292458
0.58209246
0.58076726
0.5790931
0.57744482
0.57669255
0.57674938
0.57695191
0.0068590788
0.34728766
0.48648097
0.51585022
0.51999841
0.51974574
0.52040972
0.52193081
0.52354902
0.52516732
0.52672874
0.52825151
0.52973463
0.53120813
0.53267844
0.53415122
0.53562682
0.53710734
0.53859359
0.54008507
0.54158088
0.54307995
0.54458095
0.54608236
0.54758245
0.54907932
0.55057095
0.55205518
0.55352972
0.55499224
0.55644039
0.55787183
0.55928437
0.56067596
0.5620448
0.56338936
0.5647084
0.5660009
0.56726602
0.56850296
0.56971083
0.57088851
0.57203453
0.57314702
0.57422369
0.57526186
0.57625858
0.57721064
0.57811466
0.57896711
0.57976434
0.58050259
0.58117814
0.58178748
0.58232764
0.58279652
0.58319363
0.5835207
0.58378187
0.58398346
0.58413407
0.58424353
0.58432331
0.58437979
0.58442613
0.58444772
0.58447845
0.58444052
0.58446595
0.58432038
0.58435156
0.58411345
0.58425071
0.58391658
0.5843125
0.58395884
0.5843396
0.58473409
0.58354169
0.58759146
0.1066304
0.42321325
0.52360552
0.53888459
0.53788214
0.53651596
0.53606104
0.53643136
0.53675126
0.53722135
0.53780216
0.53852506
0.5393292
0.54019956
0.54111997
0.54208888
0.54310058
0.54415268
0.54524114
0.54636199
0.54751183
0.54868746
0.54988588
0.55110406
0.55233902
0.55358772
0.5548471
0.55611402
0.55738527
0.55865763
0.5599279
0.56119291
0.56244965
0.56369529
0.56492727
0.5661433
0.5673414
0.56851988
0.56967725
0.57081213
0.57192311
0.57300863
0.57406682
0.57509549
0.57609204
0.57705355
0.57797682
0.57885843
0.5796948
0.5804822
0.58121672
0.58189428
0.5825108
0.58306235
0.58354549
0.5839577
0.58429805
0.58456792
0.58477116
0.58491408
0.58500557
0.58505618
0.58507806
0.58507907
0.58507236
0.58504614
0.58503031
0.58495236
0.58493509
0.58475097
0.58475145
0.58446637
0.58458272
0.58420044
0.58458419
0.58419296
0.5845446
0.5849752
0.58380337
0.58776874
0.19775885
0.48786082
0.53720281
0.5461807
0.54393485
0.54397358
0.54420412
0.54485678
0.5453277
0.54594793
0.54652064
0.54714524
0.54777875
0.54844645
0.54913908
0.54986092
0.55061086
0.55139164
0.55220287
0.55304412
0.55391489
0.55481436
0.55574142
0.5566946
0.55767208
0.55867176
0.55969125
0.56072785
0.56177866
0.56284058
0.5639104
0.56498485
0.56606069
0.56713479
0.56820418
0.56926615
0.57031823
0.57135824
0.57238418
0.57339422
0.57438652
0.57535912
0.57630981
0.57723608
0.57813506
0.57900354
0.5798381
0.58063507
0.58139065
0.58210083
0.58276137
0.58336785
0.58391575
0.5844007
0.58481882
0.58516713
0.58544422
0.58565108
0.58579123
0.58587087
0.58589912
0.58588716
0.58584784
0.58579037
0.58572834
0.58565216
0.5855893
0.58547057
0.58541111
0.58518948
0.58515619
0.5848277
0.58491235
0.58449869
0.58484945
0.5844364
0.58474491
0.5852183
0.58406746
0.58792187
0.25862068
0.52049715
0.550198
0.55559013
0.55316347
0.55396581
0.55385684
0.55445052
0.55465672
0.55508823
0.555428
0.55585113
0.55626901
0.55671705
0.55718179
0.55767079
0.55818356
0.55872368
0.55929155
0.55988791
0.56051326
0.5611678
0.56185137
0.56256342
0.56330305
0.56406896
0.5648595
0.56567266
0.56650611
0.56735725
0.56822324
0.56910111
0.56998779
0.57088023
0.57177543
0.57267058
0.57356302
0.57445035
0.57533032
0.57620082
0.57705976
0.57790493
0.57873392
0.57954398
0.58033208
0.58109483
0.58182862
0.58252962
0.58319381
0.5838169
0.58439434
0.5849213