/*--------------------------------*- C++ -*----------------------------------*\
  =========                 |
  \\      /  F ield         | OpenFOAM: The Open Source CFD Toolbox
   \\    /   O peration     | Website:  https://openfoam.org
    \\  /    A nd           | Version:  12
     \\/     M anipulation  |
\*---------------------------------------------------------------------------*/
FoamFile
{
    format      ascii;
    class       volScalarField;
    location    "0.012";
    object      nut;
}
// * * * * * * * * * * * * * * * * * * * * * * * * * * * * * * * * * * * * * //

dimensions      [0 2 -1 0 0 0 0];

internalField   nonuniform List<scalar> 
16000
(
4.851519e-07
9.9943051e-06
1.8109198e-05
2.4041002e-05
1.8694565e-05
2.5009142e-05
1.8357191e-05
2.420425e-05
1.978888e-05
2.6075335e-05
2.2889885e-05
2.6019114e-05
2.4168885e-05
2.4511554e-05
2.3775798e-05
2.356821e-05
2.3323697e-05
2.3240177e-05
2.3248388e-05
2.3358832e-05
2.3566471e-05
2.3869978e-05
2.4266941e-05
2.4757688e-05
2.5344791e-05
2.6034827e-05
2.683662e-05
2.7763995e-05
2.8833754e-05
3.0064258e-05
3.1476238e-05
3.3097335e-05
3.4963329e-05
3.7118806e-05
3.9619243e-05
4.2532061e-05
4.5939281e-05
4.9941274e-05
5.4664963e-05
6.0270875e-05
6.6954166e-05
7.4954708e-05
8.4582913e-05
9.6232961e-05
0.00011039819
0.00012770347
0.00014895942
0.00017521031
0.00020780646
0.00024849733
0.00029954933
0.00036388338
0.00044521858
0.00054822323
0.00067861875
0.00084318626
0.0010264103
0.0010276878
0.0010281904
0.0010282895
0.0010281959
0.0010277408
0.001026902
0.0010261701
0.001025638
0.0010253384
0.001025315
0.0010255353
0.0010258496
0.0010262659
0.0010268168
0.0010274585
0.0010278972
0.0010275819
0.0010264205
0.0010244806
0.0010221276
0.0010165655
0.0010126588
0.0010078432
4.3054198e-07
9.4918368e-06
2.0094589e-05
2.1493773e-05
1.6859771e-05
2.2520508e-05
1.6313164e-05
2.1347492e-05
1.7441547e-05
2.3129148e-05
2.0677587e-05
2.3499874e-05
2.2087856e-05
2.2231584e-05
2.164853e-05
2.1406551e-05
2.1196657e-05
2.1110105e-05
2.1116331e-05
2.1213812e-05
2.140099e-05
2.1676622e-05
2.2038806e-05
2.2487877e-05
2.3025788e-05
2.3658572e-05
2.4393774e-05
2.5243709e-05
2.6224032e-05
2.7352201e-05
2.8647028e-05
3.0133239e-05
3.184321e-05
3.3817276e-05
3.6106045e-05
3.8771191e-05
4.1888008e-05
4.5547877e-05
4.9865608e-05
5.4988481e-05
6.10974e-05
6.8411298e-05
7.721443e-05
8.7872007e-05
0.00010084443
0.00011671369
0.00013624168
0.00016042037
0.0001905493
0.00022834085
0.00027606347
0.00033672976
0.00041432076
0.00051406653
0.0006427338
0.00080884787
0.0010227676
0.0010275027
0.0010281048
0.0010282023
0.0010280796
0.0010276873
0.0010268403
0.0010260641
0.0010254746
0.001025072
0.0010249177
0.0010249617
0.0010251623
0.0010255287
0.0010260714
0.0010267537
0.0010272812
0.0010272158
0.0010262186
0.0010241779
0.0010209851
0.0010155838
0.0010116711
0.0010073468
3.924702e-07
9.100722e-06
1.9013661e-05
1.9705924e-05
1.511255e-05
1.988515e-05
1.4534637e-05
1.8605783e-05
1.5704673e-05
2.0352172e-05
1.8874893e-05
2.0965441e-05
2.001278e-05
1.9938137e-05
1.9483681e-05
1.9233577e-05
1.9053385e-05
1.8974135e-05
1.8982644e-05
1.9073745e-05
1.9246536e-05
1.9500291e-05
1.9833429e-05
2.0246512e-05
2.0741006e-05
2.1322637e-05
2.1998059e-05
2.2778321e-05
2.367789e-05
2.4713519e-05
2.5902729e-05
2.7268029e-05
2.883913e-05
3.0652924e-05
3.2755999e-05
3.5205175e-05
3.8070201e-05
4.1435413e-05
4.5405519e-05
5.0115541e-05
5.5734117e-05
6.2462125e-05
7.055927e-05
8.0361075e-05
9.2293522e-05
0.00010689071
0.00012485316
0.00014709563
0.00017482051
0.00020962022
0.00025361937
0.00030967309
0.00038161531
0.00047460104
0.00059552036
0.0007534547
0.00096010528
0.0010274076
0.0010280777
0.0010281928
0.0010280357
0.0010276737
0.0010268391
0.0010260247
0.0010253617
0.0010248846
0.0010245871
0.0010244447
0.0010245181
0.0010248144
0.0010253185
0.0010260187
0.0010266093
0.0010266384
0.0010258049
0.0010237003
0.001019861
0.0010144738
0.0010105506
0.0010065143
3.5380438e-07
8.8064147e-06
1.8061896e-05
1.8128531e-05
1.3584379e-05
1.7601536e-05
1.2950448e-05
1.6307436e-05
1.4144844e-05
1.7990906e-05
1.7230648e-05
1.8719691e-05
1.8087433e-05
1.7865003e-05
1.7502912e-05
1.7262372e-05
1.7108618e-05
1.7041262e-05
1.7055285e-05
1.7144162e-05
1.7307139e-05
1.7543906e-05
1.7853171e-05
1.8235827e-05
1.8692974e-05
1.9230154e-05
1.9853394e-05
2.0572716e-05
2.1401476e-05
2.235584e-05
2.3452394e-05
2.4711752e-05
2.6161395e-05
2.7835239e-05
2.9776405e-05
3.2037475e-05
3.468335e-05
3.7792515e-05
4.1461161e-05
4.581301e-05
5.1006197e-05
5.7226272e-05
6.4711481e-05
7.3770199e-05
8.4798347e-05
9.8287451e-05
0.00011488258
0.00013542808
0.00016103609
0.00019318501
0.00023385511
0.00028572982
0.00035244919
0.00043898002
0.00055208943
0.00070092368
0.00089763016
0.0010273524
0.0010280951
0.0010282261
0.0010280508
0.0010277194
0.0010269956
0.001026209
0.0010254825
0.0010248463
0.0010243222
0.0010240174
0.0010239296
0.0010241199
0.0010245683
0.0010252539
0.0010259008
0.0010259664
0.0010251296
0.0010227575
0.0010184987
0.0010130916
0.0010092693
0.0010054275
3.1217854e-07
8.5802033e-06
1.7227793e-05
1.8014525e-05
1.3341283e-05
1.5579531e-05
1.1554526e-05
1.4319163e-05
1.280055e-05
1.5937484e-05
1.5752212e-05
1.6683707e-05
1.6279268e-05
1.5966777e-05
1.5674262e-05
1.5456464e-05
1.5327289e-05
1.5273987e-05
1.5294412e-05
1.5382241e-05
1.5536767e-05
1.5758248e-05
1.6045733e-05
1.6400619e-05
1.682386e-05
1.7320934e-05
1.789746e-05
1.856267e-05
1.9328885e-05
2.021174e-05
2.1227182e-05
2.239429e-05
2.3738747e-05
2.5291978e-05
2.7094228e-05
2.9194517e-05
3.1653626e-05
3.454533e-05
3.7959141e-05
4.2008567e-05
4.6842848e-05
5.2634953e-05
5.9604973e-05
6.8036371e-05
7.829859e-05
9.0844857e-05
0.00010626837
0.00012534562
0.00014909804
0.00017888361
0.00021651751
0.00026446384
0.0003260676
0.00040590471
0.00051022705
0.00064751109
0.00082903246
0.0010273424
0.0010281693
0.0010283265
0.0010281238
0.001027826
0.0010272756
0.0010265525
0.0010258163
0.001025076
0.0010243738
0.0010237869
0.001023495
0.0010234853
0.0010238493
0.0010244917
0.0010251707
0.0010252282
0.0010242895
0.0010215398
0.0010167631
0.0010113727
0.0010077477
0.0010042066
2.8846743e-07
8.4387972e-06
1.655909e-05
1.7707873e-05
1.3148313e-05
1.3812714e-05
1.0613955e-05
1.2658429e-05
1.1659798e-05
1.4183983e-05
1.4436365e-05
1.4884697e-05
1.4624686e-05
1.4270814e-05
1.4024626e-05
1.3830892e-05
1.3719713e-05
1.3676613e-05
1.3700224e-05
1.3784946e-05
1.3930082e-05
1.4136474e-05
1.4403396e-05
1.4732656e-05
1.5125285e-05
1.5586619e-05
1.6121978e-05
1.6739976e-05
1.7451945e-05
1.8272995e-05
1.9218669e-05
2.0306803e-05
2.1561654e-05
2.3012593e-05
2.4697519e-05
2.6662509e-05
2.8964891e-05
3.1674611e-05
3.4876257e-05
3.8674464e-05
4.3210613e-05
4.8647622e-05
5.5191018e-05
6.3101646e-05
7.2726164e-05
8.4484557e-05
9.892315e-05
0.00011675615
0.00013891901
0.00016665338
0.00020160752
0.00024601311
0.00030288141
0.00037630568
0.0004718282
0.00059686833
0.00076110284
0.00097667683
0.0010282864
0.0010284839
0.0010282535
0.0010279237
0.0010275383
0.0010269354
0.0010262403
0.0010254649
0.00102466
0.0010238978
0.0010232979
0.0010230776
0.0010231872
0.001023761
0.001024426
0.0010244053
0.0010232724
0.0010200266
0.0010146465
0.0010092838
0.0010060009
0.0010028398
2.6533556e-07
8.357415e-06
1.603733e-05
1.681106e-05
1.3024741e-05
1.225192e-05
1.0840331e-05
1.1564486e-05
1.1433825e-05
1.2701566e-05
1.326228e-05
1.3300096e-05
1.3107623e-05
1.2745047e-05
1.2524742e-05
1.2351476e-05
1.2252893e-05
1.2217051e-05
1.2242305e-05
1.2323786e-05
1.2460536e-05
1.2653863e-05
1.2903089e-05
1.313335e-05
1.3490529e-05
1.3913175e-05
1.4405946e-05
1.4976653e-05
1.5635446e-05
1.6396605e-05
1.7275277e-05
1.828814e-05
1.9458173e-05
2.0812863e-05
2.2388e-05
2.4227039e-05
2.6384175e-05
2.8925841e-05
3.1932859e-05
3.5769421e-05
4.0062558e-05
4.5210244e-05
5.1406965e-05
5.8893325e-05
6.7995828e-05
7.9106068e-05
9.2728281e-05
0.00010951965
0.00013033457
0.00015630426
0.00018891287
0.00023015778
0.00028270333
0.00035012421
0.0004371766
0.00055007973
0.00069667996
0.00088629945
0.0010284424
0.0010286939
0.0010284472
0.0010280735
0.0010276803
0.0010272443
0.0010266188
0.001025897
0.0010250642
0.0010242093
0.0010234339
0.0010228987
0.0010228221
0.0010230813
0.001023679
0.0010234747
0.0010220406
0.0010181943
0.001012133
0.0010068441
0.0010041068
0.0010014125
2.3815619e-07
8.310935e-06
1.5601951e-05
1.5380072e-05
1.2362175e-05
1.072954e-05
9.767814e-06
1.0421139e-05
1.0224972e-05
1.1415495e-05
1.2102416e-05
1.1854879e-05
1.1673069e-05
1.133277e-05
1.1132636e-05
1.0981352e-05
1.0896757e-05
1.0870155e-05
1.0834095e-05
1.0899264e-05
1.1019489e-05
1.1195003e-05
1.1423926e-05
1.1706176e-05
1.204605e-05
1.2446788e-05
1.2913071e-05
1.3452579e-05
1.4074831e-05
1.4793611e-05
1.5624141e-05
1.6582414e-05
1.769069e-05
1.8975171e-05
2.0470255e-05
2.2217559e-05
2.4269078e-05
2.6688658e-05
2.9554605e-05
3.2963039e-05
3.7032492e-05
4.1914605e-05
4.7795448e-05
5.5360052e-05
6.4046735e-05
7.4637208e-05
8.759877e-05
0.00010353705
0.0001232317
0.00014771295
0.00017831116
0.00021680285
0.00026552421
0.00032756026
0.00040693225
0.00050875953
0.00063928095
0.00080553533
0.0010146993
0.001028952
0.0010286978
0.0010282972
0.001027869
0.0010273819
0.001026868
0.0010262439
0.0010254584
0.0010245935
0.001023749
0.0010230557
0.001022669
0.0010226806
0.0010229237
0.0010224182
0.0010205907
0.0010160827
0.0010093128
0.0010041692
0.0010021438
0.0010000663
2.1795056e-07
8.2697617e-06
1.5180058e-05
1.3590334e-05
1.0214584e-05
9.3892382e-06
7.9618548e-06
8.8930794e-06
9.3223045e-06
1.0304289e-05
1.0908354e-05
1.0498785e-05
1.0313867e-05
1.001634e-05
9.839657e-06
9.6455999e-06
9.5527388e-06
9.5226345e-06
9.5477838e-06
9.6252833e-06
9.7508602e-06
9.9262793e-06
1.01504e-05
1.042336e-05
1.0749372e-05
1.1132451e-05
1.157734e-05
1.2091696e-05
1.2684591e-05
1.3369301e-05
1.4161253e-05
1.5076014e-05
1.6135442e-05
1.7364776e-05
1.8797422e-05
2.047367e-05
2.2443894e-05
2.4770014e-05
2.752785e-05
3.0810066e-05
3.4731681e-05
3.9436926e-05
4.5107021e-05
5.1956014e-05
6.0262354e-05
7.037879e-05
8.3471293e-05
9.873484e-05
0.00011752756
0.00014079107
0.00016971902
0.00020589293
0.00025136384
0.00030880171
0.00038162643
0.00047409877
0.00059129379
0.00073878473
0.00092202331
0.0010292511
0.0010290014
0.0010285809
0.0010281276
0.0010276063
0.0010270299
0.0010264129
0.0010257447
0.001024916
0.0010240658
0.0010232995
0.0010227071
0.0010223874
0.0010221173
0.0010212416
0.001018961
0.0010138116
0.0010064015
0.0010014936
0.0010002719
0.00099883162
2.0089453e-07
8.2272195e-06
1.4230319e-05
1.1890126e-05
8.2769851e-06
8.3733353e-06
6.9539084e-06
8.0509377e-06
8.622621e-06
9.2175823e-06
9.7253965e-06
9.2493067e-06
9.0598608e-06
8.7227958e-06
8.537804e-06
8.4164895e-06
8.3577192e-06
8.3526772e-06
8.395691e-06
8.4831618e-06
8.6159218e-06
8.7915314e-06
9.012216e-06
9.2780838e-06
9.5935788e-06
9.9631277e-06
1.0391588e-05
1.0886735e-05
1.1457337e-05
1.2116186e-05
1.2878987e-05
1.3761196e-05
1.478452e-05
1.5973528e-05
1.7360988e-05
1.8986319e-05
2.0898773e-05
2.3158983e-05
2.5841355e-05
2.9036498e-05
3.2855989e-05
3.7438644e-05
4.2961763e-05
4.9629302e-05
5.7707462e-05
6.7530503e-05
7.9516701e-05
9.4171095e-05
0.00011317928
0.00013550007
0.00016311443
0.00019744461
0.00024031658
0.00029408638
0.00036174442
0.00044698608
0.00055420924
0.00068828873
0.0008540909
0.0010295814
0.0010293472
0.0010289118
0.0010284334
0.0010278781
0.0010272534
0.0010265659
0.0010258208
0.0010250351
0.0010242144
0.0010233737
0.0010226064
0.001021926
0.0010211868
0.001019983
0.0010172467
0.0010115826
0.0010037279
0.00099911779
0.00099861771
0.00099807009
1.8510946e-07
8.1789344e-06
1.1234212e-05
1.0101221e-05
6.7188023e-06
7.4932281e-06
6.3025236e-06
7.2313059e-06
8.0432269e-06
8.2308849e-06
8.5766457e-06
8.0241322e-06
7.7809744e-06
7.5463997e-06
7.408266e-06
7.3261484e-06
7.2962755e-06
7.3122775e-06
7.3708334e-06
7.4695906e-06
7.606449e-06
7.783743e-06
8.0028864e-06
8.2644494e-06
8.5729609e-06
8.9332774e-06
9.3504963e-06
9.8325688e-06
1.038816e-05
1.1029639e-05
1.1712957e-05
1.2563653e-05
1.3552631e-05
1.4703784e-05
1.6049265e-05
1.7627699e-05
1.9487351e-05
2.1687708e-05
2.430202e-05
2.7419328e-05
3.1149098e-05
3.5906189e-05
4.1345454e-05
4.7908903e-05
5.5851797e-05
6.5492803e-05
7.7234615e-05
9.1555087e-05
0.00010907194
0.00013057799
0.0001585163
0.00019151604
0.00023250481
0.00028363325
0.00034763689
0.00042792732
0.0005286516
0.00065458298
0.00081077628
0.0010021998
0.0010297123
0.0010292628
0.0010287571
0.0010281643
0.0010274854
0.001026725
0.0010258858
0.0010249754
0.0010240126
0.0010230367
0.0010221
0.0010212233
0.0010202675
0.0010187307
0.0010155879
0.0010096154
0.0010015537
0.00099723948
0.0009970005
0.000997481
1.7123349e-07
8.1291669e-06
8.8174759e-06
8.417398e-06
5.8104747e-06
6.6418083e-06
5.7880368e-06
6.5201937e-06
7.4512299e-06
7.3073483e-06
7.3427469e-06
6.8854325e-06
6.6837439e-06
6.5110859e-06
6.4128415e-06
6.363125e-06
6.3578831e-06
6.3929637e-06
6.4645732e-06
6.5727655e-06
6.716209e-06
6.8966077e-06
7.1164972e-06
7.3768937e-06
7.6823971e-06
8.0038827e-06
8.4082614e-06
8.8765333e-06
9.4171674e-06
1.0042016e-05
1.0765344e-05
1.1605615e-05
1.2583514e-05
1.3722747e-05
1.505543e-05
1.6620109e-05
1.8464942e-05
2.0649227e-05
2.3246311e-05
2.6345146e-05
3.005501e-05
3.4511834e-05
3.9881191e-05
4.6360597e-05
5.4197824e-05
6.4254504e-05
7.5894679e-05
9.0059407e-05
0.00010733286
0.0001284725
0.0001544323
0.00018818789
0.00022805309
0.00027761442
0.00033951045
0.00041710046
0.0005146003
0.00063709603
0.00079026138
0.0009797266
0.0010300629
0.0010295968
0.0010290575
0.0010284196
0.0010276797
0.00102684
0.0010259043
0.0010248842
0.001023803
0.0010227007
0.0010216285
0.0010205988
0.0010194429
0.0010176131
0.0010141427
0.0010080402
0.00099987518
0.00099596069
0.00099543367
0.00099745608
1.5882345e-07
8.0735724e-06
6.9580524e-06
7.3939588e-06
5.1658259e-06
5.8774459e-06
5.3392414e-06
5.8840125e-06
6.7509945e-06
6.2574594e-06
6.2341149e-06
5.8871604e-06
5.7252525e-06
5.6020436e-06
5.5379051e-06
5.5160445e-06
5.5323819e-06
5.5844215e-06
5.6693874e-06
5.7876933e-06
5.9387063e-06
6.1244173e-06
6.3210923e-06
6.5778662e-06
6.8791819e-06
7.2292737e-06
7.6352436e-06
8.1046616e-06
8.6461636e-06
9.2717445e-06
9.9957317e-06
1.0836278e-05
1.1815182e-05
1.2956274e-05
1.4291913e-05
1.5860975e-05
1.7712107e-05
1.9905008e-05
2.2513968e-05
2.5629084e-05
2.9359933e-05
3.3842066e-05
3.9244985e-05
4.5764204e-05
5.3645506e-05
6.3193083e-05
7.4783757e-05
8.8873511e-05
0.00010696568
0.00012805343
0.00015388572
0.00018565599
0.00022705658
0.00027611905
0.00033738845
0.00041432226
0.00051137491
0.00063410616
0.00078876875
0.00098078728
0.0010303589
0.0010298695
0.0010292875
0.0010285978
0.0010277925
0.0010268748
0.0010258536
0.0010247474
0.0010235849
0.001022406
0.0010212548
0.001020128
0.0010188234
0.0010167576
0.0010130283
0.0010069045
0.00099914299
0.00099526409
0.00099456708
0.00099757228
1.4772417e-07
8.0026565e-06
5.54767e-06
6.4543992e-06
4.6008169e-06
5.1981307e-06
4.9552999e-06
5.2355974e-06
5.883363e-06
5.3439335e-06
5.2637654e-06
5.012217e-06
4.8885549e-06
4.806254e-06
4.7722711e-06
4.7753123e-06
4.8118136e-06
4.8803279e-06
4.9788109e-06
5.0891763e-06
5.2435997e-06
5.432439e-06
5.657974e-06
5.9231974e-06
6.2323997e-06
6.5901757e-06
7.0035427e-06
7.4806889e-06
8.030432e-06
8.6648786e-06
9.3984092e-06
1.0249313e-05
1.118887e-05
1.2333211e-05
1.3673287e-05
1.5248354e-05
1.7107858e-05
1.9312106e-05
2.1936609e-05
2.5073478e-05
2.8834142e-05
3.3609025e-05
3.9107229e-05
4.5743177e-05
5.3763558e-05
6.3470989e-05
7.5247806e-05
8.9553348e-05
0.00010695613
0.00012935501
0.00015548682
0.00018758778
0.00022721315
0.00027907398
0.00034096965
0.00041880292
0.0005171871
0.00064178385
0.00079843941
0.00099063351
0.0010305562
0.0010300369
0.0010294057
0.0010286623
0.0010277964
0.0010268168
0.0010257397
0.0010245924
0.0010234077
0.0010222198
0.0010210578
0.0010198931
0.0010184868
0.0010162305
0.0010123045
0.0010062567
0.00099883983
0.00099481755
0.00099409122
0.00099767962
1.3782792e-07
7.8922041e-06
4.4761856e-06
5.6190399e-06
4.0940337e-06
4.5908776e-06
4.6161248e-06
4.5288999e-06
5.0166154e-06
4.5273978e-06
4.4234924e-06
4.2487715e-06
4.1619534e-06
4.1148438e-06
4.1082543e-06
4.1343015e-06
4.1900645e-06
4.2579872e-06
4.3650215e-06
4.502679e-06
4.6718326e-06
4.874036e-06
5.1122608e-06
5.3897047e-06
5.7112306e-06
6.0816826e-06
6.5081328e-06
6.9781188e-06
7.5370423e-06
8.1811614e-06
8.9248464e-06
9.7863317e-06
1.0787795e-05
1.1956923e-05
1.3326459e-05
1.4936682e-05
1.6838949e-05
1.9095336e-05
2.1783722e-05
2.5000107e-05
2.8859953e-05
3.350719e-05
3.9113142e-05
4.5885935e-05
5.4078277e-05
6.4535159e-05
7.6654139e-05
9.1370965e-05
0.00010926841
0.00013107992
0.00015922183
0.00019216232
0.00023278805
0.00028316797
0.00034930075
0.00042856533
0.00052808036
0.00065264215
0.00080551079
0.00098631733
0.0010306146
0.0010300627
0.0010293856
0.0010285974
0.0010276914
0.0010266843
0.0010256008
0.0010244749
0.0010233377
0.0010222093
0.0010210929
0.0010199257
0.0010184364
0.001016018
0.0010119357
0.0010059481
0.0009989912
0.00099462779
0.00099385923
0.00099785079
1.2904495e-07
7.6035552e-06
3.7249179e-06
4.8759492e-06
3.6432161e-06
4.0509815e-06
4.0873382e-06
3.8887865e-06
4.1897094e-06
3.8045437e-06
3.7037405e-06
3.5894459e-06
3.5373715e-06
3.5212271e-06
3.5396745e-06
3.574032e-06
3.6420732e-06
3.739577e-06
3.8657613e-06
4.0208976e-06
4.2064954e-06
4.4246321e-06
4.6787104e-06
4.9722134e-06
5.2983019e-06
5.6822987e-06
6.1226477e-06
6.6274943e-06
7.20705e-06
7.8734287e-06
8.6413475e-06
9.5297564e-06
1.0561704e-05
1.1765891e-05
1.3177284e-05
1.4837507e-05
1.6800552e-05
1.913123e-05
2.1910379e-05
2.5239553e-05
2.9238347e-05
3.405745e-05
3.9878667e-05
4.6917767e-05
5.5439932e-05
6.5766185e-05
7.8984301e-05
9.4306526e-05
0.00011293292
0.00013562356
0.00016331394
0.00019909226
0.00024106077
0.00029279852
0.00035675741
0.0004398377
0.00053731962
0.00065562094
0.00079517863
0.00095238381
0.0010305105
0.0010299319
0.0010292235
0.0010284144
0.0010275061
0.0010265219
0.0010254943
0.0010244581
0.0010234345
0.0010224177
0.0010213706
0.0010201901
0.0010185956
0.0010160324
0.0010118601
0.001005907
0.00099918191
0.00099478382
0.00099422615
0.00099812231
1.2143603e-07
7.1811846e-06
3.2686244e-06
4.2172723e-06
3.2409716e-06
3.4208747e-06
3.6165652e-06
3.3020692e-06
3.4472738e-06
3.1760688e-06
3.0948456e-06
3.0279175e-06
3.0074691e-06
3.0188976e-06
3.0449814e-06
3.1083412e-06
3.1998813e-06
3.3184366e-06
3.4641432e-06
3.6380102e-06
3.8421001e-06
4.0787733e-06
4.3433994e-06
4.6536269e-06
5.0085743e-06
5.4139775e-06
5.8767194e-06
6.4052332e-06
7.0099413e-06
7.7037379e-06
8.5018063e-06
9.4239177e-06
1.0494184e-05
1.1742777e-05
1.3149923e-05
1.4859336e-05
1.68826e-05
1.9288097e-05
2.229422e-05
2.5768715e-05
2.9947522e-05
3.4988783e-05
4.1086928e-05
4.8469118e-05
5.7413498e-05
6.8259792e-05
8.1419698e-05
9.7393298e-05
0.00011783304
0.00014160225
0.00017050732
0.00020569259
0.00025089969
0.00030332985
0.00036668758
0.00044718614
0.00053797803
0.00064277088
0.00076212071
0.00089656795
0.0010302366
0.0010296536
0.0010289415
0.0010281501
0.0010272879
0.0010263845
0.001025475
0.0010245885
0.0010237267
0.001022846
0.0010218536
0.0010206048
0.0010188526
0.0010161663
0.0010119991
0.001006109
0.00099944456
0.00099521149
0.00099477918
0.00099845254
1.1528072e-07
6.3437712e-06
2.8782229e-06
3.6181448e-06
2.8915402e-06
2.8387225e-06
3.1481875e-06
2.7709843e-06
2.8130718e-06
2.6392455e-06
2.5851351e-06
2.5563364e-06
2.5567102e-06
2.5857803e-06
2.6464838e-06
2.7347461e-06
2.8487141e-06
2.9882539e-06
3.1542632e-06
3.3481972e-06
3.5672526e-06
3.8226877e-06
4.1145913e-06
4.4470738e-06
4.825037e-06
5.2544173e-06
5.7424219e-06
6.2978243e-06
6.9313944e-06
7.6396016e-06
8.4670482e-06
9.4216624e-06
1.0528621e-05
1.1819275e-05
1.3332562e-05
1.5116808e-05
1.7231303e-05
1.9749732e-05
2.276277e-05
2.6381347e-05
3.0741549e-05
3.6268328e-05
4.2699823e-05
5.0494785e-05
5.9944972e-05
7.1406636e-05
8.5308138e-05
0.00010216291
0.00012370425
0.00014858833
0.00017861255
0.00021470034
0.00026033333
0.00031183654
0.0003720147
0.00044131689
0.00052564628
0.00061688997
0.00072097663
0.0008424138
0.00098999921
0.0010292535
0.001028579
0.0010278511
0.0010270864
0.0010263162
0.0010255732
0.0010248753
0.001024199
0.0010234519
0.0010224732
0.0010210838
0.0010191275
0.0010163678
0.0010123082
0.0010065515
0.0010000429
0.00099587102
0.00099551298
0.00099880895
1.1022873e-07
4.3757964e-06
2.5270776e-06
3.0597307e-06
2.4557422e-06
2.3506179e-06
2.6603346e-06
2.2987965e-06
2.2869113e-06
2.1873497e-06
2.1634966e-06
2.1601343e-06
2.188511e-06
2.2480572e-06
2.3347579e-06
2.4462941e-06
2.5820337e-06
2.742531e-06
2.9264034e-06
3.1398661e-06
3.383958e-06
3.6615868e-06
3.9762827e-06
4.3323299e-06
4.734885e-06
5.1901518e-06
5.7056496e-06
6.2809288e-06
6.9427251e-06
7.698294e-06
8.5648904e-06
9.5638612e-06
1.0721979e-05
1.2072671e-05
1.365758e-05
1.5528266e-05
1.7748414e-05
2.0396749e-05
2.3570466e-05
2.7388951e-05
3.1998082e-05
3.7574456e-05
4.4662295e-05
5.2922386e-05
6.29359e-05
7.5069692e-05
8.9755803e-05
0.00010749456
0.00012884802
0.0001558079
0.00018645014
0.00022252594
0.00026436028
0.0003152104
0.00037009652
0.00043200428
0.00050664385
0.00058765258
0.00068485546
0.00080708799
0.00096760609
0.0010287726
0.0010281794
0.0010275603
0.0010269357
0.0010263343
0.001025783
0.0010252871
0.0010247958
0.0010241616
0.0010231467
0.0010215589
0.0010194033
0.0010166636
0.0010127846
0.0010071794
0.0010008531
0.00099673497
0.00099639243
0.0009991815
1.0479778e-07
3.611115e-06
2.1588319e-06
2.5471645e-06
2.0996642e-06
1.9423807e-06
2.1635926e-06
1.885116e-06
1.8595589e-06
1.8158304e-06
1.8181034e-06
1.8457133e-06
1.9058389e-06
1.9921643e-06
2.1023439e-06
2.2355224e-06
2.3919771e-06
2.5708514e-06
2.7770773e-06
3.0118004e-06
3.2776152e-06
3.5776609e-06
3.9156855e-06
4.2961581e-06
4.7244376e-06
5.2069854e-06
5.7451266e-06
6.3586589e-06
7.0549753e-06
7.8486702e-06
8.7580433e-06
9.8058452e-06
1.1020549e-05
1.2437761e-05
1.4102051e-05
1.6068931e-05
1.8406936e-05
2.1200476e-05
2.455362e-05
2.8593365e-05
3.3474603e-05
3.9670207e-05
4.689235e-05
5.5641219e-05
6.62318e-05
7.9027157e-05
9.4437092e-05
0.00011290595
0.00013613483
0.00016222867
0.00019256523
0.00022732759
0.00026656871
0.00031332522
0.00036257785
0.00041813028
0.00048723231
0.00056588054
0.00066589467
0.00079871256
0.00098231264
0.0010282495
0.0010277748
0.0010273003
0.001026843
0.0010264252
0.0010260655
0.0010257595
0.0010254361
0.0010248892
0.0010237964
0.0010219896
0.0010197201
0.0010171071
0.0010134059
0.0010079585
0.0010018685
0.00099776545
0.00099738854
0.00099958767
1.0079954e-07
2.8822487e-06
1.8430465e-06
2.0391393e-06
1.801855e-06
1.591366e-06
1.70818e-06
1.5345835e-06
1.5230739e-06
1.5233015e-06
1.5522268e-06
1.6130198e-06
1.699815e-06
1.8091139e-06
1.9400252e-06
2.0927924e-06
2.2673561e-06
2.4669569e-06
2.6932122e-06
2.9485133e-06
3.2357176e-06
3.5581638e-06
3.9197609e-06
4.3251304e-06
4.7798088e-06
5.2867951e-06
5.8597991e-06
6.5064394e-06
7.2390303e-06
8.0729869e-06
9.0278052e-06
1.0127734e-05
1.1403146e-05
1.2891984e-05
1.4641741e-05
1.6711884e-05
1.9176356e-05
2.2125223e-05
2.566967e-05
2.9944122e-05
3.534299e-05
4.1647357e-05
4.927558e-05
5.8497275e-05
6.9618527e-05
8.2977361e-05
9.8926713e-05
0.00011780663
0.00014116142
0.0001668301
0.00019595415
0.00022850514
0.00026454391
0.0003073728
0.00035284565
0.00040585813
0.00047484233
0.00055742334
0.00066694307
0.00081745225
0.0010280801
0.0010277063
0.0010273745
0.0010270665
0.0010267884
0.0010265509
0.0010263546
0.001026198
0.0010260091
0.0010255414
0.0010243703
0.0010223881
0.001020156
0.0010177155
0.0010141111
0.0010088385
0.0010030306
0.0009989704
0.00099837989
0.0010000978
9.8414756e-08
2.2436389e-06
1.5679188e-06
1.5543201e-06
1.5269774e-06
1.2913048e-06
1.3386803e-06
1.2545859e-06
1.2702755e-06
1.3014856e-06
1.3639203e-06
1.4508236e-06
1.5591881e-06
1.6876784e-06
1.836572e-06
2.0069109e-06
2.199558e-06
2.4176117e-06
2.6629498e-06
2.938203e-06
3.2463926e-06
3.5910011e-06
3.9760719e-06
4.4063661e-06
4.8875779e-06
5.4266292e-06
6.0320483e-06
6.7144237e-06
7.4781763e-06
8.3535979e-06
9.3553634e-06
1.0509314e-05
1.1847848e-05
1.341144e-05
1.5250537e-05
1.7499588e-05
2.0114089e-05
2.3245437e-05
2.7011586e-05
3.1554282e-05
3.7041886e-05
4.3671683e-05
5.1672457e-05
6.1302141e-05
7.2840813e-05
8.6574797e-05
0.00010276805
0.00012268916
0.00014447484
0.00016904941
0.00019637255
0.00022651535
0.00026238067
0.0003004024
0.0003448879
0.00039911042
0.00047240377
0.00056375094
0.00068793531
0.00086134037
0.0010273788
0.001027141
0.0010269623
0.0010268276
0.0010267279
0.0010266605
0.0010266156
0.0010265666
0.0010264212
0.0010260167
0.0010248431
0.0010228267
0.0010207539
0.0010184337
0.001014838
0.0010097594
0.001004281
0.0010003496
0.00099944123
0.0010004268
9.8446682e-08
1.7020335e-06
1.3357103e-06
1.1828149e-06
1.2502008e-06
1.0401092e-06
1.0674752e-06
1.047248e-06
1.0912676e-06
1.1521363e-06
1.2388434e-06
1.3455277e-06
1.4711144e-06
1.6157492e-06
1.7805133e-06
1.9669438e-06
2.1765977e-06
2.4121472e-06
2.6758358e-06
2.9704221e-06
3.2990344e-06
3.6652617e-06
4.0732698e-06
4.5279684e-06
5.0352403e-06
5.6022509e-06
6.2378575e-06
6.953115e-06
7.7618972e-06
8.6816699e-06
9.7343931e-06
1.0947721e-05
1.2356316e-05
1.4003547e-05
1.5943449e-05
1.8242998e-05
2.0984681e-05
2.4269393e-05
2.821873e-05
3.297763e-05
3.8716091e-05
4.5629051e-05
5.3932591e-05
6.3860746e-05
7.5647816e-05
9.0247965e-05
0.00010645607
0.0001249828
0.00014582843
0.00016896752
0.00019447995
0.00022485727
0.00025709773
0.00029488262
0.00034098416
0.00040332391
0.00048050208
0.00058445216
0.00072740963
0.00092724238
0.0010266344
0.0010265274
0.0010264983
0.0010265296
0.001026598
0.0010266863
0.0010267852
0.0010268603
0.0010267901
0.0010264018
0.0010254495
0.0010235813
0.0010214845
0.0010191586
0.001015549
0.001010686
0.001005586
0.0010017943
0.0010004493
0.0010006863
1.0170175e-07
1.2600182e-06
1.1430796e-06
9.1068279e-07
1.0912788e-06
8.3310127e-07
8.8106126e-07
9.0630661e-07
9.7321283e-07
1.0574482e-06
1.1617902e-06
1.28372e-06
1.423614e-06
1.5824772e-06
1.7618086e-06
1.9633702e-06
2.1891719e-06
2.4413064e-06
2.7225186e-06
3.0355537e-06
3.3836243e-06
3.7704193e-06
4.2002297e-06
4.6781252e-06
5.2101943e-06
5.8038661e-06
6.4683396e-06
7.2151568e-06
8.0588255e-06
9.0176604e-06
1.0114683e-05
1.1378931e-05
1.2846817e-05
1.4563899e-05
1.6586857e-05
1.8985727e-05
2.1846157e-05
2.5271596e-05
2.938514e-05
3.4330825e-05
4.0550094e-05
4.7733054e-05
5.630284e-05
6.645817e-05
7.8377312e-05
9.2193745e-05
0.00010797604
0.00012572996
0.00014544235
0.00016876007
0.00019306001
0.00022056251
0.00025277331
0.00029205412
0.00034512982
0.0004105857
0.0004983116
0.0006180394
0.00078317604
0.0010116315
0.0010258134
0.0010258222
0.0010259237
0.0010260989
0.0010263167
0.0010265462
0.0010267659
0.001026936
0.0010269396
0.0010268317
0.001026097
0.0010243314
0.0010222922
0.0010198289
0.0010161945
0.0010115635
0.0010068697
0.0010032386
0.0010014808
0.0010008291
1.0827796e-07
9.7000354e-07
9.7483153e-07
7.6962047e-07
7.7528994e-07
7.1007805e-07
7.5619944e-07
8.169504e-07
9.0130972e-07
1.0019397e-06
1.1195925e-06
1.2541572e-06
1.4067051e-06
1.5785743e-06
1.7713922e-06
1.9869823e-06
2.22739e-06
2.4949029e-06
2.7920931e-06
3.1218669e-06
3.4875365e-06
3.8929159e-06
4.3424564e-06
4.8414347e-06
5.3962131e-06
6.0123496e-06
6.7026826e-06
7.4777887e-06
8.3604574e-06
9.3577509e-06
1.0499023e-05
1.1814743e-05
1.3343055e-05
1.5131552e-05
1.7239231e-05
1.973851e-05
2.2717174e-05
2.6279998e-05
3.0549786e-05
3.5667478e-05
4.179057e-05
4.9088451e-05
5.7732591e-05
6.7878678e-05
7.9648929e-05
9.3111527e-05
0.0001092463
0.00012624557
0.00014502026
0.00016584333
0.00018935567
0.00021675715
0.00025000462
0.00029476296
0.0003498892
0.00042355703
0.0005238894
0.00066203246
0.00085226915
0.0010248445
0.0010248461
0.001024953
0.0010251571
0.0010254426
0.0010257817
0.0010261393
0.0010264797
0.0010267645
0.0010269038
0.0010268957
0.0010262671
0.0010248602
0.0010229641
0.0010203833
0.0010167101
0.0010123155
0.0010080196
0.0010045531
0.0010023296
0.0010009262
1.2289744e-07
9.7738332e-07
8.1284308e-07
5.7140673e-07
6.1567279e-07
6.1865589e-07
6.8308824e-07
7.6288613e-07
8.6095688e-07
9.7398707e-07
1.1029776e-06
1.248761e-06
1.4126488e-06
1.5960777e-06
1.8007025e-06
2.0283723e-06
2.2811615e-06
2.5613992e-06
2.8717093e-06
3.2150605e-06
3.5948343e-06
4.014921e-06
4.4798551e-06
4.9950064e-06
5.5668459e-06
6.2033015e-06
6.9142198e-06
7.7119431e-06
8.6120315e-06
9.6341166e-06
1.0802934e-05
1.2149631e-05
1.3713216e-05
1.5542296e-05
1.7696886e-05
2.02502e-05
2.3290186e-05
2.6920541e-05
3.1260938e-05
3.6445966e-05
4.2621977e-05
5.029967e-05
5.8971804e-05
6.9056793e-05
8.0631921e-05
9.3723687e-05
0.00010833157
0.000124494
0.0001423985
0.00016251747
0.00018576145
0.00021562029
0.00025071937
0.0002962576
0.00035700989
0.00043970601
0.00055391449
0.0007124165
0.00093024563
0.0010234986
0.0010235862
0.0010237799
0.0010240692
0.0010244421
0.0010248802
0.0010253556
0.0010258273
0.001026239
0.001026513
0.0010265355
0.0010261328
0.0010251038
0.0010233295
0.0010207365
0.0010170325
0.0010128987
0.0010089318
0.0010056175
0.0010030336
0.0010008685
1.1262868e-07
6.2862209e-07
6.4365742e-07
4.7321056e-07
5.1639577e-07
5.6271039e-07
6.4242011e-07
7.3607184e-07
8.4501547e-07
9.685612e-07
1.1077999e-06
1.2637994e-06
1.4379021e-06
1.6316036e-06
1.8465946e-06
2.0847727e-06
2.3482683e-06
2.6394375e-06
2.9610189e-06
3.3160266e-06
3.7079089e-06
4.140624e-06
4.618777e-06
5.1478123e-06
5.7342835e-06
6.3862124e-06
7.1135537e-06
7.9287811e-06
8.8550982e-06
9.9007402e-06
1.1095947e-05
1.2472451e-05
1.4069899e-05
1.5937538e-05
1.8135878e-05
2.0738235e-05
2.383188e-05
2.7518543e-05
3.191396e-05
3.7145829e-05
4.3349169e-05
5.0657583e-05
5.9189544e-05
6.9033159e-05
8.0232232e-05
9.2793421e-05
0.0001067281
0.0001232115
0.00014052622
0.00016029191
0.00018364648
0.00021236229
0.00024909814
0.00029775452
0.00036392521
0.00045558567
0.00058406687
0.00076440142
0.0010131937
0.0010216906
0.0010218135
0.0010220822
0.0010224822
0.0010229804
0.0010235486
0.0010241543
0.0010247629
0.0010253237
0.0010257583