/*--------------------------------*- C++ -*----------------------------------*\
  =========                 |
  \\      /  F ield         | OpenFOAM: The Open Source CFD Toolbox
   \\    /   O peration     | Website:  https://openfoam.org
    \\  /    A nd           | Version:  12
     \\/     M anipulation  |
\*---------------------------------------------------------------------------*/
FoamFile
{
    format      ascii;
    class       volScalarField;
    location    "0.012";
    object      p;
}
// * * * * * * * * * * * * * * * * * * * * * * * * * * * * * * * * * * * * * //

dimensions      [1 -1 -2 0 0 0 0];

internalField   nonuniform List<scalar> 
16000
(
89980.714
90103.706
90115.96
90246.917
90274
90397.94
90448.687
90562.98
90636.753
90746.086
90837.893
90947.879
91053.74
91168.697
91285.91
91408.808
91536.102
91668.417
91805.677
91948.017
92095.496
92248.176
92406.097
92569.279
92737.72
92911.393
93090.241
93274.177
93463.08
93656.791
93855.111
94057.798
94264.562
94475.062
94688.902
94905.631
95124.733
95345.627
95567.663
95790.118
96012.193
96233.012
96451.618
96666.977
96877.972
97083.407
97282.013
97472.459
97653.377
97823.403
97981.228
98125.667
98255.722
98370.664
98470.123
98554.227
98623.754
98680.278
98726.294
98765.302
98801.819
98841.261
98889.613
98952.845
99035.994
99142.053
99270.877
99418.332
99576.563
99735.668
99885.34
100017.34
100126.7
100210
100264.25
100266.44
100354.36
100095.17
100506.65
100123.1
89623.305
89762.999
89772.694
89915.502
89944.204
90078.788
90132.301
90257.346
90335.041
90454.242
90552.302
90671.078
90785.058
90908.704
91034.972
91167.149
91304.12
91446.399
91593.955
91746.894
91905.267
92069.114
92238.451
92413.269
92593.536
92779.187
92970.127
93166.229
93367.327
93573.22
93783.661
93998.363
94216.992
94439.166
94664.449
94892.353
95122.335
95353.788
95586.047
95818.378
96049.979
96279.978
96507.427
96731.305
96950.51
97163.861
97370.1
97567.893
97755.852
97932.566
98096.648
98246.799
98381.865
98500.913
98603.317
98688.885
98758.01
98811.831
98852.355
98882.568
98906.493
98929.154
98956.395
98994.475
99049.335
99125.585
99225.467
99347.902
99488.127
99637.7
99787.151
99927.749
100053.1
100158.51
100237.78
100294.99
100336.01
100214.53
100535.97
100086.27
89296.639
89451.435
89461.123
89616.606
89645.453
89793.184
89848.394
89985.282
90067.786
90197.113
90302.768
90430.824
90554.103
90687.326
90823.733
90966.278
91114.047
91267.439
91426.44
91591.118
91761.499
91937.588
92119.365
92306.782
92499.762
92698.197
92901.942
93110.819
93324.61
93543.056
93765.858
93992.671
94223.107
94456.732
94693.065
94931.578
95171.694
95412.784
95654.168
95895.108
96134.81
96372.419
96607.014
96837.607
97063.138
97282.471
97494.388
97697.586
97890.694
98072.287
98240.938
98395.266
98533.997
98656.028
98760.508
98846.959
98915.425
98966.634
99002.129
99024.378
99036.864
99044.109
99051.591
99065.479
99092.101
99137.141
99204.71
99296.52
99410.946
99542.423
99683.297
99825.52
99961.671
100086.53
100195.85
100285.47
100329.31
100296.53
100548.39
99995.07
89000.862
89165.932
89177.073
89347.167
89375.839
89539.177
89596.707
89747.332
89835.589
89976.516
90091.158
90229.796
90363.918
90508.134
90656.165
90810.531
90970.517
91136.401
91308.169
91485.849
91669.435
91858.895
92054.168
92255.163
92461.752
92673.774
92891.026
93113.265
93340.207
93571.523
93806.844
94045.757
94287.805
94532.494
94779.289
95027.617
95276.866
95526.387
95775.491
96023.45
96269.49
96512.792
96752.486
96987.648
97217.29
97440.354
97655.701
97862.098
98058.223
98242.681
98414.035
98570.86
98711.797
98835.6
98941.222
99027.922
99095.418
99144.047
99174.898
99189.929
99192.068
99185.275
99174.538
99165.708
99165.152
99179.197
99213.197
99271.249
99354.245
99460.133
99584.415
99719.726
99859.442
99997.723
100128.76
100238.31
100293.51
100307.9
100485.59
99825.628
88736.996
88916.516
88925.786
89113.927
89141.675
89322.927
89382.903
89549
89644.257
89798.157
89923.571
90074.067
90220.652
90377.229
90538.241
90705.722
90879.153
91058.717
91244.401
91436.203
91634.083
91837.968
92047.751
92263.28
92484.365
92710.77
92942.212
93178.364
93418.852
93663.26
93911.127
94161.955
94415.208
94670.319
94926.694
95183.713
95440.735
95697.097
95952.118
96205.091
96455.29
96701.957
96944.303
97181.501
97412.673
97636.878
97853.092
98060.194
98256.951
98442.031
98614.032
98771.522
98913.087
99037.377
99143.176
99229.509
99295.788
99341.974
99368.714
99377.463
99370.589
99351.462
99324.508
99295.137
99269.556
99254.245
99255.56
99278.843
99327.391
99402.16
99501.42
99619.941
99752.205
99891.296
100026.58
100138.16
100191.22
100215.29
100304.08
99568.746
88511.861
88708.997
88714.754
88923.981
88950.539
89151.537
89214.037
89397.433
89501.15
89669.176
89806.924
89970.073
90130.204
90300.06
90475.013
90656.637
90844.589
91038.982
91239.782
91446.943
91660.368
91879.919
92105.409
92336.6
92573.205
92814.886
93061.25
93311.859
93566.224
93823.817
94084.069
94346.38
94610.126
94874.665
95139.342
95403.499
95666.477
95927.618
96186.267
96441.774
96693.485
96940.742
97182.875
97419.193
97648.968
97871.417
98085.677
98290.771
98485.599
98668.931
98839.436
98995.714
99136.336
99259.877
99364.981
99450.466
99515.46
99559.559
99582.972
99586.652
99572.405
99542.997
99502.25
99455.044
99407.196
99365.345
99336.197
99325.047
99338.157
99378.166
99442.967
99532.835
99641.8
99761.629
99876.564
99962.608
99994.932
99999.063
99988.359
99241.248
88327.518
88544.737
88547.805
88780.627
88806.073
89029.801
89096.183
89298.773
89411.205
89592.742
89743.51
89919.64
90094.309
90278.62
90468.895
90666.237
90870.391
91081.368
91299.07
91523.364
91754.061
91990.919
92233.637
92481.858
92735.165
92993.084
93255.086
93520.593
93788.979
94059.583
94331.717
94604.671
94877.73
95150.183
95421.328
95690.487
95957.007
96220.266
96479.673
96734.67
96984.719
97229.307
97467.925
97700.064
97925.191
98142.724
98351.994
98552.213
98742.445
98921.602
99088.461
99241.692
99379.88
99501.558
99605.261
99689.622
99753.504
99796.149
99817.327
99817.474
99797.829
99760.533
99708.765
99646.793
99579.918
99514.292
99456.602
99413.648
99390.005
99388.289
99412.923
99459.705
99525.168
99601.019
99668.243
99705.171
99698.973
99671.564
99580.173
98889.043
88178.789
88419.891
88419.288
88680.254
88704.119
88954.937
89023.916
89244.462
89367.499
89563.945
89730.644
89922.107
90114.002
90315.467
90523.711
90739.417
90962.352
91192.416
91429.419
91673.115
91923.195
92179.281
92440.928
92707.624
92978.793
93253.793
93531.93
93812.46
94094.603
94377.555
94660.498
94942.621
95223.129
95501.259
95776.293
96047.566
96314.472
96576.473
96833.091
97083.91
97328.565
97566.734
97798.123
98022.45
98239.42
98448.689
98649.821
98842.243
99025.216
99197.825
99358.986
99507.469
99641.905
99760.808
99862.625
99945.828
100009.03
100051.11
100071.4
100069.78
100046.9
100004.23
99944.229
99870.441
99787.473
99700.803
99616.387
99540.066
99477.042
99431.969
99404.707
99393.603
99396.711
99405.563
99402.734
99376.528
99328.662
99278.9
99142.315
98575.596
88061.789
88330.82
88325.746
88620.749
88640.387
88918.409
88991.962
89233.76
89373.174
89587.739
89774.478
89984.576
90197.023
90418.919
90648.255
90885.379
91130.028
91381.981
91640.922
91906.461
92178.129
92455.376
92737.572
93024.012
93313.919
93606.454
93900.725
94195.806
94490.749
94784.604
95076.437
95365.353
95650.507
95931.126
96206.522
96476.099
96739.363
96995.92
97245.471
97487.808
97722.796
97950.361
98170.475
98383.126
98588.294
98785.902
98975.767
99157.554
99330.738
99494.597
99648.211
99790.47
99920.066
100035.51
100135.18
100217.4
100280.52
100323.06
100343.85
100342.21
100318.12
100272.3
100206.34
100122.9
100025.68
99919.107
99808.211
99697.928
99592.521
99494.657
99405.409
99325.751
99254.074
99182.86
99102.483
99016.408
98939.747
98882.123
98749.681
98358.082
87979.052
88280.437
88271.174
88605.59
88621.158
88930.165
89015.782
89282.173
89441.365
89676.163
89886.541
90118.457
90354.7
90600.393
90854.095
91115.854
91385.308
91662.071
91945.651
92235.463
92530.826
92830.964
93135.01
93442.015
93750.96
94060.774
94370.349
94678.564
94984.308
95286.506
95584.138
95876.267
96162.059
96440.797
96711.898
96974.919
97229.558
97475.65
97713.154
97942.137
98162.758
98375.244
98579.871
98776.932
98966.699
99149.376
99325.038
99493.589
99654.724
99807.919
99952.424
100087.25
100211.16
100322.67
100420.07
100501.54
100565.17
100609.05
100631.47
100631.11
100607.19
100559.59
100488.83
100396.49
100285.15
100157.95
100018.7
99871.244
99718.912
99563.886
99407.862
99254.097
99105.154
98957.653
98811.885
98687.799
98604.103
98550.808
98460.782
98268.063
87939.5
88279.358
88266.605
88640.402
88659.941
89004.705
89104.909
89397.787
89581.92
89839.727
90077.828
90335.414
90599.143
90872.399
91154.08
91443.957
91741.494
92046.083
92356.992
92673.368
92994.247
93318.557
93645.132
93972.728
94300.051
94625.773
94948.565
95267.129
95580.222
95886.691
96185.498
96475.749
96756.712
97027.833
97288.745
97539.264
97779.384
98009.262
98229.193
98439.588
98640.947
98833.835
99018.852
99196.604
99367.653
99532.468
99691.367
99844.474
99991.688
100132.67
100266.83
100393.28
100510.85
100618.03
100713.04
100793.84
100858.23
100903.83
100928.3
100929.57
100906.01
100856.57
100780.61
100678.41
100551.32
100401.32
100231.04
100043.65
99842.178
99629.408
99409.372
99189.162
98975.475
98770.714
98587.105
98456.338
98388.372
98346.83
98309.743
98307.073
87952.189
88337.88
88320.997
88741.483
88766.819
89150.366
89269.967
89591.413
89806.213
90090.424
90360.607
90648.306
90943.692
91248.714
91562.383
91884.158
92213.236
92548.692
92889.45
93234.298
93581.898
93930.809
94279.508
94626.423
94969.963
95308.554
95640.679
95964.913
96279.961
96584.693
96878.176
97159.693
97428.759
97685.127
97928.782
98159.927
98378.96
98586.441
98783.066
98969.629
99146.993
99316.064
99477.757
99632.964
99782.505
99927.074
100067.19
100203.15
100335.03
100462.65
100585.52
100702.85
100813.49
100915.87
101008.06
101087.8
101152.51
101199.3
101225.09
101227
101202.52
101149.46
101066.21
100951.91
100806.61
100631.61
100429.08
100202.29
99955.246
99692.875
99422.822
99156.168
98902.823
98670.701
98482.341
98375.994
98346.522
98302.515
98301.153
98465.05
88020.551
88460.987
88440.834
88915.175
88948.567
89374.641
89520.603
89873.21
90125.489
90440.777
90748.091
91071.244
91403.249
91744.895
92095.067
92452.813
92816.922
93186.021
93558.571
93932.895
94307.202
94679.624
95048.253
95411.18
95766.547
96112.593
96447.701
96770.447
97079.64
97374.352
97653.944
97918.071
98166.683
98400.008
98618.525
98822.936
99014.12
99193.094
99360.97
99518.923
99668.157
99809.88
99945.273
100075.46
100201.45
100324.09
100444.04
100561.73
100677.34
100790.77
100901.64
101009.16
101112.13
101208.9
101297.32
101374.79
101438.32
101484.49
101509.43
101509.44
101481.32
101421.65
101328.09
101199.23
101034.4
100834.72
100602.98
100343.71
100063.12
99769.418
99474.066
99190.444
98928.993
98701.327
98537.881
98473.111
98465.089
98394.86
98434.567
98744.935
88148.591
88654.02
88631.075
89166.44
89214.362
89687.049
89868.564
90255.861
90553.312
90905.946
91256.436
91621.437
91995.927
92379.657
92771.115
93168.776
93570.854
93975.395
94380.287
94783.306
95182.154
95574.513
95958.102
96330.738
96690.403
97035.302
97363.925
97675.085
97967.951
98242.064
98497.327
98733.998
98952.647
99154.124
99339.507
99510.05
99667.132
99812.208
99946.769
100072.31
100190.3
100302.18
100409.31
100512.95
100614.22
100714.04
100813.12
100911.94
101010.73
101109.42
101207.62
101304.5
101398.73
101488.48
101571.31
101644.26
101703.86
101746.2
101766.78
101760.99
101725.58
101656.25
101550.21
101406.15
101223.89
101005.15
100754.08
100477.27
100183.64
99884.701
99594.363
99325.329
99085.486
98888.123
98766.602
98740.406
98726.076
98621.751
98714.255
99159.697
88343.501
88926.723
88902.76
89507.695
89577.146
90100.654
90328.601
90755.79
91107.258
91505.553
91906.626
92320.88
92744.288
93175.565
93612.55
94052.981
94494.364
94934.042
95369.243
95797.136
96214.908
96619.841
97009.405
97381.338
97733.729
98065.073
98374.316
98660.871
98924.611
99165.845
99385.275
99583.943
99763.168
99924.485
100069.58
100200.22
100318.22
100425.38
100523.47
100614.19
100699.18
100779.98
100858.03
100934.63
101010.9
101087.74
101165.84
101245.65
101327.34
101410.82
101495.56
101580.61
101664.46
101744.97
101819.4
101884.47
101936.21
101970.4
101982.44
101966.79
101920.35
101839.62
101721.86
101566.34
101374.24
101148.81
100895.77
100623.43
100342.67
100066.81
99809.713
99580.548
99383.319
99232.302
99158.879
99159.672
99124.135
98993.716
99140.661
99706.241
88611.861
89288.04
89265.89
89949.797
90051.599
90631.813
90920.523
91396.068
91812.008
92266.095
92725.979
93196.93
93675.11
94158.165
94643.088
95126.721
95605.697
96076.539
96535.746
96979.908
97405.828
97810.642
98191.929
98547.795
98876.925
99178.602
99452.698
99699.633
99920.31
100116.04
100288.48
100439.51
100571.19
100685.68
100785.15
100871.77
100947.63
101014.72
101074.93
101130.05
101181.74
101231.53
101280.82
101330.84
101382.62
101436.95
101494.4
101555.3
101619.72
101687.38
101757.58
101829.11
101900.21
101968.47
102030.76
102083.72
102123.04
102144.08
102143.1
102115.42
102056.73
101965.51
101840.84
101683.23
101495.25
101281.64
101049.18
100806.63
100564.84
100336.37
100132.37
99957.252
99812.496
99714.004
99686.378
99698.915
99633.869
99491.022
99701.416
100374.43
88960.777
89747.949
89732.831
90510.493
90661.433
91308.478
91674.937
92209.568
92700.533
93220.582
93746.828
94280.559
94817.455
95353.911
95885.772
96408.724
96918.359
97410.342
97880.587
98325.438
98741.814
99127.335
99480.382
99800.123
100086.49
100340.09
100562.16
100754.4
100918.92
101058.09
101174.44
101270.6
101349.19
101412.8
101463.89
101504.8
101537.7
101564.61
101587.38
101607.72
101627.19
101647.21
101669.03
101693.7
101722.06
101754.73
101792.1
101834.29
101881.15
101932.14
101986.28
102042.02
102097.37
102149.71
102195.65
102231.72
102254.39
102258.51
102240.88
102199.65
102132
102036.91
101915.24
101769.47
101603.71
101423.39
101234.93
101045.6
100863.83
100698.89
100557.51
100440.14
100348.37
100300.34
100311.27
100324.95
100227.82
100091.85
100389.24
101128.65
89408.661
90332.216
90335.752
91227.65
91445.226
92169.239
92630.497
93235.081
93810.399
94405.654
95004.442
95604.702
96200.807
96787.427
97358.885
97909.583
98434.224
98928.078
99387.2
99808.595
100190.3
100531.4
100831.98
101092.99
101316.15
101503.77
101658.56
101783.56
101881.93
101956.9
102011.64
102049.22
102072.56
102084.37
102087.16
102083.21
102074.57
102063.1
102050.48
102038.22
102027.68
102020.05
102016.35
102017.38
102023.74
102035.79
102053.66
102077.22
102105.99
102139.13
102175.31
102212.67
102248.88
102281.28
102307.23
102321.65
102322.67
102309.16
102277.18
102225.29
102153.79
102064.19
101959.02
101841.88
101717.27
101589.98
101464.62
101345.38
101236.49
101142.34
101065.11
101003.31
100960.79
100956.95
100995.77
101002.92
100882.28
100781.78
101175.46
101939.16
89988.151
91085.349
91118.391
92143.3
92445.585
93253.682
93827.863
94515.481
95184.43
95863.049
96537.736
97202.98
97851.043
98474.614
99066.689
99621.067
100132.65
100597.66
101013.75
101379.99
101696.79
101965.66
102189.07
102370.15
102512.55
102620.15
102696.97
102746.99
102774.08
102781.89
102773.86
102753.12
102722.54
102684.7
102641.88
102596.11
102549.16
102502.61
102457.86
102416.14
102378.52
102345.91
102319.02
102298.35
102284.19
102276.63
102275.47
102280.25
102290.15
102303.95
102320.05
102336.4
102350.32
102359.24
102360.65
102352.74
102333.44
102301.22
102256.22
102199.89
102134.46
102062.94
101988.87
101916.01
101847.81
101787.15
101735.88
101694.59
101662.95
101640.11
101624.5
101614.97
101618.4
101652.6
101709.21
101704.66
101574.43
101540.19
102046.61
102783.77
90729.75
92036.611
92113.643
93285.79
93707.32
94611.689
95319.947
96106.762
96876.651
97640.726
98384.896
99100.178
99776.967
100407.03
100983.7
101502.2
101959.78
102355.65
102690.77
102967.57
103189.64
103361.35
103487.57
103573.39
103623.94
103644.18
103638.81
103612.21
103568.39
103510.98
103443.22
103368
103287.84
103204.92
103121.17
103038.19
102957.41
102880.04
102807.12
102739.57
102678.12
102623.36
102575.65
102535.17
102501.89
102475.55
102455.62
102441.28
102431.32
102424.16
102417.91
102410.47
102399.6
102383.13
102359.63
102328
102288.21
102241.63
102190.83
102139.21
102090.7
102049.23
102018.28
102000.48
101997.2
102008.51
102033.14
102068.62
102111.5
102156.91
102199.74
102240.53
102288.82
102357.05
102424.85
102411.01
102292.32
102343.58
102954.55
103656.26
91659.779
93228.442
93383.927
94723.495
95307.639
96324.139
97183.119
98079.142
98944.457
99777.331
100562.22
101288.44
101947.03
102531.98
103040.12
103471.05
103826.74
104111.06
104329.26
104487.49
104592.37
104650.61
104668.76
104653.04
104609.21
104542.47
104457.53
104358.53
104249.12
104132.48
104011.35
103888.08
103764.69
103642.85
103523.98
103409.27
103299.7
103196.11
103099.2
103009.52
102927.46
102853.26
102786.95
102728.36
102677.12
102632.62
102594
102560.05
102529.23
102499.75
102469.59
102436.81
102399.68
102357.08
102308.74
102255.62
102200.07
102145.73
102097.22
102059.52
102037.37
102034.59
102053.57
102094.98
102157.56
102238.34
102333.09
102437.06
102546.61
102655.83
102754.85
102845.77
102939.08
103039.33
103117.39
103105.08
103021.59
103166.77
103860.27
104515.09
92859.503
94758.987
95036.811
96564.609
97357.714
98494.822
99500.037
100490.38
101415.22
102266.22
103029.95
103698.94
104269.66
104742.56
105121.31
105412.06
105622.58
105761.61
105838.17
105861.18
105839.08
105779.65
105689.91
105576.09
105443.62
105297.22
105140.94
104978.23
104812.02
104644.77
104478.57
104315.11
104155.81
104001.8
103854
103713.16
103579.86
103454.56
103337.63
103229.27
103129.54
103038.33
102955.32
102880.03
102811.76
102749.56
102692.22
102638.22
102585.79
102533.02
102478.05
102419.4
102356.24
102288.78
102218.57
102148.7
102083.66
102029.01
101990.73
101974.46
101984.72
102024.31
102093.86
102191.82
102314.48
102456.48
102611.45
102771.92
102934.21
103099.42
103255.48
103397.73
103535.48
103667.09
103760.6
103769.11
103746.71
103987.17
104725.62
105310.41
94458.798
96766.955
97220.62
98935.296
99972.145
101215.7
102316.48
103336.36
104238.37
105016.47
105666.55
106190.79
106595.69
106891.01
107088.39
107200.32
107239.26
107217.08
107144.7
107031.86
106887.1
106717.78
106530.18
106329.58
106120.4
105906.32
105690.39
105475.12
105262.58
105054.45
104852.08
104656.54
104468.67
104289.09
104118.26
103956.53
103804.13
103661.21
103527.79
103403.76
103288.86
103182.67
103084.56
102993.75
102909.21
102829.7
102753.72
102679.52
102605.21
102528.99
102449.43
102365.82
102278.56
102189.52
102102.16
102021.49
101953.75
101905.66
101883.69
101893.15
101937.52
102017.99
102133.31
102279.92
102452.26
102643.51
102846.69
103055.42
103263.95
103472.2
103675.64
103865.74
104045
104207.38
104327.09
104381.19
104443.5
104772.22
105517.58
106010.93
96645.219
99411.688
100102.66
101956.81
103201.23
104491.54
105573.94
106498.54
107252.61
107841.92
108277.36
108574.5
108750.98
108824.91
108813.7
108733.28
108597.78
108419.39
108208.43
107973.54
107721.83
107459.11
107190.11
106918.65
106647.8
106380.03
106117.3
105861.16
105612.85
105373.31
105143.25
104923.17
104713.41
104514.15
104325.5
104147.47
103979.98
103822.9
103675.96
103538.79
103410.83
103291.37
103179.53
103074.23
102974.2
102877.94
102783.71
102689.67
102593.98
102495.18
102392.5
102286.28
102178.37
102072.3
101973.3
101887.91
101823.39
101786.82
101784.27
101820.03
101896.09
102011.95
102164.72
102349.4
102559.39
102787.35
103026.3
103270.8
103517.41
103763.4
104006.33
104236.32
104447.35
104636.66
104793.19
104916.36
105082.41
105482.72
106196.06
106615.7
99667.853
102806.44
103802.22
105721.36
107006.98
108153.94
109054.18
109732.33
110205.81
110500.89
110645.07
110665.42
110586.63
110430.34
110214.88
109955.44
109664.39
109351.64
109025.1
108691
108354.2
108018.53
107686.91
107361.64
107044.45
106736.66
106439.28
106153.04
105878.46
105615.87
105365.47
105127.3
104901.3
104687.34
104485.2
104294.66
104115.38
103947
103789.02
103640.8
103501.57
103370.38
103246.1
103127.44
103012.9
102900.79
102789.26
102676.48
102560.84
102441.39
102318.2
102192.82
102068.53
101950.41
101845.05
101759.92
101702.61
101679.83
101696.67
101756.04
101858.38
102001.79
102182.16
102393.67
102629.54
102882.8
103147.15
103417.89
103692.42
103968.61
104241.49
104500.79
104734.05
104947.41
105150.65
105356.58
105630.15
106088.64
106737.61
107075.42
103785.51
107136.26
108332.07
109994.71
111101.02
111917.43
112442.66
112730.65
112825.31
112769.04
112597.71
112341.09
112023.04
111662.33
111273.5
110867.66
110453.28
110036.71
109622.72
109214.85
108815.71
108427.18
108050.62
107687
107336.97
107000.94
106679.16
106371.72
106078.61
105799.71
105534.81
105283.64
105045.84
104821.02
104608.78
104408.67
104220.17
104042.74
103875.67
103718.14
103569.16
103427.61
103292.16
103161.35
103033.52
102906.84
102779.45
102649.66
102516.21
102378.77
102238.34
102097.63
101961.24
101835.44
101727.7
101645.82
101597.15
101587.63
101621.11
101699.13
101820.86
101983.32
102181.66
102409.77
102661.2
102929.83
103210.5
103499.5
103794.57
104092.21
104384.4
104666.45
104914.97
105150.35
105408.29
105703.07
106074.33
106561.93
107119.13
107368.79
108930.68
112244.87
113346.02
114455.36
115057.16
115336.97
115358.16
115193
114894.73
114505.1
114055.14
113567.72
113059.46
112542.32
112024.83
111513.03
111011.13
110522.04
110047.72
109589.44
109147.98
108723.76
108316.95
107927.55
107555.42
107200.35
106862.04
106540.15
106234.3
105944.06
105668.95
105408.46
105162.04
104929.14
104709.18
104501.57
104305.68
104120.78
103946.04
103780.46
103622.93
103472.15
103326.67
103184.89
103045.04
102905.24
102763.71
102618.95
102470.16
102317.65
102163.28
102010.77
101865.73
101735.25
101627.2
101549.32
101508.36
101509.37
101555.01
101645.7
101779.65
101953.3
102161.45
102398.11
102657.37
102934.06
103224.2
103524.99
103834.17
104146.1
104447.67
104741.18
105008.73
105269.84
105580.42
105956.06
106403.9
106896.37
107345.1
107526.03
115051.61
117526.37
118127.45
118404.72
118312.52
117989.81
117514.72
116946.89
116326.3
115680.05
115026.13
114376.39
113738.52
113117.43
112516.12
111936.33
111378.96
110844.33
110332.37
109842.8
109375.14
108928.85
108503.32
108097.92
107712.01
107344.98
106996.2
106665.05
106350.92
106053.17
105771.16
105504.22
105251.69
105012.9
104787.18
104573.83
104372.13
104181.23
104000.2
103827.96
103663.28
103504.78
103350.93
103200.04
103050.32
102899.9
102747.09
102590.65
102430.18
102266.54
102102.27
101941.8
101791.32
101658.39
101551.03
101476.62
101441.19
101448.91
101501.6
101598.88
101738.47
101916.58
102128.13
102367.57
102629.69
102910.19
103205.9
103514.46
103833.15
104154.87
104463.49
104758.64
105038.67
105323.09
105681.25
106126.44
106619.72
107090.37
107446.34
107583.95
121576.89
122012.07
121798.08
121258.6
120539.88
119730.53
118885.79
118036.94
117202.27
116391.85
115611.07
114862.45
114146.83
113464.06
112813.41
112193.83
111604.11
111042.97
110509.13
110001.35
109518.43
109059.24
108622.71
108207.85
107813.73
107439.49
107084.32
106747.43
106428.07
106125.5
105838.97
105567.74
105311.07
105068.23
104838.49
104621.12
104415.32
104220.24
104034.89
103858.14
103688.76
103525.33
103366.31
103210.02
103054.64
102898.35
102739.52
102577.01
102410.62
102241.5
102072.52
101908.41
101755.59
101621.62
101514.24
101440.52
101406.27
101414.73
101467.74
101564.76
101703.62
101880.56
102090.84
102329.38
102591.41
102873.06
103171.39
103483.8
103806.8
104133.62
104450.78
104747.49
105033.22
105332.12
105716.08
106212.69
106740.8
107177.56
107460.07
107576.22
125390.86
124775.89
123875.73
122841.06
121774.8
120720.36
119700.1
118723.23
117793.19
116910.24
116073.17
115280
114528.45
113816.16
113140.82
112500.25
111892.38
111315.31
110767.3
110246.73
109752.13
109282.16
108835.59
108411.3
108008.27
107625.55
107262.27
106917.61
106590.76
106280.97
105987.45
105709.45
105446.2
105196.97
104961.02
104737.6
104525.91
104325.08
104134.1
103951.85
103777.04
103608.23
103443.84
103282.09
103121.1
102958.9
102793.7
102624.22
102450.09
102272.35
102093.85
101919.43
101755.78
101610.81
101492.65
101408.9
101365.81
101363.37
101407.6
101496.12
101627.13
101797.28
102002.06
102236.63
102496.67
102778.67
103079.71
103396.05
103723.24
104055.42
104381.71
104686.84
104978.13
105292
105693.93
106217.12
106774.21
107193.79
107442.68
107551.48
103827.67
103806.8
103856.12
103906.28
103932.34
103929.11
103902.94
103867.8
103825.13
103768.89
103697.05
103615.09
103526.89
103434.87
103338.92
103239.5
103137.13
103032.33
102925.57
102817.24
102707.74
102597.4
102486.56
102375.46
102264.38
102153.52
102043.1
101933.27
101824.22
101716.09
101609.03
101503.16
101398.61
101295.52
101193.98
101094.13
100996.09
100899.97
100805.92
100714.09
100624.65
100537.79
100453.76
100372.8
100295.25
100221.47
100151.9
100087.03
100027.44
99973.747
99926.683
99887.027
99855.59
99833.149
99820.351
99817.616
99825.012
99842.148
99868.083
99901.299
99939.743
99981.076
100022.81
100063.26
100100.63
100136.59
100169.46
100206.71
100242.82
100286.72
100333.64
100362.5
100414.01
100386.54
100420.82
100327.06
100332.66
100277.52
100197.42
100259.18
103300.55
103285
103279.84
103274.25
103257.92
103236.17
103210.16
103179.52
103134.63
103085.49
103030.7
102972.01
102908.19
102840.79
102769.63
102695.33
102618.01
102538.01
102455.57
102370.95
102284.38
102196.11
102106.37
102015.39
101923.38
101830.58
101737.18
101643.4
101549.44
101455.49
101361.74
101268.39
101175.59
101083.54
100992.4
100902.34
100813.51
100726.1
100640.27
100556.22
100474.15
100394.29
100316.88
100242.21
100170.62
100102.47
100038.2
99978.312
99923.356
99873.979
99830.917
99794.99
99767.063
99747.981
99738.474
99739.058
99749.909
99770.744
99800.719
99838.374
99881.671
99928.205
99975.372
100021.23
100063.88
100104.51
100141.75
100182.43
100221.96
100268.86
100318.65
100351.72
100406.1
100383.83
100419.75
100330.1
100336.26
100279.57
100198.78
100260.93
102749.38
102724.65
102686.33
102646.82
102609.68
102575.85
102537.39
102500.64
102460.35
102420.51
102376.61
102332.1
102284.21
102234.73
102182.41
102127.9
102070.91
102011.6
101949.99
101886.17
101820.25
101752.34
101682.57
101611.09
101538.05
101463.61
101387.95
101311.24
101233.67
101155.42
101076.68
100997.64
100918.5
100839.43
100760.63
100682.3
100604.62
100527.79
100452.01
100377.52
100304.52
100233.27
100164.04
100097.12
100032.86
99971.632
99913.863
99860.04
99810.719
99766.554
99728.307
99696.837
99673.064
99657.901
99652.162
99656.469
99671.116
99695.95
99730.24
99772.614
99821.063
99873.129
99926.089
99977.752
100026.01
100071.64
100113.39
100157.63
100200.5
100250.39
100303.09
100340.14
100397.82
100380.17
100418.42
100333.1
100339.8
100281.61
100199.74
100263.17
101987.68
101967.86
101948.86
101924.83
101899.35
101877.4
101850.16
101826.17
101796.86
101769.76
101738.37
101707.73
101673.72
101639.21
101602.21
101563.72
101523.17
101480.77
101436.41
101390.09
101341.83
101291.65
101239.6
101185.74
101130.15
101072.93
101014.19
100954.05
100892.65
100830.14
100766.67
100702.42
100637.55
100572.25
100506.69
100441.08
100375.6
100310.47
100245.9
100182.12
100119.37
100057.91
99998.004
99939.958
99884.105
99830.817
99780.507
99733.65
99690.799
99652.617
99619.893
99593.526
99574.482
99563.736
99562.185
99570.557
99589.28
99618.344
99657.156
99704.452
99758.278
99816.14
99875.196
99932.998
99987.217
100038.17
100084.63
100132.55
100178.71
100231.5
100287.03
100327.86
100389.17
100375.66
100416.79
100335.9
100343.26
100283.51
100200.91
100265.44
101241.07
101230.31
101223.57
101213.81
101200.98
101192.08
101176.67
101165.77
101148.5
101134.71
101115.79
101098.71
101077.84
101057.29
101034.25
101010.18
100984.19
100956.63
100927.29
100896.18
100863.27
100828.57
100792.08
100753.83
100713.85
100672.2
100628.95
100584.17
100537.95
100490.41
100441.66
100391.82
100341.05
100289.5
100237.33
100184.72
100131.85
100078.93
100026.17
99973.784
99922.008
99871.09
99821.294
99772.91
99726.253
99681.673
99639.564
99600.383
99564.678
99533.123
99506.529
99485.821
99472.003
99466.099
99469.086
99481.799
99504.809
99538.263
99581.732
99634.088
99693.454
99757.32
99822.736
99886.997
99947.522
100004.16
100055.59
100107.34
100156.77
100212.31
100270.5
100314.99
100380.07
100370.44
100414.91
100338.55
100346.56
100285.25
100202.52
100267.78
100567.87
100564.43
100564.75
100564.23
100559.61
100560.2
100553.43
100552.64
100544.52
100541.35
100532.18
100525.98
100515.53
100506.16
100494.18
100481.6
100467.2
100451.54
100434.37
100415.7
100395.52
100373.79
100350.5
100325.65
100299.23
100271.26
100241.76
100210.78
100178.36
100144.56
100109.48
100073.21
100035.85
99997.522
99958.375
99918.556
99878.232
99837.581
99796.792
99756.064
99715.607
99675.647
99636.423
99598.198
99561.258
99525.92
99492.548
99461.578
99433.553
99409.152
99389.195
99374.621
99366.45
99365.744
99373.551
99390.815
99418.253
99456.187
99504.371
99561.841
99626.829
99696.837
99768.82
99839.819
99906.984
99969.657
100026.37
100082.16
100134.83
100192.93
100253.56
100301.57
100370.45
100364.65
100412.97
100341.11
100349.69
100286.92
100204.87
100270.05
99966.937
99968.282
99971.825
99977.587
99978.407
99985.686
99984.359
99990.778
99988.741
99993.247
99990.864
99992.961
99990.498
99989.44
99985.456
99981.481
99976.007
99969.748
99962.378
99953.901
99944.247
99933.353
99921.183
99907.701
99892.885
99876.721
99859.208
99840.356
99820.188
99798.74
99776.063
99752.22
99727.293
99701.376
99674.58
99647.027
99618.854
99590.207
99561.243
99532.128
99503.04
99474.167
99445.713
99417.9
99390.973
99365.206
99340.931
99318.56
99298.626
99281.804
99268.904
99260.856
99258.679
99263.46
99276.305
99298.266
99330.207
99372.638
99425.516
99488.069
99558.675
99634.883
99713.578
99791.556
99865.674
99934.745
99997.09
100057.13
100113.08
100173.53
100236.29
100287.59
100360.21
100358.39
100411.26
100343.72
100352.72
100288.64
100208.22
100272.13
99429.479
99435.264
99441.105
99450.132
99452.878
99464.257
99465.478
99476.501