/*--------------------------------*- C++ -*----------------------------------*\
  =========                 |
  \\      /  F ield         | OpenFOAM: The Open Source CFD Toolbox
   \\    /   O peration     | Website:  https://openfoam.org
    \\  /    A nd           | Version:  12
     \\/     M anipulation  |
\*---------------------------------------------------------------------------*/
FoamFile
{
    format      ascii;
    class       volScalarField;
    location    "0.012";
    object      T;
}
// * * * * * * * * * * * * * * * * * * * * * * * * * * * * * * * * * * * * * //

dimensions      [0 0 0 1 0 0 0];

internalField   nonuniform List<scalar> 
16000
(
295.50988
287.22448
290.39508
288.67962
289.75218
289.2612
289.66607
289.55844
289.74701
289.78011
289.89728
289.98045
290.08446
290.18666
290.29552
290.40834
290.5259
290.64803
290.77475
290.90606
291.04193
291.18233
291.32722
291.47655
291.63024
291.78821
291.95036
292.11656
292.28668
292.46054
292.63797
292.81876
293.00265
293.18938
293.37863
293.57004
293.76321
293.95766
294.15286
294.34822
294.54305
294.73661
294.92806
295.1165
295.30095
295.48035
295.65361
295.81956
295.97704
296.12491
296.26207
296.38754
296.50045
296.60019
296.68646
296.75947
296.81992
296.86899
296.90863
296.9419
296.9729
297.00623
297.04678
297.09981
297.17008
297.26031
297.36965
297.49376
297.62601
297.7579
297.88565
298.01522
298.15775
298.30153
298.3627
298.15486
297.66596
296.82847
296.8566
297.30672
295.21086
286.83638
290.16046
288.33684
289.47565
288.94795
289.38971
289.27073
289.47512
289.51239
289.63683
289.72833
289.83925
289.9499
290.06682
290.1883
290.3147
290.44601
290.58219
290.72323
290.8691
291.01974
291.17509
291.33506
291.49956
291.66846
291.84162
292.01888
292.20005
292.38493
292.57328
292.76484
292.95933
293.15641
293.35575
293.55695
293.75958
293.96314
294.16711
294.37087
294.57376
294.77505
294.97393
295.16951
295.36083
295.54687
295.72653
295.89867
296.06208
296.2156
296.35805
296.48836
296.60555
296.70884
296.7977
296.87208
296.93231
296.97921
297.01433
297.04033
297.06084
297.08005
297.10269
297.13431
297.1805
297.24525
297.32979
297.43259
297.54961
297.67388
297.80313
297.94422
298.10694
298.27369
298.34172
298.14368
297.54001
296.73409
296.75722
297.3842
294.92728
286.4761
289.91836
288.0367
289.21335
288.67708
289.13218
289.02114
289.23005
289.2789
289.40855
289.51025
289.62889
289.74889
289.87498
290.00609
290.14241
290.28395
290.43064
290.58246
290.73934
290.9012
291.06794
291.23945
291.41557
291.59615
291.78099
291.96988
292.16258
292.35883
292.55834
292.7608
292.96585
293.17314
293.38227
293.5928
293.80427
294.01618
294.22798
294.43907
294.6488
294.85647
295.06128
295.26241
295.45895
295.64991
295.83425
296.01084
296.17852
296.33609
296.48234
296.61613
296.7364
296.84221
296.93288
297.00806
297.06779
297.1125
297.14341
297.16276
297.1737
297.17988
297.18573
297.19684
297.21915
297.2572
297.31376
297.39025
297.4851
297.59429
297.71793
297.86536
298.04418
298.22876
298.30105
298.07155
297.38422
296.5788
296.61469
297.41852
294.66671
286.14308
289.69097
287.76918
288.98171
288.43643
288.90547
288.80367
289.0178
289.0795
289.21547
289.32845
289.45611
289.5866
289.72309
289.86503
290.01244
290.16535
290.32366
290.48732
290.65621
290.83024
291.00926
291.19309
291.38156
291.57444
291.77148
291.9724
292.17692
292.38469
292.59535
292.80854
293.02384
293.24082
293.45905
293.67805
293.89733
294.11638
294.33463
294.55152
294.76641
294.97864
295.1875
295.3922
295.59193
295.78576
295.97274
296.15181
296.32184
296.48166
296.63006
296.76585
296.88791
296.99518
297.08683
297.16228
297.22125
297.26385
297.29093
297.30437
297.30675
297.30116
297.29162
297.2836
297.28304
297.29462
297.32218
297.36986
297.43766
297.5258
297.63806
297.78518
297.97318
298.16641
298.22834
297.93957
297.18337
296.35715
296.39216
297.39255
294.4266
285.84185
289.48688
287.54588
288.7899
288.23286
288.71171
288.62417
288.84183
288.91916
289.06222
289.18788
289.32594
289.46812
289.61628
289.77023
289.9299
290.0953
290.26631
290.44285
290.62476
290.81192
291.00409
291.20109
291.40264
291.60845
291.81821
292.03156
292.24812
292.46747
292.68919
292.9128
293.13783
293.36381
293.59022
293.81656
294.04233
294.26698
294.48999
294.7108
294.92884
295.14352
295.35419
295.56018
295.76077
295.95516
296.14249
296.32182
296.49209
296.65218
296.80092
296.93712
297.05959
297.16722
297.25901
297.3342
297.39221
297.43281
297.45655
297.46492
297.45991
297.444
297.42081
297.39556
297.37387
297.36029
297.3598
297.37744
297.41575
297.47836
297.57297
297.71182
297.89845
298.08422
298.11017
297.74062
296.90647
296.03813
296.0689
297.299
294.20977
285.57924
289.3104
287.35506
288.62326
288.07232
288.55977
288.48859
288.70847
288.8034
288.95456
289.0938
289.24349
289.39831
289.55923
289.72625
289.89927
290.07827
290.26309
290.45362
290.64965
290.85097
291.0573
291.26835
291.48377
291.70318
291.92615
292.15223
292.38095
292.61178
292.8442
293.07766
293.31161
293.5455
293.77879
294.01094
294.24142
294.46972
294.69534
294.91779
295.13657
295.35116
295.56107
295.76573
295.96458
296.15695
296.34215
296.51934
296.6876
296.84589
296.99311
297.12808
297.2496
297.3565
297.44769
297.52219
297.57916
297.61807
297.63918
297.64355
297.63257
297.60811
297.5734
297.53329
297.49273
297.45626
297.42955
297.41759
297.42596
297.46016
297.52957
297.65066
297.82049
297.9752
297.9344
297.46257
296.53547
295.62966
295.65485
297.14667
294.02079
285.35764
289.16344
287.19824
288.48779
287.95808
288.44869
288.4022
288.62177
288.73534
288.89553
289.04903
289.21161
289.38022
289.55524
289.73674
289.92457
290.11866
290.3188
290.52479
290.73634
290.95315
291.17482
291.40097
291.63111
291.86476
292.10137
292.34036
292.58112
292.82305
293.06549
293.30783
293.54943
293.7897
294.02804
294.26393
294.49685
294.72633
294.95193
295.17324
295.38989
295.6015
295.80771
296.00813
296.20237
296.38997
296.57037
296.74293
296.90686
297.06125
297.20507
297.33722
297.45651
297.56173
297.6517
297.72527
297.78132
297.81907
297.83847
297.84015
297.82486
297.79386
297.75006
297.69775
297.6409
297.58385
297.5327
297.4932
297.47062
297.47265
297.51208
297.60308
297.73573
297.83126
297.6904
297.08871
296.07027
295.1623
295.19825
296.95303
293.85903
285.17602
289.04581
287.07431
288.37902
287.88245
288.36537
288.33521
288.57868
288.71402
288.8854
289.05478
289.23247
289.41695
289.60825
289.80639
290.01116
290.22241
290.43983
290.66313
290.89189
291.12569
291.36401
291.6063
291.85196
292.10034
292.35075
292.60247
292.85478
293.10692
293.35818
293.60783
293.85519
294.09963
294.34057
294.57748
294.80992
295.03748
295.25986
295.47676
295.68797
295.89329
296.09256
296.28559
296.47218
296.6521
296.825
296.99041
297.14772
297.29615
297.43481
297.56268
297.6786
297.78137
297.86969
297.94226
297.99772
298.03503
298.05387
298.05429
298.03641
298.00099
297.95055
297.88853
297.81769
297.74241
297.66831
297.60053
297.54575
297.51363
297.5158
297.56243
297.63817
297.64696
297.37772
296.631
295.53507
294.68198
294.76845
296.75192
293.71917
285.03173
288.95731
286.98212
288.31366
287.82381
288.33928
288.361
288.5874
288.74218
288.92838
289.11627
289.31213
289.51529
289.72561
289.94303
290.16725
290.39803
290.63492
290.87751
291.12522
291.37749
291.63362
291.89289
292.15453
292.41772
292.68159
292.9453
293.20796
293.46874
293.7268
293.98139
294.23179
294.47739
294.71763
294.95208
295.18039
295.40231
295.61767
295.82639
296.02844
296.22386
296.4127
296.59502
296.77087
296.94022
297.10295
297.25879
297.40732
297.54793
297.67985
297.80217
297.91379
298.0135
298.09993
298.17157
298.22688
298.26458
298.28401
298.28454
298.26562
298.22765
298.17259
298.10255
298.01924
297.92694
297.83026
297.73411
297.64537
297.57332
297.52973
297.5221
297.52447
297.42643
297.01431
296.12529
294.97858
294.22338
294.3654
296.58245
293.59897
284.92649
288.90391
286.92946
288.2987
287.88342
288.36213
288.41061
288.64861
288.82953
289.03422
289.24338
289.46052
289.68531
289.91754
290.15699
290.40328
290.65599
290.91453
291.1783
291.44654
291.71847
291.99319
292.26979
292.54727
292.82462
293.10083
293.37487
293.64575
293.91255
294.17439
294.4305
294.68019
294.92292
295.15826
295.38591
295.6057
295.81758
296.02162
296.21797
296.40686
296.58858
296.76343
296.93175
297.09382
297.24986
297.39996
297.54406
297.68191
297.81308
297.93693
298.05268
298.15926
298.25546
298.33982
298.41068
298.46627
298.50506
298.52593
298.52751
298.5086
298.46935
298.41071
298.33297
298.23754
298.12795
298.00757
297.88134
297.75624
297.64158
297.548
297.47867
297.39906
297.18815
296.63728
295.62686
294.45728
293.82409
294.02562
296.46563
293.5031
284.86828
288.89375
286.97762
288.34089
287.95714
288.4374
288.52938
288.77811
288.98635
289.21347
289.44695
289.68865
289.93826
290.19545
290.45984
290.73085
291.00787
291.2901
291.57668
291.86662
292.15887
292.4523
292.74574
293.03797
293.32779
293.61401
293.8955
294.17118
294.44008
294.70136
294.9543
295.19835
295.43311
295.65836
295.87404
296.08024
296.27718
296.46522
296.6448
296.81644
296.98069
297.13815
297.28939
297.43495
297.57525
297.71061
297.84114
297.96675
298.08718
298.20194
298.31031
298.41127
298.50352
298.58559
298.65569
298.71173
298.75189
298.77444
298.77721
298.75853
298.71811
298.65545
298.56907
298.46066
298.3323
298.18669
298.02907
297.86697
297.71016
297.56823
297.4396
297.28095
296.96506
296.29582
295.19541
294.02541
293.50872
293.78478
296.3974
293.43936
284.87151
288.93617
287.11233
288.43493
288.11037
288.58319
288.71958
288.98468
289.22308
289.47696
289.73842
290.00836
290.2863
290.57176
290.8641
291.1625
291.46605
291.77366
292.08416
292.39626
292.70858
293.01973
293.32826
293.63274
293.93181
294.22413
294.50852
294.78391
295.04939
295.30425
295.54794
295.78017
296.0008
296.20994
296.40783
296.59493
296.77179
296.93909
297.09759
297.24809
297.39144
297.52848
297.66003
297.78682
297.90947
298.02844
298.14401
298.25623
298.36495
298.46982
298.57021
298.66501
298.75282
298.83212
298.90103
298.95715
298.99821
299.02174
299.02482
299.00551
298.96253
298.8938
298.79727
298.67432
298.52579
298.35474
298.16715
297.97195
297.77995
297.59964
297.42385
297.2001
296.79837
296.04094
294.88955
293.73814
293.29213
293.66229
296.367
293.41347
284.94448
289.04182
287.27774
288.58831
288.33731
288.80732
288.99194
289.27943
289.55131
289.83677
290.13048
290.43281
290.74298
291.06021
291.38352
291.71174
292.04357
292.37752
292.71205
293.04549
293.37614
293.70231
294.02232
294.33456
294.63757
294.93
295.21072
295.4788
295.73355
295.97454
296.20158
296.41474
296.61431
296.80078
296.97483
297.1373
297.28911
297.43127
297.56484
297.69091
297.81056
297.92483
298.03473
298.14114
298.24481
298.34632
298.44603
298.54409
298.64044
298.7348
298.82659
298.91467
298.99734
299.07292
299.13949
299.19438
299.23482
299.25756
299.25903
299.23698
299.18892
299.11129
299.0034
298.86507
298.6972
298.50397
298.29288
298.07495
297.86242
297.66206
297.45938
297.19138
296.7273
295.91307
294.74331
293.59795
293.15886
293.66101
296.3738
293.42801
285.09493
289.21742
287.53429
288.81834
288.64932
289.12103
289.35724
289.67453
289.98448
290.30704
290.63804
290.97741
291.32393
291.67637
292.03327
292.39297
292.75368
293.11347
293.47033
293.82224
294.16718
294.50319
294.82846
295.14133
295.44038
295.72444
295.99263
296.24438
296.47943
296.69781
296.89985
297.08614
297.25746
297.41481
297.5593
297.69216
297.81465
297.92809
298.03378
298.13301
298.22704
298.31705
298.40416
298.48933
298.57337
298.65689
298.7403
298.82377
298.90727
298.99055
299.07304
299.15354
299.22999
299.30025
299.36245
299.41378
299.45093
299.47
299.46696
299.43902
299.3833
299.29535
299.17599
299.02422
298.84222
298.6355
298.41364
298.18985
297.97739
297.78009
297.5739
297.28365
296.77813
295.92756
294.75407
293.60317
293.10288
293.76983
296.42574
293.48759
285.33575
289.46644
287.87709
289.13483
289.05724
289.53797
289.83011
290.18573
290.53971
290.90558
291.27944
291.6606
292.04722
292.43748
292.82929
293.22041
293.60848
293.99107
294.36576
294.73016
295.08204
295.41935
295.74034
296.04352
296.32782
296.5925
296.83722
297.06203
297.26731
297.45375
297.62231
297.77418
297.91069
298.03329
298.14352
298.24292
298.33303
298.41537
298.4914
298.56253
298.6301
298.69534
298.75937
298.82318
298.88754
298.95305
299.02008
299.08877
299.15903
299.23055
299.30275
299.3743
299.44281
299.50553
299.56042
299.60488
299.63537
299.6476
299.63625
299.59953
299.53419
299.43773
299.30981
299.15119
298.9656
298.76003
298.54566
298.33696
298.14687
297.97456
297.78499
297.4902
296.95801
296.07889
294.89851
293.7487
293.23738
293.95754
296.52172
293.5971
285.68565
289.7862
288.32214
289.55238
289.57657
290.07639
290.43033
290.83388
291.23895
291.65458
292.07656
292.50335
292.93237
293.36105
293.78656
294.20599
294.61641
295.01491
295.39872
295.76533
296.11254
296.43854
296.74197
297.02196
297.27811
297.51049
297.71959
297.9063
298.07179
298.21751
298.34508
298.45625
298.55283
298.63667
298.70957
298.77329
298.82952
298.87985
298.9258
298.96877
299.01009
299.05097
299.09244
299.1354
299.18055
299.22838
299.27917
299.33296
299.38954
299.44843
299.50886
299.56941
299.62753
299.68002
299.72429
299.75767
299.77696
299.77986
299.75714
299.7115
299.63746
299.5364
299.40761
299.25386
299.0801
298.89444
298.70841
298.53581
298.38705
298.25502
298.09374
297.80431
297.25365
296.34602
295.14291
293.98047
293.46747
294.22361
296.65898
293.76106
286.17346
290.17932
288.88647
290.09165
290.2301
290.76176
291.18459
291.6457
292.10881
292.57963
293.05334
293.52734
293.99814
294.46223
294.91599
295.35582
295.77829
296.18026
296.55899
296.91225
297.2384
297.5364
297.80582
298.04683
298.26013
298.44687
298.60856
298.74701
298.86421
298.96229
299.04343
299.10982
299.16357
299.20673
299.24125
299.26892
299.29143
299.31033
299.32706
299.34296
299.35921
299.37691
299.39694
299.42005
299.44677
299.47745
299.5122
299.5509
299.59312
299.63817
299.68492
299.73186
299.77652
299.81523
299.84573
299.86526
299.86764
299.85701
299.82564
299.77179
299.69593
299.59772
299.47975
299.34573
299.20159
299.05532
298.91695
298.79724
298.70167
298.61576
298.48447
298.20182
297.63535
296.6998
295.46962
294.29105
293.77827
294.56121
296.81749
293.98999
286.84592
290.69093
289.60101
290.78335
291.04879
291.62627
292.12475
292.65168
293.17835
293.7075
294.23345
294.75218
295.25906
295.74958
296.2194
296.66453
297.08154
297.46766
297.82091
298.1401
298.42484
298.67552
298.89313
299.07926
299.2359
299.36535
299.47013
299.55286
299.61617
299.66266
299.69485
299.7151
299.72564
299.72853
299.72564
299.71866
299.70915
299.69851
299.688
299.67877
299.67185
299.6681
299.66821
299.67272
299.68194
299.69602
299.71484
299.73806
299.765
299.79465
299.82555
299.85586
299.88366
299.9047
299.91575
299.91873
299.91053
299.88507
299.84484
299.78849
299.71731
299.63335
299.53982
299.44117
299.34307
299.25212
299.17527
299.11821
299.07944
299.03687
298.92981
298.65067
298.07064
297.11323
295.8634
294.67534
294.16875
294.95435
296.9817
294.30996
287.69356
291.34701
290.50283
291.66488
292.06681
292.70536
293.28596
293.88499
294.47795
295.06428
295.63701
296.19051
296.71909
297.21763
297.68173
298.10795
298.49388
298.83822
299.14072
299.40211
299.6239
299.80832
299.95804
300.07608
300.16563
300.22998
300.27234
300.29583
300.30342
300.29786
300.2817
300.25727
300.22666
300.19173
300.15415
300.11539
300.07674
300.03938
300.00435
299.97255
299.94474
299.92156
299.90344
299.89065
299.88328
299.8812
299.88405
299.8912
299.90171
299.91433
299.92739
299.93748
299.94342
299.94605
299.94133
299.92567
299.90092
299.86593
299.82182
299.77063
299.71466
299.65686
299.60064
299.55006
299.5094
299.48292
299.47369
299.48137
299.4963
299.48912
299.39803
299.12038
298.53393
297.56772
296.31144
295.12526
294.62929
295.37027
297.14001
294.76137
288.64811
292.19088
291.6255
292.77858
293.32481
294.04076
294.70907
295.38187
296.03679
296.66964
297.27216
297.83775
298.36064
298.83648
299.26238
299.63694
299.96021
300.2335
300.45913
300.64024
300.78049
300.88389
300.95457
300.99664
301.01408
301.01066
300.98989
300.95498
300.90883
300.85406
300.79299
300.72765
300.65984
300.59111
300.52278
300.45603
300.39187
300.33117
300.2747
300.2231
300.17684
300.13628
300.10156
300.0727
300.0495
300.03154
300.01818
300.00851
300.00131
299.99503
299.98813
299.97864
299.9641
299.94389
299.91791
299.8864
299.84968
299.80959
299.7693
299.73211
299.70108
299.67933
299.66957
299.67424
299.69554
299.73481
299.79129
299.85943
299.92156
299.94144
299.86064
299.58742
299.00766
298.05092
296.80498
295.63098
295.13769
295.79723
297.30082
295.39853
289.88499
293.26735
293.02037
294.18369
294.87986
295.68419
296.43793
297.17341
297.87012
298.52119
299.11859
299.65679
300.13227
300.54367
300.89157
301.17819
301.40708
301.58273
301.71019
301.79481
301.84198
301.85691
301.84454
301.80944
301.75576
301.68723
301.60717
301.51849
301.42374
301.32514
301.22457
301.12367
301.02381
300.92614
300.83164
300.74114
300.65533
300.5748
300.50002
300.43134
300.36895
300.3129
300.26307
300.21917
300.18071
300.14701
300.11712
300.08988
300.0639
300.03763
300.00936
299.97752
299.9411
299.90024
299.85634
299.81151
299.76819
299.72978
299.70079
299.68532
299.68642
299.70646
299.74667
299.80745
299.88849
299.98815
300.10224
300.22183
300.32403
300.36646
300.29654
300.03524
299.47698
298.54884
297.33135
296.17869
295.67465
296.22464
297.46178
296.2776
291.46121
294.65967
294.76644
295.9582
296.7984
297.6828
298.49826
299.26097
299.9543
300.57224
301.11027
301.56729
301.94479
302.2465
302.47779
302.6451
302.75548
302.81611
302.83402
302.81587
302.76778
302.69531
302.60335
302.49624
302.37772
302.25102
302.11892
301.98376
301.84755
301.71195
301.57836
301.44792
301.32158
301.20009
301.08406
300.974
300.87031
300.77327
300.68308
300.59979
300.52332
300.45343
300.38971
300.33161
300.27834
300.22895
300.18225
300.13689
300.0914
300.04429
299.99428
299.9406
299.88349
299.8245
299.76654
299.71344
299.66943
299.63921
299.62772
299.63897
299.67531
299.73779
299.82586
299.93785
300.07128
300.22211
300.38218
300.54
300.67517
300.74256
300.68907
300.44772
299.92243
299.0395
297.87052
296.75303
296.23059
296.64464
297.60994
297.38495
293.50034
296.47288
296.94585
298.16823
299.12411
300.04449
300.86263
301.58527
302.20386
302.71855
303.13232
303.45132
303.68369
303.83881
303.92649
303.95648
303.938
303.87954
303.7887
303.67217
303.53575
303.38439
303.22229
303.053
302.87945
302.70413
302.52907
302.35596
302.18617
302.02083
301.86082
301.70683
301.55939
301.4189
301.28565
301.15985
301.04162
300.931
300.8279
300.73211
300.64328
300.56091
300.48434
300.41273
300.34507
300.28013
300.21658
300.15298
300.08796
300.02031
299.94936
299.87546
299.80035
299.72718
299.6602
299.60442
299.56533
299.54832
299.55795
299.59732
299.66774
299.76869
299.89805
300.05241
300.22761
300.41842
300.61633
300.8059
300.96513
301.05545
301.02346
300.80668
300.31954
299.49391
298.39587
297.33418
296.79393
297.05016
297.73928
298.8858
296.1143
298.80252
299.61262
300.81195
301.82785
302.69631
303.42097
304.01105
304.47049
304.80975
305.04123
305.17872
305.23614
305.22677
305.1628
305.05507
304.91298
304.74457
304.55658
304.3546
304.14328
303.9264
303.70703
303.4877
303.27043
303.05684
302.84825
302.6457
302.44998
302.26172
302.08135
301.90919
301.74541
301.59012
301.44334
301.30504
301.17509
301.0533
300.93935
300.83279
300.73302
300.63932
300.55078
300.46636
300.3848
300.30473
300.22472
300.14343
300.0597
299.97286
299.88303
299.79175
299.70232
299.61946
299.54857
299.49525
299.46531
299.46411
299.49539
299.56093
299.66082
299.79323
299.95484
300.1412
300.34718
300.56683
300.79185
301.00778
301.18995
301.3028
301.29495
301.10285
300.6509
299.88556
298.87888
297.89811
297.34371
297.43593
297.86401
300.8304
299.37372
301.6481
302.74324
303.91231
304.76568
305.46277
305.98235
306.34681
306.57451
306.68656
306.70299
306.64229
306.52071
306.35214
306.14818
305.91836
305.67041
305.41054
305.1437
304.87382
304.604
304.33667
304.07374
303.8167
303.5667
303.32463
303.09116
302.86678
302.65183
302.44652
302.25094
302.06509
301.88889
301.72222
301.56488
301.41665
301.27721
301.14617
301.023
300.90704
300.79752
300.69349
300.59386
300.4974
300.40271
300.30833
300.21285
300.1151
300.01434
299.91054
299.80476
299.69973
299.60013
299.51197
299.4414
299.39408
299.37541
299.39011
299.44089
299.52817
299.65093
299.80639
299.99057
300.19869
300.42551
300.66524
300.91018
301.14657
301.34871
301.47877
301.49117
301.32728
300.9063
300.20005
299.29612
298.41554
297.8639
297.78959
297.97304
303.2437
303.26845
305.25102
306.21173
307.09533
307.6985
308.09971
308.31995
308.3953
308.35522
308.22627
308.03044
307.78561
307.50603
307.20286
306.88474
306.55834
306.22873
305.89979
305.57443
305.25486
304.94271
304.63921
304.34524
304.06146
303.78831
303.52609
303.27498
303.03507
302.80634
302.58869
302.38196
302.18593
302.00033
301.82487
301.65921
301.50297
301.35569
301.21681
301.08565
300.96139
300.84308
300.72962
300.61979
300.51219
300.40537
300.29784
300.18833
300.07594
299.9604
299.84241
299.72397
299.60895
299.5031
299.41319
299.34559
299.30566
299.29807
299.32665
299.39297
299.49633
299.63486
299.80514
300.00299
300.22384
300.46298
300.71549
300.97492
301.22809
301.44518
301.57627
301.59797
301.47819
301.08378
300.44478
299.65131
298.87117
298.31944
298.09232
298.04499
306.26858
307.64021
308.95275
309.64523
310.1172
310.32399
310.3472
310.22823
310.00735
309.71463
309.37326
309.00053
308.60919
308.20858
307.80547
307.40473
307.00987
306.62336
306.24694
305.88179
305.52872
305.18822
304.86059
304.54596
304.24437
303.95577
303.68004
303.41701
303.16647
302.92817
302.7018
302.48701
302.28345
302.09071
301.90838
301.73602
301.57315
301.41918
301.27345
301.13517
301.00338
300.87704
300.75494
300.63572
300.51795
300.40011
300.28079
300.1589
300.03389
299.90605
299.77679
299.64897
299.52724
299.41797
299.32825
299.26442
299.23135
299.2329
299.27188
299.34893
299.46251
299.61023
299.78843
299.99298
300.21977
300.46483
300.72397
300.99134
301.25459
301.48312
301.61763
301.64506
301.56054
301.19785
300.64654
299.95258
299.24893
298.68623
298.32268
298.10062
310.16815
311.93438
312.46826
312.65196
312.5974
312.36541
312.01777
311.59643
311.13124
310.6427
310.14473
309.64671
309.15488
308.67335
308.20479
307.75083
307.31245
306.89016
306.48414
306.09436
305.72065
305.36275
305.02034
304.69306
304.38055
304.08242
303.79829
303.52777
303.27045
303.02591
302.79372
302.5734
302.36449
302.16651
301.97896
301.80132
301.63303
301.47344
301.32181
301.17726
301.03879
300.90527
300.77544
300.64791
300.52122
300.39387
300.26454
300.13233
299.99705
299.85953
299.72187
299.58759
299.46175
299.35081
299.26179
299.20083
299.17249
299.17997
299.22502
299.30763
299.42591
299.57724
299.75804
299.96455
300.19311
300.44021
300.70191
300.97226
301.23935
301.47556
301.62455
301.65993
301.58591
301.27835
300.81488
300.2027
299.53559
298.94871
298.48532
298.1448
315.07623
315.44256
315.17341
314.8074
314.2889
313.7009
313.07857
312.44729
311.8211
311.20852
310.61431
310.04102
309.48986
308.96117
308.45482
307.97035
307.50716
307.06454
306.64174
306.23802
305.85265
305.48491
305.13413
304.79967
304.48094
304.17737
303.8884
303.61353
303.35222
303.10397
302.86823
302.64449
302.4322
302.23081
302.03979
301.85856
301.6865
301.52292
301.36703
301.21793
301.07457
300.9358
300.80036
300.66686
300.53383
300.39983
300.26361
300.12436
299.98209
299.8379
299.69427
299.55513
299.42572
299.31241
299.22203
299.16068
299.13268
299.14081
299.18589
299.26811
299.38556
299.53568
299.71518
299.9206
300.14855
300.39565
300.65788
300.92898
301.19674
301.43614
301.60372
301.65581
301.58604
301.32892
300.92981
300.38722
299.73548
299.11588
298.58072
298.16901
317.05247
317.21783
316.64698
315.89092
315.11798
314.34428
313.5899
312.86243
312.16528
311.49946
310.86469
310.26004
309.68428
309.13605
308.61397
308.11667
307.64289
307.1914
306.76109
306.35092
305.95993
305.58725
305.23206
304.89363
304.57127
304.26435
303.97229
303.69451
303.43048
303.17965
302.94148
302.71541
302.5009
302.29739
302.10434
301.92115
301.74723
301.58185
301.42423
301.27344
301.12843
300.98801
300.85087
300.71556
300.58055
300.44431
300.30548
300.16318
300.01726
299.86864
299.71951
299.57359
299.43626
299.3142
299.21475
299.14562
299.11627
299.11147
299.15047
299.22555
299.33576
299.47926
299.65288
299.85347
300.0781
300.32379
300.58702
300.86106
301.1337
301.38046
301.56117
301.6292
301.56822
301.34126
300.97489
300.47444
299.84247
299.19976
298.6254
298.17873
310.05684
308.89653
304.91814
302.499
301.67354
301.52588
301.5137
301.42347
301.35498
301.2611
301.16947
301.0791
300.99056
300.90237
300.81457
300.72655
300.63817
300.54927
300.45974
300.36956
300.27876
300.18734
300.09536
300.0029
299.91005
299.81694
299.72372
299.6306
299.53777
299.44548
299.35396
299.26346
299.17419
299.08635
299.00009
298.91553
298.83272
298.75173
298.67257
298.5953
298.51998
298.44671
298.37565
298.30702
298.24111
298.17827
298.11892
298.06351
298.01256
297.96663
297.92633
297.89235
297.86538
297.8461
297.83507
297.83268
297.839
297.85372
297.87603
297.9047
297.93801
297.97394
298.01034
298.04567
298.07843
298.10961
298.13834
298.16967
298.20082
298.23612
298.27724
298.2988
298.3459
298.32306
298.3585
298.26679
298.34026
298.1607
298.23391
297.55182
309.69064
306.39593
302.48497
300.79445
300.49166
300.54953
300.61218
300.60468
300.58075
300.54978
300.51467
300.47138
300.42314
300.37084
300.31544
300.25703
300.1959
300.13217
300.066
299.99763
299.92718
299.85484
299.78073
299.70504
299.62793
299.5496
299.47026
299.39017
299.30959
299.22879
299.14807
299.06771
298.98797
298.90908
298.83124
298.7546
298.67927
298.60535
298.5329
298.462
298.39273
298.32523
298.25967
298.19627
298.13532
298.07719
298.02226
297.97101
297.92394
297.88161
297.84466
297.8138
297.78977
297.77329
297.76502
297.7654
297.77462
297.79245
297.81817
297.85059
297.88801
297.92836
297.96942
298.00943
298.04678
298.08214
298.1148
298.14946
298.18361
298.22196
298.26566
298.2909
298.3393
298.31997
298.35818
298.27133
298.34614
298.16068
298.21832
297.51658
308.31797
304.54787
301.67393
300.25117
300.11109
300.12739
300.13731
300.09825
300.06837
300.03026
299.99531
299.95702
299.91824
299.87744
299.83518
299.79115
299.74535
299.69759
299.64782
299.59604
299.54222
299.48638
299.42855
299.3688
299.30723
299.24398
299.17922
299.11316
299.04606
298.97817
298.90978
298.84118
298.77263
298.70438
298.63665
298.56962
298.50342
298.43818
298.37401
298.311
298.24926
298.18893
298.13019
298.07327
298.01848
297.96614
297.91667
297.87051
297.82817
297.79022
297.75732
297.73022
297.70969
297.69652
297.69141
297.69493
297.70734
297.72851
297.75786
297.79424
297.83599
297.88101
297.92698
297.97195
298.01414
298.05389
298.09056
298.1286
298.16563
298.20707
298.25344
298.28229
298.33324
298.31624
298.35744
298.27507
298.35141
298.16075
298.1984
297.48419
307.60652
303.3713
300.58874
299.51516
299.54917
299.5357
299.55403
299.51657
299.50254
299.47507
299.45391
299.4276
299.40182
299.37423
299.34571
299.31573
299.28428
299.2511
299.21611
299.17923
299.14037
299.0995
299.05658
299.01162
298.96468
298.91585
298.86524
298.81303
298.75943
298.70468
298.64901
298.59271
298.53602
298.4792
298.42244
298.36594
298.30985
298.25432
298.19946
298.14538
298.0922
298.04006
297.98916
297.9397
297.89199
297.84635
297.80317
297.76289
297.72601
297.69312
297.66489
297.64211
297.62558
297.61614
297.61456
297.6215
297.63734
297.66207
297.69521
297.73573
297.782
297.83192
297.88305
297.93326
297.98057
298.02499
298.06578
298.1073
298.14711
298.19162
298.24057
298.27303
298.32662
298.31209
298.35626
298.27949
298.3561
298.16082
298.17495
297.45235
306.94443
302.19512
299.76544
298.90422
299.00828
298.9643
299.00019
298.96464
298.9651
298.94457
298.93467
298.91789
298.90296
298.88618
298.86892
298.85049
298.83086
298.80978
298.78715
298.76286
298.73678
298.70883
298.67895
298.64711
298.6133
298.57758
298.54002
298.50075
298.45993
298.41776
298.37445
298.33025
298.28537
298.24004
298.19446
298.14881
298.10326
298.05792
298.01293
297.9684
297.92444
297.88118
297.83881
297.79752
297.75759
297.71932
297.68309
297.64931
297.61849
297.59123
297.56821
297.55023
297.53814
297.53281
297.53508
297.54568
297.56514
297.59356
297.63062
297.67539
297.72632
297.7813
297.83782
297.89352
297.94622
297.99557
298.04069
298.08576
298.12829
298.17573
298.22708
298.2631
298.32003
298.30759
298.35463
298.28425
298.36017
298.16081
298.14939
297.42099
306.34211
301.12625
299.06254
298.33285
298.4893
298.42122
298.47552
298.43963
298.45352
298.43896
298.43942
298.43091
298.42544
298.4179
298.41021
298.40155
298.39186
298.38095
298.36872
298.35505
298.33982
298.32292
298.30428
298.28383
298.26155
298.23745
298.21158
298.18403
298.15492
298.12441
298.09268
298.05993
298.02636
297.99218
297.95755
297.92266
297.88764
297.85262
297.81771
297.783
297.74859
297.71461
297.68119
297.64853
297.61686
297.58645
297.55765
297.53086
297.50658
297.48541
297.46805
297.4553
297.44802
297.44711
297.45348
297.46795
297.49115
297.52335
297.56437
297.61344
297.66911
297.72928
297.79135
297.85279
297.91115
297.96571
298.0154
298.06415
298.10937
298.15954
298.21298
298.25246
298.3127
298.30282
298.35284
298.28945
298.36362
298.16098
298.12269
297.39018
305.80957
300.1806
298.47205
297.82011
298.0175
297.92592
297.99645
297.95756
297.98212
297.97088
297.97901
297.97654
297.97809
297.97729
297.97673
297.97547
297.97345
297.97055
297.96665
297.96162
297.95532
297.94763
297.93844
297.92769
297.91532
297.90131
297.88569
297.86852
297.84988
297.82991
297.80876
297.7866
297.7636
297.73994
297.71578
297.69126
297.66651
297.64164
297.61673
297.59185
297.56709
297.54253
297.51828
297.49449
297.47136
297.44913
297.42809
297.40865
297.39129
297.3766
297.36528
297.35811
297.35595
297.35974
297.37041
297.38888
297.4159
297.4519
297.49688
297.55023
297.61064
297.67604
297.74379
297.81116
297.87545
297.93551
297.99004
298.04261
298.09056
298.1432
298.19836
298.24101
298.30463
298.29779
298.35156
298.29518
298.36644
298.162
298.09393
297.36023
305.37323
299.27921
297.96155
297.35238
297.58669
297.47058
297.55722