/*--------------------------------*- C++ -*----------------------------------*\
  =========                 |
  \\      /  F ield         | OpenFOAM: The Open Source CFD Toolbox
   \\    /   O peration     | Website:  https://openfoam.org
    \\  /    A nd           | Version:  12
     \\/     M anipulation  |
\*---------------------------------------------------------------------------*/
FoamFile
{
    format      ascii;
    class       volScalarField;
    location    "0.058";
    object      k;
}
// * * * * * * * * * * * * * * * * * * * * * * * * * * * * * * * * * * * * * //

dimensions      [0 2 -2 0 0 0 0];

internalField   nonuniform List<scalar> 
16000
(
0.048196247
0.021623873
0.022419464
0.016548327
0.014041184
0.012713071
0.011922902
0.011450571
0.011129088
0.010912842
0.01075369
0.010634828
0.010542179
0.010468775
0.010409776
0.010361818
0.010322611
0.010290571
0.010264075
0.010242446
0.010224536
0.010209958
0.01019816
0.010188683
0.010181156
0.010175378
0.01017108
0.010168112
0.010166332
0.010165606
0.010165809
0.010166832
0.010168588
0.010171001
0.010174003
0.010177529
0.010181512
0.010185886
0.010190589
0.010195559
0.010200731
0.010206042
0.010211433
0.01021685
0.010222237
0.010227534
0.010232693
0.010237672
0.010242432
0.010246941
0.010251177
0.010255127
0.010258779
0.010262134
0.010265196
0.010267985
0.010270536
0.010272898
0.010275107
0.010277159
0.01027897
0.01028038
0.010281171
0.010281022
0.010279422
0.010275634
0.01026864
0.010257001
0.010238685
0.010211714
0.01017647
0.010138756
0.010114098
0.010112549
0.010127656
0.010149083
0.0101674
0.010174891
0.010174189
0.010136523
0.045724216
0.020484916
0.020972508
0.015992507
0.013689784
0.012502786
0.01175524
0.011327839
0.011024027
0.010825191
0.01067647
0.01056651
0.010480318
0.010412429
0.010357973
0.010313924
0.010278028
0.010248953
0.010225008
0.010205727
0.01018991
0.01017723
0.01016719
0.010159357
0.010153346
0.010148992
0.010146026
0.010144301
0.010143681
0.010144043
0.010145265
0.010147239
0.010149876
0.010153102
0.010156847
0.010161049
0.010165642
0.010170563
0.010175749
0.01018114
0.010186676
0.010192292
0.010197931
0.010203542
0.010209073
0.010214467
0.010219677
0.010224666
0.010229399
0.010233852
0.010238012
0.010241874
0.010245428
0.010248682
0.010251638
0.01025431
0.010256724
0.010258919
0.010260928
0.010262747
0.010264297
0.010265408
0.010265854
0.010265318
0.010263311
0.010259118
0.01025179
0.010240089
0.010222302
0.010196626
0.010163382
0.010128423
0.010106871
0.010107614
0.010123726
0.010144794
0.010160089
0.010164305
0.010162043
0.010121933
0.041818696
0.019684153
0.019634801
0.01542267
0.013331358
0.012271413
0.011582337
0.011197567
0.010917041
0.010736603
0.010599129
0.010498495
0.010419247
0.010357154
0.010307527
0.010267628
0.010235253
0.010209338
0.010188109
0.010171323
0.010157737
0.010147081
0.010138902
0.010132809
0.010128404
0.010125549
0.010123987
0.010123571
0.010124171
0.010125672
0.010127955
0.010130914
0.010134461
0.010138519
0.01014302
0.010147899
0.010153096
0.010158545
0.010164185
0.010169959
0.010175808
0.010181671
0.010187491
0.010193222
0.010198813
0.010204213
0.010209379
0.010214275
0.010218874
0.010223157
0.010227121
0.010230771
0.010234101
0.010237127
0.010239853
0.010242288
0.01024445
0.010246366
0.010248061
0.010249531
0.0102507
0.010251401
0.010251394
0.010250364
0.010247837
0.01024312
0.010235305
0.010223302
0.010205751
0.010181175
0.010149859
0.010117751
0.010099939
0.010102838
0.01011968
0.010139783
0.010152125
0.010153399
0.010148488
0.010107673
0.038273224
0.019146274
0.018489357
0.014912931
0.013007274
0.012061983
0.011424217
0.011078444
0.010818976
0.010655192
0.01052845
0.010436424
0.010363799
0.010307179
0.010262151
0.010226232
0.010197228
0.010174372
0.010155764
0.010141403
0.010129993
0.010121313
0.010114953
0.010110565
0.010107737
0.010106352
0.010106168
0.010107034
0.010108827
0.010111435
0.010114744
0.010118649
0.01012306
0.010127897
0.010133094
0.010138584
0.010144307
0.010150202
0.010156206
0.010162263
0.01016832
0.010174319
0.010180205
0.010185934
0.010191464
0.010196747
0.010201743
0.010206424
0.010210767
0.010214758
0.0102184
0.010221709
0.010224687
0.010227358
0.010229729
0.010231806
0.010233597
0.010235117
0.010236383
0.010237387
0.010238061
0.010238245
0.010237698
0.010236106
0.010233015
0.010227768
0.01021949
0.010207211
0.010189906
0.010166508
0.01013726
0.010107773
0.010093266
0.01009779
0.010114827
0.010133585
0.01014313
0.010141677
0.010133983
0.010092811
0.035416917
0.018861617
0.017534179
0.014441201
0.012706041
0.011864459
0.011276225
0.010966435
0.010727591
0.010579396
0.010463158
0.010379325
0.010313177
0.010261865
0.010221323
0.01018931
0.010163605
0.010143777
0.010127753
0.010115796
0.010106553
0.010099849
0.010095303
0.010092616
0.010091373
0.010091453
0.010092645
0.01009479
0.010097767
0.010101465
0.010105777
0.010110595
0.010115828
0.010121395
0.010127227
0.010133258
0.010139427
0.010145675
0.010151942
0.010158174
0.010164321
0.01017033
0.010176153
0.010181748
0.01018708
0.010192109
0.010196801
0.01020113
0.010205084
0.010208657
0.010211847
0.010214678
0.010217177
0.010219363
0.010221253
0.010222851
0.010224156
0.010225173
0.010225905
0.010226341
0.010226417
0.010225986
0.010224813
0.010222587
0.010218879
0.010213075
0.010204345
0.010191795
0.010174673
0.010152388
0.010125246
0.010098267
0.010086694
0.010092422
0.010109239
0.01012643
0.010133331
0.010129283
0.010118915
0.010077484
0.03327144
0.018815149
0.016823351
0.014009469
0.012429089
0.011680962
0.011139626
0.010862793
0.010643748
0.010509912
0.01040384
0.010327717
0.010267828
0.010221626
0.010185417
0.010157215
0.010134721
0.010117879
0.010104402
0.010094825
0.01008774
0.010083022
0.010080284
0.010079287
0.010079644
0.010081176
0.010083735
0.010087146
0.010091284
0.010096043
0.010101314
0.010106993
0.010112984
0.010119204
0.010125582
0.010132053
0.010138556
0.010145035
0.010151433
0.0101577
0.01016379
0.010169658
0.010175262
0.010180567
0.010185545
0.010190166
0.010194402
0.010198234
0.010201658
0.010204674
0.010207284
0.010209509
0.010211402
0.010212981
0.01021427
0.010215273
0.010215986
0.010216401
0.010216507
0.010216285
0.010215676
0.010214544
0.010212669
0.010209751
0.010205385
0.010199013
0.010189871
0.010177111
0.010160161
0.01013889
0.010113811
0.010089148
0.010080028
0.010086517
0.010102748
0.010118244
0.010122712
0.010116283
0.01010384
0.010062162
0.030896571
0.01892654
0.016315688
0.013614062
0.012174052
0.011510765
0.011014105
0.010767272
0.010567275
0.010446589
0.010350336
0.010281514
0.010227693
0.010186457
0.010154469
0.010130027
0.010110696
0.010096829
0.0100859
0.010078706
0.010073792
0.010071137
0.010070202
0.010070869
0.010072876
0.010075822
0.010079737
0.010084392
0.01008966
0.010095432
0.010101602
0.010108063
0.010114721
0.010121489
0.010128295
0.010135074
0.010141768
0.010148324
0.010154691
0.010160824
0.010166684
0.010172234
0.010177443
0.010182281
0.010186733
0.010190778
0.010194398
0.01019758
0.010200325
0.010202642
0.010204541
0.010206047
0.010207213
0.01020807
0.010208645
0.010208948
0.01020897
0.010208694
0.010208096
0.010207144
0.010205777
0.010203875
0.010201235
0.010197576
0.010192524
0.010185584
0.010176077
0.010163197
0.010146436
0.010126026
0.010102855
0.010080347
0.010073197
0.010080032
0.010095358
0.010109069
0.010111359
0.010102843
0.010088951
0.010049282
0.028389897
0.019116912
0.015891059
0.013252299
0.011939418
0.011353572
0.0108989
0.010679594
0.010497754
0.010389304
0.010302571
0.010240748
0.010192853
0.010156504
0.010128673
0.010107978
0.010091802
0.010080906
0.010072572
0.010067772
0.010065048
0.010064732
0.010065511
0.010067725
0.010071249
0.010075741
0.010080982
0.01008684
0.010093178
0.010099888
0.010106861
0.010113994
0.010121188
0.010128358
0.010135432
0.010142347
0.010149049
0.01015549
0.010161627
0.010167425
0.010172851
0.010177882
0.010182496
0.010186677
0.010190417
0.010193709
0.010196547
0.010198925
0.010200848
0.01020233
0.010203398
0.01020407
0.010204402
0.010204433
0.010204196
0.010203704
0.010202949
0.010201906
0.01020054
0.010198802
0.010196624
0.010193898
0.010190447
0.010186019
0.010180271
0.010172775
0.010162953
0.010150055
0.010133541
0.010113813
0.010092274
0.010071815
0.010066173
0.010072984
0.010087113
0.010098973
0.010099376
0.010089258
0.010074658
0.010038248
0.026630498
0.019296658
0.015363937
0.012920869
0.011723548
0.011208533
0.010793518
0.010599295
0.010435372
0.010338301
0.010260777
0.010205722
0.01016363
0.010132118
0.010108403
0.010091443
0.010078456
0.010070446
0.010064861
0.010062408
0.010061916
0.010063218
0.010066161
0.010070305
0.010075406
0.010081296
0.010087812
0.010094794
0.010102106
0.010109632
0.010117268
0.010124909
0.01013246
0.010139836
0.010146969
0.010153799
0.010160281
0.010166374
0.010172047
0.010177275
0.010182039
0.010186328
0.010190134
0.010193454
0.010196292
0.010198655
0.010200546
0.01020197
0.010202938
0.010203468
0.010203581
0.010203328
0.010202734
0.010201853
0.010200723
0.01019936
0.010197757
0.010195885
0.010193698
0.010191133
0.010188112
0.010184531
0.010180243
0.010175034
0.010168604
0.010160578
0.010150482
0.010137655
0.010121469
0.010102255
0.010081948
0.010063549
0.010059
0.010065482
0.010078179
0.010088148
0.010087006
0.010075904
0.010061049
0.010028638
0.024983702
0.019462782
0.014699831
0.012616848
0.011526513
0.011075891
0.010698891
0.010527294
0.010380631
0.010294
0.010225369
0.010176888
0.010140481
0.01011377
0.010094151
0.010080864
0.010071196
0.010065617
0.010063322
0.010061212
0.010065069
0.010068472
0.010073211
0.010078998
0.010085614
0.010092852
0.010100538
0.010108515
0.010116644
0.010124808
0.010132902
0.010140827
0.010148493
0.010155818
0.010162742
0.010169215
0.010175202
0.010180674
0.010185615
0.010190013
0.010193867
0.01019718
0.010199959
0.010202215
0.010203966
0.01020523
0.010206024
0.01020636
0.010206255
0.01020573
0.010204813
0.010203538
0.010201948
0.010200092
0.010198007
0.010195715
0.01019321
0.010190462
0.010187418
0.010184002
0.010180124
0.01017568
0.010170553
0.010164574
0.010157491
0.010148975
0.010138635
0.010125921
0.010110145
0.010091339
0.010071746
0.010055537
0.010051757
0.010057693
0.010068807
0.010076897
0.010074602
0.010063236
0.010048768
0.010020404
0.023471554
0.019600738
0.014159706
0.012338421
0.011348778
0.010956201
0.010615334
0.010464101
0.010333651
0.010256803
0.010196758
0.010154721
0.010123906
0.010101981
0.010086488
0.010076581
0.010070682
0.010065606
0.0100686
0.010071199
0.010074797
0.010080267
0.010086838
0.010094248
0.010102274
0.010110714
0.010119398
0.010128168
0.010136883
0.010145427
0.010153698
0.010161606
0.010169072
0.010176023
0.010182413
0.010188205
0.010193379
0.010197924
0.010201841
0.010205138
0.010207828
0.010209931
0.010211473
0.010212476
0.010212972
0.01021299
0.010212558
0.010211695
0.010210421
0.010208762
0.010206744
0.0102044
0.010201769
0.010198897
0.010195822
0.010192566
0.010189125
0.010185471
0.010181547
0.010177271
0.01017254
0.010167249
0.010161303
0.010154583
0.010146891
0.010137933
0.010127361
0.010114739
0.010099409
0.01008103
0.010061628
0.01004775
0.01004451
0.010049761
0.010059256
0.010065599
0.010062588
0.010051594
0.01003783
0.010013398
0.022125189
0.019726914
0.013693827
0.012085873
0.011190136
0.01084905
0.010542595
0.010409582
0.010294773
0.010227149
0.010175417
0.010139752
0.010114475
0.010097335
0.0100861
0.010078366
0.010077675
0.01007859
0.010080806
0.01008552
0.010091864
0.010099266
0.010107541
0.010116415
0.010125663
0.01013508
0.010144498
0.01015376
0.010162732
0.010171302
0.010179377
0.010186884
0.010193759
0.010199949
0.010205425
0.010210172
0.010214188
0.010217485
0.010220083
0.010222009
0.010223294
0.010223977
0.010224095
0.010223686
0.01022279
0.010221448
0.010219693
0.010217552
0.010215049
0.010212206
0.01020905
0.01020561
0.01020192
0.010198019
0.010193942
0.010189711
0.010185322
0.01018075
0.01017594
0.010170806
0.010165242
0.01015914
0.010152417
0.010144997
0.010136741
0.010127385
0.010116583
0.010103967
0.010089016
0.010071213
0.010052106
0.010040136
0.010037253
0.010041742
0.010049708
0.010054593
0.010051309
0.010041162
0.010028207
0.010007648
0.020907134
0.019802279
0.01326294
0.011858864
0.01105
0.010754298
0.010480804
0.010364204
0.010264303
0.010205548
0.010161909
0.010132607
0.010112864
0.010100504
0.010093826
0.010091627
0.010092063
0.010095496
0.010101195
0.010108347
0.010116671
0.010125879
0.010135656
0.010145741
0.010155908
0.010165955
0.010175718
0.010185052
0.010193835
0.010201969
0.010209381
0.010216019
0.010221847
0.010226839
0.01023099
0.010234311
0.010236824
0.010238562
0.010239566
0.010239883
0.01023956
0.010238649
0.0102372
0.010235261
0.010232882
0.010230106
0.010226974
0.010223515
0.010219755
0.010215713
0.010211413
0.010206879
0.010202139
0.010197221
0.010192156
0.010186962
0.010181636
0.010176153
0.010170463
0.010164487
0.01015812
0.010151252
0.010143807
0.010135736
0.010126951
0.010117227
0.010106195
0.010093471
0.010078708
0.010061544
0.010043086
0.010032642
0.010029938
0.010033621
0.010040256
0.010044101
0.010040957
0.010032025
0.010020133
0.010002063
0.01981209
0.01979766
0.012873316
0.011655209
0.010927587
0.010672049
0.010430064
0.010328339
0.010242718
0.010192651
0.010156968
0.010134063
0.010119896
0.010112385
0.010109872
0.010111141
0.010115474
0.010121963
0.010130093
0.010139476
0.010149697
0.010160413
0.010171345
0.010182233
0.01019286
0.010203035
0.010212607
0.010221453
0.010229477
0.01023661
0.010242809
0.010248054
0.010252343
0.010255686
0.010258106
0.01025964
0.010260337
0.01026025
0.010259438
0.010257963
0.010255885
0.010253266
0.010250164
0.010246634
0.010242729
0.010238495
0.010233973
0.010229196
0.010224187
0.010218964
0.010213544
0.010207945
0.010202187
0.01019629
0.010190274
0.010184152
0.010177919
0.010171551
0.010165005
0.010158209
0.010151072
0.010143489
0.010135383
0.010126708
0.010117412
0.010107321
0.010096057
0.010083146
0.010068308
0.010051663
0.010034497
0.010025213
0.010022538
0.010025417
0.010030972
0.010034244
0.010031612
0.010024139
0.010013611
0.009997625
0.018824991
0.019515947
0.012521564
0.011474066
0.010822709
0.010602488
0.010390677
0.01030264
0.010230735
0.010189355
0.010161552
0.010145118
0.010136575
0.010133961
0.010135775
0.010140867
0.010148355
0.01015764
0.010168163
0.010179453
0.010191138
0.010202889
0.010214428
0.010225513
0.010235948
0.01024557
0.010254258
0.010261928
0.010268526
0.010274025
0.010278423
0.010281742
0.010284016
0.010285294
0.010285628
0.010285081
0.010283721
0.010281618
0.010278844
0.01027547
0.010271563
0.010267191
0.010262414
0.01025729
0.01025187
0.010246201
0.010240322
0.010234265
0.01022805
0.010221692
0.010215201
0.010208589
0.010201867
0.010195045
0.010188135
0.010181139
0.01017405
0.010166841
0.010159474
0.010151891
0.010144017
0.010135762
0.010127046
0.010117814
0.010108017
0.010097528
0.010086016
0.010072928
0.010057857
0.010041305
0.010026277
0.01001788
0.010015151
0.010017296
0.010022036
0.010025138
0.010023314
0.010017515
0.010008705
0.0099949464
0.017931223
0.018570564
0.01220552
0.011314586
0.010735604
0.010546029
0.01036319
0.010288073
0.010229424
0.01019684
0.010176895
0.010166996
0.010164096
0.010166347
0.010172344
0.010181011
0.010191531
0.010203256
0.010215659
0.010228294
0.010240791
0.010252839
0.010264189
0.010274637
0.01028403
0.010292256
0.010299249
0.010304978
0.010309446
0.010312679
0.010314722
0.010315639
0.010315503
0.010314392
0.010312386
0.010309563
0.010306007
0.010301796
0.010297007
0.010291714
0.010285984
0.010279885
0.010273475
0.010266809
0.010259936
0.010252899
0.010245733
0.010238465
0.010231114
0.010223691
0.0102162
0.010208644
0.010201026
0.010193349
0.010185613
0.010177812
0.010169931
0.010161942
0.010153806
0.010145476
0.010136897
0.010127999
0.010118711
0.01010896
0.010098679
0.010087754
0.010075933
0.010062729
0.010047623
0.010031144
0.010018411
0.010010799
0.010008041
0.01000962
0.010013782
0.010016949
0.010016054
0.010011988
0.010005267
0.0099935179
0.017123966
0.017202331
0.0119278
0.011176575
0.010665331
0.010503613
0.010348665
0.01028606
0.010240237
0.010216576
0.010204448
0.010201067
0.010203714
0.010210651
0.010220554
0.010232394
0.010245371
0.010258863
0.010272359
0.010285436
0.010297762
0.010309076
0.010319188
0.010327964
0.010335321
0.010341225
0.01034568
0.010348724
0.010350419
0.010350847
0.010350096
0.010348266
0.010345459
0.010341772
0.010337302
0.010332137
0.010326362
0.010320057
0.010313296
0.010306148
0.010298677
0.010290943
0.010282999
0.010274893
0.010266669
0.010258365
0.01025001
0.010241628
0.010233232
0.010224829
0.010216419
0.010207999
0.010199564
0.010191108
0.010182621
0.010174091
0.010165493
0.010156795
0.010147955
0.010138931
0.010129682
0.010120164
0.010110321
0.010100081
0.010089349
0.010077988
0.010065783
0.010052413
0.010037597
0.010021969
0.010011015
0.010004215
0.010001557
0.010002796
0.010006553
0.010009798
0.010009804
0.010007468
0.010002945
0.0099930064
0.016398863
0.0163566
0.011693713
0.011060403
0.010612814
0.010476629
0.010348598
0.01029828
0.010264871
0.0102502
0.010245766
0.01024873
0.010256621
0.010267786
0.010280964
0.010295173
0.010309642
0.010323785
0.01033715
0.010349381
0.010360231
0.01036953
0.010377185
0.010383164
0.010387481
0.010390187
0.010391366
0.01039112
0.010389567
0.010386829
0.010383029
0.010378287
0.010372718
0.010366429
0.010359517
0.01035207
0.010344167
0.01033588
0.010327275
0.01031841
0.010309341
0.010300115
0.010290778
0.010281371
0.010271929
0.010262483
0.010253058
0.010243671
0.010234333
0.010225046
0.010215807
0.010206606
0.010197433
0.010188274
0.010179114
0.01016993
0.010160694
0.010151365
0.010141897
0.010132246
0.010122377
0.010112264
0.010101874
0.010091153
0.010080005
0.010068267
0.010055694
0.010042032
0.010027372
0.010013775
0.010004316
0.0099983547
0.0099959563
0.009997047
0.010000472
0.010003662
0.010004427
0.010003725
0.010001314
0.0099947794
0.015747645
0.015358363
0.011493908
0.010966576
0.010578986
0.010466773
0.010364638
0.010326653
0.010305253
0.010299507
0.010302446
0.010311264
0.010323674
0.010338104
0.010353364
0.010368547
0.010382967
0.010396139
0.01040773
0.010417519
0.010425389
0.010431307
0.010435306
0.010437466
0.0104379
0.010436744
0.010434143
0.010430251
0.010425217
0.010419189
0.010412301
0.010404677
0.010396431
0.010387663
0.010378462
0.010368905
0.010359058
0.010348979
0.010338721
0.01032833
0.010317846
0.010307308
0.010296749
0.010286201
0.010275691
0.010265242
0.010254875
0.010244601
0.010234427
0.010224354
0.010214373
0.010204474
0.010194639
0.010184851
0.010175088
0.010165323
0.010155522
0.01014564
0.010135624
0.010125425
0.010115005
0.010104344
0.010093426
0.010082221
0.010070655
0.010058584
0.010045767
0.01003201
0.010017752
0.010006595
0.0099984628
0.0099933371
0.0099913007
0.0099923379
0.0099954294
0.009998431
0.0099997558
0.010000502
0.0099997384
0.0099962409
0.015164881
0.014692174
0.011331074
0.01089585
0.010564916
0.010476279
0.010399006
0.010373563
0.010363636
0.010366349
0.010375812
0.010389315
0.010404754
0.010420683
0.01043606
0.010450144
0.010462433
0.010472624
0.010480578
0.010486259
0.010489717
0.010491067
0.010490464
0.010488087
0.010484128
0.010478775
0.010472213
0.010464615
0.01045614
0.010446933
0.010437123
0.010426823
0.010416129
0.010405127
0.010393887
0.01038247
0.010370926
0.010359295
0.010347615
0.010335915
0.010324225
0.01031257
0.010300972
0.010289452
0.01027803
0.010266723
0.010255543
0.010244499
0.010233595
0.010222829
0.010212191
0.010201668
0.010191242
0.010180891
0.010170588
0.010160303
0.010150001
0.010139634
0.010129147
0.010118483
0.010107596
0.010096461
0.010085064
0.010073383
0.010061372
0.010048933
0.010035916
0.010022345
0.010009752
0.010000389
0.0099935229
0.0099891819
0.0099875333
0.0099885394
0.0099912849
0.0099940186
0.0099957423
0.0099977589
0.0099984697
0.0099976324
0.014645054
0.013943388
0.011201725
0.010850853
0.010572444
0.010508528
0.010454779
0.010441741
0.010442113
0.010451861
0.010465937
0.010481847
0.010497768
0.010512518
0.010525336
0.010535772
0.010543602
0.010548778
0.010551387
0.010551587
0.010549584
0.010545613
0.010539914
0.010532727
0.010524276
0.010514769
0.010504392
0.01049331
0.010481667
0.010469589
0.010457181
0.010444533
0.01043172
0.010418802
0.010405831
0.010392847
0.010379882
0.010366959
0.010354101
0.010341322
0.010328639
0.010316064
0.010303609
0.010291286
0.010279107
0.010267081
0.010255215
0.010243514
0.010231979
0.010220607
0.010209388
0.01019831
0.010187354
0.010176495
0.010165707
0.010154956
0.010144204
0.010133406
0.010122507
0.010111448
0.010100177
0.010088655
0.010076853
0.010064741
0.010052276
0.010039424
0.010026233
0.010013164
0.010003046
0.0099952334
0.0099895208
0.0099859088
0.009984631
0.0099856122
0.0099880191
0.0099904724
0.0099924904
0.009995441
0.0099974164
0.0099988353
0.014188116
0.013371186
0.011110764
0.010836356
0.010605456
0.010567605
0.010535067
0.010533005
0.010541089
0.010554881
0.010570207
0.010585006
0.010597929
0.010608232
0.010615568
0.010619856
0.01062119
0.010619779
0.010615901
0.01060986
0.01060196
0.010592495
0.010581735
0.010569925
0.01055728
0.010543987
0.010530206
0.010516073
0.010501699
0.010487178
0.010472587
0.010457987
0.010443427
0.010428944
0.010414566
0.010400315
0.010386207
0.010372249
0.01035845
0.010344812
0.010331338
0.010318031
0.010304894
0.010291928
0.010279138
0.010266525
0.010254094
0.010241843
0.010229772
0.010217876
0.010206148
0.010194575
0.01018314
0.010171822
0.010160592
0.010149417
0.010138257
0.010127067
0.010115796
0.010104387
0.010092786
0.010080944
0.010068814
0.010056341
0.010043473
0.01003022
0.010016963
0.010005868
0.0099974679
0.0099911222
0.0099864885
0.0099835666
0.0099826216
0.0099835923
0.009985665
0.0099878412
0.0099900675
0.0099936946
0.0099968313
0.0099995093
0.01379963
0.012914455
0.011060581
0.010857509
0.010689649
0.010656528
0.010640876
0.010646063
0.010657283
0.010670425
0.01068241
0.010691851
0.010698058
0.010700828
0.010700256
0.010696608
0.010690233
0.010681514
0.010670831
0.010658543
0.010644974
0.010630404
0.010615077
0.0105992
0.010582943
0.01056645
0.010549837
0.010533197
0.010516606
0.010500121
0.010483789
0.010467642
0.010451705
0.010435995
0.01042052
0.010405285
0.010390291
0.010375535
0.01036101
0.010346712
0.010332632
0.010318764
0.010305101
0.01029164
0.010278374
0.010265302
0.010252419
0.010239722
0.010227206
0.010214867
0.010202697
0.010190686
0.010178819
0.010167079
0.010155441
0.010143872
0.010132334
0.010120782
0.010109165
0.010097429
0.010085518
0.010073379
0.010060956
0.010048191
0.010035053
0.010021717
0.010009293
0.010000087
0.0099931115
0.0099880069
0.0099843805
0.0099821603
0.0099814711
0.0099824842
0.0099842314
0.0099861664
0.0099885422
0.0099925194
0.0099964954
0.00999968
0.013488968
0.01254851
0.01105529
0.010914159
0.010793373
0.010774453
0.010768361
0.010774554
0.010782661
0.010789546
0.010793379
0.010793593
0.010790165
0.010783374
0.010773645
0.010761447
0.010747246
0.010731466
0.010714479
0.010696607
0.010678119
0.010659233
0.010640128
0.010620947
0.010601803
0.010582784
0.010563959
0.010545381
0.010527085
0.0105091
0.010491443
0.010474124
0.010457147
0.010440511
0.010424211
0.010408238
0.010392582
0.010377229
0.010362165
0.010347377
0.010332849
0.010318567
0.010304519
0.010290692
0.010277075
0.010263659
0.010250434
0.010237393
0.010224528
0.01021183
0.010199293
0.010186905
0.010174655
0.010162528
0.010150504
0.010138555
0.01012665
0.01011475
0.010102806
0.010090764
0.010078559
0.010066125
0.010053405
0.010040372
0.010027083
0.010013996
0.010003759
0.0099958543
0.0099900102
0.0099858422
0.0099830644
0.0099815355
0.0099810664
0.0099821866
0.0099836597
0.0099853714
0.0099878007
0.0099918946
0.0099963723
0.0099999079
0.013273424
0.012284058
0.011097657
0.011012805
0.010927505
0.010912646
0.010907193
0.010906981
0.010905579
0.01090124
0.010893329
0.010881989
0.010867662
0.010850883
0.010832184
0.010812051
0.0107909
0.010769078
0.010746864
0.010724483
0.010702108
0.010679873
0.010657881
0.010636206
0.010614905
0.010594014
0.010573561
0.01055356
0.010534019
0.01051494
0.010496318
0.010478146
0.010460411
0.010443102
0.0104262
0.010409689
0.010393551
0.010377764
0.010362311
0.01034717
0.010332322
0.010317747
0.010303427
0.010289345
0.010275485
0.010261831
0.010248369
0.010235086
0.01022197
0.01020901
0.010196193
0.010183508
0.010170941
0.010158475
0.010146093
0.010133772
0.010121491
0.010109223
0.010096938
0.010084592
0.010072124
0.010059445
0.010046469
0.010033192
0.010019983
0.010008612
0.0099998469
0.0099931386
0.0099881619
0.0099846426
0.0099824319
0.0099815652
0.0099815769
0.0099824653
0.0099837957
0.0099853186
0.0099876668
0.0099916201
0.0099962218
0.0099997891
0.013149333
0.012120103
0.011194634
0.011142143
0.011076502
0.011057494
0.011042866
0.011029544
0.011013961
0.010995646
0.010974743
0.010951733
0.010927158
0.010901516
0.010875233
0.010848649
0.010822031
0.010795581
0.010769451
0.01074375
0.010718556
0.010693921
0.010669877
0.010646443
0.010623626
0.010601425
0.010579834
0.010558839
0.010538427
0.01051858
0.010499279
0.010480503
0.010462229
0.010444437
0.010427103
0.010410204
0.010393716
0.010377615
0.010361878
0.010346483
0.010331405
0.010316623
0.010302116
0.010287862
0.010273842
0.010260036
0.010246426
0.010232995
0.010219726
0.010206604
0.010193611
0.010180732
0.010167945
0.010155228
0.010142558
0.01012991
0.010117262
0.010104596
0.010091901
0.010079165
0.01006637
0.010053477
0.010040427
0.010027225
0.010014379
0.010004789
0.0099972555
0.0099915791
0.0099874184
0.0099845391
0.0099827875
0.0099820842
0.009982324
0.0099832219
0.009984427
0.009985882
0.0099881694
0.0099919331
0.009996487
0.0099998277
0.013088525
0.012051042
0.011355384
0.011285574
0.011223715
0.011190117
0.011159445
0.011129501
0.011098603
0.011066778
0.0110343
0.011001543
0.010968838
0.010936452
0.010904585
0.010873377
0.010842925
0.010813286
0.010784493
0.01075656
0.010729484
0.010703255
0.010677854
0.010653256
0.010629436
0.010606365
0.010584013
0.010562351
0.010541349
0.010520976
0.010501203
0.010482003
0.010463346
0.010445206
0.010427554
0.010410365
0.010393613
0.010377272
0.010361316
0.010345722
0.010330466
0.010315523
0.010300871
0.010286489
0.010272355
0.010258447
0.010244745
0.010231231
0.010217884
0.010204686
0.010191616
0.010178651
0.010165767
0.010152932
0.010140113
0.010127275
0.010114384
0.010101408
0.010088325
0.010075119
0.010061791
0.01004836
0.010034908
0.010021787
0.010010625
0.010002101
0.0099955921
0.0099907446
0.0099872618
0.0099849236
0.009983592
0.0099831684
0.0099835099
0.0099843763
0.0099855233
0.009986963
0.0099891312
0.009992431
0.0099963885
0.0099994254
0.013102462
0.012012604
0.011510841
0.011419116
0.011345253
0.011292916
0.011244888
0.011199719
0.011156111
0.011113885
0.011072988
0.011033443
0.010995269
0.010958467
0.010923021
0.010888899
0.01085606
0.010824456
0.010794034
0.010764741
0.010736523
0.010709327
0.0106831
0.010657792
0.010633356
0.010609745
0.010586917
0.01056483
0.010543445
0.010522726
0.010502637
0.010483144
0.010464217
0.010445824
0.010427936
0.010410525
0.010393565
0.010377028
0.01036089
0.010345126
0.010329711
0.010314623
0.010299839
0.010285336
0.010271094
0.010257091
0.010243308
0.010229724
0.010216322
0.01020308
0.010189979
0.010176996
0.010164104
0.01015127
0.010138457
0.010125624
0.010112726
0.010099719
0.01008656
0.010073212
0.010059652
0.010045889
0.01003205
0.010018733
0.010008545
0.010000682
0.0099948164
0.0099905464
0.0099875806
0.0099856857
0.0099846994
0.0099844937
0.009984923
0.0099857994
0.0099869598
0.0099884061
0.0099903624
0.0099930409
0.0099962076
0.0099989978
0.013198821
0.012039177
0.011627617
0.011515997
0.011426419
0.011357966
0.011296891
0.011241296
0.011189533
0.011140945
0.011095079
0.011051638
0.01101039
0.010971145
0.010933743
0.010898042
0.010863919
0.010831261
0.010799967
0.010769947
0.010741116
0.010713398
0.010686723
0.010661027
0.010636249
0.010612335
0.010589234
0.010566898
0.010545283
0.01052435
0.010504059
0.010484374
0.010465262
0.010446691
0.01042863
0.010411051
0.010393925
0.010377226
0.010360929
0.010345009
0.010329442
0.010314205
0.010299275
0.010284632
0.010270253
0.010256118
0.010242208
0.010228505
0.010214989
0.010201644
0.010188452
0.010175391
0.01016244
0.01014957
0.010136751
0.010123944
0.010111113
0.010098219
0.010085229
0.010072111
0.010058835
0.01004539
0.010031864
0.0100188
0.010008669
0.010000938
0.0099952081
0.0099910942
0.0099883007
0.0099865866
0.0099857652
0.0099856764
0.009986159
0.0099870524
0.0099882382
0.0099896944
0.009991489
0.0099936844
0.0099962041
0.0099987815
0.013325829
0.012096463
0.011688568
0.011564874
0.0114649
0.011388046
0.011320823
0.011260692
0.011205572
0.011154471
0.011106704
0.011061807
0.011019429
0.010979297
0.010941188
0.010904917
0.010870325
0.010837276
0.01080565
0.010775342
0.010746257
0.010718311
0.010691427
0.010665536
0.010640575
0.010616485
0.010593213
0.010570709
0.01054893
0.010527831
0.010507375
0.010487524
0.010468244
0.010449503
0.01043127
0.010413516
0.010396213
0.010379334
0.010362854
0.010346748
0.010330992
0.010315562
0.010300436
0.010285591
0.010271005
0.010256659
0.01024253
0.0102286
0.010214849
0.010201259
0.010187811
0.010174486
0.010161259
0.010148106
0.010135002
0.010121918
0.010108832
0.010095721
0.010082559
0.010069313
0.010055952
0.010042474
0.010029034
0.010016434
0.010007148
0.009999997
0.009994716
0.0099909375
0.0099884012
0.0099868917
0.0099862363
0.0099862775
0.0099868447
0.0099877955
0.0099890347
0.009990517
0.0099922088
0.0099940774
0.0099961601
0.0099986027
64.963464
358.61267
120.87697
14.722008
0.40832061
0.02165663
0.020404107
0.020119339
0.019846057
0.018764758
0.017376342
0.016163357
0.015248714
0.014664558
0.01425006
0.013852653
0.013462111
0.013118543
0.012833943
0.012597266
0.012395955
0.01222214
0.012070829
0.011938208
0.01182116
0.011717146
0.011624143
0.01154053
0.011465031
0.011396637
0.011334514
0.011277937
0.011226274
0.011178988
0.01113565
0.011095917
0.011059494
0.01102612
0.010995555
0.010967581
0.010942007
0.010918649
0.010897327
0.010877872
0.010860122
0.010843918
0.010829088
0.010815459
0.010802858
0.010791114
0.010780046
0.010769469
0.0107592