/*--------------------------------*- C++ -*----------------------------------*\
  =========                 |
  \\      /  F ield         | OpenFOAM: The Open Source CFD Toolbox
   \\    /   O peration     | Website:  https://openfoam.org
    \\  /    A nd           | Version:  12
     \\/     M anipulation  |
\*---------------------------------------------------------------------------*/
FoamFile
{
    format      ascii;
    class       volScalarField;
    location    "0.058";
    object      p;
}
// * * * * * * * * * * * * * * * * * * * * * * * * * * * * * * * * * * * * * //

dimensions      [1 -1 -2 0 0 0 0];

internalField   nonuniform List<scalar> 
16000
(
89398.353
89526.209
89537.824
89674.493
89700.743
89830.149
89881.042
89999.681
90074.211
90187.049
90280.186
90392.808
90500.333
90617.249
90736.045
90860.402
90988.894
91122.144
91260.03
91402.647
91550.008
91702.124
91858.98
92020.541
92186.743
92357.495
92532.677
92712.137
92895.69
93083.116
93274.163
93468.541
93665.93
93865.973
94068.285
94272.448
94478.021
94684.539
94891.517
95098.458
95304.854
95510.198
95713.983
95915.712
96114.904
96311.099
96503.862
96692.784
96877.493
97057.649
97232.947
97403.125
97567.96
97727.269
97880.902
98028.749
98170.73
98306.796
98436.929
98561.142
98679.469
98791.96
98898.679
98999.688
99095.04
99184.755
99268.824
99347.206
99419.854
99486.752
99547.974
99603.679
99654.069
99699.671
99741.354
99778.766
99811.173
99850.412
99882.106
99876.834
89038.961
89183.954
89193.349
89342.046
89369.743
89510.303
89563.377
89693.489
89771.81
89894.885
89994.479
90116.143
90232.096
90357.988
90486.179
90620.157
90758.696
90902.294
91050.873
91204.491
91363.148
91526.826
91695.481
91869.042
92047.404
92230.434
92417.962
92609.785
92805.662
93005.316
93208.431
93414.656
93623.604
93834.853
94047.951
94262.417
94477.746
94693.415
94908.888
95123.622
95337.071
95548.7
95757.983
95964.416
96167.519
96366.846
96561.983
96752.553
96938.223
97118.699
97293.732
97463.116
97626.69
97784.331
97935.954
98081.506
98220.967
98354.343
98481.67
98603.008
98718.436
98828.041
98931.918
99030.157
99122.826
99209.964
99291.569
99367.608
99438.046
99502.889
99562.233
99616.228
99665.113
99709.53
99749.972
99785.439
99818.154
99855.221
99880.567
99888.319
88710.248
88871.014
88880.136
89042.51
89070.313
89224.918
89279.744
89422.448
89505.739
89639.551
89747.07
89878.516
90004.246
90140.209
90279.065
90423.934
90573.803
90729.041
90889.585
91055.453
91226.613
91403.013
91584.569
91771.166
91962.654
92158.848
92359.524
92564.416
92773.222
92985.594
93201.146
93419.453
93640.05
93862.442
94086.101
94310.476
94534.994
94759.075
94982.129
95203.572
95422.829
95639.344
95852.586
96062.056
96267.294
96467.881
96663.444
96853.658
97038.246
97216.979
97389.678
97556.213
97716.494
97870.474
98018.137
98159.499
98294.605
98423.524
98546.347
98663.185
98774.161
98879.402
98979.035
99073.176
99161.916
99245.307
99323.357
99396.042
99463.339
99525.271
99581.937
99633.47
99680.169
99722.716
99761.187
99794.711
99826.914
99860.997
99881.621
99898.147
88417.961
88589.798
88599.622
88777.712
88804.987
88976.137
89033.251
89190.561
89279.786
89425.916
89542.898
89685.511
89822.678
89970.191
90121.24
90278.47
90441.087
90609.335
90783.156
90962.532
91147.402
91337.679
91533.236
91733.913
91939.505
92149.767
92364.407
92583.086
92805.42
93030.979
93259.289
93489.835
93722.064
93955.391
94189.207
94422.883
94655.779
94887.254
95116.674
95343.421
95566.902
95786.557
96001.867
96212.361
96417.615
96617.265
96811.001
96998.568
97179.768
97354.461
97522.553
97684.004
97838.81
97987.008
98128.662
98263.863
98392.724
98515.38
98631.98
98742.681
98847.652
98947.055
99041.045
99129.763
99213.319
99291.777
99365.156
99433.441
99496.621
99554.735
99607.873
99656.163
99699.972
99739.937
99775.8
99807.136
99838.274
99868.878
99885.147
99907.868
88165.617
88352.575
88359.161
88556.241
88582.433
88772.297
88831.565
89005.365
89101.775
89261.657
89389.904
89544.851
89694.935
89855.194
90019.632
90190.384
90366.876
90549.262
90737.49
90931.51
91131.227
91336.508
91547.172
91762.993
91983.692
92208.942
92438.358
92671.506
92907.898
93146.999
93388.227
93630.961
93874.545
94118.297
94361.518
94603.502
94843.544
95080.954
95315.064
95545.241
95770.895
95991.487
96206.535
96415.621
96618.391
96814.558
97003.902
97186.268
97361.558
97529.737
97690.817
97844.858
97991.954
98132.23
98265.837
98392.942
98513.73
98628.397
98737.146
98840.179
98937.7
99029.904
99116.969
99199.054
99276.284
99348.736
99416.435
99479.378
99537.565
99591.045
99639.891
99684.235
99724.5
99761.188
99793.831
99822.62
99852.239
99879.082
99891.082
99919.05
87957.238
88162.094
88166.741
88385.194
88410.299
88620.959
88682.715
88874.737
88979.461
89153.601
89294.189
89461.877
89625.757
89799.587
89978.379
90163.758
90355.33
90553.161
90757.171
90967.254
91183.251
91404.952
91632.092
91864.346
92101.334
92342.61
92587.675
92835.967
93086.872
93339.726
93593.821
93848.416
94102.741
94356.015
94607.451
94856.273
95101.724
95343.084
95579.678
95810.883
96036.145
96254.979
96466.974
96671.801
96869.207
97059.018
97241.131
97415.514
97582.195
97741.26
97892.84
98037.104
98174.249
98304.493
98428.072
98545.228
98656.213
98761.277
98860.67
98954.632
99043.394
99127.171
99206.159
99280.528
99350.411
99415.89
99477
99533.743
99586.136
99634.226
99678.069
99717.814
99753.914
99786.686
99815.539
99841.425
99868.904
99891.421
99899.653
99932.826
87792.723
88018.826
88020.574
88264.121
88288.039
88523.469
88588.11
88799.404
88912.614
89100.617
89254.76
89436.032
89615.235
89804.299
89999.258
90201.22
90409.877
90625.193
90847.016
91075.151
91309.343
91549.275
91794.563
92044.757
92299.338
92557.719
92819.25
93083.22
93348.863
93615.368
93881.889
94147.553
94411.481
94672.795
94930.635
95184.175
95432.636
95675.3
95911.52
96140.727
96362.444
96576.281
96781.946
96979.237
97168.039
97348.325
97520.139
97683.595
97838.865
97986.167
98125.759
98257.921
98382.954
98501.165
98612.868
98718.375
98817.992
98912.016
99000.73
99084.4
99163.272
99237.574
99307.507
99373.243
99434.914
99492.604
99546.348
99596.158
99642.06
99684.096
99722.303
99756.854
99788.212
99816.488
99841.073
99863.777
99888.5
99905.978
99911.171
99949.563
87665.559
87916.587
87913.925
88187.787
88208.329
88470.785
88538.322
88769.173
88894.479
89098.897
89270.295
89467.99
89665.57
89872.83
90086.796
90308.143
90536.6
90772.022
91014.166
91262.727
91517.324
91777.502
92042.728
92312.388
92585.796
92862.188
93140.736
93420.552
93700.699
93980.205
94258.08
94533.327
94804.965
95072.044
95333.661
95588.979
95837.239
96077.774
96310.018
96533.512
96747.908
96952.967
97148.561
97334.659
97511.327
97678.71
97837.025
97986.551
98127.61
98260.559
98385.779
98503.658
98614.591
98718.964
98817.157
98909.537
98996.451
99078.227
99155.167
99227.546
99295.618
99359.607
99419.71
99476.09
99528.869
99578.121
99623.88
99666.163
99705
99740.422
99772.454
99801.302
99827.403
99850.647
99870.594
99889.895
99911.227
99922.881
99925.632
99969.519
87573.575
87853.311
87846.3
88158.039
88172.443
88463.85
88537.609
88790.966
88933.235
89156.449
89348.802
89565.887
89784.966
90013.59
90249.631
90493.406
90744.612
91002.977
91268.127
91539.607
91816.871
92099.283
92386.116
92676.553
92969.696
93264.571
93560.14
93855.315
94148.977
94439.991
94727.232
95009.6
95286.046
95555.588
95817.333
96070.491
96314.39
96548.481
96772.349
96985.711
97188.414
97380.427
97561.835
97732.821
97893.659
98044.694
98186.328
98319.006
98443.202
98559.403
98668.098
98769.773
98864.895
98953.915
99037.259
99115.33
99188.497
99257.1
99321.444
99381.802
99438.414
99491.495
99541.222
99587.739
99631.147
99671.505
99708.838
99743.163
99774.505
99802.878
99828.323
99851.081
99871.494
99889.239
99904.266
99919.964
99937.261
99942.485
99943.235
99992.678
87520.938
87834.249
87824.288
88172.438
88186.908
88511.126
88596.632
88875.679
89038.393
89282.611
89499.701
89739.46
89983.361
90236.797
90498.253
90767.741
91044.85
91329.142
91620.06
91916.946
92219.033
92525.449
92835.216
93147.263
93460.436
93773.512
94085.221
94394.266
94699.348
94999.189
95292.562
95578.31
95855.376
96122.819
96379.835
96625.767
96860.118
97082.547
97292.874
97491.066
97677.232
97851.604
98014.519
98166.405
98307.761
98439.136
98561.114
98674.297
98779.291
98876.692
98967.079
99051.003
99128.986
99201.515
99269.04
99331.976
99390.694
99445.526
99496.763
99544.658
99589.431
99631.269
99670.32
99706.698
99740.476
99771.688
99800.346
99826.462
99850.043
99871.087
99889.673
99906.085
99920.482
99932.401
99942.334
99954.192
99966.665
99964.988
99964.452
100019.39
87514.99
87868.272
87854.211
88243.688
88262.268
88623.526
88723.929
89030.541
89219.231
89487.123
89733.111
89999.461
90271.922
90554.011
90844.576
91143.339
91449.714
91763.029
92082.475
92407.118
92735.893
93067.617
93401
93734.66
94067.149
94396.974
94722.627
95042.615
95355.493
95659.891
95954.548
96238.339
96510.296
96769.631
97015.743
97248.226
97466.866
97671.632
97862.665
98040.255
98204.826
98356.906
98497.111
98626.118
98744.642
98853.422
98953.2
99044.705
99128.643
99205.687
99276.47
99341.58
99401.56
99456.906
99508.066
99555.441
99599.383
99640.198
99678.147
99713.45
99746.293
99776.823
99805.152
99831.352
99855.463
99877.489
99897.426
99915.27
99931.005
99944.616
99956.235
99966.17
99974.368
99980.277
99985.144
99992.902
99999.672
99990.763
99989.855
100050.19
87563.377
87964.135
87946.328
88384.562
88407.754
88809.08
88929.271
89265.239
89485.869
89780.863
90060.237
90357.792
90663.123
90978.217
91302.037
91633.987
91973.198
92318.671
92669.243
93023.6
93380.29
93737.743
94094.295
94448.219
94797.751
95141.137
95476.66
95802.687
96117.706
96420.362
96709.486
96984.126
97243.558
97487.296
97715.092
97926.922
98122.972
98303.615
98469.38
98620.928
98759.019
98884.486
98998.209
99101.087
99194.022
99277.901
99353.578
99421.866
99483.527
99539.268
99589.736
99635.521
99677.155
99715.112
99749.811
99781.617
99810.845
99837.756
99862.568
99885.46
99906.568
99925.993
99943.8
99960.018
99974.644
99987.655
99999.026
100008.73
100016.72
100022.98
100027.72
100031.19
100033.12
100033.07
100033.06
100036.5
100036.74
100020.52
100020.33
100085.9
87666.37
88123.478
88102.328
88595.794
88627.787
89073.199
89221.042
89589.093
89848.951
90175.937
90493.928
90828.248
91171.583
91524.703
91886.441
92255.777
92631.42
93011.906
93395.592
93780.68
94165.248
94547.278
94924.7
95295.429
95657.417
96008.7
96347.45
96672.024
96981.004
97273.233
97547.841
97804.25
98042.178
98261.62
98462.832
98646.296
98812.685
98962.828
99097.673
99218.246
99325.626
99420.911
99505.193
99579.543
99644.987
99702.498
99752.986
99797.291
99836.181
99870.352
99900.426
99926.957
99950.435
99971.285
99989.874
100006.51
100021.46
100034.93
100047.07
100058.02
100067.86
100076.63
100084.35
100091
100096.54
100100.9
100104.05
100105.93
100106.46
100105.66
100103.77
100100.94
100096.7
100090.92
100086.38
100085.4
100078.5
100055.36
100057.18
100127.56
87829.996
88354.002
88330.246
88886.588
88933.61
89427.038
89611.866
90015.349
90322.318
90687.726
91050.49
91428.16
91815.527
92212.288
92616.861
93027.633
93442.723
93860.062
94277.415
94692.412
95102.601
95505.489
95898.607
96279.574
96646.16
96996.358
97328.436
97640.988
97932.963
98203.682
98452.835
98680.46
98886.915
99072.836
99239.09
99386.729
99516.936
99630.988
99730.21
99815.938
99889.496
99952.168
100005.18
100049.69
100086.78
100117.43
100142.54
100162.92
100179.3
100192.33
100202.55
100210.46
100216.47
100220.96
100224.2
100226.44
100227.88
100228.67
100228.89
100228.63
100227.9
100226.69
100224.97
100222.66
100219.68
100215.96
100211.41
100205.95
100199.49
100192.08
100183.98
100175.15
100164.98
100153.91
100145.35
100139.89
100125.59
100096.6
100102
100176.37
88060.721
88664.71
88640.337
89267.983
89337.41
89882.912
90116.209
90560.42
90923.649
91336.125
91751.257
92179.899
92617.908
93063.919
93515.681
93970.827
94426.737
94880.618
95329.54
95770.496
96200.482
96616.578
97016.039
97396.389
97755.497
98091.646
98403.572
98690.485
98952.063
99188.422
99400.078
99587.883
99752.969
99896.679
100020.51
100126.05
100214.93
100288.78
100349.2
100397.73
100435.83
100464.86
100486.09
100500.65
100509.61
100513.89
100514.33
100511.66
100506.5
100499.43
100490.9
100481.31
100471
100460.24
100449.24
100438.18
100427.16
100416.28
100405.57
100395.03
100384.63
100374.29
100363.93
100353.44
100342.7
100331.6
100320.04
100307.89
100295.06
100281.67
100267.9
100253.5
100237.88
100222.18
100210.15
100200.13
100178.48
100145.57
100156.48
100233.36
88364.78
89064.312
89042.186
89750.9
89854.384
90457.962
90754.626
91248.248
91678.375
92148.344
92624.234
93111.477
93606.14
94105.767
94607.227
95107.221
95602.221
96088.563
96562.544
97020.54
97459.128
97875.219
98266.17
98629.874
98964.813
99270.086
99545.388
99790.975
100007.6
100196.41
100358.92
100496.85
100612.11
100706.67
100782.57
100841.78
100886.23
100917.77
100938.12
100948.88
100951.51
100947.34
100937.57
100923.27
100905.36
100884.68
100861.94
100837.75
100812.64
100787.03
100761.3
100735.73
100710.57
100685.99
100662.13
100639.07
100616.86
100595.52
100575.01
100555.29
100536.25
100517.77
100499.72
100481.95
100464.31
100446.68
100428.91
100410.85
100392.44
100373.81
100355.04
100335.68
100315.3
100295.86
100280.92
100266.26
100237.41
100203.25
100222
100298.74
88750.013
89563.717
89549.66
90354.826
90509.516
91181.269
91558.521
92112.475
92620.179
93158.132
93702.557
94254.722
94810.183
95365.181
95915.385
96456.279
96983.228
97491.658
97977.239
98436.068
98864.833
99260.933
99622.554
99948.69
100239.11
100494.31
100715.39
100903.94
101061.97
101191.72
101295.63
101376.18
101435.88
101477.15
101502.31
101513.56
101512.92
101502.25
101483.24
101457.41
101426.11
101390.54
101351.74
101310.63
101267.98
101224.47
101180.67
101137.05
101093.98
101051.79
101010.73
100970.97
100932.66
100895.88
100860.7
100827.11
100795.1
100764.61
100735.56
100707.83
100681.27
100655.72
100631
100606.94
100583.37
100560.13
100537.04
100513.96
100490.86
100467.85
100444.87
100421.3
100397.12
100374.95
100357.68
100338.53
100303.35
100269.92
100298.49
100372.4
89236.98
90191.64
90196.951
91117.976
91341.499
92091.728
92567.061
93192.69
93787.635
94403.301
95022.788
95643.891
96260.779
96867.892
97459.292
98029.105
98571.751
99082.226
99556.332
99990.844
100383.6
100733.53
101040.58
101305.61
101530.26
101716.74
101867.75
101986.23
102075.3
102138.1
102177.72
102197.12
102199.09
102186.22
102160.89
102125.25
102081.22
102030.51
101974.64
101914.93
101852.52
101788.41
101723.44
101658.33
101593.68
101529.98
101467.64
101406.99
101348.26
101291.65
101237.3
101185.28
101135.65
101088.4
101043.51
101000.92
100960.55
100922.29
100885.98
100851.46
100818.54
100787.01
100756.68
100727.35
100698.84
100670.95
100643.51
100616.35
100589.51
100563.04
100536.69
100509.85
100483.03
100459.27
100440.21
100417.08
100377.73
100346.41
100384.51
100454.89
89857.967
90991.248
91025.935
92081.52
92393.042
93230.033
93822.552
94533.664
95225.532
95927.511
96625.645
97314.157
97984.994
98630.513
99243.376
99817.063
100346.19
100826.73
101256.14
101633.36
101958.66
102233.51
102460.33
102642.25
102782.89
102886.15
102956.02
102996.48
103011.33
103004.2
102978.42
102937.04
102882.82
102818.21
102745.4
102666.29
102582.55
102495.61
102406.72
102316.92
102227.12
102138.04
102050.33
101964.48
101880.89
101799.9
101721.75
101646.61
101574.61
101505.82
101440.27
101377.95
101318.82
101262.81
101209.83
101159.76
101112.46
101067.75
101025.45
100985.34
100947.2
100910.79
100875.9
100842.32
100809.84
100778.27
100747.41
100717.14
100687.5
100658.48
100629.66
100600.6
100572.4
100548.22
100528.02
100501.59
100460.24
100433.42
100479.98
100546.77
90641.334
91989.704
92068.751
93280.072
93713.351
94649.12
95380.611
96193.988
96990.261
97780.717
98550.819
99291.178
99991.773
100643.99
101240.82
101777.24
102250.27
102659.01
103004.34
103288.67
103515.61
103689.55
103815.44
103898.42
103943.65
103956.15
103940.62
103901.44
103842.6
103767.65
103679.77
103581.75
103476.01
103364.66
103249.49
103132.04
103013.61
102895.31
102778.05
102662.58
102549.54
102439.41
102332.59
102229.39
102130.03
102034.68
101943.43
101856.34
101773.4
101694.6
101619.87
101549.12
101482.25
101419.12
101359.58
101303.46
101250.57
101200.69
101153.59
101109.02
101066.73
101026.47
100988.02
100951.15
100915.64
100881.29
100847.91
100815.43
100783.88
100753.15
100722.74
100692.52
100664.11
100640.38
100619.48
100590.56
100549.33
100529.88
100584.18
100644.97
91618.556
93235.731
93396.468
94780.109
95381.694
96432.346
97319.986
98246.151
99141.022
100002.56
100814.66
101566.17
102247.73
102853.03
103378.69
103824.21
104191.53
104484.54
104708.6
104869.96
104975.35
105031.62
105045.42
105023.08
104970.4
104892.67
104794.59
104680.29
104553.39
104416.99
104273.76
104125.97
103975.54
103824.07
103672.91
103523.16
103375.73
103231.37
103090.68
102954.11
102822.05
102694.75
102572.41
102455.16
102343.05
102236.13
102134.34
102037.65
101945.96
101859.15
101777.1
101699.66
101626.65
101557.89
101493.19
101432.32
101375.06
101321.15
101270.33
101222.32
101176.87
101133.7
101092.59
101053.3
101015.61
100979.3
100944.21
100910.32
100877.62
100845.89
100814.7
100784.26
100756.57
100733.75
100712.37
100682.01
100642.97
100631.92
100691.13
100742.56
92873.925
94830.702
95118.511
96695.098
97512.956
98687.192
99725.825
100749.18
101705.19
102585.07
103374.9
104066.84
104657.18
105146.27
105537.83
105838.1
106055.05
106197.58
106274.96
106296.28
106270.16
106204.56
106106.62
105982.65
105838.18
105677.93
105505.95
105325.67
105139.96
104951.22
104761.43
104572.22
104384.94
104200.67
104020.28
103844.46
103673.74
103508.56
103349.21
103195.91
103048.8
102907.95
102773.39
102645.1
102523
102407
102296.99
102192.8
102094.29
102001.26
101913.54
101830.91
101753.17
101680.09
101611.44
101546.96
101486.39
101429.44
101375.84
101325.29
101277.51
101232.26
101189.27
101148.31
101109.15
101071.58
101035.47
101000.82
100967.57
100935.44
100904.11
100874.2
100847.75
100825.93
100804.17
100773.49
100738.22
100734.46
100793.69
100833.07
94540.59
96916.867
97387.434
99155.046
100224.53
101507.37
102643.81
103696.99
104628.76
105432.76
106104.7
106646.71
107065.41
107370.77
107574.72
107690.05
107729.55
107705.39
107628.74
107509.56
107356.6
107177.35
106978.19
106764.47
106540.66
106310.42
106076.78
105842.21
105608.69
105377.82
105150.89
104928.9
104712.64
104502.72
104299.57
104103.54
103914.84
103733.61
103559.92
103393.78
103235.14
103083.93
102940.04
102803.31
102673.59
102550.69
102434.4
102324.52
102220.83
102123.09
102031.08
101944.55
101863.27
101786.96
101715.38
101648.23
101585.22
101526.06
101470.45
101418.1
101368.71
101322.03
101277.8
101235.78
101195.72
101157.45
101120.86
101085.94
101052.57
101020.46
100989.5
100960.58
100935.54
100914.53
100892.46
100862.39
100831.65
100832.88
100887.03
100915.46
96810.911
99656.729
100372.89
102281.78
103564.55
104894.99
106011.28
106965.3
107743.81
108352.58
108802.71
109110.12
109292.9
109369.64
109358.2
109274.93
109134.3
108948.83
108729.07
108483.85
108220.42
107944.7
107661.48
107374.59
107087.12
106801.48
106519.59
106242.94
105972.67
105709.66
105454.55
105207.81
104969.77
104740.61
104520.47
104309.36
104107.26
103914.1
103729.75
103554.07
103386.88
103227.98
103077.15
102934.16
102798.77
102670.74
102549.8
102435.69
102328.16
102226.94
102131.77
102042.38
101958.5
101879.85
101806.14
101737.07
101672.33
101611.62
101554.61
101501.02
101450.57
101402.98
101357.99
101315.35
101274.84
101236.27
101199.57
101164.69
101131.48
101099.7
101069.44
101041.74
101017.99
100997.46
100975.12
100946.28
100920.05
100924.3
100971.05
100989.46
99940.498
103165.93
104191.25
106167.5
107491.47
108673.12
109601.42
110301.18
110790.3
111095.66
111245.46
111267.49
111187.09
111026.47
110804.43
110536.57
110235.54
109911.51
109572.55
109225
108873.82
108522.87
108175.09
107832.74
107497.53
107170.74
106853.27
106545.79
106248.74
105962.39
105686.9
105422.3
105168.56
104925.58
104693.21
104471.26
104259.54
104057.79
103865.77
103683.21
103509.84
103345.37
103189.52
103041.99
102902.49
102770.72
102646.39
102529.2
102418.88
102315.13
102217.67
102126.21
102040.46
101960.13
101884.91
101814.49
101748.53
101686.74
101628.79
101574.39
101523.26
101475.12
101429.7
101386.75
101346.05
101307.43
101270.83
101236.17
101203.27
101172
101142.64
101116.15
101093.41
101073.07
101050.73
101023.94
101002.12
101006.99
101043.41
101052.53
104187.06
107628.38
108858.46
110568.66
111708.09
112549.32
113091.38
113389.42
113488.49
113432.11
113257.08
112993.96
112667.22
112296.12
111895.57
111476.95
111048.91
110617.95
110188.92
109765.4
109350.01
108944.64
108550.63
108168.87
107799.96
107444.23
107101.86
106772.85
106457.13
106154.53
105864.84
105587.79
105323.09
105070.43
104829.49
104599.92
104381.39
104173.55
103976.06
103788.58
103610.76
103442.26
103282.75
103131.89
102989.35
102854.82
102727.97
102608.49
102496.08
102390.43
102291.25
102198.25
102111.11
102029.52
101953.17
101881.74
101814.89
101752.31
101693.69
101638.73
101587.13
101538.64
101492.96
101449.84
101409.07
101370.5
101334.05
101299.61
101267.06
101236.36
101207.88
101182.42
101160.32
101139.98
101118.06
101093.81
101075.66
101079.11
101104.44
101105.5
109479.63
112882.86
114015.69
115156.39
115776.7
116066.15
116089.91
115922.03
115617.12
115217.99
114756.48
114256.04
113733.72
113201.76
112668.88
112141.26
111623.2
111117.64
110626.54
110151.17
109692.28
109250.24
108825.16
108416.98
108025.48
107650.36
107291.24
106947.71
106619.34
106305.67
106006.23
105720.58
105448.24
105188.77
104941.73
104706.67
104483.19
104270.86
104069.29
103878.08
103696.85
103525.22
103362.83
103209.32
103064.34
102927.56
102798.63
102677.24
102563.07
102455.82
102355.17
102260.83
102172.47
102089.79
102012.45
101940.12
101872.48
101809.2
101749.97
101694.49
101642.47
101593.64
101547.7
101504.4
101463.54
101424.97
101388.58
101354.29
101322
101291.8
101264.05
101239.3
101217.48
101197.16
101176.12
101154.65
101139.21
101139.26
101152.19
101147.87
115768.91
118307.03
118926.47
119212.82
119120.31
118791.03
118305.12
117723.72
117087.8
116425.13
115754.14
115086.99
114431.54
113792.79
113173.81
112576.35
112001.29
111448.94
110919.19
110411.69
109925.92
109461.27
109017.05
108592.56
108187.09
107799.91
107430.33
107077.68
106741.3
106420.55
106114.82
105823.55
105546.16
105282.12
105030.93
104792.1
104565.14
104349.63
104145.1
103951.16
103767.39
103593.4
103428.8
103273.23
103126.32
102987.73
102857.13
102734.17
102618.55
102509.95
102408.06
102312.58
102223.17
102139.53
102061.32
101988.2
101919.85
101855.95
101796.18
101740.23
101687.83
101638.67
101592.49
101549.01
101508.04
101469.42
101433.03
101398.81
101366.74
101336.95
101309.75
101285.4
101263.7
101243.6
101223.87
101204.93
101190.38
101184.86
101186.7
101180.28
122463.36
122910.14
122692.52
122141.04
121405.7
120577.18
119712.05
118842.38
117986.84
117155.77
116354.67
115586.1
114850.91
114148.92
113479.36
112841.13
112232.95
111653.49
111101.4
110575.36
110074.1
109596.41
109141.16
108707.27
108293.72
107899.57
107523.94
107165.98
106824.92
106500.01
106190.58
105895.96
105615.55
105348.76
105095.04
104853.88
104624.77
104407.24
104200.84
104005.13
103819.69
103644.12
103478.04
103321.06
103172.81
103032.96
102901.15
102777.06
102660.37
102550.76
102447.93
102351.57
102261.35
102176.96
102098.06
102024.32
101955.41
101891.01
101830.81
101774.5
101721.79
101672.39
101626
101582.38
101541.3
101502.6
101466.17
101431.96
101400.01
101370.47
101343.55
101319.34
101297.58
101277.61
101258.9
101241.69
101227.25
101216.93
101210.08
101202.37
126372.9
125743.57
124822.31
123763.23
122671.63
121591.91
120546.92
119546.07
118592.85
117687.52
116828.8
116014.67
115242.74
114510.6
113815.86
113156.23
112529.58
111933.93
111367.46
110828.46
110315.4
109826.85
109361.51
108918.16
108495.69
108093.08
107709.37
107343.68
106995.19
106663.13
106346.79
106045.49
105758.61
105485.56
105225.77
104978.71
104743.89
104520.82
104309.06
104108.16
103917.7
103737.28
103566.51
103405.01
103252.43
103108.4
102972.58
102844.66
102724.31
102611.22
102505.08
102405.58
102312.41
102225.23
102143.73
102067.56
101996.38
101929.88
101867.73
101809.62
101755.25
101704.3
101656.49
101611.54
101569.22
101529.36
101491.84
101456.63
101423.79
101393.48
101365.89
101341.01
101318.59
101298.24
101279.74
101263.07
101248.05
101234.25
101222.18
101214.39
103709.38
103683.21
103733.94
103784.61
103822.13
103832.95
103816.09
103787
103751.84
103707.3
103648.8
103576.81
103495.4
103409.45
103319.67
103226.13
103129.2
103029.38
102927.12
102822.82
102716.88
102609.64
102501.46
102392.63
102283.45
102174.17
102065.06
101956.33
101848.21
101740.89
101634.57
101529.43
101425.64
101323.39
101222.83
101124.13
101027.45
100932.95
100840.78
100751.1
100664.06
100579.83
100498.54
100420.37
100345.45
100273.95
100205.99
100141.73
100081.3
100024.82
99972.416
99924.185
99880.222
99840.601
99805.373
99774.57
99748.196
99726.228
99708.617
99695.278
99686.097
99680.924
99679.575
99681.849
99687.447
99696.179
99707.426
99721.341
99736.252
99753.925
99769.734
99789.837
99804.104
99824.895
99840.414
99853.87
99886.052
99862.307
99945.703
99857.682
103095.39
103088.65
103100.97
103115.33
103112.52
103103.45
103090.81
103071.54
103040.31
103003.3
102959.46
102910.49
102855.74
102796.24
102732.11
102664.01
102592.17
102516.93
102438.62
102357.55
102274.02
102188.32
102100.74
102011.56
101921.05
101829.49
101737.14
101644.24
101551.05
101457.82
101364.77
101272.14
101180.16
101089.04
100999.01
100910.27
100823.02
100737.48
100653.85
100572.31
100493.07
100416.32
100342.23
100271.01
100202.82
100137.84
100076.24
100018.18
99963.804
99913.255
99866.664
99824.144
99785.794
99751.687
99721.877
99696.391
99675.229
99658.36
99645.722
99637.219
99632.724
99632.077
99635.079
99641.516
99651.088
99663.573
99678.387
99695.575
99713.633
99734.016
99752.599
99774.904
99791.589
99814.195
99831.188
99846.929
99878.453
99859.662
99940.028
99855.379
102673.68
102656.6
102624.8
102591.46
102559.47
102529.7
102495.32
102461.79
102424.73
102387.26
102345.95
102303.31
102257.27
102209.15
102158.1
102104.58
102048.43
101989.8
101928.73
101865.34
101799.73
101732.04
101662.43
101591.05
101518.07
101443.67
101368.05
101291.42
101213.96
101135.91
101057.48
100978.89
100900.36
100822.13
100744.42
100667.47
100591.49
100516.72
100443.39
100371.72
100301.92
100234.24
100168.87
100106.03
100045.92
99988.756
99934.712
99883.973
99836.708
99793.075
99753.219
99717.263
99685.314
99657.451
99633.729
99614.177
99598.789
99587.529
99580.326
99577.077
99577.642
99581.852
99589.499
99600.357
99614.125
99630.556
99649.091
99669.701
99690.994
99714.211
99735.579
99760.212
99779.304
99803.801
99822.239
99839.991
99871.343
99856.685
99934.958
99853.157
102047.15
102023.68
101994.46
101962.15
101929.87
101901.25
101868.13
101838.03
101803.75
101771.44
101735.7
101700.63
101662.9
101624.7
101584.48
101542.93
101499.62
101454.67
101407.98
101359.54
101309.35
101257.42
101203.8
101148.54
101091.72
101033.43
100973.79
100912.93
100851
100788.16
100724.59
100660.47
100596.01
100531.42
100466.9
100402.68
100339
100276.08
100214.15
100153.47
100094.25
100036.75
99981.199
99927.825
99876.855
99828.507
99782.99
99740.503
99701.233
99665.354
99633.022
99604.373
99579.518
99558.544
99541.508
99528.439
99519.33
99514.139
99512.789
99515.167
99521.128
99530.491
99543.042
99558.544
99576.695
99597.231
99619.616
99643.761
99668.367
99694.505
99718.683
99745.712
99767.204
99793.597
99813.505
99833.17
99864.668
99853.416
99930.433
99850.958
101295.85
101280.02
101264.73
101246.68
101226.43
101210.59
101188.65
101171.15
101148.14
101128.38
101104.19
101081.66
101056.04
101030.73
101003.44
100975.25
100945.46
100914.33
100881.7
100847.54
100811.84
100774.58
100735.78
100695.44
100653.61
100610.34
100565.7
100519.77
100472.67
100424.5
100375.41
100325.55
100275.07
100224.17
100173.04
100121.87
100070.88
100020.3
99970.36
99921.291
99873.338
99826.744
99781.751
99738.601
99697.529
99658.766
99622.532
99589.039
99558.487
99531.059
99506.921
99486.215
99469.058
99455.539
99445.719
99439.626
99437.251
99438.545
99443.425
99451.774
99463.436
99478.223
99495.913
99516.26
99538.964
99563.745
99590.09
99617.866
99645.855
99674.985
99702.004
99731.461
99755.338
99783.641
99805.022
99826.532
99858.366
99850.016
99926.341
99848.794
100565.26
100559.48
100555.52
100550.83
100541.82
100538.23
100527.09
100521.98
100509.92
100502.4
100489.29
100478.79
100464.55
100451.16
100435.66
100419.58
100401.93
100383.11
100362.96
100341.48
100318.65
100294.46
100268.88
100241.94
100213.64
100184
100153.06
100120.88
100087.53
100053.08
100017.65
99981.343
99944.3
99906.667
99868.612
99830.312
99791.963
99753.77
99715.951
99678.732
99642.346
99607.032
99573.03
99540.579
99509.916
99481.273
99454.875
99430.939
99409.668
99391.251
99375.854
99363.621
99354.67
99349.092
99346.947
99348.258
99353.013
99361.159
99372.605
99387.226
99404.859
99425.308
99448.342
99473.709
99501.107
99530.246
99560.638
99592.114
99623.539
99655.71
99685.594
99717.488
99743.726
99774.01
99796.824
99820.057
99852.372
99846.599
99922.594
99846.68
99907.283
99907.73
99908.907
99912.619
99910.76
99915.854
99911.97
99915.869
99911.403
99913.064
99908.475
99908.033
99903.101
99899.018
99892.62
99886.196
99878.462
99869.904
99860.292
99849.616
99837.847
99824.944
99810.888
99795.662
99779.262
99761.693
99742.973
99723.129
99702.207
99680.265
99657.375
99633.629
99609.132
99584.007
99558.394
99532.447
99506.337
99480.249
99454.38
99428.938
99404.141
99380.211
99357.376
99335.865
99315.905
99297.723
99281.537
99267.56
99255.99
99247.011
99240.785
99237.452
99237.125
99239.891
99245.804
99254.883
99267.109
99282.421
99300.721
99321.875
99345.711
99372.024
99400.576
99431.106
99463.312
99496.897
99531.397
99566.615
99601.509
99636.751
99669.512
99703.828
99732.395
99764.647
99788.932
99813.857
99846.666
99843.265
99919.117
99844.64
99318.03
99323.411
99327.575
99336.165
99337.676
99348.302
99348.385
99358.235