/*--------------------------------*- C++ -*----------------------------------*\
  =========                 |
  \\      /  F ield         | OpenFOAM: The Open Source CFD Toolbox
   \\    /   O peration     | Website:  https://openfoam.org
    \\  /    A nd           | Version:  12
     \\/     M anipulation  |
\*---------------------------------------------------------------------------*/
FoamFile
{
    format      ascii;
    class       volScalarField;
    location    "0.061";
    object      alphat;
}
// * * * * * * * * * * * * * * * * * * * * * * * * * * * * * * * * * * * * * //

dimensions      [1 -1 -1 0 0 0 0];

internalField   nonuniform List<scalar> 
16000
(
4.8150567e-07
1.0644638e-05
1.9368737e-05
2.5091759e-05
1.9372955e-05
2.6499261e-05
1.8863522e-05
2.5735604e-05
2.0260242e-05
2.774461e-05
2.3537053e-05
2.7511966e-05
2.5182568e-05
2.5823236e-05
2.4992378e-05
2.4863797e-05
2.4629239e-05
2.4580343e-05
2.4616239e-05
2.4757367e-05
2.4996582e-05
2.5332922e-05
2.5764169e-05
2.6290604e-05
2.6914654e-05
2.7643024e-05
2.8484497e-05
2.9453094e-05
3.0565852e-05
3.1841088e-05
3.3298874e-05
3.4965853e-05
3.687639e-05
3.9072807e-05
4.1607153e-05
4.4541466e-05
4.7949583e-05
5.1919471e-05
5.6559989e-05
6.2005951e-05
6.8415287e-05
7.5973667e-05
8.4915097e-05
9.5525872e-05
0.00010814583
0.00012318129
0.00014113468
0.00016261624
0.00018836659
0.00021928559
0.00025647115
0.00030126503
0.00035530113
0.00042057753
0.00049954576
0.00059523298
0.00071139005
0.00085268849
0.0010250109
0.0011762522
0.0011775263
0.0011786022
0.0011796304
0.0011805124
0.0011812407
0.001181789
0.0011821487
0.0011823504
0.0011824832
0.0011826761
0.001183036
0.0011835774
0.0011841794
0.0011845946
0.0011845285
0.0011837325
0.0011820431
0.00117941
0.0011759953
0.0011740475
4.3086316e-07
1.0080015e-05
2.0937746e-05
2.2693349e-05
1.7454378e-05
2.3743072e-05
1.6725908e-05
2.2542004e-05
1.7874368e-05
2.4520005e-05
2.1285904e-05
2.4800565e-05
2.3007067e-05
2.3384963e-05
2.2736756e-05
2.255533e-05
2.2361147e-05
2.2306031e-05
2.234109e-05
2.2469834e-05
2.269043e-05
2.3001431e-05
2.3401273e-05
2.3890363e-05
2.4470528e-05
2.5148033e-05
2.5930474e-05
2.6830452e-05
2.7864052e-05
2.9049098e-05
3.0404229e-05
3.1953746e-05
3.3729397e-05
3.57703e-05
3.8125081e-05
4.0851993e-05
4.4020841e-05
4.7714181e-05
5.2033273e-05
5.7105625e-05
6.3082884e-05
7.0139615e-05
7.849586e-05
8.8424299e-05
0.00010025115
0.00011436245
0.00013123752
0.0001514608
0.00017574345
0.00020495046
0.00024013822
0.00028260273
0.00033392599
0.00039604766
0.00047135159
0.0005627883
0.00067402441
0.0008096281
0.00097533424
0.0011757729
0.0011770988
0.00117814
0.0011791425
0.0011800018
0.0011807098
0.001181243
0.0011815954
0.0011817961
0.001181929
0.0011821168
0.0011824576
0.0011829544
0.0011834845
0.001183815
0.0011836699
0.0011828048
0.0011810434
0.0011783492
0.0011751215
0.0011732416
3.8480159e-07
9.6422109e-06
1.9792429e-05
2.066547e-05
1.561211e-05
2.0900259e-05
1.487653e-05
1.9590151e-05
1.6057284e-05
2.1511383e-05
1.9387713e-05
2.2072342e-05
2.0817929e-05
2.0927639e-05
2.0431266e-05
2.0228514e-05
2.0067088e-05
2.0016933e-05
2.0054191e-05
2.0175979e-05
2.0381964e-05
2.0671002e-05
2.1041803e-05
2.1495111e-05
2.2032298e-05
2.2659388e-05
2.3383167e-05
2.4215039e-05
2.516998e-05
2.6265346e-05
2.7518816e-05
2.8952846e-05
3.0597039e-05
3.2487778e-05
3.4670676e-05
3.7200545e-05
4.0143657e-05
4.3578363e-05
4.7599577e-05
5.2327548e-05
5.7908839e-05
6.4509553e-05
7.2337889e-05
8.1653954e-05
9.2773273e-05
0.00010606562
0.00012199107
0.00014111261
0.00016411705
0.00019184118
0.00022530705
0.00026577272
0.00031477698
0.00037421105
0.00044640185
0.00053423319
0.00064129711
0.00077207694
0.00093219134
0.0011287167
0.0011768664
0.0011778568
0.0011788107
0.0011796243
0.0011802881
0.0011807818
0.0011811036
0.0011812844
0.0011814041
0.0011815774
0.0011818916
0.0011823376
0.0011827896
0.0011830294
0.0011827978
0.0011818506
0.001180003
0.001177258
0.0011743236
0.0011724384
3.4715482e-07
9.3102469e-06
1.8769543e-05
1.924779e-05
1.4027096e-05
1.844434e-05
1.3246737e-05
1.7114636e-05
1.4442874e-05
1.8959835e-05
1.7680461e-05
1.9661551e-05
1.8804045e-05
1.8720024e-05
1.8336774e-05
1.8134059e-05
1.800168e-05
1.7961908e-05
1.8004453e-05
1.8123197e-05
1.8318467e-05
1.8589606e-05
1.8935586e-05
1.9357631e-05
1.9856834e-05
2.0439139e-05
2.1110812e-05
2.1882319e-05
2.2767603e-05
2.3783648e-05
2.4947512e-05
2.6280101e-05
2.7809297e-05
2.9569155e-05
3.1602777e-05
3.3962035e-05
3.6710194e-05
3.992236e-05
4.3688462e-05
4.8122065e-05
5.3365939e-05
5.9579922e-05
6.6962894e-05
7.5764021e-05
8.6291437e-05
9.8902783e-05
0.00011404338
0.00013226018
0.00015422208
0.00018074642
0.00021283061
0.00025170696
0.0002988851
0.00035622514
0.00042601778
0.00051110411
0.00061502837
0.00074222189
0.0008982328
0.0010900262
0.0011768453
0.0011777681
0.0011786535
0.0011794027
0.0011800046
0.0011804413
0.0011807148
0.0011808588
0.0011809489
0.0011810899
0.001181359
0.0011817386
0.0011821041
0.0011822517
0.0011819349
0.0011809089
0.0011789893
0.0011762772
0.0011735966
0.0011716662
3.0776964e-07
9.0676605e-06
1.787797e-05
1.9221824e-05
1.4036741e-05
1.6310285e-05
1.1819399e-05
1.4997002e-05
1.3057501e-05
1.6765361e-05
1.6166188e-05
1.7495813e-05
1.6934516e-05
1.6720639e-05
1.6421214e-05
1.6232646e-05
1.6124083e-05
1.6094997e-05
1.6141335e-05
1.6256209e-05
1.6440188e-05
1.6693406e-05
1.7015112e-05
1.740709e-05
1.7870349e-05
1.8410815e-05
1.9034389e-05
1.9750799e-05
2.0572965e-05
2.1517459e-05
2.2600942e-05
2.3843041e-05
2.5270227e-05
2.6914566e-05
2.8817019e-05
3.1026933e-05
3.3604915e-05
3.6623492e-05
4.0168924e-05
4.4348483e-05
4.930185e-05
5.5184336e-05
6.2187739e-05
7.0551147e-05
8.0577426e-05
9.2615156e-05
0.00010709793
0.00012456022
0.00014565689
0.00017119147
0.0002021426
0.00023972402
0.00028542416
0.00034108165
0.00040896298
0.0004918801
0.00059334467
0.00071775398
0.00087061348
0.0010588168
0.0011770185
0.0011778575
0.0011786553
0.0011793218
0.0011798445
0.0011802076
0.0011804166
0.001180508
0.0011805539
0.0011806486
0.0011808584
0.0011811601
0.0011814321
0.0011814848
0.0011810827
0.001179982
0.0011780173
0.0011753685
0.0011729083
0.0011709354
2.8497021e-07
8.9204884e-06
1.7161885e-05
1.8924774e-05
1.3783378e-05
1.4447877e-05
1.1252564e-05
1.3250676e-05
1.2283153e-05
1.493194e-05
1.4848515e-05
1.560154e-05
1.5237082e-05
1.4946426e-05
1.4699064e-05
1.4525879e-05
1.4432019e-05
1.4408933e-05
1.4455122e-05
1.4563844e-05
1.473557e-05
1.4971191e-05
1.5270076e-05
1.5634314e-05
1.6065091e-05
1.6568171e-05
1.7149181e-05
1.7817278e-05
1.8584395e-05
1.9466667e-05
2.0480556e-05
2.1644668e-05
2.2984376e-05
2.4530114e-05
2.6321117e-05
2.840467e-05
3.0839173e-05
3.3695158e-05
3.7056635e-05
4.1025522e-05
4.5738772e-05
5.1348942e-05
5.8043529e-05
6.6052661e-05
7.5676178e-05
8.7257115e-05
0.00010122085
0.00011809368
0.00013852097
0.00016329916
0.00019339527
0.00023001328
0.00027463054
0.00032907627
0.00039560827
0.00047702738
0.0005768328
0.00069941084
0.00085025571
0.0010362442
0.0011773712
0.0011781113
0.0011788046
0.0011793723
0.0011798008
0.0011800763
0.0011802071
0.0011802322
0.0011802207
0.0011802561
0.001180394
0.0011806071
0.0011807783
0.0011807322
0.0011802453
0.0011790795
0.0011771123
0.0011745465
0.0011722624
0.0011702941
2.5964462e-07
8.837007e-06
1.6607167e-05
1.785148e-05
1.3662838e-05
1.2762725e-05
1.1266035e-05
1.2253891e-05
1.1644855e-05
1.3319366e-05
1.366697e-05
1.3930448e-05
1.3665987e-05
1.3341971e-05
1.3123537e-05
1.2965833e-05
1.2882843e-05
1.28649e-05
1.2911038e-05
1.3014996e-05
1.3176776e-05
1.3397873e-05
1.3677788e-05
1.3935169e-05
1.4328377e-05
1.4790856e-05
1.5327585e-05
1.5946952e-05
1.6659713e-05
1.7481216e-05
1.8427695e-05
1.9516774e-05
2.0772834e-05
2.2224758e-05
2.3910203e-05
2.5874593e-05
2.8174283e-05
3.0877881e-05
3.406803e-05
3.8128732e-05
4.2649914e-05
4.8043878e-05
5.4496625e-05
6.2230762e-05
7.1544422e-05
8.2778518e-05
9.6353614e-05
0.00011279181
0.0001327328
0.00015697228
0.00018647199
0.00022243427
0.00026633472
0.00032000414
0.00038570574
0.00046624642
0.00056513215
0.00068676051
0.00083664248
0.001021664
0.0011778837
0.0011785116
0.0011790858
0.0011795406
0.001179862
0.0011800384
0.00118008
0.0011800273
0.0011799468
0.0011799119
0.0011799674
0.0011800831
0.0011801466
0.001179997
0.0011794249
0.0011782169
0.0011762895
0.0011738206
0.0011716824
0.0011697571
2.3257077e-07
8.7871851e-06
1.6131365e-05
1.6205128e-05
1.2349079e-05
1.1125559e-05
9.6071057e-06
1.0903072e-05
1.0124482e-05
1.1990262e-05
1.2472933e-05
1.2392152e-05
1.2166347e-05
1.1852023e-05
1.1658308e-05
1.15215e-05
1.1452641e-05
1.144349e-05
1.1422772e-05
1.1508447e-05
1.1651829e-05
1.1853316e-05
1.21114e-05
1.2425704e-05
1.2801141e-05
1.3241297e-05
1.3751228e-05
1.4339264e-05
1.5015578e-05
1.5795067e-05
1.6694213e-05
1.7730131e-05
1.8926754e-05
2.031201e-05
2.1922667e-05
2.3803012e-05
2.6008228e-05
2.8605806e-05
3.1678046e-05
3.5325094e-05
3.9668962e-05
4.4864155e-05
5.1097322e-05
5.9079902e-05
6.8177166e-05
7.9175087e-05
9.2493209e-05
0.00010865328
0.0001282933
0.00015221484
0.00018138111
0.00021700134
0.00026055947
0.00031389962
0.00037930528
0.00045960795
0.00055834148
0.00067993851
0.00082995682
0.0010153242
0.0011785333
0.0011790373
0.0011794806
0.0011798111
0.0011800149
0.0011800831
0.0011800273
0.0011798881
0.0011797288
0.0011796141
0.0011795779
0.0011795878
0.0011795385
0.0011792828
0.0011786283
0.0011774262
0.0011755564
0.0011731932
0.0011711784
0.0011694069
2.1427484e-07
8.7380035e-06
1.5633504e-05
1.4190059e-05
1.0135415e-05
9.8939013e-06
7.9285094e-06
9.3136377e-06
9.5302974e-06
1.0772513e-05
1.1266526e-05
1.0962832e-05
1.0756117e-05
1.0475839e-05
1.0307695e-05
1.0122408e-05
1.0042758e-05
1.0028059e-05
1.0071363e-05
1.0169507e-05
1.0317758e-05
1.0519487e-05
1.0772462e-05
1.1077368e-05
1.1438884e-05
1.186145e-05
1.2350227e-05
1.2913595e-05
1.3561336e-05
1.4307882e-05
1.5170077e-05
1.6164789e-05
1.7315825e-05
1.8650481e-05
2.0205018e-05
2.2023094e-05
2.4159254e-05
2.6680472e-05
2.9668576e-05
3.3223092e-05
3.7466759e-05
4.2552264e-05
4.8669958e-05
5.6040235e-05
6.4945822e-05
7.5738508e-05
8.962584e-05
0.00010566333
0.0001251869
0.00014901045
0.00017810578
0.00021369781
0.0002572893
0.00031074979
0.00037639835
0.00045711037
0.00055647021
0.00067897027
0.00083024423
0.0010173103
0.0011792943
0.0011796646
0.0011799684
0.0011801661
0.0011802447
0.001180198
0.0011800389
0.0011798065
0.0011795608
0.0011793582
0.0011792217
0.0011791171
0.0011789504
0.0011785899
0.0011778825
0.0011767162
0.0011749188
0.0011726638
0.0011707662
0.0011692017
1.970601e-07
8.6926146e-06
1.3819318e-05
1.2372194e-05
8.1896529e-06
8.8097172e-06
7.1061076e-06
8.4057557e-06
8.8209926e-06
9.6404875e-06
1.0080053e-05
9.6646804e-06
9.4644119e-06
9.1329431e-06
8.9539658e-06
8.842857e-06
8.7971296e-06
8.807841e-06
8.8679704e-06
8.978184e-06
9.1329412e-06
9.3344363e-06
9.5842059e-06
9.8823212e-06
1.0233764e-05
1.0643434e-05
1.1116654e-05
1.1662001e-05
1.228902e-05
1.3011717e-05
1.3847367e-05
1.4812935e-05
1.5932362e-05
1.7232615e-05
1.8749814e-05
2.0527442e-05
2.2619901e-05
2.5094251e-05
2.8032893e-05
3.1536107e-05
3.5727105e-05
4.0758617e-05
4.6825206e-05
5.414821e-05
6.301408e-05
7.3778431e-05
8.6879916e-05
0.00010283328
0.00012341066
0.00014735905
0.0001766506
0.00021253471
0.00025654437
0.00031058752
0.00037703495
0.00045882647
0.00055962159
0.00068400017
0.00083770118
0.0010278748
0.001180138
0.0011803674
0.0011805263
0.0011805859
0.0011805345
0.0011803688
0.0011801026
0.0011797724
0.0011794336
0.0011791365
0.0011788932
0.0011786664
0.0011783781
0.0011779192
0.00117722
0.0011760989
0.0011743852
0.0011722348
0.0011704594
0.00116912
1.8181416e-07
8.6457658e-06
1.0973233e-05
1.0190984e-05
6.7522285e-06
7.8522995e-06
6.4851476e-06
7.5598367e-06
8.2571299e-06
8.6152493e-06
8.9219444e-06
8.3956816e-06
8.1447626e-06
7.9158101e-06
7.7847945e-06
7.7132221e-06
7.6957354e-06
7.7290939e-06
7.805644e-06
7.9249836e-06
8.0856383e-06
8.2893891e-06
8.5382346e-06
8.8328457e-06
9.1782922e-06
9.5799567e-06
1.0043473e-05
1.0577673e-05
1.1192091e-05
1.1900394e-05
1.265454e-05
1.3592274e-05
1.4682187e-05
1.5950899e-05
1.7434389e-05
1.9176008e-05
2.123011e-05
2.3663916e-05
2.6560564e-05
3.0021431e-05
3.4171388e-05
3.9472871e-05
4.5553542e-05
5.2907892e-05
6.1826365e-05
7.2669934e-05
8.5892053e-05
0.00010202268
0.00012173124
0.00014585345
0.00017702044
0.00021352481
0.00025834836
0.00031345129
0.00038127331
0.00046484066
0.00056791459
0.00069519336
0.0008525534
0.0010473124
0.0011810349
0.0011811188
0.0011811302
0.0011810497
0.0011808665
0.0011805799
0.0011802042
0.0011797729
0.0011793353
0.001178937
0.0011785837
0.0011782343
0.00117783
0.0011773353
0.0011766488
0.0011755845
0.0011739644
0.0011719151
0.0011702697
0.0011692356
1.6847247e-07
8.6021495e-06
8.6704752e-06
8.7621432e-06
5.9866172e-06
6.9626205e-06
5.9625316e-06
6.8251792e-06
7.6825083e-06
7.660594e-06
7.6666444e-06
7.2198155e-06
7.0155983e-06
6.8484974e-06
6.7583457e-06
6.7199551e-06
6.7286043e-06
6.7798523e-06
6.8705251e-06
7.0004608e-06
7.1682221e-06
7.3759901e-06
7.6266599e-06
7.9213935e-06
8.2653674e-06
8.6266429e-06
9.0788165e-06
9.6011928e-06
1.0203191e-05
1.0898039e-05
1.1701658e-05
1.2634787e-05
1.3720785e-05
1.498645e-05
1.6468241e-05
1.8210136e-05
2.0267378e-05
2.2708354e-05
2.5618224e-05
2.9100962e-05
3.3284968e-05
3.8330802e-05
4.443527e-05
5.1834408e-05
6.0825036e-05
7.2400851e-05
8.5876032e-05
0.0001023406
0.0001224805
0.00014716376
0.00017745317
0.00021668449
0.00026273121
0.00031938911
0.0003891851
0.00047525567
0.00058149256
0.00071274687
0.00087506939
0.0010759793
0.0011819554
0.0011818911
0.0011817557
0.0011815359
0.0011812218
0.0011808144
0.0011803285
0.0011797941
0.001179253
0.0011787462
0.0011782806
0.0011778205
0.0011773422
0.0011768426
0.0011761773
0.0011751787
0.001173661
0.0011717175
0.0011702051
0.0011694299
1.5659529e-07
8.5502062e-06
6.91511e-06
7.6985677e-06
5.3460346e-06
6.1741402e-06
5.5152657e-06
6.1747623e-06
6.9979953e-06
6.5738598e-06
6.5352881e-06
6.1922958e-06
6.0312099e-06
5.9142509e-06
5.8592719e-06
5.8494914e-06
5.880509e-06
5.9499731e-06
6.0548442e-06
6.1958575e-06
6.3724372e-06
6.5868484e-06
6.8131071e-06
7.1053619e-06
7.4466554e-06
7.8417261e-06
8.2985567e-06
8.8256756e-06
9.432776e-06
1.0133362e-05
1.0943585e-05
1.1884003e-05
1.2979473e-05
1.4257306e-05
1.5754732e-05
1.7516778e-05
1.9600193e-05
2.2075119e-05
2.5029564e-05
2.8571286e-05
3.2832493e-05
3.7978083e-05
4.4216014e-05
5.1789506e-05
6.1006336e-05
7.2249959e-05
8.5997652e-05
0.00010282756
0.00012454087
0.00015001701
0.00018131088
0.0002197952
0.00026971806
0.00032844492
0.00040083844
0.00049017131
0.00060049679
0.00073685605
0.00090551878
0.0011142411
0.0011828706
0.0011826582
0.0011823791
0.0011820231
0.0011815815
0.0011810554
0.0011804596
0.0011798217
0.0011791754
0.0011785545
0.0011779745
0.0011774208
0.0011769485
0.001176448
0.00117581
0.0011748821
0.0011734732
0.0011716482
0.001170266
0.0011696835
1.4608416e-07
8.4900917e-06
5.5620527e-06
6.7398325e-06
4.7734829e-06
5.4718935e-06
5.1365944e-06
5.5104324e-06
6.136769e-06
5.6314768e-06
5.5436537e-06
5.2942183e-06
5.173799e-06
5.0988803e-06
5.0753002e-06
5.0915809e-06
5.1439154e-06
5.2309632e-06
5.3506492e-06
5.4831701e-06
5.6640439e-06
5.8828089e-06
6.1421162e-06
6.4453826e-06
6.7974912e-06
7.2036213e-06
7.6716907e-06
8.2109692e-06
8.8314359e-06
9.5468299e-06
1.0373503e-05
1.1332353e-05
1.2392217e-05
1.3683481e-05
1.5197761e-05
1.6981116e-05
1.9092055e-05
2.1602572e-05
2.4603615e-05
2.8207366e-05
3.2551058e-05
3.8092673e-05
4.4525353e-05
5.2347713e-05
6.1879953e-05
7.3518929e-05
8.7768073e-05
0.00010523539
0.00012666781
0.00015439979
0.00018698565
0.00022709383
0.00027649941
0.00034064514
0.00041628181
0.00050966415
0.00062504169
0.00076768395
0.00094413215
0.0011624258
0.0011837535
0.0011833958
0.0011829786
0.0011824917
0.0011819272
0.0011812863
0.0011805826
0.0011798424
0.0011790936
0.0011783614
0.0011776773
0.0011771233
0.0011766482
0.001176154
0.0011755481
0.0011746914
0.0011733926
0.001171709
0.0011704911
0.0011701025
1.3678723e-07
8.3553491e-06
4.5326792e-06
5.8870641e-06
4.2639821e-06
4.8482269e-06
4.8069299e-06
4.7854844e-06
5.2691488e-06
4.7916708e-06
4.6846986e-06
4.5125315e-06
4.4309695e-06
4.3926294e-06
4.3978312e-06
4.4384625e-06
4.5114554e-06
4.5976374e-06
4.7268295e-06
4.8898493e-06
5.0878044e-06
5.3225158e-06
5.5974035e-06
5.9161078e-06
6.2841617e-06
6.7070526e-06
7.1927978e-06
7.7276088e-06
8.3624604e-06
9.0934659e-06
9.9370934e-06
1.0914348e-05
1.2050918e-05
1.3379106e-05
1.4937451e-05
1.6773722e-05
1.8949348e-05
2.1539361e-05
2.463875e-05
2.8365944e-05
3.2865193e-05
3.8318534e-05
4.4946438e-05
5.3020994e-05
6.2878152e-05
7.5561591e-05
9.0442503e-05
0.00010870263
0.0001311318
0.00015870806
0.00019445128
0.00023653526
0.00028841549
0.00035240776
0.00043551951
0.00053375782
0.00065517768
0.00080531571
0.0009910403
0.001185056
0.0011845798
0.0011840828
0.0011835348
0.0011829238
0.0011822428
0.0011814926
0.0011806853
0.0011798452
0.0011789997
0.0011781736
0.0011774591
0.0011769155
0.0011764424
0.0011759601
0.0011753907
0.0011746023
0.0011734078
0.0011718905
0.0011708725
0.0011706167
1.2862286e-07
8.0121437e-06
3.8381829e-06
5.1315841e-06
3.8109425e-06
4.296277e-06
4.2796881e-06
4.1291234e-06
4.4340989e-06
4.0498473e-06
3.9491535e-06
3.8388549e-06
3.7939215e-06
3.7881234e-06
3.8199433e-06
3.8691222e-06
3.9553832e-06
4.0742809e-06
4.2251157e-06
4.4083032e-06
4.6256261e-06
4.8794732e-06
5.1737343e-06
5.5123711e-06
5.8877568e-06
6.3284361e-06
6.8327604e-06
7.410025e-06
8.0719239e-06
8.8323845e-06
9.7083728e-06
1.0721842e-05
1.1899654e-05
1.3275488e-05
1.4890744e-05
1.6795173e-05
1.9053805e-05
2.1745594e-05
2.496993e-05
2.8852949e-05
3.3545482e-05
3.9239808e-05
4.6172167e-05
5.4628621e-05
6.496644e-05
7.7625233e-05
9.3975125e-05
0.00011318443
0.00013679627
0.00016585724
0.00020163439
0.00024805963
0.00030284006
0.00037045695
0.00045395121
0.00056238256
0.00069084142
0.00084969938
0.0010461973
0.0011859274
0.0011853284
0.0011847018
0.0011840317
0.0011833048
0.0011825147
0.0011816629
0.0011807592
0.0011798239
0.0011788898
0.0011780077
0.0011773365
0.0011767989
0.001176329
0.001175864
0.0011753366
0.0011746125
0.0011735098
0.0011721653
0.0011713713
0.0011711588
1.2168527e-07
7.6106661e-06
3.3867414e-06
4.4609467e-06
3.4093656e-06
3.6466632e-06
3.8150028e-06
3.5277908e-06
3.6793804e-06
3.4060694e-06
3.327257e-06
3.266107e-06
3.2547239e-06
3.2783562e-06
3.3180242e-06
3.3990503e-06
3.511552e-06
3.6543749e-06
3.8277773e-06
4.0329572e-06
4.2722891e-06
4.5484619e-06
4.8562633e-06
5.2156772e-06
5.6257479e-06
6.093019e-06
6.6253555e-06
7.2324167e-06
7.9261741e-06
8.721502e-06
9.6359765e-06
1.0692584e-05
1.1919531e-05
1.3352344e-05
1.4970505e-05
1.6939929e-05
1.9277926e-05
2.2068005e-05
2.5567582e-05
2.963652e-05
3.4559734e-05
4.0539834e-05
4.7830323e-05
5.6734589e-05
6.763069e-05
8.0988142e-05
9.7385075e-05
0.00011753388
0.00014358522
0.000174349
0.0002122507
0.00025898222
0.00031963966
0.00039138676
0.00048002387
0.00059532743
0.00073179399
0.00090057152
0.001109305
0.0011867019
0.0011859842
0.0011852392
0.0011844569
0.0011836239
0.001182734
0.0011817894
0.0011807992
0.001179779
0.0011787708
0.0011779506
0.0011773006
0.0011767695
0.0011763043
0.0011758615
0.0011753802
0.0011747179
0.0011737015
0.0011725288
0.001171947
0.0011717924
1.162481e-07
6.4835713e-06
3.0026388e-06
3.8520309e-06
3.0638589e-06
3.0458627e-06
3.3523473e-06
2.9835083e-06
3.0311828e-06
2.8564018e-06
2.8068456e-06
2.7859752e-06
2.7968078e-06
2.8395027e-06
2.9175535e-06
3.0266548e-06
3.1648431e-06
3.3320414e-06
3.5293116e-06
3.7583182e-06
4.0158725e-06
4.3147653e-06
4.6550954e-06
5.0415397e-06
5.4796847e-06
5.97631e-06
6.5396662e-06
7.1798219e-06
7.9091688e-06
8.7239171e-06
9.6751704e-06
1.0772488e-05
1.2045363e-05
1.3530765e-05
1.5274964e-05
1.7335858e-05
1.978508e-05
2.2712404e-05
2.6229354e-05
3.0473913e-05
3.5617707e-05
4.2174234e-05
4.9871007e-05
5.9283254e-05
7.0811383e-05
8.4954858e-05
0.00010233043
0.0001237006
0.00015138421
0.00018405047
0.00022432291
0.00027400245
0.00033858499
0.00041492424
0.00050928126
0.0006259565
0.0007775549
0.00095736864
0.0011797072
0.0011873681
0.0011865387
0.0011856866
0.0011848029
0.001183875
0.001182896
0.0011818676
0.0011808008
0.0011797198
0.0011787372
0.0011779686
0.0011773437
0.0011768202
0.0011763629
0.0011759459
0.0011755118
0.0011749108
0.0011739865
0.0011729806
0.001172564
0.0011724401
1.1182239e-07
4.5939544e-06
2.6527724e-06
3.2878612e-06
2.6217972e-06
2.5421954e-06
2.8648938e-06
2.498794e-06
2.4913129e-06
2.3937085e-06
2.3770159e-06
2.3834146e-06
2.4250996e-06
2.5019297e-06
2.6095741e-06
2.745542e-06
2.9091634e-06
3.1010795e-06
3.3196984e-06
3.5720935e-06
3.8594205e-06
4.1849673e-06
4.552734e-06
4.9675889e-06
5.4354077e-06
5.9632762e-06
6.559803e-06
7.2245136e-06
7.9880569e-06
8.858876e-06
9.8569619e-06
1.1007158e-05
1.2340796e-05
1.389725e-05
1.5725917e-05
1.7888409e-05
2.0461385e-05
2.3540336e-05
2.7244231e-05
3.1720932e-05
3.7154006e-05
4.37703e-05
5.2236878e-05
6.2207654e-05
7.4430472e-05
8.9437111e-05
0.00010788497
0.00013058849
0.00015855666
0.00019477129
0.00023762266
0.00029050974
0.00035582947
0.00044065022
0.00054120852
0.00066558876
0.00082734253
0.0010191388
0.0011888601
0.0011879211
0.0011869889
0.0011860415
0.0011850677
0.0011840567
0.0011830004
0.0011818978
0.0011807665
0.0011796585
0.0011787746
0.0011780505
0.0011774521
0.0011769416
0.0011764984
0.0011761111
0.0011757239
0.0011751849
0.0011743605
0.0011735212
0.0011732434
0.0011731235
1.072204e-07
3.8204675e-06
2.2895306e-06
2.7674887e-06
2.261034e-06
2.1209457e-06
2.3607437e-06
2.0733138e-06
2.0523933e-06
2.0142204e-06
2.0262473e-06
2.0669573e-06
2.1445314e-06
2.2520883e-06
2.3870357e-06
2.5484313e-06
2.736578e-06
2.9504486e-06
3.19566e-06
3.4734699e-06
3.7867944e-06
4.1391732e-06
4.5348452e-06
4.9788802e-06
5.4773739e-06
6.0376936e-06
6.6613238e-06
7.3709583e-06
8.1750837e-06
9.0905003e-06
1.0138358e-05
1.1345074e-05
1.2743899e-05
1.4376665e-05
1.6296063e-05
1.8568125e-05
2.1274918e-05
2.4518286e-05
2.8425084e-05
3.3152392e-05
3.8895601e-05
4.6229079e-05
5.4859009e-05
6.5426684e-05
7.8391551e-05
9.4319329e-05
0.00011390996
0.00013803052
0.00016930981
0.00020625694
0.00025183799
0.00030811767
0.00037765357
0.00046797762
0.00057508913
0.00070761076
0.00088002891
0.0010844738
0.00118938
0.0011883598
0.0011873385
0.0011863072
0.0011852548
0.0011841716
0.0011830497
0.001181884
0.0011806997
0.0011796823
0.001178859
0.001178182
0.0011776134
0.0011771243
0.0011767056
0.0011763547
0.0011760152
0.0011755399
0.0011748298
0.0011741682
0.0011740136
0.0011739064
1.0414443e-07
3.0785289e-06
1.9753997e-06
2.2385887e-06
1.9654397e-06
1.7603733e-06
1.8924242e-06
1.712723e-06
1.7079818e-06
1.7178024e-06
1.759679e-06
1.8381298e-06
1.9465395e-06
2.0809808e-06
2.2404153e-06
2.4250879e-06
2.63487e-06
2.873433e-06
3.1425658e-06
3.444943e-06
3.7837708e-06
4.1628056e-06
4.5864558e-06
5.0599464e-06
5.589552e-06
6.1786279e-06
6.8428411e-06
7.5908568e-06
8.4367513e-06
9.398203e-06
1.0497669e-05
1.1763227e-05
1.3230245e-05
1.4943165e-05
1.6957922e-05
1.9344926e-05
2.2192296e-05
2.560836e-05
2.9728612e-05
3.4720186e-05
4.1059053e-05
4.8525183e-05
5.7654692e-05
6.8843246e-05
8.2577804e-05
9.9460622e-05
0.0001202357
0.00014582522
0.00017896989
0.0002181789
0.00026656959
0.00032633688
0.00040020644
0.00049612509
0.00060996099
0.00075083768
0.00093412283
0.0011515263
0.0011897875
0.001188694
0.0011875964
0.0011864932
0.0011853728
0.0011842254
0.0011830467
0.0011818463
0.0011806765
0.0011797524
0.0011789873
0.0011783558
0.0011778224
0.0011773655
0.0011769846
0.0011766786
0.0011763864
0.0011759728
0.0011753902
0.0011749326
0.0011749035
0.0011747619
1.029198e-07
2.4307998e-06
1.7040094e-06
1.729983e-06
1.6928641e-06
1.4517695e-06
1.5102232e-06
1.4257543e-06
1.4519037e-06
1.4963206e-06
1.576666e-06
1.6854939e-06
1.8192957e-06
1.9764932e-06
2.1573418e-06
2.362979e-06
2.5943267e-06
2.8548898e-06
3.1467482e-06
3.4728437e-06
3.8365596e-06
4.2418003e-06
4.6931061e-06
5.1958317e-06
5.7563934e-06
6.3826057e-06
7.0841169e-06
7.872935e-06
8.7539914e-06
9.7619788e-06
1.0913739e-05
1.2239112e-05
1.3775728e-05
1.5570868e-05
1.7683769e-05
2.0270814e-05
2.3284334e-05
2.6903605e-05
3.1273496e-05
3.6573086e-05
4.3023464e-05
5.0897279e-05
6.053241e-05
7.2346218e-05
8.6854692e-05
0.00010469635
0.0001266602
0.00015506582
0.00018868058
0.00023014463
0.00028133136
0.00034456624
0.00042673881
0.00052413778
0.00064464168
0.00079380821
0.00098777956
0.0011912896
0.0011900983
0.0011889389
0.0011877769
0.0011866121
0.0011854346
0.0011842326
0.0011829987
0.0011817657
0.0011807239
0.0011798661
0.0011791603
0.0011785756
0.0011780837
0.0011776701
0.0011773388
0.0011770824
0.0011768299
0.0011764638
0.0011760019
0.0011757663
0.0011759154
0.0011757417
1.0458734e-07
1.8750819e-06
1.4778176e-06
1.3398445e-06
1.4156025e-06
1.192961e-06
1.2306505e-06
1.2159235e-06
1.2746911e-06
1.3532412e-06
1.4620359e-06
1.5942428e-06
1.748507e-06
1.924921e-06
2.1246654e-06
2.3494505e-06
2.6010044e-06
2.8823365e-06
3.1959456e-06
3.5449121e-06
3.9327275e-06
4.3633968e-06
4.8415712e-06
5.3727368e-06
5.9634753e-06
6.6218177e-06
7.3577151e-06
8.1836287e-06
9.1152631e-06
1.0172497e-05
1.1380477e-05
1.2771079e-05
1.4384498e-05
1.627132e-05
1.8494928e-05
2.113448e-05
2.4288598e-05
2.808016e-05
3.2661488e-05
3.8221514e-05
4.4994148e-05
5.3267927e-05
6.3396869e-05
7.5820973e-05
9.1082725e-05
0.00011076278
0.00013404716
0.00016272822
0.00019808763
0.00024171581
0.00029558447
0.00036554041
0.00044842916
0.00055093929
0.00067779736
0.00084297269
0.0010388936
0.0011915652
0.0011903293
0.0011891142
0.0011878988
0.0011866802
0.0011854523
0.0011842104
0.0011829589
0.0011817646
0.0011808171
0.0011800292
0.0011793823
0.0011788471
0.0011784019
0.001178038
0.0011777592
0.0011775474
0.001177323
0.0011769896
0.0011766192
0.0011765443
0.0011768538
0.0011768557
1.1029052e-07
1.4187179e-06
1.2944645e-06
1.054947e-06
1.263904e-06
9.7771473e-07
1.0410613e-06
1.077521e-06
1.1630647e-06
1.2691007e-06
1.3988073e-06
1.5491101e-06
1.7203504e-06
1.9136285e-06
2.1306227e-06
2.3733105e-06
2.6439463e-06
2.9448669e-06
3.279145e-06
3.6498349e-06
4.0605096e-06
4.5152666e-06
5.0188697e-06
5.5769462e-06
6.1962593e-06
6.8850753e-06
7.6536597e-06
8.5149517e-06
9.4853102e-06
1.0585533e-05
1.1841957e-05
1.328805e-05
1.4966056e-05
1.6929168e-05
1.9244054e-05
2.1994e-05
2.5282667e-05
2.9238755e-05
3.4021718e-05
3.9828863e-05
4.7224244e-05
5.593961e-05
6.6608827e-05
7.9694453e-05
9.5767022e-05
0.00011553185
0.00013986176
0.00016983752
0.00020679461
0.00025475499
0.00031148534
0.00038155781
0.00046817416
0.00057531476
0.00071483142
0.00088025812
0.0010850949
0.0011917703
0.0011904974
0.0011892397
0.0011879835
0.0011867228
0.0011854507
0.0011841672
0.0011829045
0.00118183
0.0011809542
0.0011802362
0.0011796471
0.0011791615
0.0011787626
0.0011784454
0.0011782091
0.001178027
0.0011778222
0.0011775261
0.0011772454
0.001177287
0.0011776666
0.0011775978
1.2068421e-07
1.1301271e-06
1.1366867e-06
9.1456924e-07
9.2670849e-07
8.5593305e-07
9.1642361e-07
9.9461139e-07
1.1008394e-06
1.2263105e-06
1.371772e-06
1.5369878e-06
1.7231406e-06
1.9317299e-06
2.1645881e-06
2.4237652e-06
2.7115554e-06
3.0305174e-06
3.383521e-06
3.7738009e-06
4.2050346e-06
4.6814488e-06
5.2079676e-06
5.7904235e-06
6.4358493e-06
7.1503248e-06
7.948209e-06
8.8412892e-06
9.8553568e-06
1.0998347e-05
1.2303872e-05
1.3807123e-05
1.5552481e-05
1.7595756e-05
2.0006838e-05
2.2872917e-05
2.6302423e-05
3.042987e-05
3.5421797e-05
4.1484159e-05
4.8871464e-05
5.7898111e-05
6.895221e-05
8.2510837e-05
9.9165523e-05
0.00011964652
0.00014614669
0.00017744604
0.00021602261
0.00026360859
0.0003223529
0.00039492737
0.00048465212
0.00060131792
0.00073973345
0.00091112753
0.0011234315
0.001191927
0.0011906229
0.0011893318
0.0011880459
0.0011867594
0.0011854682
0.0011841767
0.0011829273
0.0011819382
0.0011811259
0.0011804681
0.001179931
0.0011794901
0.0011791318
0.0011788528
0.001178647
0.0011784854
0.0011783049
0.0011780633
0.0011778639
0.0011779478
0.0011783246
0.0011783572
1.4207361e-07
1.163581e-06
9.7959695e-07
6.9934076e-07
7.5772427e-07
7.6549846e-07
8.4784529e-07
9.4867355e-07
1.0712506e-06
1.2113985e-06
1.3702192e-06
1.5486135e-06
1.7480583e-06
1.9701694e-06
2.2168107e-06
2.4900615e-06
2.7922512e-06
3.12599e-06
3.4942122e-06
3.9002292e-06
4.347803e-06
4.8412491e-06
5.3855851e-06
5.9867417e-06
6.6518637e-06
7.3897201e-06
8.2112504e-06
9.1302626e-06
1.016432e-05
1.1335802e-05
1.2673174e-05
1.4212597e-05
1.5999731e-05
1.8092013e-05
2.0561341e-05
2.3497371e-05
2.7011533e-05
3.1241936e-05
3.6359418e-05
4.2575015e-05
5.0149323e-05
5.9829475e-05
7.1250115e-05
8.525373e-05
0.00010244998
0.00012359102
0.00014960803
0.00018165461
0.00022116134
0.00026990168
0.00033008281
0.0004081808
0.00050080199
0.00061538386
0.00075724416
0.00093299312
0.0011508092
0.0011920688
0.0011907361
0.0011894158
0.0011881033
0.0011867916
0.0011854792
0.0011841845
0.0011830142
0.0011820797
0.0011813166
0.0011807034
0.0011802086
0.0011798069
0.0011794853
0.0011792424
0.0011790699
0.0011789381
0.0011788002
0.0011786361
0.0011785333
0.0011786585
0.001178995
0.0011790496
1.355158e-07
7.772084e-07
8.0441798e-07
5.9662323e-07
6.5274249e-07
7.125243e-07
8.1338507e-07
9.3084834e-07
1.0663913e-06
1.2190201e-06
1.3899528e-06
1.5803732e-06
1.7917906e-06
2.0258876e-06
2.2845687e-06
2.5699715e-06
2.8844943e-06
3.230786e-06
3.6119209e-06
4.0312737e-06
4.4926946e-06
5.0005896e-06
5.5600695e-06
6.1771633e-06
6.8591247e-06
7.6148505e-06
8.4554381e-06
9.394906e-06
1.0459602e-05
1.1659117e-05
1.3028378e-05
1.4604505e-05
1.6434307e-05
1.857661e-05
2.1104982e-05
2.4111099e-05
2.770883e-05
3.203926e-05
3.7276882e-05
4.3637229e-05
5.1386273e-05
6.0851938e-05
7.2438294e-05
8.6645299e-05
0.00010408966
0.00012553421
0.00015192333
0.00018604595
0.00022641057
0.00027619534
0.00033765421
0.00041358806
0.0005074856
0.00062369535
0.00076763851
0.00094606595
0.0011673447
0.0011922358
0.0011908784
0.0011895328
0.0011881976
0.0011868666
0.0011855415
0.0011842511
0.0011831437
0.0011822472
0.0011815188
0.0011809365
0.0011804747
0.0011801107
0.0011798278
0.0011796181
0.001179482