/*--------------------------------*- C++ -*----------------------------------*\
  =========                 |
  \\      /  F ield         | OpenFOAM: The Open Source CFD Toolbox
   \\    /   O peration     | Website:  https://openfoam.org
    \\  /    A nd           | Version:  12
     \\/     M anipulation  |
\*---------------------------------------------------------------------------*/
FoamFile
{
    format      ascii;
    class       volScalarField;
    location    "0.061";
    object      k;
}
// * * * * * * * * * * * * * * * * * * * * * * * * * * * * * * * * * * * * * //

dimensions      [0 2 -2 0 0 0 0];

internalField   nonuniform List<scalar> 
16000
(
0.048601152
0.021538541
0.022087329
0.016258341
0.013824411
0.012535619
0.011762676
0.011304551
0.010991047
0.01078119
0.010626326
0.010511039
0.010421071
0.010349869
0.01029267
0.01024656
0.010208906
0.010177923
0.01015275
0.010132119
0.010115388
0.010101737
0.010090875
0.01008229
0.010075644
0.010070702
0.010067241
0.010065102
0.010064149
0.010064257
0.010065309
0.010067207
0.010069876
0.010073252
0.010077282
0.010081914
0.010087098
0.010092781
0.010098915
0.010105451
0.010112335
0.010119508
0.010126916
0.010134507
0.010142218
0.010149986
0.010157755
0.01016547
0.010173081
0.010180535
0.010187789
0.010194803
0.010201548
0.010208001
0.010214145
0.010219959
0.010225409
0.010230448
0.010235013
0.010239031
0.010242394
0.010244923
0.010246379
0.010246448
0.010244764
0.010241006
0.010235115
0.010227665
0.010220164
0.010214762
0.010213286
0.010216165
0.010221788
0.010226667
0.010226658
0.010218219
0.01019887
0.010168068
0.010124182
0.010118925
0.044772817
0.020369799
0.020692517
0.015724338
0.013486375
0.012329799
0.011602354
0.011186478
0.010891093
0.01069796
0.010553227
0.010446524
0.010362869
0.010297055
0.010244238
0.010201916
0.010167607
0.010139474
0.010116845
0.010098469
0.010083902
0.010072138
0.010063031
0.010056104
0.010051002
0.010047509
0.010045412
0.010044553
0.010044804
0.010046048
0.010048169
0.010051071
0.010054676
0.01005892
0.010063748
0.010069109
0.010074954
0.010081231
0.010087892
0.01009489
0.010102174
0.010109685
0.010117373
0.010125186
0.010133068
0.010140958
0.010148801
0.010156546
0.010164145
0.01017155
0.010178717
0.010185609
0.010192198
0.010198463
0.010204394
0.01020998
0.010215202
0.010220023
0.010224386
0.010228214
0.010231403
0.010233779
0.010235104
0.010235069
0.010233324
0.010229592
0.01022385
0.01021665
0.010209412
0.01020418
0.010202636
0.010205038
0.010209774
0.010213618
0.010212719
0.010203601
0.010183573
0.010151288
0.010112513
0.010104143
0.041208575
0.019545446
0.019401372
0.015177147
0.013141696
0.012108691
0.011436845
0.011062349
0.010789223
0.010613873
0.01048006
0.010382374
0.010305497
0.010245368
0.010197246
0.010158926
0.010128154
0.010103051
0.010083175
0.010067204
0.010054939
0.010045206
0.010037956
0.010032783
0.010029318
0.010027356
0.010026699
0.010027192
0.01002871
0.010031144
0.010034383
0.01003833
0.010042906
0.010048044
0.01005369
0.010059791
0.010066298
0.010073162
0.010080332
0.010087763
0.010095406
0.010103207
0.010111113
0.010119079
0.010127051
0.010134973
0.010142792
0.010150462
0.010157938
0.010165178
0.01017214
0.010178792
0.010185108
0.01019107
0.010196672
0.010201911
0.01020678
0.010211254
0.010215281
0.010218784
0.010221651
0.010223713
0.010224731
0.0102244
0.010222384
0.01021845
0.010212642
0.010205538
0.010198489
0.010193402
0.010191789
0.010193727
0.010197586
0.010200394
0.010198568
0.010188615
0.010167464
0.010134237
0.010101011
0.01008988
0.03809856
0.018983954
0.018283684
0.014686304
0.012829712
0.011907479
0.011285484
0.010948633
0.010695938
0.01053669
0.010413324
0.010323978
0.010253569
0.010198822
0.010155198
0.010120708
0.010093354
0.010071152
0.010053972
0.010040345
0.010030305
0.010022577
0.010017151
0.010013698
0.010011843
0.01001139
0.01001215
0.010013971
0.010016733
0.010020329
0.010024653
0.010029607
0.010035109
0.010041092
0.010047497
0.010054272
0.010061367
0.010068733
0.010076321
0.010084085
0.01009198
0.010099956
0.010107964
0.010115957
0.010123893
0.010131716
0.01013938
0.010146841
0.010154061
0.010161003
0.010167632
0.010173919
0.010179842
0.010185388
0.010190553
0.01019534
0.010199753
0.010203776
0.010207365
0.01021044
0.010212884
0.010214526
0.010215132
0.010214402
0.010212016
0.010207774
0.010201783
0.010194653
0.010187661
0.010182557
0.010180687
0.010182015
0.010184952
0.010186775
0.010184106
0.010173367
0.010151254
0.010118617
0.010089687
0.010075749
0.034752024
0.01867905
0.017316911
0.014231559
0.012539442
0.011717798
0.011143767
0.010841794
0.010609071
0.010464934
0.010351807
0.010270422
0.010206344
0.010156827
0.010117617
0.010086874
0.010062915
0.010043575
0.010029086
0.010017788
0.010009913
0.010004203
0.010000612
0.0099988743
0.0099986341
0.0099996925
0.010001871
0.010005021
0.01000902
0.010013765
0.010019152
0.010025084
0.010031474
0.010038253
0.010045359
0.010052739
0.010060343
0.010068122
0.010076028
0.010084017
0.010092048
0.010100076
0.010108054
0.010115942
0.010123702
0.010131288
0.010138654
0.010145765
0.010152588
0.010159094
0.010165254
0.010171046
0.010176452
0.010181462
0.010186076
0.010190302
0.01019415
0.010197613
0.010200655
0.010203193
0.010205105
0.010206214
0.01020629
0.010205044
0.010202175
0.010197513
0.010191219
0.010183943
0.010176901
0.010171667
0.010169423
0.010170058
0.010172048
0.010172909
0.010169437
0.010157955
0.010135253
0.010103763
0.010078308
0.010061953
0.032999486
0.018619547
0.016587301
0.013814788
0.012272463
0.011541509
0.011012984
0.010743001
0.010529498
0.010399296
0.010296095
0.010222224
0.010164267
0.010119791
0.010084873
0.010057763
0.010037157
0.010020641
0.010008836
0.009999862
0.0099940754
0.0099903936
0.0099886701
0.009988627
0.0099900029
0.0099925738
0.0099961669
0.010000634
0.010005851
0.010011717
0.010018128
0.010024985
0.010032201
0.0100397
0.01004742
0.010055305
0.010063306
0.010071375
0.010079468
0.010087543
0.010095563
0.010103489
0.010111283
0.010118908
0.010126335
0.010133524
0.010140439
0.010147047
0.010153325
0.010159251
0.010164804
0.010169968
0.010174731
0.010179089
0.010183043
0.010186603
0.010189785
0.010192588
0.010194982
0.010196887
0.010198169
0.010198649
0.010198095
0.010196235
0.010192791
0.010187623
0.010180936
0.010173414
0.010166217
0.010160749
0.010158028
0.01015789
0.010158892
0.010158784
0.010154536
0.010142435
0.010119792
0.010089821
0.010067022
0.0100488
0.030571587
0.018722292
0.016074519
0.013432739
0.012026566
0.011378
0.010892869
0.01065209
0.010457075
0.010339654
0.010246047
0.010179304
0.010127285
0.010087705
0.010057004
0.010033449
0.01001618
0.010002481
0.0099933621
0.009986756
0.0099830368
0.009981414
0.0099816818
0.0099832506
0.0099862515
0.0099903373
0.0099953374
0.010001104
0.01000751
0.010014451
0.010021826
0.010029534
0.010037484
0.010045599
0.010053814
0.010062073
0.010070328
0.010078533
0.010086649
0.01009464
0.010102474
0.010110122
0.010117553
0.010124739
0.010131657
0.01013828
0.010144578
0.010150526
0.010156107
0.010161308
0.010166116
0.010170523
0.010174523
0.010178115
0.010181304
0.0101841
0.01018652
0.010188571
0.010190227
0.010191407
0.010191973
0.010191737
0.010190467
0.010187906
0.010183805
0.010178061
0.010170911
0.010163059
0.010155616
0.010149826
0.010146546
0.010145573
0.010145542
0.010144433
0.010139407
0.01012699
0.010105086
0.010076898
0.010056182
0.010036431
0.028034887
0.018906886
0.01565177
0.013082988
0.011800256
0.011226956
0.010782752
0.010568828
0.010391392
0.010285852
0.010201561
0.010141676
0.010095469
0.010060706
0.010034201
0.010014171
0.010000229
0.009989384
0.0099828903
0.0099787917
0.0099771172
0.0099776447
0.0099796192
0.009983116
0.0099877435
0.0099933351
0.0099997187
0.010006745
0.010014283
0.010022225
0.01003047
0.010038916
0.010047472
0.010056057
0.010064606
0.010073065
0.010081388
0.010089536
0.010097476
0.010105179
0.010112623
0.010119788
0.010126656
0.010133207
0.010139429
0.010145306
0.010150818
0.010155946
0.010160681
0.010165018
0.010168951
0.010172479
0.010175603
0.010178325
0.010180652
0.010182595
0.01018417
0.010185388
0.010186224
0.010186602
0.010186379
0.010185356
0.0101833
0.010179967
0.010175145
0.010168772
0.010161109
0.010152862
0.010145089
0.010138897
0.010134978
0.010133099
0.010132
0.010129875
0.010124117
0.010112102
0.010091243
0.010065015
0.010045944
0.010026026
0.026385938
0.019086386
0.015146859
0.012762371
0.011591961
0.011087553
0.010682044
0.01049245
0.010332575
0.01023815
0.01016289
0.010109656
0.010069156
0.010039157
0.010016844
0.010000342
0.0099896434
0.0099818047
0.0099776409
0.0099762738
0.0099755229
0.0099794283
0.0099834109
0.0099886338
0.0099948792
0.010001943
0.010009656
0.010017867
0.010026441
0.010035266
0.010044239
0.010053262
0.010062241
0.010071099
0.010079771
0.010088208
0.010096369
0.010104223
0.010111748
0.010118927
0.010125748
0.010132205
0.010138292
0.010144004
0.010149337
0.010154287
0.010158845
0.010163
0.010166747
0.01017009
0.01017303
0.010175573
0.010177721
0.010179483
0.010180865
0.010181879
0.01018254
0.010182856
0.010182809
0.01018232
0.010181246
0.010179379
0.010176484
0.010172329
0.010166738
0.010159695
0.010151484
0.01014279
0.010134615
0.010127944
0.010123301
0.010120415
0.0101182
0.010115085
0.010109013
0.01009787
0.010078356
0.010054177
0.010036473
0.010017819
0.024717813
0.019253696
0.014503289
0.01246825
0.01140176
0.010960221
0.01059169
0.010424129
0.010281211
0.010197011
0.010130478
0.010083719
0.010048824
0.010023543
0.010005423
0.0099925036
0.0099846138
0.0099803329
0.0099769037
0.0099799929
0.0099831262
0.0099873793
0.0099932874
0.010000253
0.010008065
0.010016527
0.010025469
0.010034736
0.010044191
0.010053719
0.010063217
0.01007259
0.01008175
0.01009062
0.010099146
0.010107284
0.010115004
0.010122288
0.010129126
0.010135516
0.010141462
0.010146972
0.010152056
0.010156719
0.010160973
0.010164824
0.010168273
0.010171315
0.010173952
0.010176191
0.01017804
0.010179507
0.010180602
0.010181332
0.010181704
0.01018173
0.010181421
0.010180785
0.010179803
0.010178399
0.010176426
0.010173673
0.010169902
0.010164892
0.010158503
0.010150764
0.010141977
0.010132791
0.010124139
0.010116911
0.010111467
0.010107477
0.01010409
0.010100072
0.010094595
0.010084434
0.01006653
0.010044437
0.010027947
0.010010701
0.023231468
0.019391013
0.013981908
0.0121987
0.011230199
0.010845426
0.010512123
0.010364546
0.010237431
0.010162825
0.010104737
0.010064338
0.010034976
0.010014399
0.010000466
0.0099913234
0.0099844217
0.0099856282
0.0099871969
0.0099901554
0.0099953272
0.010002017
0.010009775
0.010018404
0.01002768
0.010037403
0.010047403
0.010057525
0.01006763
0.010077602
0.010087342
0.010096762
0.010105783
0.010114341
0.010122389
0.010129899
0.010136856
0.010143258
0.010149113
0.010154435
0.010159247
0.010163572
0.010167435
0.010170857
0.010173859
0.010176458
0.010178663
0.010180478
0.010181906
0.010182956
0.01018364
0.01018397
0.010183954
0.010183602
0.010182921
0.010181918
0.010180604
0.010178982
0.010177032
0.010174679
0.010171774
0.010168104
0.010163436
0.010157558
0.01015036
0.010141909
0.01013252
0.010122795
0.010113582
0.010105698
0.010099402
0.010094304
0.010089817
0.01008581
0.010080951
0.010071906
0.010055837
0.010035866
0.010020603
0.010005613
0.021901642
0.019516353
0.013528029
0.011954125
0.011077154
0.010742768
0.010443094
0.010313356
0.01020158
0.010136051
0.010086154
0.010052057
0.010028192
0.010012342
0.01000257
0.0099976265
0.009996684
0.0099977357
0.010001709
0.010007741
0.010015182
0.010023792
0.010033312
0.01004346
0.010054015
0.010064774
0.010075569
0.010086246
0.01009667
0.01010673
0.010116336
0.010125414
0.010133902
0.010141752
0.010148939
0.01015545
0.010161294
0.010166486
0.010171055
0.010175035
0.010178465
0.010181386
0.010183836
0.01018585
0.010187459
0.010188685
0.010189547
0.010190051
0.010190202
0.01019001
0.010189486
0.010188642
0.010187487
0.010186028
0.010184272
0.010182223
0.010179886
0.010177262
0.010174327
0.010171005
0.010167149
0.010162547
0.010156972
0.010150229
0.010142225
0.010133051
0.010123034
0.010112726
0.010102865
0.010094194
0.010086988
0.01008093
0.010075935
0.010072398
0.010068199
0.010060342
0.010046278
0.010028535
0.01001457
0.010001439
0.020699029
0.019593721
0.013109101
0.011734366
0.010942125
0.010652226
0.010384772
0.010271148
0.010173998
0.010117213
0.010075309
0.010047517
0.010029155
0.010018086
0.010012549
0.010011228
0.010013204
0.010018024
0.010024784
0.010033126
0.010042709
0.010053183
0.010064257
0.010075672
0.010087203
0.010098651
0.010109851
0.01012066
0.010130953
0.010140636
0.010149634
0.010157897
0.01016539
0.01017209
0.010177996
0.010183122
0.010187498
0.010191163
0.010194165
0.010196558
0.010198395
0.010199733
0.010200621
0.010201103
0.010201218
0.010200994
0.010200451
0.0101996
0.010198444
0.010196989
0.010195245
0.010193221
0.010190924
0.01018836
0.010185531
0.010182437
0.01017908
0.010175454
0.010171532
0.010167238
0.010162425
0.010156888
0.010150411
0.010142811
0.010134012
0.010124112
0.010113436
0.010102506
0.010091939
0.010082365
0.010074171
0.01006735
0.01006305
0.010059964
0.010056418
0.010049751
0.010037767
0.010022381
0.010009857
0.0099982051
0.019617906
0.019591988
0.012730061
0.011537292
0.010824379
0.010573887
0.010337279
0.010238283
0.010155173
0.010106974
0.010072944
0.010051505
0.010038692
0.010032465
0.010031221
0.010033772
0.010039235
0.010046909
0.010056308
0.010066954
0.010078458
0.010090492
0.010102775
0.010115049
0.010127098
0.01013873
0.010149796
0.010160172
0.01016976
0.010178493
0.010186328
0.010193244
0.010199242
0.010204333
0.010208545
0.010211918
0.010214507
0.010216371
0.010217577
0.010218192
0.010218284
0.010217917
0.010217149
0.010216031
0.010214603
0.010212897
0.010210933
0.010208721
0.010206263
0.01020356
0.010200615
0.010197433
0.010194019
0.010190374
0.010186495
0.010182379
0.01017802
0.010173408
0.010168511
0.010163252
0.010157491
0.010151032
0.010143666
0.010135226
0.010125644
0.010115016
0.010103656
0.01009207
0.010080789
0.010070305
0.010061231
0.01005501
0.010051201
0.010048586
0.010045657
0.010040124
0.010030178
0.010017258
0.010006454
0.0099965404
0.018643267
0.019319882
0.012387909
0.011362105
0.01072377
0.010507979
0.010300944
0.010215439
0.01014584
0.010106246
0.010080032
0.010065033
0.010057833
0.010056505
0.010059567
0.010065892
0.010074649
0.010085202
0.010097001
0.010109599
0.010122623
0.010135745
0.010148689
0.010161214
0.010173124
0.010184256
0.010194488
0.010203736
0.010211945
0.010219088
0.010225162
0.010230191
0.01023421
0.010237269
0.010239424
0.010240742
0.010241296
0.010241162
0.010240419
0.010239144
0.01023741
0.010235287
0.010232834
0.010230104
0.010227139
0.010223967
0.010220608
0.010217068
0.010213348
0.01020944
0.010205341
0.01020105
0.010196564
0.010191883
0.010186996
0.010181897
0.01017657
0.010171001
0.010165152
0.01015895
0.010152262
0.010144901
0.010136669
0.010127405
0.010117053
0.010105707
0.010093653
0.010081377
0.010069401
0.010058205
0.010049284
0.010043788
0.01004047
0.010038307
0.01003596
0.010031472
0.010023402
0.01001296
0.01000415
0.0099960127
0.017760746
0.018388708
0.012080542
0.011208062
0.010640574
0.010454944
0.010276344
0.010203601
0.010147088
0.010116222
0.010097821
0.010089338
0.01008778
0.01009133
0.01009861
0.010108557
0.01012036
0.01013339
0.010147124
0.010161117
0.010175003
0.010188472
0.010201278
0.010213214
0.010224129
0.01023391
0.010242489
0.010249835
0.010255952
0.010260864
0.010264616
0.010267274
0.01026891
0.010269605
0.010269442
0.010268504
0.010266879
0.010264649
0.0102619
0.010258708
0.010255148
0.010251288
0.010247186
0.01024289
0.010238441
0.010233864
0.010229173
0.010224372
0.010219456
0.010214413
0.010209229
0.010203895
0.010198403
0.010192744
0.010186906
0.010180873
0.010174626
0.010168139
0.010161373
0.010154258
0.01014667
0.010138436
0.010129365
0.010119302
0.010108199
0.010096156
0.010083431
0.01007045
0.010057814
0.010046384
0.010038689
0.010033768
0.010030875
0.010029141
0.010027365
0.010023843
0.010017401
0.010009241
0.010002691
0.009996312
0.016963646
0.017033518
0.011810532
0.011075025
0.010573903
0.01041575
0.010264568
0.010204207
0.010160385
0.010138389
0.010127773
0.010125801
0.0101298
0.010138059
0.010149273
0.010162429
0.010176737
0.01019158
0.010206453
0.010220934
0.010234696
0.010247476
0.010259086
0.01026939
0.010278307
0.010285801
0.010291875
0.010296568
0.01029994
0.010302073
0.010303056
0.010302989
0.010301975
0.010300114
0.010297504
0.010294238
0.010290406
0.01028609
0.010281372
0.010276324
0.010271014
0.010265503
0.010259844
0.010254078
0.01024824
0.010242351
0.010236422
0.010230451
0.010224427
0.010218333
0.010212147
0.010205852
0.01019943
0.010192865
0.01018614
0.010179234
0.010172118
0.010164762
0.010157122
0.01014913
0.010140674
0.010131598
0.010121721
0.010110894
0.010099072
0.010086365
0.010073019
0.01005939
0.010046223
0.010036261
0.010029359
0.010024938
0.0100224
0.010021067
0.010019856
0.010017249
0.01001228
0.01000628
0.010001925
0.0099974978
0.016247822
0.016204734
0.011583168
0.010963427
0.010524715
0.010391808
0.010267131
0.010218953
0.010187439
0.010174394
0.010171456
0.010175835
0.010185096
0.010197612
0.010212138
0.010227703
0.010243544
0.010259081
0.010273864
0.010287541
0.010299864
0.010310664
0.01031985
0.010327388
0.010333292
0.010337614
0.010340435
0.01034186
0.010342004
0.01034099
0.010338942
0.01033598
0.01033222
0.010327771
0.010322732
0.010317195
0.010311242
0.010304949
0.010298386
0.010291615
0.010284694
0.010277671
0.01027059
0.010263486
0.010256385
0.010249304
0.010242248
0.010235212
0.01022818
0.010221131
0.010214035
0.010206865
0.010199596
0.010192202
0.010184661
0.010176944
0.010169018
0.010160846
0.010152378
0.010143551
0.010134264
0.010124378
0.010113734
0.010102193
0.010089702
0.010076361
0.010062437
0.010048415
0.010036115
0.010027364
0.010021216
0.01001722
0.010014989
0.010014018
0.010013354
0.010011645
0.010008093
0.010004015
0.010001245
0.0099982063
0.015605069
0.015216666
0.011389332
0.010873826
0.010493939
0.010384833
0.010285701
0.010249772
0.010230189
0.010226044
0.010230478
0.010240725
0.010254531
0.010270343
0.010286987
0.010303563
0.010319393
0.010333994
0.010347037
0.0103583
0.010367671
0.010375115
0.010380667
0.010384405
0.010386445
0.01038692
0.010385978
0.01038377
0.010380447
0.010376157
0.010371033
0.010365201
0.010358776
0.010351859
0.010344541
0.010336901
0.010329009
0.010320926
0.010312706
0.010304399
0.010296047
0.010287687
0.010279351
0.010271064
0.010262845
0.010254704
0.010246644
0.010238655
0.010230719
0.010222811
0.010214896
0.01020694
0.010198906
0.010190763
0.010182477
0.010174015
0.010165339
0.010156404
0.010147159
0.010137542
0.010127465
0.01011681
0.010105444
0.010093245
0.010080145
0.010066198
0.010051771
0.010037764
0.010027321
0.010019553
0.010014071
0.010010479
0.01000854
0.010007911
0.010007781
0.010006965
0.010004752
0.010002277
0.010000602
0.0099987979
0.015030024
0.014562482
0.011231771
0.01080703
0.0104826
0.010397079
0.010322519
0.010299065
0.010290904
0.010295206
0.01030617
0.01032112
0.010337981
0.010355322
0.010372113
0.01038762
0.010401344
0.010412989
0.010422416
0.010429591
0.010434566
0.010437456
0.010438417
0.01043763
0.010435286
0.010431574
0.010426679
0.010420773
0.010414018
0.010406558
0.010398522
0.010390022
0.010381158
0.010372014
0.010362665
0.010353171
0.010343584
0.010333948
0.0103243
0.010314674
0.010305096
0.010295591
0.010286179
0.010276875
0.01026769
0.010258628
0.010249688
0.010240858
0.01023212
0.010223445
0.010214798
0.010206137
0.010197419
0.010188602
0.010179645
0.010170505
0.010161138
0.010151495
0.010141524
0.010131167
0.01012035
0.010108977
0.010096931
0.010084114
0.010070462
0.010055963
0.010041094
0.010028776
0.010019488
0.010012621
0.010007744
0.010004569
0.010002957
0.010002688
0.010003096
0.010003173
0.010002303
0.010001302
0.010000344
0.0099994032
0.014517291
0.013822626
0.011107139
0.010765753
0.010492434
0.010431944
0.010380683
0.010369579
0.010371681
0.010383013
0.010398599
0.010415972
0.010433336
0.010449519
0.010463771
0.010475647
0.010484928
0.01049157
0.010495663
0.010497365
0.010496885
0.010494458
0.010490329
0.010484734
0.010477902
0.01047004
0.010461334
0.010451949
0.010442032
0.010431705
0.010421077
0.010410237
0.01039926
0.010388208
0.010377132
0.010366074
0.010355067
0.010344136
0.010333303
0.010322583
0.01031199
0.010301535
0.010291228
0.010281072
0.010271073
0.010261227
0.01025153
0.010241969
0.010232525
0.010223169
0.010213865
0.010204572
0.010195241
0.010185822
0.010176262
0.010166512
0.010156517
0.010146226
0.010135584
0.010124541
0.010113041
0.010101004
0.01008832
0.010074883
0.010060691
0.010045954
0.010031574
0.010020854
0.010012569
0.010006461
0.010002154
0.0099994326
0.0099982159
0.0099983433
0.0099992631
0.010000149
0.010000571
0.010001081
0.010000865
0.010000377
0.014066903
0.013259192
0.011020293
0.010754828
0.010527488
0.01049352
0.010463307
0.010463129
0.010472915
0.010488287
0.010505127
0.0105214
0.010535776
0.010547523
0.010556301
0.010562035
0.010564825
0.010564882
0.010562487
0.010557947
0.010551569
0.010543648
0.010534455
0.010524236
0.010513208
0.01050156
0.010489451
0.010477017
0.010464371
0.010451606
0.0104388
0.010426012
0.010413293
0.010400679
0.0103882
0.010375877
0.010363725
0.010351754
0.01033997
0.010328375
0.010316969
0.010305752
0.010294721
0.010283874
0.010273206
0.010262709
0.010252374
0.010242187
0.010232127
0.010222169
0.010212278
0.010202415
0.010192529
0.010182567
0.010172469
0.010162174
0.010151621
0.01014075
0.010129505
0.010117836
0.010105701
0.010093045
0.010079777
0.010065757
0.010050936
0.010035892
0.010023586
0.010013944
0.010006574
0.01000114
0.0099973798
0.0099951378
0.0099943555
0.009994858
0.0099961317
0.009997523
0.0099989591
0.010001084
0.010002383
0.010002328
0.013684501
0.012810214
0.010973622
0.010779319
0.010615648
0.010584827
0.010571377
0.010578403
0.010591299
0.010606012
0.010619509
0.010630425
0.010638086
0.010642299
0.010643167
0.010640962
0.010636038
0.01062878
0.010619573
0.01060878
0.010596725
0.010583692
0.010569927
0.010555636
0.010540993
0.010526142
0.010511199
0.010496259
0.010481396
0.010466669
0.010452123
0.010437791
0.010423698
0.010409859
0.010396284
0.010382977
0.010369936
0.010357158
0.010344637
0.010332363
0.010320327
0.010308518
0.010296924
0.010285533
0.010274333
0.010263312
0.010252455
0.010241744
0.01023116
0.010220676
0.010210263
0.010199882
0.010189488
0.010179029
0.010168442
0.010157662
0.010146619
0.010135245
0.010123478
0.010111262
0.010098547
0.010085288
0.010071439
0.010056964
0.010041988
0.010027614
0.01001674
0.010008122
0.010001568
0.0099967642
0.0099935116
0.0099917022
0.0099912698
0.0099919865
0.0099933306
0.009994787
0.0099966431
0.0099998014
0.010002842
0.010004859
0.013379431
0.012451351
0.010971179
0.010838801
0.010721437
0.010705041
0.010701018
0.010709005
0.010718762
0.010727205
0.010732541
0.010734222
0.010732239
0.010726882
0.010718582
0.010707817
0.010695054
0.010680724
0.010665202
0.010648813
0.010631829
0.01061447
0.010596918
0.010579316
0.01056178
0.010544398
0.01052724
0.010510358
0.01049379
0.010477562
0.010461691
0.010446188
0.010431055
0.010416291
0.01040189
0.010387841
0.010374132
0.010360748
0.010347674
0.010334891
0.010322382
0.010310128
0.010298109
0.010286307
0.010274703
0.010263278
0.010252011
0.010240882
0.010229868
0.010218942
0.010208075
0.010197232
0.010186374
0.010175452
0.01016441
0.010153184
0.010141703
0.010129893
0.010117687
0.01010502
0.010091832
0.010078056
0.010063633
0.010048602
0.010033491
0.010020902
0.010011019
0.010003323
0.0099974845
0.009993233
0.0099903873
0.0099888528
0.0099885385
0.0099891867
0.0099903244
0.0099916206
0.0099935933
0.0099971309
0.010000868
0.010002874
0.013169094
0.012193387
0.011015625
0.010940073
0.010857859
0.010845341
0.010841866
0.010843406
0.010843627
0.010840828
0.010834402
0.010824514
0.010811617
0.010796256
0.010778971
0.010760254
0.010740526
0.010720139
0.010699376
0.010678464
0.01065758
0.010636861
0.01061641
0.010596306
0.010576604
0.010557344
0.010538551
0.010520242
0.010502425
0.0104851
0.010468263
0.010451904
0.010436012
0.010420571
0.010405564
0.010390972
0.010376772
0.010362944
0.010349464
0.010336308
0.010323453
0.010310874
0.010298546
0.010286446
0.010274548
0.010262828
0.010251261
0.01023982
0.010228478
0.010217206
0.010205972
0.010194742
0.010183478
0.010172137
0.01016067
0.010149021
0.010137127
0.010124917
0.01011232
0.010099271
0.010085709
0.010071591
0.0100569
0.010041743
0.010026798
0.010015408
0.010006338
0.0099993428
0.0099940486
0.0099901963
0.0099876071
0.0099861819
0.009985813
0.0099862667
0.0099871929
0.0099884251
0.0099904473
0.0099939163
0.0099980616
0.010001428
0.013048015
0.012035277
0.011118103
0.011071674
0.011008864
0.010992108
0.010979382
0.010967772
0.010953783
0.010936984
0.010917546
0.010895967
0.010872802
0.010848559
0.010823671
0.010798484
0.010773271
0.01074824
0.010723545
0.010699299
0.010675582
0.010652449
0.010629935
0.01060806
0.010586832
0.010566252
0.010546313
0.010527004
0.010508309
0.01049021
0.010472688
0.010455721
0.010439285
0.010423357
0.01040791
0.010392921
0.010378361
0.010364205
0.010350425
0.010336993
0.010323882
0.010311065
0.010298513
0.010286199
0.010274094
0.01026217
0.010250395
0.010238741
0.010227174
0.01021566
0.010204165
0.010192651
0.010181076
0.010169398
0.010157572
0.010145547
0.010133269
0.01012068
0.010107713
0.0100943
0.01008037
0.010065868
0.010050815
0.010035545
0.010021727
0.010011044
0.010002555
0.009996006
0.0099910472
0.009987437
0.0099850174
0.0099836996
0.0099833777
0.0099838482
0.0099848552
0.0099863192
0.0099885925
0.0099920702
0.0099962242
0.0099999395
0.012990734
0.011969347
0.011283327
0.011217171
0.011157851
0.011126426
0.011097589
0.011069318
0.011039983
0.011009647
0.010978611
0.010947263
0.010915947
0.01088494
0.010854449
0.010824621
0.010795557
0.01076732
0.010739947
0.010713453
0.01068784
0.0106631
0.010639215
0.010616163
0.01059392
0.010572458
0.010551748
0.010531761
0.010512465
0.010493832
0.01047583
0.010458431
0.010441603
0.010425318
0.010409545
0.010394255
0.010379419
0.010365007
0.01035099
0.010337339
0.010324024
0.010311017
0.010298287
0.010285806
0.010273544
0.01026147
0.010249552
0.010237756
0.010226047
0.010214388
0.01020274
0.01019106
0.010179304
0.010167425
0.010155373
0.010143098
0.010130546
0.010117661
0.010104384
0.010090654
0.010076412
0.010061615
0.010046326
0.010031034
0.010018045
0.010007801
0.0099996842
0.0099933997
0.0099886507
0.0099852211
0.0099829709
0.0099818125
0.0099816306
0.009982218
0.0099833507
0.0099850067
0.009987487
0.0099910493
0.0099952566
0.0099989461
0.013008185
0.011933713
0.011438931
0.011352526
0.011280865
0.011230631
0.011184385
0.011140851
0.011098776
0.011058014
0.011018536
0.010980381
0.010943578
0.010908139
0.010874053
0.010841296
0.010809831
0.010779614
0.010750598
0.010722731
0.010695962
0.010670241
0.010645517
0.010621742
0.01059887
0.010576856
0.010555657
0.010535233
0.010515544
0.010496552
0.010478223
0.010460521
0.010443411
0.010426863
0.010410843
0.010395319
0.010380262
0.010365641
0.010351425
0.010337585
0.010324091
0.010310914
0.010298025
0.010285394
0.010272992
0.010260788
0.01024875
0.010236845
0.010225037
0.01021329
0.010201561
0.01018981
0.010177991
0.010166053
0.010153945
0.010141612
0.010128992
0.010116022
0.010102635
0.010088762
0.010074339
0.010059328
0.010043818
0.010028413
0.010015854
0.01000584
0.0099979166
0.0099917831
0.0099871692
0.0099838645
0.0099817089
0.0099805865
0.0099803963
0.0099810024
0.0099822501
0.0099841305
0.0099867921
0.0099903362
0.0099944737
0.0099984205
0.013106589
0.011964986
0.011557312
0.011450515
0.011363152
0.011296708
0.01123738
0.011183391
0.011133138
0.011085996
0.011041533
0.010999468
0.010959579
0.010921685
0.010885633
0.010851288
0.010818529
0.010787249
0.010757352
0.010728748
0.010701357
0.010675105
0.010649925
0.010625752
0.010602529
0.010580201
0.010558719
0.010538036
0.010518108
0.010498893
0.010480352
0.010462448
0.010445146
0.01042841
0.010412207
0.010396506
0.010381274
0.01036648
0.010352094
0.010338087
0.010324429
0.01031109
0.010298043
0.010285258
0.010272707
0.010260359
0.010248186
0.010236155
0.010224233
0.010212384
0.01020057
0.010188752
0.010176885
0.010164923
0.010152816
0.010140509
0.010127941
0.010115047
0.010101755
0.010087987
0.010073671
0.010058759
0.010043326
0.010027953
0.010015305
0.010005254
0.0099972954
0.0099911359
0.0099865065
0.0099831979
0.0099810384
0.0099799367
0.0099796763
0.0099802787
0.0099816583
0.0099837117
0.0099865053
0.0099900065
0.0099940138
0.0099980952
0.013232607
0.012021343
0.011620825
0.011499734
0.011402271
0.011327332
0.011261847
0.011203302
0.011149681
0.011100018
0.011053648
0.011010122
0.0109691
0.010930316
0.010893556
0.010858638
0.01082541
0.010793739
0.010763509
0.010734617
0.010706972
0.010680492
0.010655102
0.010630734
0.010607327
0.010584823
0.010563169
0.010542318
0.010522223
0.010502842
0.010484134
0.010466062
0.01044859
0.010431682
0.010415305
0.010399426
0.010384014
0.010369037
0.010354466
0.010340269
0.010326417
0.010312883
0.010299636
0.01028665
0.010273895
0.010261343
0.010248965
0.01023673
0.010224606
0.01021256
0.010200556
0.010188556
0.010176519
0.010164402
0.010152157
0.010139733
0.010127072
0.01011411
0.010100777
0.010086998
0.010072699
0.010057834
0.010042478
0.010027224
0.010014804
0.010004847
0.0099969481
0.0099908154
0.0099862009
0.0099829034
0.0099807684
0.0099797031
0.0099794164
0.0099796659
0.0099814116
0.0099835098
0.009986372
0.0099898363
0.0099937594
0.0099979292
67.825474
368.41415
123.47963
14.885197
0.41272661
0.021758633
0.020349245
0.02002749
0.019742542
0.018657366
0.017275932
0.016075116
0.015167169
0.01458314
0.014168995
0.013775019
0.013389114
0.013049456
0.012767736
0.012533244
0.012333673
0.012161243
0.012011014
0.011879248
0.011762876
0.011659377
0.011566743
0.011483377
0.011408023
0.011339683
0.011277533
0.011220856
0.011169025
0.011121508
0.011077878
0.011037791
0.011000949
0.010967087
0.010935959
0.01090734
0.010881033
0.010856852
0.010834613
0.010814151
0.010795315
0.010777963
0.010761952
0.010747143
0.010733411
0.01072064
0.010708717
0.010697542
0.010687029
0.010677108