/*--------------------------------*- C++ -*----------------------------------*\
  =========                 |
  \\      /  F ield         | OpenFOAM: The Open Source CFD Toolbox
   \\    /   O peration     | Website:  https://openfoam.org
    \\  /    A nd           | Version:  12
     \\/     M anipulation  |
\*---------------------------------------------------------------------------*/
FoamFile
{
    format      ascii;
    class       surfaceScalarField;
    location    "0.061";
    object      phi;
}
// * * * * * * * * * * * * * * * * * * * * * * * * * * * * * * * * * * * * * //

dimensions      [1 0 -1 0 0 0 0];

internalField   nonuniform List<scalar> 
31760
(
-0.00065103617
-0.051198275
0.051847137
-0.0016280693
-0.064700235
0.065674968
-0.0026197191
-0.063333354
0.064321183
-0.0036551912
-0.069033575
0.070066774
-0.0047451197
-0.070720158
0.071807663
-0.0058634678
-0.075011867
0.07612773
-0.0070533557
-0.07796088
0.079148148
-0.0082816397
-0.081992948
0.083218529
-0.0095716288
-0.085641196
0.086928346
-0.010920462
-0.089785761
0.091131643
-0.012325734
-0.093947809
0.095349983
-0.013798932
-0.09838903
0.099858997
-0.015334844
-0.1029958
0.10452833
-0.016941729
-0.10783063
0.10943398
-0.018619223
-0.11288219
0.11455598
-0.020372105
-0.11816731
0.11991632
-0.02220308
-0.1236941
0.12552103
-0.024115383
-0.1294741
0.13138217
-0.026112289
-0.1355184
0.13751089
-0.028197228
-0.14183839
0.14391871
-0.030373669
-0.14844654
0.15061816
-0.032645404
-0.15535493
0.15762164
-0.03501606
-0.16257725
0.16494266
-0.037489575
-0.1701273
0.17259536
-0.04006895
-0.17801972
0.18059342
-0.042758803
-0.1862687
0.18895266
-0.045563063
-0.19489059
0.19768873
-0.048485185
-0.2039021
0.20681788
-0.051528698
-0.21332024
0.21635718
-0.05469768
-0.22316317
0.22632536
-0.05799547
-0.23344993
0.23674071
-0.061425425
-0.2442004
0.24762314
-0.064990383
-0.25543618
0.25899372
-0.068693412
-0.26717846
0.27087388
-0.072536515
-0.27945139
0.28328673
-0.076521356
-0.29227934
0.29625627
-0.080649259
-0.30568809
0.30980799
-0.084920671
-0.31970543
0.32396877
-0.089335366
-0.33435939
0.33876601
-0.093891958
-0.34968149
0.35423008
-0.098588355
-0.36570357
0.3703921
-0.10342101
-0.38245944
0.38728445
-0.10838516
-0.39998522
0.40494205
-0.11347479
-0.41831884
0.42340159
-0.11868194
-0.43750073
0.44270155
-0.12399714
-0.45757259
0.46288219
-0.12940847
-0.47857942
0.48398605
-0.13490256
-0.5005677
0.5060582
-0.14046336
-0.52358762
0.5291462
-0.14607196
-0.54769111
0.5532991
-0.1517066
-0.57293273
0.57856867
-0.15734295
-0.59937073
0.60501062
-0.16295268
-0.62706572
0.63268158
-0.16850377
-0.65608169
0.66164188
-0.17396053
-0.68648578
0.69195502
-0.1792817
-0.71834957
0.72368701
-0.18442175
-0.75174766
0.7569082
-0.18932972
-0.78675909
0.79169216
-0.19394752
-0.82346782
0.82811581
-0.19821119
-0.86196231
0.8662618
-0.20204876
-0.90233578
0.90621549
-0.20538046
-0.94468599
0.94806699
-0.20811714
-0.98911572
0.99190998
-0.2101598
-1.0357315
1.0378415
-0.21139826
-1.0846409
1.0859585
-0.21171059
-1.1359534
1.1363592
-0.21096016
-1.1897756
1.1891359
-0.2090021
-1.2462083
1.2443813
-0.20567183
-1.30535
1.3021741
-0.20078661
-1.3672871
1.3625816
-0.19415022
-1.4320931
1.4256628
-0.18554915
-1.4998254
1.4914566
-0.17473465
-1.5705301
1.5599737
-0.16144213
-1.6442363
1.6312274
-0.14537091
-1.7209804
1.7052165
-0.12621317
-1.8008223
1.7819872
-0.10352759
-1.8839431
1.8615676
-0.077299918
-1.9707062
1.944733
-0.046091649
-2.0612654
2.0302414
-2.1585709
2.1234844
-0.00064507552
-0.050554749
-0.0015249703
-0.063821927
-0.0024330412
-0.062428484
-0.0034051125
-0.068063133
-0.0043888469
-0.06973822
-0.0054502844
-0.073952278
-0.0065276944
-0.076885461
-0.0076856935
-0.080837014
-0.0088702913
-0.084458794
-0.010129877
-0.088528476
-0.011433227
-0.092646888
-0.012804732
-0.09702007
-0.014234479
-0.10156873
-0.01573154
-0.10633637
-0.017296136
-0.11132052
-0.018932447
-0.11653406
-0.020642686
-0.12198707
-0.02243066
-0.12768947
-0.024299623
-0.13365294
-0.026253194
-0.13988846
-0.028295075
-0.14640846
-0.030428557
-0.1532254
-0.032657792
-0.16035211
-0.034986513
-0.16780283
-0.037419569
-0.17559107
-0.039959813
-0.18373302
-0.042611993
-0.19224313
-0.045379893
-0.20113907
-0.04826785
-0.21043731
-0.051279487
-0.22015671
-0.054418941
-0.23031578
-0.057689598
-0.24093519
-0.061094814
-0.25203652
-0.064637633
-0.26364128
-0.068320525
-0.27577421
-0.072145861
-0.28845975
-0.076114841
-0.30172486
-0.080228999
-0.31559697
-0.084487683
-0.3301063
-0.088890483
-0.34528412
-0.093435766
-0.36116347
-0.098120373
-0.37777969
-0.10293984
-0.39517019
-0.10788897
-0.41337361
-0.11296049
-0.43243244
-0.11814557
-0.45238989
-0.12343369
-0.47329269
-0.12881178
-0.49518976
-0.13426509
-0.518133
-0.13977646
-0.54217671
-0.14532582
-0.56737832
-0.1508903
-0.59379884
-0.15644374
-0.62150215
-0.16195673
-0.65055543
-0.16739597
-0.68102972
-0.1727238
-0.71300091
-0.17789828
-0.7465479
-0.18287227
-0.78175487
-0.18759271
-0.81871167
-0.19200095
-0.85751224
-0.19603108
-0.89825698
-0.19960983
-0.94105077
-0.20265537
-0.98600478
-0.20507798
-1.033233
-0.20677684
-1.0828539
-0.20764179
-1.1349855
-0.20754701
-1.1897499
-0.20635811
-1.2472562
-0.20392671
-1.3076172
-0.20008847
-1.370936
-0.19466514
-1.4373011
-0.1874561
-1.5067932
-0.17823929
-1.5794802
-0.16676524
-1.6554186
-0.1527667
-1.7346642
-0.13593987
-1.8173214
-0.11596339
-1.9036069
-0.092581594
-1.9938335
-0.064944661
-2.0887252
-2.1900039
-0.00058258731
-0.049973521
-0.0014031344
-0.063002682
-0.0022248044
-0.061607258
-0.0031397322
-0.067149654
-0.0040441253
-0.068835359
-0.0050352783
-0.072962685
-0.0060285193
-0.075893865
-0.0071057331
-0.079761481
-0.0082028602
-0.083363446
-0.0093732468
-0.087359935
-0.010584114
-0.091437955
-0.011859492
-0.095746704
-0.013190435
-0.10023989
-0.01458522
-0.10494377
-0.016044544
-0.10986348
-0.017572027
-0.11500895
-0.019171048
-0.12039051
-0.020844588
-0.1260185
-0.022596956
-0.13190324
-0.024431005
-0.13805718
-0.026351262
-0.14449106
-0.028361285
-0.15121834
-0.030464989
-0.15825148
-0.0326672
-0.16560379
-0.034971225
-0.17329031
-0.037382321
-0.18132529
-0.039903978
-0.18972494
-0.042541316
-0.19850529
-0.045297937
-0.20768432
-0.048179048
-0.21727931
-0.051187809
-0.2273108
-0.054328606
-0.23779821
-0.057605307
-0.24876367
-0.061020648
-0.2602298
-0.06457828
-0.27222042
-0.068280418
-0.28476139
-0.072129347
-0.29787961
-0.076125611
-0.31160424
-0.080270251
-0.32596499
-0.084562758
-0.34099468
-0.089001325
-0.35672762
-0.093583798
-0.37319951
-0.098306724
-0.39044903
-0.10316452
-0.40851693
-0.10815104
-0.42744626
-0.11325808
-0.44728225
-0.11847612
-0.46807291
-0.1237929
-0.4898699
-0.12919543
-0.51272583
-0.13466754
-0.53669811
-0.14019043
-0.56184682
-0.14574393
-0.58823424
-0.15130387
-0.61592827
-0.15684331
-0.64499877
-0.16233193
-0.67552016
-0.16773553
-0.70757218
-0.17301613
-0.74123748
-0.17813002
-0.77660592
-0.18303006
-0.81377072
-0.18766201
-0.85283282
-0.19196659
-0.89389751
-0.19587693
-0.93707712
-0.19931972
-0.982489
-0.20221269
-1.0302559
-0.20446486
-1.0805044
-0.20597463
-1.1333631
-0.20663405
-1.18896
-0.20631836
-1.2474207
-0.20489072
-1.3088706
-0.20220752
-1.3734201
-0.19810121
-1.4411829
-0.19239573
-1.5122488
-0.18488385
-1.5867174
-0.17534266
-1.6646609
-0.16352141
-1.7461654
-0.1491474
-1.8313655
-0.13194504
-1.9204987
-0.11159394
-2.0139356
-0.087527149
-2.112626
-2.2176517
-0.00052576631
-0.04944882
-0.0012846683
-0.062244836
-0.00202934
-0.060863827
-0.0028907187
-0.066289392
-0.0037285998
-0.06799864
-0.0046522874
-0.072040174
-0.0055679606
-0.07497943
-0.0065708261
-0.078759873
-0.0075870231
-0.082348582
-0.0086754494
-0.086272885
-0.0098010852
-0.090313758
-0.010988229
-0.094561051
-0.012228956
-0.099000713
-0.013530584
-0.10364375
-0.014894824
-0.10850091
-0.016325484
-0.11358003
-0.017825895
-0.1188919
-0.019399467
-0.12444678
-0.021049705
-0.13025491
-0.022780992
-0.13632787
-0.024596528
-0.14267757
-0.026501418
-0.14931555
-0.028499607
-0.15625545
-0.030595123
-0.16351049
-0.032793175
-0.17109452
-0.035097764
-0.17902301
-0.037513986
-0.18731106
-0.040046242
-0.19597541
-0.042700055
-0.20503291
-0.045478841
-0.21450293
-0.048387806
-0.22440423
-0.051431383
-0.23475701
-0.054613334
-0.24558404
-0.057937611
-0.25690777
-0.061407685
-0.26875249
-0.06502607
-0.28114501
-0.068795026
-0.29411247
-0.072716513
-0.30768433
-0.0767909
-0.32189188
-0.08101824
-0.33676825
-0.08539792
-0.35234842
-0.089927218
-0.36867017
-0.094603257
-0.3857723
-0.099421557
-0.40369719
-0.10437603
-0.42248945
-0.10945996
-0.44219492
-0.11466339
-0.46286484
-0.11997704
-0.48455016
-0.12538771
-0.50730738
-0.13088123
-0.53119485
-0.13644133
-0.55627471
-0.14204864
-0.58261231
-0.14768206
-0.61027724
-0.15331769
-0.63934209
-0.15892732
-0.66988561
-0.16448128
-0.7019889
-0.16994467
-0.73573983
-0.1752791
-0.77123173
-0.18044168
-0.80856218
-0.1853842
-0.84783733
-0.19005311
-0.88916767
-0.19438874
-0.93267149
-0.19832522
-0.97847212
-0.20178895
-1.0266998
-0.20469866
-1.0774886
-0.20696634
-1.1309734
-0.20848732
-1.1872986
-0.20915757
-1.2465894
-0.20885178
-1.3089925
-0.20744221
-1.3746217
-0.20478141
-1.443611
-0.20069863
-1.5160746
-0.19502037
-1.5921149
-0.18753543
-1.6718422
-0.17802218
-1.755356
-0.16623611
-1.8428229
-0.15191932
-1.9345121
-0.13476164
-2.030856
-0.11433407
-2.1329029
-2.241362
-0.00046992832
-0.048979667
-0.0011806835
-0.061534829
-0.001847256
-0.06019808
-0.0026506759
-0.065486748
-0.003412814
-0.067237328
-0.0042774928
-0.07117632
-0.0051252962
-0.0741325
-0.0060609764
-0.077825082
-0.007004954
-0.081405538
-0.008018834
-0.08525996
-0.0090687574
-0.08926483
-0.010177745
-0.093453089
-0.011339971
-0.097839547
-0.01256164
-0.10242318
-0.013845143
-0.10721854
-0.015193596
-0.11223273
-0.016610773
-0.11747592
-0.018100469
-0.12295831
-0.019666401
-0.12869024
-0.021312629
-0.13468292
-0.023043905
-0.1409476
-0.024863611
-0.14749718
-0.026777314
-0.15434309
-0.028789653
-0.16149951
-0.030905207
-0.16898033
-0.033129324
-0.17680026
-0.035467287
-0.18497445
-0.037924113
-0.19351991
-0.040504816
-0.2024535
-0.043214692
-0.21179429
-0.046058715
-0.22156137
-0.04904146
-0.23177533
-0.052167389
-0.24245907
-0.055440967
-0.253635
-0.058865454
-0.26532862
-0.062444036
-0.27756683
-0.066179308
-0.29037732
-0.070073253
-0.30379019
-0.074126685
-0.31783787
-0.078340037
-0.33255387
-0.082712277
-0.34797461
-0.087242215
-0.36413803
-0.091926501
-0.38108507
-0.096761345
-0.39885854
-0.10174213
-0.41750384
-0.10686164
-0.43706941
-0.11211236
-0.45760675
-0.1174848
-0.47916877
-0.12296777
-0.50181364
-0.12854916
-0.5256006
-0.13421381
-0.5505948
-0.13994546
-0.57686264
-0.14572511
-0.6044764
-0.15153135
-0.63351107
-0.15734058
-0.66404751
-0.16312564
-0.69617038
-0.1688558
-0.72997105
-0.17449805
-0.76554504
-0.18001397
-0.80299527
-0.18536169
-0.84243121
-0.1904935
-0.88396898
-0.19535706
-0.92773137
-0.19989378
-0.97384776
-0.20403925
-1.022454
-0.20772199
-1.073691
-0.21086155
-1.1277025
-0.21337392
-1.1846362
-0.21515559
-1.2446371
-0.21610963
-1.3078454
-0.21610735
-1.3744076
-0.21502619
-1.4444524
-0.21271736
-1.5181207
-0.20901706
-1.5955302
-0.20374218
-1.6768113
-0.19668898
-1.7620872
-0.18763753
-1.8515507
-0.17636405
-1.9454939
-0.16256994
-2.0444293
-0.14591547
-2.1494275
-2.2609593
-0.00041977277
-0.048560432
-0.0010888799
-0.060866225
-0.0016923008
-0.059595161
-0.002436578
-0.064742968
-0.0031213212
-0.0665531
-0.0039334443
-0.070364723
-0.0047124502
-0.073354054
-0.0055869112
-0.076951196
-0.0064656155
-0.080527424
-0.007416991
-0.08430917
-0.0084057233
-0.088276705
-0.0094513827
-0.092408049
-0.010550364
-0.096741201
-0.01170735
-0.10126684
-0.012925167
-0.10600138
-0.01420769
-0.11095088
-0.015558442
-0.11612584
-0.016981318
-0.12153612
-0.01848085
-0.12719139
-0.020061062
-0.1331034
-0.021727092
-0.13928225
-0.023483797
-0.14574113
-0.025336373
-0.15249116
-0.027289977
-0.15954652
-0.029350291
-0.1669206
-0.031523192
-0.17462788
-0.033813489
-0.18268462
-0.036227569
-0.19110623
-0.038770817
-0.19991055
-0.041448704
-0.2091166
-0.044266917
-0.21874323
-0.047230129
-0.22881203
-0.050343841
-0.23934508
-0.053611446
-0.25036691
-0.057037554
-0.26190177
-0.060625596
-0.27397774
-0.064377857
-0.28662367
-0.068296403
-0.29986985
-0.072382847
-0.31374916
-0.076637298
-0.3282966
-0.081059671
-0.34354879
-0.08564795
-0.35954557
-0.090400357
-0.37632764
-0.095313552
-0.39393934
-0.10038231
-0.41242795
-0.10560136
-0.43184193
-0.11096466
-0.45223353
-0.11646299
-0.4736588
-0.12208796
-0.49617506
-0.12782763
-0.51984508
-0.1336707
-0.5447333
-0.13960239
-0.57090958
-0.14560674
-0.59844734
-0.1516656
-0.62742371
-0.15775841
-0.65792191
-0.16386209
-0.69002908
-0.16995145
-0.72383864
-0.17599682
-0.75945052
-0.18196602
-0.79697003
-0.1878222
-0.83651114
-0.19352534
-0.87819298
-0.19902977
-0.92214382
-0.20428526
-0.96849744
-0.20923574
-1.0173953
-0.21381923
-1.0689842
-0.21796706
-1.1234142
-0.22160352
-1.1808404
-0.22464726
-1.2414133
-0.22700017
-1.3052907
-0.22856621
-1.3726175
-0.22922613
-1.4435465
-0.22885306
-1.5182269
-0.2273023
-1.596794
-0.22440907
-1.6793993
-0.21999253
-1.7661857
-0.2138614
-1.8573676
-0.20580891
-1.953271
-0.19557701
-2.0544613
-0.18288179
-2.1620195
-2.2762511
-0.00037671283
-0.048184061
-0.0010144167
-0.060228822
-0.0015622721
-0.059047609
-0.0022582182
-0.064047291
-0.0028833767
-0.065928227
-0.0036455309
-0.069602841
-0.0043689127
-0.072630945
-0.0051811083
-0.076139303
-0.006017583
-0.079691232
-0.006921711
-0.083405323
-0.0078630926
-0.08733561
-0.0088576871
-0.091413737
-0.0099051211
-0.095694049
-0.011009479
-0.10016276
-0.012174836
-0.10483629
-0.013404703
-0.10972127
-0.014703976
-0.11482681
-0.016076779
-0.12016354
-0.01752795
-0.12574042
-0.019062927
-0.13156858
-0.020686355
-0.13765894
-0.022404497
-0.14402307
-0.02422262
-0.15067306
-0.02614648
-0.15762262
-0.028182506
-0.16488446
-0.030336414
-0.17247377
-0.032615184
-0.18040555
-0.035024467
-0.18869652
-0.037570096
-0.19736436
-0.040258791
-0.20642718
-0.043095669
-0.21590544
-0.046086437
-0.22582014
-0.049235889
-0.23619426
-0.052549264
-0.24705189
-0.056029723
-0.25841935
-0.059681042
-0.27032409
-0.063506427
-0.28279553
-0.067507633
-0.2958654
-0.071685834
-0.30956717
-0.0760417
-0.32393631
-0.080575183
-0.33901016
-0.08528498
-0.35482979
-0.090169446
-0.37143623
-0.09522528
-0.38887547
-0.10044938
-0.40719456
-0.10583694
-0.42644366
-0.11138217
-0.44667595
-0.11707918
-0.46794759
-0.12291949
-0.49031843
-0.12889509
-0.51385074
-0.13499524
-0.53861166
-0.14120876
-0.56467144
-0.14752301
-0.59210492
-0.15392275
-0.62099177
-0.16039165
-0.65141628
-0.16691052
-0.68346839
-0.17345863
-0.71724301
-0.18001195
-0.75284325
-0.18654345
-0.79037732
-0.19302335
-0.82996177
-0.19941726
-0.87172016
-0.20568773
-0.91578366
-0.21179225
-0.96229093
-0.21768414
-1.0113875
-0.22331147
-1.0632251
-0.2286161
-1.1179603
-0.23353448
-1.1757535
-0.23799702
-1.2367619
-0.24192263
-1.3011551
-0.24522394
-1.3690853
-0.24780656
-1.440713
-0.24955602
-1.5162078
-0.25034413
-1.5957191
-0.25003381
-1.679408
-0.2484601
-1.7674493
-0.24545574
-1.8600717
-0.24084938
-1.9576233
-0.23440798
-2.0607285
-0.22590113
-2.1704561
-2.2870098
-0.00033252468
-0.047851717
-0.00094389575
-0.059617585
-0.001441762
-0.05854987
-0.002090725
-0.063398413
-0.0026716852
-0.065347361
-0.0034062033
-0.068868382
-0.0040962758
-0.071940963
-0.0048944522
-0.075341216
-0.005689345
-0.078896399
-0.0065455263
-0.082549175
-0.0074428068
-0.086438351
-0.0083926978
-0.090463848
-0.0093976882
-0.09468904
-0.010461244
-0.099099157
-0.01158782
-0.10370965
-0.012782014
-0.10852697
-0.014047807
-0.11356088
-0.015391208
-0.11881995
-0.016817077
-0.12431431
-0.018331129
-0.13005424
-0.019939248
-0.13605047
-0.021647491
-0.1423144
-0.023462229
-0.14885781
-0.025390779
-0.15569346
-0.027438687
-0.16283582
-0.029613535
-0.17029808
-0.031921558
-0.17809653
-0.034369694
-0.18624723
-0.036964567
-0.19476815
-0.03971235
-0.20367786
-0.042618894
-0.21299713
-0.045690056
-0.22274695
-0.048931079
-0.23295091
-0.052346119
-0.24363418
-0.055939515
-0.2548229
-0.059714857
-0.26654526
-0.063674393
-0.27883202
-0.067820438
-0.29171482
-0.072154361
-0.30522807
-0.07667674
-0.31940803
-0.081387393
-0.33429279
-0.086286261
-0.34992327
-0.091371158
-0.36634262
-0.096640381
-0.38359633
-0.10209124
-0.40173241
-0.10772015
-0.4208019
-0.11352319
-0.44085829
-0.11949564
-0.4619585
-0.1256318
-0.48416334
-0.13192527
-0.50753575
-0.13836894
-0.53214351
-0.14495386
-0.5580587
-0.15167065
-0.58535652
-0.15850811
-0.61411843
-0.16545392
-0.64442979
-0.17249396
-0.6763823
-0.17961152
-0.71007336
-0.18678835
-0.74560756
-0.19400362
-0.78309554
-0.20123354
-0.82265667
-0.20845133
-0.8644173
-0.21562692
-0.90851173
-0.22272634
-0.95508237
-0.22971232
-1.0042779
-0.23654235
-1.0562552
-0.24317048
-1.1111744
-0.24954456
-1.1692024
-0.25560576
-1.2305035
-0.26129135
-1.2952521
-0.26653215
-1.3636075
-0.27123714
-1.4357531
-0.27532094
-1.5118532
-0.27866933
-1.5920862
-0.28116323
-1.6766187
-0.2826657
-1.7656483
-0.28303616
-1.8594194
-0.28212574
-1.9583056
-0.27973854
-2.0629717
-0.27570557
-2.1744564
-2.2929707
-0.0002892957
-0.047562473
-0.00088057929
-0.059026305
-0.0013368387
-0.058093598
-0.0019637753
-0.062771415
-0.0025216647
-0.064789421
-0.0032350327
-0.06815489
-0.0038941805
-0.071281729
-0.004667023
-0.074568186
-0.0054300462
-0.078133226
-0.0062526699
-0.081726369
-0.0071216993
-0.085569114
-0.0080439296
-0.089541376
-0.0090241954
-0.093708497
-0.010065939
-0.098057095
-0.011174239
-0.10260098
-0.012353937
-0.10734686
-0.013610721
-0.11230362
-0.014950028
-0.11748011
-0.016377903
-0.12288583
-0.017901166
-0.12853029
-0.019525906
-0.13442495
-0.021259719
-0.14057971
-0.023109049
-0.14700749
-0.025081372
-0.15372002
-0.027184364
-0.16073158
-0.029424905
-0.16805612
-0.03181064
-0.17570921
-0.034348545
-0.18370754
-0.037045171
-0.19206952
-0.039907441
-0.20081334
-0.042941527
-0.20996051
-0.046152589
-0.21953305
-0.049545605
-0.2295547
-0.053125471
-0.24005073
-0.056895939
-0.2510484
-0.060859831
-0.26257685
-0.065020087
-0.27466668
-0.069378605
-0.28735058
-0.073936437
-0.30066381
-0.078694646
-0.31464259
-0.083653185
-0.3293261
-0.088811642
-0.34475563
-0.094169618
-0.3609743
-0.099726285
-0.37802799
-0.10547973
-0.3959658
-0.11142824
-0.41483853
-0.11756938
-0.43470036
-0.12390054
-0.45560839
-0.13041867
-0.47762378
-0.13711964
-0.50081056
-0.14399942
-0.52523634
-0.15105287
-0.55097427
-0.15827378
-0.57810059
-0.16565557
-0.60669708
-0.17318982
-0.63685087
-0.1808673
-0.66865446
-0.18867642
-0.70220749
-0.19660524
-0.73761487
-0.2046385
-0.77499035
-0.21275917
-0.81445498
-0.22094818
-0.85613693
-0.22918339
-0.90017347
-0.23743989
-0.94670959
-0.24568896
-0.99589766
-0.25389991
-1.0478966
-0.26203685
-1.1028718
-0.27006138
-1.160993
-0.27792678
-1.2224335
-0.28558524
-1.2873697
-0.29297613
-1.3559748
-0.30003807
-1.4284336
-0.3066932
-1.5049276
-0.31285308
-1.5856458
-0.31841186
-1.6707734
-0.32325862
-1.7605177
-0.32727975
-1.8551388
-0.33035137
-1.9550357
-0.33232387
-2.0608893
-0.33306477
-2.173726
-2.2938142
-0.0002500344
-0.047312372
-0.00082960959
-0.058446615
-0.001255045
-0.057668024
-0.0019097899
-0.062116503
-0.0024508176
-0.064248204
-0.0031367369
-0.067468738
-0.0037719882
-0.070646216
-0.004500287
-0.073839541
-0.0052499554
-0.077383229
-0.0060562466
-0.080919707
-0.0069146639
-0.084710288
-0.0078280927
-0.088627493
-0.008803624
-0.092732464
-0.0098452044
-0.097014959
-0.010958604
-0.10148697
-0.012149603
-0.10615518
-0.013424474
-0.111028
-0.01478994
-0.11611381
-0.016252844
-0.12142201
-0.017819954
-0.12696216
-0.01949997
-0.13274381
-0.021299416
-0.13877901
-0.023227255
-0.14507826
-0.025290862
-0.15165487
-0.027498169
-0.15852256
-0.029857381
-0.16569502
-0.032376008
-0.17318848
-0.035061129
-0.18102009
-0.037920255
-0.18920781
-0.040959462
-0.19777126
-0.044184435
-0.20673235
-0.047600915
-0.21611302
-0.051213398
-0.22593828
-0.055026142
-0.2362336
-0.05904247
-0.24702719
-0.063265214
-0.25834866
-0.067696607
-0.27022922
-0.072338323
-0.2827021
-0.077192052
-0.29580252
-0.082258376
-0.30956781
-0.087538081
-0.32403694
-0.093031764
-0.33925136
-0.09873968
-0.35525452
-0.10466156
-0.37209281
-0.11079793
-0.38981451
-0.1171489
-0.40847079
-0.12371397
-0.42811644
-0.13049307
-0.4488081
-0.13748577
-0.47060723
-0.1446916
-0.49357788
-0.15210899
-0.51778869
-0.15973729
-0.54331189
-0.16757402
-0.57022546
-0.17561659
-0.59861126
-0.1838618
-0.62855698
-0.19230511
-0.66015642
-0.20094133
-0.6935098
-0.20976342
-0.72872378
-0.21876342
-0.76591287
-0.22793159
-0.80519982
-0.23725568
-0.84671512
-0.24672245
-0.89059688
-0.25631586
-0.93699279
-0.26601794
-0.98605706
-0.27580745
-1.0379519
-0.2856607
-1.0928453
-0.29555041
-1.1509113
-0.30544666
-1.2123263
-0.31531192
-1.2772754
-0.32510595
-1.3459355
-0.33478257
-1.4184985
-0.34427621
-1.4951656
-0.35352182
-1.5761256
-0.36243649
-1.6615831
-0.37093323
-1.7517544
-0.37891843
-1.8469195
-0.38630549
-1.9474831
-0.39297539
-2.0541469
-0.39885553
-2.1679041
-2.2891773
-0.00021612499
-0.047096078
-0.00079681872
-0.057865703
-0.0011992044
-0.057265386
-0.0018656346
-0.061449781
-0.0023825806
-0.063730938
-0.0030597558
-0.06679119
-0.0036892525
-0.070016322
-0.0044127418
-0.073115617
-0.0051644446
-0.076631045
-0.0059704792
-0.080113142
-0.0068359019
-0.083844287
-0.0077609342
-0.087701828
-0.0087540383
-0.091738669
-0.0098200594
-0.095948182
-0.010965697
-0.1003405
-0.012197701
-0.10492227
-0.013523293
-0.10970142
-0.014949858
-0.11468616
-0.016485898
-0.11988478
-0.018139407
-0.12530734
-0.019918743
-0.13096303
-0.021832916
-0.13686326
-0.023890172
-0.14301927
-0.026099333
-0.14944381
-0.028469238
-0.15615056
-0.031007403
-0.16315454
-0.03372179
-0.17047155
-0.036619813
-0.17811926
-0.039708346
-0.18611619
-0.042992723
-0.19448347
-0.046479476
-0.20324183
-0.050172528
-0.21241581
-0.054076717
-0.22202948
-0.058194843
-0.23211037
-0.062529726
-0.24268666
-0.067084276
-0.25378785
-0.071860357
-0.26544618
-0.076859408
-0.27769532
-0.082083044
-0.29057029
-0.087532919
-0.30410837
-0.093210352
-0.31834885
-0.099116909
-0.33333291
-0.10525399
-0.34910417
-0.11162386
-0.3657081
-0.11822851
-0.38319326
-0.12506988
-0.40161084
-0.13215113
-0.42101437
-0.13947418
-0.44146169
-0.14704241
-0.46301279
-0.15485839
-0.48573246
-0.16292514
-0.50968887
-0.17124462
-0.53495523
-0.17981962
-0.56160865
-0.18865236
-0.58973156
-0.19774416
-0.61941246
-0.20709617
-0.65074528
-0.21670913
-0.68383058
-0.22658235
-0.71877633
-0.23671451
-0.75569761
-0.2471029
-0.79471837
-0.25774473
-0.83596911
-0.26863426
-0.87959075
-0.27976531
-0.92573132
-0.29112992
-0.97454676
-0.30271822
-1.0262013
-0.31451853
-1.0808651
-0.32651697
-1.1387148
-0.33869469
-1.1999327
-0.35103384
-1.2647037
-0.36350757
-1.333215
-0.37608005
-1.4056685
-0.38871946
-1.482262
-0.40136763
-1.5632112
-0.41396489
-1.6487236
-0.42644583
-1.739027
-0.43875777
-1.8344014
-0.450829
-1.9352812
-0.46258655
-2.0423573
-0.47400167
-2.1565991
-2.2786292
-0.00019475385
-0.046901069
-0.00079516507
-0.057264987
-0.0011940995
-0.056866106
-0.0018503411
-0.06079314
-0.0023599653
-0.063220885
-0.0030422058
-0.066108474
-0.0036857812
-0.069372237
-0.0044150813
-0.072385753
-0.0051875627
-0.075857958
-0.0060140271
-0.079286017
-0.0069079878
-0.08294961
-0.0078687449
-0.086740292
-0.0089058619
-0.090700705
-0.010025432
-0.09482769
-0.011235212
-0.099129722
-0.012543133
-0.10361326
-0.013957704
-0.10828566
-0.01548783
-0.11315474
-0.017142229
-0.11822896
-0.018930948
-0.12351708
-0.020862899
-0.12902939
-0.022947864
-0.13477644
-0.025194788
-0.14077033
-0.027612895
-0.14702348
-0.03021083
-0.1535502
-0.032996779
-0.16036593
-0.035977868
-0.16748754
-0.039161338
-0.17493259
-0.042552733
-0.18272127
-0.046158126
-0.1908742
-0.049981368
-0.19941432
-0.054026632
-0.20836584
-0.058297226
-0.21775371
-0.062795695
-0.22760618
-0.06752445
-0.23795158
-0.072485635
-0.24881966
-0.07768082
-0.26024325
-0.083112319
-0.27225523
-0.088781896
-0.28489118
-0.094692075
-0.29818761
-0.10084552
-0.31218363
-0.10724533
-0.32691999
-0.11389538
-0.34243952
-0.12079959
-0.3587876
-0.12796241
-0.37601225
-0.13538936
-0.39416356
-0.14308577
-0.41329523
-0.15105769
-0.43346431
-0.15931122
-0.45473074
-0.16785311
-0.47715859
-0.17669004
-0.50081605
-0.18582955
-0.52577544
-0.19527834
-0.55211467
-0.20504362
-0.57991558
-0.215132
-0.60926727
-0.22555104
-0.64026264
-0.23630665
-0.67300382
-0.24740525
-0.70759821
-0.25885278
-0.74416124
-0.27065481
-0.78281715
-0.28281582
-0.82369741
-0.2953402
-0.86694299
-0.30823134
-0.91270281
-0.3214918
-0.96113369
-0.33512355
-1.0124006
-0.34912709
-1.0666756
-0.36350126
-1.1241375
-0.37824269
-1.1849717
-0.39334913
-1.249363
-0.40880533
-1.3175127
-0.42460244
-1.3896173
-0.44071395
-1.465893
-0.45711279
-1.546557
-0.47376281
-1.6318277
-0.49061952
-1.7219466
-0.50765125
-1.8171938
-0.52482427
-1.918014
-0.54211092
-2.0250826
-0.55951379
-2.1393625
-2.2616863
-0.00017500229
-0.046725748
-0.00080344622
-0.056636173
-0.0012076118
-0.056461526
-0.0018771023
-0.060123186
-0.002399619
-0.062697863
-0.0030953286
-0.065412207
-0.0037684246
-0.068698544
-0.0045204794
-0.071633044
-0.0053321876
-0.075045546
-0.0062017212
-0.078415718
-0.0071485498
-0.082001953
-0.0081726939
-0.085715249
-0.0092844898
-0.089587936
-0.010491696
-0.093619427
-0.011803424
-0.097816849
-0.013229078
-0.10218636
-0.014778503
-0.10673488
-0.016461916
-0.11146985
-0.018289714
-0.11639956
-0.020271964
-0.12153308
-0.022419228
-0.12688023
-0.024741262
-0.13245234
-0.027247421
-0.13826191
-0.029947053
-0.14432138
-0.032848091
-0.15064646
-0.035957969
-0.1572531
-0.039284025
-0.16415825
-0.042831221
-0.17138184
-0.04660486
-0.17894374
-0.050608911
-0.18686588
-0.054846807
-0.19517173
-0.059321578
-0.2038859
-0.06403454
-0.21303505
-0.06898887
-0.22264557
-0.074185911
-0.23274761
-0.079627504
-0.24337042
-0.085316419
-0.25454587
-0.091254789
-0.26630749
-0.097446646
-0.27868893
-0.10389559
-0.29172713
-0.11060605
-0.30546035
-0.11758337
-0.31992842
-0.12483398
-0.33517303
-0.13236452
-0.35123939
-0.14018269
-0.36817435
-0.14829706
-0.38602716
-0.15671651
-0.40485116
-0.16545067
-0.42470261
-0.17451011
-0.44564048
-0.18390532
-0.46772885
-0.19364789
-0.49103477
-0.20374881
-0.51563114
-0.21422101
-0.54159385
-0.22507628
-0.56900585
-0.23632785
-0.59795475
-0.247988
-0.62853436
-0.26007042
-0.6608453
-0.27258806
-0.69499565
-0.28555415
-0.73110048
-0.29898293
-0.76928296
-0.31288732
-0.8096758
-0.32728131
-0.85241886
-0.34217882
-0.89766109
-0.35759359
-0.94555965
-0.37353894
-0.99628013
-0.39002869
-1.0499945
-0.40707605
-1.106883
-0.42469381
-1.167132
-0.44288929
-1.2309331
-0.46167162
-1.2984868
-0.48104395
-1.3699964
-0.50100671
-1.4456822
-0.52155022
-1.5257722
-0.54265502
-1.6104965
-0.56431308
-1.7000911
-0.58650987
-1.794854
-0.60925574
-1.8952123
-0.63255561
-2.0018417
-0.65645679
-2.1156882
-2.2377983
-0.00016052646
-0.04656485
-0.0008312553
-0.055965023
-0.0012481309
-0.05604418
-0.001946767
-0.059424027
-0.0024989356
-0.062145128
-0.0032231059
-0.064687416
-0.0039466257
-0.067974359
-0.0047428837
-0.07083606
-0.0056169948
-0.074170652
-0.0065568706
-0.077474994
-0.0075859989
-0.080971909
-0.008706599
-0.084593657
-0.0099301229
-0.08836334
-0.011266438
-0.092281949
-0.012726227
-0.096355801
-0.014320681
-0.10059054
-0.01606107
-0.10499301
-0.017958774
-0.10957054
-0.020025076
-0.11433151
-0.022270944
-0.11928531
-0.024706661
-0.12444244
-0.027342333
-0.12981441
-0.030187316
-0.13541447
-0.033249295
-0.14125672
-0.036535938
-0.14735689
-0.04005333
-0.15373251
-0.04380643
-0.16040165
-0.047799636
-0.16738481
-0.052036119
-0.17470305
-0.056518231
-0.18237915
-0.061247707
-0.19043718
-0.066226595
-0.19890144
-0.071456278
-0.20779923
-0.076938426
-0.21715666
-0.08267542
-0.22700315
-0.088669813
-0.23736777
-0.094924939
-0.24828162
-0.10144575
-0.25977657
-0.10823646
-0.27188702
-0.11530396
-0.28464719
-0.12265496
-0.29809553
-0.13029858
-0.31226944
-0.13824302
-0.3272115
-0.1464988
-0.34296456
-0.15507759
-0.35957431
-0.16399066
-0.37709037
-0.17325128
-0.39556406
-0.18287337
-0.4150509
-0.19287107
-0.43560965
-0.20326005
-0.45730279
-0.21405582
-0.48019746
-0.22527584
-0.50436459
-0.23693665
-0.52988094
-0.24905643
-0.55682778
-0.26165425
-0.58529177
-0.27474922
-0.61536663
-0.28836102
-0.64715235
-0.30251104
-0.68075522
-0.31722041
-0.71629052
-0.33251081
-0.75388085
-0.34840543
-0.79365736
-0.3649283
-0.83575908
-0.38210381
-0.88033463
-0.39995685
-0.92754087
-0.41851466
-0.97754138
-0.43780393
-1.0305092
-0.4578519
-1.0866246
-0.47868585
-1.146075
-0.50033097
-1.2090548
-0.52281503
-1.2757631
-0.54615935
-1.3464111
-0.57038198
-1.421223
-0.59549832
-1.500431
-0.62152015
-1.5842706
-0.64845131
-1.6729915
-0.67631138
-1.7668858
-0.70513507
-1.8663711
-0.73498839
-1.9720947
-0.76594419
-2.0850184
-2.2063406
-0.00015217828
-0.046412263
-0.00088432055
-0.05523242
-0.0013186042
-0.055609381
-0.002061199
-0.058680867
-0.0026640825
-0.061541633
-0.0034343931
-0.063916436
-0.0042311857
-0.067176848
-0.0050963256
-0.06997014
-0.006058465
-0.073207672
-0.0071000789
-0.07643247
-0.0082468248
-0.07982418
-0.0095045007
-0.083334918
-0.010886095
-0.086980596
-0.012403548
-0.090763252
-0.014069376
-0.094688627
-0.015896075
-0.098762383
-0.017896127
-0.10299137
-0.0200816
-0.10738335
-0.022464206
-0.11194705
-0.025054887
-0.11669261
-0.027863888
-0.12163124
-0.030900067
-0.12677584
-0.03417121
-0.13214071
-0.037684252
-0.13774083
-0.041444005
-0.14359403
-0.045454897
-0.14971822
-0.049719166
-0.15613367
-0.054238991
-0.16286091
-0.059015771
-0.16992181
-0.064050162
-0.17733986
-0.069343353
-0.1851386
-0.0748961
-0.19334276
-0.080710452
-0.20197835
-0.086788478
-0.21107143
-0.093133894
-0.22064978
-0.099750491
-0.23074238
-0.10664435
-0.24137801
-0.11382151
-0.25258862
-0.1212908
-0.26440576
-0.1290605
-0.2768642
-0.13714212
-0.28999915
-0.14554602
-0.3038491
-0.1542857
-0.31845352
-0.16337529
-0.33385458
-0.17282927
-0.35009759
-0.18266383
-0.36723042
-0.1928961
-0.38530343
-0.20354409
-0.40437122
-0.21462707
-0.4244912
-0.22616464