/*--------------------------------*- C++ -*----------------------------------*\
  =========                 |
  \\      /  F ield         | OpenFOAM: The Open Source CFD Toolbox
   \\    /   O peration     | Website:  https://openfoam.org
    \\  /    A nd           | Version:  12
     \\/     M anipulation  |
\*---------------------------------------------------------------------------*/
FoamFile
{
    format      ascii;
    class       volScalarField;
    location    "0.061";
    object      T;
}
// * * * * * * * * * * * * * * * * * * * * * * * * * * * * * * * * * * * * * //

dimensions      [0 0 0 1 0 0 0];

internalField   nonuniform List<scalar> 
16000
(
293.67824
285.11396
288.44338
286.62104
287.74119
287.22755
287.65395
287.5425
287.74106
287.77605
287.89864
287.98492
288.092
288.19652
288.30712
288.42112
288.53932
288.6616
288.78803
288.91862
289.05339
289.19232
289.33541
289.48259
289.63382
289.78899
289.94799
290.11068
290.27689
290.44641
290.61901
290.79443
290.97239
291.15256
291.33459
291.51814
291.70279
291.88817
292.07383
292.25938
292.44436
292.62837
292.81098
292.99178
293.17038
293.34643
293.51956
293.68949
293.85592
294.01861
294.17736
294.33199
294.48236
294.62835
294.76987
294.90686
295.03925
295.16697
295.28999
295.40825
295.52174
295.63047
295.7345
295.83402
295.9294
296.02135
296.11094
296.19966
296.28938
296.38214
296.48001
296.58524
296.70079
296.83123
296.98279
297.16121
297.36558
297.57266
297.78047
297.87907
293.36349
284.69848
288.15286
286.25672
287.44552
286.89373
287.35655
287.23519
287.44871
287.48911
287.61891
287.71422
287.82864
287.94215
288.06135
288.18453
288.31212
288.44409
288.58047
288.72128
288.8665
289.0161
289.17003
289.32821
289.49054
289.65689
289.82711
290.00098
290.17831
290.35882
290.54224
290.72824
290.91649
291.1066
291.29818
291.4908
291.68404
291.87744
292.07054
292.26288
292.45402
292.64351
292.83091
293.01583
293.19787
293.37669
293.55198
293.72346
293.89089
294.05406
294.21283
294.36706
294.51667
294.6616
294.80182
294.93731
295.06806
295.19406
295.31532
295.43184
295.54367
295.65089
295.75363
295.85213
295.94686
296.03855
296.1283
296.21761
296.30829
296.40232
296.5017
296.60857
296.72582
296.85792
297.01094
297.18981
297.39157
297.5991
297.78625
297.89581
293.06462
284.31577
287.891
285.93789
287.16701
286.60512
287.08194
286.96863
287.18714
287.23958
287.37504
287.48114
287.60387
287.72737
287.85638
287.98985
288.12801
288.27086
288.41839
288.57059
288.72742
288.88881
289.05468
289.22491
289.39934
289.57781
289.76009
289.94594
290.13508
290.32718
290.5219
290.71886
290.91763
291.11778
291.31885
291.52035
291.7218
291.9227
292.12254
292.32084
292.51712
292.71093
292.90184
293.08945
293.2734
293.45338
293.6291
293.80035
293.96694
294.12873
294.28562
294.43757
294.58454
294.72655
294.86364
294.99583
295.1232
295.24579
295.36366
295.47688
295.58555
295.68983
295.78991
295.88612
295.97898
296.06928
296.15817
296.24714
296.33796
296.43252
296.53272
296.64059
296.75894
296.89212
297.04581
297.22397
297.42281
297.62532
297.79716
297.90891
292.79127
283.96523
287.66141
285.65867
286.92432
286.35204
286.8433
286.73956
286.96371
287.02968
287.17189
287.29002
287.42243
287.55713
287.69727
287.84229
287.99225
288.14716
288.307
288.4717
288.64119
288.81538
288.99414
289.17729
289.36463
289.55593
289.75091
289.94925
290.15059
290.35455
290.5607
290.76857
290.97767
291.18749
291.3975
291.60715
291.8159
292.0232
292.22853
292.43137
292.63124
292.82768
293.02028
293.20869
293.39257
293.57168
293.74578
293.91473
294.07841
294.23677
294.38978
294.53748
294.67992
294.81718
294.94938
295.07662
295.19903
295.31672
295.42981
295.53844
295.64276
295.74298
295.83938
295.93233
296.02243
296.1105
296.19769
296.28549
296.37562
296.46988
296.57007
296.6781
296.7967
296.93005
297.08336
297.25973
297.45486
297.65024
297.80938
297.92007
292.54434
283.6532
287.44772
285.42689
286.72967
286.14331
286.64525
286.55558
286.78411
286.86613
287.01587
287.14736
287.2908
287.43786
287.59035
287.74805
287.91096
288.07905
288.25228
288.43056
288.61379
288.80181
288.99443
289.19143
289.39253
289.59743
289.80576
290.01711
290.23104
290.44707
290.66467
290.88328
291.10235
291.32125
291.53941
291.7562
291.97103
292.18334
292.39255
292.59817
292.79971
292.99675
293.18892
293.37591
293.55747
293.73341
293.90359
294.06796
294.22649
294.37922
294.52622
294.66761
294.80354
294.93417
295.05969
295.18028
295.29614
295.40743
295.51435
295.61708
295.71585
295.8109
295.90258
295.99131
296.07773
296.1627
296.24738
296.3332
296.42183
296.515
296.61437
296.72176
296.83979
296.97242
297.12431
297.29782
297.48805
297.67473
297.82244
297.92998
292.32782
283.38692
287.27269
285.23559
286.56088
285.98522
286.4987
286.4227
286.65602
286.75459
286.91267
287.05828
287.21388
287.37418
287.54009
287.71156
287.88857
288.07104
288.25889
288.45198
288.65016
288.85318
289.0608
289.27268
289.48847
289.70775
289.93004
290.15484
290.38159
290.60968
290.83849
291.06737
291.29565
291.52265
291.7477
291.97015
292.18936
292.40474
292.61575
292.82188
293.02272
293.21788
293.40707
293.59006
293.76671
293.93691
294.10066
294.25798
294.40898
294.55379
294.6926
294.82562
294.9531
295.07527
295.19241
295.30476
295.41258
295.51612
295.6156
295.71128
295.80341
295.89232
295.97837
296.06205
296.14401
296.22513
296.30655
296.38965
296.47604
296.56732
296.66507
296.77101
296.88761
297.01857
297.16796
297.33754
297.52171
297.69868
297.83558
297.93918
292.1441
283.16742
287.13184
285.08227
286.43076
285.87889
286.38954
286.34256
286.57533
286.69624
286.86365
287.02418
287.19339
287.36828
287.54917
287.73605
287.92883
288.12738
288.33154
288.5411
288.7558
288.97531
289.19925
289.4272
289.65866
289.89308
290.12986
290.36836
290.6079
290.84774
291.08714
291.32535
291.56161
291.79518
292.02532
292.25135
292.47265
292.68862
292.89876
293.10264
293.29989
293.49024
293.67352
293.8496
294.01846
294.18014
294.33475
294.48246
294.62348
294.75808
294.88654
295.00919
295.12634
295.23834
295.34551
295.44817
295.54663
295.64119
295.73213
295.81973
295.90432
295.98623
296.06588
296.14379
296.2206
296.29721
296.3747
296.45442
296.53785
296.62652
296.72188
296.82554
296.93984
297.06816
297.21398
297.37855
297.55558
297.72207
297.84873
297.94789
291.99018
282.99208
287.02266
284.96528
286.33162
285.80451
286.32163
286.28177
286.54786
286.68909
286.86859
287.04605
287.23146
287.42332
287.62162
287.82627
288.03713
288.25398
288.47657
288.70457
288.9376
289.1752
289.41687
289.66201
289.91
290.16011
290.41161
290.66368
290.91551
291.16624
291.41501
291.66097
291.90328
292.14115
292.37385
292.60069
292.82106
293.03446
293.24045
293.43871
293.629
293.81119
293.98525
294.1512
294.3092
294.45942
294.60212
294.73763
294.86627
294.98843
295.10452
295.21493
295.32008
295.42036
295.51619
295.60791
295.69589
295.78046
295.86195
295.94066
296.01696
296.09121
296.16384
296.23539
296.30651
296.37806
296.45108
296.52682
296.60667
296.69203
296.78425
296.88484
296.99598
297.12066
297.26184
297.42039
297.58926
297.74476
297.86191
297.95617
291.86065
282.85895
286.94887
284.88516
286.28471
285.80438
286.31653
286.33973
286.57344
286.73772
286.93298
287.13003
287.33472
287.54638
287.76486
287.98997
288.22147
288.45904
288.7023
288.95078
289.20394
289.46117
289.72177
289.98499
290.24999
290.51588
290.78175
291.04663
291.30954
291.5695
291.82556
292.07679
292.32232
292.56136
292.79319
293.01719
293.23285
293.43978
293.6377
293.82643
294.00592
294.17623
294.33749
294.48995
294.6339
294.76972
294.89781
295.01863
295.13265
295.24036
295.34225
295.43882
295.53053
295.61785
295.70121
295.78101
295.85765
295.93147
296.00283
296.07207
296.13954
296.20564
296.27081
296.33558
296.4006
296.46666
296.53475
296.60602
296.68173
296.76317
296.85156
296.94832
297.05545
297.17552
297.31106
297.46262
297.62242
297.76657
297.87502
297.96432
291.75517
282.77072
286.916
284.86038
286.29442
285.85272
286.35718
286.41171
286.66068
286.85155
287.06615
287.28542
287.51244
287.74684
287.98838
288.23673
288.49152
288.75227
289.01842
289.28932
289.56422
289.8423
290.12264
290.40427
290.68613
290.96714
291.24618
291.52213
291.79387
292.06033
292.32049
292.5734
292.81821
293.0542
293.28073
293.49734
293.70368
293.89955
294.08488
294.25972
294.42425
294.57874
294.72355
294.85913
294.98596
295.10459
295.21558
295.31951
295.41696
295.50852
295.59475
295.6762
295.75339
295.82681
295.89692
295.96414
296.02887
296.09146
296.15229
296.21169
296.27004
296.32771
296.38516
296.44289
296.50152
296.5618
296.62461
296.691
296.7621
296.83906
296.92301
297.01526
297.11757
297.23213
297.36109
297.5048
297.65473
297.78738
297.88802
297.97237
291.67819
282.7366
286.93064
284.96286
286.3643
285.96306
286.4612
286.56013
286.81976
287.03913
287.27716
287.52179
287.77452
288.03493
288.30267
288.57723
288.85805
289.14442
289.43556
289.73055
290.0284
290.328
290.62818
290.92769
291.22526
291.51958
291.80936
292.09332
292.37028
292.63911
292.89879
293.14844
293.38733
293.61487
293.83065
294.03442
294.2261
294.40576
294.57359
294.72994
294.87524
295.01002
295.13487
295.25043
295.35738
295.45641
295.54821
295.63346
295.71285
295.787
295.85653
295.92202
295.98401
296.04299
296.09943
296.15374
296.20631
296.2575
296.30766
296.35713
296.40626
296.45545
296.50509
296.55569
296.6078
296.6621
296.71939
296.78059
296.84669
296.9187
296.99766
297.08478
297.18155
297.28978
297.4114
297.54652
297.68587
297.80706
297.90084
297.98023
291.63631
282.76936
287.0014
285.10374
286.48023
286.14613
286.6375
286.78286
287.0596
287.31016
287.5761
287.84986
288.13208
288.42213
288.71948
289.02337
289.33295
289.64723
289.96511
290.28533
290.60657
290.92741
291.24637
291.56192
291.87256
292.17678
292.47317
292.76038
293.03719
293.30256
293.55558
293.79555
294.02199
294.23458
294.43324
294.61805
294.78926
294.94728
295.09265
295.22601
295.34806
295.45959
295.5614
295.65432
295.73916
295.81675
295.88785
295.95323
296.01359
296.06962
296.12192
296.17108
296.21763
296.26205
296.30477
296.34619
296.38669
296.42658
296.46621
296.50589
296.54596
296.58677
296.62871
296.67222
296.71781
296.76607
296.81769
296.87346
296.93424
297.00091
297.07443
297.15586
297.24645
297.34768
297.46134
297.58728
297.71551
297.82537
297.91312
297.98794
291.63366
282.8744
287.13787
285.30748
286.66577
286.40746
286.8952
287.09055
287.39053
287.67576
287.97459
288.28192
288.59791
288.92162
289.2522
289.58853
289.92938
290.27336
290.61894
290.96447
291.30824
291.64847
291.98337
292.31117
292.63015
292.93871
293.23539
293.51891
293.78819
294.04238
294.2809
294.50338
294.70972
294.90004
295.07467
295.23412
295.37904
295.51023
295.62854
295.73493
295.83035
295.91579
295.99223
296.06063
296.1219
296.17693
296.22653
296.27149
296.31251
296.35026
296.38534
296.4183
296.44962
296.47975
296.50909
296.53799
296.56679
296.59578
296.62526
296.65552
296.68686
296.7196
296.75408
296.79069
296.82987
296.87212
296.91801
296.9682
297.02342
297.08444
297.15213
297.2274
297.31126
297.40493
297.51019
297.62647
297.74315
297.8419
297.92438
297.99652
291.67236
283.05962
287.34474
285.59742
286.92769
286.75564
287.24496
287.49372
287.82474
288.14934
288.48673
288.83283
289.18739
289.549
289.91633
290.28778
290.66159
291.03587
291.40859
291.77765
292.14094
292.49632
292.84173
293.17525
293.49509
293.79969
294.08775
294.35826
294.61051
294.84408
295.05887
295.25506
295.43308
295.59358
295.73739
295.86546
295.97889
296.0788
296.16636
296.24276
296.30915
296.36666
296.41638
296.45932
296.49644
296.52862
296.55668
296.58137
296.60336
296.62327
296.64165
296.65898
296.67571
296.69221
296.70883
296.72588
296.74363
296.76235
296.78227
296.80367
296.82678
296.85189
296.87929
296.90929
296.94227
296.97862
297.01881
297.06335
297.11286
297.16801
297.22956
297.29829
297.37493
297.46063
297.55713
297.66331
297.76811
297.85643
297.935
298.0061
291.75733
283.3386
287.625
285.97771
287.27956
287.20238
287.70083
288.00732
288.37816
288.74827
289.1306
289.52119
289.91916
290.32251
290.72925
291.13715
291.54382
291.94679
292.34349
292.73136
293.1079
293.47075
293.81774
294.14697
294.45685
294.74615
295.01403
295.26004
295.48409
295.68646
295.86772
296.02872
296.1705
296.29428
296.40138
296.4932
296.57115
296.63666
296.69109
296.73579
296.772
296.80093
296.82367
296.84122
296.85452
296.8644
296.87162
296.87686
296.88072
296.88374
296.88639
296.8891
296.89221
296.89605
296.90089
296.90699
296.91456
296.92382
296.93496
296.94818
296.9637
296.98174
297.00253
297.02631
297.05338
297.08402
297.11859
297.15749
297.20123
297.25037
297.30558
297.36744
297.43651
297.51391
297.60135
297.69698
297.78976
297.86891
297.94536
298.01487
291.89276
283.72996
287.97388
286.46204
287.73475
287.76317
288.28133
288.65155
289.07208
289.49497
289.92881
290.36926
290.81457
291.26199
291.70872
292.15178
292.58808
293.0145
293.42797
293.82557
294.20463
294.5628
294.89814
295.20918
295.49493
295.75489
295.98905
296.19782
296.38199
296.54267
296.68122
296.79916
296.89816
296.97991
297.04615
297.09858
297.13883
297.16849
297.18901
297.20177
297.20802
297.20892
297.2055
297.1987
297.18936
297.17823
297.16595
297.15312
297.14023
297.12773
297.11601
297.10538
297.09614
297.08852
297.08273
297.07896
297.07737
297.07812
297.08134
297.0872
297.09585
297.10744
297.12216
297.14017
297.16166
297.18684
297.21596
297.24931
297.28729
297.33041
297.37917
297.43396
297.4952
297.56412
297.64224
297.72692
297.80779
297.87913
297.95473
298.02233
292.0834
284.26429
288.40288
287.06899
288.3151
288.46172
289.01266
289.45375
289.93379
290.41658
290.90748
291.40149
291.89576
292.38658
292.87018
293.34272
293.80038
294.2395
294.65676
295.04922
295.41451
295.75085
296.05709
296.33272
296.57785
296.79311
296.97961
297.13884
297.27255
297.38269
297.47134
297.54062
297.59262
297.62939
297.65288
297.66493
297.66726
297.66143
297.64888
297.6309
297.60865
297.58317
297.55538
297.52608
297.49598
297.4657
297.43577
297.40666
297.37876
297.35241
297.3279
297.30546
297.2853
297.26757
297.25242
297.23997
297.23032
297.22358
297.21983
297.21917
297.22171
297.22754
297.23676
297.24948
297.26578
297.2858
297.30969
297.33764
297.36999
297.40713
297.44943
297.49708
297.55044
297.61083
297.67945
297.75297
297.82243
297.88715
297.96256
298.02778
292.34153
284.98757
288.95287
287.83005
289.05171
289.32941
289.92752
290.44641
290.99448
291.54287
292.0941
292.64219
293.18283
293.71111
294.22221
294.7115
295.17474
295.60825
296.00909
296.37509
296.70496
296.99823
297.25522
297.4769
297.66484
297.82104
297.94781
298.04766
298.12321
298.17706
298.21179
298.22986
298.23358
298.22511
298.20641
298.1793
298.14537
298.10609
298.06273
298.01643
297.96817
297.91883
297.86915
297.81978
297.77128
297.72412
297.6787
297.63537
297.5944
297.55604
297.52046
297.48782
297.45825
297.43182
297.40863
297.38872
297.37215
297.35896
297.34919
297.34288
297.34008
297.34083
297.34515
297.35308
297.36462
297.37982
297.39875
297.42154
297.44844
297.47975
297.51568
297.55626
297.6019
297.65393
297.71309
297.77555
297.83426
297.89324
297.96836
298.03097
292.69444
285.87636
289.65105
288.78223
289.98236
290.40113
291.06235
291.6658
292.28838
292.90525
293.51558
294.11204
294.68863
295.23932
295.75863
296.24189
296.6854
297.08655
297.44391
297.75713
298.02688
298.25469
298.44277
298.59384
298.71096
298.79738
298.8564
298.89127
298.90512
298.90091
298.88137
298.84902
298.80612
298.75471
298.6966
298.63338
298.56646
298.49705
298.42621
298.35486
298.28377
298.21362
298.14498
298.07831
298.01402
297.95244
297.89384
297.83844
297.78642
297.73791
297.69301
297.6518
297.61432
297.5806
297.55065
297.52448
297.50209
297.48347
297.4686
297.45749
297.45011
297.44644
297.44645
297.4501
297.45732
297.46808
297.48238
297.5003
297.52201
297.54771
297.57745
297.6112
297.64948
297.69355
297.74355
297.79534
297.84409
297.89788
297.97218
298.03232
293.18235
286.8864
290.54047
289.96171
291.15156
291.71928
292.46057
293.15432
293.85299
294.53371
295.19189
295.81888
296.40764
296.95209
297.44755
297.89088
298.28056
298.61651
298.89999
299.13334
299.31973
299.46288
299.56688
299.63593
299.67422
299.6858
299.67448
299.64381
299.597
299.53697
299.46629
299.38725
299.30186
299.21185
299.11873
299.02379
298.92815
298.83274
298.73837
298.64571
298.55532
298.46766
298.38313
298.30202
298.22461
298.15107
298.08157
298.01623
297.95511
297.89826
297.84572
297.79747
297.75351
297.71381
297.67833
297.64702
297.61984
297.59673
297.57764
297.5625
297.55125
297.54381
297.54008
297.53995
297.54331
297.55004
297.5601
297.5735
297.59035
297.61072
297.63455
297.66185
297.69328
297.72996
297.77129
297.81304
297.85287
297.90214
297.97498
298.03245
293.86135
288.18357
291.66949
291.42137
292.62098
293.3428
294.17529
294.95675
295.7197
296.44303
297.11943
297.74045
298.30023
298.79499
299.2232
299.58533
299.88358
300.12153
300.30371
300.43529
300.52171
300.56846
300.58087
300.56397
300.5224
300.46038
300.38169
300.28966
300.18721
300.07687
299.96082
299.84094
299.71882
299.59581
299.47303
299.35145
299.23186
299.11491
299.00114
298.891
298.78484
298.68293
298.58551
298.49273
298.40472
298.32157
298.24331
298.16997
298.10156
298.03804
297.97937
297.9255
297.87636
297.83187
297.79196
297.75653
297.72549
297.69875
297.67621
297.65776
297.64329
297.63266
297.62572
297.62231
297.62226
297.62541
297.63165
297.64096
297.65335
297.66876
297.68708
297.70842
297.73361
297.76348
297.79668
297.82923
297.86148
297.90724
297.97806
298.03151
294.78755
289.83157
293.12505
293.24131
294.47004
295.3393
296.25388
297.09815
297.88824
298.60706
299.24822
299.80695
300.28199
300.67475
300.98898
301.23012
301.40471
301.51992
301.58308
301.60137
301.58157
301.52994
301.4521
301.35306
301.2372
301.10831
300.96965
300.82398
300.67363
300.52059
300.3665
300.21272
300.06039
299.91044
299.76363
299.62058
299.48179
299.34765
299.21847
299.09448
298.97586
298.86273
298.75517
298.65323
298.55692
298.46622
298.38112
298.30154
298.22743
298.15869
298.09524
298.03697
297.98378
297.93554
297.89215
297.85347
297.81938
297.78976
297.76445
297.74332
297.72621
297.71293
297.70328
297.69706
297.69405
297.69406
297.69696
297.70265
297.71105
297.72201
297.73537
297.75139
297.77097
297.79457
297.82024
297.8446
297.87071
297.91386
297.98165
298.02932
295.93938
291.95505
295.01313
295.50539
296.76472
297.75186
298.70217
299.54779
300.2952
300.93564
301.46915
301.8987
302.23051
302.47287
302.63533
302.72791
302.76054
302.74264
302.68286
302.58896
302.46774
302.32509
302.16603
301.99483
301.81505
301.62964
301.44107
301.25136
301.06216
300.87482
300.69043
300.50985
300.3338
300.16281
299.99732
299.83765
299.68404
299.53667
299.39565
299.26105
299.13289
299.01118
298.89588
298.78694
298.68429
298.58785
298.49751
298.41317
298.3347
298.26198
298.19487
298.13324
298.07694
298.02582
297.97975
297.93856
297.9021
297.87021
297.84272
297.81945
297.8002
297.78473
297.77282
297.76422
297.75869
297.75602
297.75605
297.75863
297.76361
297.77074
297.77987
297.79136
297.80602
297.82388
297.84272
297.86015
297.88126
297.92153
297.98495
298.02625
297.50338
294.66664
297.42836
298.26565
299.49791
300.54707
301.44215
302.18991
302.79948
303.27488
303.62677
303.86779
304.01203
304.07369
304.06634
304.00244
303.89303
303.74771
303.57465
303.38071
303.17158
302.95195
302.72562
302.49571
302.26471
302.03461
301.80702
301.58321
301.36416
301.15064
300.94326
300.74246
300.54856
300.36181
300.18235
300.01028
299.84564
299.68842
299.5386
299.39611
299.26086
299.13277
299.01171
298.89756
298.79019
298.68946
298.59522
298.50731
298.42558
298.34986
298.28
298.21582
298.15717
298.10387
298.05575
298.01263
297.97435
297.94071
297.91151
297.88654
297.86556
297.84832
297.83454
297.82397
297.81633
297.81141
297.80903
297.80903
297.81119
297.8152
297.82097
297.82881
297.83931
297.85211
297.8651
297.87707
297.89429
297.93083
297.98752
298.02197
299.51311
298.03554
300.36327
301.4944
302.69595
303.57384
304.2915
304.82731
305.20403
305.44045
305.55812
305.57752
305.51755
305.3948
305.22346
305.01537
304.78024
304.52594
304.25879
303.98379
303.70491
303.42526
303.14728
302.87285
302.60342
302.34009
302.0837
301.83487
301.59402
301.36148
301.13743
300.922
300.71523
300.5171
300.32757
300.14656
299.97396
299.80963
299.65344
299.50524
299.36485
299.23211
299.10685
298.98889
298.87805
298.77416
298.67702
298.58647
298.5023
298.42435
298.35241
298.28632
298.22588
298.17091
298.12122
298.07663
298.03692
298.00191
297.97137
297.94504
297.92268
297.904
297.8887
297.87651
297.86715
297.86039
297.85605
297.85394
297.85382
297.85541
297.85861
297.86365
297.87076
297.87933
297.88769
297.89579
297.91
297.9416
297.98915
298.01716
302.00097
302.04042
304.07195
305.05955
305.9662
306.58673
307.00016
307.22823
307.30783
307.26903
307.13901
306.94021
306.69093
306.40569
306.09589
305.77035
305.43584
305.09753
304.75932
304.42416
304.09424
303.77121
303.45623
303.15016
302.85359
302.5669
302.29033
302.02401
301.76796
301.52214
301.28648
301.06083
300.84505
300.63894
300.44233
300.25501
300.07676
299.90737
299.74661
299.59429
299.45016
299.31403
299.18568
299.0649
298.95147
298.8452
298.74587
298.65329
298.56725
298.48756
298.414
298.3464
298.28454
298.22824
298.17729
298.13149
298.09063
298.0545
298.02285
297.99541
297.97191
297.95206
297.93554
297.92205
297.91132
297.9031
297.89719
297.89335
297.89137
297.89101
297.89217
297.89492
297.89918
297.90422
297.90896
297.91416
297.9254
297.95089
297.98849
298.01149
305.1092
306.52411
307.86699
308.57871
309.06375
309.27772
309.30375
309.18419
308.96017
308.66237
308.31452
307.93424
307.53456
307.125
306.71247
306.30193
305.89695
305.50001
305.11287
304.7367
304.37227
304.02007
303.68032
303.35313
303.03845
302.73618
302.44614
302.16811
301.90184
301.64706
301.40349
301.17085
300.94884
300.73719
300.53559
300.34377
300.16145
299.98836
299.82424
299.66882
299.52186
299.38312
299.25235
299.12932
299.01382
298.90561
298.80448
298.7102
298.62258
298.54139
298.46644
298.39751
298.33441
298.27693
298.22486
298.178
298.13612
298.09899
298.06635
298.03795
298.01348
297.99264
297.97513
297.96062
297.94883
297.93948
297.93231
297.92706
297.92348
297.92135
297.9206
297.92118
297.92283
297.92487
297.92678
297.92993
297.93911
297.95981
297.98887
298.00661
309.11186
310.91528
311.46326
311.65386
311.60069
311.36612
311.01308
310.58441
310.11056
309.61248
309.10435
308.59575
308.09306
307.60047
307.12068
306.65536
306.2055
305.77159
305.35379
304.95206
304.56619
304.19588
303.84076
303.50043
303.17446
302.86242
302.56387
302.27839
302.00555
301.74494
301.49617
301.25886
301.03263
300.81714
300.61204
300.417
300.23171
300.05587
299.88918
299.73137
299.58217
299.44132
299.30857
299.18367
299.0664
298.95651
298.85379
298.75802
298.66896
298.58642
298.51018
298.44004
298.37578
298.3172
298.26408
298.21621
298.17336
298.1353
298.10177
298.07248
298.04715
298.02546
298.00712
297.9918
297.97919
297.96897
297.96083
297.95444
297.9495
297.94578
297.94318
297.94169
297.94116
297.94127
297.94187
297.94414
297.95124
297.96628
297.98685
298.00122
314.11882
314.49591
314.22526
313.85463
313.32824
312.73048
312.09728
311.45448
310.81641
310.19178
309.58543
308.99999
308.43667
307.89583
307.37733
306.88069
306.40529
305.9504
305.51522
305.09899
304.70093
304.32029
303.95635
303.60842
303.27587
302.95806
302.65443
302.36443
302.08754
301.82327
301.57116
301.33078
301.10172
300.88359
300.67602
300.47865
300.29115
300.11321
299.94451
299.78478
299.63373
299.4911
299.35663
299.23007
299.1112
298.99976
298.89554
298.79831
298.70786
298.62396
298.54642
298.47502
298.40954
298.3498
298.29556
298.24661
298.20273
298.16367
298.12917
298.09895
298.07272
298.05017
298.03099
298.01487
298.00149
297.99052
297.9816
297.97438
297.96851
297.96371
297.95978
297.95663
297.95424
297.95267
297.95222
297.95381
297.95906
297.9694
297.98373
297.99662
316.13572
316.3054
315.7277
314.95955
314.174
313.38716
312.61958
311.87896
311.1688
310.49014
309.8427
309.22554
308.6374
308.07689
307.54259
307.03312
306.54716
306.08345
305.64084
305.21824
304.81466
304.42916
304.0609
303.70907
303.37294
303.05184
302.74512
302.45219
302.17252
301.90557
301.65088
301.40798
301.17646
300.95591
300.74595
300.54623
300.35641
300.17617
300.00519
299.84319
299.6899
299.54503
299.40835
299.2796
299.15854
299.04495
298.9386
298.83926
298.74673
298.66079
298.58124
298.50788
298.44049
298.37887
298.32283
298.27214
298.22658
298.18593
298.14991
298.11825
298.09065
298.06682
298.04644
298.0292
298.01478
298.00286
297.9931
297.98515
297.97865
297.97329
297.96879
297.96494
297.96171
297.95931
297.95824
297.95925
297.96314
297.97059
297.98141
297.99368
310.36935
308.95768
305.16859
302.20986
300.90151
300.60841
300.53869
300.53676
300.4213
300.36728
300.27345
300.18854
300.09868
300.01053
299.92278
299.83449
299.74551
299.65583
299.56545
299.47444
299.38287
299.29086
299.19854
299.10604
299.01349
298.92104
298.82883
298.73699
298.64567
298.55499
298.46508
298.37607
298.28809
298.20126
298.11571
298.03155
297.94891
297.86792
297.7887
297.71137
297.63606
297.56291
297.49204
297.4236
297.35773
297.29456
297.23424
297.17692
297.12275
297.07189
297.02448
296.98069
296.94068
296.90462
296.87268
296.84505
296.8219
296.80345
296.78986
296.78137
296.77819
296.78053
296.78846
296.80196
296.82073
296.84418
296.87113
296.89996
296.92829
296.95324
296.97226
296.98198
296.98739
296.98399
297.00205
297.01515
297.10192
297.16719
297.46386
297.69211
309.54907
306.4901
302.19864
300.08417
299.4988
299.5014
299.60589
299.61617
299.6093
299.58099
299.5534
299.51687
299.47395
299.42523
299.37239
299.31577
299.25578
299.19271
299.12686
299.05856
298.98809
298.91573
298.84174
298.76635
298.68981
298.61235
298.53417
298.45548
298.37649
298.29738
298.21835
298.13958
298.06124
297.98352
297.90656
297.83056
297.75567
297.68205
297.60987
297.53928
297.47046
297.40356
297.33874
297.27616
297.21598
297.15838
297.10351
297.05154
297.00263
296.95695
296.91466
296.87592
296.84092
296.8098
296.78276
296.75996
296.74159
296.72784
296.71886
296.71486
296.71605
296.72257
296.73447
296.75164
296.77372
296.79998
296.82919
296.85963
296.88891
296.91426
296.93346
296.94397
296.95116
296.95194
296.97467
296.99648
297.08902
297.16547
297.47267
297.69576
308.03746
304.34147
301.15765
299.42136
299.08594
299.12558
299.15737
299.12965
299.09944
299.06548
299.03305
298.99679
298.95882
298.91812
298.87532
298.83013
298.78275
298.73316
298.68144
298.62769
298.57202
298.51454
298.45538
298.39468
298.33258
298.26925
298.20483
298.1395
298.07343
298.00678
297.93974
297.87249
297.8052
297.73805
297.67124
297.60495
297.53935
297.47464
297.411
297.34862
297.28768
297.22836
297.17085
297.11535
297.06202
297.01106
296.96265
296.91698
296.87422
296.83455
296.79814
296.76518
296.73584
296.71028
296.68869
296.67125
296.65811
296.64947
296.64547
296.64629
296.65211
296.66304
296.67909
296.70008
296.72555
296.75471
296.78624
296.81835
296.84867
296.87462
296.89433
296.90609
296.91568
296.92099
296.94887
296.9766
297.07814
297.16604
297.4819
297.69964
306.79797
302.84348
299.9433
298.63219
298.58041
298.59551
298.61123
298.57403
298.55403
298.52366
298.49844
298.46856
298.4384
298.40622
298.37293
298.33803
298.30165
298.26368
298.2241
298.18292
298.14015
298.09582
298.04997
298.00266
297.95396
297.90397
297.85278
297.8005
297.74726
297.69319
297.63844
297.58316
297.5275
297.47165
297.41577
297.36005
297.30467
297.24983
297.19571
297.14251
297.09044
297.03969
296.99047
296.94298
296.89741
296.85398
296.81288
296.77432
296.73847
296.70555
296.67572
296.64918
296.62611
296.60668
296.59106
296.57945
296.57199
296.56885
296.57018
296.57613
296.58685
296.60243
296.62281
296.64776
296.67674
296.70888
296.74278
296.7766
296.80807
296.83478
296.85534
296.86879
296.88129
296.89144
296.92481
296.95844
297.06936
297.16876
297.49151
297.70371
306.0518
301.58162
298.94418
297.97365
298.05075
298.02353
298.04834
298.01031
298.00206
297.97655
297.96026
297.93772
297.91636
297.89321
297.8695
297.84456
297.81856
297.79132
297.76284
297.73306
297.70197
297.66954
297.63579
297.60072
297.56436
297.52676
297.48796
297.44804
297.40708
297.36518
297.32244
297.279
297.23498
297.19053
297.1458
297.10097
297.05621
297.0117
296.96763
296.9242
296.88162
296.84008
296.7998
296.76099
296.72386
296.68863
296.6555
296.62469
296.5964
296.57083
296.54816
296.5286
296.51232
296.49951
296.49034
296.48497
296.48358
296.4863
296.49327
296.50463
296.52049
296.54091
296.56578
296.5948
296.62738
296.66255
296.69886
296.73448
296.76721
296.79491
296.81666
296.83224
296.84813
296.86341
296.90255
296.94296
297.06261
297.17324
297.50139
297.70797
305.45282
300.35275
298.11061
297.34102
297.48976
297.43212
297.47728
297.43991
297.44671
297.42801
297.42285
297.40914
297.39766
297.38413
297.37027
297.35529
297.33936
297.32235
297.30425
297.28502
297.26464
297.24308
297.22035
297.19643
297.17134
297.14509
297.11772
297.08927
297.05979
297.02935
296.99803
296.96593
296.93315
296.89982
296.86607
296.83206
296.79792
296.76385
296.73001
296.69659
296.6638
296.63184
296.6009
296.57122
296.543
296.51645
296.4918
296.46925
296.44901
296.43129
296.41627
296.40416
296.39513
296.38937
296.38704
296.38831
296.39332
296.40222
296.41512
296.43212
296.45333
296.47876
296.50825
296.54145
296.57769
296.61594
296.65472
296.69221
296.72632
296.75526
296.77857
296.7967
296.81639
296.83705
296.88216
296.93024
297.05779
297.17898
297.51147
297.71244
304.84408
299.26238
297.43012
296.76188
296.95877
296.87447
296.93967
296.90061
296.92002
296.90591
296.90993
296.90345
296.90001
296.8943
296.88851
296.88183
296.87436
296.86603
296.85682
296.84667
296.83558
296.82351
296.81044
296.79636
296.78127
296.76517
296.74806
296.72998
296.71096
296.69105
296.6703
296.64879
296.6266
296.60383
296.5806
296.55703
296.53326
296.50945
296.48575
296.46234
296.43942
296.41716
296.39577
296.37546
296.35644
296.33891
296.32308
296.30916
296.29736
296.28788
296.2809
296.27662
296.27522
296.27687
296.28173
296.28995
296.30167
296.31702
296.33607
296.35894
296.38567
296.41625
296.45048
296.48792
296.52787
296.56925
296.61054
296.64997
296.68564
296.71607
296.7413
296.76239
296.78622
296.81251
296.86372
296.91949
297.05482
297.1859
297.5217
297.71715
304.33525
298.27747
296.85049