/*--------------------------------*- C++ -*----------------------------------*\
  =========                 |
  \\      /  F ield         | OpenFOAM: The Open Source CFD Toolbox
   \\    /   O peration     | Website:  https://openfoam.org
    \\  /    A nd           | Version:  12
     \\/     M anipulation  |
\*---------------------------------------------------------------------------*/
FoamFile
{
    format      ascii;
    class       surfaceScalarField;
    location    "0.072";
    object      phi;
}
// * * * * * * * * * * * * * * * * * * * * * * * * * * * * * * * * * * * * * //

dimensions      [1 0 -1 0 0 0 0];

internalField   nonuniform List<scalar> 
31760
(
-0.0006406494
-0.050779737
0.051417977
-0.0016093967
-0.064219967
0.065187221
-0.0026143299
-0.062855731
0.063862876
-0.0036384132
-0.068516817
0.069538872
-0.0047181385
-0.070190259
0.071267757
-0.0058259607
-0.074446233
0.075551863
-0.0070053358
-0.077372186
0.078549213
-0.0082230363
-0.081371453
0.082586781
-0.0095024195
-0.084989798
0.086266689
-0.010840508
-0.089101186
0.090436709
-0.012234967
-0.093229851
0.094621642
-0.01369716
-0.097635072
0.099094502
-0.015221905
-0.10220459
0.10372647
-0.01681741
-0.10700014
0.10859267
-0.018483304
-0.1120106
0.11367341
-0.02022434
-0.11725256
0.1189904
-0.022043208
-0.12273407
0.12454962
-0.02394313
-0.12846653
0.13036302
-0.025927368
-0.13446093
0.13644161
-0.027999344
-0.1407285
0.1427968
-0.030162516
-0.14728162
0.14944099
-0.032420668
-0.15413222
0.15638645
-0.03477742
-0.16129387
0.16364657
-0.037236704
-0.16878023
0.17123533
-0.039801519
-0.17660578
0.1791663
-0.042476471
-0.18478461
0.18745514
-0.04526548
-0.19333292
0.19611738
-0.048171999
-0.20226724
0.20516911
-0.05119955
-0.21160447
0.21462726
-0.054352205
-0.2213626
0.22451041
-0.0576333
-0.23156053
0.2348367
-0.06104619
-0.24221798
0.24562589
-0.064593714
-0.2533564
0.25689891
-0.068278943
-0.2649968
0.26867701
-0.072103889
-0.2771632
0.28098316
-0.076070235
-0.28987978
0.2938412
-0.080179332
-0.30317216
0.30727644
-0.08443167
-0.31706794
0.32131561
-0.088827082
-0.33159496
0.33598592
-0.093364259
-0.34678456
0.35131755
-0.098041203
-0.36266833
0.36734143
-0.10285448
-0.37927987
0.38408973
-0.10779948
-0.39665503
0.40159712
-0.11287034
-0.41483144
0.41990004
-0.11805932
-0.43384919
0.43903666
-0.12335722
-0.45374962
0.45904691
-0.12875243
-0.47457728
0.47997295
-0.13423199
-0.49637814
0.50185937
-0.13978035
-0.51920179
0.52475322
-0.14537915
-0.54309946
0.54870291
-0.15100729
-0.5681249
0.57375948
-0.15664119
-0.59433535
0.59997772
-0.16225342
-0.62179028
0.6274132
-0.16781292
-0.65055223
0.65612491
-0.1732851
-0.68068662
0.6861747
-0.17862992
-0.71226283
0.71762649
-0.1838031
-0.74535271
0.75054795
-0.18875501
-0.78003184
0.78500924
-0.19342895
-0.81637993
0.82108301
-0.19776241
-0.8544802
0.85884661
-0.20168491
-0.89441996
0.89837934
-0.20511819
-0.9362907
0.93976485
-0.2079746
-0.98018909
0.98309037
-0.2101567
-1.0262164
1.0284475
-0.21155597
-1.0744771
1.0759295
-0.21205214
-1.1250802
1.1256341
-0.21150999
-1.1781361
1.177657
-0.20978506
-1.2337547
1.2320995
-0.20671122
-1.2920514
1.2890558
-0.20210165
-1.3531399
1.3486198
-0.19575412
-1.4171342
1.4108905
-0.18745017
-1.4841447
1.4759622
-0.17694009
-1.5542744
1.5439059
-0.16397488
-1.6275778
1.6147749
-0.14816282
-1.7040965
1.6884648
-0.12961552
-1.7837843
1.7654257
-0.10670836
-1.8667969
1.8440725
-0.081682376
-1.955773
1.9308524
-0.049967733
-2.0473233
2.0156753
-2.1507902
2.1159598
-0.00063716053
-0.050145122
-0.001511198
-0.063347852
-0.0024099088
-0.06195902
-0.003374987
-0.067553895
-0.0043516611
-0.069215926
-0.0054057054
-0.073394529
-0.0064755624
-0.076304805
-0.0076255183
-0.080224014
-0.0088019235
-0.083816026
-0.010052992
-0.087852832
-0.011347567
-0.091938102
-0.012709975
-0.096275592
-0.014130363
-0.10078725
-0.015617783
-0.10551588
-0.017172478
-0.11045918
-0.018798627
-0.11562982
-0.020498453
-0.12103778
-0.022275762
-0.12669289
-0.024133805
-0.13260668
-0.026076196
-0.13879005
-0.028106628
-0.14525527
-0.030228389
-0.15201468
-0.032445618
-0.15908101
-0.034762041
-0.16646832
-0.03718249
-0.17418999
-0.039709819
-0.18226209
-0.042348759
-0.19069891
-0.045103089
-0.19951798
-0.047977134
-0.20873562
-0.050974512
-0.21837053
-0.054099348
-0.2284411
-0.057355022
-0.2389678
-0.060744886
-0.24997208
-0.064271978
-0.26147529
-0.067938772
-0.273502
-0.071747647
-0.28607647
-0.075699825
-0.29922549
-0.079796868
-0.31297629
-0.084038176
-0.3273589
-0.088423399
-0.34240437
-0.092950983
-0.35814551
-0.097617874
-0.37461739
-0.10241975
-0.39185711
-0.10735155
-0.40990303
-0.11240624
-0.42879723
-0.11757527
-0.44858252
-0.12284842
-0.46930512
-0.12821306
-0.49101338
-0.13365492
-0.51375857
-0.1391574
-0.53759416
-0.14470111
-0.56257672
-0.15026395
-0.58876619
-0.15582066
-0.61622516
-0.16134286
-0.64501932
-0.16679836
-0.67521787
-0.17215072
-0.70689442
-0.1773593
-0.74012506
-0.18237828
-0.77499049
-0.18715606
-0.81157627
-0.19163544
-0.84997125
-0.19575198
-0.89027001
-0.19943395
-0.9325714
-0.20260097
-0.97698076
-0.20516479
-1.0236073
-0.2070261
-1.0725662
-0.20807624
-1.1239758
-0.20819054
-1.177962
-0.20723477
-1.2346437
-0.20505883
-1.2941515
-0.20149415
-1.3566169
-0.19635659
-1.4221688
-0.18944091
-1.4909388
-0.18052566
-1.5630468
-0.16935758
-1.6385818
-0.1556879
-1.7175843
-0.13925773
-1.8000237
-0.11939536
-1.8864832
-0.096772046
-1.9782963
-0.068896857
-2.0751422
-2.1820602
-0.00057597294
-0.049571513
-0.0013917343
-0.062533904
-0.0022047318
-0.06114916
-0.003112506
-0.06664813
-0.0040105566
-0.068320131
-0.0049951256
-0.072412223
-0.0059817478
-0.075320621
-0.0070518752
-0.079156381
-0.00814173
-0.082728807
-0.0093046077
-0.086692689
-0.010507785
-0.090737789
-0.011775221
-0.095011138
-0.01309805
-0.09946753
-0.014484526
-0.10413265
-0.015935362
-0.10901172
-0.017454168
-0.11411453
-0.019044313
-0.11945129
-0.020708768
-0.12503224
-0.022451825
-0.13086758
-0.024276332
-0.13696964
-0.026186802
-0.14334905
-0.028186786
-0.15001911
-0.030280193
-0.15699217
-0.032471841
-0.1642814
-0.034765032
-0.17190169
-0.037165012
-0.17986715
-0.039675268
-0.18819385
-0.042300902
-0.19689768
-0.04504551
-0.20599648
-0.047914276
-0.21550737
-0.050910352
-0.22545074
-0.054038104
-0.23584586
-0.057301381
-0.2467147
-0.060702913
-0.25807972
-0.064246336
-0.26996458
-0.067933867
-0.28239495
-0.071767796
-0.29539754
-0.075748693
-0.30900131
-0.07987763
-0.32323577
-0.084154147
-0.3381335
-0.088576516
-0.35372856
-0.093142675
-0.37005634
-0.097849303
-0.38715522
-0.10269099
-0.40506559
-0.10766181
-0.42383007
-0.11275384
-0.44349345
-0.1179579
-0.46410317
-0.12326216
-0.48571027
-0.1286541
-0.50836661
-0.13411815
-0.53212879
-0.13963618
-0.55705586
-0.14518883
-0.58320899
-0.15075282
-0.6106547
-0.15630227
-0.63946125
-0.16180799
-0.66970116
-0.16723699
-0.7014518
-0.17255259
-0.73479296
-0.17771246
-0.769811
-0.18267089
-0.80659486
-0.18737511
-0.84524047
-0.19176735
-0.88584747
-0.19578223
-0.92852235
-0.19934791
-0.97337695
-0.20238349
-1.0205294
-0.20479939
-1.0701038
-0.20649527
-1.1222286
-0.207364
-1.1770361
-0.20728067
-1.2346627
-0.20610647
-1.2952518
-0.20369337
-1.3589437
-0.19986815
-1.4258917
-0.1944504
-1.4962347
-0.18723183
-1.5701216
-0.17799078
-1.6476572
-0.16649933
-1.7288924
-0.15245229
-1.8138795
-0.13551073
-1.9032554
-0.11563992
-1.9980735
-0.091561029
-2.0991659
-2.2096105
-0.00051975399
-0.049054119
-0.0012748777
-0.06178059
-0.0020159868
-0.060409912
-0.0028713832
-0.065794802
-0.0037026727
-0.067491147
-0.0046201882
-0.071497026
-0.0055294936
-0.074413801
-0.0065258638
-0.078162559
-0.0075350363
-0.081722318
-0.0086167569
-0.085613757
-0.0097357012
-0.089621762
-0.010916037
-0.093833841
-0.012149856
-0.098236881
-0.013444418
-0.10284139
-0.01480142
-0.10765816
-0.016224649
-0.11269488
-0.017717424
-0.11796225
-0.019283154
-0.12347039
-0.020925345
-0.12922942
-0.022648378
-0.1352508
-0.024455461
-0.14154632
-0.026351694
-0.14812739
-0.028341024
-0.15500752
-0.030427479
-0.16219978
-0.032616252
-0.16971791
-0.034911337
-0.17757722
-0.037317811
-0.18579269
-0.039840056
-0.19438091
-0.042483562
-0.20335859
-0.045251729
-0.21274495
-0.048149729
-0.22255862
-0.051181963
-0.23281962
-0.054352168
-0.24355059
-0.057664267
-0.25477379
-0.061121712
-0.26651336
-0.064727006
-0.27879591
-0.068482407
-0.2916484
-0.072389881
-0.30510006
-0.076449829
-0.31918198
-0.080662346
-0.33392701
-0.085026888
-0.34936985
-0.089540838
-0.36554798
-0.094201453
-0.38249986
-0.099004436
-0.40026745
-0.10394393
-0.4188949
-0.10901352
-0.43842756
-0.11420359
-0.45891606
-0.1195053
-0.48041063
-0.12490593
-0.50296702
-0.13039193
-0.52664262
-0.13594772
-0.55149852
-0.14155475
-0.57759884
-0.14719281
-0.60501173
-0.15283907
-0.6338081
-0.15846645
-0.66406467
-0.1640465
-0.69586017
-0.16954563
-0.72927954
-0.17492679
-0.76441257
-0.18014855
-0.80135262
-0.18516416
-0.84020092
-0.18992159
-0.88106245
-0.19436262
-0.92404988
-0.19842283
-0.96928131
-0.20202991
-1.0168827
-0.20510384
-1.0669858
-0.20755759
-1.1197258
-0.20928709
-1.1752517
-0.21018774
-1.2336996
-0.21013195
-1.2952354
-0.20898752
-1.3600031
-0.20660144
-1.4281763
-0.20279878
-1.4999158
-0.19740482
-1.5753715
-0.19021356
-1.6546826
-0.18101474
-1.7379079
-0.16953011
-1.8251751
-0.15550016
-1.9171243
-0.1387
-2.0147897
-0.11834908
-2.1194744
-2.2332419
-0.00046395446
-0.048592491
-0.0011712012
-0.061075186
-0.0018341665
-0.05974915
-0.0026343623
-0.064996705
-0.003392515
-0.066735287
-0.0042519486
-0.070639914
-0.0050938681
-0.073574362
-0.0060248602
-0.077234117
-0.006961938
-0.080787926
-0.007970511
-0.084607974
-0.0090149407
-0.088580251
-0.01011814
-0.092733684
-0.011274347
-0.097083848
-0.012489765
-0.10162928
-0.01376682
-0.10638456
-0.015108657
-0.11135664
-0.01651907
-0.11655557
-0.018001874
-0.12199147
-0.019560801
-0.12767454
-0.021199918
-0.13361589
-0.022923973
-0.13982663
-0.024736352
-0.14631954
-0.026642601
-0.15310595
-0.028647344
-0.16019989
-0.030755138
-0.16761513
-0.0329713
-0.17536623
-0.03530108
-0.18346824
-0.037749459
-0.19193801
-0.040321411
-0.20079227
-0.043022192
-0.21004995
-0.045856729
-0.21972998
-0.048829558
-0.22985282
-0.051945099
-0.24044118
-0.055207775
-0.25151734
-0.058620822
-0.2631066
-0.0621874
-0.27523567
-0.065910096
-0.28793206
-0.069790895
-0.3012256
-0.07383064
-0.31514851
-0.078029808
-0.32973402
-0.082387445
-0.34501824
-0.086902469
-0.36103877
-0.091571682
-0.37783617
-0.096391493
-0.3954528
-0.10135752
-0.41393359
-0.10646287
-0.43332637
-0.1117004
-0.45368202
-0.11706105
-0.47505269
-0.12253416
-0.49749567
-0.12810821
-0.52106923
-0.13376877
-0.54583736
-0.13950039
-0.57186517
-0.14528501
-0.59922341
-0.15110226
-0.62798531
-0.15692966
-0.65822966
-0.16274127
-0.69003865
-0.16850764
-0.7235007
-0.17419712
-0.75870782
-0.17977268
-0.79575871
-0.18519393
-0.83475801
-0.19041465
-0.8758165
-0.19538392
-0.91905158
-0.20004454
-0.96458766
-0.20433332
-1.0125567
-0.20817983
-1.0630973
-0.21150444
-1.1163541
-0.21422328
-1.1724796
-0.21623205
-1.2316299
-0.2174311
-1.2939656
-0.21768731
-1.3596631
-0.21687261
-1.4288906
-0.21483401
-1.5018337
-0.21140726
-1.5786552
-0.2064154
-1.6595098
-0.19965845
-1.7444836
-0.19089166
-1.8337576
-0.17989522
-1.9279699
-0.16639471
-2.0282169
-0.14985597
-2.135984
-2.2527421
-0.00041366063
-0.048181093
-0.0010794651
-0.060411203
-0.0016789795
-0.059151806
-0.0024206478
-0.0642571
-0.0031031251
-0.066055063
-0.0039107199
-0.069834609
-0.0046866654
-0.072800852
-0.0055582279
-0.076365074
-0.006432529
-0.079916276
-0.0073784082
-0.083664851
-0.0083615666
-0.087599975
-0.0094015196
-0.091696735
-0.010494758
-0.095993742
-0.011645977
-0.10048132
-0.012858032
-0.1051759
-0.014134807
-0.11008341
-0.015479824
-0.11521424
-0.016896974
-0.12057816
-0.018390774
-0.12618473
-0.019965231
-0.13204557
-0.021625459
-0.1381707
-0.023376287
-0.14457316
-0.02522288
-0.15126397
-0.027170365
-0.15825718
-0.029224379
-0.16556605
-0.031390761
-0.17320494
-0.033674275
-0.18118997
-0.036081258
-0.18953642
-0.038617042
-0.19826202
-0.041287043
-0.20738562
-0.044096892
-0.21692594
-0.047051211
-0.22690442
-0.050155441
-0.23734298
-0.053412936
-0.24826596
-0.056828264
-0.25969747
-0.060404827
-0.27166535
-0.064144901
-0.28419825
-0.068050558
-0.29732621
-0.072123436
-0.31108185
-0.076363704
-0.32549989
-0.080771364
-0.34061659
-0.085344528
-0.35647142
-0.090081585
-0.37310468
-0.094979407
-0.39056023
-0.10003305
-0.40888478
-0.10523756
-0.42812622
-0.11058727
-0.44833605
-0.11607345
-0.46956953
-0.12168824
-0.49188306
-0.1274203
-0.51533833
-0.13325909
-0.53999858
-0.13919064
-0.56593229
-0.14519993
-0.59321128
-0.15126983
-0.62191086
-0.15738091
-0.6521121
-0.16351128
-0.68389966
-0.169637
-0.71736397
-0.17572972
-0.75260144
-0.18175863
-0.78971323
-0.18768832
-0.82880859
-0.19348022
-0.87000144
-0.19909001
-0.9134149
-0.20446877
-0.95917801
-0.20956153
-1.0074287
-0.21430722
-1.0583116
-0.21863767
-1.1119782
-0.22247706
-1.1685885
-0.22574278
-1.2283047
-0.22833385
-1.291305
-0.23014949
-1.3577649
-0.23106512
-1.427876
-0.23094983
-1.50183
-0.22965928
-1.579805
-0.22703478
-1.6619731
-0.22289513
-1.7484469
-0.21702794
-1.8394488
-0.20922963
-1.9356311
-0.19925087
-2.0381368
-0.18668625
-2.1485397
-2.267888
-0.00037094314
-0.047812332
-0.0010053014
-0.059778623
-0.0015495133
-0.058609686
-0.0022432242
-0.063565412
-0.0028649781
-0.065435527
-0.0036254957
-0.069076327
-0.004344363
-0.072084358
-0.0051541497
-0.075557751
-0.0059857118
-0.0790873
-0.0068847664
-0.082768482
-0.0078213551
-0.086666193
-0.0088112936
-0.090709721
-0.0098542259
-0.09495386
-0.010954189
-0.099384539
-0.012115233
-0.10401817
-0.013340843
-0.10886124
-0.014635882
-0.11392279
-0.016004452
-0.11921332
-0.017451363
-0.12474169
-0.018982024
-0.13051893
-0.020601057
-0.13655583
-0.022314686
-0.14286386
-0.024128146
-0.14945498
-0.026047154
-0.15634279
-0.028078091
-0.16353988
-0.030226624
-0.17106133
-0.032499671
-0.17892199
-0.034902826
-0.18713848
-0.037441858
-0.19572834
-0.040123414
-0.20470954
-0.042952546
-0.2141024
-0.045934893
-0.22392778
-0.049075189
-0.23420848
-0.052378614
-0.24496842
-0.055848295
-0.25623373
-0.059487976
-0.26803166
-0.063300852
-0.28039138
-0.067288693
-0.29334437
-0.071452717
-0.30692379
-0.075793665
-0.32116483
-0.080311593
-0.33610443
-0.08500535
-0.35178326
-0.08987348
-0.36824193
-0.094912925
-0.38552587
-0.10012087
-0.40368156
-0.10549286
-0.4227585
-0.11102352
-0.44280911
-0.11670743
-0.46388868
-0.12253668
-0.48605608
-0.12850389
-0.50937246
-0.13459907
-0.53390368
-0.14081187
-0.55971854
-0.14713056
-0.58689023
-0.15354094
-0.61549653
-0.16002776
-0.64561955
-0.16657301
-0.67734669
-0.17315714
-0.71076989
-0.17975743
-0.74598874
-0.18634817
-0.78310737
-0.19290094
-0.82223769
-0.19938273
-0.86349825
-0.20575738
-0.90701524
-0.21198354
-0.95292287
-0.2180155
-1.0013633
-0.22380202
-1.0524868
-0.22928521
-1.1064512
-0.23440103
-1.1634222
-0.23907829
-1.2235691
-0.24323271
-1.2870823
-0.24677215
-1.3541445
-0.24959681
-1.4249543
-0.2515886
-1.4997221
-0.25262055
-1.5786365
-0.25256138
-1.6618771
-0.25124303
-1.7495974
-0.24847815
-1.8420505
-0.24410031
-1.93989
-0.23787914
-2.0443174
-0.22951336
-2.1569202
-2.278436
-0.00032825248
-0.047486167
-0.00093690429
-0.059171687
-0.0014315703
-0.058117038
-0.0020793118
-0.062919626
-0.0026556161
-0.064861354
-0.0033859948
-0.068348103
-0.004070512
-0.071402141
-0.0048625445
-0.074768101
-0.0056547498
-0.078297577
-0.0065080663
-0.081917749
-0.0074025813
-0.085774378
-0.008349674
-0.089765442
-0.0093518571
-0.09395461
-0.010412573
-0.09832688
-0.011536271
-0.10289766
-0.01272754
-0.10767328
-0.013990355
-0.11266342
-0.015330709
-0.11787654
-0.016753451
-0.12332266
-0.018264273
-0.12901196
-0.019869034
-0.13495507
-0.021573756
-0.14116327
-0.023384767
-0.14764825
-0.025309328
-0.15442264
-0.027352936
-0.16150082
-0.029523098
-0.16889585
-0.031825982
-0.17662392
-0.034268444
-0.18470095
-0.036857025
-0.19314481
-0.039597817
-0.20197392
-0.042496589
-0.2112089
-0.045559122
-0.22087061
-0.048790588
-0.23098246
-0.05219509
-0.24156943
-0.055776925
-0.25265746
-0.05953966
-0.26427452
-0.063485548
-0.2764511
-0.067616932
-0.28921857
-0.07193524
-0.30261103
-0.076441145
-0.31666439
-0.0811346
-0.33141632
-0.086015714
-0.34690734
-0.091082529
-0.3631801
-0.096333601
-0.38027951
-0.10176656
-0.39825297
-0.1073782
-0.41715081
-0.11316501
-0.43702573
-0.11912279
-0.45793372
-0.12524642
-0.47993454
-0.13153012
-0.50308998
-0.13796756
-0.52746647
-0.14455059
-0.55313459
-0.15127077
-0.58016784
-0.15811788
-0.60864573
-0.16508069
-0.63865141
-0.17214616
-0.67027403
-0.17929878
-0.703608
-0.18652151
-0.73875447
-0.19379479
-0.77582001
-0.2010961
-0.81491951
-0.20839996
-0.85617443
-0.21567745
-0.89971434
-0.22289562
-0.94567743
-0.23001799
-0.99420933
-0.23700249
-1.0454657
-0.24380307
-1.0996082
-0.25036675
-1.1568095
-0.25663273
-1.2172461
-0.2625348
-1.2811134
-0.26799889
-1.3486013
-0.27292887
-1.4199301
-0.2772362
-1.4953028
-0.28080897
-1.5749335
-0.28353358
-1.6590064
-0.28526724
-1.7477084
-0.28584917
-1.8413237
-0.2851387
-1.9405057
-0.28294513
-2.0464925
-0.27905845
-2.1608472
-2.2841076
-0.00028692201
-0.047201231
-0.00087664569
-0.058583607
-0.0013307663
-0.057664843
-0.0019530651
-0.062299196
-0.0025065239
-0.064309931
-0.0032112845
-0.067645395
-0.0038697034
-0.070745918
-0.0046378682
-0.074002176
-0.0054003334
-0.077537486
-0.00622103
-0.081099519
-0.0070881048
-0.08490988
-0.0080082734
-0.088847958
-0.0089864154
-0.092979265
-0.010025978
-0.097290228
-0.011132052
-0.10179461
-0.012309481
-0.106499
-0.013563946
-0.11141222
-0.014900873
-0.11654301
-0.016326285
-0.12190077
-0.017846965
-0.12749492
-0.019468965
-0.13333684
-0.021199823
-0.1394363
-0.023045924
-0.14580616
-0.025014671
-0.15245803
-0.027113655
-0.1594061
-0.029349674
-0.1666642
-0.03173027
-0.17424781
-0.034262325
-0.18217349
-0.036952293
-0.19045953
-0.039806995
-0.19912399
-0.042832513
-0.20818824
-0.046033926
-0.21767413
-0.049416146
-0.22760523
-0.052984011
-0.23800659
-0.056741243
-0.24890529
-0.060690661
-0.26033017
-0.064835223
-0.2723116
-0.06917688
-0.28488195
-0.073716773
-0.29807611
-0.078456088
-0.31192996
-0.083394941
-0.32648224
-0.088533128
-0.34177377
-0.093870493
-0.35784714
-0.099406498
-0.37474764
-0.10513957
-0.39252371
-0.1110684
-0.4112254
-0.117191
-0.43090605
-0.12350525
-0.4516218
-0.13000872
-0.47343273
-0.1366979
-0.49640163
-0.14356952
-0.52059475
-0.15061926
-0.54608367
-0.1578418
-0.57294289
-0.16523153
-0.60125222
-0.17278107
-0.63109654
-0.18048225
-0.66256581
-0.1883246
-0.6957567
-0.19629731
-0.73077069
-0.20438633
-0.7677176
-0.2125758
-0.80671407
-0.22084782
-0.84788357
-0.22918126
-0.89135884
-0.23755203
-0.93728092
-0.24593198
-0.98579938
-0.25429055
-1.0370722
-0.2625914
-1.0912667
-0.27079485
-1.1485586
-0.27885183
-1.2091336
-0.28671081
-1.2731893
-0.2943064
-1.3409292
-0.30157233
-1.4125737
-0.30842867
-1.4883406
-0.31479045
-1.5684504
-0.32055691
-1.6531063
-0.32560878
-1.7425184
-0.32981185
-1.8369997
-0.33304919
-1.9372038
-0.33518858
-2.0443614
-0.33609221
-2.1600186
-2.2845638
-0.00024831233
-0.046954796
-0.00082621719
-0.058007261
-0.0012497246
-0.057243159
-0.0018939975
-0.061656698
-0.0024327231
-0.063773138
-0.0031181313
-0.066961953
-0.0037532802
-0.070112846
-0.0044804408
-0.073277159
-0.0052280003
-0.076792174
-0.0060322493
-0.080297606
-0.0068886533
-0.084055912
-0.0078000739
-0.087939073
-0.0087736343
-0.092008342
-0.0098132778
-0.096253328
-0.010924767
-0.10068597
-0.012113865
-0.10531286
-0.013386815
-0.11014234
-0.014750304
-0.11518269
-0.016211127
-0.12044323
-0.017776
-0.12593345
-0.019453544
-0.1316628
-0.021250216
-0.13764324
-0.023174878
-0.14388521
-0.025234813
-0.15040191
-0.027437846
-0.15720697
-0.029792068
-0.16431398
-0.032304871
-0.17173909
-0.034983223
-0.1794993
-0.037834516
-0.18761248
-0.040864726
-0.19609808
-0.044079443
-0.20497788
-0.047484325
-0.21427364
-0.051083811
-0.22401017
-0.054882118
-0.23421273
-0.058882558
-0.24490929
-0.063087985
-0.25612918
-0.067500681
-0.2679033
-0.072122407
-0.28026457
-0.076954971
-0.29324783
-0.081999115
-0.30689
-0.087255819
-0.32122958
-0.092725913
-0.33630755
-0.098409924
-0.35216679
-0.10430791
-0.36885307
-0.11042073
-0.38641397
-0.11674891
-0.40489991
-0.12329242
-0.42436476
-0.1300517
-0.44486418
-0.13702689
-0.46645851
-0.14421818
-0.48921054
-0.15162474
-0.51318749
-0.15924669
-0.53845999
-0.16708246
-0.56510424
-0.17513037
-0.59320011
-0.18338821
-0.62283306
-0.19185244
-0.65409432
-0.20051893
-0.68708119
-0.20938169
-0.72189697
-0.21843387
-0.75865232
-0.2276668
-0.79746569
-0.23706922
-0.83846309
-0.24662873
-0.88177829
-0.25632992
-0.92755526
-0.26615511
-0.97594571
-0.27608283
-1.0271112
-0.28608854
-1.081222
-0.29614317
-1.1384583
-0.30621403
-1.1990092
-0.31625972
-1.263081
-0.32623537
-1.3308803
-0.33609068
-1.4026332
-0.34575941
-1.4785738
-0.3551813
-1.5589188
-0.36427798
-1.643892
-0.37295256
-1.7337276
-0.38109242
-1.8287682
-0.38861634
-1.9296495
-0.3954254
-2.0375951
-0.40148245
-2.1540835
-2.2794356
-0.00021386008
-0.046742705
-0.00079148955
-0.057431103
-0.0011917116
-0.056844657
-0.0018558745
-0.060994188
-0.0023727355
-0.063258095
-0.0030498425
-0.066286683
-0.0036768987
-0.069487745
-0.0043977
-0.072558372
-0.0051472843
-0.0760447
-0.0059512617
-0.07949582
-0.0068148072
-0.083194647
-0.0077380762
-0.087018175
-0.0087295177
-0.091019363
-0.0097939433
-0.095191458
-0.010938017
-0.099544546
-0.012168447
-0.10408518
-0.013492405
-0.10882122
-0.014917218
-0.11376081
-0.016451312
-0.11891216
-0.0181026
-0.12428527
-0.019879343
-0.12988925
-0.021790444
-0.13573543
-0.023844033
-0.14183499
-0.026048808
-0.14820058
-0.02841347
-0.15484582
-0.030945412
-0.16178562
-0.03365246
-0.16903567
-0.036541899
-0.17661354
-0.039620484
-0.18453761
-0.042893451
-0.19282886
-0.046367235
-0.20150786
-0.0500457
-0.21059895
-0.053933641
-0.22012601
-0.058033852
-0.23011628
-0.062349178
-0.24059771
-0.066882578
-0.25159948
-0.071636006
-0.26315352
-0.076611027
-0.27529313
-0.081809413
-0.28805292
-0.087233003
-0.30146977
-0.092883342
-0.31558246
-0.098762251
-0.33043168
-0.10487142
-0.34606044
-0.11121344
-0.36251359
-0.11779068
-0.37983896
-0.12460547
-0.39808694
-0.13166143
-0.41731014
-0.13896101
-0.43756539
-0.14650812
-0.45891152
-0.15430599
-0.48141202
-0.16235835
-0.50513361
-0.17066792
-0.53014789
-0.17923835
-0.55653015
-0.18807272
-0.58436084
-0.19717328
-0.61372621
-0.20654212
-0.64471767
-0.21618095
-0.6774329
-0.22609008
-0.71197658
-0.23626914
-0.74846005
-0.24671638
-0.78700312
-0.25742981
-0.82773197
-0.26840434
-0.87078339
-0.27963416
-0.91630195
-0.29111131
-0.96444137
-0.30282534
-1.0153655
-0.31476318
-1.0692471
-0.32690868
-1.1262693
-0.33923978
-1.1866271
-0.35173461
-1.2505267
-0.36436208
-1.318184
-0.37708337
-1.3898332
-0.38986743
-1.4657016
-0.40266227
-1.5460286
-0.41541238
-1.6310443
-0.42804237
-1.7210084
-0.44048289
-1.8162701
-0.45266569
-1.9174742
-0.46453361
-2.0258155
-0.47615114
-2.1426515
-2.2683064
-0.000192346
-0.046552015
-0.0007888413
-0.056835984
-0.0011847699
-0.056450338
-0.0018423678
-0.060338144
-0.0023519856
-0.062750176
-0.0030312467
-0.065609141
-0.0036732522
-0.068847561
-0.0044008885
-0.071832612
-0.0051718868
-0.075275662
-0.0059969087
-0.078672832
-0.006889521
-0.082304147
-0.007848974
-0.086060913
-0.0088848155
-0.089985791
-0.010003108
-0.094075515
-0.011211563
-0.09833852
-0.012518059
-0.10278119
-0.013931034
-0.10741083
-0.015459307
-0.11223519
-0.017111499
-0.1172627
-0.01889754
-0.12250203
-0.020826218
-0.12796343
-0.02290718
-0.13365738
-0.025149227
-0.13959591
-0.027561434
-0.14579139
-0.030152297
-0.15225802
-0.032929851
-0.15901115
-0.035901085
-0.16606756
-0.039073107
-0.17344465
-0.042451354
-0.1811625
-0.046041804
-0.18924155
-0.049848251
-0.19770454
-0.05387483
-0.20657548
-0.058124848
-0.21587906
-0.062600885
-0.22564327
-0.067305415
-0.23589615
-0.072240681
-0.24666712
-0.077408383
-0.25798865
-0.082810992
-0.26989325
-0.08845046
-0.28241607
-0.094329526
-0.29559318
-0.10045109
-0.30946321
-0.10681853
-0.32406636
-0.113436
-0.33944485
-0.12030776
-0.35564343
-0.12743861
-0.37270936
-0.13483448
-0.39069191
-0.14250112
-0.40964386
-0.15044509
-0.4296212
-0.15867303
-0.4506827
-0.16719229
-0.4728911
-0.17601025
-0.49631311
-0.18513518
-0.52101943
-0.19457454
-0.54708614
-0.2043364
-0.5745931
-0.21442819
-0.60362719
-0.22485835
-0.63427881
-0.23563368
-0.6666473
-0.24676148
-0.70083684
-0.25824854
-0.73695925
-0.2701012
-0.77513482
-0.28232455
-0.81549085
-0.29492338
-0.85816442
-0.30790122
-0.9033012
-0.32126029
-0.95105609
-0.33500154
-1.001594
-0.34912361
-1.0550898
-0.36362256
-1.1117292
-0.37849137
-1.1717104
-0.39372374
-1.2352388
-0.40930078
-1.3025437
-0.42521185
-1.3738516
-0.44143288
-1.4494043
-0.45794372
-1.5294393
-0.47471247
-1.6142015
-0.49168612
-1.7039773
-0.50881876
-1.799119
-0.52607897
-1.9002631
-0.54345066
-2.0085831
-0.56108855
-2.1252741
-2.2507179
-0.00017402486
-0.046379532
-0.00079918149
-0.056212105
-0.0012019055
-0.056049111
-0.0018686401
-0.059672857
-0.0023901858
-0.062230204
-0.003084523
-0.064916394
-0.0037565827
-0.068177183
-0.0045073148
-0.07108361
-0.0053178586
-0.074466921
-0.0061862103
-0.077806346
-0.007131896
-0.081360394
-0.0081549004
-0.085039907
-0.0092655277
-0.088877227
-0.010471483
-0.092871686
-0.011781806
-0.097030385
-0.013205813
-0.10135943
-0.014753245
-0.1058657
-0.016434198
-0.1105566
-0.018258936
-0.11544037
-0.020237382
-0.12052603
-0.022379941
-0.12582336
-0.024696204
-0.13134364
-0.027195361
-0.1370993
-0.02988659
-0.14310272
-0.032777662
-0.14936951
-0.035875859
-0.15591552
-0.03918838
-0.16275759
-0.042720079
-0.16991549
-0.046476173
-0.17740892
-0.050460579
-0.18525962
-0.054676709
-0.19349084
-0.059127607
-0.20212696
-0.063814645
-0.21119434
-0.068741073
-0.22071909
-0.073908348
-0.23073104
-0.079318453
-0.24125909
-0.084974315
-0.25233476
-0.090878256
-0.26399116
-0.097034504
-0.27626154
-0.10344688
-0.28918236
-0.11012008
-0.30279139
-0.11705969
-0.31712791
-0.12427243
-0.332233
-0.13176524
-0.34815121
-0.13954618
-0.36492864
-0.1476242
-0.3826137
-0.15600857
-0.40125878
-0.16470939
-0.42091906
-0.17373775
-0.44165234
-0.18310471
-0.46352133
-0.19282251
-0.4865916
-0.20290281
-0.51093441
-0.21335926
-0.53662384
-0.2242044
-0.56374086
-0.23545225
-0.5923709
-0.24711586
-0.62260533
-0.2592097
-0.65454204
-0.27174751
-0.68828602
-0.28474321
-0.72394888
-0.29821159
-0.76164999
-0.312166
-0.80151811
-0.32662057
-0.84368943
-0.34158904
-0.8883099
-0.35708443
-0.93553499
-0.37311866
-0.98553061
-0.38970321
-1.0384719
-0.40684798
-1.0945459
-0.42456181
-1.1539522
-0.44284811
-1.216902
-0.4617131
-1.2836222
-0.48115951
-1.3543441
-0.50119133
-1.4293098
-0.5218061
-1.5087653
-0.54298933
-1.5929706
-0.56472716
-1.6822174
-0.58699153
-1.77688
-0.60979055
-1.8775577
-0.63316001
-1.985401
-0.65733046
-2.1014313
-2.2261513
-0.00015982804
-0.046221127
-0.0008265339
-0.055546574
-0.0012427589
-0.055634265
-0.0019394532
-0.058977492
-0.002490885
-0.061680218
-0.0032132081
-0.064195528
-0.0039355344
-0.067456392
-0.0047304545
-0.070290266
-0.005603382
-0.07359563
-0.0065420992
-0.076869317
-0.0075700768
-0.080334157
-0.0086894652
-0.083922311
-0.0099116396
-0.087656893
-0.011246373
-0.09153884
-0.012704236
-0.095574452
-0.014296296
-0.099769336
-0.016033682
-0.10413032
-0.017927621
-0.10866469
-0.019989226
-0.11338082
-0.02222929
-0.11828804
-0.02465791
-0.12339682
-0.027284999
-0.12871863
-0.030119729
-0.13426664
-0.03316961
-0.1400549
-0.036442149
-0.14609901
-0.039943298
-0.15241637
-0.043677913
-0.15902494
-0.047650322
-0.16594499
-0.051863663
-0.17319743
-0.056320293
-0.18080478
-0.061021991
-0.18879086
-0.065970872
-0.19717971
-0.071168423
-0.20599834
-0.07661644
-0.21527253
-0.08231745
-0.22503138
-0.088274168
-0.23530361
-0.094490107
-0.24611992
-0.1009704
-0.25751183
-0.10771948
-0.26951327
-0.11474446
-0.28215802
-0.12205225
-0.29548401
-0.12965223
-0.30952811
-0.13755285
-0.32433228
-0.14576493
-0.33993869
-0.15430045
-0.3563923
-0.16317101
-0.37374184
-0.17239026
-0.39203769
-0.18197255
-0.41133429
-0.1919325
-0.43168918
-0.20228629
-0.45316348
-0.21305003
-0.47582286
-0.22424178
-0.49973659
-0.23587874
-0.52497964
-0.24797975
-0.55163132
-0.26056458
-0.57977616
-0.27365301
-0.60950553
-0.28726541
-0.64091676
-0.30142379
-0.67411319
-0.31614981
-0.70920679
-0.33146552
-0.74631655
-0.34739426
-0.78556991
-0.3639599
-0.82710246
-0.38118634
-0.87106004
-0.39909736
-0.91759813
-0.41771835
-0.96688092
-0.43707317
-1.0190849
-0.45718541
-1.0743976
-0.47807823
-1.1330188
-0.49977321
-1.195162
-0.52229616
-1.2610506
-0.54566931
-1.3309208
-0.56991494
-1.4050165
-0.59505513
-1.4835863
-0.62110748
-1.566898
-0.6480747
-1.6552636
-0.67596493
-1.7490583
-0.70480375
-1.8488594
-0.73471967
-1.955731
-0.76597642
-2.0705874
-2.1940193
-0.00015167604
-0.046070757
-0.00087889438
-0.054820427
-0.0013139769
-0.055200444
-0.002053936
-0.058238743
-0.0026557404
-0.061079727
-0.0034243334
-0.063428254
-0.0042199615
-0.066662148
-0.0050838512
-0.069427793
-0.0060447992
-0.072636144
-0.007085153
-0.075830465
-0.0082304976
-0.079190351
-0.0094865325
-0.08266785
-0.010866138
-0.086278892
-0.012381128
-0.090025482
-0.014043874
-0.09391336
-0.015866712
-0.097948168
-0.017861946
-0.10213676
-0.02004145
-0.10648687
-0.022416728
-0.11100722
-0.02499851
-0.11570792
-0.027796828
-0.12060015
-0.030820339
-0.12569674
-0.034076645
-0.13101192
-0.037572524
-0.13656055
-0.041312671
-0.14236034
-0.045301426
-0.14842904
-0.049540996
-0.15478671
-0.054033557
-0.1614537
-0.058780545
-0.16845163
-0.063782689
-0.17580373
-0.069041276
-0.18353327
-0.074557185
-0.1916647
-0.080332601
-0.20022371
-0.086369746
-0.20923606
-0.092672492
-0.21872918
-0.0992448
-0.22873171
-0.10609292
-0.23927207
-0.11322307
-0.25038179
-0.12064425
-0.26209201
-0.12836495
-0.27443705
-0.13639685
-0.28745161
-0.14475055
-0.30117363
-0.15343976
-0.31564199
-0.16247885
-0.33089815
-0.17188258
-0.34698668
-0.18166745
-0.36395458
-0.19185092
-0.38185123
-0.20245136
-0.40073017
-0.21348849
-0.42064757
-0.22498237
-0.44166423