/*--------------------------------*- C++ -*----------------------------------*\
  =========                 |
  \\      /  F ield         | OpenFOAM: The Open Source CFD Toolbox
   \\    /   O peration     | Website:  https://openfoam.org
    \\  /    A nd           | Version:  12
     \\/     M anipulation  |
\*---------------------------------------------------------------------------*/
FoamFile
{
    format      ascii;
    class       volScalarField;
    location    "0.072";
    object      T;
}
// * * * * * * * * * * * * * * * * * * * * * * * * * * * * * * * * * * * * * //

dimensions      [0 0 0 1 0 0 0];

internalField   nonuniform List<scalar> 
16000
(
294.2333
285.77904
289.03292
287.2693
288.37286
287.86962
288.28937
288.18
288.37643
288.41071
288.53133
288.61613
288.7213
288.82385
288.93232
289.04406
289.15988
289.27967
289.4035
289.53137
289.66332
289.79933
289.93937
290.08341
290.23137
290.38316
290.53867
290.69773
290.86019
291.02584
291.19445
291.36575
291.53945
291.71525
291.8928
292.07174
292.25168
292.43223
292.61299
292.79352
292.97342
293.15227
293.32967
293.50522
293.67856
293.84935
294.01725
294.18199
294.34332
294.50101
294.6549
294.80484
294.95074
295.09254
295.23023
295.36382
295.49336
295.61895
295.74068
295.85868
295.97311
296.08412
296.19181
296.29632
296.39779
296.4964
296.59246
296.68643
296.7791
296.87174
296.96626
297.06542
297.17283
297.29242
297.42828
297.57771
297.76075
297.86187
298.06461
297.95957
293.92185
285.37202
288.79631
286.90974
288.08063
287.54018
287.99556
287.8764
288.08753
288.12715
288.25481
288.34847
288.46081
288.57218
288.68906
288.80978
288.93478
289.06403
289.19758
289.33543
289.47757
289.62397
289.77459
289.92935
290.08813
290.25082
290.41725
290.58723
290.76053
290.9369
291.11605
291.29767
291.48142
291.66693
291.85379
292.0416
292.22992
292.41831
292.60633
292.79352
292.97945
293.16368
293.34579
293.52541
293.70217
293.87573
294.04581
294.21216
294.37454
294.53281
294.68682
294.83649
294.98179
295.1227
295.25925
295.39152
295.51961
295.64363
295.76375
295.8801
295.99289
296.10227
296.2084
296.31144
296.41157
296.50903
296.60416
296.69752
296.78996
296.88278
296.97792
297.07812
297.18688
297.30777
297.44417
297.59937
297.76582
297.89145
298.03984
297.9773
293.6242
284.9923
288.51228
286.59331
287.80393
287.25351
287.72264
287.61117
287.82722
287.87863
288.0118
288.11599
288.23643
288.35753
288.48397
288.61471
288.75001
288.88985
289.03425
289.18319
289.33664
289.49453
289.65678
289.82328
289.99386
290.16835
290.34655
290.52819
290.713
290.90067
291.09084
291.28313
291.47714
291.67243
291.86854
292.065
292.26132
292.45703
292.65162
292.84463
293.03559
293.22407
293.40964
293.59193
293.77061
293.94537
294.11596
294.28217
294.44384
294.60087
294.75319
294.90078
295.04365
295.18188
295.31555
295.44479
295.56976
295.69063
295.80759
295.92082
296.03055
296.13697
296.24026
296.34062
296.43827
296.5335
296.62673
296.71859
296.80998
296.90226
296.9974
297.0981
297.20764
297.32926
297.46641
297.62164
297.78042
297.91429
298.03322
297.98711
293.35017
284.64411
288.28198
286.31227
287.55993
286.99952
287.48277
287.38056
287.60206
287.66678
287.8065
287.92242
288.05228
288.1843
288.32158
288.46358
288.61039
288.762
288.9184
289.07954
289.24536
289.41574
289.59057
289.76967
289.95285
290.13986
290.33043
290.52425
290.72097
290.92019
291.12148
291.32441
291.52847
291.73316
291.93797
292.14236
292.34579
292.54774
292.74768
292.94512
293.13959
293.33065
293.51791
293.70103
293.8797
294.05368
294.22277
294.38683
294.54578
294.69958
294.84824
294.99183
295.13043
295.26419
295.39326
295.51783
295.63812
295.75435
295.86676
295.97556
296.081
296.18331
296.2827
296.37939
296.47365
296.56582
296.65639
296.74603
296.83573
296.92688
297.02145
297.12207
297.23175
297.35348
297.49066
297.64389
297.79775
297.93137
298.0296
297.99236
293.09946
284.33125
288.06883
286.07723
287.35978
286.78661
287.2801
287.19196
287.41725
287.49811
287.64515
287.77415
287.9148
288.05891
288.20829
288.36272
288.52221
288.68674
288.85626
289.0307
289.20994
289.39385
289.58222
289.77485
289.97146
290.17173
290.37531
290.58181
290.79078
291.00174
291.21418
291.42755
291.64129
291.85482
292.06754
292.27886
292.4882
292.695
292.89873
293.09887
293.29498
293.48665
293.67352
293.8553
294.03176
294.20271
294.36806
294.52774
294.68177
294.8302
294.97312
295.1107
295.24309
295.37053
295.49324
295.61149
295.72553
295.83565
295.94211
296.04518
296.14512
296.24219
296.33663
296.42868
296.51865
296.60694
296.69407
296.78079
296.86814
296.95753
297.05092
297.15083
297.26
297.38121
297.51744
297.66758
297.81668
297.94586
298.02938
297.99486
292.87592
284.06096
287.88644
285.88138
287.18544
286.62133
287.1249
287.05194
287.27954
287.37854
287.53382
287.67674
287.82938
287.98653
288.14912
288.31709
288.49041
288.66903
288.85287
289.04181
289.23566
289.43422
289.63722
289.84436
290.05528
290.26956
290.48673
290.70631
290.92773
291.15042
291.37375
291.59708
291.81977
292.04114
292.26054
292.47734
292.69092
292.9007
293.10615
293.3068
293.50223
293.69208
293.87607
294.05399
294.2257
294.39113
294.55027
294.70317
294.84994
294.99075
295.1258
295.25533
295.37961
295.49892
295.61358
295.72391
295.83023
295.93285
296.03209
296.12824
296.22159
296.31241
296.40096
296.48752
296.57242
296.65609
296.73911
296.82228
296.90667
296.99371
297.08533
297.18389
297.29188
297.41185
297.54617
297.69231
297.83607
297.9594
298.03116
297.99656
292.68317
283.83565
287.73793
285.72225
287.04863
286.50597
287.00876
286.96463
287.19193
287.31047
287.47502
287.63264
287.79865
287.97013
288.14738
288.33042
288.51916
288.71348
288.91324
289.11822
289.32817
289.54279
289.76169
289.98446
290.21062
290.43962
290.67088
290.90377
291.13761
291.37169
291.6053
291.83767
292.06808
292.2958
292.52012
292.74038
292.95595
293.16628
293.37088
293.56931
293.76125
293.94643
294.12468
294.2959
294.46006
294.61723
294.76752
294.91111
295.04823
295.17916
295.30421
295.4237
295.538
295.64748
295.75251
295.85346
295.9507
296.04459
296.13546
296.22364
296.30943
296.39311
296.47496
296.55527
296.63442
296.71284
296.79116
296.87022
296.95109
297.03522
297.12448
297.22105
297.32716
297.44512
297.57653
297.71772
297.85552
297.97239
298.03377
297.99773
292.51985
283.65378
287.62032
285.59889
286.94036
286.4265
286.93073
286.8975
287.15232
287.29278
287.46905
287.64315
287.82493
288.01291
288.2071
288.40744
288.61378
288.82592
289.04361
289.26654
289.49434
289.72656
289.96271
290.20221
290.44443
290.68868
290.93423
291.1803
291.42607
291.67071
291.91338
292.15324
292.3895
292.62137
292.84813
293.06913
293.28377
293.49157
293.6921
293.88506
294.07022
294.24745
294.41673
294.5781
294.7317
294.87773
295.01645
295.14819
295.27328
295.39214
295.50515
295.61276
295.7154
295.81349
295.90748
295.99777
296.08477
296.16887
296.25042
296.32974
296.40716
296.48298
296.55746
296.63093
296.70375
296.77642
296.84955
296.924
297.00087
297.08158
297.16791
297.26185
297.36539
297.48052
297.60802
297.7433
297.87458
297.98508
298.03755
297.99877
292.38117
283.51334
287.53658
285.51138
286.88215
286.41548
286.91392
286.93442
287.16819
287.329
287.52054
287.71367
287.91419
288.12145
288.33529
288.55555
288.782
289.01434
289.25217
289.49506
289.74247
289.99381
290.24839
290.50547
290.76425
291.02384
291.28336
291.54185
291.79836
292.05194
292.30166
292.54661
292.78595
293.01891
293.24478
293.46298
293.67301
293.87449
294.06713
294.2508
294.42543
294.59108
294.7479
294.89612
295.03605
295.16805
295.29254
295.40996
295.52081
295.62556
295.72474
295.81883
295.90835
295.99376
296.07554
296.15414
296.22998
296.30345
296.37492
296.44472
296.51317
296.58056
296.64717
296.71333
296.77942
296.84593
296.91349
296.98295
297.05539
297.13222
297.21509
297.30576
297.40602
297.5175
297.64011
297.76859
297.89291
297.99739
298.04163
297.99997
292.26566
283.41591
287.49211
285.47227
286.87768
286.41343
286.94181
286.99648
287.2405
287.4278
287.63822
287.85307
288.07542
288.30491
288.54129
288.78427
289.03347
289.28844
289.54862
289.81339
290.08201
290.35367
290.62748
290.90249
291.17767
291.45196
291.72428
291.99351
292.25858
292.51845
292.77211
293.01865
293.25725
293.4872
293.70788
293.91885
294.11978
294.31046
294.49083
294.66095
294.82099
294.97121
295.11199
295.24375
295.36697
295.4822
295.58998
295.6909
295.78554
295.87449
295.95832
296.0376
296.11285
296.1846
296.25332
296.31948
296.38351
296.44579
296.50668
296.5665
296.62557
296.68418
296.7426
296.80116
296.86023
296.9203
296.98201
297.04618
297.11387
297.18641
297.2653
297.35211
297.44839
297.5554
297.67219
297.79319
297.91023
298.00863
298.0456
298.00155
292.17652
283.36904
287.49249
285.54482
286.93212
286.54816
287.03086
287.12769
287.38289
287.59808
287.83148
288.07121
288.31876
288.57372
288.83576
289.10438
289.37904
289.65906
289.94365
290.23195
290.52296
290.81562
291.10877
291.4012
291.69168
291.97892
292.26166
292.53868
292.8088
293.07093
293.32409
293.56743
293.80022
294.02191
294.2321
294.43054
294.61716
294.79202
294.95533
295.10741
295.24869
295.37968
295.50096
295.61316
295.71694
295.81299
295.90198
295.9846
296.06151
296.13337
296.20077
296.26432
296.32456
296.38202
296.43719
296.49049
296.54236
296.59316
296.64323
296.69288
296.74239
296.79205
296.84214
296.89295
296.94486
296.99836
297.05405
297.11272
297.17539
297.24328
297.31773
297.4001
297.49173
297.59346
297.70362
297.81671
297.92628
298.01807
298.04882
298.00344
292.12062
283.38621
287.54683
285.68197
287.03463
286.7045
287.18967
287.33243
287.6042
287.85004
288.1108
288.37909
288.65552
288.93952
289.23054
289.52786
289.83066
290.13797
290.44869
290.76164
291.07549
291.38888
291.70035
292.00843
292.31164
292.60852
292.89768
293.17784
293.4478
293.70654
293.95319
294.18708
294.40772
294.61483
294.80832
294.98826
295.15491
295.30867
295.45005
295.57968
295.69825
295.80652
295.90527
295.9953
296.07742
296.15243
296.2211
296.28417
296.34236
296.39633
296.4467
296.49408
296.53899
296.58195
296.62341
296.66378
296.70346
296.74278
296.78205
296.82155
296.86156
296.90231
296.94408
296.98716
297.03192
297.0788
297.1284
297.18146
297.23891
297.30185
297.37144
297.44885
297.53518
297.63087
297.7337
297.83868
297.94082
298.02507
298.05097
298.00547
292.10338
283.47428
287.66554
285.86517
287.20203
286.94925
287.42867
287.62042
287.91498
288.19477
288.48776
288.78894
289.09846
289.41542
289.73898
290.06806
290.40146
290.73781
291.07563
291.41332
291.7492
292.08154
292.40858
292.72861
293.03996
293.34107
293.63053
293.90708
294.16969
294.41754
294.65005
294.86688
295.06793
295.25332
295.42337
295.57857
295.71957
295.84712
295.96207
296.06533
296.15785
296.24057
296.31445
296.38042
296.43939
296.49221
296.53969
296.58261
296.62168
296.65754
296.69081
296.72204
296.75174
296.78037
296.80835
296.83604
296.8638
296.89191
296.92066
296.95028
296.98101
297.01308
297.04673
297.08224
297.11995
297.16029
297.20382
297.2512
297.3033
297.36105
297.42543
297.4974
297.57784
297.66678
297.76172
297.85853
297.95332
298.02963
298.05162
298.00735
292.12644
283.64072
287.85397
286.1365
287.44635
287.27659
287.75798
288.00216
288.32712
288.64552
288.97631
289.3155
289.66281
290.01691
290.37648
290.73996
291.10564
291.47166
291.83606
292.19679
292.55177
292.89893
293.23628
293.56192
293.87414
294.17141
294.45249
294.71638
294.96239
295.19014
295.39953
295.59073
295.76416
295.92045
296.06041
296.18498
296.2952
296.39217
296.47702
296.55092
296.61497
296.67028
296.7179
296.75883
296.79399
296.82427
296.85046
296.87329
296.89345
296.91155
296.92813
296.94371
296.95872
296.97357
296.98862
297.0042
297.02057
297.038
297.05671
297.0769
297.09879
297.12255
297.14842
297.17664
297.20754
297.24151
297.27904
297.32077
297.36742
297.4198
297.47867
297.5448
297.61884
297.70042
297.78706
297.87558
297.96296
298.03152
298.04937
298.00865
292.19484
283.89864
288.11551
286.49564
287.77757
287.70134
288.19154
288.49239
288.85641
289.21946
289.59433
289.97715
290.36706
290.7621
291.16032
291.55955
291.95746
292.35161
292.73953
293.11871
293.48671
293.84124
294.18019
294.50171
294.80426
295.08665
295.34808
295.58811
295.80665
296.00398
296.18067
296.33752
296.47557
296.596
296.70009
296.78919
296.86469
296.92796
296.98033
297.02311
297.05751
297.0847
297.10573
297.1216
297.13322
297.1414
297.14689
297.15036
297.15242
297.15359
297.15437
297.15517
297.15638
297.15831
297.16128
297.16553
297.17128
297.17875
297.18809
297.19949
297.21309
297.22907
297.24761
297.26893
297.29333
297.32116
297.35286
297.38899
297.43016
297.47702
297.53015
297.59014
297.65736
297.73115
297.80921
297.88934
297.96892
298.03015
298.04482
298.00895
292.31298
284.26657
288.44661
286.95743
288.21071
288.23812
288.74764
289.11106
289.52387
289.93875
290.36423
290.79601
291.23242
291.67073
292.10824
292.542
292.96901
293.38622
293.79065
294.17945
294.55002
294.90008
295.22775
295.5316
295.81068
296.0645
296.29307
296.49678
296.67642
296.83306
296.96802
297.08281
297.17903
297.25834
297.32242
297.37293
297.41146
297.43954
297.45859
297.46994
297.47481
297.47434
297.46952
297.46127
297.45041
297.43767
297.42371
297.40908
297.39431
297.37984
297.36604
297.35328
297.34183
297.33195
297.32388
297.31779
297.31386
297.31222
297.31301
297.31635
297.32235
297.33116
297.34291
297.35781
297.3761
297.39809
297.42416
297.45479
297.49048
297.53174
297.57899
297.63262
297.69274
297.75847
297.82791
297.89962
297.97103
298.02507
298.03796
298.00767
292.48549
284.77416
288.85339
287.53962
288.76678
288.91037
289.45213
289.88525
290.35658
290.83037
291.31196
291.79641
292.28096
292.76195
293.23572
293.6985
294.14658
294.57638
294.98468
295.36861
295.72588
296.05474
296.3541
296.62346
296.86294
297.07316
297.25522
297.41055
297.54088
297.64812
297.73428
297.80144
297.85163
297.88685
297.90899
297.91986
297.92111
297.91426
297.90072
297.88173
297.85844
297.83183
297.80282
297.77218
297.74061
297.70872
297.67703
297.64601
297.61604
297.58748
297.56061
297.53569
297.51293
297.49251
297.47458
297.45927
297.44668
297.4369
297.43002
297.42612
297.42528
297.42758
297.43316
297.44216
297.45478
297.47128
297.49198
297.51726
297.54753
297.58315
297.62444
297.6716
297.72448
297.78214
297.84312
297.90651
297.96961
298.01676
298.02812
298.00408
292.72374
285.46857
289.37997
288.27339
289.47673
289.74933
290.33756
290.84729
291.38556
291.92393
292.46488
293.00256
293.53276
294.05067
294.55159
295.031
295.48476
295.9093
296.30174
296.65999
296.98279
297.2697
297.52102
297.73773
297.92137
298.07388
298.19754
298.29479
298.3682
298.42031
298.45364
298.47057
298.47338
298.46416
298.44482
298.41713
298.38265
298.34279
298.29879
298.25175
298.20264
298.1523
298.10146
298.05075
298.00072
297.95182
297.90447
297.859
297.81569
297.77478
297.73648
297.70094
297.6683
297.63867
297.61213
297.58875
297.56859
297.55168
297.53806
297.52777
297.52085
297.51737
297.51741
297.52106
297.52849
297.53989
297.55551
297.57565
297.60062
297.63067
297.66601
297.70668
297.75235
297.80213
297.85501
297.91038
297.96522
298.00594
298.01572
297.99928
293.05448
286.33473
290.05353
289.19601
290.37831
290.78978
291.44015
292.03315
292.64479
293.25058
293.84977
294.43515
295.00088
295.54104
296.05031
296.52411
296.95883
297.35196
297.70208
298.00887
298.273
298.49597
298.67995
298.82761
298.94196
299.02617
299.08347
299.11704
299.12995
299.12509
299.10513
299.07252
299.02947
298.97796
298.91977
298.85644
298.78933
298.71963
298.64836
298.57641
298.50454
298.4334
298.36353
298.29541
298.22942
298.16589
298.10508
298.04722
297.9925
297.94104
297.89296
297.84836
297.80728
297.76978
297.73588
297.7056
297.67892
297.65587
297.63643
297.6206
297.6084
297.59984
297.59496
297.59384
297.59657
297.60329
297.61418
297.62945
297.64932
297.67396
297.70347
297.73777
297.77644
297.81873
297.86399
297.91165
297.95838
297.99333
298.00297
297.9949
293.51812
287.31272
290.91511
290.34302
291.51539
292.07353
292.80275
293.48472
294.17139
294.84019
295.4867
296.10241
296.68048
297.21492
297.70118
298.1362
298.51849
298.84799
299.12595
299.35467
299.53725
299.67736
299.77901
299.84632
299.88339
299.8942
299.88248
299.8517
299.80501
299.74526
299.67497
299.59637
299.51141
299.42179
299.32898
299.23423
299.13862
299.04307
298.94834
298.85509
298.76385
298.67509
298.58918
298.50641
298.42703
298.35124
298.27918
298.21098
298.14672
298.08646
298.03023
297.97805
297.92992
297.88583
297.84574
297.80964
297.77748
297.74923
297.72484
297.70428
297.68753
297.67458
297.66542
297.66007
297.6586
297.66108
297.66762
297.67836
297.69343
297.71293
297.73686
297.76508
297.79716
297.83252
297.87071
297.91111
297.95045
297.98015
297.99187
297.99207
294.17042
288.57591
292.01327
291.7664
292.94862
293.65875
294.47792
295.24654
295.99682
296.70799
297.3729
297.98328
298.53339
299.01953
299.44022
299.79591
300.08881
300.3224
300.50116
300.63016
300.71475
300.76033
300.77211
300.75505
300.7137
300.65219
300.57423
300.48309
300.38161
300.27228
300.15723
300.03829
299.91701
299.79469
299.67245
299.5512
299.43172
299.31463
299.20046
299.08962
298.98246
298.87925
298.78019
298.68545
298.59514
298.50935
298.42812
298.35149
298.27945
298.21199
298.14909
298.0907
298.03678
297.98726
297.94208
297.90117
297.86445
297.83186
297.80333
297.77878
297.75818
297.74146
297.72861
297.71959
297.71442
297.71311
297.71572
297.72233
297.73298
297.7477
297.76645
297.78904
297.81514
297.8443
297.87612
297.90979
297.94249
297.9683
297.98262
297.99182
295.06806
290.18438
293.43319
293.54564
294.75681
295.61268
296.51316
297.34419
298.12184
298.82924
299.46017
300.00993
300.4773
300.86369
301.17278
301.40991
301.58156
301.69475
301.75671
301.77449
301.75477
301.70368
301.62676
301.52893
301.41449
301.28715
301.15011
301.00607
300.85734
300.70582
300.55313
300.4006
300.24934
300.10024
299.95404
299.81134
299.67261
299.53823
299.40849
299.28361
299.16375
299.04903
298.93952
298.83525
298.73625
298.64249
298.55395
298.47058
298.39232
298.31909
298.25083
298.18745
298.12885
298.07493
298.0256
297.98076
297.94031
297.90415
297.87218
297.84432
297.82049
297.8006
297.7846
297.77242
297.76402
297.75939
297.75853
297.76145
297.76814
297.77857
297.79265
297.81023
297.83108
297.85487
297.8811
297.90879
297.93583
297.95889
297.97608
297.99113
296.19308
292.26251
295.28037
295.76418
297.00621
297.97892
298.91547
299.7487
300.48517
301.11619
301.64187
302.06508
302.39202
302.63081
302.7909
302.88212
302.91429
302.89665
302.83775
302.74519
302.62569
302.48503
302.32815
302.15924
301.98178
301.7987
301.61239
301.42483
301.23765
301.05215
300.86939
300.69022
300.51531
300.3452
300.18028
300.02086
299.86718
299.71938
299.57757
299.44181
299.31212
299.18848
299.07085
298.95919
298.85342
298.75345
298.65919
298.57054
298.48738
298.40961
298.3371
298.26974
298.2074
298.14996
298.09729
298.04927
298.00578
297.96671
297.93193
297.90133
297.87482
297.85228
297.83362
297.81876
297.80762
297.80013
297.79626
297.79598
297.79921
297.8059
297.81593
297.8292
297.84559
297.86483
297.88628
297.90892
297.9314
297.9525
297.97189
297.99073
297.72174
294.9226
297.64997
298.47504
299.69223
300.72619
301.6094
302.34714
302.94861
303.41771
303.76501
304.00295
304.14547
304.20654
304.19957
304.13681
304.02917
303.8861
303.71564
303.52455
303.31843
303.10188
302.87866
302.65181
302.42377
302.19651
301.9716
301.75026
301.53346
301.32194
301.11629
300.91692
300.72415
300.53819
300.35918
300.1872
300.02228
299.86439
299.71351
299.56955
299.43243
299.30204
299.17827
299.06097
298.95003
298.84529
298.74662
298.65388
298.56691
298.48558
298.40973
298.33923
298.27392
298.21366
298.15831
298.10772
298.06178
298.02033
297.98325
297.95041
297.92169
297.89695
297.87609
297.85899
297.84554
297.83565
297.82924
297.82624
297.82656
297.83008
297.83671
297.84642
297.85914
297.87456
297.89199
297.91051
297.92957
297.94939
297.97016
297.99065
299.69608
298.23436
300.53773
301.65261
302.83967
303.70692
304.416
304.94543
305.31783
305.55171
305.66839
305.68807
305.62942
305.50881
305.34024
305.13537
304.90381
304.65329
304.39003
304.11898
303.84403
303.56823
303.29398
303.02312
302.75706
302.49689
302.24341
301.99721
301.75872
301.52822
301.3059
301.09185
300.88611
300.68864
300.4994
300.31828
300.14515
299.9799
299.82236
299.67236
299.52975
299.39434
299.26596
299.14443
299.02957
298.9212
298.81915
298.72324
298.63331
298.54919
298.4707
298.39769
298.33
298.26747
298.20995
298.15729
298.10933
298.06594
298.02697
297.99229
297.96175
297.9352
297.91252
297.89357
297.87821
297.86634
297.85784
297.8526
297.8505
297.85143
297.85531
297.86214
297.87187
297.88416
297.89826
297.9135
297.93005
297.94898
297.97039
297.99106
302.14412
302.18231
304.19157
305.16802
306.06505
306.67882
307.0881
307.31419
307.39362
307.35608
307.22845
307.03289
306.78747
306.50654
306.20134
305.88057
305.5509
305.21744
304.88401
304.55353
304.22814
303.90944
303.59858
303.29639
303.00343
302.72007
302.44653
302.18292
301.92925
301.68547
301.45148
301.22713
301.01226
300.80668
300.61017
300.42253
300.24354
300.07296
299.91058
299.75616
299.60948
299.47033
299.33849
299.21373
299.09586
298.98467
298.87997
298.78156
298.68925
298.60287
298.52223
298.44717
298.37751
298.31308
298.25374
298.19932
298.14966
298.10463
298.06407
298.02783
297.99576
297.9677
297.9435
297.92302
297.90609
297.89259
297.88239
297.87533
297.87129
297.87014
297.87182
297.87637
297.88369
297.89339
297.90479
297.91751
297.93221
297.95029
297.97151
297.99154
305.20866
306.60814
307.93862
308.64323
309.12408
309.33667
309.36348
309.2463
309.02589
308.73256
308.38978
308.01495
307.62097
307.21721
306.81051
306.40575
306.00644
305.61502
305.23322
304.86217
304.50263
304.15505
303.81965
303.49651
303.18558
302.88674
302.59979
302.3245
302.06061
301.80784
301.5659
301.33449
301.11331
300.90205
300.70043
300.50814
300.32489
300.15042
299.98444
299.82669
299.67691
299.53486
299.40029
299.27296
299.15265
299.03914
298.93223
298.8317
298.73736
298.64903
298.56651
298.48964
298.41822
298.35211
298.29113
298.23513
298.18395
298.13744
298.09545
298.05782
298.0244
297.99502
297.96951
297.94772
297.92949
297.91465
297.90306
297.89455
297.88896
297.88617
297.88614
297.88886
297.89423
297.90183
297.9111
297.92191
297.93516
297.95222
297.97259
297.99177
309.15803
310.94918
311.49364
311.68358
311.63239
311.40157
311.05359
310.63079
310.16336
309.67197
309.17069
308.66896
308.17308
307.68719
307.21394
306.75497
306.31124
305.88322
305.47106
305.07469
304.6939
304.32837
303.97772
303.64154
303.3194
303.01084
302.71542
302.43271
302.16226
301.90366
301.65651
301.4204
301.19495
300.97981
300.77461
300.57901
300.3927
300.21536
300.04669
299.8864
299.73421
299.58985
299.45308
299.32364
299.2013
299.08584
298.97703
298.87467
298.77855
298.68848
298.60428
298.52576
298.45276
298.38509
298.32261
298.26515
298.21256
298.16469
298.12139
298.08249
298.04784
298.01728
297.99063
297.96772
297.94838
297.93244
297.91973
297.91007
297.90327
297.89922
297.89786
297.89917
297.90298
297.90893
297.91659
297.92599
297.93806
297.954
297.97322
297.9917
314.11448
314.49197
314.22672
313.86138
313.34188
312.75164
312.12636
311.4916
310.86157
310.24488
309.64632
309.06847
308.51251
307.97879
307.46715
306.97711
306.50803
306.05917
305.62974
305.21895
304.82603
304.45022
304.09079
303.74705
303.41834
303.10404
302.80356
302.51635
302.24186
301.97961
301.72913
301.48997
301.2617
301.04392
300.83625
300.63832
300.4498
300.27034
300.09965
299.9374
299.78333
299.63715
299.49859
299.36742
299.24339
299.12627
299.01583
298.91187
298.81418
298.72258
298.63686
298.55686
298.48239
298.41329
298.3494
298.29058
298.23666
298.18749
298.14293
298.10281
298.06699
298.03529
298.00755
297.9836
297.96325
297.94632
297.93264
297.92199
297.9142
297.90914
297.90673
297.90691
297.90952
297.91423
297.92072
297.92912
297.94028
297.9552
297.97335
297.99143
316.11297
316.28311
315.71449
314.95541
314.17922
313.40167
312.64321
311.91148
311.20996
310.53965
309.90027
309.29088
308.71022
308.15691
307.62951
307.12664
306.64699
306.1893
305.75241
305.33523
304.93676
304.55606
304.19229
303.84462
303.51233
303.19473
302.89117
302.60104
302.3238
302.05892
301.8059
301.56429
301.33363
301.11353
300.90359
300.70343
300.51272
300.33111
300.15828
299.99395
299.8378
299.68958
299.54902
299.41585
299.28985
299.17079
299.05843
298.95257
298.85301
298.75956
298.67201
298.5902
298.51395
298.4431
298.37748
298.31695
298.26137
298.21057
298.16441
298.12273
298.08538
298.05221
298.02305
297.99775
297.97611
297.95795
297.94307
297.93128
297.9224
297.91629
297.91286
297.91204
297.91366
297.91743
297.9231
297.93082
297.94137
297.95562
297.97315
297.99116
310.0176
308.73133
305.03736
302.09007
300.79239
300.5043
300.43771
300.43503
300.32224
300.2643
300.15919
300.08964
300.00294
299.91553
299.82881
299.74176
299.6541
299.56578
299.47681
299.38727
299.29724
299.20682
299.11614
299.02534
298.93455
298.84391
298.75356
298.66364
298.57429
298.48564
298.39782
298.31095
298.22518
298.14063
298.05742
297.97568
297.89554
297.81713
297.74057
297.666
297.59355
297.52335
297.45554
297.39027
297.32766
297.26786
297.21101
297.15725
297.10672
297.05955
297.0159
296.97589
296.93968
296.9074
296.8792
296.85524
296.83568
296.82069
296.81043
296.80509
296.80491
296.8101
296.82085
296.83731
296.8597
296.88783
296.92217
296.96106
297.00687
297.05264
297.10953
297.15589
297.22576
297.25894
297.35955
297.38266
297.53931
297.60004
297.85885
297.99916
309.22295
306.34355
302.0982
299.99683
299.42004
299.42353
299.52674
299.5381
299.53254
299.50665
299.48344
299.44588
299.40309
299.35565
299.30428
299.2491
299.19056
299.12897
299.06464
298.99789
298.92901
298.85827
298.78593
298.71225
298.63744
298.56175
298.48539
298.40857
298.3315
298.25436
298.17735
298.10065
298.02445
297.94892
297.87423
297.80056
297.72807
297.65694
297.58733
297.51939
297.45331
297.38923
297.32733
297.26777
297.2107
297.15629
297.1047
297.05607
297.01056
296.96833
296.92952
296.89429
296.86278
296.83513
296.81151
296.79206
296.77694
296.76631
296.76034
296.75919
296.76309
296.77223
296.78677
296.80685
296.83262
296.8639
296.90103
296.94251
296.99029
297.03816
297.09608
297.14429
297.21429
297.25019
297.34917
297.37741
297.53788
297.60179
297.86745
297.99732
307.86704
304.25782
301.07156
299.3546
299.02399
299.06601
299.10169
299.0764
299.0485
299.01661
298.98564
298.95136
298.91536
298.87636
298.83516
298.79154
298.74572
298.69766
298.64748
298.59526
298.54113
298.4852
298.42762
298.36852
298.30806
298.24639
298.18368
298.12009
298.05581
297.991
297.92585
297.86055
297.79526
297.73019
297.66551
297.60141
297.53809
297.47572
297.4145
297.35462
297.29625
297.2396
297.18484
297.13217
297.08175
297.03377
296.98841
296.94584
296.90622
296.86973
296.83652
296.80676
296.78059
296.75818
296.73968
296.72524
296.71503
296.70918
296.70786
296.71124
296.71952
296.73286
296.75142
296.77528
296.80459
296.83914
296.87918
296.92331
296.97321
297.0232
297.08239
297.13222
297.20291
297.24109
297.33983
297.37247
297.53713
297.60426
297.87555
297.99447
306.66992
302.77236
299.90952
298.60633
298.55265
298.57088
298.58962
298.55409
298.5361
298.50766
298.48431
298.45566
298.4268
298.39596
298.36401
298.3304
298.29533
298.25865
298.22037
298.18049
298.13904
298.09606
298.05158
298.00567
297.95841
297.9099
297.86022
297.8095
297.75787
297.70546
297.65242
297.59891
297.54509
297.49113
297.43721
297.38352
297.33024
297.27756
297.22568
297.1748
297.12512
297.07684
297.03016
296.98528
296.94239
296.9017
296.8634
296.82767
296.79469
296.76465
296.73771
296.71405
296.69383
296.6772
296.66434
296.65539
296.65051
296.64985
296.65355
296.66178
296.67471
296.6925
296.71528
296.74312
296.77611
296.81405
296.8571
296.90395
296.95607
297.00821
297.06881
297.12015
297.19186
297.23224
297.3319
297.36804
297.53718
297.60744
297.88347
297.9941
305.9596
301.55179
298.94701
297.98333
298.06056
298.03616
298.06306
298.02599
298.01935
297.99519
297.98011
297.95837
297.93803
297.91586
297.89311
297.86912
297.84409
297.81783
297.79035
297.76159
297.73155
297.70021
297.66757
297.63366
297.5985
297.56214
297.52464
297.48606
297.4465
297.40605
297.36483
297.32296
297.28057
297.23782
297.19485
297.15185
297.10898
297.06643
297.0244
296.98307
296.94266
296.90337
296.8654
296.82896
296.79426
296.76151
296.7309
296.70263
296.6769
296.6539
296.6338
296.61679
296.60302
296.59267
296.5859
296.58286
296.5837
296.58858
296.59761
296.61097
296.6288
296.65126
296.67845
296.71041
296.74721
296.78864
296.83479
296.88442
296.93885
296.99319
297.0553
297.10812
297.18108
297.22363
297.3252
297.36424
297.53799
297.6113
297.89126
297.99293
305.40273
300.36041
298.14816
297.38578
297.53556
297.48032
297.52706
297.49018
297.49841
297.48072
297.47649
297.46323
297.45249
297.43964
297.42644
297.41215
297.39691
297.38061
297.36324
297.34477
297.32519
297.30448
297.28262
297.25963
297.23551
297.21029
297.18399
297.15667
297.12837
297.09917
297.06915
297.03841
297.00706
296.97521
296.94301
296.91061
296.87815
296.84582
296.81379
296.78225
296.75139
296.72143
296.69255
296.66498
296.63891
296.61456
296.59213
296.57182
296.55383
296.53835
296.52556
296.51565
296.50878
296.50512
296.50483
296.50808
296.51499
296.52572
296.54037
296.55911
296.58207
296.60939
296.64113
296.67735
296.71806
296.76307
296.81238
296.86486
296.92165
296.97823
297.04193
297.0963
297.17061
297.21539
297.3192
297.36112
297.53955
297.61579
297.89883
297.99169
304.82971
299.30225
297.50027
296.83918
297.03793
296.95596
297.02252
296.98378
297.00458
296.99133
296.99611
296.9899
296.98707
296.98186
296.97658
296.97039
296.96344
296.95564
296.94697
296.93741
296.92694
296.91552
296.90314
296.8898
296.87549
296.86022
296.84399
296.82685
296.80882
296.78994
296.77029
296.74993
296.72896
296.70746
296.68556
296.66338
296.64107
296.61877
296.59665
296.57488
296.55364
296.53313
296.51353
296.49505
296.47789
296.46225
296.44833
296.43633
296.42645
296.41887
296.41377
296.41134
296.41173
296.41512
296.42166
296.43151
296.44479
296.46163
296.48215
296.50648
296.53475
296.56708
296.60353
296.64411
296.68882
296.73746
296.79
296.84536
296.90457
296.96341
297.02876
297.08478
297.1605
297.20759
297.31378
297.3587
297.54185
297.62089
297.90582
297.99033
304.34872
298.35619
296.95567