/*--------------------------------*- C++ -*----------------------------------*\
  =========                 |
  \\      /  F ield         | OpenFOAM: The Open Source CFD Toolbox
   \\    /   O peration     | Website:  https://openfoam.org
    \\  /    A nd           | Version:  12
     \\/     M anipulation  |
\*---------------------------------------------------------------------------*/
FoamFile
{
    format      ascii;
    class       volScalarField;
    location    "0.038";
    object      nut;
}
// * * * * * * * * * * * * * * * * * * * * * * * * * * * * * * * * * * * * * //

dimensions      [0 2 -1 0 0 0 0];

internalField   nonuniform List<scalar> 
16000
(
4.7508151e-07
9.8065055e-06
1.9811112e-05
2.3581428e-05
1.8288457e-05
2.477288e-05
1.7796578e-05
2.408785e-05
1.9176328e-05
2.5902453e-05
2.2271727e-05
2.5718987e-05
2.367602e-05
2.416241e-05
2.3411127e-05
2.3257128e-05
2.3028201e-05
2.2964456e-05
2.2981539e-05
2.3095177e-05
2.3299443e-05
2.3592591e-05
2.3971963e-05
2.4437515e-05
2.4991176e-05
2.5638345e-05
2.6386736e-05
2.7248686e-05
2.8239097e-05
2.9373819e-05
3.0670333e-05
3.2152087e-05
3.3849357e-05
3.5799313e-05
3.8047417e-05
4.0647481e-05
4.3663041e-05
4.716933e-05
5.1259076e-05
5.6046281e-05
6.1663021e-05
6.8263556e-05
7.6041605e-05
8.5231822e-05
9.6109344e-05
0.00010900044
0.00012430586
0.0001425073
0.00016418322
0.00019002961
0.00022088797
0.00025777769
0.00030193109
0.00035484746
0.00041835836
0.00049470775
0.00058665648
0.00069771213
0.00083196313
0.00099484421
0.0010210848
0.0010208151
0.0010205254
0.0010200412
0.0010192699
0.0010180931
0.0010164798
0.0010145723
0.0010126665
0.0010110205
0.0010096834
0.0010086532
0.0010082397
0.0010086894
0.0010104811
0.001013025
0.0010147051
0.0010152168
0.0010093052
0.0010093328
4.263485e-07
9.3361899e-06
1.9662252e-05
2.1283215e-05
1.6552107e-05
2.2297413e-05
1.5837272e-05
2.1193874e-05
1.6952668e-05
2.2954914e-05
2.016767e-05
2.3225784e-05
2.1653495e-05
2.1912884e-05
2.1320055e-05
2.1121789e-05
2.092721e-05
2.0857825e-05
2.0873248e-05
2.0974771e-05
2.116082e-05
2.142964e-05
2.1778993e-05
2.2208764e-05
2.2720531e-05
2.3319176e-05
2.4011349e-05
2.4808068e-05
2.5723405e-05
2.6772736e-05
2.7972149e-05
2.9342859e-05
3.0912663e-05
3.2715735e-05
3.4794334e-05
3.7198767e-05
3.9988823e-05
4.3234675e-05
4.7022054e-05
5.1458331e-05
5.6669744e-05
6.2800236e-05
7.0030839e-05
7.8584063e-05
8.8722712e-05
0.00010075476
0.00011506046
0.00013209907
0.00015242401
0.0001767024
0.00020574272
0.00024052924
0.00028225489
0.0003323745
0.00039266803
0.00046532403
0.00055303544
0.00065913063
0.00078769625
0.00094398826
0.0010206437
0.0010203829
0.0010200742
0.0010195571
0.0010187383
0.0010175258
0.0010159302
0.0010141142
0.0010123339
0.0010107752
0.0010094687
0.0010084614
0.0010080898
0.0010086576
0.0010104155
0.0010129686
0.0010151981
0.001015519
0.0010095629
0.0010092201
3.8270334e-07
9.0021211e-06
1.8631157e-05
1.9554788e-05
1.4876347e-05
1.9699968e-05
1.4129713e-05
1.8477453e-05
1.5275228e-05
2.0195998e-05
1.8406652e-05
2.0715291e-05
1.9617064e-05
1.9642561e-05
1.9181975e-05
1.8967507e-05
1.8801861e-05
1.8737372e-05
1.8754602e-05
1.884957e-05
1.9021639e-05
1.9269751e-05
1.9591908e-05
1.9988186e-05
2.0459852e-05
2.1011634e-05
2.1649422e-05
2.2383155e-05
2.3225948e-05
2.4192795e-05
2.5298897e-05
2.6563767e-05
2.8013223e-05
2.9678944e-05
3.1600467e-05
3.3825028e-05
3.6409309e-05
3.9419775e-05
4.2936538e-05
4.7060733e-05
5.1914408e-05
5.7634238e-05
6.4391172e-05
7.2397506e-05
8.1907741e-05
9.3216864e-05
0.0001066902
0.00012277121
0.00014199624
0.00016501374
0.0001926105
0.00022574897
0.00026559873
0.00031359101
0.00037147758
0.00044141843
0.00052607604
0.00062873365
0.00075345807
0.00090539832
0.0010203379
0.0010200773
0.0010197258
0.0010191464
0.0010182503
0.0010169762
0.0010153766
0.00101363
0.0010119451
0.0010104319
0.0010091128
0.0010081082
0.0010077654
0.0010083973
0.0010100782
0.0010128058
0.0010155915
0.0010159421
0.0010104834
0.0010087958
3.4733806e-07
8.7301553e-06
1.7727947e-05
1.8677213e-05
1.349743e-05
1.7443176e-05
1.2611569e-05
1.6192897e-05
1.3768845e-05
1.7845e-05
1.6803868e-05
1.8486701e-05
1.7734977e-05
1.7596666e-05
1.7235162e-05
1.7023893e-05
1.6884241e-05
1.6829381e-05
1.6850914e-05
1.6942636e-05
1.7104078e-05
1.7335077e-05
1.7633768e-05
1.8000883e-05
1.8437178e-05
1.8947581e-05
1.9537396e-05
2.0215731e-05
2.0994794e-05
2.1889295e-05
2.291388e-05
2.4086645e-05
2.5431844e-05
2.6979068e-05
2.8765623e-05
3.0836181e-05
3.3244869e-05
3.6055422e-05
3.9343686e-05
4.3205187e-05
4.7759178e-05
5.3137343e-05
5.9503112e-05
6.7060405e-05
7.6058976e-05
8.6785225e-05
9.9594425e-05
0.00011492012
0.00013328857
0.0001553386
0.00018184545
0.00021376211
0.00025224909
0.00029873217
0.0003549562
0.00042307295
0.00050574534
0.00060626046
0.00072869106
0.00087814928
0.0010201449
0.0010198343
0.0010194267
0.0010187705
0.0010177911
0.0010164603
0.0010148632
0.0010131757
0.0010115542
0.0010100476
0.0010086806
0.001007629
0.0010072817
0.0010079468
0.0010095957
0.0010124926
0.001015751
0.0010163307
0.0010117216
0.0010077959
3.0852438e-07
8.5435009e-06
1.6992599e-05
1.8621807e-05
1.3898711e-05
1.5467153e-05
1.1276438e-05
1.4223217e-05
1.2472878e-05
1.5820957e-05
1.5381721e-05
1.6480935e-05
1.5988001e-05
1.5740371e-05
1.5451048e-05
1.5253827e-05
1.51348e-05
1.5089274e-05
1.5113515e-05
1.5201354e-05
1.5352002e-05
1.5566358e-05
1.5842484e-05
1.6182125e-05
1.6585473e-05
1.7057762e-05
1.7603861e-05
1.8232217e-05
1.8954139e-05
1.9784022e-05
2.0736179e-05
2.1827559e-05
2.308115e-05
2.4524783e-05
2.6193896e-05
2.8130988e-05
3.0387974e-05
3.3026519e-05
3.6119448e-05
3.9757062e-05
4.4056545e-05
4.9146331e-05
5.5184489e-05
6.2367499e-05
7.0942636e-05
8.1190935e-05
9.3460889e-05
0.00010818001
0.00012586894
0.00014716318
0.0001728333
0.00020383183
0.00024132193
0.0002867336
0.00034182506
0.00040876525
0.00049024179
0.00058958734
0.00071093444
0.0008594426
0.001019986
0.0010196163
0.0010191386
0.001018396
0.0010173316
0.0010159494
0.0010143566
0.001012713
0.0010111245
0.0010095983
0.0010081646
0.0010070466
0.0010066752
0.0010073734
0.0010090792
0.0010120935
0.0010155995
0.001016537
0.0010122762
0.0010065573
2.8476966e-07
8.4325715e-06
1.6402717e-05
1.8167643e-05
1.3521135e-05
1.3737605e-05
1.1136688e-05
1.2599569e-05
1.2476122e-05
1.4157241e-05
1.4138206e-05
1.4718277e-05
1.4391404e-05
1.4080587e-05
1.3835224e-05
1.3653304e-05
1.3547698e-05
1.3508269e-05
1.353261e-05
1.3615349e-05
1.3755264e-05
1.3953982e-05
1.4209514e-05
1.4524183e-05
1.4898288e-05
1.5336889e-05
1.5844675e-05
1.6429572e-05
1.7102022e-05
1.7876085e-05
1.8765937e-05
1.9787628e-05
2.0963178e-05
2.2318992e-05
2.3889028e-05
2.5714043e-05
2.7844151e-05
3.0339496e-05
3.327121e-05
3.6725207e-05
4.0816967e-05
4.5673372e-05
5.1449736e-05
5.8336169e-05
6.6579679e-05
7.6459388e-05
8.8320486e-05
0.00010258875
0.00011978386
0.00014054484
0.00016564511
0.00019604621
0.00023292432
0.00027773188
0.00033225695
0.00039870867
0.0004798302
0.00057903561
0.00070057433
0.00084974272
0.0010198119
0.0010193877
0.0010188309
0.0010180009
0.0010168589
0.0010154363
0.0010138505
0.0010122361
0.0010106551
0.0010090917
0.0010075811
0.0010063939
0.0010059966
0.0010067265
0.0010085441
0.0010116249
0.0010151582
0.0010166116
0.0010126857
0.0010058329
2.6158459e-07
8.371122e-06
1.593448e-05
1.70344e-05
1.3383415e-05
1.2149078e-05
1.1007196e-05
1.1642103e-05
1.1108486e-05
1.2609555e-05
1.2986474e-05
1.3142708e-05
1.2896875e-05
1.256535e-05
1.2346869e-05
1.2182071e-05
1.2087976e-05
1.2054833e-05
1.2080138e-05
1.2159333e-05
1.229105e-05
1.2477025e-05
1.2715795e-05
1.2933061e-05
1.3273446e-05
1.3675563e-05
1.4143604e-05
1.4684807e-05
1.5308564e-05
1.6028271e-05
1.6857958e-05
1.7812821e-05
1.8914018e-05
2.018661e-05
2.1663216e-05
2.3383039e-05
2.5394538e-05
2.7756409e-05
3.0538928e-05
3.408043e-05
3.8007637e-05
4.2681048e-05
4.8255797e-05
5.4916885e-05
6.2912282e-05
7.252243e-05
8.4092415e-05
9.8050076e-05
0.00011491794
0.0001353449
0.00016011384
0.00019020402
0.00022681575
0.00027143681
0.00032590385
0.00039249054
0.00047402625
0.00057404457
0.00069696383
0.00084829849
0.0010196028
0.0010191276
0.0010184896
0.001017578
0.0010163718
0.0010149212
0.0010133425
0.0010117422
0.0010101488
0.0010085384
0.0010069535
0.0010057449
0.0010053231
0.0010060547
0.0010080009
0.0010110935
0.001014469
0.0010160307
0.0010130646
0.0010053976
2.3417575e-07
8.3370344e-06
1.5516471e-05
1.5391228e-05
1.169511e-05
1.0577487e-05
9.0381834e-06
9.8671713e-06
9.7673557e-06
1.1371002e-05
1.1833004e-05
1.1687523e-05
1.1474203e-05
1.1157828e-05
1.0962688e-05
1.0818946e-05
1.0738767e-05
1.0714623e-05
1.0679397e-05
1.0742305e-05
1.0858244e-05
1.1026435e-05
1.1246027e-05
1.1515981e-05
1.1840604e-05
1.2222855e-05
1.2666999e-05
1.3180238e-05
1.3771444e-05
1.4453648e-05
1.5241147e-05
1.6148714e-05
1.7197124e-05
1.8410623e-05
1.982109e-05
2.1466805e-05
2.3395322e-05
2.566456e-05
2.8344834e-05
3.1521348e-05
3.5297482e-05
3.9803858e-05
4.5197446e-05
5.2095739e-05
5.9925311e-05
6.9363454e-05
8.0758628e-05
9.4544312e-05
0.0001112497
0.00013154001
0.00015621435
0.00018627859
0.00022296819
0.00026781973
0.00032273739
0.00039008418
0.00047280807
0.00057460282
0.00070010734
0.00085513473
0.0010193542
0.0010188259
0.0010181113
0.0010171292
0.0010158752
0.0010144088
0.0010128351
0.0010112351
0.001009616
0.0010079556
0.0010063284
0.0010051548
0.0010047449
0.001005426
0.0010074484
0.0010104961
0.0010135245
0.0010148582
0.0010134309
0.001004918
2.1542189e-07
8.2976009e-06
1.5035976e-05
1.3509971e-05
9.6265938e-06
9.4161309e-06
7.5146694e-06
8.8991672e-06
9.0470565e-06
1.0186636e-05
1.0679418e-05
1.0340416e-05
1.0138927e-05
9.8570436e-06
9.6852161e-06
9.4977009e-06
9.4083905e-06
9.3798675e-06
9.4047977e-06
9.4792092e-06
9.6011817e-06
9.7696269e-06
9.9848824e-06
1.0246671e-05
1.0558959e-05
1.0925523e-05
1.1350755e-05
1.1841913e-05
1.2407524e-05
1.3060215e-05
1.381465e-05
1.4685404e-05
1.5693157e-05
1.686161e-05
1.8222237e-05
1.9812828e-05
2.1680492e-05
2.3882885e-05
2.6490189e-05
2.9587483e-05
3.3279393e-05
3.7695775e-05
4.2998112e-05
4.9372642e-05
5.7058377e-05
6.6352226e-05
7.8295339e-05
9.2044642e-05
0.00010874897
0.00012909597
0.00015390789
0.00018422595
0.00022133169
0.00026682431
0.0003226937
0.00039141711
0.00047609411
0.00058062103
0.00070991134
0.00087015793
0.0010190621
0.0010184827
0.0010177015
0.0010166633
0.0010153768
0.001013904
0.0010123324
0.0010107217
0.0010090705
0.0010073672
0.0010058081
0.0010046819
0.0010043194
0.0010049077
0.0010068866
0.0010098638
0.0010125385
0.0010135858
0.0010137166
0.0010042989
1.9842222e-07
8.2568227e-06
1.3316547e-05
1.1843519e-05
7.7838269e-06
8.3999166e-06
6.7928597e-06
7.9829318e-06
8.4314731e-06
9.1180471e-06
9.5352985e-06
9.1078894e-06
8.90976e-06
8.5838353e-06
8.403221e-06
8.2858766e-06
8.2292979e-06
8.224483e-06
8.2669339e-06
8.3529482e-06
8.4799371e-06
8.649479e-06
8.8621462e-06
9.1180002e-06
9.4213128e-06
9.7762944e-06
1.0187509e-05
1.0662396e-05
1.1209269e-05
1.1840376e-05
1.2570788e-05
1.3415184e-05
1.4394371e-05
1.5531772e-05
1.6858766e-05
1.841305e-05
2.0241709e-05
2.2402656e-05
2.4966854e-05
2.8020447e-05
3.1669048e-05
3.6043356e-05
4.1309761e-05
4.7656922e-05
5.5329415e-05
6.4630834e-05
7.5935526e-05
8.9682892e-05
0.00010740618
0.00012800465
0.0001531889
0.00018404388
0.00022190864
0.00026845888
0.00032578875
0.00039651431
0.0004839195
0.00059214686
0.00072643915
0.00089344765
0.0010187285
0.0010181038
0.0010172703
0.001016192
0.0010148859
0.0010134124
0.0010118402
0.001010213
0.0010085331
0.0010068459
0.001005422
0.0010043433
0.0010040322
0.0010045056
0.0010063393
0.0010092661
0.0010116177
0.0010122638
0.0010130363
0.0010036199
1.8298359e-07
8.212082e-06
1.057341e-05
9.6826688e-06
6.4471045e-06
7.4773146e-06
6.2025119e-06
7.1745438e-06
7.8591942e-06
8.1322483e-06
8.4208201e-06
7.900664e-06
7.6554091e-06
7.427465e-06
7.2925512e-06
7.213012e-06
7.1844427e-06
7.2009345e-06
7.2575408e-06
7.3534312e-06
7.4864809e-06
7.658169e-06
7.8701778e-06
8.1229331e-06
8.4207998e-06
8.7684408e-06
9.170708e-06
9.6352741e-06
1.0170434e-05
1.0788117e-05
1.1444944e-05
1.226377e-05
1.3215827e-05
1.4324245e-05
1.5620309e-05
1.7141664e-05
1.8935456e-05
2.1059914e-05
2.3586922e-05
2.6603992e-05
3.0218784e-05
3.4835753e-05
4.0122306e-05
4.650985e-05
5.4248719e-05
6.3650482e-05
7.5107159e-05
8.9077831e-05
0.00010614507
0.00012703961
0.0001540604
0.00018574171
0.00022471639
0.00027275089
0.00033206229
0.00040542995
0.00049635395
0.00060926701
0.00074979861
0.00092513333
0.0010183607
0.0010176979
0.001016829
0.0010157282
0.001014414
0.0010129434
0.0010113704
0.0010097291
0.0010080377
0.0010065206
0.0010051921
0.0010041489
0.0010038523
0.0010042058
0.0010058915
0.0010087817
0.0010108928
0.0010109999
0.0010110525
0.0010029294
1.694126e-07
8.1660361e-06
8.3730001e-06
8.3985264e-06
5.7458633e-06
6.6196919e-06
5.6916452e-06
6.4640761e-06
7.2932585e-06
7.2171282e-06
7.2197599e-06
6.78125e-06
6.5794926e-06
6.4108936e-06
6.3148819e-06
6.2668479e-06
6.2621741e-06
6.2968261e-06
6.3671803e-06
6.4728947e-06
6.6126275e-06
6.7881333e-06
7.0018025e-06
7.2545648e-06
7.5508786e-06
7.8621055e-06
8.253777e-06
8.7071897e-06
9.2305326e-06
9.8353281e-06
1.0535454e-05
1.1348975e-05
1.2296192e-05
1.3400404e-05
1.4693348e-05
1.6213276e-05
1.8008205e-05
2.0137552e-05
2.2675228e-05
2.5711402e-05
2.9357403e-05
3.3752435e-05
3.9067139e-05
4.5506406e-05
5.3328469e-05
6.3401872e-05
7.5125869e-05
8.9456563e-05
0.00010699981
0.00012852699
0.00015498944
0.00018934025
0.00022978775
0.00027974784
0.00034157939
0.00041824983
0.00051350578
0.00063211304
0.00078014983
0.00096540737
0.0010179692
0.0010172767
0.0010163899
0.0010152857
0.0010139762
0.0010125134
0.0010109445
0.0010093016
0.0010077056
0.0010063874
0.0010051406
0.0010040834
0.0010037794
0.0010039725
0.001005542
0.0010084412
0.0010104719
0.0010101973
0.0010100466
0.0010023194
1.5723612e-07
8.1064862e-06
6.6899418e-06
7.3639343e-06
5.124531e-06
5.860978e-06
5.2506948e-06
5.8324563e-06
6.6173618e-06
6.1781791e-06
6.1363645e-06
5.799953e-06
5.6390055e-06
5.5185175e-06
5.4560331e-06
5.4352938e-06
5.4520185e-06
5.5036253e-06
5.5872584e-06
5.7033309e-06
5.8511594e-06
6.0326265e-06
6.2245273e-06
6.4748587e-06
6.7683995e-06
7.1092511e-06
7.5043425e-06
7.9610744e-06
8.4878788e-06
9.0965142e-06
9.8010534e-06
1.0619406e-05
1.1573208e-05
1.2686228e-05
1.3990907e-05
1.5526475e-05
1.7342365e-05
1.949969e-05
2.2075114e-05
2.5162507e-05
2.887709e-05
3.3362699e-05
3.8800969e-05
4.5404752e-05
5.3444231e-05
6.3257296e-05
7.5266217e-05
8.998528e-05
0.00010900482
0.00013136922
0.0001589146
0.00019290244
0.0002371545
0.00028949636
0.00035440331
0.00043505609
0.00053547714
0.00066080342
0.00081762592
0.0010144216
0.001017568
0.0010168551
0.0010159669
0.0010148791
0.0010135915
0.0010121454
0.0010105962
0.0010089636
0.0010076201
0.0010064495
0.0010052726
0.0010041693
0.0010036337
0.0010038082
0.0010052594
0.0010081323
0.0010102331
0.00100999
0.0010084371
0.0010017882
1.4636914e-07
8.0329444e-06
5.3801919e-06
6.4343427e-06
4.5628836e-06
5.1797592e-06
4.8726961e-06
5.1860744e-06
5.7788023e-06
5.2753283e-06
5.1860841e-06
4.9404116e-06
4.8180756e-06
4.7377335e-06
4.7050288e-06
4.7088851e-06
4.7455837e-06
4.8136166e-06
4.9109131e-06
5.0197939e-06
5.1715856e-06
5.3568773e-06
5.5778892e-06
5.8375433e-06
6.1400427e-06
6.4898824e-06
6.8939377e-06
7.3602624e-06
7.8975437e-06
8.5177404e-06
9.2351015e-06
1.0067833e-05
1.0988469e-05
1.211119e-05
1.3428466e-05
1.4980503e-05
1.6818379e-05
1.9004994e-05
2.1619856e-05
2.4761107e-05
2.8548974e-05
3.3384441e-05
3.9000133e-05
4.5834069e-05
5.4169695e-05
6.4359993e-05
7.6854898e-05
9.2201399e-05
0.00011107646
0.00013556255
0.00016444518
0.00020014449
0.00024433964
0.00030201966
0.0003705658
0.00045588657
0.00056230926
0.00069537054
0.00086222544
0.0010177784
0.0010171724
0.0010164518
0.0010155771
0.0010145243
0.0010132807
0.0010118646
0.0010103583
0.0010088811
0.0010077449
0.0010066941
0.00100557
0.0010044562
0.0010037532
0.0010037171
0.0010050569
0.0010077527
0.001009946
0.0010101274
0.0010073109
0.001001343
1.3666938e-07
7.8969819e-06
4.3790283e-06
5.6032881e-06
4.0616971e-06
4.5724154e-06
4.5394855e-06
4.4848447e-06
4.9378572e-06
4.4698754e-06
4.3620822e-06
4.1907588e-06
4.1052772e-06
4.0596428e-06
4.0540369e-06
4.0806573e-06
4.1364889e-06
4.2043909e-06
4.3104991e-06
4.4465305e-06
4.6133272e-06
4.8124035e-06
5.0466751e-06
5.3192825e-06
5.6350052e-06
5.998618e-06
6.4170843e-06
6.8784333e-06
7.4269573e-06
8.0593092e-06
8.7898434e-06
9.6368619e-06
1.0622766e-05
1.1775736e-05
1.312943e-05
1.4725628e-05
1.661807e-05
1.8872498e-05
2.1572233e-05
2.4821301e-05
2.8746707e-05
3.3509018e-05
3.9303318e-05
4.6371285e-05
5.5012572e-05
6.6149138e-05
7.924596e-05
9.5357846e-05
0.00011520811
0.00013970042
0.00017156099
0.00020927849
0.00025604011
0.00031410329
0.00039002483
0.00048067737
0.00059390231
0.00073565211
0.00091365944
0.0010173993
0.0010167973
0.0010160856
0.0010152387
0.0010142357
0.0010130601
0.0010117026
0.0010102254
0.0010090331
0.0010080547
0.0010070958
0.0010060039
0.0010048519
0.0010040082
0.0010039435
0.0010049851
0.001007395
0.0010095633
0.0010099296
0.0010062184
0.0010010107
1.2805511e-07
7.5664411e-06
3.7006657e-06
4.8648411e-06
3.6136261e-06
4.0324993e-06
4.0207654e-06
3.8499705e-06
4.1315473e-06
3.7575574e-06
3.6556008e-06
3.5434462e-06
3.4925698e-06
3.4775491e-06
3.4967263e-06
3.5318614e-06
3.6000773e-06
3.6972007e-06
3.8224412e-06
3.9760559e-06
4.1595238e-06
4.3748874e-06
4.6254908e-06
4.9147733e-06
5.2362362e-06
5.6144386e-06
6.0480544e-06
6.545173e-06
7.1159667e-06
7.7725641e-06
8.5297613e-06
9.4066921e-06
1.0426797e-05
1.1619488e-05
1.3020966e-05
1.4674836e-05
1.6638111e-05
1.8980164e-05
2.1788476e-05
2.5174247e-05
2.9270907e-05
3.424893e-05
4.0318486e-05
4.7735285e-05
5.6820104e-05
6.7969866e-05
8.2402779e-05
9.9418242e-05
0.00012040667
0.00014634267
0.00017842056
0.0002202345
0.00026991407
0.00033166563
0.00040854025
0.00050919643
0.00062992251
0.0007811637
0.00097119659
0.0010170439
0.0010164547
0.0010157695
0.0010149662
0.0010140236
0.0010129296
0.0010116823
0.001010341
0.0010093553
0.0010085053
0.0010076154
0.0010065491
0.0010053774
0.0010044496
0.0010042151
0.0010050027
0.0010070557
0.0010090115
0.001008908
0.0010055093
0.0010007815
1.2061086e-07
7.1540668e-06
3.2507073e-06
4.2073482e-06
3.2141833e-06
3.4026494e-06
3.561394e-06
3.2689487e-06
3.4046284e-06
3.1387727e-06
3.0575629e-06
2.9920753e-06
2.9726163e-06
2.9848895e-06
3.0120284e-06
3.0758028e-06
3.1673092e-06
3.2853798e-06
3.4301427e-06
3.6025912e-06
3.8047532e-06
4.0389612e-06
4.300879e-06
4.6075181e-06
4.9581896e-06
5.3585824e-06
5.8155405e-06
6.3374706e-06
6.9347925e-06
7.6204527e-06
8.4097908e-06
9.3228491e-06
1.0384261e-05
1.1625085e-05
1.3028309e-05
1.4737573e-05
1.6769061e-05
1.9196347e-05
2.2244057e-05
2.579366e-05
3.0095261e-05
3.5329335e-05
4.1722434e-05
4.9547179e-05
5.9144875e-05
7.0941669e-05
8.5465761e-05
0.00010337296
0.00012659999
0.00015416234
0.00018828391
0.00023058415
0.00028577766
0.00035158077
0.00043352754
0.00054098019
0.00066971581
0.00083097509
0.0010172583
0.0010167175
0.001016149
0.0010155048
0.0010147618
0.0010138939
0.0010128847
0.0010117475
0.001010622
0.0010097923
0.0010090417
0.0010082042
0.0010071603
0.0010059776
0.0010049728
0.0010045573
0.0010049563
0.0010065513
0.0010082961
0.0010082145
0.0010048939
0.0010006323
1.1459405e-07
6.2009422e-06
2.8648722e-06
3.6090719e-06
2.8676363e-06
2.8216716e-06
3.105335e-06
2.7436889e-06
2.7814417e-06
2.610163e-06
2.5565105e-06
2.5287821e-06
2.5302506e-06
2.5602987e-06
2.6215647e-06
2.7100104e-06
2.8238006e-06
2.9627983e-06
3.1278892e-06
3.3205153e-06
3.5381054e-06
3.7914447e-06
4.0807518e-06
4.410095e-06
4.7843364e-06
5.2093744e-06
5.6923867e-06
6.2421356e-06
6.8694107e-06
7.5713821e-06
8.3917331e-06
9.3392129e-06
1.0439599e-05
1.1725257e-05
1.3236764e-05
1.5024993e-05
1.7153057e-05
1.9700227e-05
2.2765254e-05
2.6470696e-05
3.0969471e-05
3.6712908e-05
4.3472847e-05
5.1759212e-05
6.1934922e-05
7.4454903e-05
8.9884341e-05
0.0001089268
0.00013367345
0.00016301852
0.00019936754
0.00024444268
0.00030332608
0.00037344865
0.00046075578
0.00056961936
0.0007122603
0.00088364508
0.0010169317
0.0010164196
0.0010158771
0.0010152817
0.0010146102
0.0010138341
0.0010129292
0.0010119124
0.0010109876
0.0010102784
0.0010096029
0.0010088053
0.0010077768
0.0010065724
0.0010054689
0.0010048616
0.0010048841
0.001006053
0.0010074943
0.0010073926
0.0010043954
0.0010005611
1.095395e-07
4.3461721e-06
2.5133431e-06
3.0537207e-06
2.4336544e-06
2.3349311e-06
2.6289194e-06
2.2766833e-06
2.2630944e-06
2.1649661e-06
2.1417697e-06
2.139569e-06
2.1689804e-06
2.2292066e-06
2.3162381e-06
2.4277948e-06
2.5632648e-06
2.7232031e-06
2.9063844e-06
3.118744e-06
3.3613747e-06
3.6371542e-06
3.9495771e-06
4.3028857e-06
4.7021937e-06
5.1536649e-06
5.664787e-06
6.2355526e-06
6.8919393e-06
7.6416097e-06
8.501997e-06
9.494805e-06
1.0647444e-05
1.199442e-05
1.3579109e-05
1.5455747e-05
1.7691996e-05
2.0372373e-05
2.3602479e-05
2.7513976e-05
3.2270857e-05
3.8076517e-05
4.5519539e-05
5.4311808e-05
6.511939e-05
7.8427285e-05
9.4838212e-05
0.00011510317
0.00014015849
0.00017270735
0.0002114142
0.00025940844
0.00031898375
0.00039669896
0.00048947054
0.00060498494
0.00075618035
0.00093726826
0.001016633
0.0010161442
0.0010156315
0.0010150853
0.001014487
0.0010138111
0.0010130299
0.0010121509
0.0010113648
0.0010107461
0.0010101248
0.0010093581
0.0010083401
0.0010071018
0.0010058735
0.0010050348
0.0010048721
0.0010055778
0.0010065877
0.0010065311
0.0010040351
0.0010005736
1.0420103e-07
3.5864243e-06
2.1488016e-06
2.5433729e-06
2.0785637e-06
1.9278773e-06
2.1414978e-06
1.8675666e-06
1.8416716e-06
1.798977e-06
1.8021769e-06
1.8308878e-06
1.8917534e-06
1.9785116e-06
2.0888454e-06
2.2219343e-06
2.3780762e-06
2.5565607e-06
2.7620764e-06
2.9958205e-06
3.2603629e-06
3.5588083e-06
3.8948625e-06
4.2729462e-06
4.698366e-06
5.1775293e-06
5.7120851e-06
6.3211726e-06
7.0124402e-06
7.800528e-06
8.7038857e-06
9.745605e-06
1.0954801e-05
1.2368178e-05
1.4032066e-05
1.6004667e-05
1.8358528e-05
2.1183959e-05
2.4593774e-05
2.8728128e-05
3.3761896e-05
4.0200595e-05
4.7800444e-05
5.7130732e-05
6.8608363e-05
8.2748713e-05
0.00010019199
0.00012173463
0.00014974215
0.00018295839
0.00022408087
0.00027504095
0.00033824202
0.00042059643
0.00051872157
0.00064062852
0.00079980792
0.00098963369
0.0010163547
0.0010158866
0.0010154026
0.0010149009
0.0010143688
0.0010137862
0.0010131261
0.001012383
0.0010116917
0.0010111328
0.0010105465
0.0010098058
0.0010088062
0.0010075486
0.0010062108
0.0010051619
0.0010047894
0.0010050603
0.001005675
0.0010056693
0.0010036875
0.0010006402
1.002653e-07
2.8630622e-06
1.8338865e-06
2.0337979e-06
1.7838675e-06
1.5791206e-06
1.6925921e-06
1.5211426e-06
1.50995e-06
1.5110293e-06
1.5410656e-06
1.6026323e-06
1.6898983e-06
1.7994279e-06
1.9303688e-06
2.0829928e-06
2.2573495e-06
2.4565355e-06
2.6821864e-06
2.936672e-06
3.222816e-06
3.5439139e-06
3.9038229e-06
4.3071032e-06
4.75922e-06
5.2633485e-06
5.8327024e-06
6.4749934e-06
7.2024789e-06
8.0305684e-06
8.9788557e-06
1.0071895e-05
1.1340681e-05
1.2824249e-05
1.4571844e-05
1.66456e-05
1.9123486e-05
2.2101693e-05
2.5700849e-05
3.0070227e-05
3.5627823e-05
4.2192736e-05
5.0239504e-05
6.0125352e-05
7.2291123e-05
8.7283367e-05
0.00010577893
0.0001286186
0.00015825892
0.00019343076
0.00023694342
0.00029080795
0.00035751928
0.0004442531
0.00054738067
0.00067511313
0.00084128278
0.0010165663
0.0010160924
0.0010156396
0.0010151799
0.0010147141
0.001014235
0.0010137287
0.0010131722
0.001012548
0.0010119165
0.0010113898
0.0010108228
0.0010101063
0.0010091443
0.0010079159
0.0010065333
0.001005295
0.001004704
0.0010045291
0.001004794
0.001004686
0.001003051
0.0010006322
9.7939737e-08
2.2321953e-06
1.5598952e-06
1.5488301e-06
1.5124967e-06
1.2813234e-06
1.3275167e-06
1.2446846e-06
1.2609872e-06
1.2931408e-06
1.356334e-06
1.4437085e-06
1.5523184e-06
1.6808944e-06
1.8297518e-06
1.9999516e-06
2.1924356e-06
2.4101705e-06
2.6550554e-06
2.9296892e-06
3.237051e-06
3.580569e-06
3.9642203e-06
4.3926844e-06
4.8715572e-06
5.4076427e-06
6.0093336e-06
6.6870753e-06
7.4456717e-06
8.3144744e-06
9.3085836e-06
1.0454103e-05
1.1784027e-05
1.3339915e-05
1.517397e-05
1.7421622e-05
2.0045974e-05
2.320367e-05
2.7023724e-05
3.166604e-05
3.7328532e-05
4.4255806e-05
5.2751491e-05
6.3191198e-05
7.603984e-05
9.1873171e-05
0.00011140299
0.00013669358
0.00016668626
0.00020373287
0.00024951303
0.00030610095
0.00037961195
0.00046669867
0.00057424445
0.00070695349
0.0008787551
0.0010162961
0.001015838
0.0010153958
0.0010149535
0.0010145116
0.0010140665
0.0010136088
0.0010131233
0.0010125905
0.0010120063
0.0010114903
0.0010109337
0.0010102435
0.001009338
0.0010081908
0.0010068763
0.0010055902
0.0010045714
0.0010040734
0.0010039189
0.0010035535
0.0010022455
0.0010004873
9.8018445e-08
1.694237e-06
1.3285101e-06
1.1775555e-06
1.2396883e-06
1.0322852e-06
1.0595834e-06
1.0403132e-06
1.0849872e-06
1.1466127e-06
1.2337514e-06
1.340654e-06
1.4663236e-06
1.6109612e-06
1.7756755e-06
1.9620125e-06
2.1715668e-06
2.4069283e-06
2.6703394e-06
2.9645202e-06
3.2925488e-06
3.6579477e-06
4.0647983e-06
4.5179023e-06
5.0230073e-06
5.5871123e-06
6.2188792e-06
6.9291505e-06
7.7315993e-06
8.6435536e-06
9.6869747e-06
1.0889754e-05
1.228715e-05
1.3923643e-05
1.5855111e-05
1.8151524e-05
2.0900277e-05
2.4210514e-05
2.8217844e-05
3.3090792e-05
3.9038331e-05
4.6318569e-05
5.5248511e-05
6.6222093e-05
7.9724864e-05
9.7153998e-05
0.0001178113
0.00014328006
0.00017469599
0.0002134602
0.00026129565
0.00032332355
0.00039665199
0.00048700008
0.00059819967
0.00074197792
0.00091070134
0.0010160351
0.0010155852
0.0010151483
0.0010147144
0.0010142836
0.0010138527
0.0010134147
0.0010129586
0.0010124726
0.0010119487
0.0010114314
0.0010108856
0.0010102288
0.0010093933
0.0010083424
0.0010071006
0.0010057849
0.0010046033
0.0010037483
0.0010032229
0.001002697
0.0010017933
0.0010005643
1.0130832e-07
1.2551157e-06
1.1366518e-06
9.0597348e-07
1.081038e-06
8.271486e-07
8.7573361e-07
9.0170674e-07
9.6909336e-07
1.0537481e-06
1.1582482e-06
1.2802165e-06
1.4200934e-06
1.5789203e-06
1.7582131e-06
1.9597365e-06
2.1854928e-06
2.4375805e-06
2.7186816e-06
3.0315134e-06
3.3792324e-06
3.7654503e-06
4.1943553e-06
4.6708806e-06
5.200939e-06
5.7917414e-06
6.4522282e-06
7.1936598e-06
8.03028e-06
8.9802179e-06
1.0066479e-05
1.1318353e-05
1.2772902e-05
1.4476912e-05
1.6489163e-05
1.8883269e-05
2.1751067e-05
2.520681e-05
2.9392304e-05
3.4483238e-05
4.0973859e-05
4.8640987e-05
5.8041868e-05
6.9587946e-05
8.3785666e-05
0.00010125917
0.0001227775
0.00014928744
0.00018194996
0.00022427248
0.00027422568
0.00033571465
0.00041134807
0.00050426908
0.00062425969
0.00076470581
0.00093593637
0.0010157829
0.0010153329
0.0010148931
0.0010144575
0.001014025
0.0010135934
0.0010131575
0.0010127095
0.0010122417
0.0010117458
0.0010112309
0.001010702
0.0010100866
0.0010093244
0.0010083731
0.0010072331
0.001005974
0.0010047382
0.0010036838
0.001002869
0.0010021723
0.0010013794
0.001000449
1.0790915e-07
9.6687595e-07
9.6926833e-07
7.6687851e-07
7.7022853e-07
7.0598739e-07
7.5274354e-07
8.1395406e-07
8.9851504e-07
9.9923235e-07
1.1168526e-06
1.2513373e-06
1.4037988e-06
1.5755969e-06
1.7683695e-06
1.9839419e-06
2.2243536e-06
2.4918778e-06
2.7890607e-06
3.1187691e-06
3.4842561e-06
3.8892517e-06
4.3380891e-06
4.8358844e-06
5.3887881e-06
6.0023106e-06
6.6886375e-06
7.4581674e-06
8.3328515e-06
9.3204884e-06
1.0450044e-05
1.175232e-05
1.3266263e-05
1.504096e-05
1.7138031e-05
1.9634519e-05
2.2626417e-05
2.6233004e-05
3.0602113e-05
3.5916653e-05
4.2402594e-05
5.0338796e-05
6.0068852e-05
7.2013983e-05
8.6694346e-05
0.00010474875
0.00012809166
0.00015563875
0.00018952546
0.00023120552
0.00028244933
0.00034540555
0.00042266079
0.00052221858
0.00063872321
0.00078064729
0.00095289842
0.0010155507
0.0010150897
0.0010146368
0.001014188
0.0010137416
0.0010132963
0.0010128482
0.0010123899
0.0010119158
0.0010114236
0.0010109174
0.0010104133
0.0010098506
0.0010091743
0.0010083394
0.0010073289
0.001006173
0.0010049554
0.0010037886
0.0010027586
0.0010018796
0.0010011021
0.0010003614
1.2255481e-07
9.7149303e-07
8.080884e-07
5.6793926e-07
6.1235234e-07
6.1595079e-07
6.8081487e-07
7.6075884e-07
8.5879285e-07
9.7169295e-07
1.1005191e-06
1.2461267e-06
1.4098482e-06
1.5931349e-06
1.7976506e-06
2.0252484e-06
2.2780017e-06
2.5582317e-06
2.8685448e-06
3.2118785e-06
3.5915641e-06
4.0114149e-06
4.4758513e-06
4.9900816e-06
5.5603592e-06
6.1943374e-06
6.9015449e-06
7.6939995e-06
8.5869912e-06
9.6000248e-06
1.0757959e-05
1.2092435e-05
1.3643503e-05
1.5461658e-05
1.7610245e-05
2.0168404e-05
2.3234649e-05
2.6931208e-05
3.1409336e-05
3.6855808e-05
4.3500976e-05
5.1997521e-05
6.2034303e-05
7.4345176e-05
8.946068e-05
0.00010803059
0.00013085182
0.00015890008
0.00019336756
0.00023570492
0.00028767573
0.00035464948
0.00043324119
0.00052924036
0.00064619759
0.00078822072
0.00095998903
0.0010153602
0.0010148789
0.0010144028
0.0010139293
0.0010134565
0.0010129838
0.0010125094
0.0010120272
0.0010115308
0.0010110246
0.0010105321
0.0010100613
0.0010095632
0.0010089859
0.0010082802
0.0010074153
0.001006393
0.0010052525
0.0010040621
0.0010029045
0.0010018626
0.0010009961
0.001000308
1.1232644e-07
6.2557004e-07
6.4018806e-07
4.7032287e-07
5.1414499e-07
5.6090568e-07
6.4074759e-07
7.34316e-07
8.4306248e-07
9.6635735e-07
1.1053191e-06
1.2610329e-06
1.4348528e-06
1.6282837e-06
1.8430243e-06
2.0809777e-06
2.3442771e-06
2.6352838e-06
2.9567172e-06
3.3115758e-06
3.7032708e-06
4.1356976e-06
4.6133623e-06
5.1415636e-06
5.7266543e-06
6.3764031e-06
7.1004791e-06
7.9110851e-06
8.8306597e-06
9.8684295e-06
1.1054502e-05
1.2421355e-05
1.4010039e-05
1.5872254e-05
1.8072782e-05
2.0692485e-05
2.3831909e-05
2.7615701e-05
3.2197983e-05
3.7768915e-05
4.4562664e-05
5.2867021e-05
6.3035065e-05
7.5501145e-05
9.0797158e-05
0.000109575
0.0001326325
0.0001623563
0.00019736458
0.0002402991
0.00029291326
0.00035730989
0.00043599376
0.00053191884
0.00064853149
0.0007898085
0.00096027525
0.0010152312
0.0010147286
0.0010142268
0.0010137238
0.0010132171
0.0010127059
0.0010121915
0.0010116729
0.0010111442
0.0010106118
0.0010101346
0.0010096999
0.0010092702