/*--------------------------------*- C++ -*----------------------------------*\
  =========                 |
  \\      /  F ield         | OpenFOAM: The Open Source CFD Toolbox
   \\    /   O peration     | Website:  https://openfoam.org
    \\  /    A nd           | Version:  12
     \\/     M anipulation  |
\*---------------------------------------------------------------------------*/
FoamFile
{
    format      ascii;
    class       surfaceScalarField;
    location    "0.038";
    object      phi;
}
// * * * * * * * * * * * * * * * * * * * * * * * * * * * * * * * * * * * * * //

dimensions      [1 0 -1 0 0 0 0];

internalField   nonuniform List<scalar> 
31760
(
-0.00065926315
-0.050817467
0.05148026
-0.0016397375
-0.064049544
0.065038062
-0.0026543038
-0.062763477
0.063787345
-0.0036929851
-0.068358437
0.069406196
-0.0047885995
-0.070059638
0.071164485
-0.0059114628
-0.07428552
0.075418597
-0.0071087029
-0.077218198
0.078425954
-0.0083429332
-0.081197058
0.082442783
-0.009641454
-0.084816208
0.086126785
-0.010998131
-0.088912319
0.090281894
-0.012412916
-0.093032262
0.094460738
-0.013896007
-0.097425722
0.098923395
-0.015442851
-0.1019839
0.10354625
-0.017061443
-0.106767
0.10840209
-0.018751599
-0.1117644
0.11347212
-0.020518075
-0.11699249
0.11877766
-0.022363647
-0.12245929
0.12432476
-0.0242916
-0.12817612
0.13012525
-0.026305274
-0.13415388
0.1361901
-0.02840817
-0.14040371
0.14253062
-0.030603833
-0.14693789
0.1491591
-0.032896138
-0.15376819
0.1560877
-0.035288798
-0.16090805
0.16332966
-0.037785839
-0.16837094
0.17089878
-0.040390355
-0.17617115
0.17880843
-0.043107047
-0.18432252
0.18707404
-0.045939923
-0.19284098
0.19571086
-0.048892527
-0.20174275
0.20473466
-0.051968472
-0.21104436
0.21416202
-0.055171916
-0.22076341
0.22401108
-0.058506283
-0.23091831
0.23429954
-0.061975022
-0.24152831
0.24504662
-0.06558107
-0.25261424
0.25627267
-0.069327603
-0.26419651
0.26799831
-0.073216749
-0.27629841
0.28024577
-0.077250317
-0.28894335
0.29303811
-0.081429787
-0.30215607
0.30639973
-0.085755788
-0.31596321
0.32035638
-0.090228288
-0.33039154
0.33493414
-0.094846115
-0.34547117
0.35016192
-0.099607402
-0.36123234
0.36606924
-0.10450883
-0.37770715
0.38268668
-0.10954585
-0.3949298
0.40004718
-0.11471268
-0.4129361
0.41818524
-0.12000152
-0.43176421
0.43713697
-0.1254031
-0.45145337
0.45694007
-0.1309056
-0.47204596
0.47763433
-0.13649572
-0.49358566
0.49926187
-0.14215739
-0.51611974
0.52186719
-0.14787154
-0.53969711
0.54549611
-0.15361616
-0.56436924
0.57019711
-0.15936646
-0.5901912
0.59602249
-0.16509358
-0.61722048
0.62302557
-0.1707648
-0.645518
0.65126339
-0.17634376
-0.67514801
0.68079642
-0.18178871
-0.70617942
0.71168801
-0.18705389
-0.73868456
0.7440063
-0.192088
-0.7727407
0.77782314
-0.19683469
-0.80843093
0.81321624
-0.20122975
-0.8458434
0.850266
-0.20520277
-0.88507328
0.88906141
-0.20867489
-0.92622271
0.92969686
-0.21155787
-0.96940315
0.97227481
-0.21375358
-1.0147366
1.0169079
-0.2151535
-1.0623567
1.0637198
-0.21563732
-1.1124148
1.1128498
-0.21507041
-1.1650844
1.1644575
-0.21330815
-1.2205663
1.2187338
-0.21018236
-1.2790929
1.275889
-0.20549992
-1.3409015
1.3361388
-0.19904776
-1.4061842
1.3996605
-0.19059709
-1.4750145
1.4665164
-0.17990271
-1.5473113
1.5366108
-0.16679472
-1.6228096
1.6097603
-0.15059346
-1.7012774
1.6852204
-0.13260739
-1.7822041
1.764493
-0.10877104
-1.8639371
1.8405426
-0.084766953
-1.952412
1.9286067
-0.052454734
-2.0381098
2.006306
-2.1430238
2.1081131
-0.00065443269
-0.050159248
-0.0015376529
-0.063158631
-0.0024523881
-0.061840352
-0.003430577
-0.067371473
-0.0044220751
-0.069059068
-0.0054898958
-0.073207688
-0.0065750944
-0.076122567
-0.0077407244
-0.080020062
-0.0089339978
-0.083610971
-0.010202096
-0.087631414
-0.011515107
-0.09170563
-0.01289657
-0.096029737
-0.014337133
-0.10052788
-0.01584566
-0.10524201
-0.017422546
-0.11016999
-0.019072005
-0.11532437
-0.02079634
-0.12071508
-0.022599437
-0.12635186
-0.024484632
-0.13224616
-0.02645563
-0.13840873
-0.028516215
-0.14485176
-0.030669765
-0.15158746
-0.032920509
-0.15862837
-0.03527226
-0.1659884
-0.037729936
-0.17368072
-0.040296478
-0.18172114
-0.042976699
-0.19012372
-0.045774462
-0.19890563
-0.048694172
-0.20808286
-0.051739531
-0.2176737
-0.054914748
-0.22769608
-0.058223291
-0.23816997
-0.061668603
-0.24911625
-0.065253825
-0.26055563
-0.068981536
-0.27251198
-0.072854223
-0.28500881
-0.076873229
-0.29807204
-0.081040231
-0.31172799
-0.085354751
-0.32600561
-0.089816554
-0.34093481
-0.094424188
-0.35654709
-0.099174679
-0.3728761
-0.10406375
-0.38995739
-0.10908636
-0.40782759
-0.11423539
-0.42652697
-0.11950215
-0.44609641
-0.12487617
-0.46658009
-0.13034448
-0.48802429
-0.13589226
-0.51047816
-0.14150222
-0.53399312
-0.1471541
-0.5586237
-0.15282465
-0.58442799
-0.15848725
-0.61146694
-0.16411196
-0.63980487
-0.16966487
-0.66951009
-0.17510784
-0.7006559
-0.18039857
-0.73331891
-0.18548988
-0.76758142
-0.19032901
-0.80353191
-0.19485772
-0.84126419
-0.19901062
-0.88088016
-0.2027149
-0.92248896
-0.20588916
-0.96621029
-0.20844438
-1.0121736
-0.21028101
-1.0605226
-0.21129097
-1.111418
-0.21135064
-1.165049
-0.21032662
-1.2216263
-0.20806808
-1.2813991
-0.20440215
-1.3446239
-0.19913577
-1.4115077
-0.19205593
-1.4821367
-0.18295471
-1.5564202
-0.17159241
-1.6341225
-0.15776999
-1.7149644
-0.14151716
-1.7981912
-0.12135301
-1.8837238
-0.099477382
-1.9741041
-0.071145765
-2.0660562
-2.1742802
-0.00059277636
-0.049562126
-0.0014157464
-0.062327956
-0.0022394339
-0.061009572
-0.0031619369
-0.066440127
-0.0040750829
-0.068136797
-0.005072186
-0.072200563
-0.0060730425
-0.075111228
-0.0071573841
-0.078924395
-0.0082629796
-0.082493443
-0.0094413465
-0.086440304
-0.010661342
-0.090472092
-0.011946095
-0.09473056
-0.013287241
-0.099171385
-0.014692913
-0.10382
-0.016163979
-0.10868153
-0.017704121
-0.11376572
-0.019316797
-0.1190827
-0.021005063
-0.12464261
-0.022773287
-0.13045559
-0.024624393
-0.13653383
-0.026562961
-0.14288786
-0.028592616
-0.14953083
-0.030717337
-0.15647493
-0.032942009
-0.16373315
-0.035270012
-0.17132018
-0.037706661
-0.17924987
-0.040255521
-0.18753803
-0.042921769
-0.19620023
-0.04570908
-0.20525394
-0.048622713
-0.21471588
-0.051665902
-0.224606
-0.054843094
-0.23494306
-0.058158222
-0.24574844
-0.061614104
-0.25704401
-0.065214463
-0.26885271
-0.068961611
-0.28119949
-0.072857928
-0.29411021
-0.076904082
-0.30761291
-0.081101232
-0.3217361
-0.085449005
-0.33651122
-0.089945735
-0.35197111
-0.094589403
-0.36814982
-0.099376679
-0.38508421
-0.10430211
-0.40281311
-0.10935964
-0.42137741
-0.11454115
-0.44082011
-0.11983719
-0.4611868
-0.1252355
-0.48252659
-0.13072304
-0.50488948
-0.13628355
-0.5283302
-0.14189802
-0.55290606
-0.14754602
-0.57867668
-0.15320302
-0.60570719
-0.15884164
-0.63406485
-0.1644311
-0.66382152
-0.16993674
-0.69505446
-0.1753202
-0.72784411
-0.18053758
-0.76227836
-0.1855416
-0.79844901
-0.19027812
-0.83645659
-0.19468785
-0.87640781
-0.19870398
-0.91841906
-0.20225336
-0.96261608
-0.20525426
-1.0091367
-0.20761705
-1.0581329
-0.20924229
-1.1097757
-0.21002431
-1.1642612
-0.20983966
-1.2218187
-0.20854971
-1.2827123
-0.20600367
-1.3472083
-0.20202242
-1.4155366
-0.19642229
-1.4877803
-0.18900542
-1.5638552
-0.17957557
-1.64352
-0.16801069
-1.726414
-0.15405425
-1.8119126
-0.13712723
-1.9003455
-0.11790488
-1.9932081
-0.093538702
-2.0901613
-2.2017851
-0.0005363631
-0.049021111
-0.0012973682
-0.061559315
-0.0020472141
-0.060252169
-0.0029113379
-0.065567306
-0.0037577197
-0.067281439
-0.0046860271
-0.071262426
-0.0056089069
-0.074178026
-0.0066179032
-0.077904302
-0.0076422908
-0.081457319
-0.0087379485
-0.085332123
-0.0098720087
-0.089324717
-0.011068004
-0.093520385
-0.01231852
-0.097905778
-0.01363078
-0.10249167
-0.015006577
-0.10728863
-0.016449739
-0.11230434
-0.017963622
-0.11754942
-0.019551674
-0.1230339
-0.021217438
-0.12876781
-0.02296534
-0.13476248
-0.024798642
-0.14102958
-0.026722499
-0.14758036
-0.028740921
-0.15442816
-0.030858008
-0.16158587
-0.033079021
-0.169067
-0.035408029
-0.17688662
-0.037850183
-0.18505942
-0.04040994
-0.19360167
-0.043092861
-0.20252974
-0.045902421
-0.21186243
-0.048843861
-0.22161791
-0.051921652
-0.23181573
-0.055139602
-0.24247793
-0.058501699
-0.25362619
-0.062011461
-0.26528393
-0.065671458
-0.27747706
-0.069484012
-0.29023169
-0.073451148
-0.30357619
-0.077573323
-0.31754063
-0.081850673
-0.33215681
-0.086282668
-0.34745825
-0.09086668
-0.36348112
-0.095599906
-0.38026251
-0.10047794
-0.39784287
-0.10549474
-0.41626476
-0.11064363
-0.43557187
-0.11591467
-0.45581311
-0.12129855
-0.47703703
-0.12678201
-0.49929763
-0.13235078
-0.52265074
-0.13798841
-0.54715592
-0.14367533
-0.57287602
-0.14939013
-0.5998781
-0.15510858
-0.62823235
-0.16080208
-0.65801514
-0.16644058
-0.68930532
-0.17198877
-0.72218862
-0.17740784
-0.75675644
-0.18265456
-0.79310495
-0.18768037
-0.83133979
-0.1924314
-0.87157275
-0.19684775
-0.91392601
-0.20086355
-0.95853112
-0.20440569
-1.0055332
-0.20739422
-1.0550915
-0.20974314
-1.1073836
-0.21135018
-1.1626234
-0.2121126
-1.2210414
-0.21190422
-1.2829255
-0.2105922
-1.3485465
-0.20802112
-1.4181519
-0.20401657
-1.4918358
-0.19841501
-1.5694941
-0.19104881
-1.6508825
-0.18181138
-1.7355738
-0.17045638
-1.8230863
-0.15666627
-1.9139174
-0.14045981
-2.0093853
-0.12001264
-2.1104385
-2.2253785
-0.00048113859
-0.048535138
-0.0011934472
-0.06083954
-0.001867051
-0.059571172
-0.0026697654
-0.064756044
-0.0034366384
-0.066505672
-0.0043059054
-0.070383585
-0.0051615818
-0.073312267
-0.0061014738
-0.076953613
-0.0070543374
-0.080492991
-0.0080752996
-0.084298933
-0.0091338652
-0.088253144
-0.010252149
-0.092388245
-0.011424508
-0.096718667
-0.012657005
-0.10124346
-0.013952037
-0.10597686
-0.015312753
-0.11092579
-0.01674297
-0.1161002
-0.018246545
-0.12151007
-0.019827268
-0.12716551
-0.02148927
-0.13307748
-0.023237367
-0.13925696
-0.025075021
-0.14571656
-0.027007846
-0.15246745
-0.02904054
-0.15952345
-0.031177733
-0.16689811
-0.033424812
-0.17460574
-0.035787089
-0.18266112
-0.038269614
-0.19108076
-0.04087742
-0.19988104
-0.043615817
-0.20908048
-0.046489787
-0.21869759
-0.049503912
-0.22875229
-0.052662658
-0.23926676
-0.055970486
-0.25026266
-0.059430666
-0.26176463
-0.063046392
-0.27379864
-0.066820273
-0.28639139
-0.070754316
-0.29957187
-0.074849371
-0.31337132
-0.079105904
-0.32782194
-0.083522928
-0.34295871
-0.088099277
-0.35881801
-0.092831639
-0.37543909
-0.097716243
-0.3928629
-0.10274846
-0.41113291
-0.10792109
-0.43029542
-0.11322657
-0.45039975
-0.11865535
-0.47149651
-0.12419614
-0.4936415
-0.1298367
-0.51689159
-0.13556171
-0.54130953
-0.14135469
-0.56695939
-0.14719642
-0.59391113
-0.15306518
-0.62223755
-0.15893706
-0.65201736
-0.1647845
-0.68333314
-0.17057634
-0.71627428
-0.17627903
-0.75093455
-0.18185357
-0.78741546
-0.18725748
-0.82582598
-0.19244255
-0.86628345
-0.19735605
-0.90891444
-0.2019394
-0.95385637
-0.20612874
-1.0012598
-0.20985379
-1.0512909
-0.21303595
-1.1041367
-0.21559306
-1.1600158
-0.21742316
-1.2191798
-0.21842913
-1.2819124
-0.21848011
-1.3485164
-0.21744933
-1.4192302
-0.21518794
-1.494162
-0.21154625
-1.5731994
-0.20639019
-1.6560745
-0.19961433
-1.742326
-0.19103389
-1.8315603
-0.18043787
-1.9244041
-0.16756096
-2.0223383
-0.15112648
-2.1268491
-2.2448806
-0.0004314993
-0.048098711
-0.0011030325
-0.060160744
-0.001712991
-0.05895401
-0.0024571252
-0.064003652
-0.0031451209
-0.06580914
-0.0039609609
-0.069558463
-0.0047459224
-0.072517446
-0.0056240703
-0.076065006
-0.0065128246
-0.07959309
-0.0074733715
-0.083326498
-0.0084714357
-0.087242429
-0.009526303
-0.091319899
-0.010634744
-0.095595869
-0.011801598
-0.10006131
-0.013029842
-0.10473231
-0.01432348
-0.10961477
-0.015686132
-0.11471901
-0.017121779
-0.12005465
-0.018635013
-0.12563118
-0.020229915
-0.13146006
-0.021911664
-0.13755118
-0.023685153
-0.14391742
-0.025555604
-0.15056962
-0.027528203
-0.15752162
-0.02960864
-0.16478647
-0.031802801
-0.17237827
-0.034115501
-0.18031285
-0.036553114
-0.18860518
-0.039121012
-0.19727263
-0.041824642
-0.20633364
-0.044669656
-0.21580649
-0.047660697
-0.22571213
-0.050803216
-0.23607191
-0.054100575
-0.24690959
-0.057557334
-0.25824859
-0.061176887
-0.27011606
-0.064961494
-0.28253984
-0.068913197
-0.29554913
-0.073033588
-0.30917564
-0.077322772
-0.32345306
-0.081780647
-0.3384166
-0.086405191
-0.35410456
-0.091194602
-0.37055602
-0.096145505
-0.38781351
-0.10125265
-0.40592241
-0.10651068
-0.4249292
-0.11191347
-0.44488401
-0.11745171
-0.4658407
-0.12311684
-0.48785439
-0.12889676
-0.51098558
-0.13477996
-0.53529652
-0.14075145
-0.56085488
-0.14679501
-0.58773199
-0.1528922
-0.61600297
-0.15902217
-0.64574911
-0.1651614
-0.6770557
-0.1712842
-0.71001439
-0.17736027
-0.74472348
-0.1833567
-0.78128704
-0.18923592
-0.81981859
-0.19495731
-0.86043844
-0.20047486
-0.90327858
-0.2057384
-0.94848074
-0.21069251
-0.99620112
-0.21527632
-1.046612
-0.21942255
-1.0999078
-0.22305693
-1.1563156
-0.22609942
-1.2160945
-0.22845324
-1.2795455
-0.23002311
-1.3469688
-0.23069028
-1.4186212
-0.23033156
-1.4946072
-0.22882011
-1.5748086
-0.22604104
-1.6589383
-0.22189787
-1.7465118
-0.21626459
-1.837181
-0.20898503
-1.9317083
-0.19970345
-2.0318414
-0.18748303
-2.1392492
-2.2600717
-0.00038689871
-0.047706859
-0.0010255693
-0.059515031
-0.001579961
-0.058392606
-0.0022749496
-0.06330069
-0.0029057062
-0.065170106
-0.0036662001
-0.068789028
-0.0043954382
-0.071778773
-0.0052346146
-0.075215725
-0.0060758919
-0.078741025
-0.0069845129
-0.082406372
-0.0079315123
-0.086283176
-0.0089326017
-0.090305745
-0.0099874605
-0.09452708
-0.011100176
-0.098933735
-0.012274794
-0.10354184
-0.013514832
-0.10835781
-0.014825171
-0.11339061
-0.016209944
-0.11865059
-0.017673995
-0.12414653
-0.019222765
-0.12988928
-0.020860915
-0.13588951
-0.022594703
-0.14215849
-0.024429399
-0.14870804
-0.026370756
-0.15555152
-0.028425179
-0.16270131
-0.030598364
-0.17017221
-0.032897244
-0.17797882
-0.035327432
-0.18613742
-0.037894703
-0.19466519
-0.040605702
-0.20357971
-0.043465477
-0.21290084
-0.046479649
-0.22264896
-0.049652928
-0.23284632
-0.052990454
-0.24351623
-0.056495316
-0.25468419
-0.060171201
-0.26637672
-0.064021239
-0.27862223
-0.068047118
-0.29145136
-0.072249956
-0.30489639
-0.076630367
-0.31899153
-0.081188242
-0.33377272
-0.085922227
-0.34927952
-0.090830606
-0.36555139
-0.095910008
-0.38263255
-0.10115723
-0.40056825
-0.10656734
-0.41940673
-0.11213442
-0.43919918
-0.11785237
-0.45999968
-0.12371254
-0.48186601
-0.12970665
-0.50485834
-0.13582373
-0.52904176
-0.14205229
-0.55448454
-0.1483794
-0.5812596
-0.15478952
-0.60944481
-0.16126591
-0.63912273
-0.16778894
-0.67038168
-0.17433727
-0.70331501
-0.18088616
-0.73802439
-0.18740778
-0.77461697
-0.19387159
-0.81320896
-0.20024264
-0.85392513
-0.20648324
-0.89690038
-0.2125511
-0.94228138
-0.21840021
-0.99022859
-0.22397963
-1.0409201
-0.22923219
-1.0945577
-0.23409529
-1.1513753
-0.2385007
-1.2116396
-0.24237011
-1.2756626
-0.24562084
-1.343748
-0.24816426
-1.4161536
-0.24989371
-1.4929932
-0.25070156
-1.5741403
-0.25049946
-1.6592827
-0.24918881
-1.7479435
-0.24667781
-1.8397916
-0.2429077
-1.9356612
-0.2374665
-2.0376782
-0.22975736
-2.1474543
-2.2707114
-0.00034242423
-0.047359509
-0.00095445103
-0.058896198
-0.0014598424
-0.057880426
-0.0021099515
-0.062642908
-0.002699226
-0.064572876
-0.0034386703
-0.068041002
-0.0041366897
-0.071071686
-0.0049359414
-0.074406687
-0.005736261
-0.077930292
-0.0065982826
-0.081533232
-0.007502266
-0.085367336
-0.0084595459
-0.089335811
-0.0094725535
-0.093500565
-0.010544781
-0.097847083
-0.011680678
-0.10239053
-0.012884864
-0.10713716
-0.01416135
-0.11209652
-0.015516157
-0.11727696
-0.016954167
-0.12268838
-0.0184811
-0.1283408
-0.020102837
-0.13424471
-0.021825422
-0.14041122
-0.023655197
-0.14685183
-0.02559943
-0.15357897
-0.027663627
-0.16060679
-0.029855291
-0.16794807
-0.032180582
-0.17561874
-0.034646342
-0.18363439
-0.037259086
-0.19201253
-0.040024874
-0.20077118
-0.042949432
-0.20993053
-0.046038487
-0.21951093
-0.049297145
-0.22953526
-0.052729438
-0.24002791
-0.056339572
-0.25101417
-0.060131014
-0.26252131
-0.064105902
-0.27457906
-0.068266445
-0.287218
-0.072613912
-0.30047134
-0.077148786
-0.31437409
-0.081870794
-0.32896294
-0.086779768
-0.34427737
-0.091873426
-0.36035897
-0.097149932
-0.37725154
-0.10260645
-0.39500139
-0.1082392
-0.41365769
-0.11404406
-0.43327207
-0.12001603
-0.45389953
-0.12614914
-0.47559889
-0.13243664
-0.4984312
-0.1388711
-0.52246233
-0.14544318
-0.54776255
-0.15214314
-0.57440535
-0.15895937
-0.60247058
-0.16587907
-0.63204207
-0.17288753
-0.66321012
-0.1799674
-0.69607078
-0.1870996
-0.73072742
-0.19426251
-0.76728979
-0.20143155
-0.80587711
-0.20857947
-0.84661702
-0.21567609
-0.88964769
-0.22268773
-0.93511981
-0.22957783
-0.98319747
-0.23630469
-1.0340649
-0.24282302
-1.0879289
-0.24908141
-1.1450313
-0.25502281
-1.2056458
-0.260589
-1.2700872
-0.26571972
-1.3386601
-0.27033625
-1.4116362
-0.2743662
-1.4891138
-0.27771871
-1.5709764
-0.28031842
-1.6568913
-0.28207267
-1.7464025
-0.2829034
-1.8391946
-0.28286171
-1.9360701
-0.28153849
-2.0396094
-0.27869143
-2.1512771
-2.2765215
-0.00029962927
-0.047055024
-0.00089234715
-0.058296919
-0.0013585448
-0.05740768
-0.0019907295
-0.062003361
-0.0025571544
-0.063998813
-0.0032778499
-0.06731197
-0.0039444115
-0.070396309
-0.0047025176
-0.073639127
-0.0054712974
-0.077151449
-0.0063006366
-0.08069314
-0.0071765804
-0.084479911
-0.0081060711
-0.088394051
-0.0090939753
-0.092499548
-0.010143861
-0.096783177
-0.011260852
-0.10125854
-0.01244983
-0.10593213
-0.013716497
-0.11081267
-0.015066298
-0.11590876
-0.016505265
-0.1212297
-0.018040187
-0.12678475
-0.019677119
-0.13258513
-0.021423592
-0.13864046
-0.023285985
-0.14496339
-0.025271685
-0.15156533
-0.027388257
-0.15846023
-0.029642471
-0.16566168
-0.03204183
-0.17318486
-0.034593167
-0.18104601
-0.037302879
-0.18926307
-0.040177718
-0.1978537
-0.043223685
-0.20683882
-0.046445768
-0.2162398
-0.049848777
-0.22607968
-0.05343743
-0.23638292
-0.057215318
-0.24717594
-0.061185117
-0.25848694
-0.065349615
-0.2703455
-0.069710577
-0.28278324
-0.074268929
-0.2958342
-0.079025608
-0.30953338
-0.083980438
-0.3239186
-0.089132876
-0.33902972
-0.094482362
-0.35490834
-0.10002788
-0.37159878
-0.10576732
-0.38914843
-0.1116987
-0.40760641
-0.11781928
-0.42702511
-0.12412609
-0.44745985
-0.1306157
-0.46896998
-0.13728355
-0.49161776
-0.14412513
-0.51546909
-0.15113486
-0.54059547
-0.15830602
-0.56707161
-0.16563149
-0.59497788
-0.17310227
-0.62440009
-0.18070842
-0.65542952
-0.18843758
-0.68816469
-0.19627693
-0.72270949
-0.20421038
-0.759177
-0.21222016
-0.79768832
-0.22028677
-0.83837311
-0.22838798
-0.88137279
-0.23649919
-0.92684112
-0.24459231
-0.97494671
-0.25263726
-1.0258771
-0.26059875
-1.0798458
-0.26843935
-1.1370987
-0.27611518
-1.1979179
-0.28358528
-1.2626161
-0.29080254
-1.3315033
-0.29772446
-1.404842
-0.30429399
-1.4827363
-0.31045004
-1.5650642
-0.31612307
-1.6515008
-0.32121974
-1.741625
-0.32565524
-1.8351507
-0.32957698
-1.9327343
-0.33273697
-2.0373265
-0.33509948
-2.1504588
-2.2770883
-0.00025802601
-0.046792226
-0.0008374106
-0.057711207
-0.0012688753
-0.0569699
-0.0019330196
-0.061332146
-0.0024787587
-0.063445698
-0.0031653603
-0.06661734
-0.003802905
-0.069750236
-0.0045367453
-0.072896152
-0.0052910241
-0.076387427
-0.0061021888
-0.079871552
-0.0069660646
-0.083604892
-0.0078856606
-0.087462534
-0.0088679372
-0.091504514
-0.0099168501
-0.095720603
-0.01103814
-0.10012262
-0.012237561
-0.10471703
-0.013521349
-0.10951207
-0.014896183
-0.11451589
-0.01636885
-0.11973768
-0.017946056
-0.12518677
-0.019636395
-0.13087249
-0.021446303
-0.13680659
-0.023384603
-0.14299935
-0.025458536
-0.14946374
-0.027675874
-0.15621316
-0.030044644
-0.16326096
-0.032572165
-0.17062299
-0.035265325
-0.17831593
-0.038131417
-0.18635729
-0.041176313
-0.19476615
-0.044405488
-0.20356382
-0.047824466
-0.21277159
-0.051437546
-0.22241374
-0.055248786
-0.23251495
-0.059261326
-0.24310255
-0.06347783
-0.2542052
-0.06790037
-0.26585308
-0.072530468
-0.27807835
-0.07736966
-0.29091503
-0.082418386
-0.30439923
-0.087677266
-0.31856857
-0.09314672
-0.33346314
-0.098826795
-0.34912494
-0.10471699
-0.36559882
-0.11081751
-0.38293151
-0.11712813
-0.40117259
-0.12364796
-0.42037518
-0.13037644
-0.44059428
-0.13731265
-0.46188969
-0.14445554
-0.48432388
-0.151803
-0.50796393
-0.15935374
-0.53288059
-0.16710467
-0.55915051
-0.17505252
-0.58685431
-0.18319335
-0.61607857
-0.1915218
-0.64691605
-0.20003177
-0.67946603
-0.20871529
-0.71383441
-0.21756354
-0.75013526
-0.22656601
-0.7884916
-0.23571001
-0.82903574
-0.24498212
-0.8719104
-0.25436651
-0.91727273
-0.26384561
-0.9652943
-0.27339868
-1.0161675
-0.28300283
-1.0701099
-0.29263261
-1.1273722
-0.30226282
-1.1882381
-0.31186606
-1.2530234
-0.32142012
-1.3220316
-0.33090449
-1.3955192
-0.34028317
-1.4735974
-0.34952329
-1.5561312
-0.35857447
-1.6428191
-0.36733737
-1.7333
-0.37572061
-1.8273351
-0.38393993
-1.9253545
-0.39193695
-2.0305233
-0.39984171
-2.1446461
-2.2719893
-0.00022493876
-0.046562596
-0.00080645828
-0.057123565
-0.0012151174
-0.056555122
-0.0018812855
-0.060659123
-0.0024016578
-0.062918169
-0.0030817983
-0.065929419
-0.0037157557
-0.069108033
-0.0044428045
-0.072160249
-0.0051991081
-0.075621668
-0.0060103272
-0.079050208
-0.006881197
-0.082723186
-0.0078121536
-0.086519969
-0.0088115665
-0.09049266
-0.0098842896
-0.09463454
-0.011036997
-0.098955602
-0.0122764
-0.10346227
-0.013609665
-0.10816231
-0.015044105
-0.11306373
-0.016588117
-0.11817462
-0.018249581
-0.12350483
-0.020036712
-0.12906332
-0.021958353
-0.13486124
-0.024022569
-0.14090962
-0.026237979
-0.14722086
-0.028613195
-0.15380837
-0.03115551
-0.1606868
-0.033872644
-0.16787157
-0.036771758
-0.1753799
-0.039859473
-0.18322984
-0.04314089
-0.19144196
-0.046622281
-0.20003641
-0.050307353
-0.20903702
-0.054200717
-0.21846715
-0.058304983
-0.22835348
-0.062622787
-0.23872331
-0.067156857
-0.24960519
-0.071908894
-0.26103033
-0.076880183
-0.27303128
-0.082072172
-0.28564192
-0.087486334
-0.29889831
-0.093123793
-0.31283844
-0.098985884
-0.32750219
-0.10507373
-0.34293176
-0.11138928
-0.35917123
-0.11793412
-0.37626769
-0.12470975
-0.39427084
-0.13171878
-0.41323269
-0.13896257
-0.4332096
-0.14644383
-0.45426007
-0.15416447
-0.47644743
-0.16212677
-0.49983847
-0.17033196
-0.52450513
-0.17878207
-0.55052334
-0.18747845
-0.57797446
-0.19642154
-0.60694607
-0.20561154
-0.63753125
-0.21504817
-0.66982985
-0.22472977
-0.70394927
-0.23465403
-0.74000441
-0.24481748
-0.77811984
-0.25521672
-0.81842825
-0.26584568
-0.86107583
-0.27669813
-0.90622098
-0.28776629
-0.95403835
-0.29904078
-1.0047239
-0.31051114
-1.0584987
-0.32216687
-1.1156161
-0.33399666
-1.1763627
-0.34599693
-1.2410474
-0.35816401
-1.3099724
-0.37049411
-1.3833893
-0.382991
-1.4613941
-0.39563113
-1.5438717
-0.40838404
-1.6305285
-0.42116341
-1.7210837
-0.43391683
-1.8153303
-0.44681369
-1.9135619
-0.46000834
-2.0188942
-0.47381606
-2.1334228
-2.2608268
-0.00020401266
-0.046353984
-0.00080515006
-0.056516495
-0.0012104071
-0.056143938
-0.0018634114
-0.059999467
-0.0023766294
-0.062397997
-0.0030611059
-0.065237415
-0.0037086304
-0.06845251
-0.0044417095
-0.07141858
-0.0052181804
-0.07483601
-0.0060491299
-0.078209409
-0.0069477593
-0.081813997
-0.0079135633
-0.085542835
-0.0089560179
-0.089438044
-0.010081185
-0.09349631
-0.011296757
-0.097725991
-0.012610584
-0.10213334
-0.014031061
-0.10672559
-0.015566958
-0.11151035
-0.017226838
-0.11649592
-0.019020554
-0.12169083
-0.020956816
-0.12710521
-0.023045172
-0.13274934
-0.02529432
-0.13863508
-0.027713218
-0.14477459
-0.030310231
-0.15118184
-0.033093259
-0.15787194
-0.036069142
-0.16486137
-0.039244831
-0.17216721
-0.0426256
-0.17980919
-0.04621725
-0.18780733
-0.050023398
-0.19618396
-0.054047989
-0.20496257
-0.058294127
-0.21416735
-0.062764177
-0.22382571
-0.067460377
-0.23396506
-0.072384709
-0.24461421
-0.077538586
-0.25580492
-0.082924147
-0.267569
-0.088542974
-0.2799409
-0.094397375
-0.29295593
-0.10048976
-0.30665201
-0.10682293
-0.32106859
-0.11340039
-0.33624721
-0.12022562
-0.35223195
-0.12730259
-0.36906946
-0.13463622
-0.38680848
-0.14223117
-0.40550135
-0.15009279
-0.42520375
-0.15822638
-0.44597431
-0.16663787
-0.46787581
-0.1753331
-0.49097522
-0.18431869
-0.51534377
-0.1936004
-0.54105834
-0.20318446
-0.56819988
-0.21307644
-0.59685674
-0.2232828
-0.62712118
-0.23380836
-0.65909479
-0.24465844
-0.69288467
-0.25583798
-0.72860636
-0.2673516
-0.76638511
-0.27920305
-0.8063551
-0.29139614
-0.84866335
-0.30393395
-0.8934702
-0.31681906
-0.94095261
-0.33005402
-0.99130881
-0.34364145
-1.0447628
-0.35758556
-1.101569
-0.37189405
-1.1620134
-0.38658391
-1.2263967
-0.40166899
-1.2950224
-0.41717723
-1.3681224
-0.43311893
-1.4458015
-0.44949751
-1.5279476
-0.46630124
-1.6142836
-0.48348554
-1.7045881
-0.50104836
-1.7986921
-0.51910141
-1.896874
-0.53790316
-2.0020311
-0.55802512
-2.1163777
-2.2431649
-0.00018332007
-0.046166173
-0.00081084885
-0.055883235
-0.0012194213
-0.055729641
-0.0018891591
-0.059323315
-0.0024148768
-0.061865557
-0.0031119913
-0.064533012
-0.0037879477
-0.067768794
-0.0045429175
-0.070655264
-0.0053577007
-0.074012281
-0.0062308638
-0.077326639
-0.007181448
-0.080853095
-0.0082095883
-0.084503604
-0.0093255128
-0.088310192
-0.010536887
-0.0922721
-0.011852704
-0.096396354
-0.013282217
-0.10068894
-0.014835098
-0.10515666
-0.016521356
-0.10980678
-0.018351157
-0.11464745
-0.020334316
-0.11968753
-0.022481111
-0.12493667
-0.024800998
-0.13040597
-0.027303023
-0.1361077
-0.029996199
-0.14205403
-0.032888137
-0.14826034
-0.035985943
-0.15474222
-0.039296633
-0.16151622
-0.042824884
-0.16860177
-0.046575726
-0.17601822
-0.050552885
-0.18378689
-0.054759582
-0.1919306
-0.059198654
-0.20047323
-0.063871268
-0.2094406
-0.068780432
-0.21885828
-0.073927349
-0.22875549
-0.079313714
-0.2391605
-0.084942122
-0.25010419
-0.09081452
-0.26161902
-0.096934698
-0.27373755
-0.10330598
-0.28649559
-0.10993249
-0.29993023
-0.11681913
-0.31408014
-0.12397188
-0.32898581
-0.13139682
-0.34469121
-0.13910101
-0.361242
-0.14709229
-0.37868619
-0.15537875
-0.39707589
-0.16396914
-0.41646617
-0.17287311
-0.43691482
-0.18210018
-0.45848479
-0.19166094
-0.4812421
-0.20156532
-0.50525868
-0.21182514
-0.53060958
-0.22245107
-0.55737704
-0.23345515
-0.58564807
-0.24484844
-0.61551603
-0.25664346
-0.64708123
-0.26885197
-0.6804517
-0.2814861
-0.71574295
-0.29455903
-0.75307963
-0.30808277
-0.79259776
-0.32207056
-0.83444412
-0.33653585
-0.87878024
-0.35149234
-0.92578473
-0.36695442
-0.97565775
-0.38293924
-1.0286236
-0.39946772
-1.0849365
-0.41656758
-1.1448785
-0.43427082
-1.2087476
-0.45262131
-1.2768338
-0.47166222
-1.3493633
-0.49142832
-1.4264394
-0.5119329
-1.5079691
-0.53317362
-1.5936995
-0.55515911
-1.6834211
-0.57793069
-1.7770136
-0.6016449
-1.8747484
-0.62656717
-1.9793678
-0.653484
-2.0929204
-2.2184539
-0.00016865888
-0.045993128
-0.00083759662
-0.055208753
-0.001258019
-0.055303676
-0.0019558526
-0.058619268
-0.0025104238
-0.061304475
-0.0032357063
-0.06380065
-0.0039613025
-0.067035644
-0.004759913
-0.069848518
-0.0056362538
-0.073127205
-0.006578761
-0.076374733
-0.0076105056
-0.079811236
-0.0087337198
-0.083369496
-0.0099597138
-0.087072458
-0.011298193
-0.090920959
-0.012759653
-0.094921234
-0.01435506
-0.099078787
-0.016095434
-0.10340036
-0.017991871
-0.10789314
-0.020055345
-0.11256538
-0.02229649
-0.11742628
-0.024725236
-0.12248619
-0.027351315
-0.12775639
-0.030183708
-0.1332499
-0.033229733
-0.13898053
-0.036496701
-0.14496368
-0.039990365
-0.15121645
-0.043715394
-0.15775651
-0.047675924
-0.16460378
-0.051874908
-0.1717788
-0.056314519
-0.17930366
-0.060996344
-0.18720173
-0.065922295
-0.19549657
-0.071093638
-0.20421464
-0.07651192
-0.21338121
-0.082179383
-0.22302478
-0.088098417
-0.23317348
-0.094272159
-0.24385743
-0.1007053
-0.25510751
-0.10740177
-0.26695704
-0.11436808
-0.27943925
-0.12161051
-0.29259146
-0.12913763
-0.30645001
-0.13695705
-0.32105637
-0.14507861
-0.33645231
-0.15351316
-0.35268242
-0.16227113
-0.3697952
-0.17136481
-0.38784093
-0.18080713
-0.40687404
-0.19061116
-0.42695228
-0.20079145
-0.44813716
-0.21136236
-0.47049494
-0.22234012
-0.49409574
-0.23374005
-0.51901564
-0.24557903
-0.54533533
-0.25787485
-0.57314108
-0.27064528
-0.60252635
-0.28390874
-0.63359103
-0.29768536
-0.66644165
-0.31199509
-0.70119431
-0.3268585
-0.73797355
-0.3422978
-0.77691457
-0.35833619
-0.81816417
-0.37499765
-0.86188464
-0.39230736
-0.90825547
-0.41029434
-0.95747563
-0.42899016
-1.0097703
-0.44843241
-1.0653914
-0.46866713
-1.1246157
-0.48974915
-1.1877344
-0.51174604
-1.2550237
-0.53472186
-1.3267073
-0.5587265
-1.4028929
-0.58378899
-1.4835065
-0.60993268
-1.568315
-0.63718586
-1.6571214
-0.66563434
-1.7498211
-0.69552448
-1.8466443
-0.72711886
-1.9502444
-0.76123889
-2.0625714
-2.1861045
-0.00015998723
-0.045828862
-0.00088895336
-0.054474425
-0.0013259164
-0.054861334
-0.0020672192
-0.057871942
-0.0026719586
-0.060693402
-0.0034427081
-0.063023013
-0.00424055
-0.066230432
-0.0051071057
-0.068974012
-0.0060703488
-0.072155403
-0.0071132217
-0.075322632
-0.0082609794
-0.078653524
-0.0095193125
-0.082100416
-0.010901004
-0.085679159
-0.012417751
-0.089391666
-0.0140818
-0.093243622
-0.015905337
-0.097240577
-0.017900505
-0.10138932
-0.020078998
-0.10569746
-0.022452129
-0.11017364
-0.02503042
-0.11482784
-0.02782369
-0.11967111
-0.030840376
-0.12471609
-0.034087867
-0.12997685
-0.037572726
-0.13546802
-0.041299452
-0.14120703
-0.045272194
-0.14721137
-0.049492985
-0.15350076
-0.05396383
-0.16009517
-0.058685999
-0.16701586
-0.063660053
-0.17428561
-0.068887092
-0.18192725
-0.074367795
-0.18996473
-0.080104108
-0.19842325
-0.08609798
-0.20732805
-0.092352958
-0.21670602
-0.098872628
-0.22658525
-0.1056628
-0.23699361
-0.11272917
-0.24796208
-0.12008015
-0.25952128
-0.12772354
-0.27170499
-0.13567027
-0.28454745
-0.14393005
-0.29808615
-0.15251562
-0.3123596
-0.16144024
-0.32740897
-0.17071748
-0.3432786
-0.18036251
-0.36001538
-0.19039136
-0.37766875
-0.20082089
-0.39629238
-0.21166918
-0.41594283