/*--------------------------------*- C++ -*----------------------------------*\
  =========                 |
  \\      /  F ield         | OpenFOAM: The Open Source CFD Toolbox
   \\    /   O peration     | Website:  https://openfoam.org
    \\  /    A nd           | Version:  12
     \\/     M anipulation  |
\*---------------------------------------------------------------------------*/
FoamFile
{
    format      ascii;
    class       volVectorField;
    location    "0.038";
    object      U;
}
// * * * * * * * * * * * * * * * * * * * * * * * * * * * * * * * * * * * * * //

dimensions      [0 1 -1 0 0 0 0];

internalField   nonuniform List<vector> 
16000
(
(215.25029 -3.1248091e-17 -8.3042612)
(251.55897 0 5.332269)
(237.91445 0 -7.4623855)
(245.4262 4.9490392e-17 3.743049)
(240.85275 -4.8840815e-17 -5.817112)
(242.99034 0 1.7337765)
(241.24756 0 -4.1794135)
(241.71973 8.3601946e-17 -0.0058502892)
(240.91041 -7.942288e-17 -3.0139177)
(240.7742 0 -1.1915359)
(240.26769 7.1762599e-17 -2.4204036)
(239.9189 -2.0444892e-16 -1.8587063)
(239.47725 1.2940088e-16 -2.2652997)
(239.04904 -1.2308795e-16 -2.1949762)
(238.59302 1.1678465e-16 -2.3368473)
(238.12287 -3.4641913e-18 -2.3930705)
(237.63395 -3.2907979e-18 -2.4787999)
(237.12714 -9.7106031e-17 -2.5534654)
(236.60184 1.9024984e-16 -2.629116)
(236.05791 -9.0265591e-17 -2.7018393)
(235.49513 1.7169632e-16 -2.7719871)
(234.9134 -1.6275334e-16 -2.8388368)
(234.31264 0 -2.9018635)
(233.6929 1.514975e-16 -2.9604591)
(233.05428 -4.1000964e-18 -3.014005)
(232.39699 -2.6441333e-16 -3.0618518)
(231.72133 1.2532381e-16 -3.1033412)
(231.02773 0 -3.1378027)
(230.31674 0 -3.1645668)
(229.589 2.1765723e-16 -3.1829724)
(228.84532 -2.0280262e-16 -3.1923771)
(228.08662 0 -3.1921678)
(227.31396 0 -3.1817693)
(226.52852 0 -3.1606592)
(225.73161 5.1170619e-18 -3.1283761)
(224.92466 1.5530489e-16 -3.0845319)
(224.1092 -1.421748e-16 -3.0288224)
(223.28682 -1.3925921e-16 -2.9610361)
(222.45921 1.2331205e-16 -2.8810637)
(221.62807 0 -2.7889066)
(220.79515 -1.1803986e-16 -2.6846807)
(219.96219 1.1142361e-16 -2.5686239)
(219.13091 -2.1119287e-16 -2.4410976)
(218.303 1.9926971e-16 -2.3025897)
(217.48011 -1.9464271e-16 -2.1537134)
(216.66379 3.5639655e-16 -1.9952037)
(215.85551 5.5911853e-18 -1.8279145)
(215.05665 3.0389764e-19 -1.6528131)
(214.26848 -1.5006823e-16 -1.4709744)
(213.49214 1.4196134e-16 -1.2835749)
(212.72864 -1.2540811e-16 -1.0918856)
(211.9789 0 -0.89726269)
(211.24371 7.455843e-18 -0.70113765)
(210.52379 0 -0.50499896)
(209.81979 6.6373366e-18 -0.31036624)
(209.13235 2.0674462e-16 -0.11875281)
(208.4621 -3.7793549e-16 0.068360749)
(207.80976 1.0887143e-17 0.24954379)
(207.17627 1.6799933e-16 0.42354245)
(206.56218 -1.4876128e-16 0.58912089)
(205.96868 1.4012382e-16 0.74499055)
(205.39701 -8.8191213e-18 0.88992408)
(204.84878 0 1.022579)
(204.32607 0 1.1415821)
(203.83164 -1.1121824e-16 1.2455744)
(203.36928 1.1187768e-16 1.3331726)
(202.94461 -9.9176072e-17 1.4028849)
(202.56515 1.9356399e-16 1.4530322)
(202.23944 -1.8890293e-16 1.4817896)
(201.97385 8.3722642e-17 1.487841)
(201.76683 5.2869384e-18 1.4717115)
(201.60253 0 1.4366538)
(201.45087 4.7517183e-18 1.3905174)
(201.2791 -4.5129937e-18 1.350224)
(201.03928 0 1.3370041)
(200.79914 -3.3771768e-17 1.3612181)
(200.06134 6.2511812e-17 1.3279546)
(200.3436 -3.1826716e-17 1.9781743)
(198.84123 0 0.50535788)
(200.0863 0 3.3404112)
(216.48035 0 -11.113138)
(253.11538 -3.7125254e-18 3.2915766)
(238.78311 -1.1926972e-16 -10.375882)
(246.80712 1.0999038e-16 1.6588642)
(241.87715 0 -8.667482)
(244.24948 1.0118609e-16 -0.42055585)
(242.2991 -1.8683357e-16 -6.9153386)
(242.86236 -1.0148877e-19 -2.2786362)
(241.96031 8.419609e-17 -5.5973699)
(241.82671 0 -3.5802394)
(241.27855 -1.5208374e-16 -4.8891959)
(240.90148 1.4876456e-16 -4.2925516)
(240.42784 1.4148652e-16 -4.6873982)
(239.96557 -2.6045343e-16 -4.6164031)
(239.47523 1.1973033e-16 -4.7390152)
(238.96896 1.1007208e-17 -4.7875281)
(238.44293 1.1509999e-16 -4.8578825)
(237.89772 -1.0250898e-16 -4.9188177)
(237.33292 0 -4.9784765)
(236.74839 0 -5.0341433)
(236.14403 5.6563932e-18 -5.0856815)
(235.5198 -1.7744757e-16 -5.132357)
(234.87577 3.3647451e-16 -5.173513)
(234.21209 -3.1441174e-16 -5.2084457)
(233.52904 1.421124e-16 -5.2364344)
(232.82697 0 -5.2567469)
(232.10639 1.239499e-16 -5.2686397)
(231.36792 -1.3291313e-16 -5.271377)
(230.6123 0 -5.2642343)
(229.84042 3.5123739e-18 -5.2465128)
(229.05331 -1.332347e-17 -5.2175473)
(228.25214 0 -5.1767243)
(227.43821 0 -5.123487)
(226.61296 -1.7003384e-16 -5.0573564)
(225.77795 3.376423e-16 -4.9779385)
(224.93484 -1.6214036e-16 -4.8849382)
(224.08539 -1.5856645e-16 -4.778172)
(223.23142 1.4513656e-16 -4.657575)
(222.3748 -1.117966e-16 -4.523211)
(221.51741 -2.8657105e-19 -4.3752781)
(220.66115 -2.6837482e-19 -4.2141132)
(219.80785 2.3209871e-16 -4.0401945)
(218.9593 -1.0951593e-16 -3.8541415)
(218.11724 0 -3.656712)
(217.28328 2.0183626e-16 -3.4487974)
(216.45892 1.1911589e-17 -3.2314147)
(215.64556 -5.0991632e-18 -3.0056963)
(214.84444 -1.6415253e-16 -2.7728809)
(214.05667 0 -2.5343017)
(213.28322 -1.4626184e-16 -2.2913757)
(212.5249 -8.8521029e-18 -2.0455922)
(211.78242 2.5966613e-16 -1.7984998)
(211.05635 -1.2988239e-16 -1.5516935)
(210.34717 0 -1.306796)
(209.65529 -2.0358101e-17 -1.0654335)
(208.9811 -2.1101167e-16 -0.82920777)
(208.32497 3.6098629e-16 -0.59966668)
(207.68736 -2.1512894e-16 -0.37827886)
(207.06882 0 -0.16641823)
(206.46994 -1.7077388e-16 0.034604136)
(205.89158 1.794579e-16 0.22348918)
(205.33479 2.6688391e-17 0.39895457)
(204.80103 0 0.55967119)
(204.29222 -1.4196526e-16 0.70436162)
(203.81097 7.2906775e-18 0.83182542)
(203.36096 1.1176656e-16 0.94092647)
(202.94764 -1.9750987e-17 1.0304795)
(202.57843 9.309332e-17 1.0990778)
(202.26182 -1.0518873e-16 1.1451589)
(202.00422 5.5129812e-18 1.1677201)
(201.80393 -5.2011743e-18 1.1675902)
(201.6441 0 1.1481376)
(201.49222 -4.6390288e-18 1.1175197)
(201.3132 4.3872646e-18 1.0963922)
(201.07903 8.3091107e-18 1.1101497)
(200.73485 9.8484548e-19 1.1192756)
(200.20671 0 1.2008529)
(200.13792 3.0316763e-17 1.7282483)
(198.99989 -5.769955e-17 0.4368724)
(200.00835 2.5968617e-17 3.1483482)
(217.56952 0 -13.991405)
(254.5235 -1.2213817e-16 1.0526081)
(239.67904 2.4897556e-16 -13.371962)
(247.98119 -2.224134e-16 -0.59012673)
(242.79332 1.0982211e-16 -11.591727)
(245.3028 -3.2522017e-18 -2.7621211)
(243.22703 9.8977613e-17 -9.6963511)
(243.81394 -9.3744758e-17 -4.7483372)
(242.85684 -5.5646329e-18 -8.2411681)
(242.69994 -5.2835794e-18 -6.1348357)
(242.11658 -1.0036708e-17 -7.454504)
(241.70379 1.3847003e-16 -6.8626158)
(241.19482 -1.403573e-16 -7.2276231)
(240.69427 1.3775027e-16 -7.1626367)
(240.16503 -1.1833414e-16 -7.2645442)
(239.61822 -1.5509234e-17 -7.3048278)
(239.05044 0 -7.3596761)
(238.46224 -1.2326691e-20 -7.4057633)
(237.8533 -2.2557083e-16 -7.448342)
(237.22359 -3.6476923e-19 -7.4853631)
(236.57312 1.7289362e-16 -7.5163799)
(235.90199 1.6982856e-17 -7.5405834)
(235.21041 -2.1481106e-17 -7.5572025)
(234.4987 0 -7.5654348)
(233.76731 7.4744715e-21 -7.5644683)
(233.01681 -1.6490221e-16 -7.5534888)
(232.24791 1.4732414e-16 -7.5316869)
(231.46147 8.2227576e-18 -7.4982703)
(230.6585 0 -7.4524786)
(229.84016 -7.3772105e-18 -7.3935936)
(229.00775 -6.8685707e-22 -7.3209562)
(228.16273 -1.9858948e-16 -7.2339809)
(227.3067 2.0001074e-16 -7.132169)
(226.44139 1.185126e-17 -7.0151289)
(225.56865 -1.7943414e-16 -6.8825835)
(224.69039 1.4809472e-16 -6.7343882)
(223.80865 -1.8046094e-16 -6.5705394)
(222.92546 1.5126683e-16 -6.3911841)
(222.0429 -1.4323711e-16 -6.1966234)
(221.16301 1.3500084e-16 -5.9873195)
(220.2878 1.5962954e-17 -5.7638949)
(219.41919 0 -5.5271286)
(218.55901 1.9916921e-16 -5.2779534)
(217.70896 -2.4108842e-16 -5.0174458)
(216.87058 0 -4.7468146)
(216.04529 1.7897496e-16 -4.4673883)
(215.23432 -1.5706923e-16 -4.1805974)
(214.43873 1.694955e-16 -3.8879603)
(213.6594 -1.7929483e-16 -3.5910663)
(212.89707 0 -3.2915602)
(212.15231 1.7685506e-16 -2.9911275)
(211.42555 -1.3292648e-16 -2.6914778)
(210.71709 0 -2.3943303)
(210.02715 0 -2.1013961)
(209.35586 1.2462106e-16 -1.8143568)
(208.70334 -2.0814898e-16 -1.5348456)
(208.0697 1.2220463e-16 -1.2644271)
(207.45509 1.8397168e-16 -1.0045861)
(206.85978 2.2726205e-19 -0.75672743)
(206.28417 2.0611041e-19 -0.52219013)
(205.72885 -3.2395864e-16 -0.30228223)
(205.19469 8.9405641e-17 -0.098270581)
(204.68295 0 0.088597594)
(204.19539 1.4217901e-16 0.2571848)
(203.73445 -1.630759e-16 0.40650956)
(203.30374 1.1150357e-16 0.53568616)
(202.90867 1.3195176e-17 0.64377344)
(202.55661 -8.6019714e-17 0.72956766)
(202.25595 1.1554759e-17 0.79171179)
(202.01281 2.1725317e-17 0.82950934)
(201.82473 -1.0217693e-16 0.8440985)
(201.67308 9.6049469e-17 0.83931387)
(201.52352 -7.2383508e-17 0.8253279)
(201.34075 1.3630654e-16 0.82535339)
(201.08929 -5.6203264e-17 0.85484541)
(200.70072 -6.0680323e-17 0.88365992)
(200.2494 5.017033e-17 1.0535929)
(199.99621 0 1.456495)
(199.10874 3.217081e-18 0.37802386)
(199.9757 -1.2190213e-17 2.9574274)
(218.49522 0 -16.936432)
(255.78175 0 -1.3199996)
(240.35832 0 -16.49925)
(248.96733 1.0631593e-16 -2.9401423)
(243.52109 -1.2342325e-16 -14.645332)
(246.19132 -2.1983419e-16 -5.2194239)
(243.97404 2.0906113e-16 -12.595464)
(244.58874 -1.2383056e-17 -7.3432518)
(243.56747 5.8960888e-18 -10.996143)
(243.38435 -1.7338327e-16 -8.8192397)
(242.76081 1.6973713e-16 -10.131647)
(242.307 1.0087349e-17 -9.5572501)
(241.75788 -1.5317507e-16 -9.885151)
(241.21393 1.36068e-16 -9.8274695)
(240.64091 -1.3629927e-20 -9.907289)
(240.04871 -8.1602519e-18 -9.9372845)
(239.43447 0 -9.9748985)
(238.79869 -7.3663212e-18 -10.003621)
(238.1412 -2.0968407e-16 -10.026447)
(237.46205 2.1172409e-16 -10.041779)
(236.76139 1.2567696e-17 -10.048949)
(236.03947 -1.1915286e-17 -10.047063)
(235.29668 2.1471274e-16 -10.03525)
(234.53354 -1.7103156e-16 -10.012617)
(233.7507 1.0142807e-17 -9.9782599)
(232.949 1.9232242e-16 -9.9312934)
(232.12941 -1.2722402e-16 -9.8708433)
(231.29308 0 -9.7960789)
(230.44134 1.4700937e-16 -9.7062163)
(229.57567 -1.2340012e-16 -9.6005472)
(228.69771 2.4870299e-16 -9.478446)
(227.80927 -1.3285889e-17 -9.3393979)
(226.91227 -2.0891852e-16 -9.1830089)
(226.00878 1.7328574e-16 -9.0090271)
(225.10095 -1.8668144e-16 -8.8173528)
(224.19099 -2.8294728e-20 -8.6080551)
(223.28118 2.0871346e-16 -8.3813775)
(222.37377 -3.1499999e-16 -8.1377436)
(221.47101 9.271614e-17 -7.8777599)
(220.57505 3.5103187e-17 -7.6022134)
(219.68798 -4.9641999e-17 -7.3120683)
(218.81172 0 -7.0084549)
(217.94806 -8.8346426e-17 -6.692659)
(217.09859 1.3838063e-16 -6.3661048)
(216.26472 -2.0896391e-16 -6.0303367)
(215.44766 1.963572e-16 -5.687001)
(214.64839 -2.0829656e-16 -5.3378218)
(213.86772 3.917016e-16 -4.9845814)
(213.10624 -3.0700484e-16 -4.6291011)
(212.36437 3.0789803e-16 -4.2732203)
(211.64236 -1.4453665e-16 -3.91878)
(210.94032 1.3607928e-16 -3.5676061)
(210.25824 -9.5668652e-17 -3.2214921)
(209.59603 3.0002641e-17 -2.882186)
(208.95353 0 -2.5513719)
(208.33055 0 -2.2306612)
(207.72694 0 -1.9215851)
(207.14257 2.3243034e-17 -1.6255941)
(206.57742 0 -1.3440629)
(206.03163 -1.6364739e-16 -1.078305)
(205.50557 1.915688e-16 -0.82958555)
(204.99987 -1.0786556e-16 -0.59908684)
(204.51558 -1.4873728e-19 -0.38791706)
(204.05429 2.5240138e-16 -0.19702892)
(203.61824 2.9683544e-17 -0.027179145)
(203.21097 -1.3844843e-16 0.12095808)
(202.83787 5.1952862e-17 0.24660561)
(202.50631 -1.4587843e-16 0.34868716)
(202.22467 -4.5585457e-17 0.42603367)
(201.99892 -6.4080145e-17 0.47825487)
(201.82591 -6.0101432e-17 0.50677945)
(201.68549 5.6281939e-17 0.51626777)
(201.54205 0 0.51951215)
(201.35769 0 0.53944325)
(201.08647 -1.5517391e-17 0.58293376)
(200.67904 0 0.64627069)
(200.25203 6.863813e-18 0.88222335)
(199.90967 5.1764623e-17 1.1858697)
(199.17785 -7.3066473e-17 0.31491934)
(199.96376 2.2148246e-20 2.749575)
(219.23903 0 -20.075123)
(256.86834 -8.7917716e-18 -3.7672101)
(240.9012 2.6580914e-16 -19.761874)
(249.76356 -2.4835936e-16 -5.4110537)
(244.01325 2.5339546e-16 -17.813168)
(246.87652 -2.318452e-16 -7.8281696)
(244.51922 -2.2098884e-16 -15.600165)
(245.1526 2.0920079e-16 -10.094657)
(244.0671 0 -13.854142)
(243.84992 0 -11.652252)
(243.18444 1.7927414e-16 -12.922409)
(242.68333 -1.6983612e-16 -12.382731)
(242.08988 -1.0089225e-17 -12.663664)
(241.49783 2.8696765e-17 -12.612361)
(240.87655 -9.081287e-18 -12.667778)
(240.2345 3.4442756e-17 -12.683794)
(239.56936 0 -12.701291)
(238.88158 0 -12.709071)
(238.17111 -2.3521587e-16 -12.708536)
(237.43815 2.0860458e-16 -12.698302)
(236.683 0 -12.677504)
(235.90611 0 -12.645137)
(235.10809 -1.8980311e-16 -12.600196)
(234.28972 3.5920034e-16 -12.541679)
(233.45197 -1.6989173e-16 -12.468585)
(232.59598 -2.012755e-17 -12.379943)
(231.72309 -3.8121302e-17 -12.274831)
(230.83483 -1.4444907e-16 -12.152391)
(229.93289 1.1926759e-16 -12.011853)
(229.01918 0 -11.852553)
(228.09574 -3.0547304e-17 -11.673956)
(227.16477 0 -11.47568)
(226.22859 0 -11.257504)
(225.28961 2.0624242e-16 -11.019396)
(224.35031 -2.1860985e-16 -10.761518)
(223.41319 2.2934171e-17 -10.484236)
(222.48074 -2.1640865e-17 -10.188126)
(221.55541 -4.0912134e-17 -9.8739739)
(220.63954 -8.2008655e-20 -9.542768)
(219.73536 7.7795857e-20 -9.1956909)
(218.84491 -7.3308631e-20 -8.8341102)
(217.97004 0 -8.459554)
(217.11239 -1.2149834e-16 -8.0736977)
(216.27336 1.1410095e-16 -7.6783338)
(215.45408 0 -7.275349)
(214.65548 -5.0580163e-17 -6.8667013)
(213.87821 1.9013892e-16 -6.4543879)
(213.12271 -2.2291807e-16 -6.0404259)
(212.3892 -2.0975092e-16 -5.6268271)
(211.67771 1.5727353e-16 -5.2155783)
(210.98814 1.1094252e-16 -4.8086226)
(210.32021 -1.3849386e-16 -4.4078449)
(209.67358 -3.2477813e-17 -4.0150543)
(209.04781 -2.133831e-16 -3.6319761)
(208.44244 1.1413468e-16 -3.260239)
(207.85701 -1.0707607e-16 -2.9013767)
(207.29106 1.0015662e-16 -2.5568302)
(206.74419 2.3473414e-16 -2.2279557)
(206.21614 -1.7556699e-16 -1.9160354)
(205.7068 0 -1.6222846)
(205.2163 -3.8437969e-17 -1.3478491)
(204.74506 -7.1977105e-17 -1.0937571)
(204.29392 1.3445647e-16 -0.86091634)
(203.86426 1.2584567e-16 -0.65005688)
(203.45818 -2.3517444e-16 -0.46171582)
(203.07915 8.2364274e-17 -0.29640755)
(202.73255 5.1358238e-17 -0.15483459)
(202.42579 9.6012409e-17 -0.038028073)
(202.16721 1.3462487e-16 0.053004997)
(201.96257 4.1028779e-20 0.11818652)
(201.808 0 0.15934524)
(201.68216 0 0.18238916)
(201.54822 -3.4238814e-17 0.20257793)
(201.36403 9.6079172e-17 0.24076317)
(201.07622 -8.9853081e-17 0.29930863)
(200.65559 -8.4166959e-17 0.40156719)
(200.2305 5.2565493e-17 0.68325621)
(199.84637 0 0.91007539)
(199.22817 4.6184156e-17 0.24655531)
(199.96961 -4.1867949e-20 2.5418837)
(219.78327 0 -23.38379)
(257.75766 1.8599929e-20 -6.2946832)
(241.253 9.0472369e-18 -23.126562)
(250.39281 2.8771129e-16 -8.016306)
(244.37246 3.307929e-19 -21.080031)
(247.33432 -5.0462761e-16 -10.582418)
(244.81695 -3.223368e-19 -18.697897)
(245.48159 4.551126e-16 -13.003547)
(244.32119 -2.0939301e-16 -16.808745)
(244.07386 -1.2420106e-17 -14.629134)
(243.36575 1.1795937e-17 -15.822104)
(242.81274 -1.7911243e-16 -15.329033)
(242.17145 1.9082161e-16 -15.555348)
(241.52713 -1.8130834e-16 -15.507024)
(240.85315 3.0541612e-16 -15.536191)
(240.15656 -3.0771486e-16 -15.534348)
(239.43559 1.3714512e-16 -15.528791)
(238.69072 0 -15.512041)
(237.92209 0 -15.484357)
(237.13013 1.4608746e-17 -15.44437)
(236.31537 -2.7699537e-17 -15.390999)
(235.47857 0 -15.323087)
(234.62068 1.9891169e-16 -15.239482)
(233.74284 4.6859368e-19 -15.139066)
(232.84641 -3.5599665e-16 -15.020746)
(231.93298 1.6821299e-16 -14.883497)
(231.00434 1.9903403e-17 -14.726381)
(230.06248 0 -14.548565)
(229.1096 -1.7829992e-16 -14.349353)
(228.14806 1.3445379e-16 -14.128205)
(227.18037 -2.2296477e-16 -13.884761)
(226.20919 2.098751e-16 -13.618863)
(225.23723 -2.2714691e-16 -13.330568)
(224.26728 2.1381853e-16 -13.020169)
(223.30211 7.579948e-17 -12.688194)
(222.34448 0 -12.335411)
(221.39705 0 -11.962831)
(220.46236 4.2255188e-17 -11.571691)
(219.54275 3.9801399e-17 -11.163442)
(218.6404 -3.7474779e-17 -10.739732)
(217.75721 3.5269529e-17 -10.302381)
(216.89481 6.6540831e-17 -9.8533483)
(216.05456 -6.2509211e-17 -9.3947155)
(215.23752 3.5244541e-16 -8.9286428)
(214.44447 -2.7571515e-16 -8.4573429)
(213.67589 5.17579e-17 -7.983052)
(212.93201 -4.8701694e-17 -7.5079974)
(212.21281 0 -7.0343754)
(211.51807 2.1412164e-16 -6.5643257)
(210.84738 -1.6039191e-16 -6.0999149)
(210.20021 0 -5.6431168)
(209.57589 0 -5.1958032)
(208.9737 1.3203821e-16 -4.7597292)
(208.39288 -6.1711579e-17 -4.3365299)
(207.83266 0 -3.9277175)
(207.29228 -1.6222118e-16 -3.5346882)
(206.77105 1.009859e-16 -3.158735)
(206.26832 1.4178857e-16 -2.8010598)
(205.7836 -1.7637261e-16 -2.4627852)
(205.31657 1.6490898e-16 -2.1449562)
(204.86716 -1.5381858e-16 -1.8485259)
(204.43559 5.5296401e-20 -1.5743034)
(204.02252 0 -1.3229488)
(203.62914 6.2575338e-17 -1.0949493)
(203.25745 -2.9168354e-16 -0.89064232)
(202.91086 1.6313939e-16 -0.71043808)
(202.59475 0 -0.55504049)
(202.31655 -1.4189478e-16 -0.42549027)
(202.08452 8.8113765e-17 -0.32265391)
(201.90414 1.2329036e-16 -0.24628549)
(201.77098 6.6946896e-20 -0.19396498)
(201.66293 -7.1321169e-17 -0.15817515)
(201.5419 9.9772651e-17 -0.12176936)
(201.36099 -1.5496622e-16 -0.066885266)
(201.06171 8.666454e-17 0.0085306319)
(200.63118 2.6937915e-17 0.1514708)
(200.20085 5.0337129e-17 0.46286368)
(199.79118 0 0.62640668)
(199.27379 -4.3851905e-17 0.17443387)
(199.98991 2.0500102e-17 2.3373167)
(220.11856 0 -26.862729)
(258.44808 9.787197e-18 -8.9195733)
(241.41058 -3.0509769e-16 -26.610097)
(250.84378 2.4918072e-16 -10.766371)
(244.53464 2.55922e-16 -24.446935)
(247.56233 -4.9919228e-16 -13.492893)
(244.95173 2.296062e-16 -21.879646)
(245.59176 2.3245294e-16 -16.067831)
(244.3751 -2.202894e-16 -19.841113)
(244.05169 3.9210804e-17 -17.732572)
(243.29901 0 -18.81743)
(242.68757 0 -18.381919)
(241.99261 -2.2300473e-17 -18.551143)
(241.28949 -1.6930627e-16 -18.502628)
(240.55596 1.4011466e-16 -18.505196)
(239.79778 1.9006875e-17 -18.482258)
(239.01381 -3.6029246e-17 -18.450774)
(238.20468 3.0739784e-16 -18.405655)
(237.37084 -2.258978e-16 -18.346384)
(236.51302 2.4518557e-16 -18.271506)
(235.63216 -2.0261611e-16 -18.179747)
(234.72942 2.7470897e-17 -18.069805)
(233.80618 1.560722e-16 -17.940407)
(232.86409 -1.9630371e-16 -17.790352)
(231.90504 0 -17.618506)
(230.93115 0 -17.42385)
(229.94477 0 -17.205504)
(228.94847 -1.9661855e-16 -16.962752)
(227.94499 1.8522333e-16 -16.69507)
(226.93724 -3.5096134e-17 -16.402152)
(225.92825 0 -16.083938)
(224.92112 -2.8136446e-16 -15.740622)
(223.91898 2.3517453e-16 -15.372671)
(222.92493 -5.5624669e-17 -14.980829)
(221.942 1.573174e-16 -14.566122)
(220.97309 -4.8888462e-17 -14.129838)
(220.02091 -1.8545358e-16 -13.673526)
(219.08798 2.1878704e-16 -13.198967)
(218.17651 -1.6426406e-16 -12.708146)
(217.28843 7.7484945e-17 -12.203225)
(216.42534 -7.2719403e-17 -11.686506)
(215.58851 1.3669514e-16 -11.160391)
(214.77885 -6.406342e-17 -10.627352)
(213.99694 -2.4112757e-16 -10.089886)
(213.24304 5.0849662e-16 -9.5504811)
(212.51709 -2.1180009e-16 -9.0115879)
(211.81879 -1.4927225e-16 -8.4755906)
(211.14759 9.281839e-17 -7.944781)
(210.50276 8.7316772e-17 -7.4213406)
(209.8834 -1.6337804e-16 -6.9073251)
(209.28854 1.5265883e-16 -6.4046522)
(208.7171 0 -5.9150951)
(208.168 1.3366425e-16 -5.4402759)
(207.64016 -1.8723034e-16 -4.9816678)
(207.13252 5.8354874e-17 -4.5406015)
(206.6441 5.4398089e-17 -4.1182777)
(206.17395 0 -3.7157852)
(205.72125 0 -3.3341147)
(205.28533 0 -2.9741693)
(204.86572 0 -2.6367616)
(204.46218 0 -2.322592)
(204.07479 -7.1531623e-17 -2.0322056)
(203.70406 0 -1.7659906)
(203.35106 -4.4179971e-20 -1.5241915)
(203.01772 2.3106558e-16 -1.3069776)
(202.70742 -2.1495883e-16 -1.1147022)
(202.42556 -1.0009526e-16 -0.94811242)
(202.17952 -1.861176e-16 -0.80827625)
(201.97739 2.5933768e-16 -0.69593297)
(201.82427 2.6343082e-21 -0.61050386)
(201.71527 7.467789e-17 -0.54873372)
(201.6281 0 -0.50117386)
(201.52337 0 -0.44949089)
(201.34918 0 -0.37923944)
(201.04517 -1.1148374e-16 -0.28475057)
(200.61042 0 -0.10122008)
(200.17013 -9.6466235e-17 0.22443412)
(199.74288 1.3458544e-16 0.33392004)
(199.3179 8.3362484e-17 0.10436895)
(200.03007 -1.9461288e-17 2.1424892)
(220.25358 0 -30.514456)
(258.94679 0 -11.651937)
(241.37619 3.2107498e-16 -30.223718)
(251.12052 1.9264114e-17 -13.668549)
(244.50308 -2.6871373e-16 -27.920544)
(247.64672 0 -16.568631)
(244.85226 1.6100348e-17 -25.118088)
(245.41276 -3.0522964e-17 -19.276074)
(244.15911 0 -22.947866)
(243.78053 1.9237625e-16 -20.962064)
(242.97566 -4.164907e-16 -21.915483)
(242.29522 1.9721483e-16 -21.543581)
(241.53685 2.3407546e-17 -21.655944)
(240.76513 0 -21.601884)
(239.96227 2.1003537e-17 -21.576167)
(239.13292 -3.3879887e-16 -21.52733)
(238.27659 7.4694585e-17 -21.465079)
(237.39417 2.4968352e-16 -21.385726)
(236.48653 2.3711772e-16 -21.288241)
(235.55484 -2.5576818e-16 -21.17105)
(234.60053 0 -21.032709)
(233.6253 -2.8698391e-16 -20.87181)
(232.63112 2.4367319e-16 -20.687005)
(231.62026 -2.0538553e-16 -20.477071)
(230.59525 1.9358525e-16 -20.240916)
(229.55887 -1.8345997e-16 -19.977619)
(228.51414 3.4609838e-16 -19.686474)
(227.46428 -1.6332642e-16 -19.367005)
(226.41266 1.5447032e-16 -19.019004)
(225.36276 -2.912322e-16 -18.642553)
(224.31811 1.3707784e-16 -18.238045)
(223.28225 1.2946291e-16 -17.806192)
(222.25864 -2.4427234e-16 -17.348027)
(221.25061 5.6718309e-17 -16.864898)
(220.26131 -5.7042264e-19 -16.358465)
(219.29364 2.5417577e-16 -15.830652)
(218.35018 0 -15.283646)
(217.43322 1.8940823e-19 -14.719842)
(216.54462 0 -14.141806)
(215.6859 -7.9361032e-17 -13.55223)
(214.85814 -1.4915692e-16 -12.953894)
(214.06204 7.0030156e-17 -12.349608)
(213.29788 0 -11.742177)
(212.56561 -6.1722121e-17 -11.134359)
(211.86484 2.8893167e-16 -10.52883)
(211.19487 -3.2440464e-16 -9.9281537)
(210.55478 -3.0399992e-16 -9.3347614)
(209.94344 2.8387389e-16 -8.7509301)
(209.35956 -1.7717559e-16 -8.1787706)
(208.80177 0 -7.6202212)
(208.26864 0 -7.0770419)
(207.75873 7.2334839e-17 -6.550814)
(207.27062 6.7514279e-17 -6.0429446)
(206.80296 1.2584572e-16 -5.554673)
(206.35444 -5.8682873e-17 -5.0870861)
(205.92389 -1.0933695e-16 -4.641135)
(205.51021 -2.0394371e-16 -4.2176546)
(205.11243 -9.5172115e-17 -3.817377)
(204.72978 1.766673e-16 -3.4409396)
(204.36168 0 -3.08888)
(204.00782 -7.6542328e-17 -2.7616109)
(203.66818 -1.4231805e-16 -2.4593951)
(203.3432 1.3219262e-16 -2.1823545)
(203.03388 6.1315304e-17 -1.9305149)
(202.74215 5.7037372e-17 -1.7039176)
(202.47139 0 -1.5028924)
(202.22701 1.967381e-16 -1.3282285)
(202.01629 1.825638e-16 -1.1809895)
(201.84702 -2.5408209e-16 -1.0617756)
(201.72374 7.8506164e-17 -0.96964876)
(201.6413 -7.2853707e-17 -0.90027123)
(201.57769 -1.0157911e-19 -0.84203759)
(201.49218 2.5020277e-16 -0.77611244)
(201.32845 -2.3189154e-16 -0.6909989)
(201.02915 5.3667532e-17 -0.57460836)
(200.60093 1.4943569e-16 -0.35143439)
(200.14782 -4.6197993e-17 -0.024446242)
(199.70169 -4.2845643e-17 0.035798505)
(199.36466 0 0.047483516)
(200.09975 3.6685209e-17 1.9624256)
(220.19751 3.9033901e-16 -34.350453)
(259.25498 5.4006787e-19 -14.500477)
(241.12562 -3.5796793e-16 -33.980694)
(251.21235 0 -16.726912)
(244.20981 0 -31.463042)
(247.33331 -2.6710054e-16 -19.805483)
(244.46284 2.7019992e-16 -28.423686)
(245.01299 6.4088532e-17 -22.657494)
(243.70123 -2.4324565e-16 -26.157854)
(243.23231 2.3007861e-16 -24.33544)
(242.36604 -2.4589687e-16 -25.134993)
(241.60445 2.066787e-16 -24.82303)
(240.7711 -4.9030854e-17 -24.878026)
(239.91945 -4.6494778e-17 -24.809392)
(239.03604 -1.7618537e-16 -24.750558)
(238.12468 1.6641309e-16 -24.668287)
(237.18557 -3.5537796e-16 -24.567468)
(236.22002 5.9737373e-16 -24.445121)
(235.22944 -2.8225477e-16 -24.299829)
(234.21559 -2.6781074e-16 -24.129888)
(233.18055 2.525548e-16 -23.93373)
(232.12672 -3.0074318e-17 -23.709885)
(231.05682 -2.2639873e-16 -23.457011)
(229.97389 2.132762e-16 -23.173963)
(228.88125 2.5264805e-16 -22.859805)
(227.78245 -1.4246808e-16 -22.513863)
(226.68127 0 -22.135759)
(225.58166 2.5479128e-16 -21.725438)
(224.48762 -3.200367e-16 -21.283202)
(223.40319 1.1261647e-16 -20.809717)
(222.33236 -2.8472004e-16 -20.306027)
(221.27898 2.0060687e-16 -19.773551)
(220.24672 -6.3210566e-17 -19.214064)
(219.23894 2.3756169e-16 -18.629676)
(218.2587 -2.2285092e-16 -18.022804)
(217.30865 -2.1004255e-16 -17.396119)
(216.39103 1.9688047e-16 -16.752503)
(215.50759 -4.618129e-17 -16.095003)
(214.65963 0 -15.426762)
(213.84796 8.1726994e-17 -14.750973)
(213.07293 -7.6292146e-17 -14.070825)
(212.33445 0 -13.389445)
(211.63203 1.343573e-16 -12.709864)
(210.96482 -6.2852293e-17 -12.034974)
(210.33168 -1.7626947e-16 -11.3675)
(209.73119 5.4985864e-16 -10.709981)
(209.16178 -2.0588309e-16 -10.064752)
(208.62172 9.6048237e-17 -9.4339418)
(208.10919 -2.6932589e-16 -8.8194622)
(207.62237 -1.9189429e-19 -8.2230161)
(207.15943 1.5619304e-16 -7.6461004)
(206.71862 -1.4573279e-16 -7.0900135)
(206.29825 -6.7832111e-17 -6.5558682)
(205.89675 -6.3193072e-17 -6.0446064)
(205.51268 -1.1801158e-16 -5.5570177)
(205.14471 2.1916318e-16 -5.0937596)
(204.79166 0 -4.6553748)
(204.45251 9.4744647e-17 -4.2423042)
(204.12643 -3.526016e-16 -3.8548925)
(203.81283 2.4539321e-16 -3.4933838)
(203.51137 7.596406e-17 -3.157896)
(203.22203 1.4114296e-16 -2.8484216)
(202.94524 1.3116779e-16 -2.5648489)
(202.68205 -1.2129311e-16 -2.3070296)
(202.4344 -1.1242974e-16 -2.074924)
(202.20574 -3.1291488e-16 -1.8688554)
(202.00146 -6.9569182e-20 -1.6896192)
(201.82869 -8.9440065e-17 -1.5382008)
(201.69474 0 -1.4150033)
(201.60351 -2.2992098e-16 -1.3186454)
(201.54963 7.0840205e-17 -1.2435015)
(201.51149 0 -1.1759071)
(201.44704 1.2121181e-16 -1.0969916)
(201.29848 0 -0.99623075)
(201.0146 1.0361235e-16 -0.85456069)
(200.60729 -1.4364958e-16 -0.59369629)
(200.14215 1.3284194e-16 -0.27236169)
(199.67333 -8.1905679e-17 -0.25979566)
(199.41931 7.5663549e-17 0.011736737)
(200.20041 0 1.8024756)
(219.93713 -4.1016932e-16 -38.381099)
(259.36181 3.6267254e-16 -17.484144)
(240.63627 -3.3218561e-16 -37.904099)
(251.02223 3.303757e-16 -19.95325)
(243.64276 3.1634614e-16 -35.075035)
(246.83591 -1.7985517e-17 -23.243568)
(243.85844 -2.8326046e-16 -31.830943)
(244.30604 -2.6888908e-16 -26.225017)
(242.93954 2.862014e-16 -29.477556)
(242.36684 0 -27.852054)
(241.42813 2.855708e-17 -28.483619)
(240.57265 0 -28.22052)
(239.65163 -1.2843982e-16 -28.217507)
(238.70786 2.4251566e-16 -28.122991)
(237.73184 0 -28.02326)
(236.72695 0 -27.897309)
(235.69419 0 -27.747006)
(234.63547 3.9056687e-17 -27.569676)
(233.55292 0 -27.36362)
(232.44912 -2.4427949e-16 -27.127047)
(231.32699 3.2913407e-16 -26.858332)
(230.18984 1.2453973e-16 -26.556054)
(229.04133 1.7659435e-16 -26.218998)
(227.88544 -2.7738764e-16 -25.846256)
(226.72641 -5.2274477e-17 -25.437236)
(225.56871 -2.4738617e-16 -24.991722)
(224.41691 1.8619681e-16 -24.509895)
(223.27568 -2.1992208e-16 -23.992374)
(222.14962 8.2290391e-17 -23.44021)
(221.04323 7.7801728e-17 -22.8549)
(219.96078 0 -22.238369)
(218.90625 2.76794e-16 -21.592941)
(217.88323 -2.599774e-16 -20.921313)
(216.89486 0 -20.226489)
(215.94377 -2.298596e-16 -19.511744)
(215.03204 2.1531228e-16 -18.780542)
(214.1612 -1.0146957e-16 -18.036478)
(213.33218 1.8999453e-16 -17.28321)
(212.54539 -2.6697481e-16 -16.524386)
(211.80068 1.2796345e-19 -15.763588)
(211.09742 -1.5601352e-16 -15.004273)
(210.43457 -7.3024259e-17 -14.249728)
(209.8107 -1.3706507e-16 -13.503031)
(209.22409 2.5553185e-16 -12.767032)
(208.67279 -1.1926215e-16 -12.044326)
(208.15467 0 -11.337253)
(207.6675 -3.7375561e-19 -10.647893)
(207.20901 9.7052587e-17 -9.9780745)
(206.77693 0 -9.3293827)
(206.36906 8.4439891e-17 -8.7031695)
(205.98329 7.8963789e-17 -8.100572)
(205.61761 -7.3312291e-17 -7.5225272)
(205.27019 2.7301129e-16 -6.9697904)
(204.93934 -2.5382278e-16 -6.4429571)
(204.62352 -1.1806469e-16 -5.9424821)
(204.32139 -1.0969495e-16 -5.4687006)
(204.03173 1.0186864e-16 -5.0218421)
(203.75356 1.8900667e-16 -4.6020424)
(203.48608 -3.5062009e-16 -4.2093479)
(203.22874 4.0639748e-16 -3.8437147)
(202.98125 -1.5060626e-16 -3.5049853)
(202.74366 1.3959729e-16 -3.192918)
(202.51649 -1.2925844e-16 -2.9072202)
(202.30088 2.3941995e-16 -2.6476266)
(202.0989 -3.3237694e-16 -2.414063)
(201.91408 2.048749e-16 -2.2068511)
(201.75177 -6.2339882e-20 -2.0267369)
(201.61888 8.757954e-17 -1.8745343)
(201.52214 0 -1.7503346)
(201.46469 0 -1.6521404)
(201.44089 0 -1.5729798)
(201.42933 -1.2726083e-16 -1.4976195)
(201.38729 -2.7913962e-20 -1.4070317)
(201.25855 0 -1.2896883)
(200.99961 0 -1.120183)
(200.62613 9.2088319e-17 -0.82464447)
(200.15371 -1.6985273e-16 -0.50692412)
(199.66665 0 -0.51427466)
(199.49476 0 -0.025117532)
(200.31742 -1.3233241e-16 1.6627883)
(219.43477 2.7687579e-17 -42.611006)
(259.22232 -7.8539189e-16 -20.612868)
(239.87475 3.4762253e-16 -41.96782)
(250.29393 -2.1723999e-17 -23.371422)
(242.77115 3.7297989e-16 -38.810994)
(245.99554 -3.5173635e-16 -26.903572)
(242.93001 0 -35.343127)
(243.26005 -3.1682278e-16 -29.984257)
(241.83393 2.3291101e-16 -32.917516)
(241.13834 2.2121314e-16 -31.50894)
(240.11423 -2.3878498e-16 -31.965595)
(239.15111 0 -31.732587)
(238.12837 1.8900329e-19 -31.668613)
(237.07918 0 -31.534297)
(235.99764 3.8461564e-16 -31.382214)
(234.88712 -7.2658055e-16 -31.198954)
(233.74959 3.4302709e-16 -30.984533)
(232.58782 -4.0521418e-17 -30.736384)
(231.40499 -3.8503057e-17 -30.452628)
(230.2047 3.6592527e-17 -30.131473)
(228.99102 -6.8341145e-17 -29.771388)
(227.7684 -3.237415e-16 -29.371159)
(226.54165 3.0470769e-16 -28.929932)
(225.31586 5.74432e-17 -28.447291)
(224.0963 -2.7221926e-16 -27.923268)
(222.88837 -6.9100452e-19 -27.35842)
(221.69743 2.8914638e-16 -26.753807)
(220.52877 -1.8148494e-16 -26.111025)
(219.38741 -6.0406739e-19 -25.432178)
(218.27805 0 -24.719861)
(217.20496 0 -23.97711)
(216.17188 -7.1420154e-17 -23.20735)
(215.18192 1.3372074e-16 -22.414329)
(214.23757 0 -21.602033)
(213.3406 -1.1819788e-16 -20.774612)
(212.49212 2.2118822e-16 -19.936292)
(211.69252 -1.0362874e-16 -19.091287)
(210.94159 -1.9422449e-16 -18.243729)
(210.23851 9.0269019e-17 -17.397593)