/*--------------------------------*- C++ -*----------------------------------*\
  =========                 |
  \\      /  F ield         | OpenFOAM: The Open Source CFD Toolbox
   \\    /   O peration     | Website:  https://openfoam.org
    \\  /    A nd           | Version:  12
     \\/     M anipulation  |
\*---------------------------------------------------------------------------*/
FoamFile
{
    format      ascii;
    class       volScalarField;
    location    "0.024";
    object      alphat;
}
// * * * * * * * * * * * * * * * * * * * * * * * * * * * * * * * * * * * * * //

dimensions      [1 -1 -1 0 0 0 0];

internalField   nonuniform List<scalar> 
16000
(
4.7934963e-07
1.082684e-05
2.1304781e-05
2.5352061e-05
1.9694741e-05
2.6870275e-05
1.9224573e-05
2.624596e-05
2.0775232e-05
2.83986e-05
2.4250545e-05
2.8208324e-05
2.5900206e-05
2.6511719e-05
2.5693037e-05
2.5563084e-05
2.5337258e-05
2.5298206e-05
2.5347078e-05
2.5503843e-05
2.5761685e-05
2.611972e-05
2.6575774e-05
2.7129994e-05
2.7785156e-05
2.8548038e-05
2.9427877e-05
3.0439301e-05
3.1599965e-05
3.2928703e-05
3.444627e-05
3.6180397e-05
3.8166888e-05
4.0449793e-05
4.3083094e-05
4.6130923e-05
4.9669309e-05
5.3788619e-05
5.8600492e-05
6.424268e-05
7.0875971e-05
7.8689386e-05
8.7920877e-05
9.8859963e-05
0.00011184794
0.00012729104
0.00014568861
0.00016764039
0.0001938622
0.00022520377
0.00026266981
0.00030743797
0.00036086732
0.0004245116
0.0005001158
0.00058959333
0.00069496046
0.00081823029
0.00096147865
0.0011264086
0.0011839299
0.0011851426
0.0011862191
0.0011870938
0.0011877088
0.0011880427
0.0011880556
0.0011876725
0.0011866361
0.0011841807
0.0011793891
0.0011740638
0.0011757583
0.0011832753
0.0011853532
0.0011833844
0.0011781493
0.0011713254
0.0011741139
0.001153771
4.3423008e-07
1.0274536e-05
2.1193667e-05
2.2999699e-05
1.7770433e-05
2.4058869e-05
1.7069667e-05
2.2972908e-05
1.8328235e-05
2.5078353e-05
2.1941585e-05
2.5404249e-05
2.3645522e-05
2.3984272e-05
2.3346392e-05
2.3160898e-05
2.2971878e-05
2.2923255e-05
2.2967829e-05
2.3108381e-05
2.3343268e-05
2.3671155e-05
2.4090491e-05
2.4601271e-05
2.5205635e-05
2.5909744e-05
2.6721409e-05
2.7653593e-05
2.8722767e-05
2.994699e-05
3.1345163e-05
3.2942136e-05
3.4770466e-05
3.6870241e-05
3.929109e-05
4.2092221e-05
4.5344193e-05
4.9130074e-05
5.3551503e-05
5.8735976e-05
6.4834126e-05
7.2018673e-05
8.0507089e-05
9.0567184e-05
0.00010251596
0.00011672538
0.0001336539
0.00015385354
0.00017798344
0.00020682566
0.00024130616
0.00028251632
0.00033172246
0.00039038468
0.00046016245
0.00054290982
0.00064064224
0.00075548473
0.00088961074
0.0010450998
0.0011836627
0.0011848307
0.0011857429
0.0011864884
0.0011869914
0.0011872099
0.0011870639
0.0011864258
0.0011849941
0.001182036
0.0011768194
0.001171429
0.0011749284
0.0011825107
0.001183433
0.0011811726
0.0011750123
0.0011702697
0.0011723784
0.0011527711
3.8800019e-07
9.8496697e-06
2.0020629e-05
2.0975157e-05
1.591467e-05
2.1176188e-05
1.5195518e-05
1.9958101e-05
1.6458496e-05
2.1987258e-05
1.9978216e-05
2.2583546e-05
2.1364114e-05
2.1434306e-05
2.0945553e-05
2.0738487e-05
2.0580254e-05
2.0534461e-05
2.0578703e-05
2.0709208e-05
2.0925604e-05
2.1227027e-05
2.1612103e-05
2.2081154e-05
2.2635701e-05
2.3281658e-05
2.40258e-05
2.4879676e-05
2.5858441e-05
2.697946e-05
2.8260347e-05
2.9723657e-05
3.1399244e-05
3.3323783e-05
3.5543066e-05
3.8111846e-05
4.1095905e-05
4.4572489e-05
4.8634762e-05
5.3400334e-05
5.9011387e-05
6.5627587e-05
7.3448575e-05
8.2722094e-05
9.3744609e-05
0.0001068587
0.00012248654
0.00014113679
0.00016341599
0.00019004244
0.00022186448
0.0002598838
0.00030526356
0.00035934915
0.00042367747
0.00049998357
0.00059018583
0.00069636116
0.00082072327
0.00096554246
0.0011328646
0.0011847708
0.0011855035
0.0011860896
0.0011864454
0.0011865073
0.0011861571
0.0011852115
0.0011833125
0.0011797722
0.0011742585
0.0011695419
0.0011741148
0.0011813759
0.0011813324
0.0011786689
0.001172556
0.0011689009
0.0011699639
0.0011512288
3.5242493e-07
9.523318e-06
1.8985919e-05
2.0101585e-05
1.439607e-05
1.8683263e-05
1.3541512e-05
1.7426608e-05
1.4796853e-05
1.9364513e-05
1.8203436e-05
2.0092143e-05
1.926636e-05
1.9148766e-05
1.8771462e-05
1.8565323e-05
1.8434738e-05
1.8397455e-05
1.844433e-05
1.856865e-05
1.8770455e-05
1.9049754e-05
1.9405125e-05
1.983765e-05
2.0348285e-05
2.0942926e-05
2.1627619e-05
2.2412814e-05
2.3312466e-05
2.4343416e-05
2.5522434e-05
2.6870198e-05
2.8414448e-05
3.0189058e-05
3.2236745e-05
3.4608652e-05
3.736674e-05
4.0583972e-05
4.4347136e-05
4.8765435e-05
5.3975148e-05
6.0126761e-05
6.7406726e-05
7.6047143e-05
8.6331079e-05
9.8581007e-05
0.00011319407
0.00013064959
0.00015151938
0.0001764819
0.00020633665
0.0002420321
0.00028467228
0.00033554069
0.00039611295
0.000468074
0.00055331854
0.00065394068
0.00077222664
0.00091062455
0.0010716216
0.001184893
0.0011854519
0.0011858647
0.001186055
0.0011859356
0.0011853514
0.0011840649
0.0011816681
0.0011775243
0.0011717569
0.0011684856
0.001173711
0.0011795346
0.001179197
0.0011758981
0.0011698658
0.0011672322
0.0011676863
0.0011487198
3.131313e-07
9.2971166e-06
1.8130901e-05
1.9970366e-05
1.485233e-05
1.6527407e-05
1.2084427e-05
1.5271282e-05
1.3386154e-05
1.7132059e-05
1.6637692e-05
1.7869628e-05
1.7334724e-05
1.7092715e-05
1.6795144e-05
1.6601597e-05
1.6491693e-05
1.6462084e-05
1.6509304e-05
1.6626416e-05
1.6813266e-05
1.7070976e-05
1.7397929e-05
1.7796107e-05
1.8266046e-05
1.8813609e-05
1.9444362e-05
2.0167872e-05
2.0996939e-05
2.1947889e-05
2.3036935e-05
2.4283245e-05
2.5712854e-05
2.7357294e-05
2.9256727e-05
3.1459262e-05
3.4023599e-05
3.7019361e-05
4.0528621e-05
4.4652939e-05
4.9523923e-05
5.5285314e-05
6.2113431e-05
7.0226558e-05
7.9897845e-05
9.1434381e-05
0.0001052131
0.00012168973
0.00014140825
0.00016501603
0.00019327268
0.00022708349
0.00026750333
0.00031576318
0.0003732842
0.00044170222
0.00052288146
0.00061891536
0.00073212847
0.00086506537
0.0010204368
0.0011851762
0.001185578
0.001185803
0.0011858098
0.0011854869
0.0011846439
0.0011829922
0.0011800831
0.0011753448
0.0011693244
0.0011679812
0.0011739627
0.001177657
0.0011769776
0.0011729031
0.0011667646
0.0011651244
0.0011648818
0.0011459839
2.8458208e-07
9.1626867e-06
1.7452665e-05
1.9402759e-05
1.438397e-05
1.4652871e-05
1.1963245e-05
1.3567103e-05
1.3470255e-05
1.5298075e-05
1.5280318e-05
1.5932557e-05
1.5582723e-05
1.5267139e-05
1.501627e-05
1.4836288e-05
1.4738612e-05
1.47132e-05
1.4758084e-05
1.4867151e-05
1.5039601e-05
1.5277393e-05
1.5578747e-05
1.5946214e-05
1.6380292e-05
1.6886593e-05
1.7470463e-05
1.814078e-05
1.8909264e-05
1.9791745e-05
2.0804152e-05
2.1964475e-05
2.3297449e-05
2.4832728e-05
2.6608458e-05
2.8670329e-05
3.1074411e-05
3.3887816e-05
3.7189651e-05
4.1075126e-05
4.5672006e-05
5.1119735e-05
5.75881e-05
6.5283638e-05
7.447312e-05
8.5453303e-05
9.8586208e-05
0.00011431094
0.00013315162
0.00015573485
0.00018279179
0.0002151981
0.00025397459
0.00030031649
0.00035560816
0.00042145126
0.00049968982
0.00059242054
0.00070200049
0.00083106076
0.00098253224
0.0011598029
0.0011858552
0.0011858833
0.0011856937
0.0011851524
0.0011840325
0.0011819966
0.0011785773
0.0011733955
0.0011678143
0.0011678631
0.0011739916
0.0011759615
0.0011746586
0.0011696961
0.0011638102
0.0011626662
0.0011616359
0.0011431785
2.6401637e-07
9.0860525e-06
1.6916909e-05
1.8108767e-05
1.4194077e-05
1.293228e-05
1.1780862e-05
1.2458483e-05
1.1915995e-05
1.3610417e-05
1.4019517e-05
1.4207187e-05
1.3946184e-05
1.3605503e-05
1.3382868e-05
1.3219645e-05
1.3132963e-05
1.3112928e-05
1.3157106e-05
1.3260679e-05
1.3422163e-05
1.3643926e-05
1.3924408e-05
1.4181091e-05
1.4574859e-05
1.5037513e-05
1.5573755e-05
1.6191637e-05
1.6901632e-05
1.7718737e-05
1.8658615e-05
1.9738175e-05
2.0981017e-05
2.2415072e-05
2.4076704e-05
2.6009494e-05
2.8267175e-05
3.091458e-05
3.4028987e-05
3.7987431e-05
4.2367871e-05
4.7569561e-05
5.3759049e-05
6.1133008e-05
6.9953741e-05
8.0511878e-05
9.31589e-05
0.00010832264
0.00012651245
0.00014834207
0.00017452208
0.00020590776
0.00024349569
0.00028845598
0.00034214683
0.00040614329
0.00048227079
0.00057262497
0.00067958504
0.00080584936
0.00095453136
0.0011294373
0.0011862638
0.0011860906
0.0011856969
0.0011849279
0.0011835166
0.0011810785
0.0011771932
0.0011718227
0.0011669382
0.0011680382
0.0011737397
0.0011745639
0.0011722707
0.0011664083
0.0011609404
0.0011600579
0.0011580498
0.0011404212
2.3690003e-07
9.0379973e-06
1.6440336e-05
1.6308808e-05
1.2288263e-05
1.1238995e-05
9.5852813e-06
1.0567262e-05
1.0506374e-05
1.2261653e-05
1.2755841e-05
1.261658e-05
1.2393255e-05
1.206788e-05
1.1870441e-05
1.1729234e-05
1.1656751e-05
1.1645595e-05
1.162107e-05
1.1705156e-05
1.1847211e-05
1.2047814e-05
1.2305184e-05
1.2618283e-05
1.299247e-05
1.3430824e-05
1.3938049e-05
1.4522136e-05
1.5192915e-05
1.5964898e-05
1.6853984e-05
1.7876499e-05
1.9055494e-05
2.0417813e-05
2.1998772e-05
2.3840622e-05
2.5995684e-05
2.8527382e-05
3.1512284e-05
3.5042592e-05
3.9229386e-05
4.4212141e-05
5.0156754e-05
5.773723e-05
6.6295664e-05
7.655792e-05
8.8869439e-05
0.00010365113
0.00012140198
0.00014273041
0.00016833356
0.0001990547
0.00023587543
0.00027995047
0.00033262224
0.00039544764
0.00047023684
0.0005590827
0.00066438093
0.00078888506
0.00093586768
0.0011095147
0.0011867848
0.0011864106
0.0011858092
0.0011848064
0.001183089
0.0011802448
0.0011759691
0.0011705442
0.0011665211
0.0011686294
0.0011734703
0.0011733525
0.0011698776
0.0011631405
0.0011581993
0.0011574874
0.0011544475
0.0011378732
2.1703614e-07
8.9884434e-06
1.589902e-05
1.4287978e-05
1.0103364e-05
9.9982081e-06
8.0143473e-06
9.5391389e-06
9.7225657e-06
1.0975282e-05
1.1502644e-05
1.1154031e-05
1.0945341e-05
1.0655856e-05
1.048311e-05
1.0292353e-05
1.0208177e-05
1.0190757e-05
1.0230899e-05
1.0326674e-05
1.047389e-05
1.0672868e-05
1.0924003e-05
1.1226828e-05
1.1585805e-05
1.2005143e-05
1.2489657e-05
1.3047365e-05
1.3687659e-05
1.4424557e-05
1.5274318e-05
1.6252971e-05
1.738337e-05
1.8691609e-05
2.0212372e-05
2.1987116e-05
2.4067319e-05
2.6515635e-05
2.9407814e-05
3.2834961e-05
3.6908208e-05
4.1764289e-05
4.7571548e-05
5.4520527e-05
6.2853212e-05
7.2864854e-05
8.5651306e-05
0.00010021638
0.00011772365
0.00013878254
0.00016408314
0.0001944639
0.00023089923
0.0002745364
0.00032671056
0.00038896798
0.00046310679
0.0005512156
0.00065570342
0.0007793748
0.00092564854
0.0010990668
0.0011874041
0.0011868323
0.0011860181
0.0011847772
0.0011827419
0.0011795086
0.0011748882
0.0011694693
0.0011667037
0.001169755
0.0011730861
0.0011720226
0.001167576
0.0011600644
0.0011556352
0.0011550691
0.0011513187
0.0011356113
2.0014342e-07
8.9409502e-06
1.3810123e-05
1.2501518e-05
8.1717466e-06
8.9310157e-06
7.2470281e-06
8.5560111e-06
9.0646569e-06
9.8234303e-06
1.0268073e-05
9.8244476e-06
9.6201887e-06
9.2800741e-06
9.0960152e-06
8.9807365e-06
8.9309276e-06
8.9384507e-06
8.9965957e-06
9.102451e-06
9.2555008e-06
9.4547509e-06
9.7019725e-06
9.9971963e-06
1.0345215e-05
1.0750678e-05
1.1218568e-05
1.1757089e-05
1.2375368e-05
1.3086964e-05
1.3908567e-05
1.4856268e-05
1.5952994e-05
1.7224404e-05
1.8704923e-05
2.0435679e-05
2.2467813e-05
2.4863821e-05
2.7699698e-05
3.1066832e-05
3.507616e-05
3.986351e-05
4.5600167e-05
5.2475664e-05
6.073308e-05
7.0668182e-05
8.2636343e-05
9.7038346e-05
0.00011541928
0.00013643025
0.00016169083
0.0001920409
0.00022845511
0.00027208044
0.00032425238
0.00038651369
0.00046065488
0.00054876168
0.00065325737
0.00077700074
0.00092356111
0.001097842
0.00118811
0.0011873481
0.0011863144
0.0011848233
0.0011824527
0.001178849
0.0011739277
0.0011687313
0.0011673363
0.0011709777
0.0011726367
0.0011707695
0.0011654679
0.0011574165
0.0011532727
0.0011528726
0.0011490643
0.0011337922
1.8468663e-07
8.8926351e-06
1.0963153e-05
1.0160171e-05
6.8215841e-06
7.9539772e-06
6.6255049e-06
7.6985652e-06
8.4562763e-06
8.7649886e-06
9.0728416e-06
8.5271832e-06
8.271132e-06
8.0357721e-06
7.9001842e-06
7.8248453e-06
7.8045771e-06
7.8329074e-06
7.9074377e-06
8.0243849e-06
8.1821726e-06
8.3831594e-06
8.6290433e-06
8.9202621e-06
9.2617011e-06
9.6585121e-06
1.0115991e-05
1.0642602e-05
1.1247435e-05
1.1943668e-05
1.2681968e-05
1.3600579e-05
1.4666368e-05
1.5904551e-05
1.7349312e-05
1.9041519e-05
2.1032092e-05
2.3383481e-05
2.617213e-05
2.9490118e-05
3.3449458e-05
3.8488522e-05
4.4220378e-05
5.1101414e-05
5.9375888e-05
6.9341252e-05
8.1362745e-05
9.584901e-05
0.00011330333
0.00013433245
0.0001611078
0.00019173164
0.00022848267
0.00027251423
0.00032516924
0.00038799402
0.00046277658
0.00055160432
0.0006569217
0.00078165417
0.00092954182
0.0011058819
0.0011888898
0.0011879418
0.0011866998
0.001184919
0.0011821938
0.0011782373
0.0011731217
0.0011686756
0.0011684298
0.0011717625
0.0011723452
0.0011695959
0.0011636606
0.0011553564
0.0011513821
0.0011509096
0.0011472787
0.0011325841
1.7117998e-07
8.8470985e-06
8.6876156e-06
8.8923602e-06
6.0864574e-06
7.0529441e-06
6.0915174e-06
6.9491923e-06
7.8543753e-06
7.7876275e-06
7.7878584e-06
7.3282393e-06
7.1188849e-06
6.9464056e-06
6.8520555e-06
6.8095176e-06
6.8153245e-06
6.8639484e-06
6.9516786e-06
7.0788409e-06
7.2438752e-06
7.4487421e-06
7.6962282e-06
7.9872957e-06
8.3269284e-06
8.6824971e-06
9.1281232e-06
9.6423741e-06
1.0234208e-05
1.091633e-05
1.1704004e-05
1.2617134e-05
1.3677928e-05
1.4911678e-05
1.6352931e-05
1.8043031e-05
2.0033588e-05
2.238796e-05
2.5184274e-05
2.8516707e-05
3.2500122e-05
3.7276328e-05
4.3016176e-05
4.9920081e-05
5.8236035e-05
6.8861455e-05
8.1065959e-05
9.5788809e-05
0.00011353869
0.00013493969
0.0001607177
0.00019352881
0.00023098228
0.00027584721
0.00032948096
0.00039344163
0.00046952169
0.00055981796
0.00066680983
0.00079351276
0.00094387631
0.0011236465
0.0011897261
0.0011885933
0.0011871412
0.0011851188
0.0011820083
0.0011777026
0.0011726384
0.0011689788
0.0011696704
0.0011723422
0.0011722945
0.0011685229
0.0011622265
0.0011539453
0.0011499407
0.0011492762
0.0011450892
0.0011320689
1.5914434e-07
8.7905525e-06
6.9538117e-06
7.807297e-06
5.4395808e-06
6.260524e-06
5.6332615e-06
6.2857274e-06
7.1360415e-06
6.6767081e-06
6.6323595e-06
6.2806642e-06
6.114967e-06
5.9936018e-06
5.9350876e-06
5.9222105e-06
5.9503319e-06
6.0170872e-06
6.1194035e-06
6.2578547e-06
6.4317448e-06
6.6432639e-06
6.8659905e-06
7.1544222e-06
7.4911805e-06
7.8807566e-06
8.3308526e-06
8.8496118e-06
9.4462475e-06
1.0133712e-05
1.0927458e-05
1.184716e-05
1.2916499e-05
1.4161179e-05
1.5616402e-05
1.7324413e-05
1.9338128e-05
2.1722397e-05
2.4557852e-05
2.7941956e-05
3.1992653e-05
3.6855085e-05
4.2709893e-05
4.9762564e-05
5.8269075e-05
6.8541737e-05
8.0959363e-05
9.5963737e-05
0.00011508588
0.00013708353
0.00016359019
0.00019548223
0.00023600908
0.00028216016
0.00033729835
0.00040300436
0.00048108558
0.0005736589
0.000683259
0.00081302732
0.00096718076
0.0011519882
0.0011906011
0.0011892857
0.0011876901
0.0011854072
0.0011818734
0.0011772971
0.0011724486
0.001169619
0.0011710296
0.0011729717
0.0011721247
0.0011675996
0.0011611418
0.0011531519
0.0011492118
0.0011480759
0.0011436667
0.0011323592
1.484907e-07
8.7248749e-06
5.607771e-06
6.8390368e-06
4.8565738e-06
5.5508907e-06
5.2440688e-06
5.6059881e-06
6.2430617e-06
5.7146424e-06
5.621571e-06
5.3658521e-06
5.2414978e-06
5.1630442e-06
5.136533e-06
5.1501928e-06
5.2001357e-06
5.2849142e-06
5.4023347e-06
5.5323669e-06
5.7107072e-06
5.9266861e-06
6.1828177e-06
6.4823586e-06
6.8299879e-06
7.230631e-06
7.6919111e-06
8.2227162e-06
8.8325261e-06
9.5344985e-06
1.0344252e-05
1.1281754e-05
1.2314614e-05
1.3571718e-05
1.5042459e-05
1.677001e-05
1.8808902e-05
2.1225635e-05
2.4103524e-05
2.7544091e-05
3.166978e-05
3.6910109e-05
4.2942452e-05
5.0220203e-05
5.9008896e-05
6.9630245e-05
8.2483809e-05
9.8033339e-05
0.00011682562
0.00014079419
0.00016831959
0.00020144483
0.00024121462
0.0002916096
0.00034883144
0.00041695655
0.00049782426
0.00059358553
0.00070685646
0.00084095251
0.0010004365
0.0011922039
0.0011915025
0.001190028
0.0011883437
0.0011856732
0.0011818196
0.0011770387
0.0011724436
0.0011705137
0.001172445
0.0011735936
0.001171763
0.0011669031
0.0011604363
0.0011527694
0.0011490815
0.0011474368
0.0011429846
0.0011336278
1.3906115e-07
8.5706012e-06
4.5842527e-06
5.9761983e-06
4.3387173e-06
4.9208894e-06
4.9032602e-06
4.8648234e-06
5.3500211e-06
4.8586343e-06
4.7472132e-06
4.5704541e-06
4.4857411e-06
4.4446784e-06
4.4475891e-06
4.4861657e-06
4.5572439e-06
4.6414556e-06
4.7687343e-06
4.9297481e-06
5.1255076e-06
5.3577259e-06
5.6296889e-06
5.9448704e-06
6.3086007e-06
6.7261046e-06
7.2050912e-06
7.7313036e-06
8.3553738e-06
9.0727451e-06
9.8991341e-06
1.0854587e-05
1.1963546e-05
1.3256669e-05
1.4770265e-05
1.6549111e-05
1.8650529e-05
2.1143867e-05
2.4116239e-05
2.767508e-05
3.1949392e-05
3.7099951e-05
4.3317689e-05
5.0833938e-05
5.9928109e-05
7.1533021e-05
8.4965867e-05
0.00010123267
0.00012091214
0.00014468804
0.00017499048
0.00020973371
0.00025144952
0.00030137897
0.0003644002
0.0004357149
0.00052027281
0.00062027951
0.00073846429
0.00087837407
0.0010450144
0.001193854
0.0011924309
0.0011908355
0.0011890186
0.0011859724
0.0011818742
0.0011769072
0.001172736
0.0011716648
0.0011736939
0.0011740871
0.0011714227
0.0011664801
0.0011601652
0.001152908
0.0011494242
0.0011475805
0.0011431728
0.0011357991
1.3078094e-07
8.1958811e-06
3.9136994e-06
5.2122891e-06
3.8772234e-06
4.3624871e-06
4.3599072e-06
4.1936932e-06
4.4963622e-06
4.103799e-06
3.9995665e-06
3.8859469e-06
3.8386245e-06
3.8308182e-06
3.8609445e-06
3.9085361e-06
3.9933624e-06
4.1108692e-06
4.2602688e-06
4.4418924e-06
4.6574264e-06
4.9091492e-06
5.2008129e-06
5.536207e-06
5.9074891e-06
6.3429533e-06
6.8406273e-06
7.4094134e-06
8.0605191e-06
8.807259e-06
9.66584e-06
1.065725e-05
1.1807092e-05
1.3147383e-05
1.4717278e-05
1.6563487e-05
1.8746889e-05
2.1340675e-05
2.4436264e-05
2.8148682e-05
3.2613299e-05
3.8000919e-05
4.4517817e-05
5.240861e-05
6.197302e-05
7.3570429e-05
8.841091e-05
0.00010558714
0.00012638606
0.00015154534
0.00018190029
0.00022052075
0.00026471198
0.00031759899
0.00038064856
0.00045985576
0.00054916696
0.00065466899
0.00077924131
0.00092672902
0.001102687
0.0011949106
0.001193388
0.001191704
0.001189664
0.0011863586
0.0011820442
0.0011769852
0.0011733373
0.001172896
0.0011745675
0.0011743389
0.0011711846
0.0011662923
0.0011601897
0.0011533978
0.001150109
0.0011482588
0.0011441402
0.0011383581
1.2376069e-07
7.7979844e-06
3.453688e-06
4.5321594e-06
3.4683719e-06
3.7032318e-06
3.881088e-06
3.5800721e-06
3.7285202e-06
3.4498909e-06
3.368338e-06
3.3048258e-06
3.2917386e-06
3.3140046e-06
3.352505e-06
3.4325799e-06
3.5442219e-06
3.6861943e-06
3.8586741e-06
4.0627766e-06
4.3007778e-06
4.5752513e-06
4.8808829e-06
5.2374144e-06
5.6437035e-06
6.1060347e-06
6.6319555e-06
7.2307371e-06
7.9138735e-06
8.6956416e-06
9.5928722e-06
1.0627607e-05
1.182682e-05
1.3224414e-05
1.4798378e-05
1.6710566e-05
1.8974738e-05
2.1668809e-05
2.5039534e-05
2.8940661e-05
3.3639888e-05
3.9318834e-05
4.6201697e-05
5.455108e-05
6.4688256e-05
7.7003046e-05
9.1961346e-05
0.00011011722
0.00013330798
0.00016017654
0.00019263069
0.00023172725
0.00028131333
0.00033791371
0.0004053584
0.00049013337
0.00058546674
0.00069795294
0.00083066152
0.00098781307
0.0011756359
0.0011959625
0.0011943547
0.0011925775
0.0011902492
0.0011868242
0.0011823346
0.0011772989
0.0011739003
0.0011738353
0.0011751879
0.0011743125
0.0011710955
0.0011662903
0.0011604138
0.0011540858
0.0011510266
0.0011492855
0.0011455274
0.0011412037
1.1826751e-07
6.561469e-06
3.0620199e-06
3.9137957e-06
3.1170372e-06
3.0933976e-06
3.4056947e-06
3.0259787e-06
3.0706033e-06
2.8922286e-06
2.8406748e-06
2.8182649e-06
2.8280434e-06
2.8700225e-06
2.9476012e-06
3.0563656e-06
3.1942726e-06
3.3611736e-06
3.558054e-06
3.7864968e-06
4.0432732e-06
4.3409642e-06
4.6795606e-06
5.0635673e-06
5.4983618e-06
5.9904715e-06
6.5478424e-06
7.1801731e-06
7.8994045e-06
8.7013785e-06
9.6361864e-06
1.0712652e-05
1.1959132e-05
1.3411097e-05
1.5112809e-05
1.7119435e-05
1.9498873e-05
2.2335734e-05
2.5734367e-05
2.9822769e-05
3.4758667e-05
4.1028297e-05
4.8345497e-05
5.724171e-05
6.806412e-05
8.1236723e-05
9.7268571e-05
0.00011676791
0.0001417452
0.00017069729
0.00020572352
0.00024796763
0.0003016358
0.00036285467
0.00043579413
0.00052229612
0.00063038312
0.00075163081
0.00089453333
0.0010637658
0.0011985814
0.0011969829
0.0011952824
0.0011933655
0.0011908188
0.001187335
0.0011826738
0.0011775747
0.00117429
0.0011742302
0.0011753096
0.0011743065
0.0011711308
0.0011664303
0.0011607364
0.0011547348
0.0011519585
0.0011504638
0.0011472863
0.0011441772
1.137274e-07
4.6925694e-06
2.7024141e-06
3.3409715e-06
2.6669457e-06
2.5823469e-06
2.9066205e-06
2.5331034e-06
2.5231327e-06
2.4232076e-06
2.405312e-06
2.4109569e-06
2.4523447e-06
2.5291627e-06
2.6369671e-06
2.7731864e-06
2.9370877e-06
3.1292515e-06
3.3480671e-06
3.6004597e-06
3.8875124e-06
4.2124018e-06
4.5789934e-06
4.9919921e-06
5.457077e-06
5.9810993e-06
6.5723876e-06
7.2303069e-06
7.984811e-06
8.8439802e-06
9.8272008e-06
1.095856e-05
1.2268419e-05
1.3794883e-05
1.5585648e-05
1.7700024e-05
2.0211523e-05
2.321129e-05
2.6812284e-05
3.1154036e-05
3.6408549e-05
4.2786604e-05
5.0923132e-05
6.0456801e-05
7.2082691e-05
8.6266964e-05
0.00010357126
0.00012466962
0.00015036466
0.00018323182
0.00022138315
0.00026748032
0.00032295877
0.00039306788
0.00047283407
0.0005673722
0.0006854203
0.00081755632
0.0009730572
0.0011570904
0.0011996107
0.0011979353
0.0011961332
0.0011940569
0.0011914297
0.0011878263
0.0011830036
0.001177793
0.0011746482
0.0011742721
0.0011750758
0.0011741826
0.0011712396
0.0011666986
0.0011611709
0.0011553977
0.0011528152
0.0011516819
0.001149346
0.001147109
1.0906597e-07
3.9044499e-06
2.3317955e-06
2.8127431e-06
2.2992941e-06
2.1541541e-06
2.3930019e-06
2.1009302e-06
2.0783827e-06
2.0390033e-06
2.0506469e-06
2.0914289e-06
2.1694156e-06
2.277581e-06
2.4132545e-06
2.5754391e-06
2.7643925e-06
2.9790937e-06
3.225024e-06
3.5033971e-06
3.8170485e-06
4.1694184e-06
4.5646252e-06
5.0075923e-06
5.5042418e-06
6.0617355e-06
6.681497e-06
7.3856439e-06
8.1824641e-06
9.0883712e-06
1.0124048e-05
1.1315348e-05
1.2694817e-05
1.4303384e-05
1.6192558e-05
1.8426776e-05
2.1085938e-05
2.4268919e-05
2.809849e-05
3.2726149e-05
3.8339644e-05
4.5497116e-05
5.3899691e-05
6.4162807e-05
7.6714302e-05
9.2072154e-05
0.00011086332
0.0001338426
0.00016341152
0.0001979011
0.00023982282
0.00029060762
0.00035185644
0.0004293286
0.00051756425
0.00062209768
0.00075244168
0.00089802528
0.0010689317
0.001202231
0.0012005691
0.0011987995
0.00119689
0.0011947259
0.0011920109
0.0011883099
0.0011834172
0.0011781071
0.0011750209
0.0011742268
0.0011746849
0.001173916
0.0011713486
0.0011671299
0.001161849
0.0011562499
0.00115364
0.0011529232
0.0011516257
0.0011500351
1.0595373e-07
3.1489926e-06
2.0115305e-06
2.2764133e-06
1.9970409e-06
1.7870295e-06
1.917749e-06
1.7353017e-06
1.729871e-06
1.7394595e-06
1.781768e-06
1.8609899e-06
1.9703879e-06
2.1059526e-06
2.2666023e-06
2.4525511e-06
2.6636839e-06
2.9035819e-06
3.174005e-06
3.4775767e-06
3.8174382e-06
4.1972647e-06
4.6213664e-06
5.0948503e-06
5.6238522e-06
6.2117123e-06
6.8736831e-06
7.6183276e-06
8.4595027e-06
9.4146464e-06
1.0505948e-05
1.1761197e-05
1.3215442e-05
1.4912763e-05
1.6908669e-05
1.927303e-05
2.2093261e-05
2.5476805e-05
2.9558006e-05
3.4502584e-05
4.0782176e-05
4.8179399e-05
5.7224871e-05
6.8308845e-05
8.1908255e-05
9.860644e-05
0.00011911229
0.00014428426
0.00017672959
0.00021479366
0.00026124323
0.00031771609
0.00038603834
0.00047253584
0.00057128953
0.00068826449
0.00083378372
0.0009959144
0.0011854929
0.0012031677
0.0012014541
0.0011996041
0.001197604
0.0011953471
0.0011925715
0.001188891
0.0011840945
0.00117885
0.0011755265
0.0011743186
0.0011742381
0.001173541
0.0011713962
0.001167759
0.0011629723
0.0011576531
0.001154725
0.0011543784
0.0011539897
0.0011530115
1.0473625e-07
2.4886835e-06
1.7348423e-06
1.7597606e-06
1.7187213e-06
1.4732104e-06
1.5306739e-06
1.4448937e-06
1.4712543e-06
1.5162905e-06
1.5977177e-06
1.7078342e-06
1.8430692e-06
2.0018146e-06
2.1843124e-06
2.3916889e-06
2.6248926e-06
2.8873486e-06
3.1811323e-06
3.5091517e-06
3.8747468e-06
4.2817669e-06
4.7346865e-06
5.238782e-06
5.8003808e-06
6.4271996e-06
7.1287849e-06
7.9170472e-06
8.7971622e-06
9.8032157e-06
1.0952295e-05
1.2274324e-05
1.3807134e-05
1.5598373e-05
1.7707875e-05
2.0291955e-05
2.3306189e-05
2.6930974e-05
3.1314191e-05
3.6639425e-05
4.3134453e-05
5.1081572e-05
6.0831996e-05
7.2820549e-05
8.7584707e-05
0.00010578703
0.0001282392
0.00015729193
0.00019166672
0.00023394119
0.00028579631
0.00034915462
0.00043017933
0.00052374358
0.00063562484
0.00076817166
0.00093248582
0.0011149872
0.0012056455
0.0012040367
0.0012022742
0.0012003592
0.0011982829
0.0011959682
0.0011932047
0.0011896536
0.0011850928
0.0011801338
0.0011764312
0.0011747109
0.0011738913
0.0011731417
0.0011714171
0.0011686
0.0011647019
0.0011600763
0.0011566482
0.0011559845
0.0011563103
0.0011559574
1.0647649e-07
1.9222096e-06
1.5041004e-06
1.363123e-06
1.4365062e-06
1.2103961e-06
1.2479409e-06
1.2330327e-06
1.2927639e-06
1.3725955e-06
1.4829101e-06
1.6167761e-06
1.7728299e-06
1.9511683e-06
2.1529784e-06
2.3799737e-06
2.633908e-06
2.9177484e-06
3.2340014e-06
3.585736e-06
3.9764288e-06
4.4100648e-06
4.8912718e-06
5.4255094e-06
6.0193348e-06
6.680761e-06
7.4197387e-06
8.2487633e-06
9.1836348e-06
1.0244424e-05
1.1456619e-05
1.2852652e-05
1.4473587e-05
1.6371311e-05
1.8611123e-05
2.1274954e-05
2.446544e-05
2.8311283e-05
3.2973287e-05
3.865273e-05
4.5601345e-05
5.4133048e-05
6.4637348e-05
7.7602758e-05
9.3636668e-05
0.00011443296
0.00013923798
0.00016999018
0.00020810677
0.00025529683
0.00031357895
0.00038888847
0.00047720039
0.00058427259
0.00071274279
0.00087339472
0.0010528569
0.0012078949
0.0012064388
0.0012048401
0.0012030585
0.0012010996
0.0011989773
0.001196652
0.0011939692
0.0011906412
0.0011864403
0.0011818788
0.0011781027
0.0011755114
0.001174032
0.001173027
0.001171701
0.0011696913
0.0011668848
0.0011633405
0.0011599716
0.0011581386
0.0011581682
0.0011586622
1.1232473e-07
1.4570751e-06
1.3170006e-06
1.0733619e-06
1.2822788e-06
9.9204287e-07
1.056582e-06
1.0937593e-06
1.1807542e-06
1.2884762e-06
1.4199962e-06
1.5722505e-06
1.7456044e-06
1.941178e-06
2.1606674e-06
2.4060645e-06
2.6796375e-06
2.9837536e-06
3.3214771e-06
3.6958885e-06
4.1105809e-06
4.5696755e-06
5.0779652e-06
5.6411151e-06
6.2659412e-06
6.9607885e-06
7.7360439e-06
8.6048375e-06
9.583833e-06
1.0694307e-05
1.196334e-05
1.3425517e-05
1.5124737e-05
1.7116608e-05
1.9471284e-05
2.2277069e-05
2.5644873e-05
2.9713893e-05
3.4658826e-05
4.0699048e-05
4.843642e-05
5.7639374e-05
6.9009356e-05
8.3098069e-05
0.0001005987
0.00012238303
0.00014954537
0.00018345305
0.0002257974
0.00028125875
0.00034762384
0.0004299893
0.00053159148
0.00065576297
0.00081343155
0.00099258565
0.0012014591
0.0012085396
0.0012071195
0.0012055917
0.0012038398
0.0012018631
0.0011997302
0.0011974375
0.0011948936
0.0011918706
0.0011881158
0.0011839056
0.001180083
0.0011771916
0.0011752055
0.0011737912
0.001172566
0.001171164
0.0011693361
0.0011670194
0.0011643511
0.0011617923
0.0011603224
0.0011603789
1.2295723e-07
1.1659667e-06
1.1560682e-06
9.287121e-07
9.4105317e-07
8.6924159e-07
9.3103635e-07
1.010686e-06
1.11864e-06
1.2460083e-06
1.3935187e-06
1.5609631e-06
1.7495566e-06
1.9608233e-06
2.196621e-06
2.459025e-06
2.7503594e-06
3.0732177e-06
3.4305112e-06
3.825524e-06
4.2619936e-06
4.7442185e-06
5.2772109e-06
5.8669118e-06
6.5204931e-06
7.2443912e-06
8.0529489e-06
8.958441e-06
9.9867979e-06
1.1147471e-05
1.2474964e-05
1.4006225e-05
1.5788195e-05
1.7880363e-05
2.0357909e-05
2.3315624e-05
2.6872923e-05
3.1180249e-05
3.6427272e-05
4.2853442e-05
5.076147e-05
6.0534616e-05
7.2658693e-05
8.7748596e-05
0.00010658916
0.0001301798
0.00016121432
0.0001987632
0.00024606464
0.00030570268
0.00038085604
0.00047531927
0.00059338018
0.00074648453
0.00092575003
0.0011394903
0.0012104415
0.0012091028
0.001207716
0.001206315
0.0012046332
0.0012026762
0.0012005718
0.0011983504
0.001195977
0.0011932985
0.0011900836
0.0011863731
0.0011827013
0.0011796388
0.0011773672
0.0011757222
0.001174454
0.0011733199
0.0011721092
0.001170613
0.0011685622
0.0011658792
0.0011632124
0.0011617838
1.4486241e-07
1.2008598e-06
9.9587738e-07
7.1086746e-07
7.7004318e-07
7.7822766e-07
8.6224423e-07
9.6481659e-07
1.0893212e-06
1.2315504e-06
1.3926587e-06
1.5735647e-06
1.7757749e-06
2.0009345e-06
2.2509407e-06
2.5279116e-06
2.8342234e-06
3.1725435e-06
3.5458759e-06
3.9576167e-06
4.4116309e-06
4.912359e-06
5.4649704e-06
6.075582e-06
6.7515711e-06
7.5020065e-06
8.3382278e-06
9.2745982e-06
1.0329472e-05
1.1526371e-05
1.2895424e-05
1.4475188e-05
1.6314777e-05
1.847657e-05
2.1039554e-05
2.4103577e-05
2.7794821e-05
3.2272832e-05
3.7739632e-05
4.4451515e-05
5.2734424e-05
6.3452015e-05
7.6338474e-05
9.2443932e-05
0.00011265237
0.0001381058
0.00017028673
0.00021112163
0.00026311032
0.00032947737
0.00041433899
0.00052763255
0.00066677191
0.00084222994
0.001059721
0.0012119613
0.0012108789
0.0012096514
0.0012083429
0.0012070178
0.001205425
0.0012035426
0.0012015116
0.0011994038
0.0011972181
0.0011948711
0.0011922037
0.0011890975
0.0011857611
0.0011826888
0.0011802441
0.0011784381
0.0011771068
0.0011760299
0.00117497
0.0011736642
0.0011717009
0.0011687039
0.001165084
0.0011622417
1.3819795e-07
8.0663503e-07
8.1796844e-07
6.0651835e-07
6.6392696e-07
7.250825e-07
8.2780943e-07
9.4720907e-07
1.0848644e-06
1.2397985e-06
1.4132666e-06
1.6064788e-06
1.8209748e-06
2.0584721e-06
2.3209185e-06
2.6105035e-06
2.9296902e-06
3.2812124e-06
3.6682334e-06
4.09425e-06
4.5632576e-06
5.0798387e-06
5.6493183e-06
6.2779878e-06
6.9734261e-06
7.7449439e-06
8.6041823e-06
9.5659e-06
1.0657041e-05
1.1889453e-05
1.3299846e-05
1.4928382e-05
1.6826218e-05
1.9058387e-05
2.1707335e-05
2.4877514e-05
2.8701286e-05
3.3346634e-05
3.902725e-05
4.6015706e-05
5.4660665e-05
6.540946e-05
7.8838146e-05
9.5694347e-05
0.00011695211
0.00014389142
0.00017820664
0.00022410091
0.00028112254
0.00035493405
0.00045095481
0.00057631038
0.00074004664
0.00095276182
0.0012129396
0.001211974
0.0012109719
0.0012098946
0.001208756
0.001207522
0.0012061435
0.001204349
0.0012024833
0.0012005427
0.0011985476
0.0011964751
0.001194248
0.0011916996
0.0011887804
0.0011858032
0.0011832475
0.0011813257
0.0011799152