/*--------------------------------*- C++ -*----------------------------------*\
  =========                 |
  \\      /  F ield         | OpenFOAM: The Open Source CFD Toolbox
   \\    /   O peration     | Website:  https://openfoam.org
    \\  /    A nd           | Version:  12
     \\/     M anipulation  |
\*---------------------------------------------------------------------------*/
FoamFile
{
    format      ascii;
    class       volScalarField;
    location    "0.024";
    object      Ma;
}
// * * * * * * * * * * * * * * * * * * * * * * * * * * * * * * * * * * * * * //

dimensions      [];

internalField   nonuniform List<scalar> 
16000
(
0.64086976
0.7595811
0.71426989
0.73899475
0.72393436
0.7307895
0.72510835
0.7265541
0.72390344
0.72339355
0.72174262
0.72056505
0.71911309
0.71769245
0.71618909
0.71463829
0.71302863
0.71136161
0.70963582
0.70785061
0.70600543
0.70409994
0.70213406
0.70010795
0.69802207
0.69587719
0.69367443
0.69141522
0.68910142
0.68673524
0.68431932
0.68185673
0.67935096
0.67680591
0.67422591
0.67161561
0.66898003
0.66632441
0.66365423
0.66097504
0.65829249
0.65561216
0.65293953
0.65027983
0.647638
0.64501853
0.64242541
0.63986199
0.63733087
0.63483383
0.63237169
0.62994419
0.62754989
0.62518605
0.6228486
0.62053196
0.61822902
0.61593097
0.61362717
0.61130549
0.60894966
0.6065411
0.60405529
0.60146148
0.59872407
0.59581039
0.59270648
0.58944342
0.5861328
0.58300319
0.58040249
0.578747
0.57826597
0.57934018
0.58158449
0.58358665
0.58423548
0.58604778
0.57800858
0.58147742
0.64517601
0.76461204
0.71761915
0.74341347
0.72752154
0.73485319
0.72871761
0.73029466
0.72744518
0.72686461
0.72512124
0.72382634
0.72227896
0.72074067
0.71912433
0.71745233
0.71571847
0.71392262
0.71206403
0.71014214
0.70815668
0.7061076
0.70399518
0.70182
0.69958298
0.69728539
0.6949289
0.69251556
0.69004786
0.68752869
0.68496143
0.68234986
0.67969825
0.67701128
0.67429404
0.67155198
0.66879083
0.66601654
0.66323519
0.66045289
0.65767573
0.65490961
0.65216022
0.64943288
0.64673247
0.6440633
0.64142904
0.63883264
0.63627618
0.63376084
0.63128678
0.62885303
0.62645746
0.62409668
0.62176598
0.61945927
0.61716899
0.61488609
0.61259985
0.61029766
0.60796429
0.60558091
0.60312372
0.60056339
0.59786761
0.59500929
0.59198308
0.58883102
0.58567779
0.58275999
0.58040655
0.57902278
0.57885703
0.5802011
0.58247945
0.58437179
0.58515545
0.5856337
0.57884825
0.5813878
0.64916274
0.76920227
0.7209143
0.74721743
0.7308756
0.73831582
0.7320231
0.73349356
0.73057225
0.72983317
0.7280158
0.72657963
0.72492253
0.72325247
0.72150611
0.71969739
0.7178227
0.71588165
0.71387378
0.71179886
0.70965694
0.70744839
0.70517392
0.70283459
0.70043189
0.6979677
0.69544435
0.69286463
0.69023179
0.68754957
0.68482218
0.68205434
0.67925122
0.67641844
0.67356201
0.67068825
0.66780373
0.66491515
0.66202926
0.65915271
0.65629198
0.65345323
0.65064223
0.64786423
0.64512389
0.64242512
0.6397711
0.6371641
0.63460546
0.63209552
0.62963351
0.62721753
0.62484449
0.62251012
0.62020887
0.61793393
0.61567718
0.61342914
0.6111789
0.60891382
0.60661889
0.6042757
0.6018614
0.59934875
0.59670973
0.5939248
0.5909997
0.5879908
0.58503864
0.58238903
0.5803678
0.57934168
0.57955619
0.58124216
0.58354142
0.58532368
0.58598405
0.58558307
0.57935888
0.58179969
0.65275237
0.77336082
0.72372259
0.75044341
0.73371779
0.74130246
0.73483956
0.73618521
0.7331837
0.73226851
0.73036172
0.72876776
0.72698278
0.72516471
0.72327111
0.72130926
0.71927757
0.71717555
0.71500308
0.71276022
0.71044743
0.70806549
0.70561564
0.70309955
0.70051936
0.69787773
0.69517781
0.6924233
0.68961841
0.68676792
0.6838771
0.68095175
0.67799814
0.67502296
0.67203325
0.6690363
0.66603955
0.66305046
0.66007637
0.65712437
0.65420119
0.65131307
0.64846562
0.64566379
0.6429117
0.64021265
0.63756896
0.63498199
0.63245205
0.62997834
0.62755896
0.62519082
0.62286972
0.62059029
0.61834603
0.61612929
0.61393127
0.61174202
0.60955038
0.60734369
0.6051072
0.60282314
0.60047003
0.5980235
0.59546073
0.5927704
0.58996959
0.58712796
0.5843968
0.58202534
0.58034921
0.57969289
0.5802712
0.58226718
0.58462632
0.58632266
0.58681299
0.58580299
0.58006428
0.58257181
0.65591375
0.7770068
0.72622659
0.7531466
0.73592413
0.74369577
0.73710012
0.73825537
0.73520406
0.73408559
0.73208042
0.73031242
0.72838294
0.72640284
0.72434653
0.72221677
0.72001298
0.71773478
0.71538231
0.71295604
0.7104569
0.70788627
0.70524611
0.70253888
0.69976767
0.69693614
0.69404854
0.69110976
0.68812526
0.68510108
0.68204381
0.67896057
0.67585888
0.67274665
0.66963204
0.66652334
0.66342884
0.66035666
0.6573146
0.65431
0.65134959
0.64843937
0.64558452
0.64278931
0.64005704
0.63738995
0.63478926
0.63225505
0.62978629
0.62738081
0.62503529
0.6227453
0.62050531
0.61830875
0.61614804
0.61401463
0.61189901
0.60979077
0.60767849
0.60554957
0.6033896
0.60118173
0.59890628
0.59654239
0.59407323
0.59149647
0.58884095
0.58618899
0.58369938
0.58162247
0.58031243
0.5800043
0.58100569
0.58327593
0.58573681
0.58736943
0.58768017
0.58625018
0.58090785
0.58364152
0.65861602
0.78007045
0.72826285
0.75538437
0.73787595
0.74543794
0.73866219
0.73963634
0.7365365
0.73523144
0.73311825
0.73116691
0.72907813
0.72692319
0.72468859
0.72237464
0.71998136
0.71750882
0.71495766
0.71232903
0.70962465
0.70684683
0.70399857
0.7010835
0.69810597
0.69507098
0.69198426
0.68885219
0.68568179
0.68248067
0.67925698
0.6760193
0.67277659
0.66953802
0.66631288
0.66311039
0.65993952
0.65680883
0.65372633
0.65069923
0.6477339
0.64483571
0.64200894
0.63925677
0.63658122
0.63398313
0.63146218
0.62901686
0.62664452
0.62434133
0.62210241
0.61992178
0.61779253
0.61570682
0.61365595
0.61163048
0.60962022
0.60761434
0.6056013
0.60356862
0.60150243
0.59938701
0.59720493
0.59493944
0.59258027
0.59013438
0.58764188
0.58519557
0.58296103
0.58119438
0.5802646
0.58025673
0.58173254
0.58422958
0.58682287
0.58843614
0.58859695
0.58688342
0.58196017
0.58490056
0.66086844
0.7825614
0.72985523
0.75714004
0.73934953
0.74655715
0.73988765
0.74052939
0.73734642
0.73571496
0.73347641
0.73132615
0.72905451
0.72670283
0.72426554
0.72174239
0.71913403
0.71644134
0.71366586
0.71080974
0.70787588
0.70486788
0.70179014
0.69864785
0.69544699
0.69219433
0.68889743
0.6855645
0.68220443
0.67882667
0.67544109
0.67205789
0.66868748
0.66534024
0.66202645
0.65875599
0.65553824
0.65238182
0.64929443
0.64628272
0.64335214
0.64050687
0.63774978
0.63508244
0.6325051
0.63001677
0.62761521
0.62529701
0.62305763
0.62089143
0.6187918
0.6167512
0.61476129
0.61281298
0.61089655
0.60900171
0.60711775
0.60523354
0.60333755
0.6014176
0.59946054
0.59745204
0.59537729
0.59322409
0.59098916
0.58868872
0.58637311
0.58414359
0.58217423
0.5807338
0.58012782
0.58048153
0.58234256
0.58510304
0.58784568
0.58949304
0.58955578
0.5876436
0.5831721
0.58616591
0.66273319
0.78451806
0.73103811
0.75844986
0.74037007
0.74739611
0.74046825
0.74049943
0.7374133
0.73554595
0.7331423
0.73076369
0.72827276
0.72569077
0.72301658
0.72025042
0.71739373
0.71444846
0.71141734
0.7083039
0.70511256
0.70184862
0.69851833
0.69512886
0.69168829
0.68820558
0.68469048
0.68115343
0.67760546
0.67405801
0.67052279
0.66701162
0.66353617
0.66010786
0.65673755
0.6534354
0.65021062
0.64707128
0.64402417
0.64107466
0.63822659
0.63548232
0.63284267
0.63030703
0.6278734
0.62553853
0.62329795
0.62114609
0.61907637
0.61708126
0.61515244
0.61328082
0.61145674
0.60967001
0.60791002
0.60616585
0.60442641
0.60268052
0.60091684
0.5991237
0.59728886
0.59539964
0.5934442
0.59141516
0.5893164
0.58717321
0.58504515
0.58304066
0.58133989
0.58021266
0.57993289
0.58071591
0.58287007
0.58586573
0.58875959
0.59048584
0.59052029
0.58846667
0.5844802
0.58737689
0.66427439
0.78595609
0.73175575
0.75929474
0.74070454
0.74697665
0.740246
0.74003344
0.73684566
0.7346471
0.73203249
0.72939067
0.72663918
0.72378783
0.72083764
0.71779003
0.71464755
0.71141357
0.70809247
0.70468961
0.70121146
0.69766556
0.69406056
0.69040617
0.68671312
0.682993
0.67925819
0.67552163
0.67179666
0.66809681
0.66443553
0.66082598
0.65728082
0.65381191
0.65043015
0.6471452
0.64396533
0.64089722
0.63794586
0.63511448
0.63240455
0.62981581
0.62734642
0.62499303
0.62275098
0.62061442
0.61857646
0.61662927
0.61476423
0.61297198
0.6112426
0.60956568
0.60793044
0.6063258
0.60474055
0.60316338
0.60158313
0.59998877
0.59836941
0.59671412
0.59501183
0.59325175
0.59142521
0.58952982
0.58757654
0.58559928
0.58366577
0.58189024
0.58045826
0.579633
0.57967058
0.58084568
0.58329395
0.58649749
0.58952932
0.59132654
0.59139777
0.58925972
0.58579078
0.58845215
0.66548099
0.78684506
0.73195737
0.75928256
0.74032106
0.74620866
0.7395082
0.73876795
0.73545438
0.73290637
0.73002925
0.72708529
0.72402878
0.72086482
0.71759574
0.71422466
0.71075582
0.70719458
0.70354759
0.69982273
0.69602923
0.6921776
0.68827961
0.68434816
0.68039718
0.6764414
0.67249612
0.66857696
0.66469958
0.66087937
0.65713116
0.65346893
0.64990556
0.64645254
0.64311979
0.63991541
0.63684563
0.63391463
0.63112455
0.62847553
0.62596578
0.62359175
0.62134833
0.61922907
0.61722635
0.61533164
0.6135356
0.61182826
0.61019912
0.60863724
0.60713139
0.60567013
0.60424189
0.60283509
0.60143819
0.60003987
0.59862917
0.59719552
0.59572875
0.59421892
0.59265637
0.59103247
0.58934184
0.58758705
0.5857858
0.58397985
0.58224336
0.5806953
0.57952859
0.57899629
0.57934825
0.58086953
0.58359731
0.58698499
0.59012776
0.59196115
0.59212315
0.58996856
0.58700692
0.58930116
0.66626506
0.78703588
0.7315456
0.75762289
0.73919075
0.74452178
0.73792243
0.73660209
0.73313192
0.73019778
0.72700109
0.72370898
0.72029791
0.71677266
0.71313698
0.70939633
0.7055574
0.7016284
0.69761916
0.69354102
0.68940692
0.68523124
0.68102969
0.67681906
0.672617
0.66844166
0.66431142
0.66024443
0.65625831
0.65236972
0.64859403
0.644945
0.64143451
0.63807232
0.63486594
0.63182053
0.62893883
0.62622129
0.62366606
0.62126925
0.6190251
0.61692625
0.61496401
0.61312865
0.61140967
0.60979596
0.60827601
0.60683802
0.60546999
0.60415981
0.60289538
0.60166463
0.60045565
0.5992567
0.59805635
0.59684361
0.59560805
0.59433987
0.59302988
0.59166938
0.59025042
0.5887667
0.58721625
0.58560638
0.583961
0.58232844
0.58078763
0.57946386
0.57855846
0.57831148
0.57896463
0.58079101
0.5837692
0.58731635
0.59054578
0.59239603
0.59266496
0.59056958
0.58805159
0.58982999
0.66652403
0.78637448
0.73038591
0.75573747
0.73748668
0.74191385
0.7353844
0.73344754
0.72974154
0.72638285
0.72280254
0.71910676
0.71528406
0.71134153
0.70728532
0.70312417
0.69886842
0.69453036
0.69012424
0.68566613
0.68117377
0.67666641
0.67216444
0.6676891
0.66326202
0.65890479
0.6546385
0.65048321
0.64645751
0.64257807
0.63885926
0.63531289
0.631948
0.62877073
0.62578436
0.6229894
0.62038368
0.61796264
0.61571956
0.61364585
0.61173137
0.60996483
0.60833403
0.60682622
0.60542834
0.60412719
0.6029096
0.60176245
0.60067282
0.59962795
0.59861537
0.59762291
0.59663874
0.59565141
0.59465
0.59362418
0.5925644
0.5914619
0.59030871
0.58909767
0.58782273
0.58648016
0.58507141
0.58360823
0.58212
0.58066014
0.57931192
0.57820988
0.57755935
0.57757796
0.57850851
0.58060972
0.58380084
0.58747347
0.5907632
0.592657
0.59294272
0.59101601
0.58887199
0.58994828
0.66622254
0.7848138
0.72837266
0.75282816
0.73483997
0.73828136
0.73177958
0.72917222
0.72514161
0.72130364
0.71726492
0.7130969
0.70879496
0.70437023
0.69983288
0.69519645
0.69047661
0.68569135
0.68086088
0.67600729
0.67115428
0.66632676
0.66155034
0.65685082
0.6522536
0.64778299
0.64346168
0.63931006
0.63534574
0.63158316
0.62803327
0.6247034
0.62159732
0.61871535
0.6160546
0.61360932
0.61137125
0.60933003
0.60747359
0.60578854
0.60426057
0.60287478
0.60161603
0.60046919
0.59941934
0.59845192
0.59755278
0.59670822
0.59590499
0.59513032
0.59437193
0.59361801
0.59285729
0.59207904
0.59127317
0.59043038
0.58954224
0.58860127
0.58760099
0.58653597
0.58540231
0.584199
0.58293081
0.58161369
0.58028162
0.57899187
0.57783266
0.57694896
0.57654258
0.57680765
0.57798924
0.580326
0.58367805
0.58742824
0.59074711
0.59270725
0.59304344
0.59125263
0.58938921
0.58958447
0.66534297
0.7822415
0.7254421
0.74887499
0.73118885
0.73349807
0.72694788
0.72361462
0.71914827
0.71475773
0.71017318
0.70545045
0.70059089
0.69561162
0.69052924
0.68536421
0.68013955
0.67488078
0.66961557
0.66437328
0.65918439
0.65407991
0.64909057
0.64424607
0.63957422
0.63510016
0.63084562
0.62682839
0.62306185
0.61955483
0.61631162
0.61333214
0.61061232
0.60814458
0.60591837
0.60392072
0.6021368
0.60055042
0.59914448
0.59790142
0.59680351
0.5958332
0.59497333
0.59420738
0.59351954
0.59289473
0.59231867
0.59177779
0.59125923
0.59075076
0.59024081
0.58971841
0.58917323
0.5885956
0.58797659
0.58730818
0.58658328
0.58579591
0.58494124
0.58401576
0.58301791
0.58194941
0.58081833
0.57964456
0.57846593
0.57734271
0.57636891
0.57569789
0.57551893
0.57600576
0.57740916
0.57993794
0.58339319
0.58717016
0.59050066
0.59250111
0.59280754
0.5912446
0.58953279
0.58877431
0.66381531
0.77847545
0.72154751
0.74371014
0.72633819
0.72738984
0.7206833
0.71655284
0.71152089
0.70648056
0.70124762
0.69587507
0.69037258
0.68476565
0.67908003
0.67334545
0.66759433
0.66186149
0.65618344
0.65059768
0.64514172
0.63985205
0.63476303
0.62990582
0.62530737
0.62098967
0.61696913
0.61325638
0.6098562
0.60676787
0.60398563
0.60149934
0.59929523
0.59735671
0.5956651
0.59420038
0.59294171
0.59186802
0.59095837
0.59019224
0.58954987
0.58901234
0.58856176
0.58818135
0.58785539
0.58756927
0.58730934
0.58706286
0.58681792
0.58656338
0.5862888
0.58598442
0.58564116
0.58525069
0.58480547
0.5842989
0.58372543
0.58308071
0.58236169
0.58156695
0.58069729
0.57975719
0.57875797
0.5777233
0.5766943
0.57573389
0.57494179
0.57447396
0.5744995
0.57517951
0.57677224
0.57944509
0.58294876
0.58670866
0.5900199
0.59204603
0.59237318
0.59099304
0.58929722
0.58759571
0.66158925
0.77327384
0.71675898
0.73716052
0.72008852
0.71972481
0.71270804
0.70768081
0.70193159
0.69612217
0.69012809
0.68400713
0.67778082
0.67148564
0.66515928
0.65884335
0.6525819
0.64642073
0.64040605
0.63458317
0.62899492
0.62368023
0.61867272
0.61399962
0.60968104
0.60572958
0.60215043
0.59894169
0.59609514
0.59359712
0.59142954
0.58957097
0.58799763
0.58668436
0.58560541
0.58473509
0.58404829
0.58352084
0.58312973
0.58285333
0.58267138
0.58256511
0.58251719
0.58251169
0.58253398
0.58257065
0.58260938
0.58263882
0.58264848
0.58262868
0.58257043
0.58246543
0.58230608
0.58208551
0.58179772
0.58143766
0.5810014
0.58048631
0.57989125
0.57921692
0.57846648
0.57764707
0.5767733
0.57587247
0.57498858
0.57418717
0.57357174
0.57329236
0.57349499
0.57433883
0.57608624
0.578851
0.58235148
0.58605944
0.58932654
0.59137881
0.59173081
0.59050141
0.58880583
0.58614405
0.65859878
0.76622045
0.71082077
0.72894165
0.71211606
0.71014517
0.70262429
0.69657765
0.68995023
0.68324393
0.67637883
0.66942208
0.66241155
0.65539858
0.64843658
0.64158218
0.63489306
0.62842623
0.62223577
0.61637084
0.61087369
0.60577822
0.60110896
0.59688065
0.59309837
0.58975821
0.58684825
0.58434986
0.58223907
0.58048803
0.57906632
0.57794221
0.57708362
0.576459
0.57603797
0.5757917
0.57569323
0.57571761
0.57584187
0.57604507
0.57630813
0.57661376
0.5769463
0.57729162
0.57763689
0.57797054
0.57828201
0.57856173
0.57880092
0.57899159
0.57912637
0.57919857
0.57920213
0.57913177
0.57898307
0.57875255
0.57843795
0.5780384
0.57755473
0.57698974
0.57634887
0.57564186
0.57488651
0.57411347
0.57336932
0.57272201
0.57227498
0.57216418
0.57251616
0.57349765
0.57536032
0.5781606
0.58161082
0.58524025
0.58844462
0.59052341
0.59094397
0.58983342
0.58808823
0.58468729
0.6546892
0.75666721
0.7031985
0.71859362
0.70195881
0.69817438
0.68992438
0.68272493
0.67505991
0.66733145
0.65950036
0.65164908
0.64383871
0.63614122
0.62862961
0.62137684
0.61445223
0.60791874
0.60183006
0.59622865
0.59114438
0.58659413
0.58258206
0.57910072
0.57613257
0.57365181
0.57162631
0.57001962
0.56879262
0.56790516
0.56731725
0.56699012
0.56688689
0.56697312
0.56721706
0.56758976
0.56806509
0.56861957
0.56923227
0.56988451
0.5705597
0.57124307
0.57192146
0.57258312
0.57321751
0.57381518
0.57436765
0.57486726
0.57530709
0.57568089
0.57598299
0.57620831
0.57635238
0.57641148
0.57638272
0.57626422
0.57605536
0.57575704
0.57537201
0.57490516
0.57436411
0.5737611
0.57311683
0.57246462
0.57185325
0.57135231
0.57106065
0.57109571
0.57157347
0.57266802
0.57459702
0.57737289
0.58073253
0.58426612
0.58741418
0.58951583
0.59004162
0.58904502
0.58720791
0.58340569
0.64957032
0.74482022
0.69345506
0.7055674
0.68904049
0.68325335
0.67400553
0.66549921
0.65664097
0.64778164
0.63893132
0.63019688
0.62166952
0.61344491
0.60561343
0.598257
0.59144477
0.58523042
0.57965035
0.57472334
0.57045121
0.56682067
0.56380556
0.56136963
0.55946932
0.55805639
0.55708021
0.55648977
0.55623516
0.55626876
0.55654599
0.55702579
0.55767087
0.55844777
0.5593267
0.56028142
0.56128888
0.56232899
0.56338423
0.56443936
0.56548107
0.56649772
0.56747906
0.56841601
0.56930048
0.57012527
0.57088397
0.57157086
0.57218087
0.57270943
0.5731525
0.57350657
0.57376868
0.5739366
0.57400893
0.57398529
0.57386666
0.57365566
0.5733569
0.57297723
0.57252644
0.57201911
0.57147817
0.57093864
0.5704507
0.57008416
0.56992996
0.57008868
0.57067261
0.57184811
0.57378463
0.57647755
0.57970926
0.58311932
0.58619564
0.5883312
0.58900225
0.58815012
0.58621038
0.58234717
0.64290466
0.73132946
0.68102797
0.689272
0.67263616
0.66464986
0.6540881
0.64410228
0.63393236
0.62391087
0.61410936
0.60466471
0.59569515
0.58730965
0.57959858
0.57263065
0.5664503
0.56107766
0.55650991
0.55272425
0.54968145
0.54733001
0.54561011
0.54445728
0.54380546
0.54358949
0.54374693
0.5442193
0.54495285
0.54589895
0.54701417
0.54826012
0.54960321
0.5510143
0.55246826
0.55394354
0.55542177
0.55688732
0.55832691
0.55972924
0.56108463
0.56238472
0.56362223
0.56479071
0.56588447
0.56689848
0.56782827
0.56866996
0.56942012
0.57007578
0.57063438
0.57109384
0.57145262
0.57170983
0.57186546
0.57192055
0.57187758
0.57174078
0.5715165
0.57121348
0.57084356
0.57042338
0.56997728
0.56954074
0.56916392
0.56891472
0.56887564
0.56913571
0.56980028
0.57101102
0.57289627
0.57545451
0.57851304
0.58175434
0.58472584
0.58688665
0.58773019
0.5870802
0.58515261
0.58139796
0.63435556
0.7138165
0.66506416
0.66879453
0.65168121
0.6412881
0.62912676
0.61756116
0.60611527
0.59511536
0.58469057
0.57499416
0.56614529
0.55823359
0.5513136
0.54540574
0.5404988
0.53655476
0.53351456
0.53130424
0.52984077
0.52903713
0.52880642
0.52906495
0.5297343
0.53074267
0.53202547
0.53352543
0.53519241
0.53698298
0.53885979
0.54079103
0.54274978
0.54471337
0.54666286
0.54858248
0.55045917
0.55228215
0.55404252
0.55573292
0.55734718
0.55888003
0.56032693
0.56168387
0.56294732
0.56411416
0.5651817
0.56614761
0.56700995
0.56776712
0.56841787
0.56896138
0.56939734
0.56972608
0.56994882
0.57006792
0.57008722
0.57001244
0.56985149
0.56961483
0.56931618
0.56897375
0.56861247
0.56826693
0.56798511
0.56783052
0.56787808
0.5682082
0.56891388
0.57010899
0.57189054
0.57426067
0.57708412
0.58009141
0.58290126
0.58505264
0.58607409
0.58569418
0.58394626
0.58051407
0.62325726
0.69122991
0.64414697
0.64270206
0.62468617
0.61177225
0.59794774
0.58497708
0.57263981
0.56123739
0.55091392
0.54179236
0.5339396
0.52737481
0.52207219
0.51796962
0.51497756
0.5129887
0.51188645
0.51155217
0.51187056
0.5127335
0.51404227
0.51570873
0.51765552
0.51981572
0.52213209
0.52455618
0.52704729
0.5295715
0.53210073
0.53461187
0.53708604
0.5395079
0.54186509
0.54414772
0.54634795
0.5484596
0.55047783
0.55239879
0.55421941
0.55593712
0.55754974
0.55905532
0.56045218
0.56173884
0.56291407
0.5639769
0.56492659
0.56576268
0.56648503
0.56709387
0.56758991
0.56797456
0.5682501
0.56842004
0.56848947
0.56846536
0.56835698
0.56817625
0.56793831
0.56766231
0.56737284
0.5671023
0.56689418
0.56680511
0.56690215
0.56725848
0.56795504
0.56908029
0.57070402
0.5728274
0.575345
0.5780415
0.58061556
0.5826985
0.58388129
0.58384605
0.58249274
0.57965562
0.60846661
0.66147012
0.61634805
0.60923649
0.59004528
0.57473188
0.55967806
0.54601919
0.53372051
0.52300084
0.51393391
0.50653724
0.50076005
0.49650167
0.49362508
0.49197233
0.4913774
0.49167652
0.49271529
0.49435319
0.49646568
0.49894478
0.50169841
0.50464916
0.50773268
0.51089598
0.5140958
0.5172971
0.52047166
0.52359698
0.5266552
0.52963234
0.53251752
0.53530243
0.5379808
0.54054804
0.54300092
0.5453372
0.54755547
0.5496548
0.55163465
0.55349463
0.55523444
0.55685383
0.5583526
0.55973059
0.56098777
0.56212423
0.56314022
0.56403618
0.56481283
0.56547124
0.56601296
0.56644022
0.56675621
0.56696542
0.56707391
0.56708974
0.56702321
0.56688723
0.56669765
0.56647361
0.56623832
0.56602071
0.56585835
0.5657996
0.56590285
0.56623347
0.56686164
0.56785647
0.56926608
0.5710856
0.57323319
0.57554979
0.57781666
0.57976561
0.58108367
0.58147446
0.58075746
0.57881223
0.58795854
0.62218496
0.57948687
0.56661009
0.54677963
0.5294963
0.51438558
0.50148572
0.49076584
0.48226894
0.47589655
0.47148706
0.46882655
0.46767783
0.46779964
0.46896213
0.47095605
0.47359753
0.4767293
0.48021968
0.48396026
0.487863
0.49185719
0.49588662
0.49990702
0.50388381
0.50779025
0.5116059
0.51531531
0.51890703
0.52237279
0.52570676
0.5289051
0.53196547
0.53488674
0.53766867
0.54031172
0.54281682
0.54518523
0.54741828
0.54951735
0.55148372
0.55331852
0.5550228
0.55659749
0.55804348
0.55936163
0.56055285
0.56161813
0.56255862
0.56337568
0.564071
0.56464672
0.56510571
0.56545183
0.56569024
0.56582777
0.56587319
0.56583743
0.56573379
0.56557788
0.56538763
0.56518357
0.56499023
0.56483884
0.56476987
0.56483313
0.56508526
0.5655859
0.56638986
0.56753071
0.56900084
0.57074047
0.5726413
0.57456107
0.57633624
0.57777896
0.57867646
0.57881654
0.57801096
0.55914082
0.57086754
0.5322565
0.51349756
0.49256394
0.47686285
0.4636873
0.45364413
0.44646683
0.44190965
0.43962233
0.43923709
0.44039175
0.44275569
0.44604048
0.45000369
0.45444691
0.45921125
0.46417156
0.46923061
0.47431378
0.47936445
0.48434015
0.4892095
0.49394964
0.49854437
0.50298252
0.50725684
0.511363
0.51529891
0.51906412
0.52265945
0.52608659
0.52934789
0.53244615
0.53538446
0.53816606
0.54079424
0.54327219
0.54560291
0.54778914
0.54983336
0.55173774
0.55350427
0.5551347
0.55663068
0.55799374
0.55922538
0.56032711
0.56130056
0.56214755
0.56287019
0.56347103
0.56395331
0.56432125
0.56458041
0.56473801
0.56480312
0.56478687
0.56470216
0.56456341
0.56438609
0.56418682
0.56398504
0.56380622
0.56368469
0.56366319
0.56378953
0.56411326
0.56467915
0.56551429
0.5666163
0.56794986
0.5694504
0.57104091
0.57265844
0.57425358
0.57573128
0.57686251
0.5772977
0.51787612
0.50506674
0.46740282
0.4492713
0.43163162
0.41926041
0.41082714
0.40611101
0.40445174
0.40525697
0.40795153
0.41204278
0.4171237
0.42287201
0.42903917
0.43543771
0.44192865
0.44841054
0.45481046
0.46107691
0.46717436
0.47307902
0.47877579
0.4842559
0.48951514
0.49455265
0.49936991
0.50397004
0.5083573
0.51253667
0.5165136
0.52029375
0.52388286
0.52728665
0.53051075
0.5335606
0.53644142
0.53915811
0.54171522
0.54411687
0.54636674
0.5484681
0.55042385
0.55223659
0.55390868
0.55544227
0.55683935
0.55810179
0.55923146
0.56023027
0.56110032
0.56184396
0.56246392
0.56296358
0.56334725
0.56362054
0.56379072
0.56386683
0.56385959
0.56378087
0.56364299
0.56345794
0.56323769
0.56299666
0.56275557
0.56254378
0.56239842
0.5623622
0.56247974
0.56278948
0.56331596
0.56406971
0.5650454
0.56621879
0.56756621
0.56910514
0.57091566
0.57303357
0.57517359
0.57671579
0.4551557
0.42222368
0.39222786
0.37719698
0.36622782
0.36135104
0.36075275
0.36350504
0.36860695
0.37529095
0.38296535
0.39120084
0.3996934
0.40823337
0.41667921
0.42493776
0.43294969
0.44067907
0.44810612
0.45522196
0.46202514
0.46851909
0.4747104
0.48060766
0.4862206
0.49155955
0.49663502
0.50145748
0.50603715
0.51038388
0.5145071
0.51841575
0.52211831
0.52562274
0.52893652
0.53206664
0.53501961
0.53780139
0.54041739
0.54287244
0.54517081
0.54731628
0.54931218
0.55116152
0.55286704
0.55443122
0.55585635
0.55714456
0.55829786
0.55931832
0.5602081
0.5609696
0.56160556
0.56211924
0.56251477
0.56279764
0.56297501
0.56305559
0.56304924
0.56296618
0.56281598
0.56260672
0.56234576
0.56204316
0.56171546
0.56138812
0.5610961
0.56088215
0.56078955
0.56085388
0.56110505
0.56157289
0.56228169
0.56324678
0.56448979
0.56607891
0.56817346
0.57090376
0.57396136
0.57631494
0.35837648
0.32460821
0.30682352
0.3022737
0.30364314
0.3099399
0.31917044
0.33005721
0.34171818
0.35359631
0.36535209
0.37678706
0.38779193
0.39831264
0.40832889
0.41784062
0.42685955
0.43540398
0.44349549
0.451157
0.4584115
0.4652814
0.47178808
0.47795172
0.48379121
0.48932414
0.49456683
0.4995344
0.50424081
0.50869896
0.51292076
0.51691716
0.5206983
0.5242735
0.52765137
0.53083982
0.53384612
0.53667684
0.5393379
0.54183455
0.54417139
0.54635247
0.54838139
0.55026137
0.55199537
0.55358612
0.55503612
0.55634761
0.55752266
0.55856327
0.55947154
0.56024984
0.56090073
0.56142715
0.56183293
0.56212347
0.56230574
0.56238778
0.56237797
0.56228477
0.5621154
0.56187425
0.56156455
0.56119254
0.56077129
0.56032439
0.55988778
0.55950594
0.559223
0.55907872
0.55911456
0.55937913
0.55992678
0.56081807
0.56210436
0.56387144
0.56629618
0.56951924
0.57319774
0.57611734
0.21813384
0.21681234
0.22221235
0.23569112
0.25311249
0.27162793
0.29002186
0.30763804
0.3242444
0.33977557
0.35425606
0.36774601
0.38031916
0.39205083
0.40301288
0.41327144
0.42288633
0.43191112
0.4403936
0.44837631
0.45589711
0.46298977
0.46968446
0.47600816
0.48198509
0.48763707
0.49298374
0.49804291
0.50283067
0.50736166
0.51164918
0.51570535
0.51954121
0.52316686
0.52659152
0.52982361
0.5328708
0.53574
0.5384374
0.54096847
0.54333802
0.54555029
0.547609
0.54951752
0.55127892
0.55289598
0.55437128
0.55570706
0.55690529
0.55796785
0.55889686
0.55969451
0.56036295
0.56090477
0.56132392
0.56162597
0.56181789
0.56190557
0.56189506
0.56179353
0.56160842
0.56133959
0.56098761
0.56055575
0.5600553
0.55950881
0.55895175
0.55842992
0.55799178
0.55768399
0.55756081
0.55769646
0.55817679
0.55908262
0.56049765
0.56250096
0.56523439
0.56880115
0.57283134
0.57603474
0.092557539
0.12265838
0.16032862
0.19420875
0.22455001
0.25126438
0.27497376
0.29614664
0.31520102
0.33246461
0.34820152
0.36262325
0.37590146
0.38817658
0.39956473
0.41016282
0.42005244
0.42930284
0.43797327
0.44611474
0.4537715
0.46098213
0.46778048
0.4741964
0.48025633
0.48598381
0.49139989
0.49652346
0.50137151
0.5059594
0.510301
0.51440891
0.51829457
0.52196837
0.5254398
0.52871746
0.53180916
0.53472194
0.53746211
0.54003529
0.54244644
0.54469996
0.54679968
0.54874893
0.55055057
0.55220709
0.55372077
0.5550938
0.55632838
0.55742651
0.55838979
0.55921969
0.55991859
0.56048985
0.5609372
0.56126426
0.56147495
0.56157643
0.5615773
0.56148377
0.56129576
0.56101445
0.56063947
0.56017299
0.55962492
0.55901535
0.55837682
0.55775372
0.55720141
0.55681738
0.55664179
0.55659554
0.55709119
0.55801407
0.55955295
0.561744
0.56469369
0.56846364
0.57266866
0.57600087
0.0089555285
0.28832361
0.47243399
0.5255981
0.53672774
0.53706199
0.53648434
0.53768178
0.53915458
0.54075631
0.54232368
0.5438515
0.545325
0.54681062
0.54824309
0.54969794
0.55116248
0.55263309
0.55410956
0.55559156
0.55707831
0.55856867
0.56006125
0.56155454
0.56304691
0.56453672
0.56602226
0.56750187
0.5689739
0.57043679
0.57188899
0.5733291
0.57475576
0.57616773
0.57756389
0.5789432
0.58030474
0.58164768
0.58297131
0.58427498
0.58555816
0.5868204
0.58806135
0.58928075
0.59047844
0.59165424
0.59280798
0.59393956
0.59504889
0.59613571
0.59719948
0.59823927
0.59925361
0.60024017
0.60119548
0.6021143
0.60298877
0.60380754
0.60455497
0.60521132
0.60575102
0.606142
0.60634583
0.60631839
0.60601714
0.60537957
0.60437788
0.60291289
0.60105357
0.59848972
0.59558308
0.59145122
0.5874441
0.58141933
0.57778596
0.57256619
0.57470358
0.5726059
0.58001308
0.57684161
0.054172923
0.37573716
0.52722174
0.5563835
0.5575769
0.55508076
0.55404839
0.55413953
0.55435245
0.55463253
0.55500863
0.55553899
0.55619717
0.55694539
0.55776625
0.55864549
0.55957853
0.56056203
0.56159111
0.56266091
0.56376698
0.56490512
0.56607133
0.56726182
0.56847298
0.56970135
0.57094365
0.57219674
0.57345761
0.57472343
0.57599151
0.57725932
0.5785245
0.57978486
0.58103834
0.58228307
0.58351734
0.58473957
0.58594834
0.58714238
0.58832052
0.58948174
0.59062515
0.59174998
0.59285553
0.59394115
0.5950062
0.59605007
0.59707216
0.59807171
0.5990476
0.5999983
0.60092165
0.60181455
0.60267273
0.60349007
0.60425788
0.60496395
0.60559191
0.6061213
0.60652619
0.60677532
0.60683217
0.60665544
0.60620449
0.60542152
0.60427925
0.60268835
0.60069875
0.59803955
0.59500915
0.59079858
0.58671716
0.5807274
0.57724962
0.57243974
0.5746684
0.57323674
0.58022616
0.57714839
0.12213783
0.45623784
0.55082653
0.56521739
0.56370702
0.5623279
0.56219864
0.5626557
0.56299267
0.56342435
0.56385593
0.56434691
0.56486951
0.5654428
0.56605608
0.56671372
0.56741317
0.56815349
0.56893287
0.5697494
0.57060112
0.5714859
0.57240151
0.57334559
0.5743157
0.57530934
0.57632393
0.57735685
0.57840548
0.5794672
0.58053939
0.5816195
0.58270505
0.58379364
0.58488293
0.58597075
0.58705499
0.58813368
0.58920498
0.59026715
0.59131858
0.59235778
0.59338337
0.5943941
0.5953888
0.5963663
0.59732547
0.5982652
0.59918434
0.60008158
0.60095522
0.60180311
0.60262239
0.60340925
0.60415864
0.60486369
0.60551502
0.60609977
0.60660105
0.60699794
0.60726467
0.60737102
0.60728271
0.60696063
0.60636577
0.60544409
0.60417026
0.60245795
0.60035205
0.59759202
0.59445497
0.59016275
0.58601582
0.5800934
0.57676176
0.57238338
0.57466125
0.57381318
0.58041484
0.57743092
0.20067518
0.51096438
0.56538866
0.57404039
0.57105543
0.57076775
0.57080835
0.57129854
0.5715381
0.57192077
0.57225554
0.57265716
0.57307707
0.57353378
0.57401345
0.57452279
0.57506008
0.57562661
0.5762222
0.57684666
0.57749965
0.57818062
0.57888882
0.57962332
0.58038298
0.58116648
0.58197233
0.58279886
0.58364426
0.58450661
0.58538388
0.58627397
0.58717472
0.58808397
0.58899955
0.58991931
0.59084113
0.59176293
0.59268272
0.59359853
0.5945085
0.59541082
0.59630377
0.59718571
0.59805508
0.59891028
0.59974974
0.60057187
0.60137502
0.60215733
0.60291658
0.60365
0.6043541
0.60502439
0.60565512
0.60623877