/*--------------------------------*- C++ -*----------------------------------*\
  =========                 |
  \\      /  F ield         | OpenFOAM: The Open Source CFD Toolbox
   \\    /   O peration     | Website:  https://openfoam.org
    \\  /    A nd           | Version:  12
     \\/     M anipulation  |
\*---------------------------------------------------------------------------*/
FoamFile
{
    format      ascii;
    class       volScalarField;
    location    "0.024";
    object      nut;
}
// * * * * * * * * * * * * * * * * * * * * * * * * * * * * * * * * * * * * * //

dimensions      [0 2 -1 0 0 0 0];

internalField   nonuniform List<scalar> 
16000
(
4.5088309e-07
9.8561546e-06
1.9438686e-05
2.3178165e-05
1.8069036e-05
2.4568345e-05
1.7598297e-05
2.397846e-05
1.8979531e-05
2.5915836e-05
2.2119696e-05
2.5703186e-05
2.3581433e-05
2.4114961e-05
2.3348521e-05
2.3207425e-05
2.2979049e-05
2.291948e-05
2.2938849e-05
2.3054881e-05
2.3261113e-05
2.3556415e-05
2.39385e-05
2.4407131e-05
2.4964449e-05
2.5616149e-05
2.63701e-05
2.7238942e-05
2.8237951e-05
2.9383369e-05
3.0693057e-05
3.2190976e-05
3.3908131e-05
3.5882659e-05
3.8161292e-05
4.0799482e-05
4.3862904e-05
4.7429542e-05
5.1595734e-05
5.6480331e-05
6.2221878e-05
6.8983102e-05
7.6968952e-05
8.6428716e-05
9.7656036e-05
0.00011100026
0.00012689088
0.00014584367
0.00016847422
0.00019551332
0.00022782529
0.00026642353
0.00031247816
0.00036732792
0.00043247796
0.0005095809
0.00060038092
0.00070662426
0.00083015024
0.00097241635
0.0010252286
0.0010265867
0.0010279342
0.0010292214
0.0010303937
0.0010314224
0.0010322478
0.0010327487
0.0010325917
0.0010309462
0.0010268536
0.0010217954
0.0010223806
0.0010269179
0.0010260831
0.0010216351
0.0010149205
0.0010099027
0.001006611
0.0010038422
4.0930611e-07
9.3789646e-06
1.9580538e-05
2.1088196e-05
1.6351493e-05
2.2060133e-05
1.5670193e-05
2.1046597e-05
1.6786758e-05
2.2947024e-05
2.0063265e-05
2.3205633e-05
2.157966e-05
2.1866426e-05
2.126317e-05
2.1071669e-05
2.0876688e-05
2.0808765e-05
2.0824773e-05
2.0926884e-05
2.1113286e-05
2.1382459e-05
2.173264e-05
2.2163488e-05
2.2676552e-05
2.3277013e-05
2.3971478e-05
2.4771136e-05
2.5690244e-05
2.6744388e-05
2.7949814e-05
2.9327968e-05
3.0907027e-05
3.2721688e-05
3.4814913e-05
3.7237903e-05
4.0051613e-05
4.3327718e-05
4.71539e-05
5.1640171e-05
5.6916373e-05
6.3131171e-05
7.0471859e-05
7.9169057e-05
8.9495552e-05
0.00010177121
0.00011639043
0.00013382803
0.00015465103
0.00017953226
0.00020926872
0.00024480024
0.00028721808
0.00033778177
0.00039792472
0.00046925105
0.00055350803
0.000652543
0.00076825337
0.00090244723
0.001024925
0.0010262759
0.0010275161
0.0010287318
0.0010298535
0.0010308345
0.0010315794
0.0010319188
0.0010314791
0.0010294604
0.0010250662
0.0010200351
0.0010221436
0.0010266635
0.0010247506
0.0010200507
0.0010128687
0.0010089219
0.0010061816
0.0010041593
3.6690848e-07
9.013983e-06
1.855224e-05
1.9272233e-05
1.4683294e-05
1.9466086e-05
1.3984485e-05
1.8328142e-05
1.5109622e-05
2.0164154e-05
1.8307457e-05
2.0672189e-05
1.9536704e-05
1.9579423e-05
1.9111855e-05
1.8901094e-05
1.8734583e-05
1.8669914e-05
1.8686443e-05
1.8780418e-05
1.895116e-05
1.9197618e-05
1.9518143e-05
1.9912752e-05
2.0382437e-05
2.0932195e-05
2.156772e-05
2.2298967e-05
2.3139049e-05
2.4102967e-05
2.5205856e-05
2.6467163e-05
2.7912711e-05
2.9574232e-05
3.1491354e-05
3.3711417e-05
3.6291244e-05
3.9297473e-05
4.2810436e-05
4.693159e-05
5.178351e-05
5.7503594e-05
6.4263714e-05
7.2277179e-05
8.1799117e-05
9.3124114e-05
0.00010661536
0.00012271045
0.00014193119
0.00016489584
0.00019233487
0.00022511145
0.00026422883
0.00031084893
0.0003663012
0.00043208938
0.00050987986
0.00060148099
0.00070882336
0.00083388796
0.00097847292
0.0010261416
0.0010272732
0.0010284023
0.0010294534
0.0010303607
0.0010309934
0.001031129
0.001030339
0.0010278564
0.0010232454
0.0010189119
0.0010219077
0.0010259627
0.0010232926
0.0010183125
0.0010113604
0.0010079118
0.0010053512
0.0010040973
3.334713e-07
8.7348909e-06
1.7640479e-05
1.852623e-05
1.3330417e-05
1.7212679e-05
1.2488486e-05
1.6036488e-05
1.361449e-05
1.7793093e-05
1.6711686e-05
1.8423704e-05
1.7647369e-05
1.7518889e-05
1.7153072e-05
1.6943476e-05
1.6802613e-05
1.6746328e-05
1.6765967e-05
1.6855155e-05
1.7013571e-05
1.7240992e-05
1.7535712e-05
1.7898487e-05
1.8329808e-05
1.8834665e-05
1.9418128e-05
2.008918e-05
2.0859884e-05
2.1744801e-05
2.2758341e-05
2.3918316e-05
2.5248704e-05
2.6778794e-05
2.8545536e-05
3.0593126e-05
3.2975072e-05
3.5754303e-05
3.9005611e-05
4.2823145e-05
4.7324396e-05
5.2638823e-05
5.8926876e-05
6.638833e-05
7.5266802e-05
8.5839578e-05
9.8448292e-05
0.00011350531
0.00013150271
0.0001530246
0.00017875967
0.00020952565
0.00024627543
0.00029011839
0.00034233213
0.00040437837
0.00047790427
0.00056473395
0.0006668608
0.00078641928
0.00092557886
0.001026031
0.0010270676
0.001028105
0.001029076
0.0010298937
0.001030393
0.0010302993
0.0010291346
0.0010261709
0.0010213713
0.0010184322
0.0010219686
0.00102473
0.0010218446
0.0010164531
0.0010097378
0.0010068956
0.0010048372
0.0010033993
2.9684035e-07
8.5433581e-06
1.6884714e-05
1.8439794e-05
1.3771859e-05
1.5254236e-05
1.116268e-05
1.4078334e-05
1.2340984e-05
1.5765141e-05
1.5296012e-05
1.6407301e-05
1.5897328e-05
1.5655254e-05
1.5362602e-05
1.5164945e-05
1.5043491e-05
1.4994867e-05
1.5015513e-05
1.5098925e-05
1.5244606e-05
1.5453344e-05
1.5723313e-05
1.6056075e-05
1.6451768e-05
1.6915341e-05
1.7451461e-05
1.8068331e-05
1.8776993e-05
1.9591572e-05
2.052601e-05
2.1596791e-05
2.2826408e-05
2.4242096e-05
2.5878571e-05
2.7777377e-05
2.9989179e-05
3.2574004e-05
3.5602536e-05
3.9162252e-05
4.3366598e-05
4.8339185e-05
5.4231671e-05
6.1231851e-05
6.9574802e-05
7.9524543e-05
9.1405267e-05
0.00010560906
0.00012260417
0.00014294803
0.00016729514
0.00019642639
0.0002312527
0.00027283877
0.00032241589
0.00038140412
0.00045142493
0.00053430227
0.00063206307
0.00074692629
0.00088126126
0.001025971
0.0010269356
0.001027876
0.0010287574
0.0010294709
0.001029817
0.0010294711
0.0010279124
0.0010244711
0.0010195274
0.0010183291
0.0010223904
0.0010234325
0.001020331
0.0010144777
0.0010079526
0.0010058191
0.0010041354
0.0010026393
2.7171171e-07
8.4322082e-06
1.6283269e-05
1.7937513e-05
1.3359674e-05
1.3542595e-05
1.1078644e-05
1.2523168e-05
1.2423664e-05
1.4090719e-05
1.4061449e-05
1.4641355e-05
1.4301379e-05
1.3992255e-05
1.3742789e-05
1.3558078e-05
1.3448366e-05
1.3404212e-05
1.3423387e-05
1.3500188e-05
1.363358e-05
1.3825056e-05
1.407272e-05
1.4378607e-05
1.4742845e-05
1.517017e-05
1.5665051e-05
1.6235085e-05
1.6890367e-05
1.7644592e-05
1.8511463e-05
1.9506435e-05
2.0650855e-05
2.1970306e-05
2.3497731e-05
2.527255e-05
2.7343118e-05
2.9767262e-05
3.2613071e-05
3.5962459e-05
3.9925505e-05
4.4622084e-05
5.0198168e-05
5.6831339e-05
6.4751151e-05
7.4212696e-05
8.5527298e-05
9.9072791e-05
0.00011530033
0.00013474957
0.00015805069
0.00018595926
0.0002193572
0.00025927878
0.00030692403
0.00036368393
0.00043116284
0.00051118789
0.00060581514
0.0007173421
0.00084833644
0.0010017876
0.0010268549
0.0010276962
0.0010284808
0.0010290785
0.0010292535
0.0010286321
0.001026674
0.0010229001
0.001018438
0.0010184003
0.0010225158
0.0010222206
0.0010187261
0.0010123873
0.0010064389
0.0010047375
0.0010033206
0.0010019074
2.5161237e-07
8.3707964e-06
1.5806303e-05
1.6754455e-05
1.319756e-05
1.1962718e-05
1.0913843e-05
1.1508657e-05
1.1001899e-05
1.2545512e-05
1.2907916e-05
1.3061358e-05
1.2803188e-05
1.2471532e-05
1.2248424e-05
1.2079626e-05
1.1980539e-05
1.1941912e-05
1.1961106e-05
1.2033591e-05
1.2157775e-05
1.2335457e-05
1.2564995e-05
1.2771765e-05
1.3100546e-05
1.348948e-05
1.3942447e-05
1.4466319e-05
1.5070083e-05
1.5766701e-05
1.6569645e-05
1.7493415e-05
1.8558357e-05
1.9788532e-05
2.1215305e-05
2.2876234e-05
2.481761e-05
2.7095248e-05
2.9775622e-05
3.3186839e-05
3.6958194e-05
4.1436893e-05
4.6766064e-05
5.3114692e-05
6.0708419e-05
6.9797044e-05
8.0682813e-05
9.3733841e-05
0.00010938856
0.00012817563
0.00015070768
0.0001777229
0.00021008263
0.00024879978
0.0002950522
0.00035020828
0.00041585672
0.00049382435
0.00058618823
0.00069530882
0.0008239216
0.00097539598
0.0010268217
0.0010275641
0.0010282468
0.0010287184
0.0010287026
0.0010277782
0.0010254569
0.0010215698
0.0010177384
0.0010185135
0.0010223445
0.0010211995
0.0010170398
0.0010102736
0.0010050132
0.0010037287
0.0010024216
0.0010011979
2.2568316e-07
8.3330827e-06
1.5377665e-05
1.5096173e-05
1.1422952e-05
1.0401705e-05
8.8766421e-06
9.7676219e-06
9.7036582e-06
1.1305071e-05
1.1745104e-05
1.1598354e-05
1.1375113e-05
1.1058143e-05
1.0858713e-05
1.0710717e-05
1.0625249e-05
1.0595366e-05
1.0552895e-05
1.0608527e-05
1.0715951e-05
1.0875317e-05
1.1084821e-05
1.1343148e-05
1.1654912e-05
1.2022557e-05
1.2449999e-05
1.2944058e-05
1.3513156e-05
1.4169823e-05
1.4927739e-05
1.580089e-05
1.6809128e-05
1.7975539e-05
1.9330549e-05
2.091052e-05
2.2760474e-05
2.4934952e-05
2.7499767e-05
3.0534135e-05
3.4133469e-05
3.8417623e-05
4.3529114e-05
5.0050669e-05
5.7409669e-05
6.6233636e-05
7.6819585e-05
8.9529627e-05
0.00010479328
0.00012313472
0.00014515514
0.00017158256
0.00020326567
0.00024120442
0.00028656342
0.00034069592
0.0004051781
0.00048183553
0.00057276226
0.00068037264
0.00080755126
0.00095801571
0.0010268279
0.0010274731
0.0010280485
0.0010283825
0.0010281518
0.0010269109
0.0010242726
0.0010203413
0.0010172875
0.0010189344
0.0010220292
0.0010201938
0.001015316
0.0010081975
0.0010036835
0.0010028602
0.001001592
0.0010005293
2.0733869e-07
8.2912142e-06
1.4881837e-05
1.3229369e-05
9.396122e-06
9.2580085e-06
7.4283182e-06
8.8169644e-06
8.9781829e-06
1.01161e-05
1.0586272e-05
1.0247574e-05
1.0038319e-05
9.755071e-06
9.5789818e-06
9.3866025e-06
9.2913861e-06
9.256687e-06
9.2739035e-06
9.3408943e-06
9.4536647e-06
9.6121548e-06
9.8165249e-06
1.0066091e-05
1.0364581e-05
1.07155e-05
1.1122869e-05
1.1593538e-05
1.2135537e-05
1.2760949e-05
1.3483764e-05
1.4317698e-05
1.528241e-05
1.6400302e-05
1.7701212e-05
1.9220766e-05
2.1003198e-05
2.3102324e-05
2.5583179e-05
2.8523958e-05
3.2020051e-05
3.6188846e-05
4.1174904e-05
4.7141791e-05
5.4297391e-05
6.2895452e-05
7.3880221e-05
8.6391e-05
0.00010143102
0.00011952537
0.00014126931
0.00016738691
0.00019872092
0.00023626522
0.00028117858
0.00033480575
0.00039871363
0.0004747259
0.0005649516
0.0006718561
0.00079846267
0.00094881707
0.0010268692
0.001027419
0.001027876
0.0010280598
0.0010275905
0.0010260286
0.001023094
0.001019154
0.001017204
0.0010196716
0.0010214696
0.0010190172
0.0010136288
0.0010062751
0.0010024613
0.0010021586
0.0010010816
0.00099989356
1.9119485e-07
8.2483538e-06
1.2924908e-05
1.1576457e-05
7.6013619e-06
8.2685103e-06
6.7145386e-06
7.9038858e-06
8.365841e-06
9.04697e-06
9.440347e-06
9.0151986e-06
8.8107017e-06
8.4821673e-06
8.2967832e-06
8.1742912e-06
8.1112813e-06
8.1000373e-06
8.1343119e-06
8.2110605e-06
8.3295716e-06
8.488777e-06
8.6899894e-06
8.9330056e-06
9.2218771e-06
9.5605014e-06
9.9530536e-06
1.0406546e-05
1.0928769e-05
1.153138e-05
1.2228735e-05
1.303459e-05
1.3968634e-05
1.505286e-05
1.6316832e-05
1.7795836e-05
1.9533753e-05
2.1584188e-05
2.4012314e-05
2.6896489e-05
3.0331846e-05
3.4434895e-05
3.9352635e-05
4.5247686e-05
5.2328784e-05
6.085002e-05
7.1116864e-05
8.3474038e-05
9.9250677e-05
0.00011728768
0.00013897998
0.0001650531
0.00019635029
0.00023386559
0.00027875863
0.00033237199
0.00039626744
0.00047226869
0.00056250123
0.00066948447
0.00079638365
0.00094757535
0.0010269416
0.0010273992
0.0010277267
0.0010277336
0.0010269882
0.0010251089
0.0010219021
0.001018193
0.0010173869
0.001020302
0.0010207537
0.0010178289
0.0010120551
0.001004649
0.0010013794
0.0010015796
0.0010010632
0.0009993312
1.7643764e-07
8.2012188e-06
1.0260308e-05
9.402665e-06
6.3463054e-06
7.3585882e-06
6.1332712e-06
7.104534e-06
7.7938685e-06
8.060483e-06
8.3275054e-06
7.8101e-06
7.5592801e-06
7.3278498e-06
7.1877493e-06
7.102539e-06
7.0672145e-06
7.0755678e-06
7.1252083e-06
7.2124445e-06
7.3356463e-06
7.4967032e-06
7.6969177e-06
7.936462e-06
8.2194691e-06
8.5502858e-06
8.9333669e-06
9.3759449e-06
9.885767e-06
1.0474137e-05
1.1097611e-05
1.187695e-05
1.2782647e-05
1.3836276e-05
1.5067134e-05
1.6510227e-05
1.8209177e-05
2.0217473e-05
2.2600593e-05
2.5437406e-05
2.8823881e-05
3.3136901e-05
3.8042522e-05
4.3933235e-05
5.1018682e-05
5.9554313e-05
6.9853998e-05
8.2269223e-05
9.7233275e-05
0.00011526904
0.00013824316
0.00016453237
0.00019609927
0.00023394388
0.00027923292
0.00033331316
0.00039774606
0.00047435971
0.0005653025
0.00067315843
0.00080125099
0.00095431216
0.0010270384
0.0010273973
0.001027598
0.0010273786
0.0010263376
0.0010241349
0.0010207542
0.0010176924
0.0010178451
0.0010204539
0.0010201126
0.0010166251
0.0010106525
0.0010034078
0.0010005373
0.0010010139
0.00100112
0.00099889502
1.6345221e-07
8.1527704e-06
8.1267426e-06
8.2249142e-06
5.6558172e-06
6.5165911e-06
5.6302845e-06
6.4020731e-06
7.2249278e-06
7.1461712e-06
7.1307148e-06
6.6940889e-06
6.4872306e-06
6.3144089e-06
6.2128658e-06
6.1582907e-06
6.1473504e-06
6.1746671e-06
6.2366692e-06
6.3334634e-06
6.4634309e-06
6.6281194e-06
6.8298078e-06
7.0691517e-06
7.3503691e-06
7.6445452e-06
8.016827e-06
8.4480418e-06
8.9458089e-06
9.5209917e-06
1.0186644e-05
1.0959806e-05
1.1859458e-05
1.2907202e-05
1.4132592e-05
1.5570985e-05
1.7266524e-05
1.92734e-05
2.165845e-05
2.4502257e-05
2.7903139e-05
3.1982538e-05
3.6886841e-05
4.2787859e-05
4.9898335e-05
5.8987559e-05
6.9430715e-05
8.2033954e-05
9.7235236e-05
0.00011557239
0.00013767185
0.00016581572
0.0001979651
0.00023650471
0.00028261462
0.00033765314
0.00040318776
0.00048105798
0.00057344708
0.0006830234
0.00081330041
0.00096940909
0.0010271492
0.0010274047
0.0010274638
0.0010270614
0.0010256685
0.0010231456
0.001019799
0.0010173826
0.0010183278
0.0010203681
0.0010195906
0.0010154389
0.0010094562
0.0010025469
0.00099998013
0.0010004664
0.0010004269
0.00099857137
1.5180483e-07
8.0903215e-06
6.4982627e-06
7.2102556e-06
5.0462172e-06
5.7733655e-06
5.1950675e-06
5.7768732e-06
6.5460016e-06
6.1084773e-06
6.0527872e-06
5.7167595e-06
5.5509855e-06
5.4258276e-06
5.3577529e-06
5.3308455e-06
5.3406232e-06
5.3847418e-06
5.4602241e-06
5.5673684e-06
5.7053656e-06
5.8759804e-06
6.0557412e-06
6.2926196e-06
6.5710458e-06
6.8947808e-06
7.2703839e-06
7.7047745e-06
8.205784e-06
8.7844679e-06
9.4540156e-06
1.023123e-05
1.1136326e-05
1.2191225e-05
1.3425988e-05
1.4876682e-05
1.65885e-05
1.8616834e-05
2.1030576e-05
2.3913033e-05
2.7365066e-05
3.1510868e-05
3.6505093e-05
4.2523812e-05
4.9786512e-05
5.8561188e-05
6.9173193e-05
8.2002411e-05
9.8360621e-05
0.0001171909
0.00013989549
0.00016723197
0.0002019918
0.00024161375
0.00028899482
0.0003455145
0.00041275571
0.00049257868
0.00058721911
0.00069946006
0.00083305298
0.0009935877
0.001027263
0.0010274062
0.001027383
0.0010267383
0.0010249707
0.0010221954
0.0010190124
0.0010172891
0.0010188374
0.0010202751
0.0010188877
0.00101433
0.0010084846
0.0010020101
0.00099972919
0.0010000126
0.00099996831
0.00099836773
1.4141796e-07
8.0152269e-06
5.2317517e-06
6.3025276e-06
4.4944225e-06
5.105431e-06
4.8214358e-06
5.1354732e-06
5.7060705e-06
5.2078749e-06
5.1085509e-06
4.8617825e-06
4.7348036e-06
4.6495957e-06
4.6112759e-06
4.6089373e-06
4.6388455e-06
4.699475e-06
4.7886703e-06
4.8885577e-06
5.0305777e-06
5.2050903e-06
5.4141394e-06
5.6604202e-06
5.9478683e-06
6.2806273e-06
6.6651768e-06
7.1090733e-06
7.6203689e-06
8.2102729e-06
8.8920897e-06
9.6828386e-06
1.0554643e-05
1.1617889e-05
1.2863269e-05
1.4327584e-05
1.6057339e-05
1.8109256e-05
2.0554436e-05
2.347956e-05
2.6989239e-05
3.1449874e-05
3.6587196e-05
4.2788484e-05
5.028131e-05
5.9341645e-05
7.0312517e-05
8.3592606e-05
9.9652599e-05
0.00012014807
0.00014370517
0.00017207712
0.00020616912
0.00024940167
0.00029854991
0.00035712866
0.00042675119
0.00050931083
0.00060711795
0.0007231109
0.00086134474
0.0010272482
0.0010273766
0.0010274199
0.0010273353
0.0010263386
0.0010242846
0.0010213107
0.00101832
0.0010173692
0.001019356
0.001020138
0.0010180053
0.0010133686
0.0010077465
0.0010017117
0.00099973208
0.00099973527
0.00099963009
0.00099842327
1.3214459e-07
7.8543422e-06
4.2668036e-06
5.4916487e-06
4.0022973e-06
4.5104031e-06
4.4903209e-06
4.4379185e-06
4.8672018e-06
4.4057775e-06
4.2908641e-06
4.1173642e-06
4.0273869e-06
3.976839e-06
3.9656848e-06
3.9862099e-06
4.0353641e-06
4.0958522e-06
4.1939756e-06
4.3212884e-06
4.478514e-06
4.6670044e-06
4.8894908e-06
5.1488687e-06
5.4496416e-06
5.7962163e-06
6.1951374e-06
6.6340951e-06
7.156486e-06
7.7582691e-06
8.4528094e-06
9.2571589e-06
1.0192111e-05
1.1283748e-05
1.2562969e-05
1.406789e-05
1.5847323e-05
1.7960348e-05
2.0481219e-05
2.3501566e-05
2.7131504e-05
3.1508358e-05
3.6795368e-05
4.3190496e-05
5.0933074e-05
6.0818629e-05
7.2270226e-05
8.6147559e-05
0.00010294871
0.000123263
0.00014917061
0.00017890624
0.00021464296
0.00025745952
0.00031155053
0.00037284907
0.00044562898
0.00053183464
0.00063387819
0.00075490154
0.00089934488
0.0010274388
0.0010274983
0.0010274667
0.0010272565
0.0010259394
0.0010236464
0.0010204927
0.0010178964
0.001017665
0.0010196902
0.0010198887
0.0010171633
0.0010125985
0.0010072346
0.00100164
0.00099984744
0.00099978345
0.00099951124
0.00099873758
1.2391752e-07
7.4881498e-06
3.6313383e-06
4.772274e-06
3.5618256e-06
3.9810849e-06
3.9727924e-06
3.8054562e-06
4.0667984e-06
3.6981276e-06
3.5909751e-06
3.4758959e-06
3.4205778e-06
3.400639e-06
3.4143618e-06
3.4434221e-06
3.5050905e-06
3.5951311e-06
3.7126732e-06
3.8578566e-06
4.0320212e-06
4.2370328e-06
4.4760375e-06
4.7522153e-06
5.0587943e-06
5.4199706e-06
5.8339737e-06
6.3083552e-06
6.8526281e-06
7.4780956e-06
8.1985195e-06
9.031722e-06
9.9994475e-06
1.1128891e-05
1.245332e-05
1.4012444e-05
1.5858032e-05
1.8052365e-05
2.0673283e-05
2.3818782e-05
2.7604321e-05
3.2175665e-05
3.7709022e-05
4.4413602e-05
5.2545979e-05
6.241417e-05
7.5049355e-05
8.9687219e-05
0.000107427
0.00012890431
0.00015484042
0.00018786349
0.00022569692
0.00027102485
0.0003251274
0.00039316537
0.00047001494
0.00056094022
0.0006684867
0.00079605622
0.00094856514
0.0010276312
0.0010276359
0.0010275454
0.0010271258
0.0010255821
0.0010230844
0.0010198633
0.0010177032
0.0010180131
0.0010197343
0.0010194675
0.0010164442
0.0010120261
0.0010069095
0.0010017216
0.0010000362
0.00099996527
0.00099960172
0.00099897113
1.1683944e-07
7.0989624e-06
3.1912545e-06
4.1306167e-06
3.1695679e-06
3.3607782e-06
3.5143076e-06
3.2270643e-06
3.3479228e-06
3.084887e-06
2.9994428e-06
2.9305312e-06
2.9066643e-06
2.9141045e-06
2.9358201e-06
2.9938348e-06
3.0791409e-06
3.1904884e-06
3.3278956e-06
3.4922196e-06
3.6853349e-06
3.9093828e-06
4.1597966e-06
4.4533855e-06
4.7891297e-06
5.1723511e-06
5.6094459e-06
6.1082739e-06
6.6785793e-06
7.3324646e-06
8.0842012e-06
8.9524734e-06
9.9601523e-06
1.1135988e-05
1.2461711e-05
1.4073945e-05
1.5984739e-05
1.8260319e-05
2.110943e-05
2.4409846e-05
2.8388524e-05
3.3200342e-05
3.9036644e-05
4.6121887e-05
5.4730949e-05
6.5197755e-05
7.7921948e-05
9.3379496e-05
0.00011313733
0.00013605479
0.00016376361
0.00019717813
0.00023959401
0.00028807918
0.00034592731
0.00041871875
0.00050072611
0.00059764866
0.00071219935
0.00084810658
0.0010108709
0.001027827
0.0010277745
0.0010276087
0.0010269294
0.0010252793
0.0010226197
0.0010194228
0.0010174605
0.0010181191
0.0010196274
0.0010188843
0.001015914
0.0010116405
0.0010067246
0.0010018726
0.0010002657
0.0010001851
0.00099970743
0.0009992024
1.1114289e-07
5.9463319e-06
2.8143363e-06
3.5464118e-06
2.8296464e-06
2.7878069e-06
3.0597467e-06
2.7050833e-06
2.732637e-06
2.561839e-06
2.504414e-06
2.47307e-06
2.4702226e-06
2.4955907e-06
2.5518562e-06
2.6349486e-06
2.742935e-06
2.8755691e-06
3.0336104e-06
3.218352e-06
3.4270302e-06
3.6703041e-06
3.948147e-06
4.2643708e-06
4.6235302e-06
5.0311553e-06
5.4939771e-06
6.0202095e-06
6.6199622e-06
7.2898839e-06
8.0720936e-06
8.9741786e-06
1.0020142e-05
1.1240018e-05
1.2671301e-05
1.4360751e-05
1.6365969e-05
1.8758786e-05
2.1627871e-05
2.5082092e-05
2.9255724e-05
3.4560228e-05
4.0757339e-05
4.8297921e-05
5.7478878e-05
6.8663237e-05
8.2287466e-05
9.8873848e-05
0.00012013534
0.00014481101
0.00017469493
0.00021077681
0.00025665756
0.00030907327
0.00037160776
0.00044587764
0.0005387956
0.00064324116
0.00076656408
0.0009128888
0.0010280838
0.0010280098
0.0010278876
0.0010275906
0.0010267358
0.0010250145
0.0010221985
0.0010189414
0.001017107
0.0010178057
0.0010191504
0.0010183946
0.0010155669
0.0010114305
0.001006636
0.0010019425
0.0010004082
0.0010003401
0.00099985709
0.00099948157
1.0626266e-07
4.2281803e-06
2.466953e-06
3.005365e-06
2.4010021e-06
2.3071366e-06
2.586268e-06
2.2414962e-06
2.2211057e-06
2.1219122e-06
2.095298e-06
2.089515e-06
2.1148985e-06
2.1708528e-06
2.2533067e-06
2.3598955e-06
2.4898929e-06
2.6437316e-06
2.8200308e-06
3.0246254e-06
3.2584288e-06
3.524131e-06
3.825009e-06
4.1650515e-06
4.5490705e-06
4.9828676e-06
5.473491e-06
6.0205478e-06
6.6491343e-06
7.3661718e-06
8.1880397e-06
9.1350915e-06
1.0232988e-05
1.1513942e-05
1.3018305e-05
1.4796287e-05
1.6910181e-05
1.9437293e-05
2.2473518e-05
2.6137426e-05
3.0575316e-05
3.5966658e-05
4.2848519e-05
5.0921043e-05
6.0773881e-05
7.2805961e-05
8.7498624e-05
0.00010543039
0.00012729126
0.00015527681
0.00018780614
0.00022715628
0.00027457302
0.00033455597
0.00040291731
0.00048406098
0.00058551306
0.00069931234
0.00083348136
0.00099257647
0.0010282858
0.0010281543
0.0010279459
0.0010275123
0.0010265822
0.0010247464
0.0010217903
0.0010184438
0.0010167739
0.0010172645
0.0010184533
0.0010178997
0.0010153602
0.0010113944
0.0010066777
0.0010020094
0.0010004194
0.0010003713
0.0010000501
0.0009997293
1.011904e-07
3.4919585e-06
2.110759e-06
2.5076146e-06
2.0488162e-06
1.9040637e-06
2.1042298e-06
1.8360226e-06
1.8056203e-06
1.7610755e-06
1.7611437e-06
1.7864943e-06
1.8437296e-06
1.9265983e-06
2.0326868e-06
2.1610726e-06
2.3119381e-06
2.4844342e-06
2.6831593e-06
2.9091571e-06
3.1648378e-06
3.4531242e-06
3.7775126e-06
4.1421775e-06
4.5521343e-06
5.0134416e-06
5.5274347e-06
6.1125886e-06
6.7759822e-06
7.5314634e-06
8.3964781e-06
9.392837e-06
1.0548005e-05
1.1896541e-05
1.3481964e-05
1.5358763e-05
1.7594573e-05
2.0273182e-05
2.3498727e-05
2.7399844e-05
3.2136096e-05
3.8178521e-05
4.528031e-05
5.3962441e-05
6.4590302e-05
7.7606928e-05
9.3549353e-05
0.00011306512
0.00013819749
0.00016755309
0.00020327632
0.00024660541
0.00029893038
0.00036518719
0.00044078428
0.00053048647
0.00064248549
0.00076785188
0.00091530374
0.0010286146
0.0010284588
0.0010282482
0.0010279464
0.0010274326
0.0010264179
0.0010244976
0.0010214863
0.0010180715
0.001016501
0.0010166924
0.0010176857
0.0010173241
0.0010151988
0.0010115283
0.0010069338
0.0010022065
0.001000323
0.0010002742
0.0010002529
0.00099992363
9.7470392e-08
2.7908315e-06
1.8016557e-06
2.0070567e-06
1.7568566e-06
1.5586692e-06
1.6620654e-06
1.4936275e-06
1.4792568e-06
1.4781779e-06
1.5053042e-06
1.5638151e-06
1.6477666e-06
1.7536615e-06
1.8805439e-06
2.0285852e-06
2.1977197e-06
2.3909523e-06
2.6097948e-06
2.8564833e-06
3.133691e-06
3.4445414e-06
3.7926931e-06
4.1824741e-06
4.6190763e-06
5.1054183e-06
5.6542315e-06
6.2727948e-06
6.9727866e-06
7.7688964e-06
8.6798105e-06
9.7289382e-06
1.0945819e-05
1.2367626e-05
1.404121e-05
1.6025595e-05
1.8394704e-05
2.1239509e-05
2.4673863e-05
2.8838367e-05
3.4130255e-05
4.0371345e-05
4.800999e-05
5.73788e-05
6.8884852e-05
8.3026755e-05
0.00010041134
0.00012177466
0.00014933416
0.00018171296
0.00022127338
0.00026943304
0.00032777835
0.00040173201
0.00048632486
0.00058669544
0.00071173303
0.00085136138
0.001014949
0.0010287994
0.0010285985
0.0010283148
0.0010279276
0.0010273253
0.0010262532
0.0010243508
0.0010214249
0.0010180799
0.0010163504
0.0010162324
0.0010168565
0.0010166505
0.0010149565
0.0010117862
0.0010075091
0.0010027845
0.0010003081
0.0010001778
0.0010003469
0.0010000762
9.5330506e-08
2.1804842e-06
1.5329696e-06
1.5299431e-06
1.4879307e-06
1.2638086e-06
1.3033903e-06
1.2212456e-06
1.2350566e-06
1.2649447e-06
1.325499e-06
1.4100458e-06
1.5155209e-06
1.6405735e-06
1.7854254e-06
1.951049e-06
2.1382903e-06
2.3500248e-06
2.5880394e-06
2.8548102e-06
3.153178e-06
3.4864124e-06
3.858309e-06
4.2733366e-06
4.7368459e-06
5.2553509e-06
5.8368991e-06
6.4915191e-06
7.223766e-06
8.0619844e-06
9.0206856e-06
1.0125043e-05
1.1406903e-05
1.2906406e-05
1.4674008e-05
1.6840499e-05
1.9370578e-05
2.2415772e-05
2.6101307e-05
3.0582805e-05
3.6053561e-05
4.2753422e-05
5.0981144e-05
6.1107103e-05
7.3589725e-05
8.8994901e-05
0.00010801693
0.00013265157
0.00016184039
0.00019778058
0.00024192256
0.00029593087
0.0003650804
0.0004450839
0.00054091566
0.00065465663
0.0007958734
0.00095309923
0.0010291055
0.0010289543
0.001028703
0.001028352
0.0010278861
0.0010272213
0.001026149
0.00102435
0.0010216239
0.001018533
0.0010164797
0.0010159638
0.0010160142
0.0010158468
0.0010145636
0.001012078
0.0010084501
0.001004087
0.0010008173
0.0010000192
0.0010002849
0.0010001563
9.554869e-08
1.6595309e-06
1.3060785e-06
1.1642722e-06
1.2190034e-06
1.0174275e-06
1.0406377e-06
1.0205986e-06
1.0631265e-06
1.122545e-06
1.2072234e-06
1.3114052e-06
1.4339881e-06
1.575099e-06
1.7357698e-06
1.9174706e-06
2.1217157e-06
2.3510074e-06
2.6074895e-06
2.8937729e-06
3.2128124e-06
3.5679915e-06
3.963234e-06
4.4031616e-06
4.8933152e-06
5.4404539e-06
6.0529578e-06
6.7413366e-06
7.518868e-06
8.4024116e-06
9.4133789e-06
1.0579023e-05
1.1933874e-05
1.3521606e-05
1.5397235e-05
1.7629873e-05
2.0306187e-05
2.3534967e-05
2.7452276e-05
3.22286e-05
3.8077389e-05
4.5265154e-05
5.412303e-05
6.5066818e-05
7.8614182e-05
9.6198704e-05
0.00011720114
0.00014326805
0.00017561511
0.00021571189
0.00026529943
0.00032944928
0.00040481599
0.0004963528
0.00060639211
0.00074422238
0.00089858731
0.0010292824
0.0010292247
0.0010290684
0.0010287829
0.0010283736
0.0010278462
0.0010271493
0.0010261238
0.0010244947
0.0010220588
0.0010192943
0.0010171437
0.0010158882
0.0010154105
0.0010150845
0.0010141619
0.0010123403
0.0010095469
0.0010059122
0.001002365
0.0010002328
0.00099986874
0.001000159
9.8920999e-08
1.2343089e-06
1.1182612e-06
8.9673572e-07
1.0623491e-06
8.1425401e-07
8.606281e-07
8.8514362e-07
9.5055916e-07
1.033095e-06
1.1351978e-06
1.254441e-06
1.391187e-06
1.5464173e-06
1.7215849e-06
1.9183894e-06
2.1387625e-06
2.3847278e-06
2.65888e-06
2.9638438e-06
3.3026726e-06
3.6788642e-06
4.0964809e-06
4.5603156e-06
5.0761246e-06
5.6509417e-06
6.2935071e-06
7.0148533e-06
7.8289695e-06
8.7537094e-06
9.8117995e-06
1.1032275e-05
1.245202e-05
1.4117802e-05
1.6088685e-05
1.8439101e-05
2.1262631e-05
2.4676852e-05
2.8829471e-05
3.390617e-05
4.0412683e-05
4.8161182e-05
5.7743192e-05
6.9627922e-05
8.4405632e-05
0.00010281956
0.00012580394
0.00015452798
0.00019044089
0.00023752514
0.00029395784
0.00036410143
0.00045077288
0.00055689795
0.00069189177
0.00084569374
0.0010254483
0.0010293014
0.0010292612
0.001029143
0.0010288507
0.0010283936
0.0010278216
0.0010271142
0.0010261669
0.0010247564
0.0010226545
0.0010201377
0.0010179065
0.0010163708
0.0010154424
0.0010147671
0.001013953
0.0010126446
0.0010106347
0.001007947
0.0010048371
0.0010018583
0.0010000281
0.00099977004
1.0555654e-07
9.6458602e-07
9.5456785e-07
7.5531716e-07
7.5890439e-07
6.953664e-07
7.4024624e-07
7.999034e-07
8.8256416e-07
9.8117235e-07
1.0963617e-06
1.2280509e-06
1.3772956e-06
1.545406e-06
1.7339672e-06
1.9447484e-06
2.1797293e-06
2.4411178e-06
2.7313908e-06
3.0533401e-06
3.4101396e-06
3.8054349e-06
4.2434702e-06
4.7292672e-06
5.2688762e-06
5.8677935e-06
6.5379652e-06
7.2897428e-06
8.1446792e-06
9.1110198e-06
1.0217556e-05
1.1495285e-05
1.2983621e-05
1.4732565e-05
1.6805374e-05
1.92819e-05
2.2262833e-05
2.5875163e-05
3.0279146e-05
3.5677316e-05
4.2326003e-05
5.055012e-05
6.0761999e-05
7.3484135e-05
8.938411e-05
0.000109313
0.00013555084
0.00016733923
0.00020742986
0.00025803855
0.00032189946
0.0004022904
0.00050293857
0.00063368875
0.00078718849
0.00097070157
0.0010292893
0.0010292656
0.0010292323
0.0010291904
0.0010289083
0.0010284218
0.0010278214
0.0010271156
0.0010262496
0.0010250669
0.0010233544
0.0010211826
0.0010190057
0.0010172679
0.0010160566
0.0010151638
0.001014321
0.0010132805
0.0010118506
0.0010099095
0.0010073818
0.0010043962
0.0010016106
0.0010000318
1.2022428e-07
9.6464839e-07
7.9641522e-07
5.6147164e-07
6.0380983e-07
6.0691531e-07
6.70156e-07
7.4851709e-07
8.446658e-07
9.5540413e-07
1.0817247e-06
1.2244481e-06
1.3848637e-06
1.5643809e-06
1.7646187e-06
1.987383e-06
2.2346976e-06
2.5088318e-06
2.8123391e-06
3.1481037e-06
3.5194044e-06
3.9300045e-06
4.3842781e-06
4.887393e-06
5.4455696e-06
6.06644e-06
6.7595304e-06
7.5368902e-06
8.4139027e-06
9.4102752e-06
1.0551254e-05
1.1869167e-05
1.3405227e-05
1.5211834e-05
1.7355409e-05
1.9920008e-05
2.3011964e-05
2.6765859e-05
3.1352282e-05
3.698788e-05
4.3948471e-05
5.2960069e-05
6.3808579e-05
7.7379705e-05
9.4424464e-05
0.00011591411
0.00014311092
0.00017765734
0.00022168792
0.00027796147
0.00035000902
0.00044631451
0.00056482073
0.00071457193
0.00090067517
0.0010290289
0.0010291939
0.0010292325
0.0010292242
0.0010292052
0.0010289386
0.0010284553
0.0010278479
0.0010271577
0.0010263628
0.0010253723
0.0010240348
0.001022274
0.0010202832
0.0010184598
0.0010170522
0.0010160139
0.0010151679
0.0010142959
0.0010131803
0.0010116466
0.0010095161
0.0010066813
0.0010034729
0.0010007878
1.1021722e-07
6.2667372e-07
6.320855e-07
4.6512254e-07
5.0726073e-07
5.5303743e-07
6.3138086e-07
7.2329978e-07
8.3010364e-07
9.5115232e-07
1.0875231e-06
1.2402694e-06
1.4107093e-06
1.6003114e-06
1.810736e-06
2.0438469e-06
2.3017377e-06
2.586732e-06
2.9015112e-06
3.249042e-06
3.6327102e-06
4.0563954e-06
4.5246004e-06
5.0426368e-06
5.616892e-06
6.2551977e-06
6.9673289e-06
7.7656607e-06
8.6725701e-06
9.6982965e-06
1.0873447e-05
1.2231678e-05
1.3815898e-05
1.5680712e-05
1.7895416e-05
2.0547895e-05
2.3749629e-05
2.764224e-05
3.2406075e-05
3.8271404e-05
4.5533072e-05
5.4569704e-05
6.5869268e-05
8.0065539e-05
9.7984967e-05
0.00012071468
0.00014969533
0.00018848471
0.00023673842
0.00029926605
0.00038069942
0.00048714751
0.00062640568
0.00080768714
0.0010283447
0.0010285901
0.0010287964
0.0010289345
0.0010290197
0.0010290192
0.0010288875
0.0010284003
0.0010278535
0.0010272122
0.0010264757
0.001025612
0.0010245482
0.0010231525
0.0010214063