/*--------------------------------*- C++ -*----------------------------------*\
  =========                 |
  \\      /  F ield         | OpenFOAM: The Open Source CFD Toolbox
   \\    /   O peration     | Website:  https://openfoam.org
    \\  /    A nd           | Version:  12
     \\/     M anipulation  |
\*---------------------------------------------------------------------------*/
FoamFile
{
    format      ascii;
    class       volScalarField;
    location    "0.024";
    object      p;
}
// * * * * * * * * * * * * * * * * * * * * * * * * * * * * * * * * * * * * * //

dimensions      [1 -1 -2 0 0 0 0];

internalField   nonuniform List<scalar> 
16000
(
88766.514
88897.059
88909.176
89047.983
89075.458
89206.406
89259.046
89378.855
89455.53
89569.523
89664.758
89778.786
89888.216
90006.763
90127.338
90253.411
90383.631
90518.586
90658.15
90802.405
90951.351
91104.982
91263.268
91426.151
91593.548
91765.341
91941.383
92121.49
92305.44
92492.974
92683.791
92877.552
93073.877
93272.345
93472.495
93673.83
93875.814
94077.881
94279.434
94479.851
94678.487
94874.686
95067.778
95257.094
95441.97
95621.755
95795.825
95963.586
96124.49
96278.041
96423.806
96561.423
96690.598
96811.116
96922.835
97025.696
97119.731
97205.077
97282.011
97350.955
97412.593
97467.869
97518.069
97564.905
97610.532
97657.478
97708.586
97766.87
97835.187
97915.611
98010.071
98119.57
98239.161
98366.164
98482.629
98615.029
98749.268
98605.983
99469.479
98204.866
88408.917
88556.908
88566.687
88717.806
88746.879
88888.929
88944.142
89075.428
89156.138
89280.492
89382.376
89505.618
89623.67
89751.405
89881.588
90017.526
90158.044
90303.615
90454.154
90609.705
90770.254
90935.771
91106.194
91281.432
91461.363
91645.827
91834.628
92027.532
92224.263
92424.503
92627.892
92834.027
93042.463
93252.713
93464.252
93676.515
93888.909
94100.807
94311.56
94520.502
94726.95
94930.218
95129.621
95324.478
95514.129
95697.934
95875.288
96045.625
96208.43
96363.247
96509.687
96647.435
96776.244
96895.939
97006.413
97107.635
97199.648
97282.585
97356.688
97422.358
97480.194
97531.051
97576.103
97616.886
97655.292
97693.534
97734.061
97779.443
97832.057
97894.01
97968.629
98057.667
98162.622
98278.744
98398.558
98537.52
98642.097
98608.183
99343.976
98137.465
88081.702
88245.597
88255.198
88419.971
88449.429
88605.699
88662.966
88806.97
88892.966
89028.174
89138.266
89271.489
89399.57
89537.642
89678.748
89825.85
89977.968
90135.453
90298.231
90466.31
90639.649
90818.182
91001.813
91190.411
91383.806
91581.79
91784.112
91990.478
92200.548
92413.935
92630.21
92848.894
93069.466
93291.364
93513.987
93736.701
93958.844
94179.731
94398.659
94614.92
94827.801
95036.597
95240.614
95439.181
95631.654
95817.424
95995.926
96166.641
96329.109
96482.936
96627.8
96763.451
96889.71
97006.462
97113.654
97211.297
97299.465
97378.304
97448.042
97509.037
97561.819
97607.141
97646.023
97679.769
97709.978
97738.502
97767.4
97798.837
97834.862
97878.123
97932.897
98000.034
98084.754
98189.252
98308.454
98446.246
98545.164
98578.124
99206.478
98032.239
87791.95
87966.847
87977.514
88157.904
88186.885
88359.853
88419.602
88578.265
88670.49
88818.152
88937.995
89082.596
89222.326
89372.173
89525.658
89685.311
89850.357
90021.033
90197.278
90379.069
90566.341
90758.994
90956.892
91159.855
91367.661
91580.039
91796.67
92017.185
92241.165
92468.139
92697.588
92928.944
93161.597
93394.895
93628.154
93860.661
94091.684
94320.477
94546.293
94768.387
94986.028
95198.507
95405.144
95605.294
95798.354
95983.77
96161.038
96329.712
96489.413
96639.832
96780.735
96911.96
97033.413
97145.056
97246.908
97339.036
97421.558
97494.639
97558.506
97613.475
97659.997
97698.702
97730.42
97756.191
97777.268
97795.108
97811.365
97827.841
97846.515
97870.535
97903.983
97946.992
98011.546
98100.201
98212.758
98343.448
98440.348
98519.973
99050.465
97890.821
87543.113
87733.286
87741.002
87940.495
87968.379
88159.894
88221.879
88397.03
88496.725
88658.208
88789.477
88946.457
89099.099
89261.723
89428.613
89601.836
89780.833
89965.759
90156.556
90353.17
90555.498
90763.391
90976.654
91195.039
91418.247
91645.924
91877.659
92112.986
92351.382
92592.271
92835.024
93078.966
93323.382
93567.52
93810.606
94051.846
94290.441
94525.594
94756.522
94982.463
95202.69
95416.515
95623.296
95822.445
96013.428
96195.774
96369.071
96532.974
96687.208
96831.576
96965.952
97090.282
97204.569
97308.869
97403.28
97487.938
97563.009
97628.684
97685.185
97732.786
97771.851
97802.864
97826.44
97843.328
97854.415
97860.76
97863.646
97864.669
97865.992
97871.071
97883.866
97903.718
97949.261
98016.986
98115.301
98231.389
98319.856
98429.656
98863.13
97720.857
87337.701
87546.112
87551.489
87772.742
87799.838
88012.205
88077.417
88270.96
88378.686
88553.84
88697.156
88866.721
89033.049
89209.271
89390.583
89578.562
89772.806
89973.379
90180.186
90393.111
90611.981
90836.569
91066.591
91301.704
91541.504
91785.525
92033.238
92284.051
92537.313
92792.317
93048.307
93304.483
93560.015
93814.047
94065.713
94314.147
94558.496
94797.931
95031.656
95258.925
95479.041
95691.375
95895.357
96090.493
96276.353
96452.58
96618.887
96775.059
96920.953
97056.503
97181.712
97296.644
97401.412
97496.171
97581.104
97656.417
97722.325
97779.041
97826.776
97865.757
97896.248
97918.575
97933.123
97940.338
97940.75
97935.048
97924.211
97909.771
97894.18
97880.984
97871.958
97872.637
97896.825
97943.245
98019.897
98112.692
98185.213
98308.662
98646.58
97532.587
87173.805
87403.484
87406.046
87652.551
87678.565
87915.882
87983.501
88194.859
88311.57
88500.926
88658.18
88841.762
89023.734
89215.536
89413.325
89618.192
89829.822
90048.175
90273.089
90504.361
90741.721
90984.839
91233.314
91486.681
91744.399
92005.859
92270.383
92537.226
92805.582
93074.594
93343.361
93610.952
93876.419
94138.807
94397.174
94650.6
94898.205
95139.161
95372.7
95598.128
95814.829
96022.272
96220.008
96407.674
96584.987
96751.74
96907.802
97053.115
97187.69
97311.61
97425.015
97528.096
97621.077
97704.212
97777.765
97842.006
97897.19
97943.543
97981.256
98010.497
98031.424
98044.196
98048.971
98045.906
98035.212
98017.274
97992.869
97963.521
97931.725
97900.762
97873.42
97859.537
97860.24
97882.444
97930.931
97991.884
98043.218
98166.969
98408.172
97341.835
87045.706
87300.355
87298.792
87575.425
87598.011
87861.485
87931.77
88163.289
88292.954
88499.193
88673.967
88874.312
89074.895
89285.171
89502.234
89726.761
89958.472
90197.218
90442.747
90694.744
90952.819
91216.503
91485.248
91758.426
92035.325
92315.159
92597.064
92880.115
93163.33
93445.687
93726.134
94003.611
94277.064
94545.461
94807.811
95063.182
95310.71
95549.617
95779.218
95998.929
96208.268
96406.858
96594.422
96770.774
96935.816
97089.529
97231.964
97363.24
97483.537
97593.091
97692.184
97781.128
97860.253
97929.899
97990.402
98042.079
98085.211
98120.021
98146.666
98165.243
98175.8
98178.333
98172.789
98159.081
98137.176
98107.25
98069.985
98026.909
97980.387
97933.886
97891.932
97861.812
97840.078
97836.83
97852.791
97875.602
97902.798
98016.771
98161.458
97164.073
86951.632
87235.503
87229.808
87542.679
87560.055
87852.514
87930.727
88185.659
88331.775
88556.873
88752.651
88972.626
89194.895
89426.789
89666.195
89913.433
90168.189
90430.186
90699.042
90974.293
91255.384
91541.667
91832.396
92126.735
92423.758
92722.46
93021.762
93320.534
93617.603
93911.779
94201.87
94486.706
94765.157
95036.158
95298.722
95551.963
95795.1
96027.477
96248.563
96457.953
96655.366
96840.64
97013.72
97174.645
97323.536
97460.585
97586.042
97700.213
97803.446
97896.128
97978.667
98051.484
98114.998
98169.616
98215.725
98253.667
98283.727
98306.104
98320.906
98328.152
98327.774
98319.62
98303.461
98279.034
98246.148
98204.886
98155.939
98100.795
98041.448
97982.866
97927.453
97878.854
97837.843
97807.748
97789.036
97774.855
97775.731
97869.873
97922.63
97008.491
86895.744
87213.62
87204.002
87554.986
87572.427
87898.591
87988.655
88269.103
88436.312
88682.81
88903.548
89146.581
89393.959
89650.976
89916.113
90189.389
90470.388
90758.669
91053.668
91354.719
91661.042
91971.747
92285.834
92602.204
92919.669
93236.966
93552.78
93865.76
94174.548
94477.802
94774.22
95062.571
95341.711
95610.611
95868.372
96114.239
96347.612
96568.045
96775.247
96969.072
97149.511
97316.674
97470.771
97612.098
97741.015
97857.933
97963.303
98057.606
98141.346
98215.037
98279.195
98334.322
98380.899
98419.375
98450.157
98473.589
98489.931
98499.338
98501.853
98497.406
98485.819
98466.811
98440.023
98405.087
98361.746
98310.077
98250.869
98185.48
98115.431
98046.088
97979.135
97913.995
97853.085
97795.761
97742.285
97692.438
97665.109
97737.034
97707.415
96887.212
86888.411
87246.636
87232.774
87626.032
87647.66
88010.974
88116.002
88424.112
88617.363
88887.906
89137.655
89407.603
89683.83
89969.826
90264.428
90567.362
90878.035
91195.77
91519.748
91849.019
92182.501
92518.985
92857.15
93195.577
93532.775
93867.202
94197.296
94521.5
94838.302
95146.257
95444.027
95730.402
96004.329
96264.928
96511.506
96743.563
96960.788
97163.054
97350.4
97523.016
97681.221
97825.434
97956.158
98073.95
98179.406
98273.144
98355.792
98427.98
98490.335
98543.467
98587.963
98624.374
98653.209
98674.928
98689.927
98698.521
98700.919
98697.212
98687.361
98671.205
98648.458
98618.735
98581.593
98536.627
98483.58
98422.595
98354.558
98280.535
98202.09
98123.491
98045.564
97965.594
97884.866
97801.018
97714.717
97633.001
97580.49
97627.546
97528.622
96813.082
86935.98
87342.204
87324.725
87767.328
87793.209
88196.682
88321.674
88659.436
88884.764
89182.911
89466.279
89767.844
90077.344
90396.778
90725.098
91061.706
91405.725
91756.144
92111.783
92471.303
92833.226
93195.946
93557.759
93916.888
94271.518
94619.831
94960.047
95290.459
95609.479
95915.669
96207.781
96484.774
96745.841
96990.41
97218.147
97428.945
97622.906
97800.315
97961.618
98107.388
98238.296
98355.081
98458.524
98549.422
98628.573
98696.762
98754.751
98803.278
98843.047
98874.723
98898.921
98916.203
98927.07
98931.959
98931.222
98925.117
98913.781
98897.22
98875.306
98847.778
98814.253
98774.262
98727.325
98673.043
98611.21
98542.087
98466.6
98385.463
98300.417
98214.233
98125.66
98031.843
97932.339
97824.163
97709.574
97600.247
97526.66
97549.035
97398.447
96795.588
87038.131
87501.231
87480.3
87978.515
88013.733
88461.602
88614.617
88985.006
89249.732
89580.498
89902.856
90241.689
90589.719
90947.735
91314.556
91689.152
92070.216
92456.263
92845.619
93236.457
93626.81
94014.618
94397.752
94774.07
95141.454
95497.868
95841.405
96170.341
96483.177
96778.675
97055.88
97314.138
97553.088
97772.655
97973.022
98154.599
98317.994
98463.965
98593.389
98707.224
98806.473
98892.154
98965.278
99026.827
99077.742
99118.913
99151.182
99175.336
99192.109
99202.169
99206.12
99204.496
99197.756
99186.278
99170.348
99150.139
99125.698
99096.934
99063.62
99025.396
98981.787
98932.267
98876.344
98813.654
98744.064
98667.98
98586.248
98499.088
98408.384
98315.853
98217.085
98110.138
97994.221
97865.833
97729.452
97599.693
97511.26
97506.993
97326.344
96845.138
87202.12
87732.784
87709.216
88270.975
88321.415
88817.803
89008.027
89414.562
89726.627
90096.544
90464.23
90847.061
91239.802
91642.155
92052.517
92469.255
92890.461
93314.034
93737.697
94159.035
94575.539
94984.654
95383.839
95770.636
96142.735
96498.042
96834.744
97151.35
97446.731
97720.134
97971.178
98199.838
98406.412
98591.479
98755.855
98900.537
99026.66
99135.445
99228.164
99306.097
99370.508
99422.616
99463.577
99494.475
99516.319
99530.036
99536.482
99536.439
99530.614
99519.639
99504.066
99484.364
99460.923
99434.038
99403.902
99370.589
99334.043
99294.07
99250.338
99202.389
99149.665
99091.596
99027.695
98957.631
98881.342
98799.347
98712.264
98619.618
98523.574
98424.946
98316.778
98198.038
98068.667
97925.305
97773.25
97630.68
97535.797
97508.609
97320.438
96964.948
87434.289
88045.786
88021.72
88655.453
88728.485
89277.653
89516.694
89964.958
90333.741
90751.607
91172.43
91607.032
92051.221
92503.624
92961.963
93423.84
93886.598
94347.394
94803.239
95251.061
95687.779
96110.388
96516.056
96902.214
97266.645
97607.544
97923.571
98213.861
98478.03
98716.139
98928.653
99116.383
99280.421
99422.076
99542.809
99644.171
99727.76
99795.169
99847.957
99887.616
99915.556
99933.086
99941.41
99941.623
99934.719
99921.596
99903.062
99879.842
99852.576
99821.816
99788.033
99751.608
99712.835
99671.911
99628.922
99583.835
99536.483
99486.568
99433.652
99377.179
99316.516
99251.056
99180.308
99103.941
99021.942
98934.864
98842.927
98744.974
98643.508
98538.683
98421.75
98292.742
98153.302
98001.066
97842.358
97696.669
97599.502
97556.504
97382.57
97146.061
87740.896
88448.949
88427.232
89143.08
89250.755
89859.163
90162.098
90660.992
91097.356
91573.663
92056.126
92550.204
93051.919
93558.791
94067.653
94575.158
95077.714
95571.582
96052.976
96518.174
96963.656
97386.232
97783.164
98152.252
98491.899
98801.134
99079.592
99327.484
99545.518
99734.83
99896.887
100033.4
100146.26
100237.43
100308.91
100362.66
100400.6
100424.52
100436.14
100436.99
100428.52
100412
100388.59
100359.31
100325.06
100286.67
100244.83
100200.18
100153.25
100104.51
100054.3
100002.91
99950.526
99897.234
99843.01
99787.709
99731.059
99672.655
99611.957
99548.31
99481.011
99409.407
99332.967
99251.319
99164.457
99072.839
98976.187
98873.012
98765.9
98654.281
98529.275
98391.785
98245.291
98089.002
97930.257
97788.645
97695.149
97646.911
97501.735
97376.152
88131.005
88954.379
88941.154
89755.075
89914.471
90592.413
90976.502
91536.892
92051.615
92596.855
93148.796
93708.739
94272.183
94835.322
95393.753
95942.876
96477.955
96994.308
97487.488
97953.479
98388.862
98790.938
99157.81
99488.404
99782.439
100040.36
100263.25
100452.69
100610.67
100739.43
100841.41
100919.09
100974.97
101011.46
101030.9
101035.44
101027.11
101007.73
100978.97
100942.33
100899.1
100850.47
100797.43
100740.89
100681.6
100620.26
100557.44
100493.66
100429.33
100364.77
100300.25
100235.92
100171.87
100108.07
100044.38
99980.558
99916.228
99850.88
99783.873
99714.458
99641.856
99565.344
99484.305
99398.289
99307.241
99211.389
99110
99001.667
98888.621
98769.526
98637.121
98492.866
98341.662
98185.318
98032.084
97899.261
97814.331
97769.73
97662.468
97636.037
88626.665
89592.837
89599.068
90530.158
90758.661
91516.186
91999.022
92632.236
93235.16
93859.182
94487.269
95117.201
95743.054
96359.167
96959.481
97537.991
98088.983
98607.32
99088.682
99529.738
99928.244
100283.06
100594.08
100862.14
101088.86
101276.47
101427.66
101545.39
101632.8
101693.03
101729.2
101744.27
101741.03
101722.1
101689.81
101646.33
101593.55
101533.18
101466.7
101395.4
101320.41
101242.69
101163.07
101082.26
101000.88
100919.44
100838.4
100758.12
100678.9
100600.94
100524.38
100449.27
100375.59
100303.2
100231.87
100161.26
100090.87
100020.12
99948.261
99874.448
99797.813
99717.534
99632.873
99543.277
99448.571
99348.652
99242.529
99129.19
99009.858
98882.87
98743.87
98594.563
98440.267
98286.607
98142.116
98021.779
97949.08
97916.57
97854.042
97902.273
89258.517
90404.907
90440.704
91508.122
91825.46
92670.892
93271.949
93992.055
94693.192
95404.801
96112.732
96811.116
97491.747
98146.825
98768.847
99351.141
99888.178
100375.82
100811.45
101193.91
101523.45
101801.53
102030.57
102213.72
102354.62
102457.21
102525.51
102563.53
102575.11
102563.89
102533.21
102486.16
102425.49
102353.65
102272.82
102184.9
102091.54
101994.15
101893.96
101791.99
101689.12
101586.08
101483.49
101381.87
101281.67
101183.26
101086.94
100992.95
100901.45
100812.54
100726.25
100642.53
100561.24
100482.17
100404.98
100329.23
100254.36
100179.66
100104.31
100027.35
99947.828
99864.792
99777.367
99684.884
99586.97
99483.18
99372.513
99254.297
99128.72
98994.503
98849.594
98696.433
98540.927
98391.842
98258.411
98153.93
98097.12
98083.401
98068.406
98164.685
90054.39
91418.125
91499.753
92723.37
93164.417
94110.394
94851.899
95675.892
96482.896
97284.24
98065.139
98816.03
99526.693
100188.33
100793.78
101337.86
101817.54
102231.84
102581.61
102869.28
103098.46
103273.62
103399.71
103481.95
103525.56
103535.58
103516.78
103473.58
103409.98
103329.58
103235.56
103130.7
103017.46
102897.9
102773.84
102646.8
102518.06
102388.71
102259.64
102131.6
102005.19
101880.92
101759.21
101640.38
101524.74
101412.5
101303.84
101198.87
101097.65
101000.16
100906.35
100816.07
100729.1
100645.14
100563.76
100484.44
100406.53
100329.24
100251.62
100172.65
100091.26
100006.37
99916.996
99822.326
99721.778
99614.679
99500.127
99377.533
99246.716
99106.796
98957.147
98801.48
98647.529
98505.744
98386.258
98300.413
98262.767
98272.125
98302.03
98428.32
91047.842
92683.328
92847.609
94245.595
94856.556
95919.38
96818.701
97756.974
98663.766
99536.962
100360.16
101122
101812.93
102426.5
102959.24
103410.6
103782.49
104078.86
104305.09
104467.51
104572.92
104628.24
104640.23
104615.24
104559.16
104477.33
104374.48
104254.79
104121.88
103978.88
103828.47
103672.92
103514.13
103353.71
103192.98
103033.05
102874.81
102718.98
102566.15
102416.79
102271.24
102129.82
101992.74
101860.2
101732.34
101609.27
101491.03
101377.64
101269.06
101165.2
101065.9
100970.95
100880.05
100792.83
100708.8
100627.35
100547.73
100469.07
100390.34
100310.42
100228.14
100142.32
100051.89
99955.951
99853.77
99744.587
99627.592
99502.234
99368.11
99224.77
99073.186
98918.243
98769.403
98638.661
98536.606
98472.239
98456.089
98489.536
98557.133
98699.209
92324.462
94302.679
94595.462
96188.63
97017.731
98205.811
99257.573
100293.96
101262.26
102153.52
102953.59
103654.46
104252.32
104747.49
105143.71
105447.26
105666.2
105809.54
105886.63
105906.69
105878.43
105809.89
105708.29
105580.02
105430.63
105264.91
105086.94
104900.16
104707.46
104511.23
104313.45
104115.77
103919.49
103725.71
103535.27
103348.86
103167
102990.1
102818.45
102652.28
102491.75
102336.96
102188.01
102044.94
101907.8
101776.57
101651.23
101531.7
101417.86
101309.55
101206.56
101108.62
101015.36
100926.36
100841.06
100758.78
100678.71
100599.88
100521.17
100441.39
100359.29
100273.64
100183.35
100087.53
99985.411
99876.273
99759.354
99634.023
99499.87
99357.046
99207.763
99058.328
98919.567
98804.283
98722.855
98681.833
98687.418
98741.475
98833.685
98975.262
94017.569
96418.978
96896.586
98682.674
99765.459
101063.13
102213.14
103279.02
104222.05
105035.74
105715.7
106264.05
106687.45
106995.95
107201.62
107317.39
107356.19
107330.32
107251.08
107128.56
106971.57
106787.7
106583.38
106364.03
106134.12
105897.36
105656.79
105414.88
105173.62
104934.61
104699.11
104468.13
104242.43
104022.61
103809.1
103602.23
103402.2
103209.15
103023.15
102844.22
102672.36
102507.55
102349.76
102198.94
102055.04
101917.97
101787.64
101663.89
101546.57
101435.47
101330.32
101230.8
101136.54
101047.04
100961.72
100879.84
100800.51
100722.7
100645.23
100566.82
100486.2
100402.17
100313.7
100220.04
100120.55
100014.59
99901.413
99780.249
99650.699
99513.546
99372.187
99234.02
99110.398
99013.995
98954.343
98935.344
98957.921
99021.478
99118.23
99240.875
96320.475
99194.916
99920.592
101848.81
103146.1
104491.49
105620.12
106584.75
107371.9
107987.31
108442.16
108752.53
108936.67
109013.38
109000.7
108915.17
108771.41
108582.07
108357.82
108107.57
107838.64
107557.01
107267.51
106973.99
106679.56
106386.64
106097.15
105812.57
105534.04
105262.43
104998.35
104742.27
104494.5
104255.22
104024.54
103802.48
103589
103384.04
103187.49
102999.23
102819.14
102647.1
102482.99
102326.71
102178.13
102037.11
101903.5
101777.11
101657.75
101545.18
101439.1
101339.19
101245.04
101156.14
101071.88
100991.5
100914.07
100838.49
100763.55
100687.94
100610.41
100529.85
100445.47
100356.77
100263.35
100164.65
100059.8
99947.853
99828.43
99702.807
99575.169
99453.274
99347.867
99270.432
99229.188
99225.126
99252.607
99304.763
99376.236
99461.105
99490.247
102745.87
103782.29
105778.67
107116.01
108309.84
109247.73
109954.61
110448.53
110756.61
110907.34
110928.75
110846.46
110682.89
110457.06
110184.7
109878.62
109549.06
109204.18
108850.37
108492.65
108134.88
107780.03
107430.38
107087.62
106753.03
106427.51
106111.71
105806.06
105510.82
105226.11
104951.97
104688.34
104435.12
104192.15
103959.25
103736.2
103522.78
103318.76
103123.92
102938.07
102761.03
102592.61
102432.66
102281.01
102137.48
102001.9
101874.07
101753.75
101640.71
101534.65
101435.22
101342.04
101254.59
101172.27
101094.32
101019.8
100947.61
100876.52
100805.26
100732.66
100657.83
100580.31
100499.92
100416.53
100329.56
100237.94
100140.47
100036.62
99927.722
99818.047
99714.691
99626.537
99562.821
99529.886
99525.648
99537.348
99549.857
99561.578
99588.995
103782.65
107255.44
108497.11
110223.51
111373.89
112223.07
112770.12
113070.63
113170.07
113112.34
112934.6
112667.71
112336.37
111960.04
111553.75
111129.02
110694.55
110256.92
109821
109390.41
108967.79
108555.01
108153.42
107763.92
107387.08
107023.24
106672.53
106334.97
106010.44
105698.78
105399.74
105113.05
104838.4
104575.49
104323.97
104083.51
103853.78
103634.46
103425.23
103225.83
103036
102855.52
102684.18
102521.79
102368.16
102223.1
102086.4
101957.87
101837.29
101724.39
101618.9
101520.49
101428.79
101343.32
101263.51
101188.64
101117.81
101049.95
100983.9
100918.47
100852.68
100785.94
100718.1
100649.34
100579.64
100508.38
100434.26
100355.56
100271.19
100182.04
100091.6
100005.02
99928.116
99866.891
99825.131
99798.044
99766.599
99708.539
99631.554
99587.249
109125.28
112558.59
113701.51
114852.24
115477.97
115769.7
115793.16
115623.04
115314.43
114910.54
114443.49
113936.95
113408.13
112869.37
112329.5
111794.72
111269.38
110756.43
110257.86
109774.93
109308.38
108858.58
108425.63
108009.45
107609.81
107226.37
106858.76
106506.55
106169.26
105846.44
105537.6
105242.27
104959.99
104690.3
104432.75
104186.92
103952.39
103728.8
103515.78
103313.02
103120.26
102937.23
102763.72
102599.53
102444.44
102298.28
102160.83
102031.9
101911.27
101798.7
101693.94
101596.68
101506.58
101423.24
101346.13
101274.61
101207.84
101144.84
101084.56
101025.99
100968.38
100911.45
100855.35
100800.44
100746.79
100693.67
100639.36
100581.42
100517.9
100448.69
100375.34
100299.85
100224.06
100149.83
100077.71
100001.16
99899.795
99750.303
99570.078
99452.321
115468.94
118027.91
118652.61
118941.15
118847.48
118514.81
118023.95
117436.55
116793.95
116124.16
115445.79
114771.08
114107.98
113461.53
112834.81
112229.61
111646.8
111086.68
110549.15
110033.82
109540.19
109067.6
108615.36
108182.74
107769.02
107373.45
106995.31
106633.92
106288.59
105958.67
105643.55
105342.63
105055.34
104781.16
104519.58
104270.11
104032.3
103805.75
103590.08
103384.96
103190.1
103005.25
102830.17
102664.67
102508.53
102361.56
102223.57
102094.38
101973.78
101861.55
101757.46
101661.25
101572.62
101491.25
101416.71
101348.37
101285.46
101227.15
101172.57
101120.9
101071.57
101024.63
100980.5
100939.69
100902.27
100867.29
100832.41
100794.4
100750.33
100698.45
100637.72
100566.46
100481.89
100381.05
100261.41
100116.28
99928.506
99681.137
99404.41
99218.794
122216.45
122666.79
122447.17
121890.76
121148.75
120312.58
119439.28
118561.17
117697.11
116857.53
116047.96
115271
114527.52
113817.32
113139.63
112493.34
111877.15
111289.72
110729.67
110195.67
109686.43
109200.72
108737.38
108295.31
107873.49
107470.93
107086.74
106720.05
106370.08
106036.06
105717.29
105413.12
105122.93
104846.13
104582.19
104330.58
104090.84
103862.54
103645.28
103438.73
103242.59
103056.6
102880.52
102714.14
102557.27
102409.7
102271.26
102141.77
102021.05
101908.9
101805.13
101709.51
101621.82
101541.77
101468.97
101402.82
101342.53
101287.62
101237.46
101191.38
101148.62
101109.67
101075.22
101045.99
101022.1
101002.43
100984.23
100963.4
100935.63
100897.19
100844.68
100773.73
100676.68
100545.09
100374.26
100158.71
99888.715
99558.008
99207.175
98969.822
126156.28
125521.8
124592.69
123524.61
122423.51
121334.18
120279.66
119269.42
118306.99
117392.65
116525.12
115702.34
114921.93
114181.45
113478.49
112810.73
112176.04
111572.4
110997.96
110451.02
109930
109433.45
108960.05
108508.56
108077.85
107666.88
107274.66
106900.3
106542.94
106201.82
105876.2
105565.4
105268.79
104985.77
104715.79
104458.32
104212.89
103979.06
103756.44
103544.69
103343.5
103152.63
102971.84
102800.93
102639.71
102488.01
102345.64
102212.44
102088.27
101972.96
101866.38
101768.35
101678.63
101596.88
101522.71
101455.75
101395.7
101341.69
101292.79
101248.36
101208.69
101173.89
101144.7
101122.06
101106.29
101096.4
101089.5
101081.14
101065.97
101035.33
100981.58
100910.23
100807.81
100652.89
100444.77
100179.11
99853.149
99469.068
99073.782
98805.529
103036.32
103004.97
103042.7
103082.76
103111.24
103114.25
103090.24
103054.62
103013.19
102962.36
102897.46
102820.49
102735.09
102645.43
102552.35
102456.18
102357.12
102255.55
102151.82
102046.25
101939.13
101830.74
101721.35
101611.18
101500.49
101389.46
101278.29
101167.17
101056.26
100945.72
100835.69
100726.31
100617.71
100510.01
100403.32
100297.74
100193.38
100090.34
99988.688
99888.523
99789.92
99692.956
99597.702
99504.232
99412.617
99322.931
99235.253
99149.671
99066.286
98985.217
98906.609
98830.645
98757.558
98687.647
98621.292
98558.974
98501.293
98448.981
98402.907
98364.077
98333.603
98312.688
98302.436
98304.146
98318.165
98346.561
98386.339
98444.099
98504.325
98591.938
98660.594
98763.665
98851.86
98914.466
99099.41
99040.605
99321.447
99228.049
99625.036
99257.734
102219.4
102213.09
102230.35
102251.17
102252.38
102248.54
102240.32
102225.88
102201.29
102170.32
102132.33
102088.87
102039.45
101984.95
101925.53
101861.72
101793.79
101722.04
101646.79
101568.33
101486.95
101402.95
101316.59
101228.15
101137.9
101046.09
100952.97
100858.79
100763.76
100668.12
100572.07
100475.81
100379.53
100283.41
100187.62
100092.33
99997.687
99903.837
99810.915
99719.047
99628.352
99538.943
99450.926
99364.401
99279.467
99196.221
99114.761
99035.19
98957.621
98882.179
98809.015
98738.313
98670.306
98605.289
98543.635
98485.821
98432.439
98384.216
98342.015
98306.839
98279.795
98262.077
98254.805
98259.26
98275.912
98306.669
98349.048
98408.805
98472.833
98561.413
98635.649
98740.84
98834.03
98899.639
99090.635
99027.815
99331.848
99207.938
99626.469
99240.867
101713.77
101703.56
101688.15
101672.82
101656.39
101641.47
101619.06
101596.62
101570.25
101542.51
101510.35
101475.93
101437.51
101396.22
101351.4
101303.43
101252.23
101197.94
101140.64
101080.46
101017.53
100952
100884
100813.72
100741.33
100666.99
100590.9
100513.24
100434.2
100353.97
100272.75
100190.73
100108.1
100025.05
99941.75
99858.393
99775.149
99692.183
99609.657
99527.723
99446.526
99366.206
99286.893
99208.716
99131.794
99056.247
98982.192
98909.747
98839.036
98770.196
98703.385
98638.791
98576.647
98517.246
98460.963
98408.266
98359.749
98316.132
98278.278
98247.185
98223.958
98209.782
98205.794
98213.263
98232.759
98266.111
98311.194
98373.352
98440.774
98531.224
98610.619
98718.045
98816.04
98884.766
99081.457
99013.971
99338.81
99187.476
99628.752
99222.053
101195.54
101177.49
101154.25
101129.08
101103.34
101080.41
101053.38
101028.43
100999.4
100971.68
100940.53
100909.51
100875.74
100841.04
100804.13
100765.53
100724.9
100682.31
100637.68
100590.96
100542.17
100491.31
100438.39
100383.46
100326.58
100267.82
100207.27
100145.04
100081.24
100016.01
99949.495
99881.832
99813.182
99743.707
99673.572
99602.943
99531.987
99460.87
99389.757
99318.806
99248.174
99178.014
99108.472
99039.69
98971.806
98904.952
98839.26
98774.859
98711.884
98650.48
98590.808
98533.063
98477.476
98424.342
98374.03
98327.01
98283.869
98245.328
98212.245
98185.613
98166.535
98156.189
98155.721
98166.397
98188.88
98224.954
98272.808
98337.505
98408.119
98501.087
98585.17
98694.886
98797.553
98869.709
99072.377
98999.856
99344.098
99167.468
99632.548
99201.403
100551.75
100534.58
100517.88
100498.39
100477.39
100460.68
100438.55
100420.48
100397.55
100377.55
100353.61
100331.13
100305.9
100280.76
100253.79
100225.82
100196.3
100165.36
100132.85
100098.71
100062.89
100025.35
99986.069
99945.032
99902.243
99857.722
99811.503
99763.635
99714.182
99663.223
99610.848
99557.161
99502.278
99446.323
99389.429
99331.737
99273.394
99214.548
99155.353
99095.962
99036.53
98977.208
98918.147
98859.494
98801.391
98743.979
98687.393
98631.768
98577.243
98523.966
98472.101
98421.84
98373.417
98327.121
98283.319
98242.477
98205.179
98172.141
98144.217
98122.397
98107.774
98101.524
98104.802
98118.869
98144.482
98183.388
98234.097
98301.407
98375.198
98470.972
98559.361
98671.592
98778.912
98854.471
99062.257
98991.304
99345.401
99146.667
99637.808
99179.056
99866.729
99857.571
99851.152
99843.5
99832.278
99826.339
99813.527
99806.22
99792.603
99783.13
99768.581
99756.483
99741.123
99726.458
99709.893
99692.672
99674.01
99654.188
99633.031
99610.5
99586.557
99561.153
99534.252
99505.825
99475.852
99444.323
99411.238
99376.611
99340.467
99302.845
99263.797
99223.388
99181.695
99138.807
99094.825
99049.86
99004.032
98957.468
98910.301
98862.671
98814.717
98766.585
98718.415
98670.349
98622.525
98575.079
98528.143
98481.849
98436.334
98391.74
98348.23
98305.989
98265.246
98226.283
98189.461
98155.241
98124.2
98097.047
98074.63
98057.929
98048.033
98046.109
98053.323
98070.936
98099.791
98141.609
98195.224
98265.17
98342.145
98440.749
98533.167
98648.294
98760.287
98838.958
99051.746
98982.838
99348.549
99126.236
99644.048
99155.538
99222.556
99220.815
99220.847
99222.289
99218.386
99221.178
99215.521
99217.168
99211.324
99211.1
99204.864
99202.449
99196.149
99190.703
99183.137
99175.318
99166.205
99156.226
99145.166
99132.988
99119.647
99105.089
99089.269
99072.146
99053.685
99033.858
99012.647
98990.04
98966.04
98940.658
98913.918
98885.858
98856.525
98825.979
98794.293
98761.55
98727.844
98693.276
98657.959
98622.008
98585.546
98548.697
98511.588
98474.344
98437.088
98399.942
98363.027
98326.463
98290.375
98254.896
98220.176
98186.39
98153.754
98122.541
98093.102
98065.886
98041.46
98020.525
98003.915
97992.601
97987.664
97990.261
98001.57
98022.853
98055.042
98099.827
98156.376
98228.949
98309.091
98410.465
98506.785
98625.123
98741.666
98823.317
99041.872
98972.455
99351.535
99109.835
99650.787
99131.332
98634.12
98637.959
98641.444
98649.405
98650.405
98659.861
98659.262