/*--------------------------------*- C++ -*----------------------------------*\
  =========                 |
  \\      /  F ield         | OpenFOAM: The Open Source CFD Toolbox
   \\    /   O peration     | Website:  https://openfoam.org
    \\  /    A nd           | Version:  12
     \\/     M anipulation  |
\*---------------------------------------------------------------------------*/
FoamFile
{
    format      ascii;
    class       volScalarField;
    location    "0.024";
    object      rho;
}
// * * * * * * * * * * * * * * * * * * * * * * * * * * * * * * * * * * * * * //

dimensions      [1 -3 0 0 0 0 0];

internalField   nonuniform List<scalar> 
16000
(
1.0650944
1.0983395
1.0856395
1.0940902
1.0901463
1.0936005
1.0925964
1.0944284
1.094576
1.0957933
1.0964562
1.0974867
1.0983836
1.0994021
1.1004225
1.101497
1.1026057
1.1037557
1.1049451
1.1061744
1.1074432
1.1087511
1.1100976
1.1114818
1.1129026
1.1143586
1.1158482
1.1173694
1.1189199
1.120497
1.1220978
1.123719
1.1253567
1.127007
1.1286653
1.1303268
1.1319863
1.1336383
1.135277
1.1368961
1.1384892
1.1400498
1.1415711
1.1430461
1.1444678
1.1458293
1.1471236
1.1483438
1.1494834
1.1505359
1.1514953
1.1523558
1.1531122
1.1537592
1.1542923
1.1547071
1.1549996
1.1551664
1.1552049
1.1551132
1.1548909
1.1545394
1.1540608
1.1534585
1.1527374
1.1519069
1.1509904
1.1500429
1.1491709
1.1485413
1.1483737
1.1488973
1.1501573
1.1523973
1.1552177
1.1582265
1.1607048
1.1598174
1.1664264
1.1494192
1.0615968
1.09538
1.0821153
1.0910423
1.0868645
1.0905989
1.0894889
1.0914975
1.0916365
1.0929592
1.0936745
1.094782
1.0957548
1.0968497
1.0979528
1.0991107
1.100307
1.1015472
1.1028299
1.1041551
1.1055225
1.1069313
1.1083807
1.1098696
1.1113965
1.1129597
1.114557
1.1161861
1.1178441
1.119528
1.1212341
1.1229586
1.1246971
1.1264451
1.1281975
1.1299489
1.1316936
1.1334255
1.1351384
1.1368258
1.1384808
1.1400968
1.1416668
1.1431837
1.1446408
1.1460311
1.1473479
1.1485846
1.149735
1.150793
1.1517531
1.15261
1.1533588
1.1539949
1.1545141
1.1549122
1.1551855
1.1553306
1.1553447
1.1552258
1.1549731
1.1545868
1.1540685
1.1534203
1.1526459
1.1517542
1.1507696
1.1497495
1.1488033
1.1481032
1.1478785
1.1483428
1.1496152
1.1519385
1.1548177
1.1578527
1.1599662
1.159915
1.1652025
1.1480599
1.0583977
1.092672
1.0789814
1.0882212
1.0838999
1.0878612
1.0867273
1.0888613
1.0890391
1.0904486
1.0912409
1.0924281
1.09349
1.0946713
1.0958683
1.0971211
1.0984162
1.0997577
1.1011443
1.1025757
1.1040513
1.10557
1.1071308
1.1087321
1.110372
1.1120484
1.1137587
1.1155
1.1172689
1.1190616
1.120874
1.1227016
1.1245394
1.1263821
1.1282241
1.1300593
1.1318814
1.133684
1.1354604
1.1372036
1.1389067
1.1405628
1.1421649
1.1437061
1.1451798
1.1465793
1.1478983
1.1491307
1.1502708
1.1513131
1.1522526
1.1530847
1.1538052
1.15441
1.1548953
1.1552577
1.1554935
1.1555997
1.1555733
1.1554121
1.1551147
1.1546806
1.1541102
1.153404
1.1525646
1.1516009
1.1505397
1.1494429
1.1484263
1.1476737
1.1474209
1.1478389
1.1491099
1.1515245
1.1544148
1.1573681
1.1592875
1.1597336
1.1637596
1.1466017
1.0555688
1.0902526
1.0761489
1.0856853
1.0812006
1.0854625
1.0843077
1.086591
1.0868102
1.0883212
1.0892051
1.0904844
1.09165
1.0929306
1.0942344
1.0955942
1.0969997
1.0984534
1.0999543
1.1015019
1.1030953
1.1047333
1.1064143
1.1081363
1.1098972
1.1116941
1.1135239
1.115383
1.1172674
1.1191726
1.1210936
1.1230252
1.1249616
1.1268968
1.1288243
1.1307375
1.1326295
1.1344934
1.136322
1.1381082
1.139845
1.1415253
1.1431424
1.1446896
1.1461607
1.1475495
1.1488503
1.1500577
1.1511666
1.1521724
1.1530709
1.1538583
1.154531
1.1550859
1.1555197
1.1558295
1.1560122
1.1560649
1.1559848
1.1557692
1.1554164
1.1549248
1.1542934
1.1535212
1.1526095
1.1515676
1.1504246
1.1492472
1.1481584
1.1473498
1.14706
1.1473964
1.1486965
1.1510903
1.1539544
1.1567517
1.1584873
1.1592586
1.1621225
1.1449192
1.0531442
1.088255
1.073734
1.0836137
1.0789373
1.0834736
1.0822976
1.0847422
1.0850258
1.0866466
1.0876402
1.0890191
1.090299
1.0916871
1.0931057
1.0945806
1.0961044
1.0976787
1.0993026
1.1009753
1.1026955
1.1044617
1.1062717
1.108123
1.1100127
1.1119373
1.1138928
1.1158747
1.1178783
1.119898
1.121928
1.1239621
1.1259936
1.1280156
1.1300209
1.1320022
1.1339522
1.1358633
1.1377282
1.1395397
1.1412907
1.1429745
1.1445847
1.1461152
1.1475602
1.1489145
1.1501731
1.1513315
1.1523856
1.1533317
1.1541667
1.1548875
1.1554917
1.1559768
1.1563405
1.1565802
1.1566935
1.1566777
1.15653
1.1562477
1.1558281
1.1552688
1.1545672
1.1537209
1.1527302
1.1516051
1.150378
1.1491218
1.1479684
1.1471151
1.1467989
1.1470448
1.148454
1.1507085
1.1534764
1.1560371
1.1575074
1.1584188
1.1601505
1.1430596
1.0511441
1.0866724
1.0717822
1.0820317
1.0772458
1.0819603
1.0807257
1.083382
1.0837438
1.0854761
1.0865843
1.0880623
1.0894617
1.0909634
1.0925046
1.0941041
1.0957569
1.0974634
1.0992225
1.1010326
1.1028922
1.1047986
1.1067492
1.1087406
1.1107688
1.1128295
1.1149176
1.1170277
1.1191536
1.121289
1.1234267
1.1255596
1.1276799
1.12978
1.1318518
1.1338874
1.1358791
1.137819
1.1396998
1.1415144
1.143256
1.1449186
1.1464962
1.1479837
1.1493762
1.1506695
1.1518597
1.1529434
1.1539177
1.1547801
1.1555285
1.156161
1.1566762
1.1570723
1.1573477
1.1575008
1.1575295
1.1574313
1.1572034
1.1568429
1.1563464
1.1557104
1.1549309
1.1540041
1.1529299
1.1517199
1.1504106
1.1490821
1.1478753
1.1469883
1.1466037
1.1468632
1.1482719
1.1504105
1.1529973
1.1552434
1.1563788
1.1572386
1.1578728
1.1410897
1.0495447
1.0854833
1.0702541
1.0809063
1.0760095
1.0809367
1.079775
1.0825753
1.0829517
1.0847606
1.0860014
1.0875915
1.0891273
1.0907604
1.092442
1.0941848
1.095985
1.097842
1.0997541
1.1017191
1.1037343
1.1057964
1.1079017
1.1100456
1.1122232
1.1144287
1.116656
1.1188981
1.1211477
1.1233969
1.1256377
1.1278615
1.1300598
1.1322239
1.1343453
1.1364156
1.1384268
1.1403712
1.1422417
1.1440317
1.1457352
1.1473468
1.1488618
1.1502763
1.1515866
1.1527897
1.1538833
1.1548652
1.1557339
1.1564881
1.1571271
1.15765
1.1580562
1.158345
1.1585156
1.1585668
1.1584969
1.1583037
1.1579844
1.1575355
1.1569532
1.1562328
1.155369
1.1543574
1.1531981
1.1519052
1.1505205
1.1491312
1.1478819
1.1469628
1.1465544
1.1469225
1.1482013
1.1502077
1.1525401
1.1544001
1.1551833
1.1558229
1.1553513
1.1391425
1.0482909
1.084636
1.0690899
1.0801942
1.0751509
1.0804015
1.079145
1.0818401
1.0825541
1.0844983
1.0859039
1.0876309
1.0893287
1.0911186
1.0929646
1.0948745
1.0968451
1.0988748
1.1009611
1.1031009
1.1052903
1.1075251
1.1097999
1.1121091
1.1144462
1.1168038
1.1191742
1.121549
1.1239193
1.1262759
1.1286094
1.1309102
1.1331689
1.1353761
1.1375231
1.1396012
1.1416027
1.1435205
1.1453479
1.1470796
1.1487106
1.1502369
1.1516555
1.1529636
1.1541595
1.1552418
1.1562095
1.1570622
1.1577997
1.1584221
1.1589299
1.1593233
1.1596026
1.1597679
1.1598189
1.159755
1.1595748
1.159276
1.1588559
1.1583104
1.1576352
1.1568246
1.1558725
1.1547743
1.1535317
1.1521623
1.150714
1.1492799
1.1480056
1.1470826
1.1466945
1.1470899
1.1482703
1.1501047
1.1521213
1.1535332
1.1539977
1.1542781
1.1527337
1.1373554
1.0473789
1.0841188
1.0682756
1.0799113
1.0746069
1.0798866
1.078841
1.0818228
1.0826876
1.0847661
1.0863657
1.0882543
1.0901394
1.092113
1.0941492
1.096252
1.0984179
1.1006443
1.1029274
1.1052629
1.1076456
1.1100695
1.1125278
1.1150129
1.1175165
1.1200294
1.1225421
1.1250443
1.1275257
1.1299756
1.1323834
1.1347386
1.1370312
1.1392517
1.1413911
1.1434415
1.1453958
1.1472479
1.1489927
1.1506262
1.1521453
1.153548
1.1548328
1.1559993
1.1570475
1.1579776
1.1587907
1.1594878
1.1600702
1.1605392
1.1608965
1.1611431
1.1612803
1.1613086
1.1612283
1.161039
1.1607393
1.1603271
1.1597992
1.1591513
1.1583783
1.1574741
1.1564323
1.1552489
1.1539281
1.1524925
1.1509962
1.1495371
1.1482573
1.1473575
1.1470059
1.1473785
1.1484796
1.1501024
1.1517567
1.1526806
1.1528491
1.1526878
1.1502179
1.1358111
1.0468595
1.0839785
1.0678472
1.0798014
1.0744555
1.0800882
1.0791616
1.0823711
1.0834012
1.0856385
1.0874652
1.0895458
1.0916468
1.0938338
1.0960887
1.0984122
1.1008001
1.1032482
1.1057514
1.1083034
1.1108973
1.1135249
1.1161773
1.1188446
1.1215162
1.124181
1.1268272
1.1294429
1.132016
1.1345346
1.1369873
1.1393631
1.1416519
1.1438445
1.1459328
1.14791
1.1497706
1.1515103
1.1531261
1.1546164
1.1559803
1.157218
1.1583307
1.1593198
1.1601875
1.160936
1.1615679
1.1620857
1.1624922
1.1627897
1.1629807
1.1630672
1.1630507
1.1629324
1.1627125
1.1623909
1.1619661
1.1614356
1.1607961
1.1600427
1.15917
1.1581716
1.1570414
1.155777
1.1543863
1.1528971
1.1513705
1.1499067
1.1486415
1.1477724
1.1474639
1.1478156
1.1488159
1.1501988
1.1514592
1.1519172
1.1517274
1.1511689
1.1479786
1.134617
1.0468382
1.084308
1.0679239
1.0799919
1.0748856
1.0808232
1.0801455
1.0834791
1.0847945
1.0872111
1.0892975
1.0916032
1.0939507
1.0963834
1.0988879
1.1014621
1.1041002
1.1067961
1.1095425
1.1123306
1.1151509
1.1179925
1.1208438
1.1236922
1.1265246
1.1293273
1.1320866
1.134789
1.1374209
1.1399699
1.1424239
1.1447725
1.1470062
1.1491173
1.1510994
1.1529479
1.1546598
1.1562338
1.1576695
1.1589682
1.1601319
1.1611636
1.1620667
1.162845
1.1635026
1.1640435
1.1644718
1.1647914
1.1650059
1.1651186
1.1651324
1.1650499
1.1648729
1.1646024
1.164239
1.1637821
1.1632301
1.1625802
1.1618283
1.1609697
1.1599983
1.158908
1.1576937
1.1563554
1.1549052
1.1533766
1.1518366
1.1503851
1.1491544
1.148329
1.1480525
1.1483766
1.149256
1.1503898
1.1512688
1.1512923
1.1507931
1.1498591
1.1461099
1.1338955
1.0473632
1.0851576
1.0685713
1.0810961
1.076034
1.0822083
1.0817869
1.0853111
1.0869453
1.0895731
1.091956
1.0945273
1.0971579
1.0998736
1.102663
1.105521
1.1084396
1.1114096
1.1144207
1.1174608
1.120517
1.1235751
1.1266201
1.1296365
1.1326085
1.13552
1.1383557
1.1411006
1.1437408
1.1462638
1.1486585
1.1509158
1.1530285
1.1549914
1.1568016
1.1584576
1.1599601
1.1613112
1.1625141
1.1635734
1.1644941
1.1652818
1.1659423
1.1664815
1.1669052
1.1672187
1.1674272
1.1675356
1.167548
1.1674683
1.1672997
1.1670447
1.1667051
1.1662819
1.1657753
1.1651844
1.1645069
1.1637397
1.1628785
1.1619179
1.160852
1.1596751
1.1583837
1.1569809
1.1554831
1.1539298
1.152392
1.1509663
1.1497832
1.1490089
1.1487501
1.1490332
1.1497788
1.1506649
1.1512165
1.150887
1.1499903
1.1488454
1.1446846
1.1337418
1.0484132
1.0865301
1.0697638
1.0827233
1.0778548
1.0842736
1.0842049
1.0879273
1.0899473
1.0928308
1.0955531
1.0984382
1.1013953
1.1044366
1.1075505
1.1107278
1.113957
1.1172247
1.1205164
1.123816
1.1271062
1.1303692
1.1335865
1.1367393
1.1398094
1.1427791
1.1456317
1.1483524
1.1509281
1.1533479
1.1556036
1.1576892
1.1596016
1.1613398
1.1629052
1.164301
1.1655321
1.1666046
1.1675257
1.1683027
1.1689438
1.1694569
1.1698496
1.1701294
1.1703031
1.1703772
1.1703573
1.1702487
1.1700558
1.1697826
1.1694321
1.1690066
1.1685076
1.1679357
1.1672905
1.1665705
1.1657732
1.1648945
1.1639299
1.1628739
1.1617205
1.1604651
1.1591061
1.1576499
1.1561174
1.1545531
1.1530298
1.1516377
1.1505047
1.1497811
1.1495254
1.1497512
1.1503605
1.151008
1.1512556
1.1507192
1.1495433
1.1481354
1.1437775
1.1342543
1.050069
1.0884976
1.0716027
1.0850415
1.0804679
1.0871303
1.0875023
1.0914512
1.0939197
1.0971163
1.1002288
1.1034845
1.1068193
1.1102342
1.1137139
1.1172444
1.1208086
1.1243883
1.1279636
1.1315136
1.1350166
1.1384504
1.1417931
1.1450235
1.1481217
1.1510695
1.1538512
1.1564541
1.1588682
1.1610871
1.1631074
1.1649287
1.1665534
1.1679863
1.169234
1.170305
1.1712085
1.1719545
1.1725534
1.1730155
1.1733509
1.1735692
1.1736792
1.1736892
1.1736066
1.1734381
1.1731894
1.1728657
1.1724713
1.1720097
1.1714836
1.1708948
1.1702442
1.1695318
1.1687565
1.1679162
1.1670076
1.1660264
1.1649675
1.1638251
1.162594
1.1612703
1.159855
1.1583575
1.1568027
1.155239
1.153738
1.1523802
1.1512921
1.1506067
1.1503403
1.1504975
1.1509747
1.1514158
1.1514068
1.1506896
1.1494039
1.1478002
1.1434717
1.1354558
1.0523869
1.0911093
1.0741982
1.0881421
1.0839389
1.0908763
1.0917992
1.0960201
1.0990128
1.1026002
1.1061668
1.1098585
1.1136268
1.1174619
1.1213432
1.1252498
1.1291587
1.1330454
1.136884
1.1406481
1.1443111
1.1478473
1.1512321
1.1544437
1.1574628
1.1602741
1.162866
1.1652311
1.1673662
1.1692717
1.1709516
1.1724127
1.1736642
1.174717
1.1755834
1.1762762
1.1768087
1.177194
1.1774447
1.1775729
1.1775899
1.1775059
1.1773302
1.177071
1.1767355
1.1763301
1.1758603
1.1753306
1.1747448
1.1741057
1.1734153
1.1726749
1.1718844
1.1710432
1.1701496
1.1692005
1.1681921
1.1671196
1.1659776
1.1647604
1.163463
1.162083
1.1606235
1.1590967
1.1575304
1.1559757
1.1544993
1.1531718
1.1521176
1.151452
1.1511576
1.1512361
1.1515912
1.1518799
1.1517274
1.1509198
1.149604
1.147876
1.143789
1.1372559
1.0554243
1.0943892
1.0776798
1.0921053
1.0884229
1.0956614
1.0972734
1.1018447
1.1054478
1.1095176
1.1136071
1.1177984
1.1220489
1.1263387
1.13064
1.1349242
1.1391602
1.1433161
1.1473592
1.1512576
1.1549811
1.1585023
1.1617979
1.164849
1.1676422
1.1701692
1.1724271
1.1744178
1.1761475
1.1776258
1.1788653
1.1798805
1.1806871
1.1813018
1.181741
1.1820212
1.182158
1.1821663
1.1820598
1.1818511
1.1815514
1.1811708
1.1807179
1.1802004
1.1796247
1.1789964
1.1783201
1.1775996
1.1768378
1.1760367
1.1751974
1.1743204
1.1734049
1.1724493
1.1714512
1.1704069
1.1693121
1.1681613
1.1669491
1.1656697
1.1643187
1.162895
1.1614034
1.1598579
1.1582888
1.156747
1.155293
1.1539895
1.1529549
1.152284
1.1519436
1.1519361
1.1521775
1.1523524
1.1521285
1.1513251
1.1500605
1.1483332
1.1446397
1.1395355
1.0592665
1.098353
1.082161
1.0971054
1.0941378
1.1017454
1.1041987
1.1092153
1.1135111
1.1181518
1.1228257
1.1275669
1.1323316
1.1370882
1.1417986
1.1464236
1.1509223
1.1552547
1.1593826
1.1632717
1.1668927
1.1702229
1.1732461
1.1759537
1.1783434
1.1804196
1.1821916
1.1836732
1.1848813
1.1858351
1.1865551
1.1870623
1.1873775
1.187521
1.1875118
1.187368
1.1871059
1.1867406
1.1862854
1.1857522
1.1851512
1.1844912
1.18378
1.1830238
1.182228
1.181397
1.1805343
1.1796428
1.1787243
1.17778
1.1768099
1.1758137
1.1747898
1.1737358
1.1726486
1.171524
1.1703569
1.1691418
1.1678728
1.1665445
1.1651529
1.1636978
1.162185
1.1606298
1.1590635
1.1575349
1.1560976
1.15481
1.1537782
1.1530744
1.15267
1.1525691
1.152701
1.1527944
1.1525637
1.1518381
1.1507051
1.1490922
1.1458955
1.1421148
1.064123
1.1032366
1.0879304
1.1034776
1.1014224
1.1094584
1.112899
1.1184581
1.1235173
1.1288105
1.1341205
1.1394435
1.1447253
1.149918
1.1549696
1.1598284
1.1644455
1.1687768
1.1727857
1.176444
1.179733
1.1826435
1.1851752
1.187336
1.1891399
1.1906065
1.1917588
1.1926222
1.1932232
1.1935885
1.193744
1.1937145
1.1935234
1.1931919
1.1927397
1.192184
1.1915406
1.1908228
1.1900427
1.1892103
1.1883342
1.1874217
1.1864785
1.1855096
1.1845191
1.18351
1.1824847
1.1814448
1.1803912
1.1793241
1.1782428
1.1771458
1.176031
1.1748954
1.1737349
1.1725449
1.1713201
1.1700546
1.1687423
1.1673779
1.1659579
1.1644825
1.1629579
1.1613999
1.1598393
1.1583211
1.1568931
1.1556119
1.1545637
1.1538016
1.1533179
1.1531174
1.1531391
1.1531749
1.1529813
1.1523951
1.1514631
1.1500807
1.1474764
1.1447725
1.0702516
1.1097388
1.0953533
1.1115428
1.1106165
1.1191248
1.123708
1.1299343
1.1358315
1.1418513
1.1478263
1.1537159
1.1594473
1.1649539
1.170171
1.1750418
1.179519
1.1835682
1.1871674
1.1903079
1.1929928
1.1952354
1.197057
1.198485
1.1995508
1.200288
1.2007309
1.2009132
1.2008672
1.2006233
1.2002094
1.1996509
1.1989705
1.1981882
1.1973219
1.1963868
1.195396
1.194361
1.193291
1.1921941
1.1910766
1.1899439
1.1887999
1.1876481
1.1864911
1.1853305
1.1841678
1.1830034
1.1818372
1.1806683
1.1794954
1.1783163
1.1771281
1.1759271
1.1747089
1.1734683
1.1721998
1.170897
1.169554
1.1681653
1.1667277
1.1652415
1.1637127
1.1621569
1.160603
1.159091
1.1576648
1.156378
1.1552954
1.1544602
1.1538834
1.1535752
1.1534888
1.1534824
1.1533579
1.152965
1.1523021
1.1512568
1.149313
1.1474222
1.0778239
1.118023
1.1046221
1.1215434
1.1221066
1.1311826
1.1370832
1.1441326
1.1509259
1.1576903
1.1642689
1.1705855
1.1765506
1.1820894
1.1871409
1.191662
1.1956279
1.1990317
1.2018821
1.2042011
1.2060206
1.2073791
1.2083196
1.2088864
1.2091238
1.2090743
1.208778
1.2082718
1.2075889
1.2067592
1.2058088
1.2047606
1.2036345
1.2024473
1.2012135
1.1999451
1.1986524
1.1973436
1.1960256
1.1947036
1.1933821
1.1920642
1.1907524
1.1894485
1.1881537
1.1868687
1.1855937
1.1843282
1.1830711
1.181821
1.1805755
1.1793321
1.178087
1.1768363
1.175575
1.1742977
1.1729983
1.1716705
1.1703081
1.1689056
1.1674597
1.1659707
1.1644441
1.1628947
1.1613483
1.15984
1.1584105
1.1571071
1.1559805
1.1550674
1.1543891
1.1539681
1.1537868
1.1537577
1.1537319
1.1535726
1.153238
1.1526165
1.1513591
1.1501231
1.0870192
1.1282224
1.1163881
1.1340589
1.1365633
1.1463464
1.153691
1.1616632
1.1692934
1.176645
1.1835583
1.1899396
1.1957072
1.2008076
1.2052132
1.2089216
1.2119511
1.2143372
1.2161271
1.2173756
1.2181411
1.2184823
1.2184563
1.2181168
1.217513
1.2166893
1.215685
1.2145348
1.2132685
1.2119116
1.2104861
1.2090103
1.2074995
1.2059664
1.2044216
1.2028736
1.2013291
1.1997936
1.1982711
1.1967647
1.1952766
1.1938084
1.1923609
1.1909347
1.1895298
1.188146
1.1867823
1.1854376
1.1841101
1.1827976
1.1814972
1.1802058
1.1789193
1.1776333
1.1763425
1.1750412
1.173723
1.1723813
1.1710098
1.1696029
1.1681573
1.1666728
1.1651548
1.1636165
1.162081
1.160579
1.1591467
1.157825
1.1566542
1.1556667
1.1548949
1.1543745
1.1541193
1.1540919
1.1541913
1.1542942
1.154328
1.1541834
1.1536047
1.1529257
1.098638
1.141215
1.1315801
1.150058
1.1549612
1.1655293
1.17424
1.1830005
1.1911284
1.1985973
1.2052767
1.2111029
1.2160459
1.2201121
1.2233363
1.2257746
1.2274972
1.228582
1.2291085
1.229155
1.2287948
1.2280952
1.2271164
1.2259115
1.2245265
1.2230008
1.2213681
1.2196563
1.2178892
1.216086
1.2142629
1.2124327
1.210606
1.2087911
1.2069945
1.2052213
1.2034752
1.2017588
1.2000738
1.1984215
1.1968021
1.1952158
1.1936623
1.1921411
1.1906513
1.1891917
1.1877608
1.1863566
1.1849768
1.1836188
1.1822793
1.1809546
1.1796405
1.1783323
1.1770245
1.175711
1.1743852
1.1730403
1.1716697
1.1702678
1.168831
1.1673592
1.1658573
1.1643379
1.1628215
1.1613352
1.1599102
1.1585799
1.1573775
1.1563358
1.1554945
1.1549041
1.1546074
1.1546083
1.1548482
1.1552199
1.1556272
1.1559584
1.1559969
1.1557839
1.1143302
1.1581356
1.1515015
1.1706285
1.1782798
1.1895045
1.1990727
1.208024
1.2158923
1.2226542
1.2282717
1.2327695
1.2362085
1.2386777
1.2402818
1.2411316
1.2413368
1.2410012
1.2402193
1.2390751
1.2376418
1.2359821
1.2341489
1.2321868
1.2301323
1.2280159
1.2258622
1.2236912
1.221519
1.2193584
1.2172193
1.2151096
1.2130351
1.2110003
1.209008
1.2070605
1.2051587
1.2033031
1.2014936
1.1997296
1.1980102
1.1963344
1.194701
1.1931086
1.1915556
1.1900402
1.1885604
1.1871137
1.1856974
1.1843084
1.1829434
1.1815984
1.1802689
1.1789502
1.1776366
1.1763219
1.1749993
1.1736618
1.1723025
1.1709157
1.1694977
1.1680487
1.1665739
1.1650856
1.1636031
1.1621504
1.1607535
1.1594385
1.1582321
1.1571678
1.156294
1.1556738
1.1553695
1.155415
1.1557859
1.156392
1.1571146
1.1578279
1.1583413
1.1584963
1.1354471
1.1802962
1.1775974
1.1967873
1.2068744
1.2181952
1.2275553
1.2355684
1.2420609
1.2471005
1.2507849
1.2532561
1.2546714
1.2551909
1.2549668
1.2541377
1.252825
1.2511334
1.249151
1.2469509
1.2445929
1.2421261
1.2395896
1.2370151
1.2344274
1.2318463
1.2292873
1.2267622
1.2242801
1.2218476
1.2194695
1.2171492
1.2148887
1.2126892
1.2105509
1.2084734
1.2064559
1.204497
1.2025952
1.2007487
1.1989557
1.1972144
1.1955229
1.1938792
1.1922812
1.1907267
1.1892132
1.1877381
1.1862983
1.1848906
1.1835115
1.1821569
1.1808226
1.1795036
1.1781944
1.1768886
1.1755795
1.1742598
1.1729227
1.1715623
1.1701751
1.168762
1.1673293
1.1658904
1.1644639
1.1630713
1.1617329
1.160467
1.1592941
1.1582475
1.1573816
1.1567677
1.1564753
1.156553
1.1570027
1.1577486
1.1586445
1.1595293
1.1602512
1.1606521
1.1647802
1.2084968
1.2109526
1.2294296
1.239858
1.2499014
1.2576117
1.2633944
1.2673804
1.269815
1.2709406
1.2709957
1.2701945
1.2687236
1.2667398
1.2643722
1.2617255
1.2588833
1.2559118
1.252863
1.2497775
1.2466865
1.2436141
1.2405785
1.2375936
1.2346693
1.231813
1.2290296
1.2263223
1.223693
1.2211425
1.2186705
1.2162763
1.2139585
1.2117153
1.2095446
1.2074441
1.2054112
1.2034434
1.2015382
1.199693
1.1979055
1.1961734
1.1944943
1.1928658
1.1912853
1.1897502
1.1882577
1.1868047
1.1853879
1.1840038
1.1826484
1.1813176
1.1800067
1.1787102
1.1774222
1.1761358
1.1748441
1.1735401
1.1722181
1.1708756
1.1695144
1.168143
1.1667764
1.1654333
1.1641319
1.1628862
1.1617062
1.1606051
1.1596133
1.1587875
1.158198
1.1579068
1.1579611
1.1583786
1.1590957
1.1599349
1.160687
1.1612613
1.1617217
1.2048462
1.2445746
1.2502992
1.2658971
1.2751512
1.2821266
1.2865074
1.2888543
1.2895369
1.2889305
1.2873422
1.2850263
1.2821846
1.2789752
1.2755198
1.2719113
1.2682201
1.2644989
1.260787
1.2571135
1.2534996
1.2499604
1.2465067
1.2431455
1.2398815
1.2367172
1.2336536
1.2306904
1.2278268
1.2250608
1.2223904
1.2198129
1.2173255
1.2149251
1.2126085
1.2103724
1.2082135
1.2061285
1.2041143
1.2021677
1.2002858
1.1984661
1.1967059
1.1950027
1.1933537
1.1917564
1.1902081
1.1887058
1.1872466
1.1858272
1.1844441
1.1830938
1.1817723
1.1804751
1.1791974
1.1779335
1.1766772
1.1754217
1.1741605
1.1728887
1.1716047
1.1703124
1.1690224
1.1677513
1.1665174
1.1653354
1.1642124
1.1631484
1.162147
1.1612346
1.1604635
1.1598887
1.1595489
1.1594772
1.1596958
1.1601513
1.1606427
1.1609182
1.1609944
1.1613031
1.2537753
1.286771
1.2939116
1.3038086
1.3086944
1.3109546
1.3109841
1.309448
1.3067898
1.3033633
1.2994272
1.2951718
1.2907345
1.2862144
1.2816815
1.2771855
1.2727612
1.2684321
1.2642141
1.2601173
1.2561477
1.2523082
1.2485997
1.2450212
1.241571
1.2382462
1.2350436
1.2319596
1.2289901
1.2261312
1.2233786
1.2207282
1.2181758
1.2157173
1.2133486
1.2110656
1.2088645
1.2067414
1.2046929
1.2027155
1.2008064
1.1989626
1.1971813
1.19546
1.1937959
1.1921865
1.1906289
1.1891205
1.1876583
1.1862391
1.1848598
1.183517
1.1822071
1.1809263
1.1796703
1.1784339
1.1772116
1.1759971
1.1747849
1.173571
1.1723556
1.1711446
1.1699503
1.1687899
1.1676803
1.1666322
1.1656453
1.1647098
1.1638222
1.1630009
1.1622785
1.161678
1.1612087
1.1608821
1.1607084
1.1606405
1.1604939
1.1600386
1.1594003
1.1593934
1.3092661
1.3300333
1.3344718
1.3367277
1.335754
1.3328904
1.3287597
1.3238623
1.3185257
1.3129721
1.3073481
1.3017505
1.2962421
1.2908626
1.2856367
1.2805783
1.2756947
1.2709883
1.2664584
1.262102
1.257915
1.2538924
1.2500285
1.2463176
1.2427535
1.2393305
1.2360424
1.2328836
1.2298483
1.2269311
1.2241266
1.2214298
1.2188356
1.2163394
1.2139365
1.2116224
1.2093931
1.2072443
1.2051725
1.2031742
1.2012463
1.1993858
1.1975901
1.1958564
1.1941822
1.1925647
1.1910014
1.1894896
1.1880266
1.1866095
1.1852352
1.1839007
1.1826029
1.1813388
1.1801046
1.1788957
1.1777066
1.1765321
1.1753681
1.1742123
1.1730653
1.1719359
1.1708376
1.1697872
1.1687993
1.1678798
1.1670211
1.1662081
1.1654312
1.1646931
1.1639971
1.1633302
1.1626647
1.1619851
1.1612844
1.1605229
1.1595611
1.1582469
1.1568418
1.1564451
1.3634521
1.3664274
1.3648939
1.3601442
1.3539968
1.3471028
1.3399279
1.3327182
1.3256214
1.3187175
1.3120494
1.3056372
1.2994875
1.2935988
1.2879652
1.282578
1.277427
1.2725016
1.2677912
1.2632851
1.2589732
1.2548456
1.2508931
1.2471068
1.2434784
1.24
1.2366641
1.2334637
1.2303922
1.2274431
1.2246105
1.2218887
1.2192723
1.2167563
1.2143356
1.2120057
1.2097619
1.2076003
1.205517
1.2035083
1.2015713
1.1997028
1.1979002
1.1961607
1.1944817
1.1928607
1.191295
1.1897821
1.1883195
1.1869045
1.1855343
1.1842064
1.1829182
1.1816668
1.180449
1.1792602
1.1780943
1.1769497
1.1758235
1.1747144
1.173621
1.1725554
1.1715328
1.1705701
1.1696807
1.168868
1.1681212
1.1674181
1.1667346
1.1660521
1.1653529
1.1646111
1.1637635
1.1627262
1.1614933
1.160037
1.1582955
1.1562198
1.1541763
1.1534088
1.3981766
1.3902085
1.3821156
1.373476
1.3645027
1.355643
1.3470542
1.338811
1.3309403
1.3234442
1.316313
1.3095309
1.3030797
1.2969407
1.2910953
1.2855256
1.280215
1.2751478
1.2703096
1.265687
1.2612677
1.2570401
1.2529937
1.2491188
1.2454061
1.2418472
1.2384341
1.2351595
1.2320163
1.228998
1.2260985
1.2233119
1.2206327
1.2180558
1.2155761
1.2131888
1.2108896
1.2086742
1.2065388
1.2044798
1.202494
1.2005787
1.198731
1.1969485
1.1952286
1.1935688
1.1919667
1.1904198
1.1889256
1.1874819
1.1860866
1.1847375
1.1834316
1.1821657
1.1809362
1.1797405
1.1785774
1.1774404
1.1763245
1.1752277
1.1741581
1.1731232
1.1721387
1.1712242
1.1703947
1.1696545
1.1689891
1.1683685
1.1677602
1.1671113
1.1663556
1.1654718
1.1646035
1.1632882
1.1616794
1.1597332
1.1574592
1.1548863
1.1524426
1.1514273
1.1550678
1.1641353
1.1839149
1.1997108
1.2066289
1.2081128
1.2079545
1.2075412
1.2074664
1.2073295
1.2070278
1.2065809
1.2060152
1.2053849
1.2046956
1.2039728
1.2032161
1.2024296
1.2016178
1.2007846
1.1999338
1.1990687
1.1981923
1.1973076
1.196417
1.1955229
1.1946275
1.1937327
1.1928404
1.1919524
1.1910703
1.1901956
1.1893299
1.1884748
1.1876315
1.1868017
1.1859867
1.1851879
1.1844069
1.183645
1.1829037
1.1821845
1.181489
1.1808186
1.180175
1.1795595
1.1789733
1.1784178
1.1778946
1.1774049
1.1769495
1.1765291
1.1761442
1.1757949
1.175481
1.1752015
1.1749535
1.1747326
1.1745336
1.1743522
1.1741803
1.1740011
1.1737908
1.17353
1.1731932
1.1727645
1.1721782
1.1714617
1.1704396
1.1693191
1.1676353
1.1658857
1.1635709
1.1609291
1.159484
1.1573014
1.1590945
1.1595553
1.164581
1.164037
1.1493782
1.1660486
1.1890115
1.2006794
1.2037637
1.2035426
1.2030202
1.2028778
1.2027165
1.2025008
1.202212
1.2018842
1.2015113
1.2010999
1.2006466
1.200154
1.1996241
1.1990603
1.1984653
1.1978419
1.1971927
1.1965204
1.1958275
1.1951166
1.1943902
1.1936509
1.1929008
1.1921424
1.191378
1.1906095
1.1898391
1.1890689
1.1883009
1.1875368
1.1867787
1.1860283
1.1852875
1.1845581
1.1838417
1.1831402
1.1824552
1.1817883
1.1811412
1.1805156
1.179913
1.1793347
1.178782
1.178256
1.177758
1.177289
1.1768494
1.1764395
1.1760593
1.1757083
1.1753857
1.17509
1.174818
1.1745649
1.1743256
1.1740949
1.173864
1.1736167
1.1733328
1.1729968
1.1725859
1.1720845
1.1714354
1.1706624
1.1696147
1.1684603
1.1668006
1.1650597
1.1628159
1.1602774
1.1590212
1.1570664
1.15931
1.159593
1.164823
1.1639399
1.1503603
1.1713495
1.1894886
1.1978095
1.1992674
1.198972
1.1986123
1.1984876
1.1983315
1.1981758
1.1979589
1.1977238
1.1974458
1.1971425
1.1968043
1.1964377
1.1960415
1.1956175
1.1951668
1.1946905
1.19419
1.1936668
1.1931224
1.1925586
1.1919769
1.1913791
1.190767
1.1901425
1.1895072
1.1888631
1.1882121
1.1875561
1.1868969
1.1862366
1.1855769
1.1849199
1.1842674
1.1836213
1.1829835
1.1823558
1.18174
1.1811378
1.180551
1.1799812
1.17943
1.1788988
1.1783886
1.1779005
1.1774356
1.1769944
1.1765773
1.1761841
1.1758143
1.1754672
1.1751414
1.174835
1.1745446
1.1742656
1.1739927
1.1737201
1.1734384
1.1731332
1.1727876
1.1723892
1.1719171
1.171357
1.1706585
1.1698448
1.16878
1.167609
1.1659772
1.1642525
1.1620848
1.1596585
1.1586018
1.1568482
1.1594711
1.1596267
1.1650649
1.1638112
1.1520773
1.1742329
1.1890828
1.1953201
1.1955738
1.1952186
1.1948677
1.1947503
1.1945349
1.1943588
1.1941229
1.1938989
1.1936433
1.1933827
1.1930993
1.1928013
1.1924845
1.1921504
1.1917984
1.1914282
1.1910402
1.1906344
1.1902112
1.1897711
1.1893148
1.188843
1.1883567
1.187857
1.187345
1.1868221
1.1862895
1.1857488
1.1852016
1.1846494
1.184094
1.1835372
1.1829806
1.1824261
1.1818754
1.1813304
1.1807928
1.1802643
1.1797466
1.1792413
1.1787499
1.1782739
1.177814
1.1773713
1.1769465
1.17654
1.1761517
1.1757813
1.175428
1.1750905
1.1747671
1.1744556
1.1741527
1.1738538
1.1735536
1.1732457
1.1729208
1.1725664
1.172169
1.171718
1.1711944
1.1705856
1.1698478
1.169004
1.1679288
1.1667536
1.1651502
1.1634473
1.1613612
1.1590576
1.1582324
1.1566377
1.1595778
1.1596744
1.1653154
1.1636534
1.1504814
1.1736938
1.1866674
1.1911481
1.1908106
1.1907127
1.1904207
1.1903931
1.1902105
1.1901097
1.1899299
1.1897817
1.1895966
1.1894166
1.1892153
1.1890054
1.1887802
1.188542
1.1882896
1.1880226
1.1877408
1.1874441
1.1871324
1.1868058
1.1864645
1.1861089
1.1857393
1.1853565
1.184961
1.1845537
1.1841355
1.1837076
1.1832709
1.1828269
1.1823769
1.1819222
1.1814646
1.1810054
1.1805464
1.1800891
1.1796352
1.1791861
1.1787436
1.1783091
1.1778839
1.1774693
1.1770661
1.1766749
1.1762963
1.1759304
1.1755769
1.1752351
1.1749039
1.1745817
1.1742665
1.1739559
1.1736466
1.1733341
1.1730133
1.1726773
1.1723176
1.1719236
1.1714845
1.1709911
1.1704259
1.1697788
1.1690118
1.1681476
1.1670699
1.1658988
1.1643251
1.162651
1.1606527
1.1584786
1.157893
1.1564832
1.1596567
1.1597111
1.1655826
1.1634671
1.1463545
1.1718575
1.1828368
1.1864509
1.1859176
1.1860722
1.1858158
1.185908
1.1857781
1.1857723
1.18566
1.1855987
1.1854916
1.1853974
1.1852803
1.1851582
1.1850215
1.1848742
1.1847146
1.1845426
1.184358
1.1841607
1.1839504
1.1837272
1.1834908
1.1832415
1.1829793
1.1827045
1.1824174
1.1821185
1.1818084
1.1814877
1.1811573
1.180818
1.180471
1.1801172
1.1797581
1.1793947
1.1790286
1.178661
1.1782933
1.177927
1.1775634
1.1772037
1.1768492
1.1765008
1.1761591
1.1758246
1.1754974
1.1751774
1.174864
1.1745562
1.1742526
1.1739512
1.17365
1.1733462
1.1730367
1.1727172
1.1723824
1.1720259
1.1716398
1.1712154
1.1707442
1.1702174
1.1696198
1.1689436
1.1681564
1.16728
1.1662065
1.1650447
1.1635024
1.1618645
1.1599603
1.1579204
1.1575823
1.156348
1.1597739
1.1597553
1.16585
1.1632568
1.1425039
1.1698928
1.1787611
1.1818958
1.181226
1.1815837
1.1813295
1.1815249
1.1814328
1.1815115
1.1814578
1.1814783
1.1814439
1.1814248
1.1813796
1.1813339
1.1812749
1.1812081
1.1811313
1.1810444
1.1809471
1.180839
1.1807199
1.1805896
1.1804479
1.1802946
1.1801297
1.1799533
1.1797654
1.1795662
1.179356
1.1791353
1.1789045
1.1786643
1.1784154
1.1781587
1.177895
1.1776255
1.177351
1.1770728
1.176792
1.1765096
1.1762267
1.1759444
1.1756635
1.1753846
1.1751081
1.1748342
1.1745627
1.1742931
1.1740245
1.1737556
1.1734847
1.1732097
1.172928
1.1726369
1.1723333
1.1720131
1.1716713
1.1713017
1.1708974
1.1704515
1.1699568
1.1694052
1.1687838
1.1680869
1.1672876
1.166406
1.1653422
1.1641933
1.1626849
1.1610902
1.1592849
1.1573855
1.157312
1.1562222
1.1599141
1.1598442
1.1661131
1.163026
1.1389952
1.1676772
1.1746823
1.177625
1.1768431
1.1773693
1.1770933