/*--------------------------------*- C++ -*----------------------------------*\
  =========                 |
  \\      /  F ield         | OpenFOAM: The Open Source CFD Toolbox
   \\    /   O peration     | Website:  https://openfoam.org
    \\  /    A nd           | Version:  12
     \\/     M anipulation  |
\*---------------------------------------------------------------------------*/
FoamFile
{
    format      ascii;
    class       volScalarField;
    location    "200";
    object      alphat;
}
// * * * * * * * * * * * * * * * * * * * * * * * * * * * * * * * * * * * * * //

dimensions      [1 -1 -1 0 0 0 0];

internalField   nonuniform List<scalar> 
16200
(
0.0005011485754
0.001688137383
0.00281566699
0.003711347875
0.004040373976
0.003613190104
0.002689978247
0.00151506875
0.0007508355925
0.0003160767198
9.622269481e-06
3.109945853e-06
2.757705849e-06
2.519528218e-06
1.977068849e-06
1.678305087e-06
1.44810766e-06
1.299246553e-06
1.216004343e-06
1.173063046e-06
1.158822211e-06
1.167769623e-06
1.195286483e-06
1.239351238e-06
1.30068365e-06
1.382461873e-06
1.490495362e-06
1.63423708e-06
1.828449588e-06
2.096501665e-06
2.476664207e-06
3.035062229e-06
3.892694151e-06
5.282131602e-06
7.673868605e-06
1.206035629e-05
2.061057783e-05
3.814280503e-05
7.55257794e-05
0.0001574860886
0.0003410168638
0.0007585004172
0.001167118396
0.001167212862
0.001166588615
0.001165351534
0.001164785871
0.001164622304
0.001164613304
0.001164655173
0.001164707967
0.001164758815
0.001164805794
0.001164852154
0.001164901854
0.001164963879
0.001165042169
0.001165163053
0.001165316933
0.001165601787
0.0004907621104
0.001643613938
0.002713621274
0.003514497738
0.003680081812
0.00313155895
0.002222918687
0.001112976748
0.0006088889806
7.363019882e-05
3.368112523e-06
2.595434112e-06
2.316329151e-06
2.244956369e-06
1.748091974e-06
1.480996323e-06
1.276418512e-06
1.145037589e-06
1.074666009e-06
1.040611633e-06
1.032054069e-06
1.043686849e-06
1.071562763e-06
1.114062005e-06
1.172170068e-06
1.249166573e-06
1.350778594e-06
1.486157875e-06
1.669434918e-06
1.922581746e-06
2.280920311e-06
2.804633095e-06
3.603214602e-06
4.887438265e-06
7.083415494e-06
1.109001581e-05
1.886799688e-05
3.47710287e-05
6.860477514e-05
0.0001426486592
0.0003081977991
0.0006842131058
0.001167005796
0.001167142138
0.001166607186
0.001165388737
0.001164807106
0.001164636793
0.00116462548
0.001164667072
0.001164720325
0.001164771717
0.001164819071
0.001164865424
0.001164915057
0.001164976399
0.001165053977
0.00116517346
0.001165326896
0.00116561506
0.0004818496017
0.001602233015
0.002615850317
0.003320653043
0.003324207866
0.002673784522
0.001790629698
0.0008271337506
0.0004423579109
1.884544941e-05
2.446574866e-06
2.167085645e-06
1.942651331e-06
1.878419981e-06
1.533879623e-06
1.297375214e-06
1.117848955e-06
1.003404902e-06
9.449502206e-07
9.187767872e-07
9.149298021e-07
9.283712379e-07
9.557780158e-07
9.959218371e-07
1.050024675e-06
1.121489289e-06
1.216077603e-06
1.342846247e-06
1.515538589e-06
1.755092625e-06
2.094495385e-06
2.589018663e-06
3.338409225e-06
4.53461917e-06
6.565898525e-06
1.025127398e-05
1.737257066e-05
3.188025943e-05
6.263876444e-05
0.0001297407773
0.0002792706039
0.0006178489086
0.001166940299
0.001167092391
0.001166610105
0.001165426248
0.001164831558
0.001164654607
0.001164640226
0.001164680637
0.001164733602
0.001164784972
0.001164832425
0.001164878668
0.001164928151
0.001164988801
0.001165065785
0.001165184073
0.001165337187
0.001165628621
0.0004751787994
0.001564235863
0.002519663665
0.003108461129
0.002963086963
0.002248966493
0.00129863585
0.0006091935368
0.000249598852
8.687670712e-06
2.017158991e-06
1.824406402e-06
1.643686007e-06
1.585393495e-06
1.347797547e-06
1.137775777e-06
9.801832755e-07
8.808761873e-07
8.328073482e-07
8.134567858e-07
8.135767877e-07
8.28408393e-07
8.551904507e-07
8.931352161e-07
9.437739732e-07
1.010738795e-06
1.099950961e-06
1.220493547e-06
1.38588778e-06
1.616379116e-06
1.94333609e-06
2.418526602e-06
3.13460409e-06
4.269814669e-06
6.18554516e-06
9.644840221e-06
1.630607359e-05
2.98421243e-05
5.847525327e-05
0.000120809098
0.0002593958404
0.0005725115607
0.001166929564
0.001167073791
0.001166607408
0.001165464132
0.001164860522
0.001164677189
0.001164658868
0.001164697022
0.001164748718
0.001164799362
0.001164846375
0.001164892202
0.001164941345
0.001165001313
0.00116507766
0.001165194909
0.001165347661
0.001165641991
0.0004693210305
0.001528957365
0.002424622332
0.002875789308
0.002599736618
0.001873918197
0.0009286039435
0.0004758193471
8.832414774e-05
2.718627606e-06
1.691922728e-06
1.539213125e-06
1.394421662e-06
1.342771342e-06
1.181071349e-06
9.956544099e-07
8.5840912e-07
7.732830695e-07
7.345235893e-07
7.210049724e-07
7.241893403e-07
7.397258321e-07
7.654781219e-07
8.012019937e-07
8.488127904e-07
9.122052268e-07
9.974533186e-07
1.113659375e-06
1.274173867e-06
1.498710389e-06
1.817397015e-06
2.279275009e-06
2.971341775e-06
4.060801408e-06
5.887668782e-06
9.170750969e-06
1.547138585e-05
2.824190533e-05
5.519346684e-05
0.0001137317782
0.0002435620944
0.0005361803752
0.00116696233
0.001167082271
0.00116661687
0.001165502429
0.001164892982
0.001164703436
0.001164680411
0.00116471541
0.001164765074
0.001164814431
0.001164860623
0.001164905825
0.001164954498
0.00116501381
0.00116508957
0.001165205936
0.001165358375
0.001165655423
0.0004636399069
0.001495188974
0.002329528537
0.002640139303
0.002242067251
0.001527165545
0.000691989929
0.0003508714877
2.282965709e-05
1.789464998e-06
1.430052947e-06
1.305181913e-06
1.189342503e-06
1.143836799e-06
1.034576065e-06
8.709473169e-07
7.516473446e-07
6.790489259e-07
6.480764562e-07
6.39107051e-07
6.444279357e-07
6.602590875e-07
6.85087356e-07
7.191632333e-07
7.647197032e-07
8.258785128e-07
9.088626455e-07
1.022817326e-06
1.181009189e-06
1.402835359e-06
1.717611126e-06
2.172471482e-06
2.850267144e-06
3.909984616e-06
5.676029473e-06
8.835522698e-06
1.488069668e-05
2.710569303e-05
5.285261883e-05
0.0001086536398
0.0002321241248
0.0005097427565
0.001142016128
0.001167114143
0.001166637005
0.001165539984
0.001164928096
0.001164732803
0.001164704542
0.001164735634
0.001164782597
0.001164830158
0.001164875172
0.001164919545
0.001164967636
0.001165026311
0.001165101526
0.001165217155
0.001165369324
0.001165668874
0.0004576647765
0.001461553102
0.00223174076
0.002393757963
0.00189657109
0.001134273726
0.0005175873243
0.0002237374901
9.946268336e-06
1.454668358e-06
1.212052708e-06
1.108017513e-06
1.01508828e-06
9.750164733e-07
9.015674681e-07
7.578997645e-07
6.55037715e-07
5.940925225e-07
5.701514999e-07
5.65250592e-07
5.725533712e-07
5.8890619e-07
6.133736024e-07
6.466184889e-07
6.911220382e-07
7.511895761e-07
8.333273194e-07
9.467343577e-07
1.104642899e-06
1.32625636e-06
1.640689702e-06
2.093359113e-06
2.76426121e-06
3.806262601e-06
5.532371072e-06
8.607191603e-06
1.447409444e-05
2.631397904e-05
5.120122166e-05
0.0001050246686
0.0002238437866
0.0004903579999
0.001095861915
0.001167164065
0.001166665111
0.001165576369
0.001164965054
0.001164764558
0.001164730703
0.001164757309
0.001164801034
0.001164846383
0.001164889932
0.001164933313
0.00116498074
0.001165038804
0.001165113537
0.001165228572
0.001165380527
0.00116568239
0.0004509012742
0.001426531451
0.002128174212
0.0021319998
0.001578198965
0.0008193350236
0.0003981397836
0.0001218338279
3.419566665e-06
1.214079719e-06
1.025606986e-06
9.379557128e-07
8.631874331e-07
8.283766528e-07
7.791085208e-07
6.546224622e-07
5.675795806e-07
5.180717517e-07
5.009974495e-07
5.001199646e-07
5.09443587e-07
5.264466656e-07
5.50810546e-07
5.836896857e-07
6.278182794e-07
6.878185105e-07
7.702936095e-07
8.846239657e-07
1.044067528e-06
1.267775633e-06
1.584303979e-06
2.039262738e-06
2.709708552e-06
3.744501243e-06
5.448935189e-06
8.473111996e-06
1.422919921e-05
2.582417508e-05
5.015292146e-05
0.0001026619106
0.0002183183629
0.0004771190787
0.001063671283
0.001167227185
0.001166698626
0.001165611012
0.001165003057
0.001164798019
0.001164758402
0.001164780108
0.001164820183
0.001164862993
0.001164904845
0.001164947104
0.00116499381
0.001165051294
0.001165125618
0.001165240195
0.001165391996
0.001165695982
0.0004433055672
0.001388291769
0.00200821008
0.001865499862
0.001286646285
0.0006086837414
0.0003111980985
4.532307961e-05
1.651627255e-06
1.021548358e-06
8.711565685e-07
7.969706268e-07
7.364521695e-07
7.065681579e-07
6.724796274e-07
5.651502977e-07
4.922443605e-07
4.530069869e-07
4.418770474e-07
4.443656475e-07
4.553223431e-07
4.727985919e-07
4.96998402e-07
5.297400344e-07
5.741194202e-07
6.348523436e-07
7.186930743e-07
8.351551292e-07
9.975908311e-07
1.225208417e-06
1.546585455e-06
2.006922012e-06
2.682181319e-06
3.718373937e-06
5.416119555e-06
8.417607109e-06
1.411830873e-05
2.558348293e-05
4.960051578e-05
0.0001013371064
0.0002150445984
0.0004688898281
0.001042833148
0.001167298916
0.001166734986
0.00116564361
0.001165041424
0.00116483255
0.001164787154
0.001164803701
0.001164839833
0.001164879861
0.001164919846
0.001164960889
0.00116500684
0.001165063782
0.001165137776
0.001165252032
0.001165403738
0.001165709665
0.0004347564197
0.001346397699
0.001854059769
0.001597686199
0.0009785006234
0.0004567468323
0.0002247854274
2.108124265e-05
1.204435827e-06
8.673612339e-07
7.467767113e-07
6.838809811e-07
6.346807496e-07
6.091695414e-07
5.836792633e-07
4.907645151e-07
4.296233737e-07
3.987402307e-07
3.919377014e-07
3.965947721e-07
4.085728549e-07
4.264352265e-07
4.508628483e-07
4.83877351e-07
5.290535517e-07
5.913256918e-07
6.774678617e-07
7.970740213e-07
9.636883814e-07
1.196718276e-06
1.524950786e-06
1.99356418e-06
2.678089625e-06
3.722984747e-06
5.426819586e-06
8.429554453e-06
1.412246001e-05
2.555675181e-05
4.947404551e-05
0.0001009033052
0.0002137012086
0.0004649484956
0.001031693675
0.001167375291
0.001166771865
0.001165673956
0.001165079582
0.001164867594
0.001164816529
0.001164827788
0.001164859795
0.001164896877
0.00116493488
0.001164974645
0.001165019829
0.001165076274
0.001165150017
0.001165264096
0.00116541576
0.00116572345
0.0004242314369
0.001299301178
0.001683663749
0.00133831924
0.000709423616
0.0003483459624
0.0001476335283
1.344154326e-05
9.758285433e-07
7.366150832e-07
6.406840276e-07
5.869897885e-07
5.471728691e-07
5.259176907e-07
5.057088643e-07
4.263787405e-07
3.760490985e-07
3.525754743e-07
3.492187485e-07
3.552649871e-07
3.6770409e-07
3.861208244e-07
4.112714332e-07
4.452597131e-07
4.918738715e-07
5.563492438e-07
6.455534537e-07
7.691244311e-07
9.408615119e-07
1.18052842e-06
1.517281586e-06
1.996590308e-06
2.694111942e-06
3.753864283e-06
5.474642847e-06
8.499103964e-06
1.422511486e-05
2.571369789e-05
4.971377321e-05
0.0001012357252
0.0002140165322
0.0004646863827
0.001028861105
0.001167452996
0.001166807228
0.001165701977
0.001165117076
0.001164902676
0.001164846149
0.001164852107
0.0011648799
0.001164913944
0.001164949895
0.001164988353
0.001165032778
0.001165088778
0.001165162356
0.001165276405
0.001165428066
0.001165737341
0.0004117303982
0.001245070368
0.001503750468
0.001095398829
0.0005250672703
0.0002709920945
7.603746861e-05
6.70494074e-06
7.930079367e-07
6.237685859e-07
5.468401928e-07
5.005282431e-07
4.680421362e-07
4.504482024e-07
4.332393364e-07
3.670677143e-07
3.274608762e-07
3.115315677e-07
3.119532919e-07
3.195824267e-07
3.326538824e-07
3.514799553e-07
3.776346879e-07
4.13255935e-07
4.619359773e-07
5.29095404e-07
6.218925176e-07
7.500794811e-07
9.277012944e-07
1.175003521e-06
1.521668291e-06
2.013705966e-06
2.727380119e-06
3.807244952e-06
5.554338009e-06
8.618380376e-06
1.441338258e-05
2.603120057e-05
5.027476562e-05
0.0001022414089
0.0002157893452
0.0004676538914
0.001033308675
0.001167529381
0.001166839373
0.001165727682
0.001165153561
0.001164937415
0.001164875702
0.001164876433
0.001164900004
0.001164930976
0.00116496485
0.001165001999
0.001165045689
0.001165101301
0.001165174813
0.001165288959
0.001165440654
0.001165751342
0.0003977022814
0.001182986339
0.001317409607
0.000832363366
0.0003975129576
0.0002068500862
3.330375806e-05
3.132450713e-06
6.470141702e-07
5.282491491e-07
4.657249673e-07
4.260741812e-07
3.993362325e-07
3.848102108e-07
3.687519745e-07
3.14415512e-07
2.844920088e-07
2.751815541e-07
2.789897254e-07
2.887067236e-07
3.030038572e-07
3.225226612e-07
3.497274223e-07
3.87254974e-07
4.384747354e-07
5.08708604e-07
6.054575471e-07
7.387672059e-07
9.229037045e-07
1.17865531e-06
1.536391399e-06
2.042871095e-06
2.775378056e-06
3.879872776e-06
5.66145031e-06
8.780836478e-06
1.467675888e-05
2.649073585e-05
5.11214666e-05
0.0001038473917
0.0002188624896
0.000473500772
0.0010442374
0.001167602417
0.001166866937
0.001165751147
0.001165188789
0.001164971512
0.001164904935
0.001164900585
0.001164919987
0.001164947905
0.001164979712
0.001165015573
0.001165058567
0.001165113854
0.001165187397
0.00116530172
0.001165453524
0.001165765459
0.0003822318201
0.00111138215
0.001126375404
0.0006184439306
0.0003124946957
0.0001543156351
1.914350539e-05
1.693523373e-06
5.334540437e-07
4.487935294e-07
3.983000571e-07
3.645310827e-07
3.425492986e-07
3.307539816e-07
3.149795866e-07
2.708721068e-07
2.489869671e-07
2.446121773e-07
2.505421526e-07
2.618994437e-07
2.776646436e-07
2.98637458e-07
3.272205533e-07
3.666442333e-07
4.2061396e-07
4.942973688e-07
5.953004769e-07
7.341114377e-07
9.252821084e-07
1.190149729e-06
1.559974035e-06
2.082297213e-06
2.835932738e-06
3.968986034e-06
5.792275467e-06
8.981153404e-06
1.500690996e-05
2.707790666e-05
5.222666142e-05
0.0001059983791
0.0002231175414
0.0004819637265
0.001061046933
0.001167670616
0.001166888872
0.001165772493
0.001165222599
0.001165004742
0.001164933651
0.001164924416
0.001164939755
0.001164964676
0.001164994457
0.001165029069
0.001165071418
0.001165126447
0.00116520011
0.001165314624
0.001165466673
0.001165779702
0.000366172596
0.00103249777
0.0009257007281
0.0004679370193
0.0002492592492
0.0001090673303
1.322871524e-05
9.86560945e-07
4.454088323e-07
3.825507999e-07
3.426562564e-07
3.13703898e-07
2.954133908e-07
2.858477063e-07
2.699176603e-07
2.348150093e-07
2.198001019e-07
2.194067394e-07
2.270046568e-07
2.392495692e-07
2.561587564e-07
2.788553452e-07
3.093210593e-07
3.507999643e-07
4.075911845e-07
4.850257202e-07
5.905738236e-07
7.351523544e-07
9.337689968e-07
1.208301245e-06
1.590957544e-06
2.130425559e-06
2.907175031e-06
4.072245851e-06
5.94373549e-06
9.215010479e-06
1.539722729e-05
2.778154306e-05
5.356958619e-05
0.0001086526463
0.0002284656881
0.0004928457545
0.001083288204
0.001167732946
0.001166904415
0.001165791864
0.001165254894
0.001165036949
0.001164961705
0.001164947817
0.001164959235
0.001164981248
0.001165009066
0.001165042486
0.00116508425
0.001165139092
0.001165212961
0.001165327656
0.001165480093
0.001165794071
0.0003504847442
0.00094582652
0.0007488907707
0.0003754772896
0.0002076324609
6.101299432e-05
7.227394109e-06
6.259924607e-07
3.729822785e-07
3.248707598e-07
2.929947654e-07
2.690846932e-07
2.541159911e-07
2.46817517e-07
2.31185773e-07
2.044752584e-07
1.954916088e-07
1.981628748e-07
2.072654858e-07
2.204951977e-07
2.384247865e-07
2.627114718e-07
2.951252336e-07
3.391134109e-07
3.988680393e-07
4.801741622e-07
5.905000291e-07
7.410328127e-07
9.474072235e-07
1.232060061e-06
1.628228675e-06
2.18590685e-06
2.987509512e-06
4.187688267e-06
6.113298266e-06
9.478941646e-06
1.584255589e-05
2.859316032e-05
5.513479907e-05
0.0001117796001
0.0002348423127
0.0005060038942
0.001110635326
0.001167788747
0.001166913044
0.001165809423
0.001165285636
0.00116506803
0.001164988993
0.001164970708
0.001164978373
0.001164997592
0.001165023528
0.001165055824
0.001165097072
0.001165151801
0.001165225964
0.001165340887
0.001165493779
0.001165808558
0.0003378381599
0.000849635192
0.0006061726829
0.0003180421988
0.0001744742292
3.222481821e-05
3.355874322e-06
4.452476662e-07
3.132198524e-07
2.751267596e-07
2.494804547e-07
2.301252543e-07
2.181021927e-07
2.128814049e-07
1.980075202e-07
1.790262854e-07
1.753209184e-07
1.805651011e-07
1.907251978e-07
2.049271644e-07
2.241058428e-07
2.498926933e-07
2.843167682e-07
3.310829227e-07
3.93978435e-07
4.791163691e-07
5.943506598e-07
7.50986464e-07
9.653514736e-07
1.260511403e-06
1.670767559e-06
2.247586968e-06
3.075589749e-06
4.313682736e-06
6.298906813e-06
9.770210179e-06
1.633896076e-05
2.950650009e-05
5.691123481e-05
0.0001153577538
0.0002422025231
0.0005213391109
0.001142861816
0.001167837655
0.001166914434
0.001165825336
0.001165314825
0.001165097927
0.001165015448
0.001164993032
0.001164997133
0.001165013689
0.001165037838
0.001165069089
0.001165109894
0.001165164586
0.001165239132
0.001165354409
0.001165507751
0.001165823155
0.000331652168
0.0007476599757
0.0005009744545
0.0002653276681
0.0001404871016
1.900943411e-05
1.612629916e-06
3.385280485e-07
2.649619351e-07
2.341463038e-07
2.132345689e-07
1.973834259e-07
1.878635985e-07
1.84226479e-07
1.703224187e-07
1.580039833e-07
1.584031233e-07
1.658345495e-07
1.770652866e-07
1.922589994e-07
2.127334843e-07
2.400991474e-07
2.768675056e-07
3.262241554e-07
3.923465063e-07
4.812664236e-07
6.014545741e-07
7.64326815e-07
9.868620748e-07
1.292848272e-06
1.717699008e-06
2.314487077e-06
3.170290256e-06
4.448890469e-06
6.498913548e-06
1.008669795e-05
1.688352709e-05
3.051714531e-05
5.889142146e-05
0.0001193730619
0.0002505174946
0.0005387880651
0.001168609734
0.001167879528
0.00116690841
0.001165839769
0.001165342496
0.001165126616
0.001165041033
0.001165014757
0.001165015493
0.001165029526
0.001165051994
0.001165082286
0.001165122726
0.001165177456
0.001165252467
0.001165368246
0.001165522019
0.001165837856
0.0003349124329
0.0006449130093
0.0004076491793
0.0002268957904
0.0001090847886
1.261378169e-05
7.902576703e-07
2.690259179e-07
2.247528566e-07
1.995896503e-07
1.824588636e-07
1.695709425e-07
1.622802409e-07
1.600848529e-07
1.477372844e-07
1.410876817e-07
1.446422795e-07
1.535297273e-07
1.65849247e-07
1.822178441e-07
2.040348688e-07
2.331280951e-07
2.72283047e-07
3.239873943e-07
3.933462566e-07
4.860883699e-07
6.11234055e-07
7.804542657e-07
1.01130291e-06
1.328392902e-06
1.768282859e-06
2.385788213e-06
3.27068249e-06
4.592228153e-06
6.712024453e-06
1.042681574e-05
1.747420657e-05
3.162223828e-05
6.107092831e-05
0.000123817781
0.0002597720099
0.0005583176192
0.001168691784
0.0011679144
0.001166894909
0.001165852884
0.001165368705
0.001165154103
0.001165065733
0.001165035867
0.00116503344
0.001165045101
0.001165066
0.001165095423
0.001165135578
0.001165190421
0.001165265969
0.001165382347
0.001165536582
0.00116585265
0.0003493468351
0.0005474708079
0.0003441132924
0.0002016893628
6.248843787e-05
7.131620584e-06
4.257701484e-07
2.200650398e-07
1.905175046e-07
1.699948377e-07
1.560662445e-07
1.458868048e-07
1.40573867e-07
1.39761228e-07
1.295959067e-07
1.276926166e-07
1.335599244e-07
1.434731647e-07
1.568306043e-07
1.744180251e-07
1.97651257e-07
2.285226807e-07
2.697603369e-07
3.239295283e-07
3.964582789e-07
4.931058249e-07
6.232003654e-07
7.988484324e-07
1.038130734e-06
1.366566628e-06
1.821900643e-06
2.460815501e-06
3.376014061e-06
4.742838323e-06
6.937253525e-06
1.078942764e-05
1.810968207e-05
3.282022012e-05
6.344783452e-05
0.0001286893331
0.0002699619625
0.0005799192498
0.001168763782
0.00116794243
0.001166873936
0.001165864833
0.001165393524
0.001165180412
0.001165089551
0.001165056357
0.001165050972
0.001165060415
0.00116507986
0.001165108508
0.001165148461
0.001165203491
0.001165279668
0.001165396677
0.001165551435
0.001165867528
0.0003736405776
0.0005080838418
0.00030617524
0.0001831283371
3.274158871e-05
2.89955716e-06
2.68168131e-07
1.835379045e-07
1.620109211e-07
1.452231513e-07
1.339598348e-07
1.261999821e-07
1.225253701e-07
1.229539234e-07
1.1538402e-07
1.171142174e-07
1.246548109e-07
1.354528879e-07
1.497777569e-07
1.685128439e-07
1.931877878e-07
2.257721308e-07
2.689348306e-07
3.257250843e-07
4.013284389e-07
5.019062897e-07
6.36937425e-07
8.190658885e-07
1.066888265e-06
1.406888809e-06
1.878045708e-06
2.539024285e-06
3.485689333e-06
4.900062242e-06
7.173883949e-06
1.117379197e-05
1.878927071e-05
3.411065819e-05
6.60223969e-05
0.0001339896275
0.0002810928936
0.0006036058309
0.001168826097
0.001167963875
0.00116684588
0.001165875764
0.001165417034
0.001165205582
0.001165112503
0.001165076234
0.001165068094
0.001165075473
0.001165093583
0.001165121551
0.001165161385
0.001165216673
0.00116529358
0.001165411232
0.001165566577
0.001165882479
0.0004036096108
0.0004553466536
0.0002758229997
0.0001626256924
1.768894789e-05
1.107469712e-06
1.942129446e-07
1.552016328e-07
1.386009178e-07
1.247911896e-07
1.158408682e-07
1.099250199e-07
1.077007186e-07
1.086701136e-07
1.044754061e-07
1.088921634e-07
1.175158436e-07
1.291306391e-07
1.443616822e-07
1.642350451e-07
1.903201099e-07
2.245738447e-07
2.696765483e-07
3.290372396e-07
4.076529306e-07
5.121272362e-07
6.520841098e-07
8.407301091e-07
1.09719132e-06
1.448959714e-06
1.936300993e-06
2.619971699e-06
3.599232684e-06
5.063391555e-06
7.421401987e-06
1.157946562e-05
1.95127747e-05
3.549399427e-05
6.879659214e-05
0.0001397241725
0.0002931781809
0.0006294077469
0.001168879162
0.001167979051
0.001166818619
0.001165885811
0.001165439321
0.001165229662
0.001165134615
0.001165095513
0.001165084815
0.001165090282
0.001165107176
0.001165134561
0.001165174357
0.001165229975
0.001165307701
0.001165426005
0.001165582004
0.001165897481
0.0004392287416
0.0004197751603
0.0002625056452
0.0001394476265
1.050822628e-05
4.079629432e-07
1.551429477e-07
1.324495627e-07
1.191875726e-07
1.080132425e-07
1.007754501e-07
9.64553975e-08
9.556374259e-08
9.635886613e-08
9.616551279e-08
1.023997669e-07
1.118294349e-07
1.24217436e-07
1.403387704e-07
1.613587381e-07
1.888046157e-07
2.246895745e-07
2.71732696e-07
3.335528966e-07
4.15131379e-07
5.23460451e-07
6.683347405e-07
8.635288878e-07
1.128725578e-06
1.492457094e-06
1.996335653e-06
2.703313039e-06
3.716284281e-06
5.232462418e-06
7.67948688e-06
1.20062852e-05
2.028044359e-05
3.697146391e-05
7.177393629e-05
0.0001459016566
0.000306238051
0.0006573705397
0.00116892345
0.001167988034
0.001166792281
0.001165895098
0.001165460474
0.001165252706
0.00116515592
0.001165114213
0.001165101148
0.001165104855
0.001165120649
0.001165147548
0.001165187387
0.001165243406
0.001165322032
0.00116544099
0.001165597712
0.001165912511
0.0004778760132
0.000407423603
0.000259472717
9.180703223e-05
4.235572409e-06
1.847144515e-07
1.305179513e-07
1.137032877e-07
1.031568834e-07
9.387867563e-08
8.812389449e-08
8.530980157e-08
8.567935514e-08
8.699332672e-08
8.981776995e-08
9.723359123e-08
1.0736154e-07
1.205038572e-07
1.375266564e-07
1.596736303e-07
1.884122169e-07
2.258761662e-07
2.748114877e-07
3.390102213e-07
4.235052476e-07
5.35651995e-07
6.854389518e-07
8.872104828e-07
1.161241813e-06
1.537131029e-06
2.057899288e-06
2.788794827e-06
3.836591418e-06
5.407043671e-06
7.947992502e-06
1.245433649e-05
2.109291903e-05
3.854498788e-05
7.495925551e-05
0.0001525334463
0.0003202984524
0.0006875523424
0.001168959456
0.001167990956
0.001166766967
0.00116590374
0.00116548058
0.001165274772
0.001165176453
0.001165132357
0.001165117109
0.001165119201
0.001165134012
0.001165160519
0.00116520048
0.001165256969
0.001165336572
0.001165456178
0.001165613698
0.001165927545
0.0005291354926
0.0004127398795
0.000262542884
4.317634366e-05
9.892229708e-07
1.282933508e-07
1.118915766e-07
9.838266367e-08
8.948683827e-08
8.189276484e-08
7.756797162e-08
7.619884711e-08
7.774689861e-08
8.002232139e-08
8.493546259e-08
9.316286188e-08
1.039329822e-07
1.178177155e-07
1.357371676e-07
1.589618595e-07
1.889203482e-07
2.279081354e-07
2.786887642e-07
3.451930367e-07
4.325619673e-07
5.484908922e-07
7.031893067e-07
9.115685682e-07
1.194535999e-06
1.582778749e-06
2.120790356e-06
2.876215979e-06
3.959960489e-06
5.586976768e-06
8.226870443e-06
1.292385028e-05
2.195108353e-05
4.021693547e-05
7.835829126e-05
0.0001596328853
0.0003353897491
0.0007200213432
0.001168987688
0.001167987979
0.001166742754
0.001165911842
0.001165499723
0.00116529592
0.001165196254
0.001165149969
0.001165132713
0.001165133334
0.001165147275
0.001165173483
0.001165213643
0.001165270667
0.001165351319
0.001165471556
0.001165629953
0.00116594256
0.0005889039182
0.0004167047183
0.0002613489926
2.035343992e-05
2.213309138e-07
1.084716411e-07
9.661866115e-08
8.547530312e-08
7.795507659e-08
7.186436579e-08
6.892961289e-08
6.891468377e-08
7.151159795e-08
7.490579872e-08
8.116095062e-08
9.000466994e-08
1.01382592e-07
1.159858747e-07
1.347704566e-07
1.589958216e-07
1.901378898e-07
2.305872173e-07
2.83171068e-07
3.519192256e-07
4.421285725e-07
5.618022651e-07
7.214156321e-07
9.364387321e-07
1.228446705e-06
1.62924223e-06
2.184853874e-06
2.965426207e-06
4.086255051e-06
5.772171882e-06
8.516162722e-06
1.341518667e-05
2.285602608e-05
4.199004813e-05
8.197752493e-05
0.0001672148874
0.00035154577
0.0007548535807
0.001169008646
0.001167979277
0.001166719699
0.001165919497
0.001165517985
0.001165316207
0.001165215361
0.001165167075
0.001165147979
0.001165147264
0.001165160445
0.001165186445
0.001165226877
0.001165284504
0.00116536627
0.001165487111
0.001165646471
0.00116595753
0.0006482417764
0.0004140415691
0.0002502815211
1.072476801e-05
1.421583301e-07
9.342405212e-08
8.398712317e-08
7.473942297e-08
6.837720391e-08
6.364119792e-08
6.203396328e-08
6.322584645e-08
6.670150206e-08
7.114552451e-08
7.824277797e-08
8.760631486e-08
9.956014716e-08
1.148481399e-07
1.344477835e-07
1.596023706e-07
1.919046093e-07
2.33756901e-07
2.881014203e-07
3.590374415e-07
4.520609841e-07
5.754502769e-07
7.399885151e-07
9.617024449e-07
1.262862671e-06
1.67641856e-06
2.249996284e-06
3.056345147e-06
4.215420406e-06
5.962638866e-06
8.816039062e-06
1.392888009e-05
2.380909575e-05
4.38674964e-05
8.582421607e-05
0.0001752958844
0.0003688034734
0.0007921318049
0.001169022825
0.001167965015
0.001166697848
0.00116592679
0.001165535441
0.00116533569
0.001165233812
0.001165183701
0.001165162922
0.001165161003
0.00116517353
0.001165199413
0.001165240187
0.001165298479
0.001165381419
0.001165502831
0.00116566324
0.00116597243
0.0006893221979
0.0004078687335
0.000225888972
6.782282925e-06
1.081432067e-07
8.137525953e-08
7.360061596e-08
6.583205718e-08
6.046777e-08
5.700171641e-08
5.664174291e-08
5.885423808e-08
6.303215197e-08
6.834262321e-08
7.600243232e-08
8.583436104e-08
9.833107416e-08
1.142644973e-07
1.346238876e-07
1.606562225e-07
1.940836062e-07
2.372936502e-07
2.933483443e-07
3.664235611e-07
4.622350463e-07
5.893254051e-07
7.588018553e-07
9.872607781e-07
1.297691023e-06
1.724220525e-06
2.316137834e-06
3.14890312e-06
4.347410986e-06
6.158397052e-06
9.12667999e-06
1.446547918e-05
2.481166565e-05
4.585250615e-05
8.990577143e-05
0.0001838927087
0.0003872008826
0.0008319415593
0.001169030709
0.001167945333
0.001166677229
0.001165933796
0.001165552161
0.001165354421
0.001165251644
0.00116519987
0.001165177559
0.001165174562
0.001165186539
0.001165212388
0.00116525357
0.001165312592
0.001165396755
0.001165518703
0.001165680249
0.001165987231
0.0006865262156
0.0004081498586
0.0001914514262
2.694167779e-06
8.888844414e-08
7.152466616e-08
6.499893517e-08
5.840386484e-08
5.394579126e-08
5.171085343e-08
5.24843455e-08
5.551796014e-08
6.024099668e-08
6.621759663e-08
7.430355886e-08
8.456918614e-08
9.757561963e-08
1.141146964e-07
1.35184483e-07
1.620629636e-07
1.965645538e-07
2.410985976e-07
2.98811241e-07
3.739880585e-07
4.725618373e-07
6.03351303e-07
7.777861314e-07
1.013048532e-06
1.33287469e-06
1.772598085e-06
2.383237764e-06
3.243072024e-06
4.482226577e-06
6.359516979e-06
9.448325411e-06
1.502560276e-05
2.586519526e-05
4.794841905e-05
9.4229772e-05
0.000193022488
0.0004067765882
0.0008743695907
0.001169032775
0.001167920326
0.001166657865
0.00116594058
0.001165568211
0.001165372452
0.001165268894
0.001165215608
0.001165191906
0.001165187951
0.001165199475
0.001165225375
0.001165267027
0.00116532684
0.001165412264
0.001165534716
0.001165697481
0.001166001886
0.0006787669769
0.0004119066828
0.0001058123411
9.228040667e-07
7.604952646e-08
6.34008467e-08
5.78625869e-08
5.223449271e-08
4.863310586e-08
4.757068487e-08
4.930989333e-08
5.297373437e-08
5.807901606e-08
6.459372521e-08
7.304049985e-08
8.371014938e-08
9.71938337e-08
1.143015409e-07
1.360441913e-07
1.637547545e-07
1.992604713e-07
2.450869713e-07
3.044098156e-07
3.816590386e-07
4.829750812e-07
6.174622683e-07
7.968833006e-07
1.039008913e-06
1.368361118e-06
1.821502265e-06
2.451251687e-06
3.338815633e-06
4.619853255e-06
6.566048174e-06
9.781181116e-06
1.560980887e-05
2.697103089e-05
5.015836215e-05
9.880339087e-05
0.0002027015673
0.0004275676656
0.0009194996677
0.0011690295
0.001167890025
0.001166639769
0.001165947203
0.001165583649
0.001165389828
0.001165285593
0.001165230936
0.001165205976
0.001165201178
0.001165212345
0.001165238373
0.001165280553
0.001165341218
0.00116542793
0.001165550851
0.001165714914
0.001166016346
0.0006649401695
0.0004125018608
5.819783808e-05
3.488076639e-07
6.671556072e-08
5.663745027e-08
5.185859898e-08
4.709342323e-08
4.436678829e-08
4.438383933e-08
4.688886499e-08
5.102054376e-08
5.644247494e-08
6.335379345e-08
7.212437827e-08
8.317034065e-08
9.710064236e-08
1.147441635e-07
1.371314791e-07
1.656492551e-07
2.021018157e-07
2.49188313e-07
3.100862103e-07
3.893819346e-07
4.934317975e-07
6.316152505e-07
8.160562707e-07
1.065110028e-06
1.404123063e-06
1.870911511e-06
2.520164886e-06
3.436129883e-06
4.760312315e-06
6.778077611e-06
1.012548799e-05
1.621867654e-05
2.813049908e-05
5.248534103e-05
0.0001036334338
0.0002129453393
0.000449608857
0.0009674100991
0.001169021372
0.001167854375
0.001166622944
0.001165953714
0.001165598529
0.001165406594
0.001165301773
0.001165245874
0.001165219783
0.001165214251
0.001165225149
0.001165251381
0.001165294144
0.001165355718
0.001165443734
0.001165567082
0.001165732509
0.001166030601
0.0006451666217
0.0004024898062
3.11843073e-05
1.496545436e-07
5.961033081e-08
5.115904579e-08
4.683431258e-08
4.281903557e-08
4.099273002e-08
4.19574447e-08
4.503436977e-08
4.950670401e-08
5.520762125e-08
6.24146631e-08
7.148187771e-08
8.287820047e-08
9.722709302e-08
1.153773313e-07
1.383814845e-07
1.676536632e-07
2.05035242e-07
2.533518495e-07
3.158027817e-07
3.971200528e-07