/*--------------------------------*- C++ -*----------------------------------*\
  =========                 |
  \\      /  F ield         | OpenFOAM: The Open Source CFD Toolbox
   \\    /   O peration     | Website:  https://openfoam.org
    \\  /    A nd           | Version:  12
     \\/     M anipulation  |
\*---------------------------------------------------------------------------*/
FoamFile
{
    format      ascii;
    class       volScalarField;
    location    "200";
    object      Ma;
}
// * * * * * * * * * * * * * * * * * * * * * * * * * * * * * * * * * * * * * //

dimensions      [];

internalField   nonuniform List<scalar> 
16200
(
0.5128471916
0.6110083064
0.6662048001
0.7097119894
0.7502510124
0.7930225004
0.8403081874
0.8851954561
0.9034941914
0.9045986462
0.903643642
0.9028132457
0.9017365945
0.9005036829
0.8989963581
0.8972530642
0.895206316
0.8928244746
0.8900427674
0.8867991069
0.8830165859
0.8786150064
0.8735124865
0.8676228522
0.8608666468
0.8531857196
0.8445555371
0.835006152
0.8246431186
0.8136629367
0.8023527949
0.7910654103
0.7801726751
0.7700107548
0.7608362048
0.7528053861
0.7459739298
0.7403159209
0.7357423115
0.7321285844
0.7293297843
0.7272019108
0.7256086786
0.7244320942
0.7235723404
0.7229498293
0.7225019452
0.722181491
0.7219529338
0.7217904348
0.7216750052
0.7215929141
0.7215343611
0.7214919513
0.7214610612
0.7214364904
0.7214183593
0.7213998681
0.7213890011
0.7213640457
0.5223363248
0.6230387033
0.6796791839
0.7244619051
0.7666449358
0.8117666138
0.8608599498
0.9006580774
0.9121125225
0.9121995551
0.911163935
0.9102503766
0.909083908
0.907745114
0.9061067188
0.9042032706
0.9019649304
0.8993535767
0.8962996952
0.8927341968
0.8885739847
0.8837314538
0.8781200729
0.8716513952
0.8642476195
0.855859779
0.8464830008
0.8361800473
0.8251029772
0.8135036399
0.8017213781
0.7901424106
0.7791416988
0.7690268009
0.7600049565
0.7521759045
0.7455490778
0.7400656866
0.7356240926
0.7320974777
0.729349386
0.7272447727
0.7256578374
0.7244777014
0.7236101744
0.7229787583
0.7225227109
0.7221954637
0.7219616927
0.7217953661
0.7216772722
0.7215934711
0.7215338828
0.7214910074
0.7214598427
0.7214355022
0.7214172007
0.7213991923
0.721388319
0.7213623845
0.5317346301
0.6350435421
0.6931883063
0.7393569423
0.7833690806
0.8309297367
0.8813305244
0.9131834956
0.9191774178
0.9186107677
0.9174957691
0.9164866443
0.9152052425
0.913731044
0.9119310164
0.9098336968
0.9073670851
0.9044858436
0.9011154951
0.8971795217
0.8925885815
0.8872480713
0.8810674505
0.8739576078
0.8658451005
0.8566949663
0.8465298096
0.8354565203
0.8236865172
0.8115366118
0.7994000302
0.7876883862
0.7767644058
0.7668901599
0.7582087758
0.7507552219
0.7444871165
0.7393125444
0.7351159467
0.7317701572
0.7291477282
0.7271253471
0.7255895784
0.7244394958
0.7235888035
0.7229662847
0.7225147231
0.722189594
0.7219568525
0.7217910564
0.7216733231
0.7215898862
0.7215306722
0.7214882816
0.7214575151
0.721433781
0.7214157234
0.7213982693
0.7213879228
0.7213622171
0.5405967565
0.646317495
0.7059388251
0.7536815991
0.7998403303
0.8496383728
0.899462237
0.9220388033
0.9244944014
0.9236862856
0.9224895932
0.9213714032
0.9199652986
0.9183421617
0.9163648042
0.9140537116
0.9113348668
0.9081549928
0.904434536
0.9000897314
0.8950254989
0.8891408959
0.8823422898
0.8745421491
0.8656760117
0.8557311377
0.8447697999
0.8329573216
0.8205760963
0.8080110213
0.7957002082
0.7840613563
0.7734219322
0.7639796499
0.7558028472
0.748859621
0.7430581554
0.7382785245
0.7343951511
0.7312843874
0.7288298652
0.7269223093
0.7254621416
0.7243601404
0.7235392332
0.7229347223
0.7224939542
0.7221752669
0.7219464514
0.7217831271
0.7216670574
0.7215848298
0.7215265503
0.7214849736
0.7214548454
0.7214318219
0.7214141331
0.7213972011
0.7213873242
0.7213615349
0.5489515869
0.6570244045
0.7181025816
0.767613981
0.8163417092
0.8684213762
0.91350095
0.9279357744
0.9284106223
0.9274810315
0.9261841989
0.9249398455
0.9233903173
0.9215955468
0.9194163218
0.9168635188
0.9138612911
0.9103479231
0.9062383276
0.9014408629
0.895854041
0.8893703736
0.8818942345
0.8733438176
0.8636720657
0.8529015035
0.8411501904
0.8286568441
0.815782866
0.8029768914
0.7907040414
0.7793623078
0.7692192567
0.7603919016
0.7528680248
0.7465510583
0.7413060781
0.7369917714
0.733477769
0.7306474072
0.7283974131
0.7266339427
0.7252722544
0.7242358671
0.7234578405
0.722880947
0.7224578646
0.7221505049
0.72192902
0.7217705172
0.7216577142
0.7215777738
0.721521156
0.7214808602
0.7214516909
0.7214295404
0.7214123918
0.7213960002
0.7213866985
0.7213609441
0.5567239883
0.6672127441
0.7297877805
0.781171549
0.8326290151
0.8867795267
0.9237128749
0.9316908038
0.9310449897
0.9300294088
0.9286184654
0.9272331156
0.9255249158
0.9235394639
0.9211370198
0.9183169729
0.9150006793
0.9111164625
0.9065719798
0.9012664838
0.8950919389
0.88793686
0.8797092867
0.870342528
0.8598198297
0.8482148391
0.8357178576
0.8226524916
0.809458908
0.7966341908
0.7846430879
0.7738334777
0.7643898922
0.7563377703
0.7495851286
0.7439783346
0.739349209
0.7355435716
0.7324323357
0.7299093653
0.7278862455
0.7262853807
0.7250372463
0.7240784629
0.7233525764
0.722810283
0.7224100168
0.7221176819
0.7219061415
0.7217542826
0.7216459953
0.721569186
0.7215147927
0.7214761374
0.72144817
0.7214270188
0.721410528
0.7213946875
0.7213859879
0.7213602275
0.5639601943
0.677039228
0.7412209927
0.794702667
0.8488686505
0.9034000817
0.9304417952
0.9340744359
0.9325767912
0.9314671154
0.9299262728
0.9283787502
0.9264874809
0.9242805614
0.9216183185
0.9184868102
0.9148035029
0.9104860996
0.9054347416
0.8995411062
0.8926937635
0.8847829679
0.8757290664
0.8654921888
0.8540999163
0.841692248
0.8285455375
0.8150739401
0.8017861311
0.7892014379
0.7777503922
0.7677008003
0.7591368572
0.7519893842
0.7460939011
0.741251325
0.7372718039
0.7339971248
0.7313052564
0.7291035714
0.7273197445
0.725892659
0.7247678849
0.723895008
0.723228018
0.7227256414
0.72235224
0.7220779362
0.7218785176
0.7217348515
0.7216321595
0.7215592206
0.7215075513
0.7214708608
0.7214443113
0.7214242748
0.721408546
0.7213932716
0.7213852129
0.7213594595
0.5706200511
0.6864727228
0.7524561726
0.808445192
0.8654863547
0.9163913822
0.9343004484
0.9344890844
0.9330205284
0.9317903689
0.9300953849
0.9283528962
0.9262402774
0.9237654312
0.9207894827
0.9172847586
0.9131653673
0.9083402137
0.9027043851
0.8961458213
0.8885537967
0.8798247606
0.8698980449
0.8587722241
0.8465357748
0.8334116455
0.8197722349
0.8061192549
0.7930081929
0.7809447448
0.7702890845
0.7612042357
0.753665637
0.7475148453
0.7425276694
0.7384736961
0.7351533439
0.732412644
0.7301415408
0.7282631566
0.7267218767
0.7254727995
0.7244760467
0.7236936483
0.7230896722
0.7226306951
0.7222869584
0.7220328505
0.7218471745
0.721712883
0.7216166263
0.7215481422
0.7214995945
0.7214651301
0.7214401719
0.7214213447
0.7214064584
0.7213917596
0.7213843817
0.7213586159
0.5763147593
0.6950774199
0.7632112896
0.8220529189
0.8817362642
0.925130065
0.9342279587
0.933864542
0.9321333893
0.930752086
0.9288825371
0.9269185255
0.9245549024
0.9217778264
0.9184497306
0.9145288435
0.909925647
0.9045413839
0.8982675417
0.8909913244
0.882607526
0.8730252774
0.8622108804
0.8502144065
0.8372055252
0.8235090126
0.8095959624
0.7960384187
0.7834048
0.7721457834
0.7625183214
0.7545655083
0.7481558959
0.7430545447
0.7389939054
0.7357269992
0.7330555301
0.7308367144
0.7289761735
0.7274141392
0.7261117259
0.7250395698
0.7241714902
0.723481178
0.7229421919
0.7225285808
0.7222162571
0.7219837929
0.7218129987
0.7216889441
0.7215997532
0.7215361724
0.7214910566
0.7214590255
0.7214357965
0.721418255
0.721404277
0.7213901658
0.7213834965
0.721357707
0.5806870862
0.7025934903
0.7734080569
0.8353386084
0.8960574805
0.9299046056
0.9327410961
0.9314526545
0.9297470534
0.9281956881
0.9261399857
0.9239405686
0.9213124872
0.9182194136
0.9145244603
0.9101706078
0.9050619544
0.899089921
0.8921398751
0.884099062
0.8748760767
0.8644092931
0.8527114538
0.8399006719
0.8262435765
0.8121801147
0.7982712182
0.7851245658
0.7732777392
0.7630864925
0.7546807102
0.7479803222
0.7427585101
0.7387217906
0.7355769243
0.7330741769
0.7310257582
0.7293053071
0.7278365132
0.7265772317
0.7255048015
0.7246044084
0.7238625058
0.7232634982
0.7227897042
0.7224221365
0.7221420578
0.7219320457
0.7217768333
0.7216635805
0.7215818879
0.7215235288
0.7214820706
0.7214526261
0.7214312297
0.7214150324
0.7214020125
0.7213884972
0.7213825567
0.7213567324
0.583964149
0.7095808538
0.7835619476
0.8488278546
0.906953769
0.9290832412
0.929233934
0.9279784363
0.9261168696
0.9243671784
0.9220984199
0.9196311949
0.9167013435
0.9132503002
0.9091432046
0.9043109546
0.8986504461
0.8920420157
0.8843654655
0.8755085558
0.865398911
0.8540218957
0.8414682809
0.8279508656
0.8138375393
0.7996767696
0.7860970338
0.7736944483
0.7629282751
0.7540282139
0.7469863645
0.7416080477
0.737589883
0.7346001994
0.732336963
0.7305593793
0.7290971398
0.7278437582
0.7267421577
0.7257675989
0.724912735
0.724176105
0.7235556155
0.7230453539
0.7226355952
0.7223137333
0.7220659917
0.721878712
0.7217394118
0.7216372716
0.721563338
0.7215104042
0.7214727544
0.7214460023
0.7214265109
0.7214117001
0.7213996717
0.7213867446
0.7213815681
0.7213556968
0.5865629802
0.7165555521
0.7939945562
0.8625360713
0.9141176231
0.9265544999
0.9249784749
0.9235743166
0.921558151
0.919575806
0.9170530151
0.9142654588
0.9109685296
0.9070811616
0.90247054
0.8970572199
0.890736601
0.8833894654
0.8749071071
0.8651874319
0.8541797964
0.8419164425
0.8285859539
0.8145339028
0.800231889
0.7863014757
0.7734011398
0.7620669362
0.7526368414
0.7451967022
0.7396044224
0.7355687531
0.7327325677
0.7307461122
0.7293131399
0.7282107704
0.7272908454
0.726468573
0.7257062461
0.7249957484
0.7243438572
0.7237611558
0.7232557796
0.7228304495
0.7224825704
0.7222053056
0.7219894144
0.7218247236
0.7217013628
0.7216104332
0.7215443729
0.7214969695
0.7214632131
0.7214392169
0.7214216758
0.7214082789
0.7213972601
0.7213848991
0.7213805359
0.7213546023
0.5886264602
0.723676935
0.8046218985
0.8751082026
0.9175023211
0.9218939673
0.9197471459
0.9182224869
0.9160058505
0.913751806
0.9109315997
0.9077728387
0.9040497046
0.8996588393
0.8944666145
0.8883816146
0.8813019418
0.8731185885
0.8637415663
0.8531083195
0.8412242106
0.8281754585
0.8142326239
0.7998871139
0.7857253368
0.7723908458
0.7605175366
0.7505404707
0.7426456921
0.7367720388
0.7326593799
0.7299438632
0.7282381117
0.7271920984
0.726526772
0.7260433041
0.7256182607
0.7251890125
0.7247365746
0.7242682792
0.7238036772
0.7233640531
0.7229665622
0.7226215345
0.7223326951
0.7220983661
0.7219134085
0.7217708383
0.7216632057
0.7215834136
0.7215252211
0.7214833707
0.7214535377
0.7214323246
0.7214167557
0.7214047868
0.721394785
0.7213830257
0.7213794609
0.7213534485
0.5899249769
0.7307898185
0.8154954258
0.8846767969
0.9134024458
0.9157577551
0.9132722241
0.9115756484
0.9091277367
0.9065698493
0.9034195697
0.8998558842
0.8956709367
0.8907410031
0.8849310641
0.8781411495
0.8702706793
0.8612195489
0.8509156149
0.8393541011
0.826624616
0.8129374286
0.7986413133
0.7843142588
0.7706547816
0.7582897605
0.7477620576
0.7393742461
0.7331477272
0.7288848917
0.7262325442
0.7247802823
0.7241319516
0.7239515504
0.7239852298
0.7240617593
0.7240832822
0.724008779
0.7238368
0.7235887185
0.7232954471
0.7229876553
0.7226903647
0.7224205472
0.7221874787
0.7219940541
0.7218388099
0.721717654
0.7216253579
0.7215564975
0.7215060719
0.7214697304
0.7214438053
0.7214253724
0.7214117779
0.72140124
0.721392257
0.7213811591
0.7213783453
0.7213522309
0.5903926897
0.7377332265
0.8259794935
0.8905358687
0.908585537
0.9080702928
0.9054291875
0.9035353197
0.9008367951
0.8979528928
0.8944465521
0.8904496389
0.8857697631
0.880265487
0.8738013894
0.8662736588
0.8575862786
0.8476568477
0.8364539912
0.8240340895
0.8105714456
0.7964237748
0.7820901796
0.7681552698
0.75537103
0.7443263816
0.7354118616
0.7287757631
0.7242820526
0.7216181946
0.7203670063
0.7200963428
0.720418991
0.7210233347
0.7216855759
0.7222634871
0.722684346
0.7229274911
0.7230074956
0.7229582638
0.7228206725
0.7226335287
0.7224286497
0.7222287564
0.722047963
0.7218931884
0.7217662392
0.7216656267
0.721588145
0.7215299111
0.7214870788
0.7214561498
0.7214340806
0.7214184001
0.7214067658
0.7213976519
0.7213896835
0.7213793194
0.7213771921
0.7213509487
0.5906769044
0.7450525079
0.8351726541
0.8924141887
0.9005382579
0.8993222065
0.896534475
0.8943778039
0.8913817846
0.8881167395
0.8841900955
0.8796901662
0.8744389363
0.8682832683
0.8610937881
0.8527722179
0.8432352637
0.8324297908
0.8203798121
0.8072257916
0.7932564427
0.7789274243
0.7648884607
0.751754781
0.7402164884
0.7307936883
0.7236914347
0.7188953111
0.7161355363
0.715012792
0.7150746353
0.7158884203
0.7170891065
0.7183960692
0.7196177701
0.7206407701
0.7214161516
0.7219419359
0.7222470543
0.722376427
0.7223795638
0.7223022588
0.7221821502
0.7220468993
0.7219148106
0.7217963228
0.7216961358
0.7216150907
0.7215518128
0.7215038297
0.7214683628
0.7214427103
0.7214244166
0.7214114411
0.7214017394
0.7213940344
0.7213870706
0.7213774447
0.7213760146
0.7213496212
0.5916375129
0.7526945105
0.8419161124
0.8860630582
0.8914078894
0.889540693
0.8865668146
0.8840845693
0.8807390169
0.877033663
0.8726206318
0.8675473812
0.861649807
0.8547688103
0.8467859422
0.8376191638
0.8272176439
0.8155783489
0.8027875988
0.7890805129
0.7748834619
0.7607560564
0.7473759293
0.7354539056
0.7255063171
0.71793488
0.7127649227
0.7098266419
0.708748774
0.7090752886
0.7103436594
0.7121372555
0.7141220179
0.7160517215
0.717767279
0.719182709
0.7202710295
0.7210470648
0.7215524128
0.7218415575
0.721971411
0.7219937132
0.7219510511
0.7218753039
0.7217883855
0.7217037985
0.7216287909
0.7215662795
0.7215165399
0.7214783848
0.7214500177
0.7214294763
0.7214148564
0.721404523
0.7213967157
0.7213903978
0.7213844246
0.7213754781
0.7213747878
0.7213482387
0.5938591765
0.7597524593
0.8454467272
0.8798745146
0.8805621601
0.8784175969
0.8752459369
0.8724051154
0.8686831516
0.864508305
0.8595754134
0.8538944825
0.8473143409
0.8396745218
0.8308691145
0.8208405869
0.809589999
0.7971918321
0.7838337369
0.7698421041
0.7557552542
0.7422322145
0.729930203
0.7195844025
0.7115062339
0.7059316184
0.7027353075
0.7016127987
0.7021247188
0.7037866045
0.7061458563
0.70881346
0.7114912951
0.7139684581
0.7161170959
0.7178766659
0.7192399854
0.7202367564
0.7209196126
0.7213512542
0.7215948824
0.7217072559
0.7217351398
0.7217139931
0.7216688238
0.7216157907
0.7215643775
0.7215193446
0.7214824495
0.7214536712
0.7214321136
0.7214164978
0.7214054343
0.7213976686
0.7213917092
0.7213867517
0.7213817516
0.7213734481
0.7213735009
0.7213468108
0.5980421665
0.7653091174
0.8455409251
0.8700791695
0.8683335877
0.8659968729
0.8625754031
0.859336138
0.8551977487
0.8505096394
0.8450090234
0.838674576
0.8313704377
0.8229446885
0.8133150796
0.8024638842
0.7904518886
0.7774410933
0.7637430481
0.7498096943
0.7362374387
0.7237304178
0.712932547
0.7044368539
0.6984133559
0.6948999966
0.6936503106
0.694255345
0.6962382097
0.6991100804
0.702442749
0.7058819645
0.7091674513
0.7121227793
0.7146492266
0.7167093181
0.7183134638
0.7195043804
0.7203442199
0.7209026788
0.7212482572
0.7214419177
0.7215339284
0.7215627708
0.721556093
0.7215323484
0.7215029775
0.721474373
0.7214496205
0.7214297544
0.7214147014
0.7214038128
0.7213961775
0.7213908966
0.7213867326
0.7213831052
0.7213790517
0.7213714134
0.7213721667
0.7213453392
0.6045904828
0.7689046628
0.8415089433
0.857769035
0.8548329099
0.8522694336
0.8485390766
0.8448432948
0.8402313036
0.8349722231
0.8288469836
0.8218117461
0.8137508036
0.8045334827
0.7941152195
0.7825346105
0.769927509
0.7565516424
0.7428250873
0.7293366182
0.7167082524
0.7056265019
0.6966791457
0.6902289829
0.6863544417
0.6848961369
0.6855123611
0.6877247713
0.6910449802
0.6949983984
0.6991905234
0.7033053649
0.707120181
0.7104910218
0.71334572
0.7156673858
0.7174818789
0.7188431942
0.7198216271
0.7204927856
0.7209295994
0.7211965258
0.7213467497
0.7214212908
0.7214500404
0.7214534283
0.7214446035
0.721431402
0.7214180967
0.7214066759
0.7213978165
0.7213914492
0.7213871073
0.7213842222
0.7213817965
0.7213794659
0.7213763212
0.7213693613
0.7213707743
0.7213438281
0.6127223878
0.7701967342
0.8305848999
0.8437866686
0.8398440346
0.8370061571
0.8329230966
0.8287304587
0.8236088891
0.8177482097
0.8109737073
0.803229337
0.7944248496
0.7844631868
0.7733498869
0.7611943541
0.7482235004
0.734800292
0.7214438266
0.7088061133
0.6975347543
0.6882345088
0.6813749991
0.6771060098
0.675395336
0.6759263955
0.6782895256
0.681970348
0.6864893151
0.6913990127
0.6963436537
0.7010462697
0.7053198701
0.7090503471
0.7121893365
0.7147381057
0.7167359635
0.7182466097
0.7193472603
0.7201184835
0.7206368838
0.7209698006
0.7211728299
0.7212891101
0.7213504314
0.7213789215
0.7213892182
0.7213904317
0.7213878954
0.7213844588
0.7213814818
0.7213794272
0.7213782398
0.7213776579
0.7213769102
0.7213758404
0.7213735618
0.7213672957
0.7213693223
0.7213422843
0.6198679596
0.7691900235
0.8198198543
0.8277516158
0.8232139606
0.8200746164
0.8156194731
0.8109137456
0.805269836
0.7988042223
0.7913854858
0.7829571557
0.773461523
0.7628485545
0.7511880898
0.7386742021
0.7256324964
0.7125293613
0.6999668497
0.6885901575
0.6790439973
0.6718047687
0.6671829402
0.6651490965
0.6655495975
0.667958737
0.6719261731
0.676928726
0.6825101692
0.6882581925
0.6938574485
0.6990688692
0.703738566
0.7077793574
0.7111639597
0.7139095225
0.716066989
0.7177083655
0.7189167175
0.7197767481
0.7203680857
0.720760426
0.7210113417
0.7211657294
0.7212569796
0.7213086748
0.7213367484
0.7213514348
0.721359014
0.7213631121
0.7213657108
0.7213677607
0.7213695877
0.7213712139
0.7213720823
0.7213722343
0.7213707798
0.7213652285
0.7213678069
0.7213407182
0.6256859963
0.7653058207
0.8057220874
0.8099691851
0.8050655312
0.8015583456
0.7967120085
0.7914771468
0.7852981952
0.7782298244
0.7701821686
0.7611125365
0.7510057819
0.7398734003
0.7278631608
0.7152627403
0.7024956637
0.6901131029
0.6787534458
0.669025726
0.6615089856
0.6565227309
0.6542067554
0.6543804448
0.6567881028
0.6609342191
0.6663523763
0.6725307371
0.6790456199
0.6855237554
0.6916896553
0.697339858
0.7023505107
0.7066584173
0.7102548057
0.7131706396
0.7154668833
0.7172226259
0.7185258533
0.7194646933
0.720121241
0.7205670987
0.7208614446
0.7210506236
0.7211693692
0.7212425074
0.7212870976
0.7213143652
0.7213314354
0.7213426343
0.7213505095
0.7213564586
0.7213611604
0.7213648988
0.7213673204
0.7213686533
0.7213679806
0.7213631643
0.7213662254
0.7213391351
0.6294827305
0.7585923246
0.7887582771
0.7906897242
0.7855057618
0.7815612474
0.776299677
0.770516557
0.7637872765
0.7561220482
0.7474736097
0.7378286876
0.7272272827
0.7157560684
0.7036498618
0.6912896795
0.6791818677
0.6679278865
0.6581552604
0.6504043926
0.6451358928
0.6425025907
0.6424812775
0.6447748748
0.6490508779
0.6547773778
0.661491451
0.6687063314
0.6760358412
0.6831467431
0.6898013524
0.69582889
0.7011323693
0.7056697731
0.7094484952
0.7125114726
0.7149282796
0.7167840273
0.7181708236
0.7191796137
0.719894484
0.7203885609
0.7207223112
0.7209432635
0.7210872722
0.7211802233
0.7212401544
0.7212791644
0.7213051326
0.7213230166
0.7213358786
0.7213455265
0.721352965
0.7213587199
0.7213626316
0.7213651029
0.721365169
0.7213611093
0.7213645741
0.7213375452
0.6306226454
0.7462814256
0.7701482552
0.7699580841
0.7645477265
0.7600926716
0.7543885537
0.7480461298
0.7407638265
0.7325298826
0.7233439921
0.7132371024
0.7023155082
0.6907494865
0.6788613406
0.6671132834
0.6560668065
0.6463318844
0.638481898
0.6329547443
0.6300566997
0.6297911295
0.6319894614
0.6362729068
0.6422587054
0.6494048053
0.6572656434
0.6653880091
0.6734250024
0.6810823859
0.6881573907
0.6945087524
0.7000632823
0.7047975589
0.7087330485
0.7119230497
0.714444524
0.716387694
0.7178481067
0.7189190075
0.7196860706
0.7202236214
0.7205931462
0.7208431306
0.7210103597
0.721121621
0.7211958001
0.7212457662
0.7212800719
0.7213042446
0.721321815
0.721334967
0.721345007
0.7213526835
0.7213580227
0.7213615879
0.7213623507
0.7213590698
0.7213628499
0.7213359574
0.6288689609
0.7304219446
0.7493790036
0.7476545193
0.7420454307
0.7370433056
0.7308893921
0.7240120932
0.7162194763
0.7074979619
0.6978994376
0.6875109134
0.6765119439
0.6651575411
0.6538484148
0.6431054496
0.6335097381
0.6256378694
0.6199731687
0.6168242344
0.6163317641
0.6183783978
0.6226751355
0.628793197
0.6363228605
0.6447315032
0.6535999819
0.6625129398
0.6711622829
0.6792905029
0.6867264846
0.693355325
0.6991247831
0.7040277155
0.7080978227
0.7113973687
0.7140096526
0.7160292294
0.7175545046
0.7186805845
0.7194943891
0.7200711678
0.7204731972
0.7207497277
0.7209383113
0.7210664994
0.7211539131
0.7212141005
0.7212562157
0.7212863009
0.721308313
0.721324781
0.7213372906
0.7213467952
0.7213535003
0.721358113
0.7213595315
0.7213570515
0.7213610504
0.7213343801
0.6240126299
0.7127216949
0.7265801539
0.7236408695
0.7178518365
0.712337996
0.7057711293
0.698432026
0.6902272151
0.6811582651
0.6713334336
0.6609040369
0.6501252207
0.6393304359
0.6289808475
0.6196258446
0.6118281296
0.6060942385
0.6027906014
0.6020811466
0.6039611447
0.6082119463
0.6144564896
0.6222422855
0.6311518591
0.640675016
0.6504245023
0.6600239625
0.6692021741
0.6777354619
0.6854810363
0.6923473772
0.6983006151
0.7033478436
0.7075334026
0.7109273229
0.7136183429
0.7157046884
0.7172871295
0.718462262
0.7193179621
0.7199301705
0.720361761
0.7206625844
0.7208708193
0.7210146627
0.7211143726
0.7211840958
0.7212335245
0.7212691657
0.7212953648
0.7213149679
0.7213298191
0.7213410603
0.7213490708
0.7213546828
0.7213567186
0.7213550587
0.7213591736
0.7213328208
0.6159182526
0.6937283433
0.701886681
0.6980040598
0.6920387082
0.6860775679
0.6791638847
0.6714658605
0.6629823718
0.6537466946
0.6439258387
0.6337378675
0.6235089832
0.6136368891
0.6046177202
0.5969951745
0.5912782073
0.5878752635
0.5870199542
0.588733612
0.5928989914
0.5992108016
0.6072371243
0.6165226184
0.626656366
0.6371583078
0.6476756089
0.6578700561
0.6675045041
0.6763860107
0.6843969127
0.6914663528
0.6975765515
0.7027470644
0.7070314995
0.7105066292
0.7132658676
0.7154105484
0.717043388
0.7182621572
0.7191554443
0.7197996852
0.7202581866
0.7205812607
0.7208075928
0.7209659233
0.7210770611
0.7211556815
0.7212119579
0.7212528181
0.7212829619
0.7213055265
0.7213225951
0.7213354835
0.7213447405
0.7213513019
0.7213539202
0.7213530933
0.7213572175
0.7213312926
0.6047791483
0.6716526867
0.6755286756
0.6708885577
0.664769762
0.6584370279
0.6512678777
0.643344278
0.6347484893
0.6255599229
0.6160060466
0.6063680636
0.5970308015
0.588435198
0.5810827146
0.5754777339
0.5720469918
0.5710832986
0.5726834375
0.5767440636
0.583068314
0.5912782014
0.600915636
0.6115388859
0.6227528092
0.634111556
0.6452967429
0.6560063951
0.6660342364
0.6752149912
0.6834531635
0.6906961278
0.6969402022
0.7022158736
0.7065848441
0.7101297542
0.7129480439
0.7151436769
0.7168209613
0.7180785769
0.7190056179
0.7196788503
0.7201618754
0.7205053486
0.7207483594
0.7209201035
0.7210418659
0.7211287886
0.721191476
0.7212372371
0.7212710949
0.7212964548
0.7213156208
0.7213300697
0.7213405156
0.7213479747
0.7213511455
0.7213511578
0.7213551821
0.721329823
0.5910102606
0.6470412492
0.6476624091
0.6424620603
0.6362295637
0.6296181667
0.6223089482
0.6143258204
0.605819998
0.5969227152
0.5879211812
0.5791523749
0.5710408765
0.5640449386
0.5586418637
0.5552679737
0.5542486022
0.5557541385
0.5597520681
0.5660427462
0.5743727774
0.5843098054
0.5953912578
0.6072012325
0.6193648817
0.6314723842
0.6432380911
0.6543938188
0.6647609079
0.6741988305
0.6826315977
0.6900226762
0.6963807589
0.7017459516
0.7061870486
0.7097918157
0.7126611651
0.7149012853
0.7166177748
0.7179099982
0.7188673812
0.7195668817
0.7200722787
0.7204344712
0.7206928654
0.7208770362
0.72100868
0.7211033507
0.7211720398
0.7212224015
0.7212597542
0.7212877502
0.7213088981
0.7213248235
0.7213364022
0.7213447055
0.7213484049
0.7213492569
0.7213530765
0.7213284491
0.5746782774
0.6202972968
0.6184167542
0.6129080613
0.6066327359
0.5998639027
0.592547084
0.5846898777
0.5765039426
0.5681667881
0.5600136628
0.552426263
0.5458482849
0.5407275377
0.5374912168
0.5364867017
0.5379285634
0.5418677287
0.5481595614
0.5565387085
0.5667053866
0.5781998395
0.5905678095
0.603427009
0.6164241543
0.629185656
0.6414560906
0.6529982753
0.6636581016
0.6733170935
0.6819164247
0.6894337927
0.6958887865
0.7013300095
0.7058324957
0.7094885026
0.7124019451
0.7146808905
0.7164319732
0.717755052
0.7187397389
0.7194630667
0.7199888949
0.7203682815
0.7206408752
0.7208365649
0.7209774019
0.7210793046
0.7211536114
0.7212082905
0.7212489301
0.7212794103
0.7213024285
0.7213197493
0.7213324061
0.721341499
0.7213457104
0.7213473971
0.7213509249
0.7213271249
0.5561563221
0.5918255457
0.5890842965
0.5823769643
0.5761592711
0.5694151804
0.5622701791
0.5547496815
0.5471246083
0.5396228182
0.5326089517
0.526490275
0.5217104973
0.5186813906
0.5177591368
0.5191901368
0.5230778972
0.5293646125
0.5378159119
0.5481254072
0.5599570024
0.5728471619
0.5863571276
0.6001422301
0.6138705032
0.6272034441
0.639913115
0.6517904535
0.662703094
0.6725521833
0.6812940146
0.6889189083
0.6954560848
0.7009616881
0.7055162644
0.7092160241
0.7121674823
0.7144802914
0.7162619044
0.7176125142
0.7186217963
0.7193667615
0.7199112678
0.720306462
0.7205921719
0.7207985446
0.7209479372
0.7210565905
0.721136155
0.721194884
0.7212386132
0.7212714325
0.7212962135
0.7213148516
0.721328533
0.7213383599
0.721343074
0.7213455813
0.7213487288
0.7213258745
0.5355407474
0.5617738212
0.5569084123
0.5512314232
0.5451261518
0.5385745122
0.5317962402
0.5248364452
0.5180144331
0.511607922
0.5060010503
0.5016001211
0.498829268
0.4980439591
0.4995146033
0.5033831267
0.5096488622
0.5181610711
0.5286184733
0.5406916265
0.5540236305
0.5681592322
0.582680697
0.5972820523
0.6116518655
0.6254845785
0.6385769345
0.6507452697
0.6618764131
0.6718889796
0.680752613
0.6884688699
0.6950755207
0.700635431
0.7052340373
0.7089710395
0.7119552095
0.7142975322
0.7161060944
0.7174812874
0.7185127475
0.7192773827
0.7198389821
0.7202487218
0.7205465553
0.7207628404
0.720920197
0.7210351517
0.721119636
0.7211821627
0.721228794
0.7212638138
0.7212902543
0.7213101351
0.7213247881
0.7213352932
0.7213405077
0.7213438087
0.7213465065
0.7213246961
0.5128123296
0.5304524669
0.5254083057
0.519648933
0.51381236
0.5076201088
0.5014058004
0.495234426
0.4894620832
0.4843916048
0.4804248504
0.4779452367
0.4773369185
0.4788851765
0.4827669931
0.4890233424
0.4975611176
0.5081545897
0.5204564145
0.5341287104
0.5488074292
0.5640514934
0.5794680586
0.5947892872
0.6097227505
0.6239932619
0.6374195925
0.6498409601
0.6611611294
0.6713142942
0.6802819265
0.6880756285
0.6947407954
0.7003463117
0.7049819706
0.7087505641
0.7117628241
0.7141308519
0.7159632105
0.7173603751
0.7184118571
0.7191943957
0.7197716545
0.7201947905
0.7205038381
0.7207293249
0.7208940967
0.7210149337
0.7211040206
0.7211701072
0.7212194629
0.721256551
0.7212845518
0.7213056038
0.7213211759
0.7213323042
0.7213380238
0.7213420794
0.7213442679
0.7213235974
0.488138433
0.4984138156
0.493360268
0.4878787615
0.4824681235
0.4768304611
0.4713826895
0.4662189616
0.4617221077
0.4582022077
0.4560661603
0.4556600786
0.4573107358
0.4612249025
0.4674851492
0.476039852
0.4867179819
0.4992366627
0.5132206809
0.5283361007
0.5442200389
0.5604490565
0.5766575316
0.5926147577
0.6080442115
0.6226989106
0.636417225
0.6490589147
0.6605427221
0.6708167679
0.6798730483
0.6877321849
0.6944464038
0.700090003
0.7047566727
0.7085519516
0.7115882755
0.7139786752
0.7158320548
0.7172488769
0.7183184571
0.7191173115
0.7197089323
0.7201444177
0.7204638454
0.7206978779
0.7208695557
0.7209958839
0.7210892761
0.721158698
0.72121061
0.7212496404
0.7212791062
0.7213012615
0.7213177005
0.7213293987
0.7213356339
0.7213403938
0.7213420256
0.7213225876
0.4620589975
0.4660463317
0.4613856331
0.4562623664
0.4514163744
0.4465096803
0.4420136585
0.4380514418
0.4350185434
0.4332265022
0.433064555
0.4348309361
0.4387828722
0.4450451131
0.4536101353
0.4643448948
0.4770160463
0.4912998663
0.5068088063
0.5232223532
0.5401828728
0.5572862104
0.5741958426
0.5907161773
0.6065827162
0.6215751782
0.6355492043
0.648382976
0.6600085177
0.6703864313
0.6795181202
0.6874323328
0.6941874425
0.6998626361
0.7045551002
0.70837282
0.7114297121
0.7138395748
0.7157115382
0.7171459712
0.7182319352
0.7190456791
0.7196504887
0.7200973697
0.7204264125
0.7206683858
0.7208464969
0.7209779513
0.7210753699
0.7211479159
0.7212022249
0.7212430778
0.7212739176
0.7212971115
0.7213143648
0.7213265829
0.7213333479
0.7213387521
0.7213397904
0.721321683
0.4348278721
0.4337629465
0.4296834493
0.4250669206
0.4209265097
0.4169140834
0.4135359696
0.410941047
0.4095261618
0.4095958882
0.4115032185
0.4154913572
0.421740052
0.4302925057
0.4410590015
0.4538374053
0.468347827
0.4842396036
0.501125771
0.5187044284
0.5366257989
0.5545055437
0.5720374964
0.589056747
0.6053092139
0.6205992379
0.6347976074
0.6477990558
0.6595474171
0.6700145138
0.6792101964
0.6871705608
0.6939595394
0.6996607477
0.7043745198
0.7082110234
0.7112854607
0.7137122571
0.7156006703
0.7170509078
0.7181517303
0.718979084
0.7195960213
0.7200534291
0.7203913856
0.7206407413
0.7208248471
0.7209610873
0.7210622707
0.7211377417
0.7211942972
0.7212368585
0.7212689856
0.7212931567
0.7213111714
0.7213238639
0.7213311748
0.7213371527
0.72133759
0.7213208947
0.4067648162
0.4019355761
0.3985540547
0.3945701192
0.3912557406
0.3882760513
0.3861522535
0.385055635
0.385374034
0.387394609
0.3914222414
0.3976377407
0.4061405839
0.4168949823
0.429739023
0.4444145986
0.4606103014
0.477960122
0.4960869493
0.5147090196
0.5334878806
0.5520580762
0.5701436666
0.5876045115
0.6041986154
0.6197513001
0.6341468158
0.6472948026
0.6591496281
0.6696932303
0.6789430726
0.6869419199
0.6937587503
0.6994812012
0.7042124472
0.7080646046
0.7111539905
0.7135955346
0.7154985387
0.7169629931
0.7180773206
0.7189171388
0.7195452459
0.7200123901
0.7203586177
0.7206148412
0.7208045349
0.7209452436
0.7210499471
0.7211281559
0.7211868157
0.7212309774
0.7212643093
0.7212893993
0.7213081219
0.7213212497