/*--------------------------------*- C++ -*----------------------------------*\
  =========                 |
  \\      /  F ield         | OpenFOAM: The Open Source CFD Toolbox
   \\    /   O peration     | Website:  https://openfoam.org
    \\  /    A nd           | Version:  12
     \\/     M anipulation  |
\*---------------------------------------------------------------------------*/
FoamFile
{
    format      ascii;
    class       volScalarField;
    location    "200";
    object      nut;
}
// * * * * * * * * * * * * * * * * * * * * * * * * * * * * * * * * * * * * * //

dimensions      [0 2 -1 0 0 0 0];

internalField   nonuniform List<scalar> 
16200
(
0.0004955689461
0.00166897141
0.002781283399
0.003660700466
0.003977446613
0.00354683864
0.002623963184
0.001457511888
0.0007150444266
0.0003000846578
9.134211216e-06
2.950863994e-06
2.616513778e-06
2.390517345e-06
1.874571034e-06
1.589918244e-06
1.370280549e-06
1.227602672e-06
1.146866624e-06
1.103981663e-06
1.08784353e-06
1.093089849e-06
1.115170373e-06
1.151944249e-06
1.203800675e-06
1.27335393e-06
1.365550371e-06
1.488541074e-06
1.655106533e-06
1.885505532e-06
2.212917034e-06
2.694627775e-06
3.435324839e-06
4.635891373e-06
6.702021168e-06
1.048821379e-05
1.785930435e-05
3.295305592e-05
6.509359807e-05
0.0001354779015
0.0002929351978
0.0006508377664
0.001002593475
0.00100210397
0.001001154157
0.0009997923739
0.0009990901516
0.0009987961798
0.0009986796568
0.0009986388192
0.0009986300482
0.0009986356382
0.0009986493855
0.0009986705598
0.0009987010671
0.0009987455754
0.0009988100054
0.0009989067051
0.0009990498819
0.000999278258
0.0004879206142
0.001633510967
0.00269421823
0.003483781006
0.003639697059
0.003085929306
0.002172561996
0.00107176707
0.000581978837
7.004288957e-05
3.209778873e-06
2.473683889e-06
2.207318991e-06
2.139125448e-06
1.664405167e-06
1.408687091e-06
1.212511076e-06
1.085885367e-06
1.017072994e-06
9.824797211e-07
9.716910249e-07
9.795176456e-07
1.002031581e-06
1.037467819e-06
1.086474047e-06
1.15177397e-06
1.238262127e-06
1.353841945e-06
1.510758134e-06
1.728060991e-06
2.036358127e-06
2.487756555e-06
3.17695003e-06
4.285947992e-06
6.182122348e-06
9.639302217e-06
1.634320957e-05
3.00325011e-05
5.911928424e-05
0.0001227027638
0.0002647306302
0.0005870828163
0.001002493154
0.001002044045
0.001001171439
0.0009998259283
0.0009991089665
0.0009988081976
0.0009986889753
0.0009986473844
0.0009986386981
0.0009986446517
0.0009986587773
0.0009986801912
0.0009987107382
0.0009987549311
0.0009988188477
0.0009989148253
0.0009990579717
0.0009992898711
0.0004811962514
0.001599228096
0.002607889434
0.003304621173
0.00329951581
0.002641420186
0.001749813071
0.0007969701479
0.0004240120214
1.802235399e-05
2.341461203e-06
2.07291017e-06
1.85773898e-06
1.795395767e-06
1.465313055e-06
1.237974426e-06
1.065091762e-06
9.542519467e-07
8.966222135e-07
8.694727878e-07
8.631777916e-07
8.727909873e-07
8.949728396e-07
9.283353905e-07
9.737626332e-07
1.034114231e-06
1.114342139e-06
1.222291671e-06
1.369887259e-06
1.575282432e-06
1.867041066e-06
2.292972806e-06
2.939279506e-06
3.971638057e-06
5.724680936e-06
8.903346855e-06
1.50393067e-05
2.752463118e-05
5.396349275e-05
0.0001115796967
0.0002398550139
0.0005300986478
0.001002409519
0.001001986462
0.001001164931
0.0009998532119
0.0009991264757
0.0009988205124
0.000998698881
0.0009986564013
0.0009986475768
0.0009986536953
0.0009986680635
0.0009986896333
0.0009987202069
0.0009987641619
0.0009988276342
0.0009989230209
0.0009990660623
0.0009993010054
0.0004762715833
0.001566734314
0.002520305323
0.003102874334
0.00294864309
0.002224579252
0.001267108545
0.0005875060896
0.000239756719
8.325599158e-06
1.936308978e-06
1.750136043e-06
1.576166897e-06
1.519318231e-06
1.290798936e-06
1.088248727e-06
9.359438288e-07
8.393401203e-07
7.915294791e-07
7.708651607e-07
7.683727941e-07
7.793654363e-07
8.010396975e-07
8.324332147e-07
8.747341904e-07
9.310327148e-07
1.006445751e-06
1.108860249e-06
1.250014726e-06
1.447453993e-06
1.728313287e-06
2.137322393e-06
2.754481879e-06
3.733546542e-06
5.385872308e-06
8.368020698e-06
1.410526233e-05
2.575087307e-05
5.0357611e-05
0.0001038719182
0.0002227484804
0.0004911483244
0.001002336189
0.001001929834
0.001001136382
0.0009998682916
0.0009991392593
0.0009988311069
0.0009987081847
0.0009986651639
0.0009986562583
0.0009986625197
0.000998677111
0.0009986988508
0.000998729488
0.0009987732801
0.0009988364182
0.000998931343
0.0009990743486
0.0009993121454
0.0004717141566
0.001535387042
0.002431084332
0.002876596935
0.002590594961
0.0018528645
0.0009039376794
0.0004592840619
8.473367099e-05
2.613658097e-06
1.627592407e-06
1.4795704e-06
1.339695748e-06
1.289098481e-06
1.132983722e-06
9.537098978e-07
8.206882986e-07
7.375510491e-07
6.986136018e-07
6.835329279e-07
6.840026995e-07
6.957247646e-07
7.164960864e-07
7.458791493e-07
7.854348505e-07
8.385103375e-07
9.103741334e-07
1.008938232e-06
1.145790092e-06
1.337997919e-06
1.611592957e-06
2.008899377e-06
2.604961886e-06
3.543911467e-06
5.118550396e-06
7.947155281e-06
1.337125644e-05
2.435424864e-05
4.750972402e-05
9.77561074e-05
0.0002091074493
0.0004599157302
0.001002274337
0.001001878046
0.001001105377
0.0009998748292
0.0009991490256
0.000998840819
0.0009987173253
0.0009986739252
0.0009986649059
0.0009986712411
0.0009986859949
0.0009987078858
0.000998738606
0.0009987823094
0.0009988452034
0.0009989397892
0.0009990828035
0.0009993232078
0.0004668969537
0.001504063292
0.002339273004
0.002643841815
0.002234529144
0.001506514958
0.0006720674444
0.0003388102454
2.198831558e-05
1.724730252e-06
1.377499132e-06
1.256148081e-06
1.143908705e-06
1.099159977e-06
9.932502407e-07
8.347672475e-07
7.188890917e-07
6.477378468e-07
6.162710992e-07
6.055727031e-07
6.08124994e-07
6.201765305e-07
6.401259832e-07
6.680135758e-07
7.057065728e-07
7.567695779e-07
8.266110146e-07
9.231797007e-07
1.057980239e-06
1.247787283e-06
1.517899122e-06
1.908948922e-06
2.492336455e-06
3.405010254e-06
4.926182508e-06
7.646640066e-06
1.284816382e-05
2.335778425e-05
4.547173987e-05
9.335848364e-05
0.0001992400221
0.0004371692115
0.0009787965365
0.001001830268
0.001001072013
0.0009998725801
0.0009991554318
0.000998849369
0.0009987261009
0.0009986825482
0.0009986734353
0.0009986798075
0.0009986946916
0.0009987167306
0.000998747561
0.0009987912476
0.0009988539963
0.0009989483648
0.0009990914517
0.0009993342532
0.0004614447198
0.001471720316
0.00224274256
0.002397763398
0.001888429892
0.001114358652
0.0005017882184
0.0002160336721
9.578956697e-06
1.403230452e-06
1.168275573e-06
1.066987955e-06
9.767072149e-07
9.371686268e-07
8.65620494e-07
7.263103685e-07
6.262291896e-07
5.662838683e-07
5.415878812e-07
5.348160176e-07
5.392925419e-07
5.518722313e-07
5.715116315e-07
5.986497452e-07
6.353913481e-07
6.854723481e-07
7.545584313e-07
8.506371781e-07
9.851676962e-07
1.17473558e-06
1.444445559e-06
1.833397855e-06
2.410477045e-06
3.307265074e-06
4.793013478e-06
7.438906959e-06
1.248436544e-05
2.265863319e-05
4.402746924e-05
9.020667804e-05
0.0001920836177
0.0004204722403
0.0009391335589
0.001001786063
0.001001036734
0.0009998630103
0.0009991589896
0.0009988569174
0.0009987345568
0.0009986910485
0.0009986818587
0.0009986882357
0.0009987032206
0.0009987254049
0.0009987563733
0.0009988001114
0.0009988628088
0.0009989570778
0.0009991003013
0.0009993452883
0.0004549430307
0.001437058416
0.002138838507
0.002134385224
0.001567952974
0.0008012280152
0.0003854615391
0.0001172555224
3.294951159e-06
1.171414376e-06
9.886571977e-07
9.031981342e-07
8.303725215e-07
7.958906067e-07
7.475591837e-07
6.267524135e-07
5.419283978e-07
4.930102309e-07
4.749282365e-07
4.720308298e-07
4.784576703e-07
4.916735997e-07
5.112303106e-07
5.380372815e-07
5.744371685e-07
6.244543589e-07
6.938309768e-07
7.90704649e-07
9.265381168e-07
1.117850451e-06
1.38923319e-06
1.779942563e-06
2.356260369e-06
3.246236256e-06
4.712337236e-06
7.313038462e-06
1.22605723e-05
2.222015219e-05
4.310273933e-05
8.814375123e-05
0.0001872931558
0.0004090481865
0.0009114420438
0.001001744648
0.001000999605
0.0009998471129
0.0009991599716
0.0009988634936
0.0009987426585
0.0009986993891
0.0009986901537
0.0009986965181
0.0009987115862
0.0009987339198
0.0009987650569
0.0009988089132
0.0009988716527
0.0009989659366
0.0009991093633
0.0009993563323
0.0004472257853
0.001397975848
0.002016632653
0.001864554619
0.001273073653
0.0005923890297
0.0003008633699
4.36996154e-05
1.594068936e-06
9.850582639e-07
8.391619709e-07
7.667668924e-07
7.076855e-07
6.779635438e-07
6.442228534e-07
5.400570544e-07
4.689274973e-07
4.299369128e-07
4.175874911e-07
4.179298713e-07
4.259279835e-07
4.396039932e-07
4.590118961e-07
4.856869562e-07
5.223041962e-07
5.729632009e-07
6.43528072e-07
7.42237627e-07
8.806183797e-07
1.075219459e-06
1.350632983e-06
1.745734316e-06
2.325824885e-06
3.216418719e-06
4.675818066e-06
7.255457545e-06
1.215284719e-05
2.199681441e-05
4.260528071e-05
8.697352746e-05
0.0001844366058
0.0004019224889
0.0008934837058
0.001001705274
0.001000960604
0.0009998261029
0.0009991587733
0.0009988691935
0.0009987504083
0.0009987075543
0.0009986983104
0.0009987046553
0.000998719798
0.0009987422898
0.0009987736288
0.000998817668
0.0009988805403
0.0009989749493
0.0009991186443
0.0009993673961
0.0004378289293
0.001353172518
0.001857438463
0.001591468679
0.0009618535289
0.0004423917287
0.0002168065663
2.031558491e-05
1.160813774e-06
8.34793669e-07
7.17903613e-07
6.565595921e-07
6.084882271e-07
5.830638249e-07
5.57652156e-07
4.675826523e-07
4.079156465e-07
3.770329806e-07
3.688699981e-07
3.713022017e-07
3.802782411e-07
3.943195464e-07
4.139344205e-07
4.408440907e-07
4.781583014e-07
5.301637208e-07
6.027233584e-07
7.041282053e-07
8.460567077e-07
1.045215359e-06
1.326362739e-06
1.728333888e-06
2.31602477e-06
3.213536836e-06
4.677270369e-06
7.256507903e-06
1.214477193e-05
2.195826421e-05
4.247481575e-05
8.656962557e-05
0.0001832380559
0.0003984759868
0.0008838409791
0.001001667205
0.001000919593
0.0009998010759
0.000999155755
0.0009988741029
0.0009987578049
0.0009987155263
0.0009987063172
0.0009987126464
0.0009987278643
0.0009987505287
0.0009987821052
0.0009988263903
0.0009988894829
0.0009989841241
0.0009991281495
0.0009993784891
0.0004261732745
0.001302236026
0.001680993282
0.001326611241
0.0006918853063
0.0003358887277
0.0001420229315
1.292452805e-05
9.377797661e-07
7.068488067e-07
6.140236742e-07
5.617525109e-07
5.228477381e-07
5.016201656e-07
4.813611024e-07
4.046111611e-07
3.554986336e-07
3.318183864e-07
3.269990674e-07
3.307758276e-07
3.401888061e-07
3.547343054e-07
3.74996814e-07
4.027695436e-07
4.413423894e-07
4.952621386e-07
5.704593702e-07
6.752453044e-07
8.215078875e-07
1.026251598e-06
1.31454227e-06
1.72544814e-06
2.323944055e-06
3.233682656e-06
4.711122893e-06
7.307629609e-06
1.222201404e-05
2.207832539e-05
4.265983127e-05
8.682465256e-05
0.0001834640638
0.0003981862325
0.0008813203959
0.001001629794
0.001000876384
0.0009997730595
0.0009991512715
0.000998878317
0.000998764857
0.0009987232945
0.0009987141668
0.000998720493
0.0009987357943
0.0009987586509
0.0009987905027
0.0009988350952
0.0009988984924
0.0009989934704
0.0009991378822
0.0009993896178
0.0004125641639
0.001244291451
0.001495849117
0.001079359481
0.0005084686582
0.0002602799955
7.282338021e-05
6.432535619e-06
7.598342885e-07
5.967407848e-07
5.223676758e-07
4.773183549e-07
4.455090828e-07
4.278178651e-07
4.104604376e-07
3.465884259e-07
3.079070451e-07
2.915097554e-07
2.903227749e-07
2.956210441e-07
3.056313347e-07
3.205338095e-07
3.416793673e-07
3.708934428e-07
4.112682284e-07
4.675011883e-07
5.457707849e-07
6.544736276e-07
8.056998397e-07
1.016863066e-06
1.313473484e-06
1.735050187e-06
2.347062582e-06
3.273559053e-06
4.772794317e-06
7.401970834e-06
1.237338813e-05
2.233699009e-05
4.312154189e-05
8.765854433e-05
0.000184941623
0.0004006672101
0.0008850413414
0.001001592489
0.001000830766
0.0009997429526
0.0009991456444
0.0009988819283
0.0009987715778
0.0009987308525
0.000998721855
0.0009987281982
0.0009987435983
0.000998766671
0.0009987988377
0.0009988437979
0.0009989075824
0.0009990029952
0.0009991478433
0.0009994007863
0.0003973007331
0.001178169215
0.001304678591
0.000814153964
0.0003824329813
0.0001979756513
3.185305117e-05
2.996031151e-06
6.177810276e-07
5.035783061e-07
4.432269726e-07
4.047169005e-07
3.785064262e-07
3.638173168e-07
3.476371246e-07
2.952346536e-07
2.658575085e-07
2.557521213e-07
2.577794597e-07
2.650460934e-07
2.762019623e-07
2.917244312e-07
3.137761158e-07
3.446498937e-07
3.872253352e-07
4.460887075e-07
5.277138135e-07
6.407445999e-07
7.974532307e-07
1.015715851e-06
1.321627468e-06
1.75533832e-06
2.383170001e-06
3.330318379e-06
4.858397047e-06
7.533831602e-06
1.258977167e-05
2.271821317e-05
4.382922946e-05
8.900841067e-05
0.0001875355386
0.0004056180844
0.0008943183761
0.001001554846
0.001000782534
0.0009997115256
0.0009991391608
0.0009988850259
0.000998777985
0.0009987381996
0.0009987293811
0.0009987357672
0.0009987512873
0.0009987746039
0.0009988071267
0.0009988525133
0.0009989167651
0.0009990126981
0.000999158032
0.0009994119979
0.0003804029468
0.001102009273
0.001109133811
0.0005996929808
0.0002988847492
0.0001471274565
1.824478232e-05
1.613459552e-06
5.071678549e-07
4.259386985e-07
3.773034617e-07
3.445704586e-07
3.229999622e-07
3.109834408e-07
2.951792444e-07
2.527179851e-07
2.310769955e-07
2.25679058e-07
2.296587837e-07
2.383870389e-07
2.508819131e-07
2.677197164e-07
2.909689733e-07
3.234661077e-07
3.684006516e-07
4.301982628e-07
5.154153368e-07
6.330772684e-07
7.956961615e-07
1.021615908e-06
1.337691505e-06
1.784734565e-06
2.43035843e-06
3.401544096e-06
4.964697368e-06
7.698577779e-06
1.286391928e-05
2.320950938e-05
4.475935638e-05
9.082654937e-05
0.0001911438717
0.0004128126123
0.0009086363429
0.001001516518
0.001000731505
0.0009996794171
0.0009991320691
0.0009988876927
0.0009987840996
0.0009987453388
0.0009987367478
0.000998743207
0.000998758873
0.0009987824643
0.0009988153856
0.0009988612561
0.0009989260504
0.0009990225709
0.000999168447
0.0009994232549
0.0003626304141
0.001017943186
0.0009045418813
0.0004494156187
0.0002368442727
0.0001034768019
1.254665808e-05
9.350154241e-07
4.211951785e-07
3.610803661e-07
3.227517276e-07
2.947750511e-07
2.768293915e-07
2.670126309e-07
2.512013861e-07
2.174603933e-07
2.023886963e-07
2.007492952e-07
2.062814263e-07
2.158092429e-07
2.292500507e-07
2.476128338e-07
2.72512735e-07
3.067566518e-07
3.540837889e-07
4.19054667e-07
5.080942579e-07
6.305982067e-07
7.994668835e-07
1.033504424e-06
1.360375277e-06
1.821865085e-06
2.486987688e-06
3.485189834e-06
5.089007249e-06
7.892441645e-06
1.319007838e-05
2.380117846e-05
4.589394058e-05
9.307692614e-05
0.0001956901133
0.0004220814312
0.0009276097646
0.001001477245
0.001000677526
0.0009996471441
0.0009991245795
0.0009988900044
0.0009987899449
0.0009987522773
0.0009987439607
0.0009987505265
0.0009987663678
0.0009987902673
0.0009988236301
0.0009988700404
0.0009989354475
0.0009990326084
0.0009991790845
0.0009994345581
0.0003452186771
0.000926421838
0.0007253119087
0.0003573034113
0.0001961546611
5.754789345e-05
6.822334586e-06
5.897018884e-07
3.505438461e-07
3.046998175e-07
2.741661118e-07
2.511287431e-07
2.364377079e-07
2.288382488e-07
2.134609465e-07
1.877856844e-07
1.784325125e-07
1.79658539e-07
1.865601582e-07
1.969551175e-07
2.11289878e-07
2.309736493e-07
2.57567475e-07
2.939439616e-07
3.437621838e-07
4.11990331e-07
5.05036809e-07
6.325300824e-07
8.079063529e-07
1.050446375e-06
1.388692376e-06
1.865541945e-06
2.551658374e-06
3.579537067e-06
5.229113965e-06
8.112397108e-06
1.356375414e-05
2.44858381e-05
4.721958493e-05
9.573308122e-05
0.0002011185394
0.0004333015517
0.0009509587959
0.001001436843
0.001000620477
0.0009996151149
0.0009991168674
0.0009988920292
0.0009987955451
0.0009987590252
0.0009987510275
0.0009987577355
0.0009987737845
0.0009987980276
0.0009988318754
0.00099887888
0.0009989449671
0.0009990428215
0.0009991899401
0.0009994459047
0.0003308716065
0.0008262793961
0.000581483712
0.0003002315191
0.0001638563001
3.02321565e-05
3.149834146e-06
4.167364728e-07
2.924753896e-07
2.563161565e-07
2.318088326e-07
2.131793666e-07
2.013403602e-07
1.9573254e-07
1.812055363e-07
1.628849733e-07
1.584808835e-07
1.620834548e-07
1.699296339e-07
1.811638421e-07
1.965687762e-07
2.175290806e-07
2.458113091e-07
2.845423122e-07
3.369897885e-07
4.084255093e-07
5.055794521e-07
6.381809677e-07
8.202584496e-07
1.071628681e-06
1.42174145e-06
1.914749451e-06
2.623189271e-06
3.68315808e-06
5.383217849e-06
8.356050465e-06
1.398150713e-05
2.525802787e-05
4.872666338e-05
9.877638941e-05
0.0002073903731
0.0004463876868
0.0009784888888
0.001001395186
0.00100056027
0.0009995836441
0.0009991090762
0.0009988938277
0.0009988009252
0.0009987655946
0.0009987579582
0.0009987648453
0.0009987811363
0.0009988057596
0.0009988401361
0.0009988877876
0.0009989546195
0.0009990532322
0.0009992010115
0.0009994572904
0.0003226229873
0.0007210266921
0.0004755751483
0.0002483073957
0.0001310642572
1.771848704e-05
1.503390418e-06
3.145413296e-07
2.456109257e-07
2.16495078e-07
1.965800125e-07
1.81353776e-07
1.719436597e-07
1.678682201e-07
1.543872574e-07
1.423093942e-07
1.416873963e-07
1.4727755e-07
1.560690866e-07
1.681495351e-07
1.846519005e-07
2.069486474e-07
2.37174929e-07
2.78091489e-07
3.332335519e-07
4.078228977e-07
5.091154367e-07
6.469340224e-07
8.358635177e-07
1.096335767e-06
1.458749603e-06
1.968626136e-06
2.700592346e-06
3.794879233e-06
5.549874826e-06
8.621544182e-06
1.44407804e-05
2.611387718e-05
5.040864701e-05
0.000102194629
0.0002144806459
0.0004612851928
0.001001991499
0.001001352199
0.001000496839
0.0009995529684
0.0009991013219
0.0009988954534
0.0009988061101
0.0009987719995
0.0009987647639
0.0009987718675
0.0009987884363
0.0009988134775
0.000998848426
0.0009988967753
0.0009989644122
0.0009990638544
0.0009992122973
0.0009994687101
0.0003232260841
0.0006160401478
0.0003827897759
0.0002104796871
0.0001010347339
1.166982812e-05
7.30996027e-07
2.479697693e-07
2.066571756e-07
1.830047735e-07
1.667512048e-07
1.543920382e-07
1.471287823e-07
1.444346006e-07
1.325275043e-07
1.257103101e-07
1.279585424e-07
1.348175103e-07
1.445545849e-07
1.576361576e-07
1.752645407e-07
1.990059091e-07
2.31206889e-07
2.740877914e-07
3.319251701e-07
4.096944069e-07
5.151242967e-07
6.582522876e-07
8.541551626e-07
1.123966673e-06
1.499062952e-06
2.026450507e-06
2.783051201e-06
3.913748905e-06
5.727947499e-06
8.90747883e-06
1.493976641e-05
2.705086173e-05
5.226162817e-05
0.0001059810016
0.0002223760832
0.0004779653566
0.00100196283
0.001001307848
0.001000430132
0.000999523261
0.0009990936971
0.0009988969532
0.0009988111241
0.0009987782548
0.0009987714568
0.0009987788145
0.0009987956974
0.0009988211946
0.0009988567581
0.0009989058541
0.0009989743505
0.0009990746837
0.0009992237922
0.0009994801576
0.0003341058913
0.0005174536793
0.0003196631051
0.0001856243801
5.741869668e-05
6.55362042e-06
3.904121415e-07
2.010766854e-07
1.736229523e-07
1.544386144e-07
1.412731921e-07
1.315118579e-07
1.261373372e-07
1.247499458e-07
1.149558485e-07
1.124763941e-07
1.16795057e-07
1.245407362e-07
1.351394304e-07
1.492516642e-07
1.680613577e-07
1.932783183e-07
2.27215664e-07
2.72122828e-07
3.325938986e-07
4.136088499e-07
5.231666782e-07
6.716709684e-07
8.746501046e-07
1.154008368e-06
1.542134499e-06
2.087626903e-06
2.869902687e-06
4.039011508e-06
5.916565482e-06
9.212847533e-06
1.547729002e-05
2.8067579e-05
5.428386327e-05
0.0001101331552
0.0002310729615
0.0004964205962
0.00100193207
0.001001262136
0.001000360096
0.0009994946438
0.0009990862751
0.000998898368
0.0009988159907
0.0009987843761
0.0009987780497
0.0009987856984
0.0009988029325
0.0009988289238
0.0009988651446
0.0009989150338
0.0009989844427
0.00099908571
0.0009992354885
0.0009994916257
0.0003536467957
0.0004747763896
0.0002814458422
0.0001670059165
2.983119591e-05
2.64145136e-06
2.435013408e-07
1.661050975e-07
1.46204785e-07
1.306073845e-07
1.199996174e-07
1.125413154e-07
1.087185844e-07
1.084884443e-07
1.011361786e-07
1.019263479e-07
1.077122431e-07
1.162045689e-07
1.276024736e-07
1.426679354e-07
1.626720302e-07
1.893011513e-07
2.248296552e-07
2.71893875e-07
3.349151746e-07
4.191943859e-07
5.328690868e-07
6.867943479e-07
8.969412403e-07
1.186033953e-06
1.587514894e-06
2.151672933e-06
2.960619663e-06
4.170083643e-06
6.115091456e-06
9.536984556e-06
1.605272445e-05
2.916359882e-05
5.647548586e-05
0.0001146525998
0.0002405758506
0.0005166617059
0.001001899202
0.001001215096
0.001000286674
0.0009994671992
0.000999079113
0.0009988997334
0.0009988207322
0.0009987903791
0.0009987845555
0.0009987925317
0.0009988101536
0.0009988366773
0.0009988735965
0.0009989243232
0.0009989946979
0.0009990969287
0.0009992473777
0.0009995031062
0.0003776036581
0.0004200871605
0.000250614025
0.0001468735806
1.596274411e-05
9.990398543e-07
1.74479829e-07
1.390042218e-07
1.237510625e-07
1.11007003e-07
1.026013107e-07
9.689412425e-08
9.442835915e-08
9.472067486e-08
9.04413955e-08
9.360618427e-08
1.003180086e-07
1.094880587e-07
1.216354953e-07
1.376290732e-07
1.587931621e-07
1.867924415e-07
2.239187514e-07
2.730944588e-07
3.386114158e-07
4.261257028e-07
5.439080568e-07
7.032864165e-07
9.206861123e-07
1.21968761e-06
1.634833162e-06
2.21819496e-06
3.054779387e-06
4.306512529e-06
6.32306432e-06
9.87948302e-06
1.666586293e-05
3.033924668e-05
5.883811269e-05
0.0001195439435
0.0002508960552
0.0005387145142
0.001001864235
0.001001166797
0.001000216765
0.0009994409788
0.0009990722551
0.0009989010803
0.0009988253696
0.0009987962792
0.0009987909872
0.0009987993263
0.0009988173725
0.0009988444662
0.000998882124
0.0009989337303
0.0009990051196
0.0009991083372
0.0009992594506
0.0009995145889
0.0004057774873
0.000382165007
0.0002356002447
0.0001246329444
9.381575869e-06
3.639653597e-07
1.378195279e-07
1.173019859e-07
1.052029191e-07
9.495696999e-08
8.818851303e-08
8.397791017e-08
8.273832005e-08
8.291946037e-08
8.219099573e-08
8.693041443e-08
9.431402473e-08
1.041176266e-07
1.169933462e-07
1.339176241e-07
1.561949776e-07
1.855286523e-07
2.242477498e-07
2.754423307e-07
3.43412031e-07
4.341264283e-07
5.560097067e-07
7.208679479e-07
9.456035289e-07
1.254681156e-06
1.683793337e-06
2.28688457e-06
3.152059507e-06
4.447970576e-06
6.54019009e-06
1.024017818e-05
1.73168855e-05
3.159553336e-05
6.137468699e-05
0.0001248145303
0.0002620507644
0.0005626178546
0.001001827196
0.001001117072
0.001000150393
0.0009994160103
0.0009990657351
0.0009989024355
0.0009988299227
0.0009988020914
0.0009987973573
0.0009988060937
0.0009988246
0.0009988523007
0.0009988907359
0.0009989432616
0.000999015709
0.0009991199308
0.000999271697
0.0009995260614
0.0004355567742
0.0003658275738
0.0002302143964
8.115785156e-05
3.7451921e-06
1.627507902e-07
1.14584053e-07
9.950384758e-08
8.994844985e-08
8.151138309e-08
7.614446576e-08
7.332012515e-08
7.321710905e-08
7.38823821e-08
7.57827929e-08
8.152231739e-08
8.947711187e-08
9.989298583e-08
1.135002158e-07
1.313340693e-07
1.546649445e-07
1.852869548e-07
2.255554904e-07
2.787017401e-07
3.490846329e-07
4.429683255e-07
5.689488801e-07
7.393126463e-07
9.714690773e-07
1.290789275e-06
1.734169242e-06
2.357512388e-06
3.252230402e-06
4.594244998e-06
6.766325882e-06
1.061912082e-05
1.800631108e-05
3.293406088e-05
6.408928036e-05
0.0001304740064
0.0002740620792
0.0005884213541
0.001001788136
0.001001065794
0.001000087494
0.0009993923042
0.0009990595781
0.000998903822
0.0009988344096
0.0009988078301
0.0009988036779
0.0009988128446
0.0009988318463
0.0009988601902
0.0009988994399
0.0009989529224
0.0009990264669
0.0009991317035
0.0009992841054
0.0009995375107
0.000475610058
0.0003655376981
0.0002300681294
3.773822939e-05
8.649710756e-07
1.11586106e-07
9.702240948e-08
8.5021653e-08
7.703730725e-08
7.018533039e-08
6.614321612e-08
6.462035161e-08
6.555615973e-08
6.706773114e-08
7.075261737e-08
7.716210596e-08
8.563506337e-08
9.664885855e-08
1.109784562e-07
1.296787708e-07
1.540001948e-07
1.858630127e-07
2.276394554e-07
2.826776279e-07
3.55437457e-07
4.524613037e-07
5.825384329e-07
7.584341556e-07
9.980980725e-07
1.327828023e-06
1.785777546e-06
2.42989494e-06
3.355114165e-06
4.745186429e-06
7.001413979e-06
1.101648781e-05
1.873486736e-05
3.435681865e-05
6.698675252e-05
0.0001365337166
0.0002869558858
0.0006161832459
0.001001747123
0.001001012865
0.001000027985
0.000999369858
0.0009990538028
0.0009989052598
0.0009988388469
0.0009988135088
0.0009988099603
0.0009988195893
0.0009988391205
0.0009988681428
0.0009989082424
0.0009989627165
0.0009990373927
0.0009991436478
0.0009992966633
0.0009995489235
0.0005217173069
0.0003639322332
0.0002261006965
1.757194867e-05
1.906513411e-07
9.312704504e-08
8.269947249e-08
7.290168378e-08
6.62208433e-08
6.076488951e-08
5.798192762e-08
5.765200516e-08
5.949228768e-08
6.196148354e-08
6.676894834e-08
7.367599466e-08
8.26345836e-08
9.422306376e-08
1.092457459e-07
1.287508466e-07
1.540270831e-07
1.870781471e-07
2.303258291e-07
2.872058246e-07
3.623138914e-07
4.624473063e-07
5.966241135e-07
7.780828431e-07
1.025343155e-06
1.365652615e-06
1.838475664e-06
2.503893159e-06
3.460582818e-06
4.90070545e-06
7.245475399e-06
1.143256836e-05
1.950346087e-05
3.586611727e-05
7.007259952e-05
0.0001430063522
0.0003007610353
0.0006459684701
0.00100170424
0.001000958205
0.0009999717663
0.0009993486597
0.000999048422
0.0009989067658
0.0009988432497
0.0009988191399
0.0009988162153
0.0009988263369
0.0009988464307
0.0009988761654
0.0009989171483
0.0009989726463
0.0009990484842
0.0009991557544
0.0009993093567
0.0009995602854
0.000565646498
0.0003562856929
0.0002136383661
9.13436219e-06
1.207899128e-07
7.914042908e-08
7.092011457e-08
6.287945445e-08
5.728998277e-08
5.307161215e-08
5.146384508e-08
5.21740968e-08
5.475583021e-08
5.810410909e-08
6.359982383e-08
7.09198014e-08
8.033493333e-08
9.246772592e-08
1.0814041e-07
1.283899784e-07
1.546002932e-07
1.887904656e-07
2.334729626e-07
2.921494705e-07
3.695832289e-07
4.728022253e-07
6.110870423e-07
7.981487523e-07
1.053100277e-06
1.404165816e-06
1.892173997e-06
2.579428267e-06
3.568578852e-06
5.060798561e-06
7.498641218e-06
1.186780188e-05
2.031322192e-05
3.746463594e-05
7.335298456e-05
0.0001499059028
0.0003155090508
0.0006778476913
0.00100165958
0.001000901737
0.0009999187307
0.0009993286902
0.0009990434444
0.0009989083543
0.0009988476315
0.0009988247351
0.0009988224522
0.0009988330956
0.000998853784
0.0009988842636
0.0009989261613
0.0009989827128
0.0009990597373
0.0009991680126
0.0009993221708
0.0009995715816
0.0005920391885
0.0003455420729
0.0001901625382
5.69485496e-06
9.0615347e-08
6.798238675e-08
6.128624687e-08
5.461355863e-08
4.995606215e-08
4.687323195e-08
4.634382631e-08
4.791511249e-08
5.107650664e-08
5.513579987e-08
6.108069977e-08
6.876872218e-08
7.861132067e-08
9.125453472e-08
1.075307329e-07
1.284813689e-07
1.555960255e-07
1.90887076e-07
2.36962061e-07
2.97395645e-07
3.771326865e-07
4.834251373e-07
6.258290972e-07
8.185395783e-07
1.081282026e-06
1.443284768e-06
1.946795703e-06
2.656431629e-06
3.679053588e-06
5.225471411e-06
7.761052858e-06
1.232264107e-05
2.116530262e-05
3.915510219e-05
7.68341968e-05
0.0001572466983
0.0003312323563
0.0007118939397
0.001001613251
0.001000843375
0.0009998687676
0.0009993099257
0.000999038875
0.0009989100374
0.0009988520045
0.0009988303045
0.00099882868
0.0009988398728
0.0009988611862
0.0009988924419
0.0009989352833
0.0009989929151
0.0009990711461
0.0009991804108
0.0009993350891
0.0009995827964
0.000580105915
0.0003403204767
0.0001588624856
2.229950237e-06
7.342804291e-08
5.89073808e-08
5.335831124e-08
4.776839612e-08
4.394326989e-08
4.19331588e-08
4.236128046e-08
4.461066059e-08
4.821219176e-08
5.280746753e-08
5.908621277e-08
6.711225973e-08
7.735385426e-08
9.047383487e-08
1.073120855e-07
1.289361806e-07
1.569139309e-07
1.93276986e-07
2.407010756e-07
3.028611635e-07
3.848797377e-07
4.942437607e-07
6.407836001e-07
8.391922678e-07
1.109832019e-06
1.482958863e-06
2.00229782e-06
2.734870731e-06
3.791997749e-06
5.39477411e-06
8.032903252e-06
1.279759951e-05
2.206092977e-05
4.094034314e-05
8.052267383e-05
0.0001650433171
0.0003479638504
0.0007481812548
0.001001565379
0.001000783006
0.0009998217648
0.000999292339
0.0009990347156
0.0009989118251
0.0009988563793
0.0009988358576
0.0009988349061
0.0009988466744
0.0009988686421
0.0009989007032
0.0009989445149
0.0009990032508
0.0009990827027
0.000999192936
0.0009993480939
0.0009995939108
0.0005641897463
0.0003381569278
8.649727723e-05
7.527200946e-07
6.191660466e-08
5.146899486e-08
4.68262523e-08
4.21236664e-08
3.906718659e-08
3.805259958e-08
3.927875993e-08
4.20375091e-08
4.594043316e-08
5.096104688e-08
5.751880777e-08
6.585759254e-08
7.647077342e-08
9.00364672e-08
1.074047683e-07
1.296887347e-07
1.584739121e-07
1.958822682e-07
2.446158192e-07
3.084785578e-07
3.927614826e-07
5.051958487e-07
6.558945275e-07
8.600517547e-07
1.138698626e-06
1.523139316e-06
2.058635208e-06
2.814707039e-06
3.907391248e-06
5.568739696e-06
8.314357052e-06
1.329313965e-05
2.300123412e-05
4.282300261e-05
8.442450321e-05
0.0001733096637
0.0003657351249
0.0007867811106
0.001001516109
0.00100072048
0.0009997776114
0.0009992759004
0.0009990309658
0.0009989137254
0.0009988607648
0.0009988414021
0.000998841137
0.0009988535055
0.0009988761551
0.000998909049
0.0009989538549
0.0009990137157
0.0009990943969
0.0009992055732
0.0009993611653
0.0009996049029
0.0005437017897
0.0003334737758
4.690038653e-05
2.805118723e-07
5.354144066e-08
4.532307461e-08
4.137606103e-08
3.745436206e-08
3.515984052e-08
3.50399216e-08
3.688587274e-08
4.001466914e-08
4.416278132e-08
4.949074986e-08
5.629663111e-08
6.492488446e-08
7.588407447e-08
8.986800735e-08
1.077419274e-07
1.30665634e-07
1.602114547e-07
1.986377525e-07
2.486513952e-07
3.141956756e-07
4.00735139e-07
5.162386332e-07
6.711240583e-07
8.810844976e-07
1.16785213e-06
1.56380108e-06
2.115788416e-06
2.895929864e-06
4.02524448e-06
5.747433629e-06
8.60560938e-06
1.380974241e-05
2.398733005e-05
4.480562085e-05
8.854545775e-05
0.0001820588254
0.0003845757704
0.0008277603027
0.001001465618
0.001000655584
0.0009997361979
0.0009992605786
0.000999027623
0.0009989157444
0.0009988651688
0.0009988469451
0.0009988473781
0.0009988603698
0.0009988837271
0.0009989174794