/*--------------------------------*- C++ -*----------------------------------*\
  =========                 |
  \\      /  F ield         | OpenFOAM: The Open Source CFD Toolbox
   \\    /   O peration     | Website:  https://openfoam.org
    \\  /    A nd           | Version:  12
     \\/     M anipulation  |
\*---------------------------------------------------------------------------*/
FoamFile
{
    format      ascii;
    class       surfaceScalarField;
    location    "200";
    object      phi;
}
// * * * * * * * * * * * * * * * * * * * * * * * * * * * * * * * * * * * * * //

dimensions      [1 0 -1 0 0 0 0];

internalField   nonuniform List<scalar> 
32120
(
-0.0006510667241
-0.04688990196
0.04754096869
-0.00147640956
-0.06659017586
0.06741552913
-0.002496759561
-0.08654742858
0.08756778576
-0.003730743013
-0.1099297843
0.1111637751
-0.005122554344
-0.1385853451
0.1399771656
-0.00649621444
-0.1747348722
0.1761085454
-0.007814225795
-0.221032884
0.2223509159
-0.01072384883
-0.2776327448
0.2805424012
-0.01789607007
-0.3373361183
0.3445083911
-0.02784440385
-0.4024939274
0.4124423328
-0.03975680889
-0.4791451417
0.4910576378
-0.05390149087
-0.5703948901
0.584539682
-0.0707169957
-0.6788263352
0.695641969
-0.09071752393
-0.8079245404
0.8279252183
-0.1145065597
-0.961540323
0.985329531
-0.1428097918
-1.144345122
1.17264855
-0.1764849045
-1.361784403
1.395459736
-0.2165599993
-1.620372406
1.660447747
-0.2642604225
-1.927799103
1.975499795
-0.3210641514
-2.293208928
2.35001295
-0.3887361285
-2.72737285
2.795045131
-0.469399024
-3.242945202
3.323608423
-0.5656129013
-3.854848692
3.951062877
-0.6804706473
-4.580621186
4.695479263
-0.8177243273
-5.44076173
5.578015673
-0.9819254995
-6.459239847
6.62344131
-1.178589706
-7.664077384
7.86074177
-1.414355618
-9.088079808
9.323845897
-1.697108288
-10.76986204
11.05261484
-2.036047225
-12.75528323
13.09422251
-2.441701601
-15.09937916
15.5050339
-2.925944117
-17.86879672
18.35303977
-3.502135537
-21.14459976
21.72079182
-4.185470671
-25.02530643
25.7086421
-4.99360819
-29.63011814
30.43825624
-5.947432348
-35.10245673
36.05628147
-7.071881535
-41.61405722
42.73850697
-8.396646874
-49.36983523
50.69460135
-9.956722803
-58.6137961
60.17387252
-11.79278031
-69.63620638
71.47226482
-13.95135318
-82.78232117
84.94089431
-16.48486294
-98.46306875
100.9965794
-19.45128852
-117.1679446
120.1343701
-22.91338058
-139.4807696
142.9428621
-26.93696825
-166.0985841
170.1221712
-31.58796562
-197.8546524
202.5056502
-36.92726029
-235.7461168
241.0854112
-43.00252946
-280.9676717
287.0429413
-49.83538795
-334.9524055
341.7852638
-57.40179037
-399.4217618
406.9881645
-65.60251216
-476.4467142
484.6474358
-74.21930485
-568.5232159
577.1400087
-82.85032802
-678.6656152
687.2966382
-90.81570411
-810.5230232
818.4883993
-97.02036636
-968.5252705
974.7299325
-99.75513848
-1158.066866
1160.801638
-96.41098146
-1385.740722
1382.396565
-83.06552922
-1659.645003
1646.299551
-53.89335128
-1989.736974
1960.564796
-2388.415453
2334.842625
-0.0005770886625
-0.0463128085
-0.00131802165
-0.06584923258
-0.002226803356
-0.08563863861
-0.003310588052
-0.1088459904
-0.004510771458
-0.1373851492
-0.005664026417
-0.1735815982
-0.006829488622
-0.219867391
-0.01048945377
-0.2739727313
-0.01752563686
-0.3302998658
-0.02638787112
-0.393631603
-0.03694134914
-0.468591554
-0.04950481526
-0.557831295
-0.06445716957
-0.6638738312
-0.08226564988
-0.7901158877
-0.1034755569
-0.940330219
-0.1287446933
-1.119075762
-0.1588493478
-1.331679499
-0.1947231517
-1.584498326
-0.2374834804
-1.885038477
-0.2884762365
-2.242215848
-0.3493116863
-2.666537071
-0.4219344309
-3.170322102
-0.508709799
-3.768073001
-0.6125155093
-4.476815123
-0.7368647005
-5.316412273
-0.8860443941
-6.310059859
-1.065270025
-7.484851563
-1.280816814
-8.872532758
-1.540108896
-10.51056947
-1.851729243
-12.44366227
-2.225364058
-14.72574348
-2.671771046
-17.4223883
-3.202904423
-20.61346547
-3.832267636
-24.39594093
-4.575549962
-28.88683534
-5.45135702
-34.22664591
-6.482028347
-40.58338567
-7.694267913
-48.15759041
-9.11970571
-57.18835843
-10.79520352
-67.96070309
-12.76306896
-80.81445599
-15.07102203
-96.15511163
-17.77191638
-114.4670515
-20.92297373
-136.3297108
-24.58425439
-162.4373036
-28.81592118
-193.622984
-33.67361046
-230.8884264
-39.20099464
-275.4402863
-45.41814268
-328.735256
-52.30373572
-392.5361683
-59.76829592
-468.9821528
-67.61440223
-560.6771098
-75.47812597
-670.8018907
-82.74332662
-803.2578234
-88.41717781
-962.8514178
-90.94970537
-1155.534338
-87.97432691
-1388.7161
-75.93299184
-1671.686337
-49.54035153
-2016.129614
-2436.938442
-0.0004581696211
-0.04585463232
-0.001030140131
-0.06527724879
-0.001715726295
-0.08495304157
-0.002492347619
-0.1080693566
-0.003263508464
-0.1366139712
-0.003886229387
-0.1729588508
-0.004652015041
-0.2191015629
-0.008463917816
-0.2701607633
-0.01491577553
-0.3238479176
-0.02282746537
-0.3857197986
-0.03224514889
-0.4591737332
-0.04345794649
-0.5466183371
-0.05680369192
-0.6505279009
-0.07270085559
-0.7742185123
-0.09163571945
-0.9213951156
-0.1141992476
-1.096511965
-0.1410885426
-1.30478991
-0.1731448664
-1.552441681
-0.2113788574
-1.846804149
-0.257017357
-2.196576991
-0.3115395961
-2.612014485
-0.3767459184
-3.105115416
-0.4548428568
-3.689975756
-0.5485355126
-4.38312214
-0.6611443945
-5.203803177
-0.7967444366
-6.174459584
-0.9603024545
-7.321293448
-1.157780054
-8.675055038
-1.396160232
-10.27218916
-1.683383921
-12.15643827
-2.028241002
-14.38088611
-2.440327059
-17.01030167
-2.930202658
-20.12358962
-3.509796527
-23.81634624
-4.193044114
-28.20358765
-4.996598081
-33.42309082
-5.940558449
-39.63942532
-7.049049012
-47.04909846
-8.350712465
-55.88669513
-9.878996639
-66.43241753
-11.67235272
-79.02110026
-13.77420146
-94.05326189
-16.23268386
-112.0085698
-19.09995
-133.462444
-22.43077958
-159.1064746
-26.2800845
-189.7736786
-30.69872379
-226.4697873
-35.72675986
-270.4122499
-41.3829207
-323.0790953
-47.64848567
-386.2706031
-54.44303518
-462.1876035
-61.58840605
-553.5317389
-68.7555962
-663.6347007
-75.38712174
-796.6262979
-80.58414901
-957.6543906
-82.9429871
-1153.1755
-80.31975558
-1391.339331
-69.49082708
-1682.515266
-45.66665044
-2039.95379
-2480.807676
-0.0003555557704
-0.04549906945
-0.0007871092136
-0.06484568149
-0.001289051071
-0.08445108813
-0.001800393793
-0.1075580004
-0.002168576358
-0.1362457697
-0.002281696301
-0.1728457012
-0.003139643649
-0.2182435683
-0.007060578987
-0.2662397575
-0.0128817846
-0.3180266176
-0.0198869004
-0.378714566
-0.02822234548
-0.4508381496
-0.03815277312
-0.5366877484
-0.04997416771
-0.6387063208
-0.06406039093
-0.760132077
-0.08084530425
-0.904609963
-0.1008600975
-1.076496905
-0.1247344095
-1.280915305
-0.1532314794
-1.523944292
-0.1872731731
-1.812762123
-0.227987436
-2.155862375
-0.2767438543
-2.56325773
-0.3352177991
-3.046641118
-0.4054764576
-3.619716814
-0.4900748945
-4.298523398
-0.5921770305
-5.101700864
-0.7156888975
-6.050947537
-0.8653712553
-7.171611004
-1.046890111
-8.493536141
-1.266770381
-10.05230879
-1.532265387
-11.89094301
-1.851219959
-14.06193127
-2.232062157
-16.62945907
-2.684027736
-19.67162376
-3.217624326
-23.28274912
-3.845260451
-27.57595131
-4.581907933
-32.68644263
-5.445729706
-38.77560338
-6.458587459
-46.03623977
-7.646464632
-54.69881788
-9.03973394
-65.03914725
-10.67334123
-77.38749305
-12.58678548
-92.13981694
-14.82389577
-109.7714598
-17.43218959
-130.8541497
-20.46162321
-156.0770412
-23.96232991
-186.2729715
-27.98083732
-222.45128
-32.55396605
-265.8391209
-37.69930144
-317.93376
-43.4006171
-380.5692873
-49.58593701
-456.0022837
-56.09491961
-547.0227563
-62.63079246
-657.098828
-68.69011812
-790.5669722
-73.46055839
-952.8839504
-75.67292628
-1150.963132
-73.38802169
-1393.624236
-63.68943782
-1692.21385
-42.24298673
-2061.400241
-2520.382205
-0.0002587280452
-0.04524033252
-0.0005440193283
-0.06456037584
-0.0008501588911
-0.084144936
-0.001088179038
-0.1073199651
-0.001057244337
-0.1362766826
-0.0006544667862
-0.1732484443
-0.001799022227
-0.2170989589
-0.00558810364
-0.2624505987
-0.01073567839
-0.3128789426
-0.01688961522
-0.3725605077
-0.02421928433
-0.443508338
-0.03295807159
-0.5279487965
-0.0433689846
-0.6282952192
-0.05578771251
-0.7477131352
-0.07060349745
-0.8897939391
-0.08829567352
-1.058804464
-0.1094351425
-1.259775551
-0.134715541
-1.498663587
-0.1649781112
-1.78249924
-0.2012561744
-2.119583983
-0.2448172924
-2.519696308
-0.2972255308
-2.994232558
-0.3604383181
-3.55650378
-0.4369060648
-4.222055381
-0.5296890261
-5.008917756
-0.6425724757
-5.938063949
-0.780136451
-7.034046952
-0.94773878
-8.325933771
-1.151396286
-9.848651163
-1.397607639
-11.64473142
-1.693229797
-13.7663088
-2.045541874
-16.27714663
-2.462557074
-19.25460824
-2.953533081
-22.79177269
-3.529574083
-26.99991002
-4.204217373
-32.0117988
-4.993953832
-37.98586666
-5.918657747
-45.11153517
-7.001942539
-53.61553289
-8.271411963
-63.76967711
-9.758829109
-75.90007584
-11.50011956
-90.39852598
-13.53517612
-107.7364034
-15.90728838
-128.4820372
-18.6620161
-153.3223136
-21.84515142
-183.0898359
-25.49930479
-218.7971266
-29.65839919
-261.6800262
-34.3390667
-313.2530925
-39.52749143
-375.3808625
-45.15958947
-450.3701857
-51.09154635
-541.0907994
-57.0564074
-651.133967
-62.60054354
-785.0228361
-66.99132966
-948.4931642
-69.08336058
-1148.871101
-67.12572086
-1395.581876
-58.48443665
-1700.855134
-39.24383223
-2080.640846
-2555.987125
-0.0001742380693
-0.04506608541
-0.000317471572
-0.06441712832
-0.000424899788
-0.08403749519
-0.0003854453834
-0.107359404
1.400440459e-05
-0.1366761096
0.0007228914863
-0.1739572955
-0.0007092700706
-0.2156667426
-0.004191872867
-0.2589679201
-0.008714644197
-0.3083560754
-0.0141110536
-0.3671639835
-0.0205430524
-0.4370762055
-0.0282192293
-0.5202724655
-0.03737052936
-0.6191437433
-0.04829780462
-0.7367856612
-0.06134853919
-0.8767429836
-0.0769523153
-1.043200445
-0.09562348802
-1.241104119
-0.1179890791
-1.476297718
-0.1448173043
-1.755670736
-0.1770613119
-2.087339681
-0.2159062604
-2.480851095
-0.2628437912
-2.947294745
-0.3197691772
-3.499578187
-0.389077968
-4.15274636
-0.4737656032
-4.924229997
-0.577512423
-5.834317022
-0.7047031939
-6.906856095
-0.8603392902
-8.170297578
-1.049855794
-9.659134513
-1.27893224
-11.41565472
-1.55342406
-13.4918167
-1.879526819
-15.95104357
-2.264172224
-18.86996255
-2.715556764
-22.34038784
-3.243689261
-26.47177725
-3.860884408
-31.39460327
-4.582179784
-37.26457103
-5.425690148
-44.2680243
-6.412907328
-52.62831549
-7.568935916
-62.61364798
-8.922653361
-74.54635827
-10.50673511
-88.81444385
-12.35748952
-105.885649
-14.51435656
-126.3251699
-17.01890214
-150.817768
-19.91298472
-180.1957532
-23.23568604
-215.4744252
-27.01835331
-257.8973588
-31.27685401
-308.9945917
-35.99971287
-370.6580036
-41.1302576
-445.2396409
-46.54004583
-535.6810112
-51.98970349
-645.6843093
-57.07165395
-779.9408857
-61.12677578
-944.4380424
-63.12370587
-1146.874171
-61.48489874
-1397.220683
-53.83624445
-1708.503788
-36.64703084
-2097.830059
-2587.916235
-0.0001001411645
-0.04496593602
-0.0001109362393
-0.06440632143
-2.290585275e-05
-0.08412551461
0.000310285953
-0.107692582
0.001104414042
-0.137470217
0.001764605741
-0.1746174549
0.0001184154595
-0.2140205045
-0.003092443948
-0.2557569966
-0.007047899763
-0.3044005403
-0.01176636409
-0.3624454254
-0.01738974386
-0.431452717
-0.02410314433
-0.51355894
-0.03210706604
-0.6111396794
-0.04166547168
-0.7272270954
-0.0530855201
-0.865322758
-0.06674874953
-1.02953702
-0.08312058566
-1.224732075
-0.1027784699
-1.45663961
-0.1264361869
-1.732012797
-0.1550019867
-2.058773643
-0.1896195995
-2.446233275
-0.2317397718
-2.905174342
-0.2832217557
-3.448096041
-0.3464274629
-4.089540465
-0.4242997386
-4.846357618
-0.5204044867
-5.738212202
-0.6388920798
-6.788368392
-0.7843396734
-8.024849845
-0.961523575
-9.481950397
-1.17526077
-11.20191724
-1.430436181
-13.23664097
-1.7322747
-15.64920472
-2.086796759
-18.51544019
-2.501327459
-21.92585683
-2.98496653
-25.98813789
-3.548981686
-30.83058778
-4.207134246
-36.60641821
-4.975967933
-43.49919019
-5.875066569
-51.72921663
-6.927273814
-61.5614403
-8.158852518
-73.3147794
-9.59952572
-87.37377035
-11.2823461
-104.2028286
-13.24326102
-124.3642548
-15.52021582
-148.5408132
-18.15151861
-177.5644502
-21.17308703
-212.4528567
-24.61400077
-254.4564449
-28.48954043
-305.119052
-32.79053185
-366.3570121
-37.46728279
-440.56289
-42.40568387
-530.7426102
-47.39196944
-640.6980237
-52.06115534
-775.2716998
-55.82200851
-940.6771892
-57.7483972
-1144.947783
-56.42254339
-1398.546536
-49.70970151
-1715.21663
-34.43358101
-2113.10618
-2616.434436
-3.569828235e-05
-0.04493023006
6.888475484e-05
-0.06451089364
0.000344142423
-0.08440076199
0.000972030262
-0.1083204565
0.002162185548
-0.1386603523
0.002539857263
-0.174995096
0.0006828173461
-0.2121634209
-0.002161926554
-0.2529121956
-0.005566174783
-0.3009962225
-0.009632764472
-0.3583787541
-0.01448252299
-0.4266028642
-0.02027748961
-0.5077638655
-0.02719275055
-0.6042242966
-0.03546137371
-0.7189583357
-0.04535929745
-0.8554246847
-0.05723159959
-1.017664555
-0.0715089981
-1.210454505
-0.08873171933
-1.439416704
-0.1095802001
-1.711164138
-0.1349376
-2.03341605
-0.1659296763
-2.415241036
-0.2039857731
-2.867118059
-0.2509406334
-3.401141055
-0.3091295283
-4.031351418
-0.3814475985
-4.774039451
-0.4713279615
-5.648331772
-0.5826275339
-6.677068704
-0.7194170419
-7.888060151
-0.885746835
-9.31562037
-1.085566153
-11.00209764
-1.322872028
-12.99933481
-1.602071081
-15.37000538
-1.928454156
-18.18905685
-2.30865023
-21.5456605
-2.751003874
-25.545784
-3.265875388
-30.315716
-3.865890478
-36.0064029
-4.566178079
-42.79890225
-5.384597054
-50.91079745
-6.34194499
-60.60409201
-7.462114608
-72.19460963
-8.772155555
-86.06372915
-10.30217083
-102.6728132
-12.08494697
-122.5814785
-14.15516162
-146.4705984
-16.54793168
-175.17168
-19.29635622
-209.7044321
-22.42753707
-251.325264
-25.95635079
-301.5902382
-29.87589459
-362.4374683
-34.14308829
-436.2956962
-38.65723159
-526.2284669
-43.22836953
-636.1268858
-47.53101686
-770.9690525
-51.03675266
-937.1714533
-52.91663611
-1143.067899
-51.90035899
-1399.562813
-46.07387821
-1721.043111
-32.58753066
-2126.592527
-2641.779957
2.5455204e-05
-0.04495567933
0.0002452273928
-0.06473065594
0.0007278721765
-0.08488339745
0.001668492748
-0.109261065
0.003145495214
-0.1401373367
0.003244945848
-0.1750945196
0.0014419198
-0.2103603573
-0.000956750983
-0.2505134768
-0.003814654154
-0.2981382612
-0.007239480588
-0.3549538594
-0.01133543911
-0.422506827
-0.01625020571
-0.502849009
-0.02214609574
-0.5983283049
-0.02924119762
-0.7118631198
-0.03779320757
-0.8468725499
-0.04811908459
-1.00733854
-0.06061891437
-1.197954533
-0.0758010081
-1.424234455
-0.09431151238
-1.692653486
-0.1170014667
-2.010725934
-0.1449845211
-2.387257852
-0.1797037557
-2.832398673
-0.2230051871
-3.357839525
-0.2772100003
-3.977146488
-0.3451523957
-4.706096949
-0.4300900376
-5.56339404
-0.5355025734
-6.571656038
-0.6648657419
-7.758696778
-0.8214663221
-9.159019526
-1.00843339
-10.81513028
-1.229006855
-12.77876103
-1.486949754
-15.11206218
-1.786996236
-17.88901009
-2.135226006
-21.19743047
-2.539348228
-25.14166154
-3.008922027
-29.84614195
-3.555549534
-35.45977519
-4.193076832
-42.16137465
-4.937798992
-50.16607511
-5.808659313
-59.73323139
-6.827408232
-71.17586055
-8.018676752
-84.87246042
-9.409905947
-101.2815839
-11.03103182
-120.9603525
-12.91379673
-144.5878334
-15.09046466
-172.995012
-17.5916404
-207.2032562
-20.44272961
-248.4741747
-23.65838018
-298.3745875
-27.23395813
-358.8618903
-31.13267731
-432.396977
-35.26642345
-522.0947208
-39.46746213
-631.9258471
-43.44699083
-766.9895238
-46.73481751
-933.8836266
-48.59192797
-1141.210789
-47.88431368
-1400.270428
-42.9016886
-1726.025736
-31.09578083
-2138.398435
-2664.166284
6.369960061e-05
-0.04501937368
0.0003995331812
-0.06506647967
0.001101496758
-0.08558535169
0.002370476263
-0.1105300324
0.003870565466
-0.1416374079
0.003522433055
-0.174746361
0.00194985107
-0.20878774
-3.749638848e-05
-0.2485260849
-0.002394373724
-0.2957813304
-0.005235895277
-0.3521122755
-0.008652066007
-0.4190905846
-0.01277692287
-0.4987240704
-0.01776008824
-0.5933450478
-0.02380401034
-0.7058190953
-0.03114817399
-0.8395282751
-0.04009499456
-0.9983915982
-0.05103328131
-1.187016121
-0.06446767501
-1.410799926
-0.08102100585
-1.67610003
-0.1015142767
-1.990232525
-0.1270490865
-2.361722935
-0.159098419
-2.800349217
-0.199562013
-3.317375854
-0.2507579785
-3.925950443
-0.3154079148
-4.641446908
-0.3965132865
-5.48228856
-0.4970813264
-6.471087843
-0.6199232783
-7.635854613
-0.767576924
-9.011365635
-0.9424557336
-10.6402512
-1.14720563
-12.57401087
-1.385119735
-14.87414781
-1.660523284
-17.61360631
-1.979058747
-20.8788948
-2.347886508
-24.77283358
-2.775844911
-29.41818334
-3.27360363
-34.96201631
-3.853840084
-41.58113794
-4.531429461
-49.48848557
-5.32363772
-58.94102287
-6.250280589
-70.24921754
-7.333810282
-83.78893055
-8.599272196
-100.0161219
-10.0740455
-119.4855791
-11.78724645
-142.8746324
-13.76860682
-171.0136516
-16.04654778
-204.9253151
-18.64504437
-245.875678
-21.57869847
-295.4409333
-24.8451552
-355.5954335
-28.41365509
-428.8284771
-32.20795284
-518.300423
-36.08109476
-628.0527051
-39.77845752
-763.2921611
-42.88392926
-930.7781548
-44.74187573
-1139.352842
-44.34442622
-1400.667877
-40.16972979
-1730.200432
-29.94796749
-2148.620197
-2683.78398
9.186543122e-05
-0.04511123354
0.0005440291497
-0.06551863315
0.001447572208
-0.08648888477
0.003009311156
-0.1120917582
0.004262621482
-0.142890699
0.003566986297
-0.1740506987
0.002159740405
-0.2073804586
0.0004853370887
-0.2468516377
-0.00151549671
-0.2937804444
-0.00393124183
-0.3496964696
-0.006836144296
-0.4161856125
-0.0103435137
-0.4952166221
-0.01457666466
-0.5891118089
-0.01970266568
-0.700692997
-0.02593373519
-0.8332971012
-0.03360698328
-0.9907182371
-0.0431069114
-1.177516079
-0.05493104662
-1.398975669
-0.06974832756
-1.661282639
-0.08842778123
-1.971552951
-0.1120783523
-2.338072274
-0.1421617937
-2.770265672
-0.1806043996
-3.278933178
-0.2297175218
-3.876837258
-0.2920403611
-4.579123971
-0.3702097121
-5.404119068
-0.4666810368
-6.374616357
-0.583582253
-7.51895319
-0.7227773166
-8.872170317
-0.8861124342
-10.47691581
-1.075810648
-12.38431238
-1.294847583
-14.6551106
-1.547251935
-17.36120172
-1.838306532
-20.58783998
-2.174683243
-24.43645667
-2.564561014
-29.02830537
-3.017754824
-34.50882235
-3.545875635
-41.0530169
-4.162511174
-48.87184989
-4.88341195
-58.22012187
-5.726653215
-69.40597615
-6.712731306
-82.8028523
-7.864546027
-98.86430711
-9.20719315
-118.1429319
-10.76745851
-141.3143669
-12.57284203
-169.208268
-14.64987493
-202.8482821
-17.02136479
-243.5041881
-19.70204412
-292.7602539
-22.69187218
-352.6056054
-25.96589519
-425.5544541
-29.4591047
-514.8072135
-33.04406581
-624.467744
-36.49808662
-759.8381403
-39.45539828
-927.8208431
-41.3378153
-1137.470425
-41.25447165
-1400.751221
-37.85803389
-1733.59687
-29.13635158
-2157.34188
-2700.802288
0.0001360044436
-0.04524723196
0.0007248067228
-0.06610742371
0.001830408952
-0.0875944754
0.003587336533
-0.1138486704
0.004489434561
-0.1437927751
0.003725447324
-0.1732866814
0.002523722465
-0.2061786954
0.001083479937
-0.2454113483
-0.0006307201942
-0.2920661888
-0.002696601237
-0.3476305243
-0.005180090147
-0.4137020505
-0.008181897042
-0.4922147331
-0.01181542581
-0.5854781897
-0.01623673948
-0.6962715846
-0.02165443392
-0.8278793026
-0.02834510097
-0.9840274595
-0.03667472027
-1.169186351
-0.04712272616
-1.38852755
-0.06049066787
-1.647914599
-0.07773053129
-1.954312983
-0.1000581514
-2.315744577
-0.1289207097
-2.741403026
-0.1661606669
-3.241693144
-0.2140263311
-3.828971531
-0.2748100334
-4.51834019
-0.3506757248
-5.328253258
-0.4434900079
-6.281801909
-0.5547440377
-7.407698961
-0.6857528698
-8.741161262
-0.8379616707
-10.32470676
-1.013326507
-12.20894731
-1.214623197
-14.45381368
-1.44565976
-17.13016496
-1.711408371
-20.32209119
-2.018093678
-24.1297712
-2.373285566
-28.67311331
-2.786013396
-34.09609439
-3.266916733
-40.57211337
-3.828418482
-48.31034803
-4.484906546
-57.56363361
-5.252895736
-68.63798685
-6.151134208
-81.90461369
-7.200612084
-97.81482915
-8.424400768
-116.9191431
-9.847230179
-139.8915374
-11.49465651
-167.5608416
-13.39160461
-200.9513339
-15.55996399
-241.3358286
-18.01478279
-290.305435
-20.75838436
-349.8620038
-23.77144606
-422.5413923
-26.99966046
-511.5789991
-30.33397651
-621.1334279
-33.58163366
-756.5904832
-36.42388028
-924.9785964
-38.35463483
-1135.539671
-38.59177732
-1400.514078
-35.94990463
-1736.238742
-28.65572835
-2164.636056
-2715.370536
0.0001959393432
-0.04544316524
0.0009491695899
-0.06686064458
0.002299338209
-0.08894463419
0.00408963775
-0.1156389567
0.004378543267
-0.1440816621
0.003661879891
-0.1725699936
0.002723685588
-0.2052404705
0.001599002281
-0.2442866283
0.0002444981725
-0.2907116416
-0.001409356605
-0.3459766198
-0.003427192202
-0.4116841585
-0.005906433556
-0.4897354284
-0.00896437029
-0.5824201834
-0.01276482433
-0.6924710543
-0.01752555456
-0.823118492
-0.02349632017
-0.9780566078
-0.0310638919
-1.161618695
-0.04075778269
-1.37883357
-0.05327044127
-1.635401863
-0.06955733578
-1.938026006
-0.09108139565
-2.294220454
-0.1193979402
-2.713086413
-0.156192184
-3.204898817
-0.2034959953
-3.781667634
-0.2632873836
-4.458548703
-0.3371966355
-5.254343871
-0.4265157138
-6.192482678
-0.5322033796
-7.30201111
-0.6551757987
-8.61818862
-0.7966363813
-10.18324594
-0.9583984519
-12.047185
-1.143117331
-14.26909457
-1.354424701
-16.91885739
-1.597010556
-20.07950516
-1.876682851
-23.85009875
-2.200446575
-28.34934943
-2.576611123
-33.71992974
-3.014934465
-40.13378984
-3.526790435
-47.79849196
-4.125347966
-56.96507591
-4.82573011
-67.93760461
-5.645134512
-81.08520917
-6.602860743
-96.85710284
-7.720198875
-115.8018049
-9.020086868
-138.5916493
-10.52641031
-166.0545181
-12.26275743
-199.2149867
-14.2503476
-239.3482384
-16.50473005
-288.0510525
-19.03066232
-347.3360715
-21.81432335
-419.7577312
-24.81163898
-508.5816835
-27.93097749
-618.0140894
-31.00773008
-753.5137306
-33.7671576
-922.2191689
-35.77051811
-1133.53631
-36.33698453
-1399.947612
-34.43175058
-1738.143976
-28.50338053
-2170.564426
-2727.619461
0.000257765646
-0.04570092375
0.001184984208
-0.06778785147
0.002789262397
-0.0905489
0.004466193897
-0.1173158718
0.00446688768
-0.1440823335
0.003889490159
-0.1719925672
0.003185113452
-0.2045360584
0.002325249403
-0.2434267222
0.00126881317
-0.2896551566
-4.858551267e-05
-0.3446591654
-0.001688600943
-0.4100440807
-0.00374698687
-0.4876769738
-0.00634328109
-0.5798238156
-0.009644340695
-0.6891699167
-0.01387132864
-0.8188914249
-0.01931951363
-0.9726083415
-0.02640325105
-1.154534881
-0.03570144725
-1.369535296
-0.04790618269
-1.62319706
-0.06402756157
-1.921904555
-0.0853180048
-2.272929952
-0.1136305204
-2.684773832
-0.1505980815
-3.167931186
-0.1978277476
-3.734437895
-0.2569039323
-4.399472443
-0.3289420339
-5.182305671
-0.4147181288
-6.106706439
-0.5147970763
-7.201931992
-0.6298495688
-8.503135936
-0.7609692699
-10.05212604
-0.9099130357
-11.89824104
-1.079260252
-14.09974716
-1.272487863
-16.72562961
-1.494020152
-19.85797273
-1.749273941
-23.59484483
-2.044732181
-28.05389106
-2.388047634
-33.3766142
-2.788183483
-39.73365384
-3.255575917
-47.33109945
-3.802308297
-56.41834338
-4.442273772
-67.29763905
-5.191302367
-80.33618047
-6.067211976
-95.98119316
-7.08974393
-114.7792729
-8.280291469
-137.4011017
-9.661331976
-164.6734775
-11.2553786
-197.62094
-13.08322373
-237.5203932
-15.16110745
-285.9731687
-17.4963114
-345.0008676
-20.08042601
-417.1736166
-22.87922992
-505.7828796
-25.81766699
-615.0756523
-28.75769389
-750.5737038
-31.46596147
-919.5109012
-33.56676706
-1131.435504
-34.47390028
-1399.040478
-33.29295395
-1739.324923
-28.67897897
-2175.178401
-2737.662313
0.0003131726085
-0.04601409185
0.001406649478
-0.06888132136
0.003154645803
-0.09229688875
0.0045612066
-0.1187224226
0.004497432528
-0.1440185463
0.004030842859
-0.1715259609
0.003470440759
-0.2039756361
0.002780137791
-0.2427363952
0.001928547569
-0.2888035384
0.0008559486104
-0.3435865342
-0.0005020354762
-0.4086860599
-0.002239277892
-0.4859396901
-0.004480235925
-0.5775828122
-0.007401216089
-0.6862488867
-0.01124402577
-0.8150485629
-0.01633708811
-0.9675152232
-0.02313379912
-1.147738116
-0.03223552591
-1.360433511
-0.04446747828
-1.610965055
-0.06091523183
-1.905456741
-0.08276375772
-2.251081367
-0.1115503103
-2.655987224
-0.1490974844
-3.130383922
-0.1965088065
-3.687026467
-0.2549043239
-4.341076825
-0.32495339
-5.112256488
-0.4070130334
-6.024646664
-0.501404891
-7.107539979
-0.6086916044
-8.395849035
-0.7299510884
-9.930866352
-0.8669334934
-11.76125844
-1.022160649
-13.94451981
-1.198962338
-16.54882776
-1.401509044
-19.65542588
-1.634851591
-23.36150217
-1.904993673
-27.78374886
-2.218995083
-33.06261271
-2.585108354
-39.36754043
-3.012937878
-46.90326985
-3.513610237
-55.91767088
-4.09994042
-66.71130879
-4.786564375
-79.64955642
-5.590018565
-95.17773891
-6.528710514
-113.8405809
-7.62273101
-136.3070812
-8.893398926
-163.4028095
-10.36240795
-196.1519309
-12.05036115
-235.83244
-13.97438837
-284.0491415
-16.14440362
-342.8308523
-18.55736047
-414.7606597
-21.18858689
-503.1516532
-23.97886058
-612.2853785
-26.8153664
-747.737198
-29.50376778
-916.8224998
-31.72761491
-1129.211657
-32.9893362
-1397.778757
-32.52574664
-1739.788512
-29.18459417
-2178.519553
-2745.595885
0.0004203866293
-0.04643447265
0.001685408986
-0.07014633295
0.003430660028
-0.09404212833
0.004192024754
-0.1194837727
0.004010120422
-0.1438366229
0.003659697038
-0.1711755139
0.00324500474
-0.2035609156
0.002717171602
-0.2422085292
0.002048601033
-0.2881349302
0.001181504877
-0.3427193957
5.060747362e-05
-0.407555116
-0.001440245137
-0.4844487873
-0.003419375937
-0.5756036289
-0.006066900747
-0.6836013077
-0.009654225488
-0.8114611847
-0.0145817361
-0.9625876592
-0.02135769585
-1.140962106
-0.03064961907
-1.351141537
-0.04330304147
-1.598311584
-0.06039974689
-1.888359975
-0.08326313478
-2.22821791
-0.1130770709
-2.626173219
-0.1513466813
-3.092114264
-0.1989691593
-3.639403931
-0.2565327602
-4.283513154
-0.324338876
-5.044450288
-0.4024650869
-5.946520331
-0.4911281181
-7.018876807
-0.5908879002
-8.296089094
-0.702861396
-9.818892686
-0.8288120783
-11.63530761
-0.9712068124
-13.80212492
-1.133230061
-16.38680438
-1.318809808
-19.46984602
-1.532657991
-23.14765389
-1.780344048
-27.5360627
-2.068397762
-32.77455894
-2.40444344
-39.03149463
-2.797355433
-46.5103578
-3.2574276
-55.4575986
-3.796538368
-66.17219796
-4.428298119
-79.01779658
-5.168146969
-94.43789
-6.033372164
-112.9753557
-7.042987497
-135.2974658
-8.217398037
-162.2283989
-9.577726695
-194.7916022
-11.14462654
-234.2655401
-12.93631969
-282.2574483
-14.9654815
-340.8016905
-17.23442193
-412.4917192
-19.72777218
-500.658303
-22.40155628
-609.6115944
-25.16698393
-744.9717703
-27.86669808
-914.1227856
-30.24010352
-1126.838252
-31.87295898
-1396.145902
-32.12511466
-1739.536356
-30.02459541
-2180.620072
-2751.501394
0.0006083364074
-0.04704280589
0.00202739871
-0.07156538697
0.003681423263
-0.09569614437
0.004126974075
-0.1199293129
0.003972444712
-0.14368208
0.00371665396
-0.1709197064
0.003406775326
-0.2032510169
0.002987354719
-0.2417890851
0.002427356813
-0.2875749052
0.001667242046
-0.3419592501
0.0006370349196
-0.4065248742
-0.0007683479259
-0.4830433663
-0.002693375034
-0.5736785609
-0.005341207411
-0.6809534325
-0.009003989183
-0.8077983596
-0.01407873995
-0.9575128654
-0.02112595779
-1.133914846
-0.03094042614
-1.341327025
-0.04442387598
-1.584828086
-0.06260661475
-1.870177177
-0.08669227544
-2.204132159
-0.1178252397
-2.595040164
-0.1568035435
-3.053135866
-0.2044770397
-3.59173034
-0.2609176262
-4.227072479
-0.3261650368
-4.979202778
-0.4001722628
-5.872512992
-0.4831545955
-6.935894347
-0.5757346248
-8.203508912
-0.6790910414
-9.715536108
-0.7950021875
-11.51939631
-0.9258745706
-13.67125239
-1.074748782
-16.23793004
-1.245324801
-19.2992699
-1.442005621
-22.95097298
-1.669972961
-27.30809526
-1.935289832
-32.50924201
-2.24503301
-38.72175135
-2.6074453
-46.14794546
-3.032104713
-55.03293908
-3.530091543
-65.67421108
-4.114148745
-78.4337393
-4.798801081
-93.75323761
-5.60041559
-112.1737411
-6.537151364
-134.3607299
-7.628735477
-161.1368148
-8.895964643
-193.5243729
-10.35978211
-232.8017226
-12.03971491
-280.5775154
-13.9513477
-338.8900577
-16.10237763
-410.3406893
-18.48657597
-498.2741047
-21.07470409
-607.0234663
-23.80100573
-742.2454687
-26.54330072
-911.3804906
-29.09389933
-1124.287653
-31.11716679
-1394.122634
-32.08867417
-1738.564849
-31.20568377
-2181.503063
-2755.44527
0.0008335542235
-0.04787635433
0.002315637312
-0.07304745938
0.00378911419
-0.09716960983
0.004186192286
-0.1203263768
0.004035239393
-0.1435311095
0.003819459062
-0.1707039048
0.003548985373
-0.2029805182
0.003168759437
-0.2414088305
0.002644557087
-0.2870506707
0.00191205013
-0.3412267078
0.0008893513592
-0.4055021374
-0.0005426653696
-0.4816113097
-0.00255262493
-0.5716685605
-0.005379449186
-0.6781265681
-0.00935074455
-0.8038270246
-0.01489519659
-0.9519683756
-0.02261165533
-1.126198347
-0.03327256141
-1.330666075
-0.04790974179
-1.57019085
-0.06748115531
-1.850605688
-0.09300053707
-2.178612694
-0.1253799076
-2.56266071
-0.1649807924
-3.013534934
-0.2123719605
-3.544339131
-0.2673164827
-4.172127896
-0.3297103845
-4.916808804
-0.3995013966
-5.802721875
-0.4769675759
-6.858428053
-0.5628250347
-8.117651324
-0.6583159517
-9.620045053
-0.7652249696
-11.41248717
-0.8858922592
-13.55058498
-1.023218782
-16.10060341
-1.180694758
-19.14179384
-1.362447431
-22.76922023
-1.573318783
-27.09722383
-1.818968561
-32.26359219
-2.10600448
-38.43471534
-2.442133697
-45.81181621
-2.836330009
-54.63874267
-3.299010039
-65.211531
-3.842199392
-77.89054988
-4.479681131
-93.11575583
-5.227097729
-111.4263245
-6.10196771
-133.4858599
-7.123573131
-160.1152093
-8.312626347
-192.3353197
-9.690602723