/*--------------------------------*- C++ -*----------------------------------*\
  =========                 |
  \\      /  F ield         | OpenFOAM: The Open Source CFD Toolbox
   \\    /   O peration     | Website:  https://openfoam.org
    \\  /    A nd           | Version:  12
     \\/     M anipulation  |
\*---------------------------------------------------------------------------*/
FoamFile
{
    format      ascii;
    class       volScalarField;
    location    "200";
    object      rho;
}
// * * * * * * * * * * * * * * * * * * * * * * * * * * * * * * * * * * * * * //

dimensions      [1 -3 0 0 0 0 0];

internalField   nonuniform List<scalar> 
16200
(
1.011011713
1.011277406
1.012142911
1.013589319
1.015512664
1.018343529
1.024779463
1.038833905
1.049635631
1.051966589
1.052492909
1.052897441
1.053236806
1.05381215
1.054627294
1.055670129
1.056933027
1.058440457
1.060228948
1.062358313
1.06487791
1.067825572
1.071255188
1.075225256
1.079777193
1.084933902
1.090694051
1.097012523
1.103792722
1.110881199
1.118073496
1.125138722
1.131850903
1.138022308
1.143523277
1.148286272
1.152303256
1.155606613
1.158262347
1.160350125
1.161960482
1.163179495
1.164088629
1.164757072
1.165243456
1.165594203
1.165845504
1.16602448
1.166151624
1.166241492
1.16630486
1.166349469
1.166380628
1.166402448
1.16641668
1.166426873
1.166430068
1.166438207
1.166425098
1.16644359
1.005568134
1.005961245
1.006961412
1.008544505
1.010753156
1.014370801
1.022697007
1.037936132
1.045771856
1.047161647
1.047757093
1.04824039
1.048666089
1.049333323
1.050255082
1.051427519
1.052844161
1.05453204
1.056527662
1.058894694
1.061689913
1.064955737
1.068745407
1.073119156
1.078114091
1.083744825
1.089992241
1.096787602
1.104001314
1.111443777
1.118881602
1.126069237
1.132787193
1.138872505
1.144229766
1.148829655
1.152689457
1.155861928
1.158417024
1.160436099
1.162002171
1.163196212
1.164092401
1.164755683
1.165240914
1.165592269
1.165844766
1.16602492
1.166152903
1.166243379
1.166307114
1.166351848
1.166382945
1.166404481
1.166418602
1.166428479
1.166431563
1.166439141
1.166425626
1.166443316
1.001095813
1.001638565
1.002791232
1.004550497
1.007101219
1.011791931
1.022641068
1.037211077
1.042363074
1.043290786
1.043922796
1.044494002
1.045003483
1.04576302
1.04679348
1.048096147
1.049668175
1.05154144
1.053753919
1.056372944
1.059462551
1.063068198
1.067241687
1.072040886
1.077497454
1.083612368
1.090344606
1.097593659
1.105191566
1.112911308
1.120493422
1.127687813
1.13429259
1.140180413
1.145297222
1.149651551
1.153288294
1.156275922
1.158688878
1.160606115
1.162103417
1.163253965
1.164124051
1.164772771
1.165250324
1.165597974
1.165848802
1.166028367
1.16615609
1.166246421
1.166310032
1.166354552
1.166385466
1.166406712
1.166420653
1.166430114
1.166433124
1.166440194
1.166426481
1.16644389
0.9974386409
0.9981489636
0.9994621609
1.001442848
1.004460687
1.010454008
1.024139187
1.036231646
1.039410194
1.040193157
1.040896098
1.041553529
1.042159901
1.043029007
1.044188902
1.045645448
1.047400501
1.049489557
1.051952598
1.054858179
1.058276322
1.062255324
1.066844605
1.072099018
1.078041747
1.084655317
1.091868876
1.09954175
1.107461724
1.115364418
1.122972491
1.130043663
1.136407799
1.141982353
1.146759771
1.15078654
1.154133306
1.156881335
1.159107702
1.160887046
1.162286972
1.163371633
1.164198654
1.164820166
1.165280858
1.165618297
1.165862897
1.166038624
1.166163903
1.166252601
1.166315031
1.166358656
1.166388869
1.166409498
1.166423024
1.166431993
1.166434756
1.166441323
1.16642729
1.166444266
0.9946527784
0.9955393003
0.9970390598
0.9993306282
1.00304781
1.010825836
1.026536306
1.035320804
1.037181855
1.037957684
1.03873733
1.039492375
1.040208821
1.041202883
1.04250892
1.04413658
1.046090951
1.04841355
1.051146968
1.05436055
1.058130427
1.062509002
1.067543445
1.073281972
1.079732837
1.086850472
1.094523816
1.102564042
1.110712751
1.118674721
1.126168677
1.132977091
1.138975288
1.144133166
1.148490578
1.152128735
1.155139417
1.157612219
1.159623858
1.161242555
1.162526815
1.16353096
1.164303529
1.164889119
1.1653265
1.165649007
1.165884037
1.166053605
1.16617483
1.166260801
1.166321323
1.166363567
1.166392764
1.166412589
1.166425547
1.166433961
1.16643642
1.166442498
1.166428143
1.166444794
0.9927437856
0.9938087122
0.9955099654
0.9981753558
1.002838177
1.013119732
1.028891437
1.034608067
1.035737833
1.036563565
1.037418628
1.038278397
1.039111351
1.040236939
1.041697543
1.043506896
1.045675088
1.048249812
1.051278395
1.054833965
1.058996153
1.063821062
1.069346599
1.075606802
1.082585739
1.090199415
1.09828744
1.106608751
1.114862934
1.122737013
1.129964342
1.136370036
1.141886307
1.146539065
1.150412805
1.153617795
1.156260772
1.158434883
1.160213282
1.161656051
1.162811822
1.163724744
1.164434146
1.164976892
1.165385645
1.165689228
1.165911775
1.166073086
1.16618879
1.166271013
1.166328928
1.166369324
1.166397183
1.166416002
1.166428246
1.16643604
1.166438123
1.166443714
1.166429004
1.166445362
0.9915252508
0.9927820935
0.9947461187
0.9978618708
1.003721132
1.017029204
1.030684279
1.034197104
1.034951589
1.035848178
1.036788771
1.037756808
1.038722668
1.039997921
1.041636784
1.043657399
1.046075129
1.048946701
1.052322435
1.056277461
1.060895418
1.066224096
1.072286593
1.07909423
1.08659902
1.094670653
1.103093034
1.11157313
1.119779533
1.127400494
1.134205109
1.140077172
1.145012799
1.149092695
1.152439658
1.155185386
1.157444723
1.159309559
1.160846527
1.162106182
1.163126825
1.163942436
1.164583293
1.165078632
1.16545506
1.165736823
1.165944698
1.166096143
1.16620517
1.166282832
1.16633758
1.166375746
1.166402013
1.166419664
1.166431079
1.166438199
1.166439859
1.166444969
1.166429887
1.166446007
0.9908312311
0.9923465988
0.9946394356
0.9983722718
1.005898725
1.021745309
1.032115668
1.034011823
1.034715459
1.035707576
1.036760317
1.037871446
1.039007741
1.040481782
1.04235331
1.044647134
1.047378802
1.050606685
1.054392071
1.058799982
1.06391416
1.069780666
1.07640048
1.08375315
1.091748703
1.100202994
1.108841222
1.11732401
1.125306491
1.132502003
1.138735703
1.143961566
1.148240773
1.151702891
1.154500101
1.156777019
1.158649931
1.160205203
1.161500571
1.162576142
1.163459771
1.164175557
1.164745114
1.165190374
1.165532101
1.165790056
1.165981682
1.166122055
1.166223514
1.166295971
1.166347101
1.166382727
1.16640719
1.166423538
1.16643403
1.166440428
1.166441628
1.16644626
1.166430786
1.166446716
0.9909464561
0.9927251603
0.9953881909
0.9999502319
1.009946107
1.026644295
1.033400191
1.034659727
1.035309932
1.036412085
1.037596186
1.038873804
1.040213289
1.041919991
1.044060219
1.046663985
1.04974447
1.053367597
1.057593
1.062477423
1.068103586
1.074512191
1.081681865
1.089550597
1.097970633
1.106694719
1.115393408
1.123695482
1.131266298
1.137869538
1.143403047
1.147895625
1.151468782
1.154291323
1.156534527
1.158347535
1.159842211
1.16109598
1.162156004
1.163051506
1.163800093
1.164416503
1.164914236
1.165308385
1.165614217
1.165847209
1.166021584
1.16615007
1.166243331
1.166310115
1.16635729
1.166390139
1.166412638
1.166427576
1.166437072
1.166442711
1.166443423
1.166447587
1.166431704
1.166447496
0.9926861695
0.9946221489
0.9977108142
1.003307959
1.016408151
1.031602885
1.035703242
1.036320783
1.037186568
1.038394585
1.03969906
1.04111739
1.042616997
1.044505049
1.046866828
1.049751458
1.053172285
1.05719279
1.06188075
1.067275485
1.07344036
1.080394646
1.088089677
1.0964186
1.105164481
1.114008408
1.122579273
1.130500231
1.137473975
1.143336625
1.148068388
1.151770295
1.154614322
1.156796747
1.158497613
1.159863129
1.160996077
1.161962514
1.162798078
1.163521118
1.164139461
1.164659152
1.16508624
1.165429538
1.165699232
1.165906797
1.166063404
1.166179525
1.166264188
1.166324984
1.16636797
1.166397874
1.166418289
1.16643174
1.166440185
1.166445037
1.166445239
1.166448951
1.16643264
1.166448342
0.9951516145
0.9973523455
1.001081702
1.008205371
1.024321218
1.036363817
1.038472522
1.039338
1.040243264
1.041522081
1.042923195
1.044462262
1.04611119
1.048170936
1.050751753
1.053906868
1.057651888
1.062048205
1.067194623
1.073125596
1.079869956
1.087389094
1.09557226
1.104265831
1.113195943
1.12197383
1.130204784
1.137541093
1.143749638
1.148752752
1.152614355
1.155498556
1.15761475
1.15917443
1.160357086
1.161299995
1.162093529
1.162790936
1.163416024
1.163976634
1.164471481
1.16489869
1.165257571
1.16555126
1.165785321
1.165967547
1.166106272
1.166209834
1.166285696
1.166340326
1.166378979
1.166405829
1.166424082
1.166435993
1.166443352
1.166447395
1.166447074
1.166450361
1.166433596
1.166449253
0.9977018788
1.000215989
1.00474717
1.01410881
1.031850307
1.040350051
1.041332928
1.042243572
1.043334377
1.044810772
1.046449287
1.048266597
1.050248295
1.05269323
1.055689921
1.059161551
1.063253053
1.068055641
1.073647234
1.080071527
1.087364752
1.095435376
1.104052993
1.112973857
1.121895545
1.13039155
1.138063592
1.144625361
1.14993048
1.153991547
1.156949012
1.159016579
1.160426746
1.161394885
1.162092332
1.162643092
1.163123093
1.163572191
1.164002581
1.164412235
1.164791548
1.165131538
1.16542551
1.165671533
1.16587102
1.16602842
1.166149463
1.166240503
1.166307525
1.166355923
1.166390176
1.166413917
1.166429964
1.166440304
1.166446553
1.166449775
1.166448933
1.166451809
1.166434568
1.166450228
1.000748148
1.003661623
1.009189826
1.021562288
1.038638736
1.043961237
1.044634998
1.04568963
1.046932222
1.048587476
1.050436817
1.052504523
1.054786477
1.057577805
1.060980799
1.065037453
1.069779484
1.07527167
1.081366967
1.088239584
1.095953595
1.104451145
1.113400229
1.12238119
1.131061619
1.139043557
1.145950802
1.151578217
1.155880351
1.158955546
1.161007105
1.162282683
1.163024263
1.163441635
1.163692376
1.163884488
1.164078543
1.164301104
1.164553344
1.164824182
1.165096548
1.165355174
1.165588071
1.165788839
1.165955196
1.166088595
1.166192396
1.166271127
1.1663294
1.166371591
1.166401443
1.16642206
1.166435887
1.166444645
1.166449776
1.166452171
1.166450812
1.166453256
1.166435555
1.166451269
1.004566511
1.008064446
1.014952253
1.030432621
1.044767853
1.048040796
1.048816535
1.050043011
1.051459245
1.053312792
1.055398301
1.057743738
1.060353691
1.063518425
1.067346906
1.07187089
1.077120774
1.083147771
1.089998839
1.097598556
1.105663333
1.114358503
1.123424738
1.132273872
1.14047501
1.147713231
1.153678626
1.15825301
1.161494783
1.163576951
1.16474808
1.165274329
1.165395461
1.165308527
1.165153728
1.165021721
1.164957692
1.164975501
1.165066144
1.165210395
1.165384586
1.165567951
1.165743888
1.165902087
1.166037013
1.166147446
1.166234616
1.166301386
1.166351098
1.166387182
1.166412681
1.166430197
1.166441814
1.166448993
1.166453008
1.166454575
1.166452701
1.16645465
1.166436558
1.166452382
1.009558011
1.013852769
1.022714137
1.04050341
1.051773482
1.053415011
1.054204335
1.055573973
1.057139848
1.059172882
1.061484308
1.064093201
1.06701254
1.070526542
1.074762014
1.07976354
1.085545631
1.092139129
1.099517057
1.107602391
1.116309281
1.125063697
1.133927237
1.142406685
1.149914382
1.156204324
1.161088556
1.164537285
1.166702357
1.16781572
1.168152828
1.167984601
1.167539555
1.166997188
1.166478419
1.166056325
1.165761302
1.165595424
1.165540489
1.16557006
1.16565471
1.16576892
1.1658921
1.166010546
1.166115879
1.166204516
1.166275781
1.166331031
1.166372444
1.166402574
1.166423809
1.166438276
1.166447711
1.166453328
1.166456237
1.166456984
1.166454597
1.166455978
1.166437572
1.166453569
1.015080362
1.020491288
1.031885496
1.050265217
1.057921683
1.059350639
1.060306443
1.061885045
1.063683764
1.065967393
1.068536055
1.071437565
1.07469581
1.078588468
1.083251803
1.088726817
1.095020529
1.102151872
1.110044339
1.118529085
1.127394587
1.136336248
1.144720442
1.152553164
1.15917187
1.164349346
1.168057888
1.170354238
1.171462222
1.17165534
1.171219115
1.170418219
1.169463659
1.168514631
1.167672245
1.166992549
1.166492162
1.166162465
1.165977087
1.16590329
1.165906682
1.165957667
1.16603224
1.166113772
1.166191408
1.16625949
1.166315647
1.166359879
1.166393308
1.166417676
1.166434765
1.166446254
1.166453552
1.166457636
1.166459455
1.166459392
1.166456502
1.166457299
1.166438599
1.166454823
1.020928058
1.027809281
1.041859503
1.058770628
1.064274382
1.065636813
1.066804264
1.068607407
1.070657725
1.07324111
1.07618227
1.079507941
1.083258859
1.087700939
1.092908082
1.098843531
1.105591676
1.113163968
1.12146079
1.130218773
1.139105446
1.147764726
1.155621174
1.162520854
1.16806011
1.17201539
1.174502485
1.175660672
1.175759786
1.175097969
1.173957283
1.1725881
1.171180186
1.169871365
1.168743395
1.167836369
1.167154368
1.16667924
1.166377461
1.16621085
1.166140777
1.16613418
1.166164145
1.166211543
1.166263374
1.166312168
1.166354049
1.166387803
1.166413591
1.166432418
1.1664455
1.1664541
1.166459316
1.166461903
1.166462656
1.166461795
1.166458418
1.166458681
1.166439658
1.166456141
1.027904723
1.036486051
1.052878308
1.068054635
1.07149702
1.072869409
1.074254069
1.076284744
1.078596066
1.081479585
1.084767208
1.088484295
1.092678894
1.097604094
1.103357639
1.109940298
1.117257689
1.125152157
1.133651757
1.142483514
1.151159088
1.159251386
1.166408852
1.172121416
1.176424774
1.179108139
1.18037578
1.180442342
1.179600876
1.178159208
1.176386046
1.174512247
1.172704641
1.171079837
1.169701358
1.168594707
1.167752757
1.167148976
1.166743645
1.166493934
1.166357623
1.166298726
1.166287875
1.166303808
1.16633168
1.166362439
1.166390883
1.166414715
1.166433228
1.166446749
1.166455978
1.166461788
1.166464987
1.166466118
1.166465833
1.166464191
1.166460337
1.166460131
1.166440764
1.166457524
1.03611437
1.046421223
1.064403833
1.077535857
1.079445706
1.080954087
1.082568997
1.084848837
1.087449914
1.090659196
1.094328762
1.098468916
1.103134833
1.108560474
1.114827271
1.12189084
1.129663915
1.137995498
1.146489779
1.155106304
1.163310205
1.170611906
1.176790445
1.181184976
1.184163991
1.185574822
1.185663574
1.184707763
1.183006073
1.180863577
1.178529209
1.176211441
1.174054022
1.172153333
1.170556149
1.169274875
1.168292501
1.167575208
1.167077965
1.166753999
1.166558078
1.166451771
1.166403647
1.166390638
1.166396319
1.166410262
1.166426099
1.166440565
1.166452174
1.166460636
1.166466173
1.166469301
1.166470552
1.166470274
1.16646898
1.166466577
1.166462253
1.166461605
1.166441921
1.166458968
1.045607916
1.057574952
1.076019537
1.086172666
1.088160191
1.08989801
1.091774688
1.094339175
1.097268133
1.100842699
1.104924149
1.109511764
1.114658941
1.120572757
1.127308904
1.134784385
1.142849954
1.151286753
1.159761831
1.16786043
1.175305836
1.181585146
1.186461203
1.189600044
1.191226256
1.191397837
1.190376239
1.188481605
1.186005369
1.183240608
1.180412932
1.177707416
1.175245614
1.17310516
1.171317748
1.169884179
1.168778819
1.167961565
1.167382867
1.166992638
1.166743135
1.166593901
1.166511784
1.166472194
1.166457356
1.166455649
1.166459683
1.166465331
1.166470406
1.166474057
1.166476069
1.166476624
1.166476002
1.166474363
1.166472095
1.166468948
1.166464187
1.166463078
1.166443134
1.166460472
1.056534836
1.069912776
1.087489725
1.096281682
1.097858737
1.099869105
1.102025062
1.104890789
1.108165454
1.11211559
1.116617805
1.121648088
1.127251841
1.133604384
1.140725396
1.148479845
1.156661189
1.164990299
1.173120118
1.180485844
1.186920199
1.191987304
1.195484997
1.197297114
1.197592906
1.196587275
1.194541964
1.191798989
1.188634064
1.185322037
1.182063927
1.179021693
1.17629623
1.173948153
1.171995758
1.170429669
1.169216784
1.16831162
1.167660805
1.167211487
1.166913854
1.166725774
1.166612675
1.166548693
1.1665149
1.166498648
1.166491649
1.16648901
1.166487913
1.166487
1.166485653
1.166483748
1.166481329
1.166478382
1.166475174
1.166471304
1.166466145
1.166464551
1.16644441
1.166462034
1.068851947
1.083552299
1.100313263
1.107124589
1.108637631
1.110932159
1.113372907
1.116544116
1.120167544
1.124491699
1.129396299
1.134838354
1.1408439
1.147548723
1.154929957
1.162795009
1.170876787
1.178839402
1.186266718
1.192743342
1.197965278
1.201684346
1.203758395
1.204245624
1.203272759
1.20117326
1.198200351
1.194700658
1.190929393
1.187139626
1.183508082
1.180174737
1.177221692
1.17469433
1.172599171
1.170917972
1.169611202
1.168628792
1.167914163
1.167412168
1.167071304
1.166848077
1.166706747
1.166620387
1.166569095
1.166539335
1.166522032
1.166511615
1.166504698
1.166499461
1.166494921
1.166490669
1.166486528
1.166482326
1.166478213
1.166473644
1.166468116
1.166466021
1.166445758
1.166463645
1.082404956
1.098146424
1.114011346
1.118894611
1.120467307
1.123037347
1.125769409
1.129247712
1.133214717
1.13789532
1.14317455
1.148978209
1.155305515
1.16224748
1.169730706
1.177503785
1.185245776
1.192578075
1.199071574
1.204434878
1.208295304
1.210590165
1.211249889
1.210451431
1.208296964
1.205199443
1.20139725
1.197229354
1.192928305
1.188723839
1.184769712
1.181185531
1.178036577
1.175354742
1.173136264
1.171355212
1.169966542
1.168916291
1.168145202
1.167596242
1.16721654
1.166961502
1.166794441
1.166687549
1.166620103
1.166577802
1.166550881
1.166533169
1.166520769
1.166511443
1.166503871
1.166497383
1.166491597
1.166486193
1.166481211
1.166475966
1.166470102
1.166467488
1.166447185
1.166465296
1.097111135
1.113539396
1.126954557
1.131543863
1.133273595
1.13610237
1.139126365
1.142905346
1.147206642
1.152221094
1.15783421
1.163933303
1.17047907
1.177510949
1.184904289
1.19235514
1.199503729
1.20595589
1.21131193
1.215402018
1.217809048
1.218661866
1.21795728
1.215945999
1.212711647
1.208716621
1.204180774
1.199427296
1.194665954
1.190103009
1.185871112
1.182071341
1.178754097
1.175939401
1.173614553
1.171746973
1.170286904
1.169177085
1.168356035
1.167765185
1.16735057
1.167066723
1.166876195
1.166750458
1.166668095
1.16661415
1.166578255
1.166553703
1.166536142
1.166522951
1.166512504
1.166503888
1.166496532
1.16648998
1.166484165
1.166478269
1.1664721
1.166468947
1.166448699
1.166466978
1.112593762
1.129064033
1.141058326
1.144957295
1.146939555
1.150035701
1.153366497
1.157449815
1.162073773
1.167390602
1.173272076
1.179567266
1.186189596
1.193125785
1.20020585
1.207088328
1.213396964
1.218752257
1.222815682
1.22552254
1.226455156
1.225897931
1.223911972
1.220778545
1.21657191
1.211777996
1.206598164
1.201334464
1.196174823
1.191302908
1.186832377
1.182847655
1.179386086
1.176457283
1.174040796
1.172098302
1.170576014
1.16941389
1.168548613
1.167920372
1.167474346
1.167164384
1.166952437
1.16680939
1.166713247
1.166648486
1.166604216
1.166573254
1.166550835
1.166533994
1.166520822
1.166510185
1.166501333
1.166493685
1.166487072
1.166480552
1.16647411
1.166470397
1.16645031
1.166468684
1.128791263
1.144866624
1.15577683
1.159289782
1.16156206
1.164908213
1.16853329
1.17288993
1.177784043
1.183323531
1.189366053
1.195710926
1.202225737
1.208847313
1.215373941
1.221447205
1.226699064
1.230789674
1.233456069
1.234706756
1.234227644
1.232329152
1.229162361
1.225006731
1.219935185
1.214435895
1.208694059
1.202987609
1.197484262
1.192346575
1.187671365
1.183528208
1.179943039
1.176916365
1.17442102
1.172413716
1.170837228
1.16962917
1.168724717
1.168063071
1.167588754
1.167255094
1.167023576
1.166864614
1.166755729
1.166680919
1.166628831
1.16659186
1.166564871
1.166544584
1.166528832
1.166516275
1.166505999
1.166497306
1.166489931
1.166482816
1.166476131
1.166471835
1.166452025
1.166470404
1.145974334
1.16191446
1.171374676
1.174648852
1.17717956
1.18072811
1.184594762
1.189156103
1.194228842
1.199873343
1.205924627
1.21213915
1.218335267
1.224410607
1.230150326
1.235202174
1.239227912
1.24194366
1.243166451
1.242983141
1.241153132
1.238007577
1.23376873
1.228692622
1.222857874
1.216739991
1.210509623
1.204419899
1.198620459
1.193254428
1.188403848
1.184125121
1.180434232
1.177323716
1.174760584
1.172697251
1.171073559
1.169825146
1.168885966
1.168194444
1.167694613
1.167339418
1.167089995
1.166916384
1.166795709
1.166711554
1.166652165
1.16660956
1.166578271
1.166554732
1.166536538
1.16652216
1.166510529
1.166500844
1.166492739
1.166485059
1.16647816
1.16647326
1.166453852
1.166472131
1.164153819
1.180201351
1.187717045
1.190876294
1.19364074
1.197351135
1.201398161
1.20608163
1.211219451
1.216818191
1.22270183
1.228585971
1.234246741
1.239554911
1.244303268
1.248167898
1.250855417
1.252144724
1.251932154
1.250376542
1.24728125
1.242997149
1.23779612
1.231898634
1.225394081
1.218735939
1.212081835
1.205660746
1.199606453
1.194044351
1.189043633
1.184649007
1.180867803
1.177685558
1.175064225
1.172952492
1.171287696
1.170003817
1.169033823
1.168315546
1.167792672
1.16741788
1.167152055
1.166964944
1.166833346
1.166740495
1.166674282
1.166626394
1.16659106
1.166564451
1.166543946
1.166527841
1.166514924
1.166504296
1.166495493
1.16648728
1.166480194
1.166474674
1.166455797
1.166473853
1.183296668
1.199160964
1.204880729
1.207938487
1.210855795
1.214627482
1.218740446
1.223429233
1.228498121
1.233891839
1.239419727
1.24477312
1.249695244
1.254045556
1.257643662
1.260211195
1.261506485
1.261371656
1.259779537
1.256944329
1.252676276
1.247366348
1.241309772
1.23468392
1.227593656
1.220464658
1.21344347
1.206735886
1.200462306
1.194731894
1.189602718
1.185109115
1.181250864
1.178007348
1.175336116
1.173182611
1.17148203
1.170166967
1.169169604
1.168427332
1.167883616
1.167490961
1.167210087
1.167010518
1.16686879
1.166767838
1.166695247
1.166642401
1.166603259
1.166573754
1.166551065
1.166533323
1.166519183
1.166507661
1.166498193
1.16648948
1.16648223
1.166476081
1.166457865
1.166475548
1.202944157
1.217961439
1.222657348
1.225703015
1.228661561
1.232353063
1.236375987
1.240914933
1.245773767
1.250807549
1.255802837
1.26044212
1.264453714
1.26769829
1.270039111
1.271255741
1.271157238
1.269644481
1.266762251
1.262755007
1.257410582
1.251183557
1.244372045
1.237102671
1.229501634
1.221962117
1.214623078
1.207667773
1.201205459
1.195330572
1.190091552
1.185513515
1.181589646
1.178293887
1.175579941
1.173390421
1.171658692
1.170316192
1.169294491
1.168530668
1.167968066
1.167559102
1.167264397
1.167053316
1.166902183
1.166793678
1.166715117
1.166657619
1.166614892
1.166582654
1.166557899
1.166538606
1.166523308
1.166510938
1.166500835
1.166491659
1.166484262
1.166477479
1.166460055
1.166477188
1.222868447
1.236857422
1.240524779
1.243510356
1.246568829
1.250264528
1.254147488
1.258334747
1.262780266
1.267296869
1.271602038
1.275371677
1.278340292
1.280383114
1.281413778
1.281276371
1.279825077
1.277012661
1.272947768
1.267864413
1.261556277
1.254515575
1.247040775
1.23920341
1.231157676
1.223260101
1.215645579
1.208475902
1.201851049
1.195852128
1.190519233
1.18586926
1.18188961
1.178549399
1.175798956
1.173578416
1.17181958
1.170452922
1.169409548
1.168626334
1.168046586
1.167622703
1.167315268
1.167093532
1.166933656
1.166818102
1.166733952
1.166672082
1.166625982
1.166591165
1.166564455
1.166543694
1.166527298
1.166514125
1.166503417
1.166493816
1.166486284
1.166478864
1.166462358
1.166478786
1.24272155
1.255440397
1.258580299
1.261443835
1.264424251
1.267891711
1.271561487
1.275465717
1.279300198
1.283110475
1.286598178
1.289389818
1.291230058
1.292025762
1.291742546
1.290289704
1.287558213
1.283544391
1.278407892
1.272334967
1.265183805
1.257424305
1.249367775
1.241029279
1.232595996
1.224386082
1.216532421
1.209177056
1.202412118
1.196306701
1.190893642
1.18618248
1.182155524
1.178777586
1.175996026
1.173748801
1.171966377
1.17057843
1.169515725
1.16871503
1.168119686
1.167682131
1.167362956
1.167131346
1.16696333
1.166841192
1.166751802
1.166685826
1.166636548
1.166599297
1.166570741
1.16654859
1.166531153
1.166517223
1.166505938
1.166495952
1.16648829
1.166480232
1.166464763
1.166480357
1.262669301
1.273961729
1.276237221
1.2790724
1.281926873
1.285112463
1.288407721
1.291787665
1.295112054
1.29807223
1.300621587
1.302373442
1.303049779
1.302598861
1.301038503
1.298340556
1.294422286
1.289314982
1.283215626
1.276256259
1.26835827
1.259965104
1.251398206
1.242617681
1.233846238
1.225363409
1.217301964
1.20978557
1.202899838
1.196703009
1.191221585
1.186458495
1.182391545
1.17898169
1.176173671
1.173903524
1.172100576
1.170693849
1.169613875
1.168797388
1.168187828
1.167737717
1.167407698
1.16716692
1.16699132
1.166863022
1.166768721
1.166698884
1.166646611
1.166607063
1.166576762
1.166553296
1.166534875
1.166520228
1.166508394
1.166498065
1.166490271
1.166481595
1.166467259
1.166481896
1.282247492
1.291889677
1.293749477
1.296329024
1.298925103
1.30172081
1.304541194
1.307303623
1.309911742
1.312035116
1.313571451
1.314256747
1.313778692
1.312119713
1.309349907
1.305495739
1.300495055
1.294403546
1.287444883
1.279694964
1.271138698
1.262187433
1.253171971
1.244001336
1.234934229
1.226212443
1.217970148
1.210313937
1.203323974
1.197048702
1.19150906
1.186702015
1.182601368
1.179164606
1.176334149
1.174044336
1.172223524
1.170800205
1.169704769
1.168873983
1.168251434
1.167789767
1.167449712
1.16720041
1.16701773
1.166883667
1.166784754
1.166711285
1.166656191
1.166614475
1.166582525
1.166557815
1.166538464
1.166523139
1.166510785
1.166500155
1.166492221
1.166482958
1.166469831
1.166483414
1.301147888
1.309084965
1.310595284
1.312883902
1.315159226
1.31749005
1.319756248
1.321832085
1.323612582
1.324896878
1.325403432
1.325022342
1.323434528
1.320635508
1.31674251
1.311832202
1.305855997
1.298887012
1.291166133
1.282713255
1.273575862
1.264133774
1.25472412
1.245208173
1.235881873
1.226950549
1.218550553
1.210772816
1.203692898
1.197350369
1.191761261
1.186917139
1.182788226
1.179328878
1.176479454
1.174172791
1.172336424
1.170898419
1.169789104
1.168945336
1.168310887
1.16783856
1.167489198
1.167231956
1.16704266
1.166903193
1.166799948
1.166723061
1.166665306
1.166621544
1.166588036
1.16656215
1.166541921
1.166525956
1.166513109
1.16650222
1.16649413
1.166484326
1.166472473
1.166484906
1.319182021
1.325436023
1.326654862
1.328558563
1.3304382
1.332244998
1.333901748
1.335247715
1.336186491
1.336609911
1.336099865
1.33469195
1.33206233
1.328210848
1.323292291
1.317429274
1.310583649
1.302838146
1.294444367
1.285365601
1.275714891
1.265841595
1.256085749
1.246262052
1.236708163
1.227592789
1.219054975
1.211171526
1.204013957
1.197613832
1.191982799
1.187107522
1.182955013
1.179476793
1.176611382
1.174290292
1.172440361
1.170989325
1.169867515
1.169011922
1.168366541
1.167884356
1.167526343
1.167261692
1.167066203
1.166921665
1.166814347
1.16673424
1.166673976
1.166628282
1.166593302
1.166566304
1.166545246
1.166528676
1.166515365
1.166504259
1.166495994
1.166485709
1.166475171
1.166486367
1.335999755
1.3406939
1.341658501
1.343147377
1.344594559
1.345847868
1.34687295
1.347481878
1.347596794
1.347168799
1.345695128
1.343312212
1.339727138
1.33492344
1.329081131
1.322367851
1.314752257
1.306323075
1.297336935
1.287700539
1.277595498
1.267343542
1.257282066
1.247183484
1.237429535
1.228152065
1.219493663
1.211518188
1.204293605
1.197844226
1.192177763
1.187276419
1.183104317
1.1796104
1.176731551
1.174398106
1.172536319
1.17107368
1.169940577
1.169074176
1.16841872
1.167927391
1.16756132
1.167289741
1.167088446
1.166939144
1.166827993
1.16674485
1.166682219
1.1666347
1.166598329
1.16657028
1.16654844
1.166531299
1.166517553
1.16650627
1.166497802
1.166487115
1.166477901
1.16648779
1.351567911
1.354837605
1.355519542
1.356548008
1.357532141
1.358224884
1.358621192
1.35851586
1.357848629
1.35658788
1.354234424
1.350951202
1.346503439
1.340852425
1.33418718
1.326723373
1.318429164
1.309400643
1.299890826
1.289759569
1.279251389
1.268666107
1.258332301
1.247990723
1.238059938
1.228639651
1.219875599
1.211819975
1.204537564
1.198046141
1.192349807
1.187426764
1.183238476
1.17973156
1.176841431
1.174497386
1.172625199
1.171152179
1.170008823
1.169132499
1.168467722
1.167967888
1.167594289
1.16731622
1.167109473
1.166955688
1.166840924
1.166754918
1.166690052
1.166640809
1.166603123
1.166574082
1.166551505
1.166533822
1.166519674
1.166508247
1.166499548
1.166488549
1.166480639
1.166489183
1.365537691
1.367656414
1.368087499
1.368673085
1.36920904
1.369362148
1.369157186
1.368377928
1.366986748
1.364962672
1.361795588
1.357695777
1.352472153
1.346075513
1.338687019
1.330564505
1.321675194
1.312119336
1.302146453
1.291578387
1.280711877
1.269831442
1.259253318
1.248699462
1.238611906
1.229065465
1.220208696
1.212083255
1.204750956
1.19822367
1.192502269
1.187561228
1.183359635
1.179841984
1.17694238
1.174589205
1.172707838
1.171225471
1.170072749
1.169187271
1.168513834
1.168006059
1.167625407
1.167341242
1.167129364
1.166971354
1.166853183
1.166764473
1.166697494
1.166646621
1.166607692
1.166577714
1.166554441
1.166536245
1.166521728
1.166510186
1.166501224
1.166490019
1.166483377
1.166490583
1.377961292
1.379154569
1.379349698
1.37953493
1.379653027
1.379309206
1.37853586
1.377130183
1.375082241
1.372365788
1.36845737
1.363627427
1.357714595
1.350669123
1.342649865
1.333953168
1.324543005
1.314524777
1.304145224
1.29318776
1.282001947
1.27086176
1.260068157
1.249322346
1.239096264
1.229438294
1.220500065
1.21231379
1.204938434
1.198380631
1.192638199
1.187682281
1.183469777
1.179943261
1.177035663
1.174674563
1.172785021
1.171294168
1.170132829
1.169238852
1.168557328
1.168042108
1.167654826
1.167364917
1.1671482
1.1669862
1.166864808
1.166773541
1.166704564
1.166652148
1.166612045
1.16658118
1.166557251
1.166538569
1.166523716
1.166512081
1.166502828
1.16649153
1.166486111
1.166492014
1.388864948
1.389381068
1.389342883
1.389162716
1.388891761
1.38810198
1.386823682
1.384851
1.382217733
1.378857121
1.374306286
1.368824
1.362310282
1.354703979
1.346141858
1.336944276
1.327080493
1.31666184
1.305931713
1.294614604
1.283144688
1.271780182
1.260804703
1.249870448
1.239522465
1.229766108
1.220756176
1.212516856
1.205104315
1.198520507
1.192760437
1.187792225
1.183570762
1.180036883
1.177122469
1.174754401
1.172857488
1.171358847
1.170189508
1.169287584
1.168598464
1.16807623
1.16768269
1.167387354
1.167166059
1.167000283
1.16687584
1.166782151
1.166711281
1.166657405
1.166616188
1.166584486
1.166559938
1.166540794
1.166525639
1.166513923
1.166504359
1.16649309
1.166488803
1.16649339
1.398550944
1.398461974
1.398132023
1.397605886
1.396984484