/*--------------------------------*- C++ -*----------------------------------*\
  =========                 |
  \\      /  F ield         | OpenFOAM: The Open Source CFD Toolbox
   \\    /   O peration     | Website:  https://openfoam.org
    \\  /    A nd           | Version:  12
     \\/     M anipulation  |
\*---------------------------------------------------------------------------*/
FoamFile
{
    format      ascii;
    class       volVectorField;
    location    "200";
    object      U;
}
// * * * * * * * * * * * * * * * * * * * * * * * * * * * * * * * * * * * * * //

dimensions      [0 1 -1 0 0 0 0];

internalField   nonuniform List<vector> 
16200
(
(177.4885542 -7.343861529e-17 -1.450060635)
(211.4536375 3.553977109e-17 -1.372101003)
(230.4945399 -2.471552754e-20 -1.539177834)
(245.4061682 0 -1.702637669)
(259.136534 0 -1.880639755)
(273.3034054 -2.501448772e-17 -2.093536013)
(288.2413274 2.86541003e-17 -2.383099192)
(300.8827044 6.2406778e-17 -2.740997384)
(305.21589 -1.224112889e-16 -2.897432814)
(305.3520265 1.099800921e-16 -2.894802902)
(305.071871 -4.707162595e-17 -2.980904892)
(304.8282905 0 -2.981805169)
(304.512666 0 -3.084204665)
(304.1526402 -5.502476634e-17 -3.119843316)
(303.7122098 4.596049141e-17 -3.228192322)
(303.2033465 0 -3.308956168)
(302.6053985 0 -3.43470101)
(301.9093373 8.444900575e-19 -3.56185123)
(301.0955466 4.56704494e-17 -3.720425035)
(300.1455526 -3.710066632e-17 -3.895723383)
(299.0360555 0 -4.097403212)
(297.7426893 -2.562732933e-17 -4.320179191)
(296.2401822 2.294896603e-17 -4.563710323)
(294.5017129 3.905228294e-17 -4.821130896)
(292.502011 -3.282897551e-17 -5.082650098)
(290.2217067 -2.806310145e-17 -5.33196733)
(287.6510918 2.361550343e-17 -5.546279656)
(284.796575 0 -5.695813481)
(281.6872602 0 -5.7465203)
(278.3800192 5.891154104e-17 -5.665762548)
(274.9598848 -3.717349156e-17 -5.431159094)
(271.5328723 -1.066931367e-17 -5.039771832)
(268.2122136 0 -4.512997305)
(265.1017307 -4.674482372e-17 -3.894283808)
(262.2822623 5.252307655e-17 -3.23918292)
(259.8049037 -8.999525291e-17 -2.602510456)
(257.6901976 7.588008008e-17 -2.02727658)
(255.9333947 0 -1.538959869)
(254.5096517 0 -1.145765073)
(253.3823758 0 -0.8425627757)
(252.5078821 7.78756311e-17 -0.6166332418)
(251.8421844 -1.314147773e-16 -0.4523676613)
(251.3432709 1.105661924e-16 -0.3347755064)
(250.9745632 0 -0.2510719817)
(250.7049942 1.569779909e-16 -0.1913318266)
(250.5097293 -1.320704118e-16 -0.1482351869)
(250.3691944 -3.079361687e-20 -0.116640256)
(250.2686176 1.872370728e-16 -0.09301324074)
(250.1968676 -3.154299596e-16 -0.07497187207)
(250.1458454 2.656788124e-16 -0.06091127505)
(250.1095961 2.239480169e-16 -0.04974682113)
(250.0838123 3.777897693e-16 -0.04074439831)
(250.0654189 -3.188670575e-16 -0.03338893615)
(250.0520948 8.08269528e-16 -0.02731649345)
(250.0423888 -4.558095705e-16 -0.02225641651)
(250.0346674 0 -0.0180493692)
(250.0289639 1.638527746e-16 -0.01440928817)
(250.0231328 0 -0.01173957304)
(250.0196848 -4.753421332e-16 -0.007590748663)
(250.0120102 -3.971129597e-19 -0.009897828993)
(180.5686442 -1.552739075e-16 -3.999371971)
(215.3725613 1.520439127e-16 -4.23323111)
(234.8714527 -5.490686086e-17 -4.704840104)
(250.1713038 -4.898732752e-17 -5.073769069)
(264.3797661 5.018595511e-17 -5.443102916)
(279.1655486 0 -5.859897565)
(294.3193054 0 -6.380489817)
(304.9658837 6.751395155e-17 -6.819595739)
(307.5365061 -6.365260675e-17 -6.949442724)
(307.484163 0 -6.9312661)
(307.1795851 0 -7.03185134)
(306.9136386 0 -7.021244763)
(306.5716007 -6.827603166e-17 -7.129912437)
(306.1817339 5.701588031e-17 -7.158407125)
(305.7033017 -1.465192061e-18 -7.265118752)
(305.1486487 -1.228377826e-18 -7.338694669)
(304.4953958 0 -7.456308294)
(303.7332415 -2.604525649e-18 -7.571696054)
(302.8407912 0 -7.714300313)
(301.797698 1.220514515e-18 -7.868457064)
(300.5787023 4.139705505e-18 -8.042044575)
(299.1572652 -2.984731278e-17 -8.22835168)
(297.5066562 -1.799390579e-17 -8.424277725)
(295.599337 3.991538925e-17 -8.619637943)
(293.4104865 0 -8.800179622)
(290.9234592 7.201864434e-18 -8.944315886)
(288.1344617 -1.224936936e-17 -9.023165496)
(285.0598193 0 -9.001078135)
(281.7427876 -3.57461642e-17 -8.839775971)
(278.2571011 1.495178918e-17 -8.506149311)
(274.7036364 -3.88589336e-17 -7.983032031)
(271.1984456 1.104127196e-17 -7.278697227)
(267.8553658 -3.774060581e-17 -6.429830131)
(264.7690555 -1.605087279e-17 -5.495894303)
(262.0048774 0 -4.546165858)
(259.5963349 4.658574685e-17 -3.645126391)
(257.5497543 -3.927362202e-17 -2.841110643)
(255.850411 0 -2.161207739)
(254.4698326 1.129751742e-16 -1.612394967)
(253.3709879 -9.542523603e-17 -1.186360285)
(252.5130748 8.052113566e-17 -0.8660187014)
(251.8550754 2.715461458e-16 -0.6308915096)
(251.3583722 -1.142305101e-16 -0.4612197147)
(250.9886861 0 -0.3398971933)
(250.7167567 4.859957314e-16 -0.253370834)
(250.518743 -5.450245205e-16 -0.1913997771)
(250.3756731 -3.438497546e-16 -0.1466060746)
(250.2729801 3.856444457e-16 -0.1137927903)
(250.1996033 0 -0.08937629247)
(250.1473854 -2.728748709e-16 -0.07089260736)
(250.1103034 2.295893012e-16 -0.0566611923)
(250.083985 5.797113549e-16 -0.04552640488)
(250.0652678 3.254004175e-16 -0.03668786058)
(250.0517983 -2.740870564e-16 -0.02957190122)
(250.0420063 9.240218649e-16 -0.02378705351)
(250.0343574 -7.793237798e-16 -0.01904813158)
(250.0286015 -4.933813993e-16 -0.01504708235)
(250.0229244 5.55860734e-16 -0.01217744009)
(250.0194723 1.058114013e-15 -0.007700070672)
(250.0114955 9.803924053e-17 -0.009965936422)
(183.5936373 -1.605557425e-19 -6.609726907)
(219.2507664 1.631719602e-16 -7.323397467)
(239.2213789 -2.379492881e-16 -8.082783796)
(254.9386452 1.075620641e-16 -8.6818453)
(269.6709324 1.121045463e-16 -9.272890827)
(285.0508688 -2.52181614e-16 -9.929833606)
(300.1055028 2.811448928e-16 -10.70142779)
(308.178162 3.669007955e-19 -11.13936121)
(309.3966733 -2.689456751e-16 -11.25170108)
(309.2041572 1.177583317e-16 -11.21388127)
(308.8768086 0 -11.32428421)
(308.5845466 8.100262091e-17 -11.2971363)
(308.208686 -6.758682695e-17 -11.40595157)
(307.7807032 -2.692969717e-18 -11.4226374)
(307.2555114 4.972137375e-17 -11.52121774)
(306.6454774 3.881897339e-18 -11.5824927)
(305.926446 -3.386613834e-17 -11.68593073)
(305.0866506 1.786494947e-18 -11.7842901)
(304.1028578 -4.80704758e-17 -11.90553013)
(302.9527054 3.779267094e-17 -12.03351934)
(301.6089862 -1.471280038e-20 -12.1735031)
(300.043122 -2.168981777e-17 -12.31661014)
(298.227162 1.81646125e-17 -12.4559373)
(296.133379 0 -12.57694738)
(293.738285 -4.389134975e-17 -12.65978101)
(291.0294991 7.261533575e-18 -12.67641386)
(288.011607 3.807385183e-17 -12.5909972)
(284.7143978 2.19297926e-17 -12.36181251)
(281.1992123 1.887292306e-17 -11.94778076)
(277.5594884 -1.538334362e-17 -11.31904211)
(273.9122609 1.495127174e-19 -10.46907122)
(270.3808611 -4.585468211e-17 -9.422845171)
(267.0748059 3.898890154e-17 -8.235984719)
(264.0743087 -9.997852229e-17 -6.984552392)
(261.4247486 2.815280181e-17 -5.749245913)
(259.1396548 0 -4.600111919)
(257.2095339 -8.153035508e-17 -3.586481336)
(255.6097009 -6.910166342e-17 -2.733557139)
(254.3076864 -1.878369027e-20 -2.044924662)
(253.2666444 4.931936264e-17 -1.508237804)
(252.4488148 -8.299500906e-17 -1.102112366)
(251.8170124 -6.998928384e-17 -0.8018155265)
(251.3365992 2.357506598e-16 -0.5835601211)
(250.976483 2.976955808e-16 -0.4266330253)
(250.7099192 -1.66833607e-16 -0.3143915354)
(250.5147473 2.806190438e-16 -0.2340709372)
(250.3731152 5.895817439e-16 -0.1763095994)
(250.2711056 -3.96353876e-16 -0.1343944621)
(250.1980636 6.660068557e-16 -0.1036242425)
(250.1460198 -2.797563207e-16 -0.08072034359)
(250.1090557 -4.699877157e-16 -0.06342133253)
(250.0828547 1.973663086e-16 -0.05015871172)
(250.0642571 -6.631215628e-16 -0.03984692501)
(250.050941 0 -0.03170589227)
(250.0412748 -1.871237588e-15 -0.02521614834)
(250.0338167 7.85858217e-16 -0.01997082428)
(250.0281382 3.300464234e-16 -0.01562613404)
(250.0226378 -1.386160278e-16 -0.01257040742)
(250.0193485 -9.315504675e-16 -0.007799016197)
(250.0114376 0 -0.01002303819)
(186.4145032 -3.474727661e-16 -9.324823177)
(222.8492605 -1.708326666e-19 -10.6118656)
(243.275678 0 -11.65480867)
(259.4622952 1.156783964e-19 -12.50526891)
(274.8010959 -1.25643782e-16 -13.34396043)
(290.6557106 1.417014385e-16 -14.26683472)
(304.8981944 -3.020513242e-19 -15.23957604)
(310.3164561 -6.051503493e-19 -15.58172036)
(310.7102817 1.088940737e-18 -15.68457827)
(310.471322 1.189810169e-16 -15.62400053)
(310.1186134 -1.005031706e-16 -15.74566103)
(309.79666 1.315238774e-18 -15.70323229)
(309.3839772 -7.025917598e-17 -15.81193486)
(308.9140176 6.055995458e-17 -15.81841051)
(308.3374712 4.93232385e-17 -15.90880829)
(307.6662727 -4.387757167e-17 -15.95861576)
(306.8745201 -4.335437007e-18 -16.04748445)
(305.9487554 0 -16.12799399)
(304.8639292 0 -16.22545493)
(303.5957077 0 -16.32303922)
(302.1151393 -3.948658397e-17 -16.42264965)
(300.3918247 1.468280336e-17 -16.51280405)
(298.3969189 3.766158936e-17 -16.58236829)
(296.1032344 -2.113024481e-17 -16.61194727)
(293.4900899 2.705595997e-17 -16.57539056)
(290.5519575 1.532058089e-17 -16.43744525)
(287.3056058 -2.626190241e-17 -16.15495318)
(283.7986968 2.212360149e-17 -15.68116732)
(280.1141427 -1.89866348e-17 -14.97539415)
(276.3658355 -2.422467464e-19 -14.01605152)
(272.6838983 2.756088379e-17 -12.81271227)
(269.1927013 4.728677742e-17 -11.4109427)
(265.9901716 0 -9.886192602)
(263.136248 6.867714505e-17 -8.329064919)
(260.6531451 0 -6.827764097)
(258.5339262 0 -5.453651907)
(256.7541506 2.10235327e-16 -4.253484366)
(255.2808451 3.54908759e-17 -3.248182872)
(254.0787974 2.406440943e-16 -2.436732792)
(253.1125647 5.080823258e-17 -1.802482668)
(252.3480775 5.564638379e-16 -1.32008901)
(251.7527037 -2.163304604e-16 -0.9612070373)
(251.2962516 -1.21413753e-16 -0.6987318252)
(250.9513649 -9.188128716e-16 -0.5089882855)
(250.6942318 -1.156872961e-19 -0.3727584327)
(250.5047613 7.209100507e-16 -0.2751317154)
(250.3665468 6.055122098e-16 -0.2050215632)
(250.2665775 -1.118294291e-15 -0.1543698666)
(250.1947792 -5.119240873e-16 -0.1174608975)
(250.1435184 2.863227514e-16 -0.09026641393)
(250.1070812 -1.20057141e-15 -0.06998054755)
(250.0812628 0 -0.05464369766)
(250.0629604 1.349581899e-15 -0.04289558317)
(250.049901 1.130478895e-15 -0.03375753015)
(250.0404359 9.464617405e-16 -0.02658287535)
(250.0332013 0 -0.0208504163)
(250.0276392 6.621813652e-16 -0.01617095566)
(250.022305 6.915488314e-17 -0.01293865564)
(250.0191616 -2.078035745e-15 -0.007896768664)
(250.0112212 3.174861104e-15 -0.01007112784)
(189.0349463 -7.358023848e-16 -12.19168439)
(226.2211066 3.756439423e-16 -14.07356369)
(247.0897788 -1.408055137e-16 -15.420181)
(263.7939277 -5.05005764e-22 -16.54708326)
(279.8339416 0 -17.66501945)
(296.0722134 3.113028875e-19 -18.88214154)
(308.2614333 2.480308188e-21 -19.93533741)
(311.5848983 0 -20.14516206)
(311.5615988 -2.259214567e-18 -20.25772709)
(311.296907 -1.218453095e-16 -20.17305494)
(310.9132372 1.025298883e-16 -20.30479656)
(310.5568703 0 -20.24753944)
(310.1018265 -7.401529949e-17 -20.35395456)
(309.5833738 -2.004099725e-18 -20.34983529)
(308.9484107 4.717534029e-17 -20.42906876)
(308.2080105 -8.473620155e-17 -20.46465764)
(307.3346565 7.544584369e-17 -20.53418558)
(306.3129888 3.7390996e-18 -20.59101888)
(305.1160861 0 -20.65700812)
(303.7174202 4.265501794e-17 -20.71485139)
(302.0861379 -4.479669718e-17 -20.76295608)
(300.1899711 3.810331114e-17 -20.78696868)
(297.9995847 -3.850412919e-17 -20.7707468)
(295.4896851 0 -20.68863607)
(292.6450819 -1.855097683e-17 -20.50662015)
(289.4711915 0 -20.18117129)
(286.0019578 2.712505002e-17 -19.66219884)
(282.3074512 -2.285635475e-17 -18.90052258)
(278.4943978 0 -17.86084778)
(274.695425 0 -16.53625515)
(271.0478254 0 -14.9579507)
(267.6687726 0 -13.19474509)
(264.6369463 0 -11.34099505)
(261.9871151 1.068242445e-16 -9.498199348)
(259.7167951 -1.509353371e-16 -7.757322879)
(257.7994977 1.024778062e-16 -6.186630081)
(256.1979513 -1.731933294e-16 -4.827005961)
(254.8730255 -1.83385643e-16 -3.693072748)
(253.7884089 -9.265819292e-17 -2.778312995)
(252.9111321 -1.565669688e-16 -2.061672602)
(252.2114286 -5.720137314e-16 -1.514270218)
(251.6616393 -2.964080216e-16 -1.104821046)
(251.236315 4.365719649e-16 -0.8036352463)
(250.9121538 8.387428107e-16 -0.5847476703)
(250.6685585 -7.047116556e-16 -0.4269174331)
(250.487804 -7.39632004e-16 -0.31350907)
(250.3551697 -8.68991794e-16 -0.2320103542)
(250.2587738 1.041268201e-15 -0.1732247147)
(250.1892877 1.222133998e-15 -0.1305557586)
(250.1395476 -1.4628922e-16 -0.09931104454)
(250.1041404 1.347452691e-15 -0.07619353835)
(250.079043 -1.845193612e-15 -0.05888552517)
(250.0612641 -2.914597611e-15 -0.04577109289)
(250.0486081 -1.002747021e-15 -0.03568621956)
(250.0394447 0 -0.02786221699)
(250.0324847 1.595164235e-15 -0.02167131179)
(250.0270926 -4.980962793e-16 -0.01667420671)
(250.0219298 -2.070597056e-16 -0.01327572395)
(250.0189662 1.832989204e-15 -0.007990268622)
(250.0110328 -3.034141175e-15 -0.01011048954)
(191.4244821 1.897669036e-19 -15.19886543)
(229.3778117 0 -17.70878719)
(250.6971317 1.499623092e-19 -19.37952242)
(267.9395431 -1.434389402e-19 -20.80854342)
(284.6834394 -3.095067926e-19 -22.23721288)
(301.0687762 0 -23.75443408)
(310.4910568 7.095097772e-19 -24.74220955)
(312.2351645 -1.327863658e-18 -24.82281733)
(311.9728525 1.161439194e-18 -24.94841589)
(311.688292 -9.79772213e-19 -24.8385221)
(311.269368 0 -24.97673003)
(310.8746245 8.750692479e-17 -24.90348354)
(310.3729168 -7.31227602e-17 -25.00264835)
(309.8006214 6.334963279e-17 -24.98511392)
(309.1013021 -5.141323169e-17 -25.04785406)
(308.2844943 5.406680358e-18 -25.06447702)
(307.3209328 0 -25.10863379)
(306.1927871 -6.523984239e-17 -25.13547078)
(304.870851 5.151666591e-17 -25.16275827)
(303.3260089 -1.091338087e-17 -25.17249513)
(301.5255462 9.212390747e-18 -25.15871424)
(299.4361596 0 -25.10285158)
(297.0298572 0 -24.98210643)
(294.2862343 0 -24.76282746)
(291.1996701 0 -24.40197189)
(287.7914638 -6.555747694e-17 -23.84797388)
(284.1177408 -3.100925173e-19 -23.04623527)
(280.274286 -2.384072988e-17 -21.95000407)
(276.39114 1.981019546e-19 -20.53604557)
(272.6144224 1.72568611e-17 -18.81875399)
(269.0797197 -2.982596503e-17 -16.85512816)
(265.8874737 1.267442131e-16 -14.73735508)
(263.0901188 -8.644761395e-17 -12.57525909)
(260.6942144 -7.314663845e-17 -10.47599335)
(258.6731553 1.241948568e-16 -8.52810893)
(256.9834988 -1.052696453e-16 -6.792804242)
(255.5783281 0 -5.302605421)
(254.4150447 -1.887933551e-16 -4.064606378)
(253.4581212 -2.865379534e-16 -3.066454884)
(252.6781398 1.072633959e-16 -2.282918348)
(252.050159 7.699076752e-20 -1.682125276)
(251.5517264 2.662106159e-16 -1.230532594)
(251.1622399 -5.116563932e-16 -0.8965651541)
(250.8625562 4.301059093e-16 -0.6525990322)
(250.6353992 1.444325223e-15 -0.4758969666)
(250.4655492 1.515262612e-16 -0.348507516)
(250.3401038 -1.270242957e-16 -0.2567937936)
(250.2484409 0 -0.1906341125)
(250.182087 -1.605101442e-15 -0.1426960862)
(250.1344392 1.492406035e-16 -0.1077193198)
(250.1004539 2.246495262e-15 -0.08197785559)
(250.0763423 3.127971736e-15 -0.06283612764)
(250.0592637 4.176769369e-15 -0.04844741205)
(250.0471238 0 -0.03747888122)
(250.0383385 0 -0.02904872616)
(250.0316926 -1.605652373e-15 -0.02243184332)
(250.0265075 1.664891251e-16 -0.01713727616)
(250.0215188 -2.756103158e-16 -0.01358284016)
(250.0187443 -1.820460998e-15 -0.008080218452)
(250.0108051 -5.849458179e-18 -0.01014270452)
(193.5919696 -2.012317652e-19 -18.34423786)
(232.3623569 2.171206471e-16 -21.51487447)
(254.1599329 -3.365684222e-16 -23.53633508)
(271.9966096 1.630379994e-16 -25.29751135)
(289.3823915 3.476747305e-19 -27.07262658)
(305.2222376 1.91763872e-16 -28.82330804)
(311.7407162 -1.924139434e-16 -29.6281925)
(312.4567355 1.377996045e-18 -29.59775094)
(311.9896618 -1.506293165e-16 -29.73285948)
(311.6822232 1.273744806e-16 -29.59511192)
(311.2234097 -1.663804814e-18 -29.73513387)
(310.7844188 0 -29.64526904)
(310.229198 7.866821951e-22 -29.73271324)
(309.5942475 -3.913850585e-18 -29.6999506)
(308.8201803 3.286233528e-18 -29.74256882)
(307.9141872 3.322091532e-17 -29.73765638)
(306.8451572 -3.711364416e-17 -29.75309036)
(305.5924723 0 -29.74605839)
(304.1247258 6.622738673e-18 -29.72896133)
(302.4107164 -3.368433766e-17 -29.68179787)
(300.4169914 3.766661606e-17 -29.5923824)
(298.1110826 1.607427117e-17 -29.43615086)
(295.4690728 0 -29.18276048)
(292.4791081 -2.323601636e-17 -28.79029504)
(289.1495289 0 -28.20708503)
(285.5222207 -2.682826738e-19 -27.37517673)
(281.6795501 2.864837784e-17 -26.23950271)
(277.744288 4.897911669e-17 -24.76233793)
(273.8659789 -4.187876252e-17 -22.93993775)
(270.195542 0 -20.81365398)
(266.8560956 0 -18.4679636)
(263.9221954 6.514389367e-19 -16.0156624)
(261.4150785 -4.653372724e-19 -13.57644988)
(259.3126234 3.783988813e-17 -11.25704782)
(257.5667241 -1.601317341e-16 -9.1386923)
(256.1207967 -2.71358915e-17 -7.272388666)
(254.9219541 2.062879502e-16 -5.680754897)
(253.9268763 -2.714642409e-16 -4.362885366)
(253.1025822 2.610372247e-16 -3.300750453)
(252.4240919 2.757787433e-17 -2.46541393)
(251.8716365 -9.262652549e-17 -1.822640916)
(251.4280147 3.893915852e-17 -1.337295876)
(251.0774152 6.553146049e-17 -0.9765630846)
(250.8047996 -9.352661776e-16 -0.7117331783)
(250.5961934 -7.388186105e-16 -0.5190546628)
(250.4389124 0 -0.3796411683)
(250.3219241 1.038608353e-15 -0.2790188719)
(250.2359366 0 -0.2063503399)
(250.1733976 0 -0.1537135735)
(250.1283279 0 -0.1153803049)
(250.0961032 -4.190440845e-15 -0.0872627572)
(250.0732092 -1.588747086e-15 -0.06645190852)
(250.0569875 -2.82329932e-15 -0.05089888323)
(250.0454656 -2.494992178e-15 -0.03912123821)
(250.0371262 -1.827787491e-15 -0.0301352062)
(250.0308308 0 -0.02312840639)
(250.0258852 0 -0.01755976586)
(250.0210749 1.376036222e-16 -0.01385944868)
(250.0185023 1.809387646e-15 -0.008166313346)
(250.0105613 -1.156404716e-17 -0.01016801862)
(195.517568 2.128236635e-19 -21.65969148)
(235.1600569 0 -25.48434536)
(257.4862683 1.799418003e-19 -27.90189637)
(276.0148956 6.879849921e-23 -30.03173316)
(293.9851134 -1.978706776e-16 -32.19797874)
(308.0404093 2.093650896e-16 -34.00506127)
(312.1573769 0 -34.57144116)
(312.052898 0 -34.46020101)
(311.6103403 1.535700792e-16 -34.61028347)
(311.2724017 1.963112091e-19 -34.447414)
(310.7664513 -1.082579931e-16 -34.58658523)
(310.2736515 0 -34.48179391)
(309.6538855 2.376455594e-18 -34.55498135)
(308.9426878 6.792677139e-17 -34.50641891)
(308.0783496 -5.691247737e-17 -34.52558582)
(307.0652872 5.638175462e-18 -34.49501732)
(305.8710002 -4.761774815e-18 -34.47486116)
(304.4724979 8.034682545e-18 -34.42428058)
(302.8370877 -5.431020758e-17 -34.34916976)
(300.9326815 -3.527534478e-19 -34.22656576)
(298.7264657 8.733378636e-17 -34.03733687)
(296.1883417 -4.917342854e-17 -33.74976893)
(293.3006798 0 -33.32531777)
(290.0638234 -2.251784036e-19 -32.71411308)
(286.5051547 2.01829405e-17 -31.85736966)
(282.6921328 3.457804249e-17 -30.69371442)
(278.7360468 0 -29.17299779)
(274.7849618 0 -27.27438024)
(271.0003829 -2.183003256e-17 -25.02098778)
(267.5264198 1.842357954e-17 -22.48455005)
(264.4625338 0 -19.77539595)
(261.8501918 -1.343975364e-16 -17.02135728)
(259.6774545 1.3702533e-16 -14.34500775)
(257.8957173 -1.934761821e-17 -11.8465731)
(256.439667 -4.449124263e-19 -9.59596484)
(255.2440956 -2.22763115e-16 -7.632001681)
(254.2538686 -4.464522792e-16 -5.966826764)
(253.4274755 4.15608014e-16 -4.591755178)
(252.7359552 -3.339387367e-17 -3.483639271)
(252.1594111 0 -2.610496468)
(251.6833989 -4.742830758e-17 -1.936390321)
(251.2958567 -5.980827964e-16 -1.425215731)
(250.9855748 0 -1.043486902)
(250.7414446 0 -0.7619081582)
(250.5526718 -7.548096888e-16 -0.556134544)
(250.4090477 0 -0.4066828831)
(250.3013926 -9.271159764e-16 -0.2985033269)
(250.2217582 1.662446144e-15 -0.2202367834)
(250.1635419 -9.264651507e-17 -0.1635112864)
(250.1214208 -2.398112941e-15 -0.12222849)
(250.09122 2.193560375e-15 -0.09200604099)
(250.069727 -3.546423989e-15 -0.06970705367)
(250.0544869 0 -0.05311071239)
(250.0436649 2.373565217e-15 -0.04060544742)
(250.0358258 5.897997296e-15 -0.0311180845)
(250.0299104 0 -0.02375948259)
(250.0252296 1.673203043e-16 -0.01794224862)
(250.0206004 -1.374326024e-16 -0.01410589563)
(250.0182432 1.799636769e-15 -0.008248556619)
(250.0102936 5.871445531e-15 -0.01018677634)
(197.0734776 -9.235145995e-16 -25.10965434)
(237.6295233 2.520964032e-16 -29.6076812)
(260.5883642 -1.975503924e-19 -32.46958318)
(279.8765044 3.945815074e-19 -35.01124605)
(298.1780419 4.22785814e-19 -37.58888553)
(309.5280652 -2.215297904e-16 -39.21848682)
(311.4325717 2.083185925e-16 -39.57414737)
(311.2513212 0 -39.41321466)
(310.7572577 1.565093025e-16 -39.58903209)
(310.3802624 2.246144526e-19 -39.40363119)
(309.8208705 -1.085022784e-16 -39.53973815)
(309.2661062 0 -39.42239971)
(308.5731434 2.428671905e-18 -39.4782875)
(307.7755969 0 -39.41105997)
(306.8102124 -1.279644553e-20 -39.39933451)
(305.6781981 0 -39.33241009)
(304.3459142 -3.900042017e-17 -39.26129663)
(302.788179 -1.647066352e-19 -39.14731825)
(300.9715545 2.071263385e-17 -38.9898182)
(298.8638982 4.715123949e-17 -38.76324251)
(296.4344932 -4.954239444e-17 -38.44215396)
(293.6577766 -1.699520514e-17 -37.98685566)
(290.5252394 -2.895234022e-17 -37.34867356)
(287.0537235 2.436920753e-17 -36.46868066)
(283.2957695 2.109045487e-17 -35.28328998)
(279.3496828 1.827385833e-17 -33.73360901)
(275.3557056 0 -31.78206579)
(271.480866 -5.273703062e-17 -29.43289118)
(267.8872829 9.010524232e-17 -26.74192961)
(264.699226 5.765132532e-17 -23.81139391)
(261.9827639 1.470845623e-16 -20.7722798)
(259.7423657 1.112096994e-16 -17.75979995)
(257.934253 0 -14.89208305)
(256.4878016 0 -12.25767179)
(255.3257903 1.00901625e-16 -9.91245971)
(254.3790075 2.561385088e-16 -7.88228763)
(253.5934402 1.922665165e-16 -6.169124849)
(252.9314673 3.243879378e-16 -4.75725576)
(252.3692265 5.47387581e-16 -3.619239287)
(251.8922703 4.608029024e-16 -2.720795561)
(251.4914421 -4.845768443e-17 -2.024934674)
(251.1595784 6.919626254e-16 -1.495139152)
(250.8897848 -1.094281087e-15 -1.097739209)
(250.6746259 -5.739680053e-17 -0.8032717709)
(250.5062963 8.178786914e-16 -0.5871526355)
(250.3769405 -8.062348426e-17 -0.4295908339)
(250.2791641 6.745822273e-17 -0.3151882289)
(250.2063356 -3.610365274e-15 -0.2322372279)
(250.1527985 0 -0.1720435583)
(250.1138959 2.515323295e-15 -0.1282302955)
(250.0859166 -2.095357574e-15 -0.09618488492)
(250.0659651 6.970805423e-15 -0.07258713347)
(250.051804 -1.808496768e-16 -0.05507451039)
(250.0417469 -2.24738382e-15 -0.04192713051)
(250.0344513 -3.838606218e-15 -0.03199549226)
(250.0289399 -3.367899656e-15 -0.02432426504)
(250.0245447 0 -0.01828542337)
(250.0201 0 -0.01432244664)
(250.0179673 -3.582164065e-15 -0.008326616653)
(250.0100054 -5.806355409e-15 -0.0101989756)
(198.1401162 6.02231429e-20 -28.65693249)
(239.6839308 -2.733952278e-16 -33.87691992)
(263.4336243 0 -37.24135694)
(283.5062592 4.406332617e-19 -40.24831594)
(301.4552323 -9.255595665e-19 -43.16558748)
(309.9189498 0 -44.42388086)
(310.2184112 -2.147230538e-16 -44.64157087)
(309.9091404 1.869841459e-16 -44.42588642)
(309.3813781 -1.259354388e-18 -44.61554566)
(308.9596589 0 -44.40993879)
(308.3434915 3.518002479e-18 -44.53702183)
(307.7224368 9.428747135e-17 -44.40560738)
(306.9526647 -2.217751454e-18 -44.4377007)
(306.0646823 2.465417541e-19 -44.34693385)
(304.9942106 -5.932021801e-17 -44.29768829)
(303.7386041 0 -44.18655296)
(302.262794 4.95408535e-18 -44.05329693)
(300.5387981 -8.367286857e-18 -43.86021155)
(298.5319677 -2.851281313e-17 -43.59890902)
(296.2104931 1.185913507e-17 -43.23989966)
(293.5482637 2.053547187e-17 -42.75159336)
(290.5291922 2.784062506e-20 -42.08731303)
(287.1599661 0 -41.18860915)
(283.4793897 2.543781297e-17 -39.98673451)
(279.5698957 3.167592463e-19 -38.41597286)
(275.5636385 -1.841746181e-17 -36.4290549)
(271.6257062 0 -34.01140101)
(267.9303064 1.082245113e-16 -31.19907971)
(264.6260758 -1.15167842e-16 -28.08277993)
(261.8053751 -5.886411243e-17 -24.79137327)
(259.4944191 -1.336060141e-16 -21.46840729)
(257.6606933 1.497113137e-17 -18.24792154)
(256.2328956 -3.620869696e-17 -15.23706748)
(255.1243219 -3.070838805e-16 -12.50900842)
(254.2514107 -2.93954123e-16 -10.10438988)
(253.5451714 -1.897829847e-16 -8.036369158)
(252.9554695 3.692966567e-16 -6.297706338)
(252.4500994 3.526405985e-16 -4.866744649)
(252.0109623 -1.134769526e-15 -3.71270625)
(251.6291618 -4.405639107e-16 -2.799775375)
(251.3006313 -2.46947371e-17 -2.090504156)
(251.0227697 -4.153200375e-17 -1.548439403)
(250.792648 1.115169241e-15 -1.14012591)
(250.6061963 9.064032607e-16 -0.8362719662)
(250.4583629 4.899253633e-17 -0.6123420954)
(250.3434821 0 -0.4484761193)
(250.2558422 -2.196586753e-15 -0.3291196391)
(250.1900714 1.835220971e-15 -0.2423658413)
(250.1414321 -9.572786691e-17 -0.1793107959)
(250.1059247 -7.329346142e-21 -0.1333815994)
(250.0803022 1.991066603e-16 -0.09979480553)
(250.0619921 -3.639076751e-15 -0.07508881369)
(250.0489805 0 -0.05678834068)
(250.0397364 2.57039281e-15 -0.04308548326)
(250.0330167 -1.247101619e-16 -0.03276739329)
(250.0279278 3.281584416e-15 -0.02482281526)
(250.0238336 -2.689078575e-15 -0.01859015993)
(250.019576 0 -0.01450946107)
(250.017674 3.567248341e-15 -0.008400188273)
(250.0096964 5.759151035e-15 -0.01020460272)
(198.7828763 -5.194010739e-16 -32.30316092)
(241.493897 -2.978249161e-16 -38.31509227)
(266.1572392 2.47221363e-16 -42.24394196)
(286.9963286 -4.862989293e-19 -45.77364073)
(303.428291 -2.554641691e-16 -48.79511958)
(308.6696479 4.880370574e-16 -49.56885549)
(308.4606913 -2.199619685e-16 -49.73344176)
(308.1240731 1.491413961e-18 -49.47915456)
(307.5517879 -1.59913972e-16 -49.67172514)
(307.0787947 -2.888935932e-19 -49.43643225)
(306.3998089 1.103976794e-16 -49.53876724)
(305.7041034 -9.889917184e-17 -49.38261765)
(304.8481959 8.032317831e-17 -49.37758709)
(303.858249 0 -49.25343733)
(302.6701048 -5.004713989e-17 -49.15785023)
(301.2778552 9.616145296e-17 -48.99490469)
(299.64523 -3.026745916e-17 -48.79197004)
(297.7412181 3.446309637e-17 -48.51058391)
(295.5307296 -2.894658694e-17 -48.13175673)
(292.9833537 -2.492147885e-17 -47.61642333)
(290.0799044 2.084510756e-17 -46.92275866)
(286.8190492 1.797735058e-17 -45.99831936)
(283.2314533 0 -44.78161559)
(279.3854966 0 -43.20013743)
(275.394658 -4.426115228e-17 -41.18958629)
(271.4216391 -3.838520519e-17 -38.72290832)
(267.6476248 0 -35.81976845)
(264.2385295 -1.115250649e-16 -32.55202444)
(261.3149635 -9.563650001e-17 -29.04204178)
(258.9286543 2.031657662e-17 -25.43784881)
(257.063936 1.210596443e-16 -21.88594672)
(255.6550289 -1.018303066e-16 -18.51110571)
(254.6095264 -1.858189644e-16 -15.40459695)
(253.8311356 3.129041501e-16 -12.62226695)
(253.2351356 2.819695066e-16 -10.18963608)
(252.7562426 2.379642916e-16 -8.108309746)
(252.3502245 -4.264227944e-16 -6.36322466)
(251.991253 -3.169874582e-16 -4.928031859)
(251.667276 5.693401044e-16 -3.769591093)
(251.3748266 -2.995733205e-17 -2.851262475)
(251.1146085 8.308692514e-16 -2.135656682)
(250.8881858 4.229225429e-17 -1.586774387)
(250.6962101 1.864556433e-20 -1.171688839)
(250.5376448 -9.816287254e-16 -0.8615436453)
(250.4099345 -4.984927101e-17 -0.6320782285)
(250.3094169 -1.1141228e-20 -0.4635540003)
(250.2319391 4.498345125e-15 -0.3404174324)
(250.1733119 0 -0.2506875327)
(250.129673 -9.71267547e-17 -0.1853472831)
(250.0976578 1.617380334e-16 -0.1377002229)
(250.0744736 2.083897097e-15 -0.1028450923)
(250.0578684 0 -0.07721709757)
(250.0460536 0 -0.05825509433)
(250.0376556 -1.524805003e-16 -0.04408234864)
(250.0315345 4.142670767e-15 -0.03343507323)
(250.0268811 1.030101266e-16 -0.02525582729)
(250.0230985 2.610475919e-15 -0.01885743557)
(250.0190246 -1.096780103e-15 -0.01466725235)
(250.0173655 -1.777172807e-15 -0.008468956487)
(250.0093681 -5.740018491e-15 -0.01020342803)
(199.1285988 0 -36.07580143)
(243.2162207 6.320408792e-19 -42.95931738)
(268.8377161 0 -47.51876046)
(290.2524246 -2.729313424e-16 -51.6061165)
(304.1443087 7.872584162e-19 -54.44340207)
(306.8461465 5.061001859e-16 -54.76791879)
(306.3192171 -2.246568284e-16 -54.92000557)
(305.96929 -1.93878693e-16 -54.61684527)
(305.3444349 -2.906109519e-18 -54.80534661)
(304.8109 1.401756174e-16 -54.53716985)
(304.0589195 0 -54.60254198)
(303.2744179 1.00534422e-16 -54.41225486)
(302.3154714 -8.683413071e-17 -54.35542725)
(301.2030747 6.908262263e-17 -54.17923454)
(299.8741858 -5.064769286e-17 -54.01140984)
(298.3191036 0 -53.76745058)
(296.5014557 -1.032205877e-17 -53.46711691)
(294.3907348 -3.525247517e-17 -53.06989371)
(291.95686 -2.892491918e-19 -52.54545386)
(289.1743396 6.315798935e-17 -51.84306111)
(286.0332446 -2.13897851e-17 -50.90420067)
(282.5483929 -1.824109972e-17 -49.66411321)
(278.7798409 1.578019939e-17 -48.06291268)
(274.8347512 -1.330137015e-17 -46.04029402)
(270.8569479 6.934498441e-17 -43.54390905)
(267.027875 -2.00307458e-17 -40.57151692)
(263.5315891 -8.451769582e-17 -37.18422248)
(260.5102346 8.572970125e-17 -33.49030706)
(258.0441337 7.291061879e-17 -29.63573174)
(256.1403753 -1.048556125e-17 -25.77758525)
(254.7439456 -1.054248655e-16 -22.05594933)
(253.7623006 -1.198499913e-16 -18.57983502)
(253.0893337 1.891625793e-16 -15.42177155)
(252.6253651 1.710847489e-16 -12.62003525)
(252.2888546 0 -10.18620788)
(252.0208123 0 -8.112010945)
(251.7842001 -4.096904444e-16 -6.376135372)
(251.5600224 3.448602432e-16 -4.94880035)
(251.342244 5.983622496e-16 -3.795412192)
(251.1325378 -5.030495369e-16 -2.879129338)
(250.9359759 -1.61330066e-15 -2.163045496)
(250.7578595 6.666193724e-16 -1.611918684)
(250.6020252 1.190451307e-15 -1.193586937)
(250.470133 -3.022493037e-17 -0.8798265356)
(250.3618597 0 -0.6468231065)
(250.2753519 4.235517178e-17 -0.4751074432)
(250.2078802 -2.30004555e-15 -0.3492518511)
(250.1563498 5.906276907e-17 -0.2573031777)
(250.1177187 -4.921221361e-17 -0.1902120756)
(250.0892256 0 -0.1412204543)
(250.0685152 0 -0.1053555871)
(250.0536476 1.127224195e-16 -0.07898348676)
(250.0430562 2.982144382e-15 -0.05948147447)