/*--------------------------------*- C++ -*----------------------------------*\
  =========                 |
  \\      /  F ield         | OpenFOAM: The Open Source CFD Toolbox
   \\    /   O peration     | Website:  https://openfoam.org
    \\  /    A nd           | Version:  12
     \\/     M anipulation  |
\*---------------------------------------------------------------------------*/
FoamFile
{
    format      ascii;
    class       volScalarField;
    location    "0.081";
    object      alphat;
}
// * * * * * * * * * * * * * * * * * * * * * * * * * * * * * * * * * * * * * //

dimensions      [1 -1 -1 0 0 0 0];

internalField   nonuniform List<scalar> 
16000
(
5.0518219e-07
1.078217e-05
2.0364278e-05
2.6004045e-05
1.9881635e-05
2.7313525e-05
1.9311992e-05
2.6430967e-05
2.0661707e-05
2.839974e-05
2.3976032e-05
2.8113244e-05
2.5685038e-05
2.6368916e-05
2.5510703e-05
2.5386458e-05
2.5148457e-05
2.5103225e-05
2.5144534e-05
2.5293975e-05
2.5544008e-05
2.5893986e-05
2.6341588e-05
2.6887172e-05
2.7533447e-05
2.8287292e-05
2.9157908e-05
3.015981e-05
3.1310628e-05
3.262937e-05
3.4136983e-05
3.5861236e-05
3.7837923e-05
4.0111146e-05
4.2735143e-05
4.5774649e-05
4.93068e-05
5.3423634e-05
5.8239066e-05
6.3894143e-05
7.0554396e-05
7.84149e-05
8.7721438e-05
9.8774821e-05
0.00011193284
0.00012762454
0.00014638137
0.0001688501
0.00019581694
0.0002282385
0.00026728363
0.00031438325
0.00037128299
0.00044011772
0.00052350034
0.00062464303
0.00074750771
0.00089700755
0.0010792937
0.0011778092
0.0011785578
0.0011791809
0.0011797004
0.0011800558
0.0011802341
0.0011802028
0.0011799207
0.0011793367
0.0011783935
0.001177011
0.0011750697
0.0011726332
0.0011708073
0.0011697302
0.0011693269
0.0011695924
0.0011699988
0.0011705475
0.0011684916
0.0011672947
4.4877668e-07
1.0219156e-05
2.1333049e-05
2.3260596e-05
1.7909772e-05
2.4484149e-05
1.7125708e-05
2.3140912e-05
1.8236052e-05
2.5069067e-05
2.1682585e-05
2.5323682e-05
2.3463668e-05
2.3872586e-05
2.3208016e-05
2.3029685e-05
2.283531e-05
2.2784769e-05
2.2826481e-05
2.2964298e-05
2.3196069e-05
2.3520832e-05
2.3936929e-05
2.4444814e-05
2.5046666e-05
2.574893e-05
2.6559612e-05
2.7491814e-05
2.8562221e-05
2.9789349e-05
3.119269e-05
3.2797628e-05
3.4637285e-05
3.675249e-05
3.9193966e-05
4.2022552e-05
4.5311211e-05
4.9146373e-05
5.3634106e-05
5.8907892e-05
6.5126686e-05
7.2474047e-05
8.1181357e-05
9.1535317e-05
0.00010387933
0.00011862086
0.0001362664
0.00015743449
0.00018287879
0.00021351709
0.00025047145
0.00029511967
0.00034914512
0.00041461048
0.00049404312
0.00059055518
0.00070799311
0.00085112494
0.0010259051
0.0011772852
0.0011780456
0.0011786273
0.0011791141
0.0011794388
0.001179589
0.0011795343
0.001179235
0.0011786385
0.0011776886
0.0011763244
0.0011744485
0.0011720938
0.0011704015
0.0011694027
0.0011690517
0.0011692419
0.0011698408
0.0011703612
0.0011680601
0.0011674214
4.0344949e-07
9.7820774e-06
2.0142877e-05
2.1305539e-05
1.6029223e-05
2.1541582e-05
1.5237066e-05
2.0097694e-05
1.6385635e-05
2.1985528e-05
1.9755846e-05
2.2539046e-05
2.1240677e-05
2.136924e-05
2.0862417e-05
2.0660957e-05
2.050032e-05
2.0454611e-05
2.0498491e-05
2.0629223e-05
2.0846022e-05
2.1148343e-05
2.1534853e-05
2.2006271e-05
2.2564358e-05
2.3215322e-05
2.3966334e-05
2.4829284e-05
2.581974e-05
2.6955736e-05
2.8255782e-05
2.9743374e-05
3.1449427e-05
3.3411959e-05
3.5678601e-05
3.8306646e-05
4.1365411e-05
4.4936973e-05
4.9120868e-05
5.4043129e-05
5.9857441e-05
6.6738612e-05
7.4905814e-05
8.4632789e-05
9.6251726e-05
0.00011015292
0.00012682235
0.00014685555
0.00017097999
0.00020008301
0.00023524938
0.00027781483
0.00032941362
0.00039205266
0.00046819414
0.0005608741
0.00067385268
0.00081179975
0.00098054284
0.0011769481
0.0011777076
0.0011782322
0.0011786668
0.0011789424
0.0011790463
0.0011789497
0.0011786151
0.0011779895
0.0011770127
0.0011756374
0.0011738052
0.0011715421
0.0011699934
0.0011690871
0.0011687857
0.0011689524
0.0011695328
0.0011699251
0.0011679966
0.0011673152
3.594372e-07
9.4505252e-06
1.9096164e-05
1.9819995e-05
1.439954e-05
1.9009971e-05
1.3567432e-05
1.7555331e-05
1.4737974e-05
1.9371778e-05
1.8020253e-05
2.0076676e-05
1.9192559e-05
1.9118152e-05
1.872878e-05
1.8526507e-05
1.8395665e-05
1.83604e-05
1.8409568e-05
1.8537229e-05
1.8743138e-05
1.9027246e-05
1.9388573e-05
1.9828248e-05
2.0347759e-05
2.0953238e-05
2.1651307e-05
2.2452897e-05
2.3372521e-05
2.4427825e-05
2.5636668e-05
2.7020946e-05
2.8609789e-05
3.0438812e-05
3.2553038e-05
3.5006717e-05
3.7866034e-05
4.1209677e-05
4.5131999e-05
4.9752115e-05
5.5219692e-05
6.1702921e-05
6.9411158e-05
7.8606631e-05
8.9613455e-05
0.00010280871
0.00011866218
0.00013775156
0.00016078417
0.00018862507
0.00022233066
0.00026320585
0.000312849
0.00037322764
0.00044675881
0.00053642616
0.00064593076
0.00077987915
0.00094402488
0.0011455904
0.0011775756
0.0011780286
0.0011783945
0.0011786062
0.0011786502
0.001178499
0.0011781173
0.0011774538
0.0011764431
0.0011750421
0.0011732412
0.0011710797
0.0011696524
0.0011688181
0.0011685427
0.0011686859
0.001169263
0.0011696632
0.0011683476
0.0011674046
3.2416558e-07
9.2045774e-06
1.8193764e-05
1.9795657e-05
1.4415439e-05
1.6802629e-05
1.2104201e-05
1.5375189e-05
1.3323262e-05
1.7119385e-05
1.647958e-05
1.7861957e-05
1.728724e-05
1.7076249e-05
1.6773816e-05
1.6585789e-05
1.6479598e-05
1.6455499e-05
1.6508758e-05
1.6632825e-05
1.6827601e-05
1.7093712e-05
1.7430581e-05
1.7839873e-05
1.8322946e-05
1.8885953e-05
1.9535123e-05
2.0280628e-05
2.1135939e-05
2.2118275e-05
2.3245066e-05
2.4536888e-05
2.6021397e-05
2.7732147e-05
2.9711932e-05
3.201237e-05
3.469687e-05
3.7841399e-05
4.1536451e-05
4.5894585e-05
5.1062128e-05
5.720236e-05
6.4517017e-05
7.325757e-05
8.3742135e-05
9.6337642e-05
0.00011150065
0.00012979446
0.00015190992
0.00017869514
0.0002111836
0.00025065617
0.00029868284
0.00035720091
0.0004285934
0.00051580448
0.00062249114
0.00075321429
0.00091367774
0.001111038
0.0011776312
0.0011779992
0.0011782809
0.0011784142
0.0011783848
0.0011781662
0.0011777249
0.001177013
0.0011759621
0.0011745219
0.0011727294
0.0011706937
0.0011693727
0.0011685973
0.001168342
0.0011684582
0.0011689825
0.0011693763
0.0011686158
0.0011676798
3.0033324e-07
9.0535545e-06
1.7482146e-05
1.9498222e-05
1.413652e-05
1.4876351e-05
1.149669e-05
1.3577512e-05
1.246727e-05
1.5233648e-05
1.5136656e-05
1.5923721e-05
1.5554469e-05
1.5263043e-05
1.5015036e-05
1.4843224e-05
1.4752683e-05
1.473526e-05
1.4788748e-05
1.4906954e-05
1.5089663e-05
1.5338069e-05
1.5651812e-05
1.6033005e-05
1.6482969e-05
1.7007847e-05
1.7613549e-05
1.8309654e-05
1.9108626e-05
2.0027228e-05
2.1082665e-05
2.2294449e-05
2.3689084e-05
2.529842e-05
2.7163442e-05
2.9333605e-05
3.1869991e-05
3.4846435e-05
3.8350992e-05
4.249059e-05
4.7408552e-05
5.3265016e-05
6.0256874e-05
6.8625912e-05
7.8686471e-05
9.0798868e-05
0.00010540994
0.00012307284
0.00014446631
0.00017042806
0.00020197547
0.00024037396
0.00028717512
0.00034429764
0.00041410531
0.00049952
0.00060417451
0.00073260741
0.00089050528
0.0010850034
0.0011778636
0.001178134
0.0011783177
0.0011783597
0.0011782452
0.0011779484
0.0011774366
0.0011766662
0.0011755713
0.0011740873
0.0011722732
0.0011703924
0.0011691643
0.0011684362
0.0011681935
0.0011682704
0.0011687388
0.0011691783
0.0011688297
0.0011680202
2.6782392e-07
8.9678346e-06
1.6924061e-05
1.8415552e-05
1.4019877e-05
1.3138746e-05
1.1514085e-05
1.2528554e-05
1.1884142e-05
1.3585224e-05
1.3934178e-05
1.4215812e-05
1.3952272e-05
1.3625937e-05
1.3408408e-05
1.3252894e-05
1.3173811e-05
1.3161894e-05
1.3215381e-05
1.332877e-05
1.3501424e-05
1.3735032e-05
1.4029151e-05
1.4302208e-05
1.4713504e-05
1.5196697e-05
1.5756873e-05
1.6402814e-05
1.7145778e-05
1.8001709e-05
1.8987557e-05
2.012181e-05
2.1429916e-05
2.2942104e-05
2.4697687e-05
2.6744148e-05
2.9140395e-05
3.1958176e-05
3.5283989e-05
3.9516053e-05
4.423269e-05
4.9861727e-05
5.6598046e-05
6.4675159e-05
7.4404934e-05
8.6144519e-05
0.00010033442
0.00011752156
0.00013837627
0.00016373199
0.00019459617
0.00023222664
0.00027816551
0.00033432333
0.00040305765
0.00048728382
0.00059062853
0.00071762853
0.00087397933
0.0010668343
0.0011782557
0.0011784177
0.0011784916
0.0011784312
0.0011782215
0.0011778376
0.0011772463
0.0011764073
0.0011752638
0.0011737417
0.0011718861
0.0011701768
0.0011690323
0.0011683432
0.0011681088
0.0011681355
0.0011685209
0.001168958
0.0011689554
0.0011682386
2.4242547e-07
8.9194011e-06
1.6448272e-05
1.6731803e-05
1.2762167e-05
1.1450319e-05
9.8937336e-06
1.1158719e-05
1.0405246e-05
1.2216945e-05
1.2725154e-05
1.2649078e-05
1.2426449e-05
1.2109164e-05
1.191675e-05
1.1782432e-05
1.1717555e-05
1.17144e-05
1.1700246e-05
1.1794847e-05
1.1948669e-05
1.2162422e-05
1.2433767e-05
1.2763544e-05
1.3156553e-05
1.3616525e-05
1.4148869e-05
1.4762282e-05
1.5467415e-05
1.6279739e-05
1.7216427e-05
1.8295425e-05
1.9541682e-05
2.0984408e-05
2.2661952e-05
2.4620561e-05
2.6917852e-05
2.9624312e-05
3.2825927e-05
3.662738e-05
4.1156244e-05
4.6573918e-05
5.3075429e-05
6.14011e-05
7.0894274e-05
8.2372537e-05
9.6273864e-05
0.00011314273
0.00013364492
0.00015861618
0.00018906052
0.00022623646
0.0002716864
0.00032732389
0.00039551425
0.00047918351
0.0005819723
0.00070843853
0.00086431419
0.0010568095
0.0011787878
0.0011788322
0.0011787871
0.0011786157
0.0011783025
0.0011778243
0.0011771472
0.0011762311
0.0011750319
0.0011734844
0.0011716091
0.001170047
0.0011689802
0.0011683215
0.0011680894
0.0011680642
0.0011683668
0.0011687677
0.0011689874
0.0011682554
2.2406264e-07
8.8723905e-06
1.5951592e-05
1.4646955e-05
1.0490802e-05
1.0180405e-05
8.1612465e-06
9.5147018e-06
9.7198846e-06
1.0986254e-05
1.1503206e-05
1.119485e-05
1.0990946e-05
1.0707874e-05
1.0541065e-05
1.0357897e-05
1.0282166e-05
1.0273346e-05
1.0323764e-05
1.0430469e-05
1.0589325e-05
1.0802258e-05
1.1068493e-05
1.1388304e-05
1.1766621e-05
1.2208149e-05
1.2718342e-05
1.3305935e-05
1.3981166e-05
1.4759019e-05
1.5657005e-05
1.6692789e-05
1.7891154e-05
1.9280611e-05
2.0898934e-05
2.2791648e-05
2.5015619e-05
2.7640681e-05
3.0752176e-05
3.4453936e-05
3.887399e-05
4.4171521e-05
5.0544828e-05
5.8223828e-05
6.7503028e-05
7.874846e-05
9.3215524e-05
0.00010992275
0.000130258
0.00015506556
0.00018535296
0.00022238787
0.00026772299
0.00032328639
0.0003914655
0.00047521508
0.00057821091
0.00070505626
0.00086154714
0.0010549884
0.0011794371
0.0011793567
0.0011791862
0.0011788975
0.001178475
0.0011778971
0.0011771306
0.0011761329
0.0011748693
0.0011733028
0.0011714389
0.0011700049
0.0011690106
0.0011683776
0.0011681449
0.001168063
0.0011682888
0.0011686115
0.0011688105
0.0011679878
2.0509925e-07
8.8272579e-06
1.4381901e-05
1.2778406e-05
8.4880192e-06
9.0402093e-06
7.2698698e-06
8.5878992e-06
8.9995621e-06
9.8321376e-06
1.029561e-05
9.8713177e-06
9.6730578e-06
9.3390842e-06
9.1616583e-06
9.0537689e-06
9.0127147e-06
9.029402e-06
9.0976022e-06
9.2147091e-06
9.3803857e-06
9.5932226e-06
9.8556988e-06
1.016815e-05
1.0535711e-05
1.096352e-05
1.1457203e-05
1.2025674e-05
1.2678916e-05
1.3431463e-05
1.4301232e-05
1.5305957e-05
1.6470511e-05
1.7823026e-05
1.9401066e-05
2.1249899e-05
2.3426147e-05
2.5999602e-05
2.9056021e-05
3.2699782e-05
3.7059106e-05
4.2292834e-05
4.8603039e-05
5.6219897e-05
6.5440777e-05
7.6634407e-05
9.0254969e-05
0.00010683523
0.00012821238
0.00015307949
0.00018347692
0.00022068982
0.00026629207
0.00032223854
0.00039095409
0.00047544136
0.00057943448
0.00070760893
0.0008658541
0.0010616066
0.0011801786
0.0011799686
0.0011796689
0.0011792596
0.0011787244
0.0011780434
0.0011771859
0.0011761071
0.0011747721
0.0011731832
0.001171376
0.0011700522
0.0011691249
0.0011685157
0.0011682787
0.0011681332
0.0011682887
0.0011685218
0.0011686088
0.001167837
1.8924131e-07
8.7808028e-06
1.1422992e-05
1.0597778e-05
6.9775545e-06
8.0481761e-06
6.6291269e-06
7.7188531e-06
8.4225122e-06
8.7857186e-06
9.1133289e-06
8.5767482e-06
8.3271094e-06
8.0978564e-06
7.9693189e-06
7.9016783e-06
7.8902451e-06
7.9288887e-06
8.0128291e-06
8.1410431e-06
8.311205e-06
8.5258905e-06
8.7870025e-06
9.0953759e-06
9.4562564e-06
9.8752648e-06
1.0358323e-05
1.0914593e-05
1.1554023e-05
1.2290779e-05
1.3076066e-05
1.4050758e-05
1.5183279e-05
1.6501352e-05
1.8042335e-05
1.9851281e-05
2.1984649e-05
2.4512259e-05
2.7520433e-05
3.1114422e-05
3.542382e-05
4.0927581e-05
4.7240603e-05
5.4874762e-05
6.4130486e-05
7.5380638e-05
8.9092685e-05
0.0001058124
0.00012622793
0.0001511969
0.00018343331
0.00022114945
0.00026740943
0.000324208
0.00039402362
0.00047992758
0.0005857372
0.00071622997
0.0008774208
0.0010769134
0.0011809858
0.0011806436
0.0011802142
0.0011796835
0.0011790352
0.0011782498
0.001177301
0.0011761461
0.0011747407
0.0011731124
0.0011714216
0.0011701901
0.0011693213
0.0011687367
0.0011684858
0.0011682763
0.0011683614
0.0011685145
0.0011685292
0.0011679526
1.7522887e-07
8.7373213e-06
9.0198977e-06
9.0248554e-06
6.1422301e-06
7.1367926e-06
6.0908164e-06
6.9614126e-06
7.838501e-06
7.812038e-06
7.8333624e-06
7.3782329e-06
7.1755365e-06
7.0094991e-06
6.9224738e-06
6.8883154e-06
6.902221e-06
6.9600978e-06
7.0581619e-06
7.1964085e-06
7.373634e-06
7.5919515e-06
7.8544023e-06
8.1623264e-06
8.5210664e-06
8.8984701e-06
9.3691194e-06
9.912335e-06
1.0537931e-05
1.1259608e-05
1.2093879e-05
1.30622e-05
1.41888e-05
1.550154e-05
1.7038204e-05
1.8844402e-05
2.0977392e-05
2.350804e-05
2.6524542e-05
3.0134542e-05
3.4470896e-05
3.9699548e-05
4.6023709e-05
5.3686938e-05
6.2995043e-05
7.4974121e-05
8.8910326e-05
0.00010592602
0.00012672244
0.000152185
0.00018339536
0.00022377533
0.00027109455
0.00032922882
0.00040072743
0.00048875263
0.00059723183
0.00073107743
0.00089646667
0.0011012036
0.0011818319
0.0011813574
0.0011808001
0.0011801503
0.0011793912
0.0011785035
0.0011774639
0.001176239
0.0011747786
0.0011730946
0.0011715724
0.0011704189
0.0011695919
0.0011690396
0.0011687441
0.001168496
0.0011685003
0.0011685673
0.0011685506
0.0011679264
1.6276431e-07
8.6861834e-06
7.182762e-06
7.9273868e-06
5.4780283e-06
6.3199892e-06
5.6313888e-06
6.2939889e-06
7.143747e-06
6.70716e-06
6.6795284e-06
6.3310577e-06
6.171669e-06
6.0566837e-06
6.0052393e-06
6.0000086e-06
6.0365546e-06
6.1123398e-06
6.2244574e-06
6.3736092e-06
6.5592782e-06
6.7838398e-06
7.021219e-06
7.326002e-06
7.681284e-06
8.0920281e-06
8.5664652e-06
9.1134342e-06
9.7430125e-06
1.0469162e-05
1.1308603e-05
1.2282595e-05
1.3416844e-05
1.4739683e-05
1.628962e-05
1.8113244e-05
2.026923e-05
2.2830079e-05
2.5886681e-05
2.9550263e-05
3.3957191e-05
3.9277349e-05
4.5724639e-05
5.3549054e-05
6.306635e-05
7.4669175e-05
8.8845152e-05
0.00010618348
0.00012853176
0.00015471688
0.00018683654
0.00022627473
0.00027736115
0.00033733014
0.00041111437
0.00050199139
0.0006140277
0.0007523056
0.00092320828
0.0011347745
0.0011826906
0.001182086
0.0011814055
0.0011806407
0.0011797759
0.0011787914
0.0011776642
0.0011763714
0.0011748842
0.0011732051
0.0011718195
0.0011707371
0.0011699294
0.0011693824
0.0011690788
0.0011687923
0.0011687007
0.0011686525
0.0011685905
0.0011681243
1.517189e-07
8.6234513e-06
5.7676267e-06
6.9332098e-06
4.8882155e-06
5.5955233e-06
5.241996e-06
5.6143878e-06
6.2682286e-06
5.7484204e-06
5.6676585e-06
5.4153821e-06
5.296944e-06
5.2246336e-06
5.2048622e-06
5.2258147e-06
5.2836517e-06
5.376982e-06
5.5037327e-06
5.6440927e-06
5.8337009e-06
6.062159e-06
6.332228e-06
6.6474674e-06
7.0129265e-06
7.434004e-06
7.918866e-06
8.4770847e-06
9.1190147e-06
9.8588393e-06
1.0713462e-05
1.1704457e-05
1.2800122e-05
1.4134166e-05
1.5698384e-05
1.754032e-05
1.9720308e-05
2.2312557e-05
2.5410725e-05
2.9130234e-05
3.3612164e-05
3.9327965e-05
4.5959951e-05
5.4020245e-05
6.3835923e-05
7.5811484e-05
9.0458755e-05
0.0001083941
0.00013037231
0.00015877449
0.00019208502
0.00023300972
0.00028332048
0.00034852582
0.00042521693
0.00051969995
0.0006362128
0.00078004289
0.0009578293
0.0011778901
0.0011835368
0.0011828067
0.0011820099
0.0011811366
0.0011801725
0.0011790996
0.0011778936
0.0011765331
0.0011750243
0.0011734229
0.0011721518
0.0011711357
0.0011703519
0.0011697924
0.0011694584
0.0011691586
0.0011689696
0.001168803
0.0011687061
0.0011684231
1.419443e-07
8.5076409e-06
4.6881908e-06
6.0497173e-06
4.3626977e-06
4.9517886e-06
4.9040031e-06
4.8751591e-06
5.384481e-06
4.893538e-06
4.7908855e-06
4.6178753e-06
4.5386029e-06
4.5033114e-06
4.5125186e-06
4.5579059e-06
4.6363758e-06
4.7287255e-06
4.8647812e-06
5.0353974e-06
5.2417429e-06
5.4857379e-06
5.7709135e-06
6.1010605e-06
6.4818767e-06
6.9190666e-06
7.4208915e-06
7.9735236e-06
8.6288196e-06
9.383102e-06
1.0253364e-05
1.126125e-05
1.2433235e-05
1.380258e-05
1.5408983e-05
1.7301628e-05
1.9543681e-05
2.2212261e-05
2.5404895e-05
2.9243036e-05
3.387447e-05
3.9485392e-05
4.6300952e-05
5.4598481e-05
6.4719646e-05
7.7731949e-05
9.2979679e-05
0.00011166543
0.00013458284
0.00016271114
0.00019911074
0.00024186446
0.00029445084
0.0003591592
0.00044303169
0.00054189211
0.00066382445
0.00081435604
0.0010004316
0.0011851628
0.0011843472
0.0011834995
0.0011825951
0.0011816216
0.0011805656
0.0011794124
0.001178141
0.0011767234
0.0011751759
0.0011737275
0.0011725538
0.0011715942
0.0011708276
0.0011702544
0.0011698908
0.0011695771
0.001169316
0.0011690544
0.0011688655
0.0011684841
1.3335169e-07
8.1891497e-06
3.9423829e-06
5.2664127e-06
3.8961604e-06
4.3827469e-06
4.3669853e-06
4.2070997e-06
4.5319337e-06
4.13757e-06
4.0396572e-06
3.9299642e-06
3.8876793e-06
3.8852742e-06
3.9212473e-06
3.9752419e-06
4.0669237e-06
4.1918305e-06
4.3492826e-06
4.5397563e-06
4.765113e-06
5.0278488e-06
5.3319703e-06
5.6815919e-06
6.0691556e-06
6.5235373e-06
7.0432766e-06
7.6379524e-06
8.3195979e-06
9.1025511e-06
1.000428e-05
1.1047354e-05
1.2259388e-05
1.3674983e-05
1.5336657e-05
1.7295504e-05
1.9618204e-05
2.2385672e-05
2.5699648e-05
2.9689072e-05
3.4507953e-05
4.0352278e-05
4.7462378e-05
5.6128645e-05
6.6712877e-05
7.9658988e-05
9.6361491e-05
0.00011595209
0.00013999161
0.000169522
0.00020579921
0.00025278026
0.00030805587
0.00037610392
0.00045990551
0.00056850667
0.00069680943
0.00085520333
0.0010509754
0.0011860196
0.0011851012
0.0011841471
0.0011831449
0.0011820814
0.0011809426
0.0011797154
0.0011783883
0.0011769443
0.0011753938
0.0011740954
0.0011730089
0.0011720992
0.001171348
0.0011707632
0.001170368
0.0011700476
0.0011697239
0.0011693879
0.0011691578
0.0011688599
1.2601741e-07
7.7669556e-06
3.4752553e-06
4.5725051e-06
3.4823694e-06
3.7165948e-06
3.8936473e-06
3.5952712e-06
3.7602169e-06
3.4807862e-06
3.4042137e-06
3.3447022e-06
3.3362978e-06
3.3635407e-06
3.4074724e-06
3.4932563e-06
3.611008e-06
3.7595964e-06
3.9393326e-06
4.1514925e-06
4.3985395e-06
4.6832761e-06
5.0005915e-06
5.3706181e-06
5.7925633e-06
6.273161e-06
6.8205024e-06
7.4445161e-06
8.1574988e-06
8.9747177e-06
9.9142292e-06
1.099961e-05
1.2259787e-05
1.3731174e-05
1.5392812e-05
1.7414479e-05
1.9813886e-05
2.2676374e-05
2.6265395e-05
3.0436461e-05
3.5480454e-05
4.1603189e-05
4.9061645e-05
5.8162605e-05
6.9287345e-05
8.2907948e-05
9.9603698e-05
0.00012008572
0.00014652535
0.0001776731
0.00021595816
0.0002630419
0.00032401584
0.00039589808
0.00048444418
0.00059936788
0.00073497307
0.00090237439
0.0011092262
0.0011867982
0.0011857844
0.0011847357
0.0011836463
0.0011825035
0.0011812932
0.0011800009
0.0011786187
0.0011771618
0.0011756939
0.0011745083
0.0011735025
0.0011726393
0.0011719034
0.0011713102
0.0011708837
0.0011705446
0.0011701879
0.0011698367
0.00116964
0.0011693734
1.2023846e-07
6.8019552e-06
3.0775617e-06
3.9430702e-06
3.1260317e-06
3.1017092e-06
3.4222192e-06
3.0412537e-06
3.0973333e-06
2.919755e-06
2.8723937e-06
2.853795e-06
2.867812e-06
2.914222e-06
2.996438e-06
3.1101111e-06
3.253315e-06
3.4260286e-06
3.6293841e-06
3.8651341e-06
4.1302039e-06
4.437442e-06
4.7870853e-06
5.1839436e-06
5.6337578e-06
6.1434874e-06
6.7215956e-06
7.3784062e-06
8.1266206e-06
8.9625079e-06
9.9381184e-06
1.1063365e-05
1.2368424e-05
1.3891106e-05
1.56787e-05
1.7790324e-05
2.029907e-05
2.3296428e-05
2.6895914e-05
3.123777e-05
3.6496128e-05
4.3194203e-05
5.1049533e-05
6.064573e-05
7.2385076e-05
8.6767797e-05
0.00010440936
0.00012606771
0.00015407644
0.0001870414
0.00022758081
0.00027745372
0.00034212924
0.00041830671
0.0005121715
0.00062788966
0.0007779241
0.00095541608
0.0011746575
0.001187488
0.0011863867
0.0011852556
0.0011840899
0.001182878
0.0011816075
0.001180265
0.0011788372
0.0011773473
0.001176047
0.0011749549
0.0011740222
0.0011732059
0.0011724908
0.0011718956
0.0011714362
0.0011710627
0.0011706838
0.0011703464
0.0011702296
0.0011699825
1.1561222e-07
4.7601127e-06
2.7192733e-06
3.3591198e-06
2.6738001e-06
2.5870838e-06
2.9251808e-06
2.5478725e-06
2.5455289e-06
2.4473671e-06
2.4329335e-06
2.4419347e-06
2.4868638e-06
2.5673129e-06
2.6789388e-06
2.8192737e-06
2.987711e-06
3.1849644e-06
3.4095474e-06
3.6685682e-06
3.9632902e-06
4.297102e-06
4.6741153e-06
5.0993234e-06
5.5787453e-06
6.1196357e-06
6.7308037e-06
7.4118863e-06
8.1940089e-06
9.0858949e-06
1.0107972e-05
1.1285622e-05
1.2650838e-05
1.42438e-05
1.6114884e-05
1.8326872e-05
2.0957799e-05
2.4104757e-05
2.7888544e-05
3.2459059e-05
3.8002064e-05
4.4746631e-05
5.3370066e-05
6.3512975e-05
7.5930743e-05
9.1154176e-05
0.00010983707
0.00013278621
0.00016099695
0.00019745231
0.00024046085
0.00029339137
0.00035856534
0.00044296865
0.00054265074
0.00066555432
0.0008250202
0.0010135563
0.0011892633
0.0011880827
0.001186903
0.0011857015
0.0011844707
0.0011831999
0.0011818772
0.0011804953
0.0011790612
0.0011776174
0.0011764319
0.0011754245
0.0011745569
0.0011737883
0.0011731009
0.0011725087
0.0011720222
0.0011715914
0.0011711573
0.0011708542
0.0011708407
0.0011706467
1.1072016e-07
3.9531358e-06
2.3436268e-06
2.8214208e-06
2.3060455e-06
2.1576924e-06
2.4101877e-06
2.1146128e-06
2.0969138e-06
2.0595147e-06
2.0738932e-06
2.1173558e-06
2.1980892e-06
2.3091187e-06
2.4478914e-06
2.6135203e-06
2.8063816e-06
3.0255522e-06
3.2766752e-06
3.5611051e-06
3.8818461e-06
4.2425319e-06
4.6475055e-06
5.101953e-06
5.612105e-06
6.1854874e-06
6.8237052e-06
7.5497705e-06
8.3724116e-06
9.3087715e-06
1.0380423e-05
1.1614307e-05
1.3044313e-05
1.4713054e-05
1.6674168e-05
1.899481e-05
2.1758362e-05
2.5068169e-05
2.9052776e-05
3.3871088e-05
3.9720399e-05
4.7183537e-05
5.5956122e-05
6.6685775e-05
7.9831512e-05
9.5956559e-05
0.00011575523
0.0001400843
0.00017157592
0.00020867149
0.00025431429
0.00031050696
0.00037971823
0.00046937062
0.00057526573
0.00070584437
0.00087531488
0.0010756279
0.0011898182
0.0011885788
0.001187333
0.0011860719
0.0011847866
0.0011834683
0.0011821054
0.0011806869
0.0011792349
0.0011779361
0.0011768411
0.0011759062
0.0011750942
0.0011743705
0.0011737162
0.0011731357
0.0011726256
0.0011721339
0.0011716317
0.0011713084
0.0011714383
0.0011713522
1.0741271e-07
3.18326e-06
2.0204411e-06
2.2793431e-06
2.0040281e-06
1.7901515e-06
1.9311655e-06
1.7469498e-06
1.7445423e-06
1.755883e-06
1.8002324e-06
1.8814296e-06
1.9928962e-06
2.1307114e-06
2.293902e-06
2.4827795e-06
2.6973068e-06
2.9411948e-06
3.2163128e-06
3.5254132e-06
3.8717841e-06
4.2592699e-06
4.6923768e-06
5.17644e-06
5.7178614e-06
6.3201175e-06
6.9990861e-06
7.7636376e-06
8.6281164e-06
9.6105335e-06
1.0733761e-05
1.2026386e-05
1.3524408e-05
1.5273028e-05
1.7329103e-05
1.9764134e-05
2.2667512e-05
2.6148991e-05
3.0345654e-05
3.5426302e-05
4.1873695e-05
4.946004e-05
5.8726707e-05
7.0069535e-05
8.3974165e-05
0.00010103922
0.00012200158
0.00014777112
0.00018108737
0.00022039136
0.00026877093
0.00032835141
0.00040175907
0.00049680946
0.00060916245
0.00074772254
0.000927517
0.0011400472
0.0011902728
0.001188981
0.0011876809
0.0011863705
0.0011850398
0.0011836815
0.0011822916
0.0011808725
0.0011794568
0.0011782778
0.0011772639
0.0011763895
0.0011756224
0.0011749358
0.0011743135
0.0011737497
0.0011732259
0.0011726967
0.0011721653
0.0011717835
0.0011719742
0.001172021
1.0599322e-07
2.508165e-06
1.7409581e-06
1.7589583e-06
1.7258234e-06
1.4757806e-06
1.5398869e-06
1.4538382e-06
1.4820279e-06
1.5284059e-06
1.6112211e-06
1.7227499e-06
1.8595571e-06
2.020116e-06
2.2047518e-06
2.414667e-06
2.6508636e-06
2.9168872e-06
3.2148953e-06
3.5479023e-06
3.9193686e-06
4.3332829e-06
4.7942788e-06
5.3078161e-06
5.8804329e-06
6.5200873e-06
7.2366022e-06
8.0422e-06
8.9419516e-06
9.9710614e-06
1.1146706e-05
1.2499231e-05
1.4066893e-05
1.5897728e-05
1.8051878e-05
2.068831e-05
2.3758005e-05
2.7442786e-05
3.1889055e-05
3.7277477e-05
4.3830666e-05
5.1822531e-05
6.1591676e-05
7.3555203e-05
8.8227257e-05
0.00010624207
0.00012838071
0.00015696558
0.00019071082
0.00023223825
0.0002833708
0.00034635979
0.00042800036
0.00052440114
0.00064325739
0.00078986559
0.00097997433
0.0011920102
0.0011906382
0.001189299
0.0011879544
0.0011866043
0.001185239
0.001183849
0.0011824295
0.0011810046
0.001179719
0.001178629
0.0011776877
0.0011768651
0.0011761344
0.0011754758
0.0011748788
0.0011743326
0.0011738057
0.0011732551
0.0011727217
0.0011724207
0.0011724817
0.001172384
1.0752208e-07
1.9303446e-06
1.5079204e-06
1.3602212e-06
1.4420103e-06
1.2122066e-06
1.2534127e-06
1.2389934e-06
1.2997492e-06
1.3804407e-06
1.4916736e-06
1.6265751e-06
1.7838765e-06
1.9637312e-06
2.1673829e-06
2.3966009e-06
2.6531802e-06
2.9401794e-06
3.2601673e-06
3.6162934e-06
4.0121242e-06
4.4517462e-06
4.939901e-06
5.4821766e-06
6.0852727e-06
6.75736e-06
7.5085594e-06
8.3515422e-06
9.3022765e-06
1.0380972e-05
1.161319e-05
1.3031321e-05
1.4676196e-05
1.659917e-05
1.8864548e-05
2.1552566e-05
2.4763089e-05
2.8620394e-05
3.3278315e-05
3.8927354e-05
4.5802916e-05
5.419475e-05
6.4457477e-05
7.7030738e-05
9.2455054e-05
0.00011231927
0.00013577751
0.00016461979
0.00020010603
0.00024379284
0.00029760075
0.00036731756
0.00044964265
0.00055113126
0.00067629998
0.00083879758
0.0010307436
0.0011923291
0.0011909275
0.0011895472
0.0011881661
0.0011867822
0.0011853899
0.0011839844
0.0011825653
0.0011811654
0.0011799929
0.0011789804
0.0011781021
0.0011773266
0.0011766293
0.0011759945
0.0011754162
0.0011748851
0.0011743709
0.0011738341
0.0011733103
0.0011729826
0.0011729723
0.0011728593
1.1315786e-07
1.4560318e-06
1.318597e-06
1.0691003e-06
1.2868432e-06
9.9351556e-07
1.0589382e-06
1.09671e-06
1.184242e-06
1.2924559e-06
1.4246129e-06
1.5776794e-06
1.7520712e-06
1.948943e-06
2.1700283e-06
2.4173583e-06
2.6932434e-06
3.0000831e-06
3.3410079e-06
3.7191423e-06
4.1381331e-06
4.6021586e-06
5.1160715e-06
5.6856e-06
6.3176235e-06
7.0205465e-06
7.8048025e-06
8.6835405e-06
9.6733833e-06
1.0795462e-05
1.2076536e-05
1.3550597e-05
1.5260536e-05
1.7260338e-05
1.9617614e-05
2.2416761e-05
2.5762722e-05
2.9785641e-05
3.4646541e-05
4.0544359e-05
4.8050103e-05
5.688708e-05
6.7694406e-05
8.0934514e-05
9.7176345e-05
0.00011712138
0.00014163517
0.00017178593
0.00020888856
0.00025695278
0.00031365489
0.00038351355
0.00046962425
0.00057581572
0.00071371578
0.00087656609
0.0010774875
0.0011925792
0.0011911519
0.0011897418
0.0011883336
0.0011869226
0.0011855036
0.0011840769
0.0011826619
0.0011813631
0.001180269
0.0011793237
0.0011784996
0.0011777682
0.0011771062
0.0011764987
0.0011759386
0.0011754161
0.0011749062
0.0011743831
0.0011738868
0.0011735672
0.0011735067
0.001173337
1.235373e-07
1.1473686e-06
1.155544e-06
9.2842612e-07
9.4069758e-07
8.68704e-07
9.3109088e-07
1.0108912e-06
1.1191203e-06
1.2468107e-06
1.3948089e-06
1.5629229e-06
1.7523936e-06
1.9647684e-06
2.2019297e-06
2.4659784e-06
2.7592633e-06
3.0844018e-06
3.4443266e-06
3.8423405e-06
4.2821953e-06
4.7681989e-06
5.3053652e-06
5.8996284e-06
6.5581395e-06
7.2871006e-06
8.1010612e-06
9.0120127e-06
1.0046123e-05
1.1211515e-05
1.2542304e-05
1.4074226e-05
1.5852339e-05
1.7933276e-05
2.0387915e-05
2.3304613e-05
2.6793153e-05
3.0989584e-05
3.606213e-05
4.2218524e-05
4.9715038e-05
5.8867651e-05
7.0065631e-05
8.3786427e-05
0.00010062074
0.00012129602
0.00014801543
0.00017951703
0.00021827491
0.00026599133
0.000324769
0.00039721057
0.00048653434
0.00060239255
0.0007393475
0.00090834551
0.0011169111
0.0011927822
0.0011913306
0.0011898963
0.00118847
0.0011870448
0.0011856146
0.0011841805
0.0011827766
0.0011815764
0.0011805447
0.0011796543
0.0011788755
0.0011781835
0.0011775566
0.0011769796
0.0011764422
0.0011759315
0.0011754252
0.0011749085
0.0011744259
0.0011740997
0.0011739813
0.0011738215
1.4497739e-07
1.1872444e-06
9.9407713e-07
7.0776665e-07
7.6807787e-07
7.7625078e-07
8.6035408e-07
9.6290028e-07
1.0875077e-06
1.229966e-06
1.3914533e-06
1.572906e-06
1.7758462e-06
2.001934e-06
2.2530799e-06
2.5314135e-06
2.8393182e-06
3.1794629e-06
3.5548451e-06
3.9688449e-06
4.4252988e-06
4.9286041e-06
5.4838684e-06
6.0971245e-06
6.7756347e-06
7.5283086e-06
8.3662578e-06
9.3035061e-06
1.0357892e-05
1.1552142e-05
1.2915169e-05
1.4483688e-05
1.6304053e-05
1.8434546e-05
2.0948087e-05
2.393554e-05
2.7509747e-05
3.1810428e-05
3.7010209e-05
4.3322036e-05
5.1008452e-05
6.0825278e-05
7.2396174e-05
8.6570341e-05
0.00010395738
0.00012530766
0.00015154768
0.00018382167
0.00022354355
0.00027245919
0.00033273254
0.00041079744
0.00050311043
0.00061698584
0.00075752395
0.0009310236
0.00114523
0.0011929784
0.001191499
0.0011900374
0.0011885902
0.0011871515
0.0011857174
0.0011842929
0.0011829283
0.001181797
0.0011808173
0.0011799704
0.0011792283
0.0011785682
0.0011779704
0.0011774193
0.0011769026
0.001176408
0.0011759204
0.0011754328
0.0011749737
0.0011746087
0.0011743475
0.0011739966
1.3813123e-07
7.8953004e-07
8.1435359e-07
6.0314828e-07
6.6098766e-07
7.2187335e-07
8.2441302e-07
9.4369761e-07
1.0813673e-06
1.2364432e-06
1.4101914e-06
1.6038321e-06
1.8189148e-06
2.0571651e-06
2.3205339e-06
2.6112091e-06
2.9316439e-06
3.2845473e-06
3.673057e-06
4.1006183e-06
4.5711575e-06
5.0891641e-06
5.6598411e-06
6.2893214e-06
6.9849787e-06
7.7558531e-06
8.6132173e-06
9.5713103e-06
1.0656864e-05
1.187968e-05
1.327521e-05
1.4881154e-05
1.6745045e-05
1.8926595e-05
2.1500447e-05
2.4559566e-05
2.8219332e-05
3.2622576e-05
3.7945767e-05
4.4406599e-05
5.2273333e-05
6.1876203e-05
7.3621466e-05
8.8010953e-05
0.00010566254
0.00012733888
0.00015398172
0.00018839329
0.00022902998
0.00027906423
0.00034071104
0.00041671004
0.00051045524
0.00062615038
0.0007689995
0.00094543604
0.0011633734
0.0011932134
0.0011917087
0.0011902185
0.0011887428
0.0011872783
0.0011858261
0.001184405
0.0011831124
0.0011820239
0.0011810847
0.0011802708
0.0011795569
0.0011789211
0.001178344
0.001177809
0.001177304
0.0011768199
0.0011763494