/*--------------------------------*- C++ -*----------------------------------*\
  =========                 |
  \\      /  F ield         | OpenFOAM: The Open Source CFD Toolbox
   \\    /   O peration     | Website:  https://openfoam.org
    \\  /    A nd           | Version:  12
     \\/     M anipulation  |
\*---------------------------------------------------------------------------*/
FoamFile
{
    format      ascii;
    class       volScalarField;
    location    "0.081";
    object      nut;
}
// * * * * * * * * * * * * * * * * * * * * * * * * * * * * * * * * * * * * * //

dimensions      [0 2 -1 0 0 0 0];

internalField   nonuniform List<scalar> 
16000
(
4.7764629e-07
9.9018072e-06
1.9139936e-05
2.3936193e-05
1.8383639e-05
2.5181754e-05
1.7818175e-05
2.4348489e-05
1.9028969e-05
2.6128285e-05
2.2044293e-05
2.582513e-05
2.3575781e-05
2.418193e-05
2.3373953e-05
2.3238208e-05
2.2997979e-05
2.2933479e-05
2.2947286e-05
2.3058821e-05
2.3260891e-05
2.3552595e-05
2.3931493e-05
2.4397573e-05
2.4952941e-05
2.5603454e-05
2.635703e-05
2.7226335e-05
2.8226763e-05
2.9374858e-05
3.0688806e-05
3.2192807e-05
3.3918112e-05
3.5903227e-05
3.8195502e-05
4.0851381e-05
4.3938048e-05
4.7535572e-05
5.1743027e-05
5.6683029e-05
6.2499236e-05
6.9360713e-05
7.7480476e-05
8.7119044e-05
9.8585909e-05
0.00011225187
0.00012857609
0.00014811705
0.0001715532
0.00019970955
0.00023359363
0.0002744383
0.00032374694
0.00038335745
0.00045551863
0.00054299435
0.00064919288
0.00077834028
0.00093572744
0.0010201887
0.0010200535
0.0010198528
0.0010196041
0.0010192537
0.0010187885
0.0010181786
0.0010173858
0.0010163626
0.0010150564
0.001013395
0.0010112735
0.0010087456
0.0010067693
0.0010054606
0.001004772
0.0010047335
0.001004734
0.0010055034
0.0010026403
0.0010032147
4.2598451e-07
9.4081561e-06
1.9868911e-05
2.1488879e-05
1.6608696e-05
2.2627802e-05
1.5843451e-05
2.1368367e-05
1.6837916e-05
2.3118455e-05
1.9983362e-05
2.3315506e-05
2.1584618e-05
2.1939385e-05
2.1307891e-05
2.1122561e-05
2.0922227e-05
2.0853154e-05
2.0867799e-05
2.0969388e-05
2.1155636e-05
2.1425354e-05
2.1776706e-05
2.2209768e-05
2.2726172e-05
2.3331398e-05
2.4032301e-05
2.4840291e-05
2.5769941e-05
2.6837379e-05
2.8059513e-05
2.9458439e-05
3.1063061e-05
3.2909014e-05
3.5040567e-05
3.7510766e-05
4.0383154e-05
4.3732902e-05
4.7652216e-05
5.2257121e-05
5.7685591e-05
6.4096654e-05
7.169078e-05
8.0716263e-05
9.1470177e-05
0.00010430462
0.00011965716
0.00013806189
0.00016016914
0.0001867704
0.00021883288
0.0002575437
0.00030435268
0.00036103571
0.00042976807
0.00051322763
0.00061472343
0.00073835683
0.00088924951
0.0010195089
0.0010193986
0.0010191763
0.0010189126
0.0010185482
0.0010180703
0.0010174505
0.0010166519
0.0010156259
0.0010143207
0.0010126809
0.0010106213
0.0010081692
0.0010063116
0.0010050768
0.0010044434
0.0010043072
0.0010046029
0.0010051327
0.0010024443
0.0010031073
3.836994e-07
9.0262216e-06
1.8810196e-05
1.9734106e-05
1.490203e-05
1.9954984e-05
1.4129291e-05
1.8600377e-05
1.5162517e-05
2.0318496e-05
1.8244972e-05
2.0793125e-05
1.9576825e-05
1.9674603e-05
1.9187595e-05
1.898125e-05
1.8812142e-05
1.8748005e-05
1.8765301e-05
1.8861229e-05
1.9034756e-05
1.9285083e-05
1.9610672e-05
2.0011853e-05
2.048989e-05
2.105006e-05
2.1698481e-05
2.2445486e-05
2.3304665e-05
2.4291746e-05
2.542278e-05
2.6718203e-05
2.8204977e-05
2.9916266e-05
3.1893624e-05
3.4186984e-05
3.6856704e-05
3.9974151e-05
4.3625799e-05
4.7921153e-05
5.2993621e-05
5.8994599e-05
6.6113903e-05
7.4588553e-05
8.4705925e-05
9.6803211e-05
0.0001113002
0.00012871105
0.00014966342
0.00017492251
0.00020542333
0.00024231675
0.00028701032
0.00034123197
0.00040710089
0.00048722952
0.00058485277
0.00070398773
0.00084964698
0.0010188755
0.0010187892
0.0010185412
0.0010182547
0.0010178686
0.0010173698
0.0010167311
0.0010159174
0.0010148801
0.0010135637
0.0010119248
0.0010099126
0.0010075491
0.0010058234
0.0010046788
0.0010040947
0.0010039511
0.0010042853
0.0010045557
0.0010024592
0.0010028173
3.4256899e-07
8.7382164e-06
1.7876486e-05
1.8392979e-05
1.341688e-05
1.7645999e-05
1.2606883e-05
1.6278978e-05
1.3663428e-05
1.7935004e-05
1.6670475e-05
1.8551588e-05
1.7716247e-05
1.7627467e-05
1.7248496e-05
1.7041674e-05
1.6900305e-05
1.684627e-05
1.6869043e-05
1.6962897e-05
1.71273e-05
1.7361912e-05
1.766553e-05
1.8038864e-05
1.848294e-05
1.9002982e-05
1.9604623e-05
2.0297348e-05
2.1093816e-05
2.2009426e-05
2.3059669e-05
2.4263567e-05
2.5646507e-05
2.7239527e-05
2.9081883e-05
3.1220825e-05
3.3713957e-05
3.6629668e-05
4.0049874e-05
4.407799e-05
4.884392e-05
5.449327e-05
6.120726e-05
6.9212837e-05
7.8790358e-05
9.0265504e-05
0.00010404394
0.00012062431
0.00014061678
0.00016476724
0.0001939861
0.00022939762
0.00027237831
0.00032462211
0.00038820923
0.00046570698
0.00056029937
0.00067594894
0.00081760451
0.00099147769
0.0010182275
0.0010179519
0.0010176384
0.0010172271
0.0010167043
0.001016044
0.001015213
0.001014164
0.0010128375
0.0010111936
0.0010092241
0.0010069639
0.0010053567
0.0010042884
0.0010037382
0.0010035977
0.0010039483
0.0010041743
0.0010027445
0.0010027536
3.1106376e-07
8.5255973e-06
1.7069003e-05
1.8404374e-05
1.3456936e-05
1.5623535e-05
1.126658e-05
1.4279811e-05
1.237061e-05
1.5872073e-05
1.5265348e-05
1.6525385e-05
1.5975422e-05
1.5760914e-05
1.5462253e-05
1.5268923e-05
1.5150697e-05
1.5107491e-05
1.5134669e-05
1.522595e-05
1.5380947e-05
1.5599944e-05
1.5882117e-05
1.6228674e-05
1.6640536e-05
1.7122957e-05
1.7681228e-05
1.832416e-05
1.9063488e-05
1.991424e-05
2.0891541e-05
2.2013238e-05
2.3303416e-05
2.479128e-05
2.6514108e-05
2.8516821e-05
3.0854562e-05
3.3593319e-05
3.6811594e-05
4.0607007e-05
4.5106516e-05
5.045141e-05
5.6816203e-05
6.4418382e-05
7.3533038e-05
8.4476959e-05
9.7644238e-05
0.0001135209
0.00013270277
0.00015592094
0.0001840659
0.00021824098
0.00025979808
0.00031040488
0.00037211214
0.00044745295
0.00053957321
0.00065239592
0.00079082677
0.00096102028
0.0010177118
0.0010174064
0.0010170611
0.0010166204
0.0010160698
0.001015384
0.0010145314
0.001013468
0.0010121318
0.001010477
0.0010085352
0.0010064043
0.0010049077
0.0010039087
0.0010033933
0.001003256
0.0010035745
0.0010037753
0.0010029248
0.0010028491
2.8786871e-07
8.3971382e-06
1.6429051e-05
1.8153674e-05
1.3217179e-05
1.385048e-05
1.0714206e-05
1.2624883e-05
1.1586335e-05
1.4137432e-05
1.4033562e-05
1.4743634e-05
1.4383707e-05
1.4095289e-05
1.3847233e-05
1.3669342e-05
1.3566072e-05
1.3529611e-05
1.3557644e-05
1.364423e-05
1.3788881e-05
1.3992415e-05
1.4254213e-05
1.4575903e-05
1.4958382e-05
1.5406905e-05
1.5926483e-05
1.65254e-05
1.7214492e-05
1.8008383e-05
1.8922003e-05
1.9972253e-05
2.1182187e-05
2.257949e-05
2.4199824e-05
2.6086176e-05
2.8291614e-05
3.0880218e-05
3.3928314e-05
3.7528517e-05
4.1805095e-05
4.6896541e-05
5.2973059e-05
6.0243568e-05
6.8979777e-05
7.9492613e-05
9.2167576e-05
0.00010748173
0.00012602023
0.00014850499
0.00017581235
0.00020903207
0.00024949987
0.0002988671
0.00035916764
0.00043291501
0.00052323389
0.00063402757
0.00077018626
0.00093784538
0.0010172371
0.0010168997
0.0010165189
0.0010160451
0.0010154636
0.0010147495
0.0010138721
0.0010127911
0.0010114475
0.0010097832
0.0010078483
0.0010058763
0.0010044834
0.0010035477
0.0010030663
0.001002923
0.0010032073
0.001003446
0.0010030269
0.0010029769
2.559962e-07
8.3261517e-06
1.5925317e-05
1.7162947e-05
1.312188e-05
1.2243496e-05
1.0739886e-05
1.1657455e-05
1.1053222e-05
1.261462e-05
1.292421e-05
1.3166622e-05
1.290481e-05
1.258463e-05
1.2365213e-05
1.2202907e-05
1.2110767e-05
1.207997e-05
1.2108611e-05
1.2191396e-05
1.2327459e-05
1.2518076e-05
1.2762564e-05
1.2986574e-05
1.3334622e-05
1.3746023e-05
1.4225043e-05
1.4779248e-05
1.5418389e-05
1.6156352e-05
1.7007841e-05
1.7988841e-05
1.9121456e-05
2.0431917e-05
2.1954386e-05
2.3730078e-05
2.5810106e-05
2.8256674e-05
3.1144693e-05
3.4823427e-05
3.8918716e-05
4.3805268e-05
4.9651432e-05
5.6658762e-05
6.5096651e-05
7.5273124e-05
8.756799e-05
0.00010245269
0.00012050483
0.00014244238
0.00016913278
0.0002016589
0.00024134787
0.00028984359
0.00034917411
0.00042184683
0.00051098051
0.00062047615
0.00075523073
0.00092139419
0.0010167995
0.0010164281
0.0010160085
0.0010154986
0.0010148832
0.0010141387
0.0010132339
0.0010121317
0.0010107812
0.0010091171
0.0010071774
0.0010053812
0.001004088
0.0010032124
0.0010027657
0.0010026091
0.0010028375
0.0010030825
0.0010030304
0.0010029704
2.3299453e-07
8.2867374e-06
1.5492593e-05
1.5603408e-05
1.1954389e-05
1.0675335e-05
9.2337202e-06
1.0386116e-05
9.6809511e-06
1.1345736e-05
1.180294e-05
1.1714211e-05
1.1490604e-05
1.1179367e-05
1.0983692e-05
1.0841513e-05
1.0763037e-05
1.0740878e-05
1.0708192e-05
1.0774484e-05
1.0894043e-05
1.1067237e-05
1.1291654e-05
1.1567781e-05
1.1899685e-05
1.2290437e-05
1.2744607e-05
1.326969e-05
1.3874888e-05
1.4573663e-05
1.5380909e-05
1.6312122e-05
1.7388946e-05
1.8636686e-05
2.008861e-05
2.1784803e-05
2.3775186e-05
2.6120786e-05
2.8895996e-05
3.2191313e-05
3.6116955e-05
4.0812356e-05
4.6445867e-05
5.3661827e-05
6.188237e-05
7.1818247e-05
8.3846824e-05
9.8437144e-05
0.00011616256
0.00013774268
0.00016404158
0.00019614227
0.00023537165
0.00028337562
0.0003421883
0.0004143256
0.00050291742
0.00061188196
0.00074614638
0.00091190804
0.0010163938
0.0010159865
0.0010155256
0.0010149771
0.0010143257
0.0010135491
0.0010126158
0.0010114892
0.0010101295
0.00100848
0.0010065582
0.0010049204
0.0010037249
0.0010029054
0.0010024915
0.0010023211
0.0010024954
0.0010027305
0.0010029239
0.0010027454
2.1547787e-07
8.2462325e-06
1.5034473e-05
1.3662013e-05
9.8305573e-06
9.4936153e-06
7.6177923e-06
8.8569202e-06
9.0409869e-06
1.0199762e-05
1.0664423e-05
1.0361004e-05
1.0155195e-05
9.8762855e-06
9.7048763e-06
9.5185011e-06
9.4308485e-06
9.4042928e-06
9.4314895e-06
9.5094623e-06
9.6341688e-06
9.8070955e-06
1.0027274e-05
1.0294692e-05
1.0613542e-05
1.0987789e-05
1.1422046e-05
1.1923842e-05
1.2502006e-05
1.316955e-05
1.3941656e-05
1.4833558e-05
1.5866722e-05
1.7065803e-05
1.8463513e-05
2.0099244e-05
2.2022186e-05
2.4292712e-05
2.6984549e-05
3.018734e-05
3.4011573e-05
3.8594582e-05
4.4107397e-05
5.07481e-05
5.8770472e-05
6.8489856e-05
8.0993591e-05
9.5423807e-05
0.00011298147
0.00013439315
0.00016052551
0.00019246887
0.00023155841
0.00027945187
0.00033820163
0.00041034739
0.00049904832
0.00060826032
0.0007429641
0.00090943663
0.0010160145
0.0010155696
0.0010150658
0.0010144771
0.0010137881
0.001012978
0.0010120163
0.0010108644
0.0010094911
0.0010078644
0.00100599
0.001004497
0.0010033973
0.0010026322
0.001002251
0.0010020623
0.0010021886
0.0010023886
0.0010026051
0.0010022474
1.97136e-07
8.2048004e-06
1.3559593e-05
1.191773e-05
7.9539698e-06
8.4273343e-06
6.7830451e-06
7.9898191e-06
8.3650991e-06
9.1205942e-06
9.5349496e-06
9.1250251e-06
8.9250428e-06
8.6001755e-06
8.4199553e-06
8.3037392e-06
8.2487115e-06
8.2462234e-06
8.2903081e-06
8.3782709e-06
8.5096247e-06
8.6828078e-06
8.8998282e-06
9.1607456e-06
9.469942e-06
9.8317754e-06
1.0251017e-05
1.0735349e-05
1.1293364e-05
1.1937653e-05
1.2683736e-05
1.3546885e-05
1.4548611e-05
1.571319e-05
1.7073092e-05
1.8667414e-05
2.0545047e-05
2.2766228e-05
2.5404931e-05
2.8551144e-05
3.2315368e-05
3.6834455e-05
4.2282506e-05
4.8857614e-05
5.6815777e-05
6.6474357e-05
7.8224165e-05
9.252337e-05
0.0001109583
0.00013239254
0.00015858662
0.00019064532
0.00022992136
0.00027809473
0.00033724907
0.00040996426
0.00049944837
0.00060971791
0.000745832
0.00091417856
0.0010156559
0.0010151719
0.0010146246
0.0010139949
0.0010132674
0.0010124228
0.0010114333
0.0010102588
0.0010088679
0.0010072628
0.0010054767
0.0010041148
0.0010031077
0.0010023972
0.0010020464
0.0010018322
0.0010019184
0.0010020804
0.0010022318
0.0010018301
1.8193787e-07
8.1588426e-06
1.0768443e-05
9.881502e-06
6.5355693e-06
7.4983514e-06
6.1796949e-06
7.1739183e-06
7.8186471e-06
8.1381315e-06
8.4258818e-06
7.9134949e-06
7.6671553e-06
7.4400223e-06
7.3057492e-06
7.227338e-06
7.2001792e-06
7.2183773e-06
7.2773128e-06
7.3758213e-06
7.5115493e-06
7.6866106e-06
7.902492e-06
8.1597191e-06
8.4627737e-06
8.8164462e-06
9.2257717e-06
9.6986409e-06
1.0243602e-05
1.0872896e-05
1.1543118e-05
1.2378358e-05
1.3350143e-05
1.4482348e-05
1.5807193e-05
1.7363513e-05
1.9199967e-05
2.1376708e-05
2.396808e-05
2.7064689e-05
3.0778065e-05
3.5522708e-05
4.0962544e-05
4.7540179e-05
5.5513962e-05
6.520449e-05
7.7013675e-05
9.1410536e-05
0.00010898646
0.00013047844
0.00015822394
0.00019067576
0.00023047176
0.00027932532
0.00033936514
0.00041322885
0.00050419462
0.0006163649
0.00075490454
0.00092634231
0.0010153123
0.0010147878
0.0010141971
0.0010135267
0.0010127609
0.0010118817
0.0010108648
0.0010096726
0.001008266
0.0010066687
0.0010050233
0.0010037778
0.0010028566
0.0010022024
0.0010018732
0.0010016316
0.0010016801
0.0010018147
0.0010019207
0.0010015954
1.6836955e-07
8.1119128e-06
8.4975745e-06
8.4068046e-06
5.7468772e-06
6.6405514e-06
5.669287e-06
6.4591242e-06
7.2622961e-06
7.2207728e-06
7.2251368e-06
6.7898208e-06
6.5879316e-06
6.4200881e-06
6.3248423e-06
6.2778787e-06
6.2745199e-06
6.3107717e-06
6.3829569e-06
6.4908455e-06
6.6331399e-06
6.8115364e-06
7.028557e-06
7.2851941e-06
7.5860119e-06
7.9022543e-06
8.3000238e-06
8.7606265e-06
9.2924737e-06
9.9073647e-06
1.0619516e-05
1.144742e-05
1.2411919e-05
1.3536957e-05
1.4855058e-05
1.6405456e-05
1.8237406e-05
2.0411851e-05
2.3004625e-05
2.6108253e-05
2.9836912e-05
3.4333204e-05
3.9771728e-05
4.6361688e-05
5.4365778e-05
6.4667682e-05
7.6649647e-05
9.1277864e-05
0.00010915449
0.00013103984
0.00015786265
0.00019256487
0.00023322333
0.00028316951
0.00034459176
0.00042020452
0.00051337888
0.00062833126
0.00077036347
0.00094617328
0.0010149782
0.0010144121
0.0010137788
0.0010130687
0.0010122662
0.0010113533
0.0010103092
0.0010091043
0.0010076954
0.0010060927
0.0010046314
0.00100349
0.00100264
0.0010020486
0.0010017131
0.0010014634
0.0010014682
0.0010015701
0.001001651
0.0010012064
1.5623541e-07
8.0542051e-06
6.7590877e-06
7.3733956e-06
5.1169059e-06
5.869564e-06
5.2302209e-06
5.8261318e-06
6.6008209e-06
6.181506e-06
6.1411917e-06
5.8059749e-06
5.645078e-06
5.5251281e-06
5.46329e-06
5.4434232e-06
5.4612234e-06
5.5141436e-06
5.5993358e-06
5.7172267e-06
5.8671563e-06
6.0510661e-06
6.2455846e-06
6.4991681e-06
6.796524e-06
7.1418495e-06
7.5422097e-06
8.005173e-06
8.5393672e-06
9.1567913e-06
9.87181e-06
1.0702695e-05
1.1671529e-05
1.2802617e-05
1.4129033e-05
1.5690778e-05
1.7538228e-05
1.9733621e-05
2.2354977e-05
2.5497756e-05
2.9278981e-05
3.3844438e-05
3.9377696e-05
4.6093245e-05
5.426203e-05
6.4220979e-05
7.6388517e-05
9.1270202e-05
0.00011045279
0.00013292678
0.00016049352
0.00019434046
0.00023818443
0.00028964843
0.0003529665
0.00043095056
0.00052708929
0.0006457428
0.00079238701
0.00097391767
0.0010146483
0.00101404
0.0010133658
0.0010126174
0.0010117804
0.0010108371
0.0010097669
0.0010085499
0.0010071615
0.0010056049
0.0010042987
0.0010032544
0.0010024556
0.0010019022
0.0010015905
0.0010013302
0.0010012805
0.0010013234
0.001001357
0.0010009797
1.4540779e-07
7.9818026e-06
5.4182368e-06
6.4353084e-06
4.5553104e-06
5.1834613e-06
4.8542433e-06
5.1807804e-06
5.7714536e-06
5.2778611e-06
5.1894351e-06
4.9442702e-06
4.8220279e-06
4.7420453e-06
4.7098242e-06
4.7143363e-06
4.7518596e-06
4.8209144e-06
4.9194359e-06
5.0295891e-06
5.1830309e-06
5.3702778e-06
5.5936046e-06
5.85599e-06
6.1617192e-06
6.5153733e-06
6.9239454e-06
7.3956328e-06
7.9392894e-06
8.5670771e-06
9.293485e-06
1.0137012e-05
1.1070044e-05
1.2208046e-05
1.3543559e-05
1.5117326e-05
1.6981053e-05
1.9198333e-05
2.1849427e-05
2.5033246e-05
2.8870691e-05
3.3766262e-05
3.9446769e-05
4.6351606e-05
5.4761132e-05
6.5022095e-05
7.7573272e-05
9.2943072e-05
0.00011177861
0.00013612132
0.00016467182
0.00019975006
0.0002428753
0.00029877008
0.00036451277
0.00044550996
0.00054539539
0.00066870275
0.00082112456
0.0010097925
0.0010143179
0.0010136675
0.0010129545
0.0010121699
0.0010113009
0.0010103314
0.0010092403
0.001008009
0.0010066434
0.0010051929
0.0010040212
0.0010030681
0.001002323
0.0010017903
0.0010014781
0.0010012281
0.0010011251
0.0010011027
0.0010010901
0.0010007833
1.3574898e-07
7.8561901e-06
4.3938665e-06
5.5997904e-06
4.0529972e-06
4.5719172e-06
4.5240002e-06
4.480556e-06
4.9355852e-06
4.4714178e-06
4.3639494e-06
4.1928144e-06
4.1073503e-06
4.0618886e-06
4.0565762e-06
4.0836303e-06
4.140039e-06
4.2085046e-06
4.3154609e-06
4.4525548e-06
4.620654e-06
4.8213011e-06
5.0574603e-06
5.3323214e-06
5.6507374e-06
6.0175563e-06
6.439841e-06
6.9055084e-06
7.459389e-06
8.098117e-06
8.8362268e-06
9.6922376e-06
1.0688795e-05
1.1854353e-05
1.3222863e-05
1.4836395e-05
1.6748986e-05
1.9026612e-05
2.1752717e-05
2.5031226e-05
2.8988613e-05
3.3784245e-05
3.9610858e-05
4.6705894e-05
5.5361917e-05
6.649249e-05
7.953729e-05
9.5525774e-05
0.00011513782
0.00013921233
0.00017036932
0.00020697024
0.00025199363
0.00030740119
0.00037922355
0.00046388977
0.0005683236
0.00069726177
0.00085665567
0.0010146364
0.0010139821
0.0010132912
0.0010125422
0.0010117243
0.0010108255
0.0010098331
0.0010087293
0.0010074899
0.0010061293
0.0010048465
0.0010037919
0.0010029196
0.0010022203
0.001001704
0.0010013885
0.0010011453
0.0010010099
0.0010009315
0.0010008167
0.0010003789
1.2717727e-07
7.539976e-06
3.6833778e-06
4.8577045e-06
3.6052502e-06
4.0295479e-06
4.0092865e-06
3.8469444e-06
4.1308837e-06
3.7580193e-06
3.6560487e-06
3.5438729e-06
3.4929031e-06
3.4778932e-06
3.4971914e-06
3.5324167e-06
3.6009006e-06
3.6984549e-06
3.8242975e-06
3.9786952e-06
4.1631503e-06
4.3797299e-06
4.6318221e-06
4.9229073e-06
5.2463783e-06
5.6271476e-06
6.0638436e-06
6.5646417e-06
7.1398165e-06
7.8016092e-06
8.5649334e-06
9.4490592e-06
1.0477563e-05
1.1679986e-05
1.3092627e-05
1.4759117e-05
1.6736399e-05
1.9093588e-05
2.1917601e-05
2.5318611e-05
2.9428252e-05
3.4414059e-05
4.048153e-05
4.787903e-05
5.691605e-05
6.7972397e-05
8.2239463e-05
9.8977988e-05
0.00011952205
0.0001447636
0.00017577794
0.00021594857
0.00026322158
0.00032142702
0.00039311794
0.00048603361
0.00059582361
0.00073137853
0.00089893952
0.0010143208
0.0010136368
0.001012909
0.0010121269
0.0010112792
0.0010103538
0.0010093396
0.0010082272
0.0010070023
0.0010056747
0.0010045527
0.0010036038
0.0010028039
0.0010021461
0.001001644
0.0010013202
0.0010010894
0.001000924
0.0010007966
0.0010006255
0.0010002442
1.1976486e-07
7.1260964e-06
3.2340552e-06
4.1992647e-06
3.2062613e-06
3.3990308e-06
3.5532519e-06
3.2665704e-06
3.4036697e-06
3.1380764e-06
3.0566851e-06
2.9910396e-06
2.9713909e-06
2.9835463e-06
3.010468e-06
3.0742266e-06
3.1658463e-06
3.2841595e-06
3.4293012e-06
3.6022728e-06
3.8051232e-06
4.0402041e-06
4.3030669e-06
4.6110092e-06
4.9632829e-06
5.365625e-06
5.8249321e-06
6.3496688e-06
6.9503173e-06
7.63989e-06
8.4337755e-06
9.3520642e-06
1.0419406e-05
1.1666829e-05
1.3076652e-05
1.4793273e-05
1.6831945e-05
1.9265452e-05
2.2318016e-05
2.5867379e-05
3.016134e-05
3.5375636e-05
4.1729751e-05
4.9485812e-05
5.8969667e-05
7.0584855e-05
8.4826662e-05
0.00010230322
0.00012486765
0.00015145907
0.00018415181
0.0002243674
0.00027645515
0.00033787826
0.00041355522
0.00051178843
0.00062772557
0.00077086899
0.00094777067
0.0010139949
0.0010132804
0.0010125195
0.0010117075
0.0010108336
0.0010098862
0.0010088531
0.0010077281
0.0010065247
0.0010052996
0.0010043032
0.0010034513
0.0010027181
0.0010020987
0.00100161
0.0010012748
0.0010010441
0.001000869
0.0010007303
0.0010005643
0.0010002204
1.1377667e-07
6.2144354e-06
2.8495429e-06
3.6012728e-06
2.8600062e-06
2.817837e-06
3.0996732e-06
2.7413423e-06
2.7797187e-06
2.608462e-06
2.5545328e-06
2.526533e-06
2.5276229e-06
2.5573201e-06
2.6183518e-06
2.7066719e-06
2.8204329e-06
2.9594955e-06
3.1247501e-06
3.3176426e-06
3.535504e-06
3.7893205e-06
4.0792608e-06
4.4094188e-06
4.7846839e-06
5.2109842e-06
5.6955271e-06
6.2471018e-06
6.8765178e-06
7.5806978e-06
8.4037661e-06
9.3542161e-06
1.0457715e-05
1.1746424e-05
1.3260578e-05
1.505049e-05
1.7178389e-05
1.9722193e-05
2.2778618e-05
2.64672e-05
3.0936415e-05
3.6631042e-05
4.3313077e-05
5.1479183e-05
6.1472866e-05
7.372136e-05
8.8750454e-05
0.0001072078
0.00013108237
0.00015919331
0.00019377364
0.00023632748
0.00029152168
0.00035655348
0.00043670345
0.00053553524
0.00066369359
0.00081534387
0.0010026967
0.0010136585
0.0010129132
0.001012123
0.0010112842
0.0010103872
0.001009422
0.0010083779
0.0010072441
0.0010060413
0.0010049863
0.0010040955
0.0010033307
0.0010026616
0.0010020815
0.0010016083
0.0010012579
0.0010010132
0.0010008316
0.0010006959
0.0010005659
0.0010002612
1.0880242e-07
4.325219e-06
2.5015709e-06
3.0466655e-06
2.4269009e-06
2.3308916e-06
2.6250802e-06
2.2742771e-06
2.2607694e-06
2.1625074e-06
2.1389362e-06
2.1362571e-06
2.1651664e-06
2.224991e-06
2.3117136e-06
2.4230382e-06
2.5583383e-06
2.7181613e-06
2.9012107e-06
3.1135301e-06
3.356184e-06
3.6320565e-06
3.9446511e-06
4.2982222e-06
4.6978956e-06
5.1498452e-06
5.6615631e-06
6.2328417e-06
6.8899702e-06
7.6404186e-06
8.5015304e-06
9.4948544e-06
1.0647555e-05
1.1993753e-05
1.3576241e-05
1.5448373e-05
1.7676496e-05
2.0343197e-05
2.3551276e-05
2.7428358e-05
3.213267e-05
3.7859422e-05
4.5183694e-05
5.3803639e-05
6.4361415e-05
7.7310017e-05
9.3207549e-05
0.00011274289
0.0001367661
0.00016781777
0.00020446787
0.00024958757
0.00030516086
0.0003771451
0.00046219043
0.00056707361
0.00070317979
0.00086414419
0.0010140654
0.001013312
0.0010125368
0.0010117209
0.0010108588
0.0010099418
0.0010089606
0.0010079097
0.0010067961
0.0010056572
0.001004723
0.0010039265
0.0010032387
0.0010026306
0.0010020917
0.001001634
0.001001272
0.0010009938
0.0010007759
0.0010006498
0.0010005649
0.0010003334
1.0349754e-07
3.5664081e-06
2.1387256e-06
2.537167e-06
2.0726059e-06
1.9241945e-06
2.1385581e-06
1.8651039e-06
1.8389324e-06
1.7959286e-06
1.7985841e-06
1.8266906e-06
1.8870322e-06
1.9733457e-06
2.0832953e-06
2.2160405e-06
2.3718614e-06
2.5499748e-06
2.7551565e-06
2.9885687e-06
3.2527756e-06
3.5508783e-06
3.88658e-06
4.2642983e-06
4.6893344e-06
5.1680848e-06
5.7020145e-06
6.310495e-06
7.0009911e-06
7.7880349e-06
8.6899095e-06
9.729448e-06
1.0935379e-05
1.2343837e-05
1.4000318e-05
1.5961817e-05
1.8299139e-05
2.1100096e-05
2.4473966e-05
2.8555914e-05
3.3513839e-05
3.9841587e-05
4.7284633e-05
5.6392536e-05
6.7556595e-05
8.1257124e-05
9.8086404e-05
0.00011877547
0.00014556279
0.0001771338
0.00021599367
0.00026385255
0.000322819
0.00039921734
0.00048949282
0.00060084143
0.00074537947
0.00091627704
0.0010137265
0.0010129555
0.0010121543
0.0010113159
0.0010104337
0.0010095011
0.001008509
0.001007449
0.001006341
0.0010053463
0.0010045081
0.0010037918
0.0010031693
0.0010026161
0.0010021187
0.0010016801
0.0010013075
0.0010009907
0.0010007226
0.0010005569
0.0010005541
0.001000426
9.9594105e-08
2.847078e-06
1.8252503e-06
2.0280772e-06
1.7792398e-06
1.5762104e-06
1.6898865e-06
1.5185301e-06
1.5068581e-06
1.5074786e-06
1.5368069e-06
1.5977683e-06
1.6844978e-06
1.7935372e-06
1.9240081e-06
2.0761599e-06
2.2499831e-06
2.4486153e-06
2.6736647e-06
2.9274863e-06
3.2128895e-06
3.5331555e-06
3.8921249e-06
4.2943384e-06
4.7452365e-06
5.2478488e-06
5.8155212e-06
6.4558148e-06
7.1808743e-06
8.0059425e-06
8.9503699e-06
1.0038349e-05
1.1300351e-05
1.2774655e-05
1.450943e-05
1.656529e-05
1.9018053e-05
2.1960891e-05
2.551023e-05
2.9809531e-05
3.5267083e-05
4.1693492e-05
4.9547411e-05
5.9165912e-05
7.0962713e-05
8.5447966e-05
0.00010324984
0.00012514419
0.00015345875
0.00018688128
0.00022803783
0.00027874228
0.0003412364
0.00042217441
0.00051788658
0.00063595887
0.00078919703
0.00097039786
0.0010133832
0.0010125936
0.0010117703
0.0010109126
0.0010100128
0.0010090661
0.0010080697
0.0010070271
0.0010059671
0.0010050901
0.0010043363
0.0010036862
0.0010031163
0.0010026073
0.0010021464
0.0010017285
0.0010013509
0.0010010097
0.0010007142
0.0010004757
0.0010005026
0.001000485
9.7288328e-08
2.2188713e-06
1.5525978e-06
1.5442236e-06
1.5088583e-06
1.2789051e-06
1.3248627e-06
1.2418499e-06
1.2575496e-06
1.2890561e-06
1.3515791e-06
1.4383604e-06
1.5464141e-06
1.6744375e-06
1.8227169e-06
1.9922906e-06
2.1840481e-06
2.4009866e-06
2.6449675e-06
2.9185682e-06
3.2247437e-06
3.5668954e-06
3.948969e-06
4.3756074e-06
4.8523611e-06
5.3859765e-06
5.9847691e-06
6.6590761e-06
7.4133486e-06
8.2770633e-06
9.264848e-06
1.0402347e-05
1.1721901e-05
1.3264142e-05
1.5079972e-05
1.7303142e-05
1.9893805e-05
2.3005353e-05
2.6762029e-05
3.1317259e-05
3.686021e-05
4.362377e-05
5.1895965e-05
6.2031756e-05
7.4468866e-05
8.9747449e-05
0.00010853293
0.00013279608
0.00016145758
0.00019674458
0.00024021167
0.00029377916
0.00036322622
0.00044526823
0.00054645435
0.00067130499
0.00083323224
0.0010138509
0.0010130428
0.0010122332
0.001011391
0.0010105171
0.0010096045
0.0010086461
0.001007639
0.0010066051
0.0010056694
0.0010048803
0.0010042
0.0010036052
0.0010030768
0.0010026004
0.0010021671
0.0010017686
0.0010013925
0.0010010317
0.0010007181
0.0010005276
0.0010004516
0.0010003272
9.7372369e-08
1.6838082e-06
1.3225028e-06
1.1740422e-06
1.236769e-06
1.0301406e-06
1.0568974e-06
1.0372116e-06
1.0812165e-06
1.1421445e-06
1.2286522e-06
1.334962e-06
1.4600307e-06
1.6040251e-06
1.7680269e-06
1.953559e-06
2.1621762e-06
2.3964721e-06
2.6586519e-06
2.9514059e-06
3.2777772e-06
3.6412487e-06
4.0458555e-06
4.4963455e-06
4.9984016e-06
5.5589426e-06
6.1865269e-06
6.8918571e-06
7.6884115e-06
8.5932426e-06
9.6279203e-06
1.0819783e-05
1.2203312e-05
1.3821901e-05
1.5729926e-05
1.7995289e-05
2.0702563e-05
2.3957072e-05
2.7889285e-05
3.2660874e-05
3.8471738e-05
4.5568076e-05
5.4251382e-05
6.4895579e-05
7.796059e-05
9.4792159e-05
0.00011468335
0.00013915223
0.0001692722
0.00020636976
0.00025208186
0.00031132581
0.00038132105
0.0004676411
0.00057413825
0.0007124256
0.00087583972
0.0010135293
0.0010127128
0.0010118839
0.001011025
0.0010101357
0.0010092126
0.0010082527
0.0010072571
0.0010062548
0.0010054248
0.0010047108
0.0010040927
0.0010035461
0.0010030532
0.0010026025
0.0010021885
0.0010018058
0.0010014426
0.001001088
0.0010007635
0.0010005345
0.0010004136
0.0010002792
1.0065129e-07
1.2471617e-06
1.1318384e-06
9.0335513e-07
1.078489e-06
8.251131e-07
8.7290249e-07
8.9830853e-07
9.6503669e-07
1.049031e-06
1.1529199e-06
1.2742639e-06
1.4134624e-06
1.5715281e-06
1.7499518e-06
1.9504748e-06
2.1750738e-06
2.4258084e-06
2.7053418e-06
3.0163466e-06
3.3619335e-06
3.7456619e-06
4.1716594e-06
4.6447895e-06
5.1708825e-06
5.7570488e-06
6.412102e-06
7.1471356e-06
7.9761643e-06
8.9169986e-06
9.9921939e-06
1.1230413e-05
1.2667843e-05
1.4350062e-05
1.6334197e-05
1.8691618e-05
2.1511141e-05
2.4902997e-05
2.9003673e-05
3.3981911e-05
4.0319217e-05
4.7786848e-05
5.6924808e-05
6.8126205e-05
8.1874898e-05
9.876769e-05
0.00011954122
0.00014510487
0.00017657837
0.00021736313
0.00026550715
0.00032484709
0.00039802102
0.00048829244
0.00060554607
0.00074407562
0.00091504182
0.0010132238
0.0010123982
0.0010115557
0.0010106846
0.0010097822
0.0010088456
0.0010078762
0.0010068919
0.0010059832
0.0010052266
0.0010045761
0.00100401
0.0010035064
0.0010030479
0.001002623
0.0010022258
0.0010018517
0.0010014921
0.0010011415
0.0010008207
0.0010005816
0.0010004322
0.0010002613
1.0722777e-07
9.6066481e-07
9.6550393e-07
7.6436156e-07
7.6808638e-07
7.0372498e-07
7.4972578e-07
8.1030995e-07
8.9426136e-07
9.9436649e-07
1.1113546e-06
1.2451479e-06
1.3968275e-06
1.5677291e-06
1.7594666e-06
1.9738395e-06
2.212858e-06
2.4787602e-06
2.774052e-06
3.1015526e-06
3.46446e-06
3.8664412e-06
4.3117571e-06
4.805441e-06
5.3535465e-06
5.9613842e-06
6.6411299e-06
7.4029334e-06
8.2686641e-06
9.2454459e-06
1.0361885e-05
1.1648092e-05
1.3142054e-05
1.4891554e-05
1.6956446e-05
1.9411407e-05
2.2349302e-05
2.5885305e-05
3.0161941e-05
3.5355329e-05
4.1682882e-05
4.941282e-05
5.8875753e-05
7.0477393e-05
8.4719877e-05
0.00010222183
0.00012484803
0.00015154341
0.00018440459
0.00022488079
0.00027476257
0.00033626662
0.00041213441
0.00051056441
0.0006269732
0.00077066465
0.00094805216
0.0010129472
0.0010121105
0.0010112562
0.0010103778
0.0010094708
0.0010085313
0.0010075617
0.0010065924
0.0010057725
0.0010050734
0.0010044736
0.0010039497
0.0010034826
0.001003056
0.0010026579
0.0010022806
0.0010019171
0.0010015593
0.0010012048
0.0010008746
0.0010006144
0.0010004431
0.001000327
1.2179356e-07
9.6615992e-07
8.0524969e-07
5.6640317e-07
6.1028169e-07
6.1346256e-07
6.7762243e-07
7.5698379e-07
8.5443173e-07
9.6671615e-07
1.0948535e-06
1.2396808e-06
1.4025072e-06
1.5847619e-06
1.7880835e-06
2.0142967e-06
2.2654409e-06
2.5437972e-06
2.8519249e-06
3.1927065e-06
3.5694098e-06
3.9857751e-06
4.4461399e-06
4.9556181e-06
5.5203539e-06
6.1478717e-06
6.8475403e-06
7.6311704e-06
8.5137748e-06
9.5144772e-06
1.0657609e-05
1.1974084e-05
1.3502958e-05
1.5293378e-05
1.7406886e-05
1.9920239e-05
2.2928846e-05
2.6550935e-05
3.0932698e-05
3.6254602e-05
4.2739291e-05
5.1023921e-05
6.0797314e-05
7.277668e-05
8.7480015e-05
0.00010554518
0.00012776004
0.00015509787
0.00018876168
0.00023023725
0.00028136654
0.00034760757
0.00042598182
0.00052269919
0.00064210387
0.00078956158
0.00097167087
0.0010127255
0.0010118727
0.0010110021
0.0010101122
0.0010091995
0.001008262
0.0010073051
0.0010063731
0.0010056151
0.0010049632
0.0010044029
0.0010039121
0.0010034736
0.0010030722
0.0010026963
0.0010023374
0.0010019882
0.0010016426
0.0010012996
0.0010009727
0.0010006872
0.0010004455
0.0010001904
1.1164597e-07
6.2201802e-07
6.3803711e-07
4.6901378e-07
5.1207065e-07
5.5824758e-07
6.3747179e-07
7.3047378e-07
8.3861698e-07
9.6124313e-07
1.099445e-06
1.2542886e-06
1.4271081e-06
1.6193859e-06
1.8327943e-06
2.0692048e-06
2.3307132e-06
2.6196335e-06
2.9386375e-06
3.2906609e-06
3.6790447e-06
4.1076043e-06
4.5807552e-06
5.1036929e-06
5.6826528e-06
6.3252649e-06
7.0410289e-06
7.8419301e-06
8.7502806e-06
9.7746093e-06
1.094461e-05
1.2292008e-05
1.3856834e-05
1.5689419e-05
1.7852734e-05
2.042528e-05
2.3504572e-05
2.7211429e-05
3.169524e-05
3.714043e-05
4.3774411e-05
5.1877301e-05
6.1793894e-05
7.3950287e-05
8.8871337e-05
0.00010720513
0.0001297522
0.00015888392
0.0001933101
0.0002357184
0.00028799354
0.00035246705
0.00043202783
0.00053025458
0.00065157816
0.00080147689
0.00098668998
0.0010125887
0.0010117213
0.0010108328
0.0010099246
0.0010089951
0.0010080468
0.001007097
0.0010062296
0.0010055109
0.0010048957
0.0010043654
0.0010038998
0.0010034825
0.0010030989
0.0010027376