/*--------------------------------*- C++ -*----------------------------------*\
  =========                 |
  \\      /  F ield         | OpenFOAM: The Open Source CFD Toolbox
   \\    /   O peration     | Website:  https://openfoam.org
    \\  /    A nd           | Version:  12
     \\/     M anipulation  |
\*---------------------------------------------------------------------------*/
FoamFile
{
    format      ascii;
    class       volScalarField;
    location    "0.081";
    object      omega;
}
// * * * * * * * * * * * * * * * * * * * * * * * * * * * * * * * * * * * * * //

dimensions      [0 0 -1 0 0 0 0];

internalField   nonuniform List<scalar> 
16000
(
1090.8979
2183.9002
1069.6302
644.12964
454.50139
315.96295
239.66754
180.91156
145.70602
117.99806
100.24566
85.806477
75.098267
66.156477
58.859928
52.713483
47.525416
43.101275
39.300319
36.010558
33.147801
30.641054
28.431964
26.473979
24.729577
23.169592
21.769883
20.511804
19.379544
18.35867
17.436152
16.601721
15.847196
15.165658
14.551188
13.998289
13.501782
13.056783
12.65921
12.305617
11.992123
11.714655
11.470254
11.256215
11.069466
10.906892
10.766076
10.644726
10.540641
10.451742
10.376172
10.312303
10.258606
10.213737
10.176537
10.14612
10.121883
10.103561
10.09149
10.086435
10.086368
10.085897
10.084619
10.082772
10.080104
10.076421
10.071433
10.064784
10.056081
10.044783
10.030096
10.012457
9.999335
9.9919556
9.9897466
9.993173
9.9987686
10.010168
9.9953815
10.006625
1132.5774
2176.1464
1059.9617
644.53704
454.65308
318.8894
240.72874
182.7357
146.52851
119.02196
100.78201
86.363899
75.453535
66.464115
59.081734
52.885209
47.650423
43.191583
39.363471
36.052172
33.172721
30.653821
28.436167
26.472502
24.724258
23.161896
21.760569
20.501285
19.368317
18.347472
17.425452
16.591628
15.83768
15.156576
14.542435
13.989828
13.493685
13.049061
12.651688
12.298242
11.985135
11.708072
11.463941
11.250161
11.063834
10.901693
10.761279
10.640319
10.536636
10.448145
10.372956
10.309455
10.256112
10.211582
10.174673
10.144465
10.120321
10.101877
10.089198
10.082936
10.082363
10.081849
10.080465
10.078514
10.075757
10.072004
10.066976
10.060308
10.05161
10.040475
10.026264
10.009195
9.9969446
9.9901624
9.988277
9.9911968
9.9987962
10.009235
9.9963037
10.006942
1172.6614
2178.2407
1048.755
640.90404
451.30157
319.14459
239.63429
182.92588
146.07962
119.17461
100.62494
86.370716
75.347196
66.36266
58.947707
52.7398
47.494415
43.030578
39.201456
35.891411
33.015091
30.501309
28.290196
26.334271
24.594174
23.04028
21.647279
20.395903
19.270456
18.257102
17.342472
16.515673
15.768311
15.093263
14.484694
13.937226
13.445925
13.005894
12.612682
12.262946
11.953476
11.679861
11.438807
11.227762
11.04408
10.884384
10.74617
10.627182
10.525282
10.43841
10.364654
10.302426
10.250208
10.206675
10.170633
10.141137
10.117541
10.09946
10.086821
10.079973
10.078784
10.07814
10.076602
10.074493
10.071586
10.067697
10.062564
10.055816
10.047036
10.035904
10.022054
10.005673
9.9944626
9.9883909
9.9867746
9.9898049
9.9975003
10.005829
9.9986174
10.006756
1210.9575
2187.4206
1038.8675
637.47619
447.53733
319.19624
238.23885
182.95672
145.48954
119.22575
100.41626
86.315201
75.199464
66.213788
58.773197
52.555661
47.302955
42.836557
39.008884
35.702402
32.831245
30.324477
28.121618
26.175105
24.444705
22.900759
21.517518
20.275423
19.158716
18.153966
17.247817
16.429087
15.689319
15.021278
14.419176
13.877667
13.391948
12.957223
12.568893
12.223456
11.918151
11.648508
11.411043
11.203131
11.022452
10.865537
10.72982
10.613059
10.513149
10.428081
10.355909
10.29508
10.244087
10.201633
10.166527
10.137805
10.114799
10.097113
10.084605
10.077469
10.075596
10.074772
10.073053
10.07076
10.067682
10.063639
10.058383
10.051557
10.042706
10.031533
10.018005
10.002436
9.992209
9.9867823
9.9853687
9.9885038
9.9960786
10.004018
10.001288
10.008251
1247.2818
2206.3256
1030.9967
633.80363
443.03315
318.50515
236.16315
182.49982
144.52357
118.99877
100.01954
86.083077
74.912756
65.932843
58.483813
52.267616
47.018524
42.558582
38.740405
35.444659
32.584909
30.090685
27.900942
25.968232
24.251518
22.72118
21.351102
20.121477
19.01639
18.022845
17.127631
16.319275
15.589289
14.930304
14.336593
13.802826
13.324311
12.896407
12.51445
12.17462
11.874634
11.610046
11.37722
11.173317
10.996415
10.842986
10.710392
10.596405
10.498942
10.41608
10.345832
10.28669
10.237159
10.195981
10.16198
10.134179
10.111893
10.094719
10.082476
10.075218
10.072805
10.071741
10.06981
10.067303
10.064026
10.0598
10.054392
10.047469
10.038556
10.027301
10.01398
9.9994275
9.9901481
9.985331
9.9841115
9.9873001
9.9943777
10.002388
10.003828
10.01
1281.4921
2232.6375
1027.7449
630.85247
439.08938
317.18596
233.61437
181.63405
143.28891
118.53185
99.479095
85.696411
74.506477
65.537034
58.094054
51.888876
46.652642
42.2069
38.405016
35.126154
32.283171
29.80628
27.633889
25.718699
24.019178
22.505688
21.151794
19.937507
18.846656
17.866673
16.984629
16.188745
15.470539
14.822486
14.238925
13.714537
13.244715
12.824986
12.450757
12.117768
11.824138
11.565546
11.338305
11.139197
10.966738
10.817404
10.688471
10.577727
10.483094
10.402772
10.334727
10.277506
10.229631
10.189881
10.157116
10.13035
10.108882
10.092301
10.080416
10.073177
10.070362
10.069009
10.06684
10.064094
10.060595
10.056168
10.050583
10.043542
10.03459
10.023271
10.009999
9.996689
9.9882974
9.9840469
9.9829834
9.9861735
9.9926953
10.000442
10.005456
10.011784
1313.5521
2263.9544
1028.2785
628.04604
435.17462
315.22771
230.99234
180.3957
141.89885
117.8284
98.804103
85.154186
73.976991
65.024359
57.600808
51.416542
46.202297
41.778601
37.999694
34.743969
31.923268
29.468665
27.318148
25.423893
23.745265
22.252079
20.917595
19.721726
18.647953
17.684087
16.817633
16.036489
15.332226
14.697129
14.125611
13.612365
13.152847
12.742728
12.377632
12.052957
11.766776
11.515123
11.294432
11.100953
10.933602
10.78896
10.664215
10.55718
10.46574
10.388277
10.322697
10.267618
10.221576
10.183397
10.151983
10.126356
10.105797
10.089884
10.078425
10.071319
10.068232
10.066553
10.064122
10.061115
10.057375
10.05273
10.046951
10.039764
10.030781
10.019483
10.006178
9.9942308
9.9866684
9.9829545
9.982032
9.9851957
9.9912796
9.9988762
10.006259
10.012781
1343.5699
2297.7723
1030.24
624.91446
431.33028
312.61942
228.35236
178.92826
140.37229
116.9078
98.011404
84.46502
73.325424
64.396883
57.004203
50.850085
45.666424
41.272528
37.522399
34.29598
31.503145
29.075846
26.952083
25.080282
23.426387
21.957192
20.64559
19.47149
18.417934
17.473008
16.624824
15.860926
15.172998
14.553091
13.995704
13.495534
13.0481
12.649168
12.294634
11.980495
11.702907
11.459111
11.245907
11.059002
10.89739
10.757992
10.637936
10.53504
10.447119
10.372796
10.309909
10.257161
10.213103
10.176611
10.146643
10.122239
10.102665
10.087482
10.076502
10.069608
10.066368
10.064334
10.061623
10.058338
10.054341
10.049468
10.043488
10.03613
10.027099
10.015944
10.002793
9.9920649
9.9852724
9.9820974
9.9813424
9.9844199
9.9900777
9.9973956
10.006238
10.012652
1371.6437
2331.9383
1028.7252
621.00163
426.52047
309.31119
224.79969
177.05787
138.52
115.80276
97.096441
83.627931
72.544755
63.649905
56.299261
50.183834
45.039392
40.683632
36.965169
33.774186
31.015142
28.620502
26.529251
24.688707
23.063947
21.622864
20.337895
19.189092
18.159028
17.235919
16.408681
15.664509
14.995264
14.392717
13.851464
13.366209
12.932531
12.546289
12.203443
11.899974
11.632289
11.39735
11.192557
11.013709
10.858458
10.724801
10.609969
10.51161
10.427498
10.356553
10.296548
10.246282
10.204334
10.169619
10.141165
10.118045
10.099517
10.085117
10.074652
10.068019
10.064721
10.062315
10.059312
10.055737
10.051472
10.046362
10.040182
10.032648
10.023532
10.012587
9.9998369
9.9902241
9.9841319
9.9814713
9.9808895
9.9838781
9.989174
9.9961494
10.004771
10.009217
1397.8776
2364.8698
1020.042
616.01476
420.01403
305.5643
220.42457
174.71546
136.62348
114.51387
96.049116
82.637713
71.626998
62.775492
55.478008
49.405004
44.307392
39.998674
36.326445
33.179526
30.461857
28.106314
26.05316
24.2483
22.657355
21.248643
19.994218
18.874403
17.871298
16.973051
16.169499
15.447636
14.79953
14.216604
13.693558
13.225101
12.806869
12.434816
12.105065
11.813658
11.556925
11.331688
11.135873
10.964981
10.816799
10.689349
10.580611
10.487151
10.407162
10.339782
10.282813
10.235143
10.195393
10.162517
10.135618
10.11382
10.096378
10.082805
10.072881
10.066527
10.063236
10.060456
10.057151
10.053284
10.048744
10.043391
10.037017
10.029327
10.020094
10.009348
9.9973292
9.9887464
9.98328
9.9810593
9.9806436
9.9835549
9.9884964
9.9951189
10.002898
10.006302
1422.3783
2395.8953
1011.1536
609.96338
411.84981
301.39831
215.80076
172.17456
134.62508
113.04368
94.856426
81.487337
70.560518
61.753177
54.518021
48.508819
43.471854
39.221769
35.604379
32.510216
29.841501
27.531674
25.522724
23.75925
22.207043
20.835114
19.615344
18.528387
17.555897
16.685751
15.9084
15.21148
14.587028
14.026022
13.523273
13.073491
12.672375
12.31595
12.000516
11.722208
11.477445
11.262842
11.076711
10.91451
10.773876
10.652798
10.54982
10.461622
10.38635
10.322676
10.268904
10.223909
10.186413
10.155407
10.130076
10.10961
10.093274
10.080558
10.071197
10.065118
10.061861
10.058712
10.055103
10.050947
10.046135
10.040537
10.033975
10.026169
10.016831
10.006169
9.9952947
9.9876675
9.9827672
9.9808504
9.9806421
9.9834359
9.9880044
9.9942468
10.001466
10.004803
1445.2749
2426.0476
997.72326
602.3621
402.29019
296.82196
211.00041
169.37561
132.60136
111.397
93.491238
80.146529
69.307758
60.576687
53.423023
47.492141
42.52917
38.349645
34.797576
31.765247
29.153878
26.896779
24.938268
23.222011
21.713861
20.38294
19.20214
18.152102
17.214051
16.375582
15.62566
14.95634
14.358111
13.821383
13.341064
12.911855
12.529532
12.19017
11.89028
11.626111
11.394214
11.191778
11.015826
10.862733
10.730094
10.61577
10.518783
10.435886
10.365011
10.305181
10.25496
10.21273
10.177521
10.14839
10.12461
10.105459
10.090223
10.07838
10.069608
10.063785
10.06054
10.057043
10.053133
10.048694
10.043623
10.037789
10.03104
10.023159
10.013821
10.003132
9.9937285
9.986999
9.9826572
9.9808195
9.9810859
9.9835106
9.9876972
9.9934927
10.000126
10.003386
1466.8838
2454.4609
980.3969
593.86772
392.22591
291.84238
206.12795
166.37541
130.52577
109.55268
91.888874
78.599003
67.874103
59.240269
52.186756
46.35143
41.476911
37.380726
33.905003
30.944104
28.398895
26.202162
24.30015
22.637294
21.1791
19.891743
18.754349
17.745476
16.845785
16.043117
15.326399
14.687266
14.117664
13.607403
13.15143
12.744413
12.382265
12.06107
11.777595
11.528294
11.309628
11.11871
10.953448
10.809855
10.685573
10.578732
10.487732
10.410264
10.344024
10.287934
10.240879
10.201695
10.168823
10.141561
10.119291
10.10141
10.087243
10.076266
10.068114
10.06254
10.059224
10.055407
10.051206
10.046498
10.041185
10.03514
10.028213
10.020261
10.011104
10.000787
9.9926067
9.9866993
9.9829517
9.9812726
9.9815951
9.9837821
9.9875548
9.9928085
9.9988509
10.00223
1487.4418
2477.4621
958.90739
584.80682
381.71119
286.4995
201.27107
163.18266
128.32776
107.41614
90.033846
76.83423
66.247058
57.735946
50.803356
45.082082
40.311907
36.312882
32.925766
30.045975
27.576508
25.448724
23.607041
22.003858
20.60234
19.36795
18.278993
17.315866
16.458635
15.69523
15.014393
14.407954
13.868777
13.386861
12.956878
12.573391
12.232544
11.930388
11.663929
11.429978
11.225085
11.046234
10.891708
10.757689
10.641708
10.541718
10.456723
10.384642
10.32345
10.271226
10.22722
10.190669
10.160362
10.134994
10.114184
10.097507
10.084356
10.074203
10.066693
10.061409
10.057872
10.05377
10.049293
10.044332
10.038797
10.032574
10.025509
10.017468
10.008511
9.9990394
9.991916
9.9867107
9.9833777
9.9819192
9.9822766
9.9842562
9.9876117
9.9922135
9.9974778
10.000828
1507.2086
2490.4867
933.30203
575.09714
370.81595
280.83059
196.50397
159.71754
125.88711
104.99495
87.899144
74.834773
64.414485
56.05391
49.265746
43.679302
39.03151
35.143979
31.859339
29.067879
26.683968
24.634942
22.867401
21.33155
19.993322
18.817318
17.781905
16.868495
16.057523
15.336767
14.694766
14.123277
13.61454
13.162315
12.759573
12.400576
12.081841
11.799362
11.550288
11.331925
11.140941
10.975055
10.83119
10.706651
10.599078
10.506136
10.426939
10.359865
10.303107
10.25515
10.214212
10.180094
10.15197
10.128703
10.109342
10.093787
10.081586
10.072185
10.065287
10.060396
10.05646
10.052101
10.047369
10.042176
10.036437
10.030063
10.022922
10.01484
10.005943
9.9977975
9.9916017
9.987027
9.9840466
9.9827388
9.9831099
9.9849443
9.9879187
9.9918111
9.9961064
9.9990995
1526.4056
2483.5941
903.95245
564.78205
359.58689
274.83971
191.82157
155.85369
123.12701
102.24485
85.455578
72.578391
62.360791
54.18344
47.566861
42.137829
37.633195
33.868307
30.701477
28.018594
25.733689
23.774174
22.089202
20.628548
19.359901
18.248342
17.271433
16.409596
15.647916
14.972449
14.37138
13.837064
13.361986
12.939979
12.565073
12.230925
11.934533
11.671915
11.440146
11.237254
11.059634
10.905351
10.772051
10.656771
10.557459
10.472089
10.398627
10.336379
10.283657
10.239441
10.201912
10.170155
10.143971
10.122513
10.10477
10.090278
10.078959
10.07023
10.063826
10.059266
10.054977
10.050376
10.045414
10.040018
10.034098
10.027579
10.020396
10.012447
10.003825
9.9969523
9.9915942
9.9875832
9.9849061
9.9837129
9.9840873
9.9858144
9.9884692
9.9917555
9.9953526
9.9982752
1545.2049
2436.6347
872.29815
553.89469
348.08189
268.44009
186.91466
151.56437
119.93437
99.118614
82.670066
70.040964
60.070607
52.115343
45.700466
40.448521
36.109762
32.497522
29.468402
26.909131
24.737039
22.878333
21.284976
19.907235
18.711677
17.66927
16.755521
15.951098
15.240811
14.61245
14.053538
13.556966
13.115551
12.723616
12.376214
12.06671
11.792367
11.549481
11.334785
11.147024
10.982568
10.839491
10.716206
10.609725
10.517968
10.439274
10.371949
10.314368
10.265414
10.224578
10.190048
10.160906
10.136498
10.116644
10.100314
10.086991
10.076483
10.068379
10.062343
10.057985
10.053407
10.048582
10.043415
10.037842
10.031779
10.025136
10.017876
10.010116
10.00231
9.9964325
9.9918416
9.9883525
9.9859584
9.9848522
9.9851909
9.9867948
9.9892079
9.9921489
9.99546
9.998366
1563.4795
2400.0792
840.35963
542.37957
336.30459
261.0895
181.85796
146.74754
116.19606
95.559084
79.508379
67.199115
57.529166
49.841779
43.654514
38.623055
34.482572
31.046866
28.176502
25.75777
23.71159
21.964669
20.467946
19.180141
18.065803
17.096142
16.247961
15.502357
14.844222
14.263146
13.746544
13.287612
12.879614
12.516964
12.194897
11.909301
11.656201
11.432504
11.235365
11.062076
10.910357
10.777931
10.663975
10.565822
10.481208
10.408594
10.346499
10.293558
10.248528
10.210752
10.178951
10.152119
10.129618
10.111167
10.096127
10.083889
10.074137
10.066649
10.060913
10.056545
10.051743
10.046715
10.041368
10.035641
10.029464
10.022758
10.015449
10.007711
10.001249
9.9962095
9.9923088
9.989322
9.9872178
9.986182
9.9864138
9.9878135
9.9900182
9.9928436
9.9960955
9.998758
1580.7742
2358.9781
807.51374
529.8992
324.15482
252.5541
176.45886
141.28944
111.80478
91.506335
75.938012
64.032784
54.718378
47.348717
41.454139
36.683598
32.775262
29.542368
26.850709
24.588371
22.676031
21.050721
19.661278
18.467453
17.436508
16.541146
15.759123
15.072484
14.465935
13.929621
13.454269
13.0318
12.656097
12.322114
12.025546
11.762482
11.529399
11.323289
11.1416
10.982054
10.842588
10.721159
10.615838
10.525359
10.447391
10.380452
10.323183
10.274391
10.233002
10.198041
10.168712
10.144024
10.123325
10.106118
10.092189
10.08086
10.071878
10.064989
10.059611
10.054959
10.049986
10.044779
10.039278
10.033421
10.027141
10.020404
10.013271
10.006047
10.000542
9.9962499
9.9929584
9.9904513
9.9886551
9.9876929
9.9877467
9.9888128
9.9907305
9.9934949
9.9967872
9.9992056
1596.418
2291.2679
773.00628
515.94606
310.87752
242.68761
170.40394
135.0526
106.66181
86.90282
71.933998
60.523284
51.655544
44.683404
39.135116
34.668268
31.025294
28.018483
25.518444
23.425617
21.66082
20.162705
18.883461
17.785298
16.837818
16.015801
15.298097
14.667144
14.11115
13.619238
13.183005
12.795126
12.449833
12.142496
11.86938
11.6272
11.412768
11.223161
11.055992
10.909023
10.780413
10.668553
10.572045
10.488523
10.41662
10.354874
10.301999
10.256882
10.218565
10.186498
10.159344
10.136533
10.117427
10.101537
10.088595
10.078053
10.069681
10.063269
10.058193
10.053273
10.048148
10.042787
10.037155
10.031199
10.024857
10.018067
10.010995
10.00491
10.000166
9.9965084
9.993732
9.9916532
9.9901668
9.9893018
9.989155
9.9897807
9.9912816
9.9939483
9.9973889
9.9997191
1609.3299
2222.7549
735.93575
499.95624
296.80547
231.29846
163.22393
127.87215
100.6919
81.719344
67.490801
56.711062
48.401534
41.90381
36.756051
32.629197
29.278286
26.511837
24.219917
22.303799
20.689862
19.320803
18.151767
17.147683
16.280893
15.528871
14.871193
14.294452
13.785663
13.334881
12.934965
12.579151
12.262109
11.979485
11.727848
11.504494
11.30696
11.132295
10.978409
10.843132
10.72461
10.621888
10.53258
10.455412
10.388947
10.331892
10.283028
10.241328
10.205935
10.176111
10.15092
10.129758
10.112067
10.097373
10.085328
10.075493
10.067623
10.061535
10.056642
10.051516
10.046254
10.040766
10.03502
10.028975
10.022619
10.015982
10.0093
10.004146
10.000068
9.9969306
9.9945625
9.9928228
9.9916094
9.9908736
9.990595
9.9908101
9.9918156
9.9941983
9.9976779
10.000082
1616.7244
2139.5742
696.07445
480.22816
281.69344
218.06794
154.44528
119.61215
93.895356
76.002901
62.691252
52.702613
45.051746
39.095185
34.390147
30.627067
27.579429
25.068557
22.988132
21.24962
19.784886
18.541693
17.479114
16.565024
15.774103
15.086284
14.485354
13.957713
13.492342
13.079066
12.712003
12.38517
12.093754
11.833734
11.601757
11.395212
11.212726
11.051293
10.909143
10.78444
10.675382
10.580239
10.497583
10.426054
10.364397
10.311479
10.2662
10.227448
10.194749
10.166953
10.143462
10.123704
10.107216
10.093607
10.082356
10.073172
10.065771
10.059904
10.055001
10.049729
10.044341
10.03875
10.032924
10.026809
10.020386
10.013834
10.008134
10.003676
10.000177
9.9974671
9.9954115
9.9939105
9.9928964
9.9922994
9.9920161
9.9920056
9.9925811
9.9944474
9.9975552
9.9999726
1613.4527
2037.4803
652.90823
454.45685
265.36306
202.65074
143.8276
110.29745
86.422206
69.880079
57.718968
48.643797
41.724433
36.3522
32.114322
28.725645
25.982065
23.725683
21.852618
20.285233
18.962334
17.837421
16.874101
16.043709
15.323521
14.695506
14.145269
13.661018
13.232989
12.853268
12.515318
12.214049
11.945203
11.705279
11.491314
11.300768
11.131458
10.981575
10.849382
10.733328
10.631938
10.543699
10.46693
10.400451
10.343036
10.293662
10.251661
10.215679
10.185011
10.159012
10.137033
10.118482
10.103081
10.090239
10.079655
10.071023
10.064096
10.058442
10.053335
10.047969
10.042465
10.036776
10.030887
10.024778
10.01846
10.012168
10.007305
10.00344
10.000426
9.9980832
9.9962862
9.9949586
9.9940667
9.9935653
9.9933453
9.9933146
9.9936811
9.9950532
9.9975525
9.9997291
1593.3414
1906.6514
606.65182
421.96891
247.81563
184.84362
131.59184
100.25177
78.619456
63.673213
52.7931
44.69901
38.542501
33.767993
30.000252
26.98125
24.529937
22.515519
20.837065
19.427974
18.234752
17.216852
16.342619
15.586998
14.929904
14.355181
13.849996
13.40444
13.00984
12.659231
12.3466
12.067451
11.81797
11.595044
11.396051
11.218746
11.061153
10.921494
10.798148
10.689621
10.594605
10.512273
10.440618
10.378568
10.325012
10.278941
10.239442
10.205688
10.176821
10.152283
10.131667
10.114229
10.099582
10.087378
10.077306
10.069127
10.062468
10.056976
10.051728
10.046292
10.040708
10.034935
10.028958
10.022789
10.016574
10.011023
10.006742
10.003377
10.000767
9.9987492
9.9971964
9.9960324
9.9952267
9.9947533
9.9945451
9.9945416
9.9948818
9.995975
9.9979081
9.9996643
1547.5521
1746.635
558.47013
383.55266
230.01772
164.92604
118.42099
90.094898
70.940759
57.704388
48.137538
41.028391
35.623161
31.427696
28.10953
25.440979
23.263182
21.463366
19.959712
18.69105
17.611828
16.687156
15.889886
15.198529
14.595771
14.067333
13.600735
13.188015
12.821463
12.495612
12.204464
11.944081
11.711042
11.502552
11.31625
11.150111
11.002351
10.871364
10.755673
10.653903
10.56476
10.487023
10.419513
10.360943
10.310337
10.26673
10.229307
10.197516
10.170301
10.147123
10.127448
10.110828
10.096844
10.085133
10.075496
10.067547
10.061054
10.055623
10.050242
10.044743
10.039115
10.033322
10.027336
10.021178
10.01509
10.010242
10.006416
10.003451
10.001169
9.9994278
9.9981045
9.9971139
9.9964054
9.995943
9.9956853
9.9956329
9.9959486
9.9969337
9.9985403
9.9998289
1467.8035
1583.2297
509.33091
344.04277
206.06339
145.63387
105.25325
80.510475
63.840359
52.2873
43.968638
37.788045
33.077828
29.407768
26.491022
24.132505
22.196424
20.586341
19.232572
18.084015
17.10155
16.2554
15.522244
14.883587
14.324525
13.832908
13.398727
13.013686
12.671051
12.365218
12.091538
11.846358
11.626608
11.429756
11.253657
11.096459
10.956519
10.832344
10.722542
10.625802
10.540899
10.46675
10.402645
10.346976
10.298882
10.257449
10.221866
10.191396
10.165376
10.143162
10.124273
10.108279
10.094896
10.083632
10.074234
10.06645
10.060025
10.054571
10.049039
10.043434
10.037728
10.031902
10.025941
10.019893
10.014104
10.009745
10.006292
10.003637
10.001614
10.000093
9.9989589
9.9981237
9.9975214
9.9971027
9.9968315
9.9967194
9.9968934
9.997564
9.9987217
9.9997601
1355.8114
1495.8969
463.15031
296.58345
182.24666
127.51804
93.34351
72.019186
57.693113
47.716709
40.505325
35.129827
31.010432
27.778633
25.191671
23.085134
21.344565
19.888137
18.655166
17.60338
16.69908
15.916589
15.235645
14.640045
14.116649
13.654713
13.245341
12.881212
12.556378
12.266358
12.006228
11.772795
11.563247
11.375278
11.206928
11.056501
10.922493
10.803531
10.698336
10.605693
10.524428
10.453397
10.391476
10.33773
10.291215
10.251083
10.216564
10.186995
10.161907
10.140466
10.122237
10.106777
10.093717
10.082734
10.073544
10.065894
10.059524
10.054041
10.048382
10.042651
10.03681
10.030861
10.024823
10.018836
10.013557
10.009508
10.006344
10.003924
10.002099
10.000744
9.9997515
9.9990292
9.9985084
9.998143
9.9979065
9.9977939
9.9978424
9.9981471
9.998785
9.9996272
1223.0654
1252.3031
422.92812
254.26161
160.0918
112.40528
83.482708
65.15961
52.833983
44.19405
37.901199
33.16729
29.505852
26.607281
24.26712
22.346281
20.747469
19.400958
18.255658
17.273331
16.424924
15.687831
15.044152
14.479436
13.981811
13.541399
13.150171
12.801377
12.489448
12.209784
11.958613
11.732795
11.529744
11.347298
11.183619
11.037116
10.90637
10.790084
10.687053
10.596144
10.516337
10.446897
10.386272
10.333622
10.288031
10.248677
10.214804
10.18573
10.160844
10.139612
10.121547
10.10623
10.093291
10.082411
10.073309
10.065732
10.059421
10.053978
10.048329
10.042583
10.0367
10.03068
10.024557
10.018532
10.013518
10.009649
10.006649
10.004369
10.002665
10.001415
10.000511
9.9998595
9.9993921
9.9990687
9.9988695
9.9987642
9.9986951
9.9986246
9.998619
9.9994338
1103.5897
1114.7947
390.24524
223.51021
143.50865
101.2796
76.1752
60.162422
49.36022
41.721969
36.10184
31.833119
28.500698
25.839974
23.674972
21.885161
20.385636
19.115155
18.02859
17.092031
16.279498
15.570707
14.949531
14.403018
13.92105
13.493318
13.11257
12.77243
12.467661
12.193902
11.947561
11.725672
11.525786
11.345856
11.184148
11.039157
10.909542
10.794076
10.691608
10.60104
10.521316
10.451423
10.390398
10.337307
10.291279
10.251502
10.217231
10.187788
10.162563
10.141012
10.122657
10.107073
10.093891
10.082789
10.073486
10.06573
10.059271
10.053746
10.048244
10.04262
10.03689
10.031039
10.025092
10.019211
10.014144
10.010281
10.00729
10.005028
10.003346
10.002119
10.001236
10.000601
10.000147
9.9998414
9.9996562
9.9995135
9.9992803
9.9989233
9.9987109
9.9992562
1048.7187
1073.1829
365.97694
206.41574
132.6305
93.717287
70.723597
56.187959
46.399282
39.467189
34.350374
30.445899
27.384594
24.930104
22.925158
21.261642
19.863162
18.674441
17.654658
16.77309
16.006191
15.335564
14.746547
14.227212
13.767682
13.359687
12.996215
12.671359
12.380152
12.118448
11.882809
11.670394
11.478856
11.306241
11.150902
11.011418
10.886533
10.775101
10.676049
10.588357
10.51104
10.443147
10.383763
10.332012
10.28707
10.248167
10.214591
10.185695
10.160894
10.139667
10.121549
10.106134
10.093062
10.082022
10.072741
10.064973
10.058473
10.052884
10.047299
10.041607
10.035817
10.029923
10.023962
10.018149
10.013444
10.009803
10.007012
10.004918
10.003385
10.002285
10.001495
10.000907
10.000463
10.00017
10.000044
10.000012
9.9997221
9.9992582
9.9988337
9.9989682
31009.335
78706.982
36660.945
10610.576
1400.5271
608.96129
432.91688
349.46548
289.45198
235.44309
191.90715
158.79436
134.28847
116.08871
102.07369
90.6299
80.956795
72.699084
65.619885
59.511976
54.201337
49.552563
45.460402
41.839424
38.624379
35.750898
33.173723
30.852963
28.756851
26.860311
25.141916
23.582555
22.165561
20.876291
19.70327
18.636824
17.668231
16.789752
15.994323
15.275524
14.627765
14.045484
13.523623
13.057639
12.643053
12.275625
11.951514
11.666685
11.417462
11.200487
11.012489
10.850361
10.711144
10.592319
10.491382
10.406323
10.337059
10.282908
10.243838
10.222027
10.214366
10.211982
10.20976
10.207057
10.204254
10.20122
10.196343
10.190434
10.181119
10.173815
10.153967
10.141062
10.095951
10.079872
10.00514
10.003417
9.9631935
9.9894088
9.954101
9.9913769
20122.134
58595.416
24213.01
5013.8882
965.07949
526.79021
396.69387
320.28169
263.11755
211.98251
173.95259
145.23307
124.25729
108.50788
96.069885
85.654568
76.781598
69.192153
62.664266
57.005441
52.062617
47.719072
43.882459
40.476835
37.440404
34.720205
32.274924
30.06724
28.069124
26.258018
24.61414
23.119779
21.759592
20.520111
19.391072
18.36352
17.429311
16.581257
15.812732
15.117736
14.491044
13.927324
13.42183
12.970258
12.568302
12.211923
11.897453
11.620965
11.378957
11.168201
10.985529
10.827941
10.692582
10.577041
10.478902
10.395972
10.328143
10.275244
10.237325
10.216607
10.209595
10.207392
10.205217
10.202583
10.199851
10.197042
10.192876
10.187371
10.178543
10.171059
10.151644
10.13823
10.092455
10.076891
10.003397
10.002902
9.9633953
9.9900755
9.9550354
9.9920061
28608.487
34478.976
13208.027
2508.1989
830.45273
497.17768
386.72998
305.00023
249.78067
200.45365
166.24111
139.15751
119.71606
104.84592
92.986752
82.983547
74.483689
67.213097
60.950308
55.512924
50.757829
46.575369
42.877594
39.591854
36.657423
34.027172
31.661061
29.52271
27.586143
25.829718
24.234349
22.783008
21.461048
20.255592
19.157072
18.156839
17.247076
16.420909
15.671953
14.994456
14.383407
13.833598
13.340491
12.899923
12.507692
12.159894
11.852973
11.583068
11.346803
11.141038
10.962674
10.80879
10.676623
10.563853
10.46799
10.386969
10.320227
10.268286
10.231241
10.211397
10.204831
10.202778
10.200664
10.198105
10.195436
10.192619
10.189131
10.18406
10.175751
10.168101
10.149198
10.135216
10.088989
10.073938
10.001684
10.002407
9.9635745
9.9909854
9.9559752
9.9926143
36014.013
23707.443
8238.8595
1524.9736
750.15371
474.13211
374.40194
289.07592
238.69622
189.86025
159.27925
133.26298
115.40986
101.32258
90.042654
80.445219
72.306046
65.33362
59.319411
54.090251
49.511556
45.48021
41.912554
38.739231
35.902802
33.355541
31.063651
28.990866
27.112794
25.408491
23.859545
22.449552
21.164491
19.992029
18.923248
17.949734
17.063982
16.259402
15.529817
14.869708
14.274258
13.738362
13.257689
12.828195
12.445777
12.106661
11.807394
11.544178
11.313764
11.113091
10.939132
10.789045
10.660222
10.550208
10.4567
10.377704
10.312184
10.261235
10.225095
10.206149
10.200029
10.198135
10.196084
10.193602
10.190997
10.188217
10.185039
10.180424
10.172668
10.164868
10.146509
10.132124
10.085472
10.071036
10.000166
10.002009
9.9638697
9.9920304
9.9569269
9.9933099
40393.749
20337.59
5816.5695
1215.9045
716.86093
456.58428
364.74886
276.70603
230.65344
181.78082
154.35794
128.68625
112.16906
98.526129
87.680597
78.381174
70.522047
63.778231
57.956912
52.89082
48.451835
44.541416
41.078833
37.997103
35.24074
32.764622
30.532974
28.515443
26.68713
25.027496
23.518639
22.144622
20.891911
19.748593
18.706287
17.756695
16.892588
16.107585
15.395674
14.751525
14.17047
13.647476
13.178396
12.759276
12.386091
12.055182
11.76318
11.506335
11.28152
11.085738
10.916029
10.769632
10.644023
10.536705
10.445497
10.368467
10.304283
10.254277
10.219003
10.200913
10.195209
10.19347
10.191487
10.189085
10.186543
10.183789
10.180658
10.176489
10.169312
10.161384
10.143594
10.128894
10.081872
10.068077
9.9987405
10.001689
9.9642256
9.9929018
9.9578955
9.9940386
43148.091
19007.761
4480.889
1145.4174
696.94909
438.48525
357.3579
266.99504
224.51873
175.33025
150.4995
124.81781
109.49624
96.116814
85.649374
76.591474
68.967271
62.413121
56.753907
51.825769
47.505838
43.699043
40.326956
37.324513
34.637958
32.223522
30.045469
28.076775
26.292588
24.672829
23.199952
21.858395
20.635037
19.518307
18.500293
17.572746
16.728693
15.96192
15.266542
14.637395
14.069932
13.559173
13.101138
12.691937
12.327615
12.004615
11.719637
11.468974
11.249613
11.058614
10.893086
10.750381
10.627852
10.523193
10.434266
10.359189
10.296464
10.247366
10.212941
10.195649
10.190373
10.188791
10.186877
10.184557
10.182078
10.179353
10.176188
10.172254
10.165673
10.157643
10.140419
10.125436
10.078136
10.064981
9.9974803
10.001438
9.9647054
9.9935484
9.9588833
9.9947976
45323.535
17098.415
3601.0843
1095.8383
682.06766
425.99866
351.51823
259.21453
219.75665
170.20121
147.43296
121.56812
107.2823
94.039592
83.90076
75.036711
67.609034
61.212535
55.689578
50.878127
46.659652
42.941697
39.647635
36.713936
34.088212
31.727941
29.598689
27.671979
25.926802
24.342643
22.90208
21.589828
20.393106
19.300631
18.3049
17.397654
16.572167
15.822347
15.142417
14.527354
13.972705
13.473526
13.025996
12.626262
12.270432
11.955039
11.676841
11.432165
11.218112
11.031796
10.870436
10.731222
10.611738
10.509705
10.423031
10.349888
10.288739
10.240511
10.206918
10.190299
10.185536
10.184103
10.182261
10.180024
10.177608
10.174908
10.171729
10.16776
10.161755
10.153657
10.13697
10.121668
10.074346
10.061768
9.9963149
10.001247
9.9652716
9.994127
9.9598943
9.9954852
46929.024
14465.685
3036.3647