/*--------------------------------*- C++ -*----------------------------------*\
  =========                 |
  \\      /  F ield         | OpenFOAM: The Open Source CFD Toolbox
   \\    /   O peration     | Website:  https://openfoam.org
    \\  /    A nd           | Version:  12
     \\/     M anipulation  |
\*---------------------------------------------------------------------------*/
FoamFile
{
    format      ascii;
    class       volScalarField;
    location    "0.081";
    object      p;
}
// * * * * * * * * * * * * * * * * * * * * * * * * * * * * * * * * * * * * * //

dimensions      [1 -1 -2 0 0 0 0];

internalField   nonuniform List<scalar> 
16000
(
89718.921
89843.613
89855.179
89988.243
90014.264
90140.192
90190.221
90305.598
90378.664
90488.438
90579.502
90689.184
90794.107
90908.043
91023.843
91145.015
91270.194
91399.973
91534.232
91673.055
91816.45
91964.422
92116.952
92273.996
92435.486
92601.327
92771.394
92945.53
93123.548
93305.225
93490.307
93678.505
93869.496
94062.927
94258.411
94455.535
94653.859
94852.922
95052.246
95251.339
95449.704
95646.841
95842.255
96035.461
96225.992
96413.398
96597.258
96777.176
96952.796
97123.795
97289.891
97450.843
97606.451
97756.554
97901.031
98039.799
98172.813
98300.061
98421.561
98537.359
98647.528
98752.157
98851.359
98945.265
99034.015
99117.763
99196.662
99270.857
99340.485
99405.653
99466.431
99522.973
99575.418
99623.881
99668.499
99705.712
99762.498
99733.872
99902.541
99718.753
89354.05
89495.429
89504.652
89649.525
89677.07
89813.731
89866.066
89992.551
90069.35
90189.093
90286.428
90404.914
90518.011
90640.666
90765.573
90896.073
91030.983
91170.78
91315.386
91464.851
91619.171
91778.324
91942.262
92110.906
92284.151
92461.858
92643.855
92829.935
93019.857
93213.342
93410.076
93609.708
93811.853
94016.092
94221.978
94429.034
94636.764
94844.652
95052.173
95258.793
95463.983
95667.218
95867.99
96065.807
96260.208
96450.757
96637.058
96818.751
96995.52
97167.091
97333.237
97493.773
97648.558
97797.492
97940.515
98077.602
98208.764
98334.042
98453.501
98567.232
98675.347
98777.968
98875.235
98967.299
99054.317
99136.452
99213.861
99286.695
99355.091
99419.156
99478.967
99534.671
99586.409
99634.112
99677.575
99719.9
99758.678
99765.162
99877.383
99749.453
89020.033
89176.678
89185.824
89343.761
89371.333
89521.562
89575.503
89714.147
89795.724
89925.824
90030.813
90158.745
90281.279
90413.664
90548.871
90689.894
90835.755
90986.806
91142.983
91304.297
91470.714
91642.175
91818.592
91999.846
92185.785
92376.217
92570.919
92769.624
92972.028
93177.786
93386.514
93597.789
93811.155
94026.119
94242.165
94458.749
94675.313
94891.286
95106.097
95319.175
95529.963
95737.922
95942.541
96143.337
96339.868
96531.734
96718.577
96900.093
97076.023
97246.161
97410.348
97568.473
97720.467
97866.304
98005.992
98139.576
98267.129
98388.749
98504.555
98614.683
98719.285
98818.52
98912.553
99001.557
99085.703
99165.161
99240.093
99310.648
99376.957
99439.119
99497.224
99551.411
99601.747
99648.037
99690.874
99732.475
99764.603
99789.601
99868.035
99773.765
88720.544
88887.805
88898.006
89071.079
89098.185
89264.46
89320.626
89473.408
89560.735
89702.747
89816.88
89955.628
90089.225
90232.803
90379.826
90532.838
90691.064
90854.737
91023.795
91198.212
91377.923
91562.834
91752.815
91947.701
92147.285
92351.319
92559.512
92771.527
92986.981
93205.449
93426.462
93649.513
93874.058
94099.525
94325.317
94550.818
94775.408
94998.462
95219.366
95437.523
95652.359
95863.338
96069.959
96271.771
96468.372
96659.415
96844.61
97023.724
97196.579
97363.052
97523.073
97676.616
97823.7
97964.38
98098.748
98226.919
98349.035
98465.254
98575.75
98680.705
98780.311
98874.759
98964.239
99048.943
99129.053
99204.745
99276.178
99343.496
99406.817
99466.233
99521.838
99573.753
99621.968
99666.384
99707.977
99747.195
99777.139
99809.048
99868.335
99792.204
88459.288
88641.267
88648.439
88839.989
88866.017
89050.506
89108.827
89277.572
89371.92
89527.271
89652.339
89803.107
89949.283
90105.295
90265.366
90431.55
90603.283
90780.708
90963.766
91152.401
91346.513
91545.965
91750.574
91960.111
92174.297
92392.806
92615.257
92841.219
93070.211
93301.706
93535.133
93769.883
94005.314
94240.763
94475.548
94708.982
94940.384
95169.086
95394.444
95615.849
95832.734
96044.585
96250.942
96451.409
96645.652
96833.405
97014.468
97188.704
97356.039
97516.45
97669.971
97816.677
97956.682
98090.134
98217.206
98338.094
98453.004
98562.158
98665.778
98764.09
98857.322
98945.692
99029.413
99108.688
99183.708
99254.647
99321.661
99384.88
99444.406
99500.318
99552.706
99601.657
99647.115
99689.144
99728.702
99764.989
99793.522
99827.523
99873.28
99808.915
88241.045
88440.515
88445.435
88657.873
88682.825
88887.486
88948.11
89134.507
89237.092
89406.526
89543.749
89707.038
89866.698
90035.96
90210.009
90390.42
90576.8
90769.212
90967.571
91171.767
91381.637
91596.971
91817.503
92042.91
92272.812
92506.771
92744.293
92984.825
93227.765
93472.461
93718.223
93964.326
94210.023
94454.554
94697.156
94937.078
95173.592
95406.004
95633.666
95855.983
96072.426
96282.534
96485.922
96682.281
96871.38
97053.063
97227.248
97393.917
97553.118
97704.951
97849.562
97987.136
98117.891
98242.068
98359.925
98471.73
98577.757
98678.279
98773.567
98863.882
98949.48
99030.6
99107.468
99180.294
99249.271
99314.566
99376.325
99434.659
99489.652
99541.366
99589.873
99635.22
99677.338
99716.433
99753.238
99786.248
99813.091
99846.725
99881.587
99826.419
88066.033
88286.11
88288.301
88525.087
88549.089
88777.661
88841.475
89047.071
89157.88
89340.731
89491.014
89667.434
89841.9
90025.903
90215.597
90412.056
90614.97
90824.297
91039.882
91261.527
91488.977
91721.915
91959.959
92202.664
92449.517
92699.94
92953.295
93208.884
93465.959
93723.729
93981.369
94238.033
94492.867
94745.021
94993.666
95238.007
95477.296
95710.845
95938.036
96158.331
96371.278
96576.512
96773.763
96962.849
97143.675
97316.229
97480.571
97636.829
97785.188
97925.878
98059.17
98185.362
98304.772
98417.733
98524.58
98625.648
98721.268
98811.759
98897.424
98978.555
99055.424
99128.283
99197.36
99262.866
99324.985
99383.875
99439.661
99492.435
99542.256
99589.166
99633.213
99674.396
99712.664
99748.303
99781.719
99811.072
99835.807
99867.614
99892.656
99846.748
87928.425
88172.693
88170.679
88436.708
88457.568
88712.487
88779.413
89003.87
89126.186
89324.913
89491.897
89684.249
89876.508
90078.133
90286.227
90501.446
90723.514
90952.285
91187.514
91428.895
91676.05
91928.527
92185.797
92447.258
92712.232
92979.971
93249.666
93520.447
93791.404
94061.59
94330.046
94595.806
94857.923
95115.48
95367.611
95613.513
95852.461
96083.822
96307.058
96521.74
96727.544
96924.254
97111.759
97290.047
97459.195
97619.361
97770.774
97913.719
98048.528
98175.57
98295.235
98407.929
98514.066
98614.055
98708.299
98797.186
98881.09
98960.362
99035.328
99106.294
99173.538
99237.313
99297.843
99355.326
99409.933
99461.8
99511.031
99557.691
99601.813
99643.417
99682.515
99719.071
99753.06
99784.778
99814.261
99839.685
99861.912
99890.175
99906.723
99871.501
87826.089
88098.418
88092.119
88394.217
88409.474
88692.891
88764.916
89010.992
89149.85
89366.867
89554.143
89765.299
89978.378
90200.695
90430.166
90667.1
90911.189
91162.16
91419.638
91683.169
91952.215
92226.145
92504.244
92785.71
93069.663
93355.151
93641.161
93926.636
94210.49
94491.623
94768.946
95041.4
95307.974
95567.728
95819.807
96063.458
96298.044
96523.048
96738.084
96942.892
97137.34
97321.414
97495.21
97658.923
97812.832
97957.289
98092.699
98219.512
98338.206
98449.277
98553.228
98650.556
98741.752
98827.288
98907.613
98983.153
99054.305
99121.436
99184.881
99244.943
99301.897
99355.984
99407.413
99456.362
99502.979
99547.372
99589.618
99629.751
99667.776
99703.688
99737.46
99769.031
99798.405
99825.804
99850.942
99872.326
99891.713
99915.007
99924.645
99899.976
87761.073
88066.129
88056.599
88395.572
88409.923
88725.202
88808.523
89079.584
89238.153
89475.51
89686.732
89919.898
90157.06
90403.453
90657.581
90919.444
91188.632
91464.705
91747.11
92035.198
92328.211
92625.292
92925.482
93227.735
93530.923
93833.858
94135.304
94434.005
94728.703
95018.165
95301.21
95576.726
95843.7
96101.236
96348.57
96585.081
96810.303
97023.924
97225.785
97415.871
97594.301
97761.315
97917.255
98062.551
98197.7
98323.249
98439.78
98547.897
98648.206
98741.314
98827.808
98908.259
98983.207
99053.163
99118.602
99179.963
99237.648
99292.021
99343.408
99392.1
99438.352
99482.382
99524.376
99564.483
99602.819
99639.462
99674.453
99707.796
99739.467
99769.429
99797.623
99823.972
99848.489
99871.258
99891.79
99909.115
99925.186
99942.607
99947.078
99931.542
87740.704
88084.619
88071.151
88450.166
88468.22
88819.393
88917.709
89215.725
89399.689
89660.23
89899.587
90158.656
90423.59
90697.817
90980.194
91270.444
91567.982
91872.145
92182.133
92497.029
92815.789
93137.254
93460.164
93783.175
94104.877
94423.823
94738.552
95047.622
95349.638
95643.286
95927.355
96200.771
96462.614
96712.136
96948.774
97172.153
97382.081
97578.546
97761.698
97931.835
98089.38
98234.859
98368.88
98492.112
98605.263
98709.063
98804.247
98891.542
98971.658
99045.274
99113.036
99175.551
99233.384
99287.054
99337.036
99383.761
99427.616
99468.944
99508.046
99545.184
99580.584
99614.434
99646.883
99678.048
99708.007
99736.801
99764.435
99790.88
99816.083
99839.975
99862.468
99883.482
99902.999
99920.938
99936.764
99950.059
99962.277
99973.309
99974.234
99966.78
87773.605
88163.773
88146.48
88572.956
88595.876
88986.312
89103.746
89430.443
89645.378
89932.316
90204.082
90493.459
90790.299
91096.541
91411.156
91733.551
92062.87
92398.129
92738.185
93081.752
93427.413
93773.635
94118.801
94461.23
94799.216
95131.06
95455.107
95769.787
96073.647
96365.39
96643.905
96908.286
97157.853
97392.153
97610.965
97814.283
98002.302
98175.397
98334.095
98479.047
98611.001
98730.776
98839.233
98937.257
99025.734
99105.539
99177.517
99242.479
99301.19
99354.366
99402.673
99446.717
99487.057
99524.192
99558.574
99590.601
99620.626
99648.955
99675.85
99701.535
99726.196
99749.98
99772.997
99795.323
99816.997
99838.019
99858.357
99877.95
99896.714
99914.551
99931.355
99947.039
99961.511
99974.539
99985.71
99995.028
100002.88
100007.34
100006.16
100005.79
87860.403
88305.553
88284.957
88765.449
88796.683
89230.072
89374.261
89732.217
89985.207
90303.275
90612.537
90937.606
91271.319
91614.429
91965.781
92324.37
92688.928
93058.021
93430.041
93803.233
94175.725
94545.556
94910.717
95269.189
95618.996
95958.245
96285.181
96598.23
96896.038
97177.508
97441.816
97688.423
97917.077
98127.79
98320.825
98496.663
98655.969
98799.557
98928.353
99043.362
99145.637
99236.251
99316.273
99386.749
99448.687
99503.049
99550.734
99592.585
99629.374
99661.809
99690.533
99716.124
99739.098
99759.912
99778.969
99796.62
99813.165
99828.86
99843.919
99858.518
99872.796
99886.853
99900.757
99914.538
99928.194
99941.686
99954.943
99967.874
99980.363
99992.291
100003.54
100014
100023.48
100031.65
100038.34
100043.73
100046.77
100044.75
100042.67
100048.8
88006.213
88516.648
88493.356
89035.24
89081.008
89561.276
89741.356
90133.887
90432.612
90788.044
91140.777
91507.912
91884.332
92269.741
92662.581
93061.271
93463.969
93868.653
94273.142
94675.131
95072.236
95462.044
95842.169
96210.314
96564.337
96902.313
97222.586
97523.818
97805.015
98065.542
98305.119
98523.8
98721.95
98900.198
99059.395
99200.568
99324.875
99433.556
99527.903
99609.218
99678.79
99737.871
99787.659
99829.285
99863.807
99892.204
99915.37
99934.12
99949.189
99961.235
99970.843
99978.529
99984.744
99989.881
99994.278
99998.221
100001.95
100005.66
100009.51
100013.63
100018.09
100022.96
100028.25
100033.95
100040.01
100046.36
100052.89
100059.47
100065.98
100072.26
100078.2
100083.63
100088.25
100091.74
100094.22
100095.71
100093.66
100085.72
100083.55
100095.49
88217.528
88806.047
88781.904
89393.541
89460.955
89992.105
90219.184
90651.399
91004.74
91405.905
91809.487
92226.089
92651.633
93084.782
93523.327
93964.95
94407.095
94847.037
95281.927
95708.853
96124.908
96527.275
96913.314
97280.647
97627.235
97951.441
98252.067
98528.371
98780.065
99007.28
99210.531
99390.659
99548.768
99686.172
99804.323
99904.767
99989.089
100058.87
100115.68
100161
100196.24
100222.76
100241.76
100254.39
100261.67
100264.53
100263.8
100260.22
100254.45
100247.07
100238.55
100229.36
100219.84
100210.31
100201.04
100192.23
100184.07
100176.68
100170.16
100164.58
100159.98
100156.35
100153.67
100151.88
100150.91
100150.62
100150.89
100151.56
100152.47
100153.47
100154.42
100155.08
100155.07
100154.17
100152.74
100150.32
100143.21
100130.56
100129.04
100144.35
88500.581
89182.395
89160.175
89851.02
89951.209
90539.02
90827.588
91307.913
91726.27
92183.329
92645.948
93119.451
93599.963
94085.079
94571.737
95056.718
95536.589
96007.797
96466.758
96909.972
97334.145
97736.308
98113.929
98464.995
98788.064
99082.289
99347.399
99583.662
99791.819
99973.012
100128.7
100260.56
100370.45
100460.29
100532.05
100587.65
100628.96
100657.77
100675.75
100684.46
100685.33
100679.64
100668.57
100653.18
100634.38
100613
100589.77
100565.31
100540.16
100514.79
100489.59
100464.9
100440.99
100418.1
100396.4
100376.03
100357.09
100339.66
100323.76
100309.42
100296.61
100285.3
100275.41
100266.84
100259.47
100253.15
100247.72
100242.98
100238.77
100234.93
100231.26
100227.47
100223.13
100218.19
100213.14
100206.81
100194.82
100178.68
100178.53
100193.85
88862.678
89655.92
89641.032
90425.989
90575.771
91230.179
91597.185
92136.327
92630.176
93153.36
93682.584
94219.108
94758.571
95297.307
95831.098
96355.562
96866.212
97358.629
97828.639
98272.488
98686.998
99069.68
99418.807
99733.433
100013.36
100259.09
100471.7
100652.75
100804.19
100928.22
101027.18
101103.49
101159.58
101197.81
101220.42
101229.54
101227.13
101215.01
101194.8
101167.99
101135.9
101099.69
101060.4
101018.92
100976.04
100932.43
100888.68
100845.27
100802.63
100761.09
100720.95
100682.42
100645.71
100610.93
100578.21
100547.59
100519.12
100492.79
100468.61
100446.52
100426.47
100408.35
100392.07
100377.48
100364.42
100352.73
100342.21
100332.64
100323.84
100315.63
100307.77
100299.88
100291.57
100283
100274.59
100264.37
100247.82
100229.21
100230.53
100243.97
89323.098
90253.586
90257.326
91156.091
91372.888
92104.027
92566.591
93175.565
93754.274
94352.971
94955.065
95558.433
96157.39
96746.536
97320.119
97872.46
98398.174
98892.443
99351.229
99771.442
100151.02
100488.96
100785.22
101040.67
101256.91
101436.11
101580.87
101694.08
101778.74
101837.92
101874.59
101891.64
101891.78
101877.51
101851.13
101814.74
101770.2
101719.17
101663.12
101603.35
101540.97
101476.95
101412.14
101347.25
101282.87
101219.53
101157.65
101097.57
101039.59
100983.92
100930.74
100880.18
100832.34
100787.27
100744.99
100705.5
100668.79
100634.79
100603.44
100574.65
100548.32
100524.32
100502.5
100482.68
100464.69
100448.31
100433.34
100419.54
100406.71
100394.64
100383.03
100371.43
100359.56
100347.79
100336.28
100322.22
100301.47
100281.29
100284.48
100295.49
89914.012
91018.984
91051.658
92082.721
92384.97
93200.513
93777.085
94469.195
95142.093
95824.575
96502.962
97171.661
97822.858
98449.159
99043.471
99599.503
100112.07
100577.3
100992.78
101357.49
101671.73
101936.94
102155.5
102330.45
102465.31
102563.87
102630.02
102667.6
102680.32
102671.68
102644.91
102602.98
102548.56
102484.04
102411.52
102332.86
102249.67
102163.36
102075.13
101986.01
101896.88
101808.47
101721.4
101636.19
101553.25
101472.93
101395.5
101321.17
101250.1
101182.41
101118.16
101057.39
101000.13
100946.34
100895.98
100849
100805.32
100764.83
100727.43
100692.99
100661.35
100632.37
100605.84
100581.59
100559.4
100539.03
100520.26
100502.83
100486.53
100471.11
100456.19
100441.32
100426.36
100411.82
100397.43
100379.68
100355.32
100334.71
100340.29
100347.89
90664.695
91979.971
92055.992
93237.683
93658.976
94570.726
95282.51
96074.06
96848.434
97616.834
98365.087
99084.109
99764.201
100397.04
100975.85
101495.8
101954.04
102349.72
102683.73
102958.44
103177.35
103344.77
103465.49
103544.51
103586.85
103597.38
103580.66
103540.96
103482.12
103407.62
103320.52
103223.53
103119.01
103008.98
102895.21
102779.18
102662.16
102545.22
102429.27
102315.03
102203.12
102094.05
101988.21
101885.93
101787.45
101692.95
101602.56
101516.38
101434.45
101356.78
101283.36
101214.15
101149.09
101088.09
101031.07
100977.9
100928.46
100882.61
100840.21
100801.09
100765.07
100731.96
100701.55
100673.61
100647.93
100624.24
100602.3
100581.84
100562.62
100544.35
100526.6
100508.94
100491.4
100474.47
100457.39
100436.26
100409.26
100389.42
100397.16
100399.5
91603.976
93182.046
93337.223
94687.098
95272.263
96295.991
97159.739
98060.995
98931.328
99768.923
100558.13
101288.15
101949.95
102537.41
103047.32
103479.19
103834.96
104118.44
104334.83
104490.25
104591.24
104644.45
104656.38
104633.14
104580.4
104503.29
104406.35
104293.63
104168.61
104034.31
103893.33
103747.87
103599.78
103450.63
103301.71
103154.11
103008.72
102866.26
102727.31
102592.35
102461.73
102335.73
102214.57
102098.37
101987.25
101881.23
101780.35
101684.56
101593.84
101508.11
101427.28
101351.24
101279.88
101213.06
101150.65
101092.48
101038.39
100988.22
100941.78
100898.88
100859.32
100822.87
100789.31
100758.4
100729.89
100703.51
100678.99
100656.07
100634.48
100613.85
100593.76
100573.83
100554.21
100535.25
100515.73
100491.89
100463.51
100444.89
100452.96
100449.13
92813.842
94724.059
95002.543
96541.075
97336.966
98481.293
99492.315
100488.38
101418.54
102274.34
103042.26
103714.73
104288.16
104762.96
105142.76
105433.67
105643.45
105780.81
105854.74
105874.12
105847.33
105782.11
105685.4
105563.36
105421.33
105263.92
105095.07
104918.08
104735.77
104550.44
104364.04
104178.13
103994.04
103812.79
103635.26
103462.1
103293.84
103130.9
102973.58
102822.09
102676.59
102537.16
102403.84
102276.64
102155.51
102040.4
101931.21
101827.85
101730.18
101638.07
101551.38
101469.95
101393.61
101322.2
101255.52
101193.39
101135.64
101082.04
101032.42
100986.53
100944.17
100905.09
100869.05
100835.79
100805.06
100776.56
100750.02
100725.17
100701.68
100679.19
100657.25
100635.6
100614.4
100593.75
100572.18
100546.54
100517.88
100499.58
100504.61
100496.32
94424.804
96745.455
97201.294
98926.976
99968.543
101219.26
102326.32
103352.02
104259.18
105041.66
105695.3
106222.25
106628.99
106925.26
107122.71
107233.82
107271.07
107246.31
107170.42
107053.11
106902.88
106727.04
106531.79
106322.33
106103
105877.37
105648.38
105418.42
105189.41
104962.93
104740.2
104522.2
104309.7
104103.28
103903.39
103710.33
103524.34
103345.54
103174.01
103009.77
102852.79
102703
102560.33
102424.64
102295.8
102173.67
102058.08
101948.85
101845.82
101748.78
101657.56
101571.94
101491.75
101416.76
101346.77
101281.58
101220.97
101164.73
101112.62
101064.43
101019.9
100978.79
100940.84
100905.79
100873.36
100843.25
100815.18
100788.86
100763.95
100740.04
100716.75
100693.86
100671.5
100649.5
100626.34
100599.64
100571.09
100552.13
100552.67
100541.89
96625.476
99406.359
100101.27
101966.16
103216.8
104514.3
105602.74
106532.59
107291.02
107883.75
108321.67
108620.36
108797.5
108871.24
108859
108776.74
108638.58
108456.7
108241.4
108001.28
107743.39
107473.49
107196.25
106915.41
106633.94
106354.2
106078.05
105806.94
105541.96
105283.98
105033.61
104791.3
104557.37
104332.01
104115.33
103907.36
103708.08
103517.42
103335.26
103161.48
102995.9
102838.35
102688.64
102546.57
102411.93
102284.5
102164.06
102050.4
101943.29
101842.51
101747.82
101659.02
101575.87
101498.15
101425.63
101358.09
101295.3
101237.03
101183.04
101133.08
101086.91
101044.27
101004.89
100968.5
100934.81
100903.53
100874.35
100846.97
100821.04
100796.15
100771.93
100748.22
100725.03
100701.99
100677.66
100650.34
100622.23
100602.85
100598.94
100584.35
99666.562
102820.8
103820.56
105750.84
107043.15
108196.45
109101.95
109784.22
110260.73
110557.83
110703.09
110723.65
110644.26
110486.61
110269.06
110006.81
109712.22
109395.19
109063.59
108723.6
108380.05
108036.68
107696.37
107361.31
107033.15
106713.12
106402.12
106100.77
105809.5
105528.58
105258.14
104998.23
104748.79
104509.74
104280.93
104062.18
103853.29
103654.02
103464.15
103283.41
103111.56
102948.33
102793.46
102646.68
102507.74
102376.38
102252.33
102135.35
102025.17
101921.56
101824.26
101733.04
101647.64
101567.84
101493.39
101424.05
101359.6
101299.78
101244.35
101193.06
101145.66
101101.87
101061.44
101024.07
100989.49
100957.38
100927.45
100899.35
100872.75
100847.24
100822.47
100798.25
100774.43
100750.54
100725.32
100697.82
100670.53
100650.82
100641.13
100618.86
103806.13
107172.63
108373.74
110045.57
111158.14
111979.45
112508.23
112798.58
112894.54
112838.66
112666.93
112409.2
112089.39
111726.29
111334.45
110925.01
110506.38
110084.89
109665.28
109251.03
108844.69
108448.09
108062.51
107688.84
107327.63
106979.22
106643.74
106321.22
106011.56
105714.61
105430.13
105157.88
104897.57
104648.89
104411.52
104185.12
103969.38
103763.96
103568.53
103382.76
103206.33
103038.93
102880.24
102729.96
102587.8
102453.46
102326.66
102207.13
102094.59
101988.78
101889.43
101796.3
101709.13
101627.67
101551.68
101480.92
101415.13
101354.08
101297.51
101245.17
101196.8
101152.12
101110.88
101072.79
101037.56
101004.88
100974.43
100945.88
100918.87
100893.02
100867.97
100843.4
100819.04
100794.43
100768.81
100741.78
100714.99
100692.36
100674.22
100646.99
108975.17
112306.17
113412.42
114527.92
115133.71
115416.04
115438.55
115273.75
114975.04
114584.32
114132.69
113643.08
113132.14
112611.82
112090.65
111574.63
111067.96
110573.49
110093.13
109628.11
109179.15
108746.59
108330.55
107930.93
107547.52
107180.01
106828.03
106491.18
106169.02
105861.09
105566.95
105286.14
105018.2
104762.7
104519.2
104287.27
104066.51
103856.52
103656.91
103467.3
103287.33
103116.66
102954.93
102801.83
102657.04
102520.24
102391.15
102269.46
102154.9
102047.19
101946.07
101851.27
101762.53
101679.6
101602.24
101530.19
101463.22
101401.06
101343.47
101290.19
101240.96
101195.51
101153.57
101114.87
101079.1
101045.96
101015.11
100986.24
100958.97
100932.93
100907.69
100882.82
100857.94
100832.75
100807.02
100780.52
100753.38
100726.25
100699.29
100669.09
115124.55
117611.16
118215.82
118495.52
118404.35
118081.63
117605.77
117036.6
116414.21
115765.75
115109.25
114456.57
113815.38
113190.58
112585.12
112000.72
111438.23
110897.91
110379.66
109883.12
109407.78
108953.01
108518.13
108102.46
107705.27
107325.86
106963.55
106617.66
106287.54
105972.57
105672.16
105385.72
105112.72
104852.62
104604.93
104369.16
104144.87
103931.61
103728.96
103536.51
103353.9
103180.74
103016.67
102861.37
102714.49
102575.72
102444.75
102321.3
102205.06
102095.76
101993.13
101896.9
101806.82
101722.62
101644.07
101570.9
101502.87
101439.74
101381.25
101327.14
101277.15
101231.02
101188.47
101149.24
101113.01
101079.49
101048.34
101019.22
100991.8
100965.65
100940.28
100915.13
100889.79
100864.23
100838.59
100812.43
100784.04
100751.62
100716.56
100685.15
121678.07
122115.92
121902.34
121362.04
120641.84
119830.55
118983.57
118132.26
117294.91
116481.61
115697.71
114945.72
114226.44
113539.68
112884.65
112260.28
111665.29
111098.37
110558.18
110043.41
109552.82
109085.22
108639.46
108214.5
107809.34
107423.03
107054.71
106703.54
106368.77
106049.66
105745.53
105455.75
105179.71
104916.84
104666.6
104428.48
104201.99
103986.67
103782.09
103587.83
103403.49
103228.69
103063.07
102906.26
102757.95
102617.81
102485.52
102360.79
102243.33
102132.86
102029.09
101931.77
101840.64
101755.45
101675.93
101601.85
101532.96
101469.01
101409.75
101354.93
101304.29
101257.56
101214.49
101174.79
101138.17
101104.32
101072.92
101043.64
101016.12
100989.94
100964.49
100939.14
100913.5
100887.74
100862.25
100836.17
100806.25
100769.02
100727.47
100695.67
125507.49
124890.89
123988.39
122951.03
121881.97
120824.68
119801.55
118821.77
117888.73
117002.67
116162.33
115365.68
114610.39
113894.07
113214.36
112569.01
111955.91
111373.12
110818.83
110291.37
109789.22
109310.98
108855.34
108421.12
108007.22
107612.63
107236.41
106877.69
106535.65
106209.54
105898.66
105602.34
105319.97
105050.96
104794.76
104550.86
104318.76
104098.01
103888.14
103688.76
103499.45
103319.84
103149.55
102988.24
102835.57
102691.23
102554.89
102426.26
102305.06
102190.99
102083.78
101983.18
101888.92
101800.74
101718.4
101641.66
101570.26
101503.96
101442.5
101385.64
101333.11
101284.66
101240.01
101198.89
101160.99
101126.01
101093.61
101063.47
101035.23
101008.41
100982.35
100956.34
100930.01
100903.69
100877.84
100851.26
100819.77
100779.11
100733.46
100701.27
103852.35
103826.28
103875.17
103923.89
103960.01
103970.26
103953.41
103924.49
103889.68
103845.57
103787.8
103716.92
103636.79
103552.2
103463.92
103372.02
103276.83
103178.85
103078.49
102976.16
102872.21
102767
102660.84
102554.04
102446.86
102339.57
102232.4
102125.55
102019.25
101913.67
101809
101705.41
101603.07
101502.12
101402.72
101305.02
101209.16
101115.28
101023.53
100934.03
100846.94
100762.38
100680.5
100601.42
100525.28
100452.21
100382.34
100315.77
100252.64
100193.06
100137.11
100084.89
100036.48
99991.924
99951.276
99914.553
99881.757
99852.867
99827.836
99806.591
99789.036
99775.041
99764.466
99757.087
99752.827
99751.116
99752.544
99754.889
99762.144
99765.167
99781.029
99777.365
99809.631
99785.081
99851.021
99786.773
99897.921
99785.751
99942.708
99770.237
103234.47
103228.3
103241.5
103256.75
103254.78
103246.59
103234.99
103216.84
103187.02
103151.53
103109.2
103061.83
103008.65
102950.81
102888.34
102821.93
102751.79
102678.27
102601.69
102522.34
102440.54
102356.57
102270.7
102183.22
102094.39
102004.47
101913.72
101822.38
101730.69
101638.87
101547.17
101455.79
101364.94
101274.84
101185.68
101097.66
101010.97
100925.8
100842.33
100760.73
100681.19
100603.87
100528.95
100456.59
100386.94
100320.16
100256.4
100195.79
100138.47
100084.56
100034.17
99987.391
99944.303
99904.969
99869.429
99837.704
99809.791
99785.661
99765.263
99748.517
99735.318
99725.527
99718.997
99715.503
99714.937
99716.787
99721.498
99727.135
99737.134
99743.426
99761.16
99760.942
99794.41
99773.799
99838.241
99778.293
99889.483
99777.505
99940.201
99761.842
102824.78
102808.65
102778.71
102747.29
102717
102688.72
102655.87
102623.8
102588.15
102552.1
102512.12
102470.88
102426.13
102379.38
102329.63
102277.45
102222.62
102165.31
102105.56
102043.48
101979.19
101912.82
101844.5
101774.4
101702.68
101629.52
101555.1
101479.62
101403.27
101326.26
101248.79
101171.08
101093.33
101015.76
100938.58
100862.01
100786.26
100711.54
100638.05
100566.01
100495.62
100427.08
100360.58
100296.32
100234.47
100175.22
100118.74
100065.17
100014.68
99967.401
99923.449
99882.931
99845.933
99812.521
99782.738
99756.607
99734.122
99715.251
99699.937
99688.097
99679.619
99674.36
99672.163
99672.809
99676.162
99681.756
99689.93
99698.964
99711.892
99721.416
99741.304
99744.323
99779.13
99762.08
99825.754
99769.578
99880.942
99769.642
99937.275
99753.967
102225.35
102202.45
102173.71
102141.97
102110.46
102082.46
102050.09
102020.69
101987.13
101955.61
101920.57
101886.35
101849.34
101812.02
101772.58
101731.88
101689.4
101645.31
101599.48
101551.9
101502.57
101451.51
101398.74
101344.32
101288.33
101230.84
101171.97
101111.84
101050.6
100988.39
100925.37
100861.73
100797.65
100733.32
100668.96
100604.75
100540.92
100477.68
100415.25
100353.85
100293.7
100235.01
100178
100122.88
100069.85
100019.1
99970.829
99925.203
99882.391
99842.544
99805.792
99772.25
99742.009
99715.142
99691.696
99671.694
99655.129
99641.966
99632.146
99625.583
99622.158
99621.726
99624.125
99629.136
99636.61
99646.114
99657.904
99670.439
99686.428
99699.174
99721.415
99727.517
99763.758
99750.059
99813.633
99760.742
99872.573
99762.094
99934.018
99746.576
101497.39
101481.76
101466.51
101448.44
101428.39
101412.59
101390.88
101373.55
101350.77
101331.31
101307.33
101285.22
101259.83
101234.98
101207.99
101180.2
101150.8
101120.1
101087.89
101054.17
101018.91
100982.09
100943.72
100903.8
100862.38
100819.5
100775.21
100729.61
100682.77
100634.82
100585.88
100536.08
100485.59
100434.56
100383.18
100331.63
100280.11
100228.83
100178.01
100127.86
100078.61
100030.47
99983.664
99938.415
99894.933
99853.425
99814.09
99777.117
99742.681
99710.94
99682.034
99656.084
99633.186
99613.416
99596.824
99583.432
99573.231
99566.186
99562.234
99561.284
99563.216
99567.881
99575.113
99584.697
99596.471
99610.034
99625.573
99641.705
99660.846
99676.827
99701.553
99710.666
99748.197
99737.899
99801.824
99751.918
99864.355
99754.82
99930.516
99739.632
100785.31
100779.57
100775.57
100770.67
100761.72
100757.94
100746.83
100741.63
100729.52
100722.03
100708.84
100698.49
100684.15
100671.02
100655.53
100639.55
100621.95
100603.24
100583.18
100561.79
100539.05
100514.94
100489.45
100462.56
100434.3
100404.67
100373.71
100341.47
100308.01
100273.39
100237.72
100201.09
100163.63
100125.48
100086.79
100047.73
100008.46
99969.193
99930.116
99891.44
99853.378
99816.146
99779.962
99745.042
99711.602
99679.85
99649.989
99622.211
99596.694
99573.6
99553.07
99535.225
99520.166
99507.967
99498.678
99492.317
99488.875
99488.31
99490.557
99495.522
99503.081
99513.082
99525.357
99539.696
99555.925
99573.676
99593.072
99612.886
99635.243
99654.481
99681.767
99693.898
99732.723
99725.767
99790.34
99743.215
99856.371
99747.842
99926.836
99733.101
100143.22
100143.62
100144.74
100148.13
100146.27
100151.04
100147.1
100150.78
100146.12
100147.68
100142.8
100142.25
100136.94
100133.02
100126.47
100119.97
100112.04
100103.34
100093.55
100082.7
100070.74
100057.64
100043.36
100027.89
100011.21
99993.334
99974.263
99954.021
99932.644
99910.181
99886.698
99862.273
99837.001
99810.994
99784.38
99757.298
99729.905
99702.37
99674.873
99647.601
99620.752
99594.529
99569.135
99544.779
99521.666
99500
99479.977
99461.784
99445.593
99431.561
99419.826
99410.505
99403.694
99399.464
99397.857
99398.889
99402.542
99408.772
99417.507
99428.647
99442.067
99457.612
99475.11
99494.357
99515.172
99537.215
99560.559
99584.116
99609.738
99632.276
99662.167
99677.322
99717.585
99713.802
99779.127
99734.711
99848.572
99741.192
99923.064
99726.963
99567.561
99572.807