/*--------------------------------*- C++ -*----------------------------------*\
  =========                 |
  \\      /  F ield         | OpenFOAM: The Open Source CFD Toolbox
   \\    /   O peration     | Website:  https://openfoam.org
    \\  /    A nd           | Version:  12
     \\/     M anipulation  |
\*---------------------------------------------------------------------------*/
FoamFile
{
    format      ascii;
    class       volScalarField;
    location    "0.081";
    object      T;
}
// * * * * * * * * * * * * * * * * * * * * * * * * * * * * * * * * * * * * * //

dimensions      [0 0 0 1 0 0 0];

internalField   nonuniform List<scalar> 
16000
(
295.09807
286.77282
289.97265
288.24512
289.33496
288.83751
289.25286
289.14527
289.33952
289.37394
289.49389
289.57822
289.68279
289.78476
289.8926
290.00366
290.11875
290.23775
290.36072
290.48767
290.61862
290.75355
290.89244
291.03524
291.18188
291.33226
291.48627
291.64374
291.80452
291.96838
292.1351
292.30441
292.47602
292.64961
292.82483
293.00132
293.17869
293.35653
293.53444
293.71197
293.88872
294.06426
294.23818
294.41007
294.57955
294.74628
294.9099
295.07013
295.22668
295.37933
295.52788
295.67216
295.81205
295.94747
296.07835
296.20468
296.32644
296.44366
296.55638
296.66465
296.76853
296.86808
296.96328
297.0541
297.14045
297.2221
297.29872
297.36976
297.4345
297.49206
297.54167
297.58316
297.61746
297.64728
297.67759
297.70944
297.77543
297.77988
297.95757
297.88536
294.80213
286.3791
289.75377
287.89826
289.05485
288.52075
288.97106
288.85409
289.0627
289.10248
289.22939
289.32252
289.43422
289.54493
289.66111
289.78109
289.90529
290.03368
290.16629
290.30314
290.44419
290.58943
290.7388
290.89222
291.04957
291.21073
291.37553
291.54377
291.71524
291.88966
292.06677
292.24622
292.42769
292.61079
292.79512
292.98027
293.1658
293.35126
293.5362
293.72016
293.90271
294.08339
294.26179
294.4375
294.61017
294.77943
294.945
295.10658
295.26396
295.41694
295.56537
295.70914
295.84817
295.98242
296.11188
296.23657
296.35655
296.47186
296.58258
296.68879
296.79058
296.88801
296.98111
297.06984
297.15411
297.23372
297.30832
297.37738
297.44021
297.49599
297.54404
297.58429
297.61783
297.6474
297.67746
297.71468
297.7654
297.8094
297.93395
297.91189
294.52054
286.01247
289.49532
287.59484
288.79083
288.24671
288.71065
288.60134
288.81483
288.86627
288.99865
289.10225
289.22198
289.34237
289.46804
289.59798
289.7324
289.8713
290.01469
290.16253
290.3148
290.47143
290.63231
290.79734
290.96636
291.13918
291.31559
291.49534
291.67815
291.86369
292.05162
292.24155
292.43306
292.62573
292.81909
293.01267
293.20597
293.39851
293.58979
293.77934
293.96668
294.15137
294.33299
294.51115
294.6855
294.85573
295.02157
295.1828
295.33924
295.49075
295.63726
295.77869
295.91505
296.04635
296.17265
296.29401
296.41053
296.52231
296.62948
296.73213
296.83039
296.92434
297.01402
297.09939
297.18038
297.25678
297.32823
297.39422
297.45407
297.50704
297.55256
297.59072
297.62274
297.65146
297.68181
297.72063
297.7677
297.82329
297.92505
297.92515
294.26245
285.67676
289.27042
287.32856
288.56014
288.00577
288.48371
288.38357
288.60253
288.66709
288.80598
288.92122
289.05031
289.18154
289.31798
289.45908
289.60492
289.75549
289.91077
290.0707
290.2352
290.40418
290.57749
290.75497
290.93642
291.12159
291.3102
291.50194
291.69646
291.89335
292.09219
292.29254
292.49389
292.69574
292.89757
293.09884
293.29902
293.49756
293.69396
293.88771
294.07833
294.26539
294.44848
294.62725
294.80139
294.97063
295.13478
295.29367
295.44719
295.59528
295.73793
295.87516
296.00703
296.13363
296.25507
296.37148
296.48302
296.58983
296.69207
296.78988
296.8834
296.97272
297.05791
297.13893
297.21571
297.28803
297.35553
297.41771
297.47393
297.52348
297.56593
297.6015
297.63155
297.65908
297.6893
297.72781
297.77423
297.83502
297.92091
297.93704
294.0282
285.37735
289.07102
287.10721
288.37468
287.80622
288.29456
288.20797
288.43113
288.51133
288.65748
288.7857
288.92547
289.06868
289.21708
289.37048
289.52886
289.69219
289.86044
290.0335
290.21127
290.39359
290.58028
290.7711
290.96579
291.16402
291.36544
291.56965
291.7762
291.98462
292.19438
292.40494
292.61574
292.82619
293.03569
293.24366
293.44952
293.65269
293.85265
294.04889
294.24095
294.42841
294.61092
294.78818
294.95993
295.12599
295.28623
295.44059
295.58904
295.73161
295.86836
295.99942
296.12491
296.245
296.35987
296.46971
296.57473
296.67512
296.77107
296.86275
296.95033
297.0339
297.11354
297.18923
297.26086
297.32823
297.39097
297.44858
297.50044
297.54592
297.58469
297.6171
297.64468
297.67061
297.70008
297.73769
297.78399
297.84527
297.92113
297.9439
293.82156
285.1207
288.90223
286.92266
288.21373
287.65434
288.15407
288.08065
288.30811
288.40467
288.55889
288.70084
288.85243
289.00849
289.16993
289.33668
289.50871
289.68596
289.86834
290.05572
290.24791
290.4447
290.64582
290.85095
291.05974
291.27176
291.48655
291.70361
291.92239
292.14229
292.3627
292.58298
292.80248
293.02053
293.23649
293.44971
293.65958
293.86553
294.06702
294.26357
294.45477
294.64025
294.81974
294.993
295.15988
295.3203
295.47423
295.6217
295.7628
295.89766
296.02644
296.14934
296.26658
296.37841
296.48507
296.5868
296.68387
296.77651
296.86493
296.94934
297.02989
297.10673
297.17989
297.24936
297.31504
297.3767
297.43397
297.48635
297.53324
297.57409
297.60867
297.63746
297.66212
297.68602
297.7141
297.75025
297.7958
297.85581
297.92261
297.94792
293.64541
284.90849
288.76667
286.77444
288.08675
287.5515
288.04999
288.00387
288.23068
288.34869
288.51197
288.66842
288.8332
289.00341
289.17935
289.361
289.54827
289.74105
289.93916
290.1424
290.35049
290.56313
290.77993
291.00048
291.22427
291.45078
291.67942
291.90954
292.14047
292.37152
292.60195
292.83103
293.05801
293.28218
293.50282
293.71929
293.93096
294.13727
294.33773
294.53193
294.71951
294.90021
295.07385
295.24033
295.3996
295.55171
295.69675
295.83488
295.9663
296.09124
296.20998
296.3228
296.43001
296.53192
296.62883
296.72106
296.80888
296.89257
296.97236
297.04848
297.12109
297.19031
297.25619
297.3187
297.37772
297.43301
297.48419
297.53077
297.57217
297.60791
297.63784
297.66258
297.68394
297.70536
297.73145
297.76555
297.8095
297.86681
297.92526
297.95231
293.49741
284.73857
288.66126
286.661
287.99065
287.48006
287.9818
287.94479
288.20334
288.34171
288.51664
288.68945
288.86987
289.05646
289.24918
289.44797
289.65268
289.86308
290.07893
290.2999
290.52562
290.75563
290.98943
291.22645
291.46605
291.70754
291.95019
292.19322
292.43582
292.67715
292.91639
293.15271
293.3853
293.61339
293.83628
294.0533
294.26388
294.46752
294.6638
294.85242
295.03315
295.20586
295.3705
295.52713
295.67585
295.81684
295.95035
296.07666
296.19609
296.309
296.41574
296.51669
296.61224
296.70275
296.78858
296.87008
296.94755
297.02129
297.09155
297.15854
297.22244
297.28335
297.3413
297.39625
297.44805
297.49644
297.54105
297.58136
297.61685
297.64709
297.67202
297.69237
297.71007
297.72858
297.75211
297.7836
297.82513
297.87845
297.92911
297.95801
293.3726
284.60909
288.5893
286.58266
287.94321
287.48472
287.97556
288.00146
288.22787
288.38774
288.57782
288.76953
288.96855
289.17423
289.38641
289.60493
289.82952
290.05989
290.29563
290.53629
290.78135
291.03019
291.28214
291.53644
291.79229
292.04882
292.30514
292.5603
292.81336
293.06336
293.30939
293.55056
293.78602
294.01501
294.23684
294.45093
294.65678
294.85402
295.04237
295.22168
295.39189
295.55305
295.7053
295.84884
295.98398
296.11104
296.23043
296.34255
296.44784
296.54676
296.63976
296.7273
296.80979
296.88767
296.96132
297.03111
297.09737
297.16039
297.22042
297.27767
297.3323
297.38438
297.43393
297.48088
297.52505
297.56617
297.60383
297.63756
297.66683
297.69128
297.71094
297.72664
297.7404
297.75559
297.77603
297.80442
297.84276
297.89086
297.93452
297.96422
293.27001
284.52182
288.55559
286.55486
287.94972
287.48906
288.01347
288.06443
288.30971
288.49549
288.70425
288.91745
289.13805
289.36571
289.60017
289.84112
290.08817
290.34086
290.59864
290.86086
291.12679
291.39562
291.66646
291.93835
292.21028
292.48118
292.74997
293.01558
293.27691
293.53294
293.78268
294.02523
294.25978
294.48562
294.70216
294.90895
295.10567
295.29212
295.46823
295.63407
295.78979
295.93565
296.072
296.19924
296.31785
296.42833
296.5312
296.627
296.71629
296.79958
296.87742
296.95028
297.01866
297.08298
297.14366
297.20106
297.25552
297.30732
297.35668
297.4038
297.4488
297.49175
297.53262
297.5713
297.6076
297.64121
297.67172
297.69865
297.72152
297.74002
297.75425
297.76513
297.7747
297.78621
297.80311
297.82795
297.86232
297.90421
297.94146
297.97094
293.1932
284.48495
288.5662
286.64702
288.01419
287.63288
288.11097
288.20774
288.45999
288.67344
288.90491
289.14267
289.38816
289.64097
289.90074
290.16699
290.43914
290.71651
290.99832
291.28369
291.57163
291.86107
292.15086
292.43981
292.72667
293.01018
293.28909
293.56219
293.82831
294.08638
294.33544
294.57464
294.80328
295.02081
295.22685
295.42114
295.60363
295.77437
295.93357
296.08154
296.2187
296.34555
296.46264
296.57058
296.67002
296.76158
296.84593
296.9237
296.99551
297.06195
297.12359
297.18095
297.23451
297.28472
297.33198
297.37664
297.41901
297.45935
297.49787
297.53471
297.56997
297.60368
297.63577
297.66611
297.69445
297.72048
297.74376
297.76384
297.78025
297.79274
297.80149
297.80746
297.81268
297.82017
297.83313
297.85398
297.88361
297.91859
297.94988
297.97829
293.14896
284.51167
288.62974
286.78335
288.12378
287.79638
288.27688
288.41821
288.6877
288.9314
289.18989
289.45584
289.72984
290.01128
290.29964
290.59417
290.89403
291.19826
291.50576
291.81534
292.1257
292.43545
292.74316
293.04736
293.34659
293.63942
293.92447
294.20045
294.46622
294.72075
294.9632
295.19291
295.40941
295.61243
295.80187
295.97782
296.14053
296.2904
296.42793
296.55374
296.6685
296.77294
296.86783
296.95394
297.03205
297.10292
297.16727
297.22582
297.27922
297.32808
297.37297
297.41442
297.4529
297.48882
297.52257
297.55446
297.58477
297.61372
297.64146
297.66813
297.69375
297.71832
297.74173
297.76381
297.78429
297.80281
297.81895
297.83224
297.84226
297.84881
297.85211
297.85316
297.85389
297.8571
297.86578
297.88223
297.90643
297.9341
297.9598
297.98604
293.14193
284.60752
288.75613
286.97395
288.2977
288.04642
288.52116
288.71116
289.00292
289.28017
289.57048
289.86888
290.17552
290.48947
290.80988
291.13568
291.46565
291.79843
292.13254
292.46639
292.7983
293.12656
293.44944
293.76523
294.07228
294.36907
294.65419
294.92643
295.18475
295.42836
295.65671
295.86946
296.06652
296.24802
296.41428
296.56578
296.70317
296.82718
296.93865
297.03848
297.12758
297.20688
297.2773
297.33976
297.39511
297.44418
297.48774
297.5265
297.56112
297.59222
297.62032
297.64593
297.66948
297.69134
297.71184
297.73127
297.74983
297.7677
297.78501
297.8018
297.81809
297.83381
297.84882
297.8629
297.87575
297.887
297.8962
297.9029
297.90672
297.90749
297.90548
297.90166
297.89784
297.89654
297.90064
297.91226
297.93047
297.95074
297.97126
297.99445
293.17399
284.77988
288.95013
287.24897
288.5452
288.37719
288.85378
289.09559
289.41741
289.73277
290.06038
290.39627
290.74017
291.0907
291.44656
291.8062
292.1679
292.52981
292.88998
293.24637
293.59692
293.93959
294.27241
294.59351
294.9012
295.19399
295.47065
295.73022
295.97201
296.19567
296.40111
296.58849
296.75826
296.91102
297.04759
297.16888
297.27593
297.36982
297.45167
297.5226
297.58371
297.63607
297.6807
297.71856
297.75054
297.77749
297.80016
297.81923
297.83533
297.84903
297.8608
297.87108
297.88025
297.88862
297.89647
297.90401
297.9114
297.91877
297.92617
297.93362
297.94107
297.9484
297.95543
297.96191
297.96751
297.97183
297.97443
297.97486
297.97276
297.968
297.96088
297.95231
297.94389
297.93792
297.93715
297.94348
297.95531
297.96853
297.98429
298.00371
293.24983
285.04175
289.21517
287.61032
288.87904
288.80331
289.28851
289.58633
289.94668
290.30609
290.67718
291.05609
291.44194
291.83279
292.22668
292.62145
293.01478
293.40426
293.78742
294.16179
294.52496
294.87467
295.20884
295.52566
295.82362
296.10156
296.35868
296.59458
296.80918
297.00277
297.17589
297.32938
297.46425
297.58165
297.68287
297.76924
297.84212
297.90285
297.95275
297.99309
298.02507
298.04981
298.06834
298.08162
298.09051
298.0958
298.0982
298.09831
298.0967
298.09385
298.09017
298.08602
298.08171
298.07748
298.07353
298.07002
298.06704
298.06466
298.06288
298.06165
298.06089
298.06043
298.06004
298.05945
298.05829
298.05615
298.05257
298.04713
298.03949
298.02953
298.01756
298.00438
297.99139
297.98065
297.97473
297.97518
297.98022
297.98707
297.99894
298.01314
293.37375
285.41134
289.54772
288.07204
289.31229
289.33913
289.84333
290.20294
290.61145
291.02199
291.44297
291.87013
292.30177
292.73519
293.16769
293.59635
294.01819
294.4302
294.82942
295.21305
295.57852
295.92361
296.24646
296.54568
296.82033
297.06997
297.29459
297.49461
297.67079
297.82423
297.95622
298.06824
298.16189
298.2388
298.30064
298.34903
298.38554
298.41166
298.42881
298.43828
298.44126
298.43884
298.43201
298.42165
298.40852
298.39334
298.3767
298.35912
298.34108
298.32295
298.30506
298.28769
298.27106
298.25534
298.24066
298.2271
298.21471
298.20347
298.19335
298.18424
298.17601
298.16846
298.16131
298.15426
298.14691
298.13885
298.12961
298.11878
298.10603
298.09126
298.07472
298.05711
298.03963
298.02413
298.01283
298.00675
298.00427
298.00491
298.014
298.02329
293.55024
285.91771
289.95445
288.65177
289.8661
290.00782
290.54379
290.97223
291.43848
291.90712
292.38341
292.86245
293.34145
293.81682
294.2849
294.74198
295.18438
295.60858
296.01139
296.39002
296.74218
297.06619
297.36098
297.62607
297.86159
298.06816
298.24688
298.39917
298.52673
298.63147
298.71537
298.78047
298.82879
298.8623
298.88287
298.89226
298.89211
298.88391
298.86904
298.84871
298.82404
298.79601
298.76546
298.73316
298.69977
298.66585
298.63189
298.59831
298.56545
298.5336
298.50299
298.47381
298.44621
298.42026
298.39604
298.37356
298.3528
298.33371
298.31617
298.30005
298.28517
298.27127
298.25808
298.24523
298.23234
298.21895
298.20462
298.18893
298.17154
298.15236
298.13157
298.10973
298.0879
298.06774
298.05103
298.03798
298.02723
298.02097
298.02688
298.03355
293.79051
286.60696
290.47809
289.38038
290.57102
290.84031
291.42213
291.92619
292.45849
292.9908
293.52557
294.05699
294.58088
295.09247
295.58714
296.06041
296.50821
296.92703
297.31402
297.66716
297.9852
298.26773
298.51506
298.72817
298.90857
299.05822
299.17934
299.27437
299.34583
299.39624
299.42809
299.44373
299.4454
299.43517
299.41492
299.38638
299.35111
299.31046
299.26568
299.21782
299.16784
299.11653
299.06461
299.01267
298.96122
298.9107
298.86146
298.81381
298.76796
298.72412
298.68242
298.64296
298.60581
298.57098
298.53848
298.50825
298.48022
298.45428
298.43029
298.40805
298.38736
298.36792
298.34941
298.33148
298.31369
298.29561
298.27678
298.25677
298.23526
298.2121
298.18738
298.16152
298.1355
298.11087
298.08892
298.06903
298.04985
298.03584
298.0374
298.0434
294.12088
287.46451
291.14528
290.29481
291.46451
291.87107
292.51421
293.10045
293.7051
294.30386
294.89597
295.4743
296.03308
296.56646
297.06919
297.53677
297.96564
298.35333
298.69847
299.00076
299.26086
299.48026
299.66113
299.80611
299.91817
300.00044
300.05613
300.08838
300.10021
300.09448
300.07383
300.04067
299.99718
299.94533
299.88685
299.82327
299.75592
299.68596
299.61441
299.54211
299.46982
299.39814
299.3276
299.25865
299.19163
299.12684
299.06451
299.00482
298.9479
298.89384
298.84271
298.79451
298.74925
298.70688
298.66733
298.63052
298.5963
298.56454
298.53504
298.50758
298.4819
298.4577
298.43464
298.41231
298.39031
298.36817
298.34542
298.32166
298.29652
298.26981
298.2415
298.2119
298.18188
298.15292
298.12594
298.09979
298.07329
298.05207
298.0472
298.05111
294.58129
288.4326
291.99861
291.43017
292.58996
293.14148
293.86243
294.53649
295.21513
295.876
296.5147
297.12286
297.69369
298.22132
298.70124
299.13046
299.50751
299.83235
300.10623
300.33143
300.51103
300.64866
300.74827
300.81395
300.84977
300.85964
300.84725
300.81603
300.76911
300.70927
300.63902
300.56055
300.4758
300.38644
300.2939
300.19943
300.10407
300.00873
299.91416
299.82099
299.72973
299.64083
299.55461
299.47137
299.39131
299.3146
299.24136
299.17165
299.10553
299.04299
298.98402
298.92857
298.87658
298.82794
298.78254
298.74023
298.70086
298.66424
298.63013
298.59829
298.56844
298.54023
298.51332
298.48729
298.46171
298.43612
298.41006
298.38307
298.35481
298.32498
298.29347
298.26045
298.2267
298.19349
298.16145
298.12949
298.0974
298.07159
298.06059
298.05195
295.22678
289.68169
293.08476
292.83794
294.00741
294.70919
295.51898
296.27861
297.02005
297.72272
298.37957
298.98242
299.52562
300.00553
300.42068
300.77155
301.0603
301.29043
301.46635
301.59308
301.67591
301.72019
301.73108
301.71348
301.67188
301.61037
301.53262
301.44185
301.34088
301.23217
301.1178
300.9996
300.87908
300.75753
300.63605
300.51553
300.39673
300.28027
300.16664
300.05625
299.94943
299.84641
299.7474
299.65251
299.56185
299.47545
299.39335
299.31552
299.24192
299.1725
299.10717
299.04583
298.98836
298.93462
298.88445
298.83767
298.79409
298.75348
298.7156
298.68017
298.64687
298.61536
298.58527
298.55618
298.52764
298.49919
298.47035
298.44067
298.40976
298.37726
298.34296
298.30693
298.2698
298.2325
298.19529
298.15745
298.12033
298.09127
298.07467
298.04636
296.11386
291.27147
294.48826
294.59709
295.79515
296.64116
297.53137
298.35279
299.12136
299.8204
300.44373
300.98674
301.44823
301.82959
302.13448
302.3682
302.53715
302.64831
302.70881
302.72564
302.7054
302.65418
302.57744
302.48005
302.36626
302.23975
302.10367
301.9607
301.8131
301.66278
301.51131
301.36001
301.20997
301.06208
300.91705
300.77546
300.63779
300.50439
300.37553
300.25143
300.13222
300.01801
299.90884
299.80473
299.70566
299.6116
299.52248
299.43821
299.35869
299.2838
299.21342
299.14739
299.08556
299.02775
298.97376
298.9234
298.87644
298.83264
298.79171
298.75338
298.7173
298.68313
298.65047
298.6189
298.58796
298.55719
298.52611
298.49424
298.46114
298.4264
298.38974
298.35116
298.31108
298.27007
298.22801
298.1844
298.14152
298.10698
298.08375
298.04714
297.2264
293.32553
296.31409
296.7908
298.01963
298.98143
299.90758
300.7314
301.45945
302.08312
302.60249
303.02046
303.34312
303.57857
303.73612
303.82556
303.85658
303.83835
303.77933
303.68705
303.56815
303.42836
303.27257
303.10491
302.92885
302.74726
302.56252
302.37659
302.19105
302.0072
301.82609
301.64856
301.47525
301.30669
301.14328
300.98531
300.83299
300.68647
300.54585
300.41115
300.2824
300.15954
300.04254
299.93132
299.82576
299.72577
299.63121
299.54194
299.45782
299.37868
299.30435
299.23466
299.16941
299.1084
299.05141
298.99823
298.9486
298.90226
298.85893
298.8183
298.78003
298.74374
298.70905
298.67552
298.6427
298.6101
298.57724
298.54363
298.50879
298.47226
298.43368
298.39299
298.35042
298.30621
298.26004
298.21162
298.16348
298.12237
298.09052
298.04691
298.7372
295.95613
298.65785
299.47292
300.67806
301.70039
302.57413
303.30375
303.8984
304.36196
304.70489
304.93955
305.07972
305.13928
305.1315
305.06853
304.96118
304.8188
304.64936
304.45957
304.25495
304.04007
303.81865
303.59368
303.36761
303.14235
302.91946
302.70015
302.48538
302.27588
302.07221
301.87479
301.68392
301.49981
301.32259
301.15233
300.98904
300.8327
300.68326
300.54063
300.4047
300.27536
300.15247
300.03587
299.92541
299.82092
299.72223
299.62916
299.54151
299.45911
299.38174
299.30921
299.24131
299.17781
299.11849
299.0631
299.01138
298.96307
298.91786
298.87543
298.83544
298.79751
298.76125
298.72621
298.69194
298.65796
298.62375
298.58882
298.55265
298.51473
298.47468
298.43231
298.38768
298.34073
298.29104
298.23856
298.18578
298.13838
298.0976
298.04623
300.69176
299.23365
301.51767
302.61962
303.79485
304.65312
305.35465
305.87814
306.24602
306.47667
306.5912
306.60968
306.55059
306.43017
306.26231
306.05858
305.82846
305.57964
305.31829
305.04929
304.7765
304.50296
304.23101
303.96249
303.69879
303.44098
303.18985
302.94599
302.70981
302.48159
302.2615
302.04965
301.84604
301.65066
301.46343
301.28425
301.11299
300.94951
300.79364
300.64521
300.50403
300.36992
300.24267
300.12209
300.00797
299.90012
299.79831
299.70236
299.61203
299.52713
299.44743
299.37271
299.30276
299.23732
299.17617
299.11906
299.06571
299.01584
298.96916
298.92534
298.88402
298.84483
298.80737
298.7712
298.73585
298.70085
298.66567
298.62978
298.59266
298.55375
298.51262
298.46896
298.42261
298.37333
298.3207
298.26489
298.20825
298.15512
298.10538
298.04532
303.11663
303.14659
305.13798
306.10432
306.9926
307.59975
308.00421
308.22708
308.30458
308.26618
308.13853
307.94362
307.69937
307.42001
307.11669
306.79804
306.47066
306.13961
305.8087
305.48078
305.158
304.84193
304.5337
304.23414
303.9438
303.66304
303.39207
303.131
302.87983
302.63851
302.40694
302.18496
301.97241
301.76909
301.57478
301.38928
301.21234
301.04374
300.88323
300.73059
300.58557
300.44794
300.31747
300.19391
300.07703
299.96662
299.86244
299.76425
299.67185
299.58498
299.50344
299.42699
299.35539
299.2884
299.22578
299.16728
299.11261
299.0615
299.01363
298.96869
298.92632
298.88615
298.84777
298.81075
298.77461
298.73888
298.70302
298.66648
298.62872
298.58916
298.54729
298.50265
298.45489
298.40367
298.34872
298.29037
298.23024
298.17074
298.11122
298.04358
306.15472
307.53665
308.8554
309.55238
310.0278
310.23712
310.2622
310.14456
309.9246
309.63244
309.29133
308.91857
308.52691
308.12569
307.72166
307.31966
306.92316
306.5346
306.15567
305.7875
305.43082
305.08608
304.75351
304.43317
304.125
303.82889
303.54463
303.272
303.01073
302.76053
302.52113
302.2922
302.07346
301.8646
301.66531
301.47529
301.29426
301.12192
300.958
300.80221
300.65429
300.51396
300.38098
300.25508
300.13602
300.02354
299.91742
299.81741
299.72327
299.63477
299.55167
299.47374
299.40074
299.33242
299.26854
299.20883
299.15302
299.10084
299.05197
299.00608
298.96283
298.92185
298.88273
298.84504
298.80831
298.77204
298.7357
298.69874
298.66057
298.62061
298.57823
298.53287
298.48401
298.43133
298.37467
298.31417
298.25033
298.18386
298.11484
298.04168
310.07107
311.84678
312.3848
312.57121
312.5185
312.28769
311.94073
311.5197
311.05452
310.56573
310.06727
309.56851
309.07569
308.5929
308.12277
307.66694
307.22632
306.80139
306.39228
305.99894
305.62114
305.25855
304.91081
304.57749
304.25816
303.95239
303.65971
303.37969
303.1119
302.85593
302.61135
302.37778
302.15484
301.94215
301.73937
301.54614
301.36214
301.18705
301.02056
300.86237
300.71219
300.56974
300.43474
300.30694
300.18607
300.07188
299.96411
299.86254
299.76691
299.67699
299.59253
299.51331
299.43906
299.36957
299.30456
299.24379
299.18698
299.13385
299.08409
299.03738
298.99338
298.95171
298.91197
298.87374
298.83655
298.79988
298.76321
298.72597
298.68756
298.64735
298.60462
298.55869
298.50899
298.45524
298.39737
298.3351
298.26769
298.19454
298.11709
298.03987
314.99587
315.36653
315.09991
314.73499
314.21715
313.62938
313.00703
312.37549
311.74884
311.13561
310.54054
309.96617
309.41366
308.88336
308.37509
307.88837
307.42255
306.97688
306.5506
306.1429
305.75301
305.38017
305.02366
304.68279
304.3569
304.04537
303.74762
303.46309
303.19125
302.9316
302.68369
302.44705
302.22128
302.00595
301.8007
301.60515
301.41896
301.24178
301.0733
300.91321
300.76121
300.617
300.48032
300.3509
300.22846
300.11275
300.00353
299.90055
299.80356
299.71232
299.62661
299.54616
299.47076
299.40014
299.33407
299.27229
299.21452
299.16049
299.1099
299.06242
299.01771
298.97541
298.93513
298.89642
298.85883
298.82185
298.78494
298.74753
298.70899
298.66864
298.6257
298.57937
298.52908
298.47459
298.41585
298.35211
298.28156
298.20279
298.11873
298.03886
316.98019
317.14734
316.57861
315.82261
315.04978
314.27595
313.52133
312.79349
312.09584
311.42936
310.79374
310.18805
309.61102
309.06124
308.53731
308.03783
307.56149
307.10703
306.6733
306.25922
305.86377
305.48603
305.12515
304.78032
304.45081
304.13593
303.83504
303.54754
303.27287
303.01052
302.75998
302.52081
302.29255
302.07481
301.86718
301.6693
301.4808
301.30136
301.13065
300.96836
300.81418
300.66784
300.52905
300.39755
300.27308
300.15538
300.0442
299.9393
299.84045
299.7474
299.65991
299.57776
299.50071
299.42852
299.36093
299.29771
299.23859
299.18329
299.13152
299.08295
299.03726
298.99408
298.95302
298.91365
298.8755
298.83808
298.80082
298.76315
298.72443
298.68393
298.6408
298.59418
298.54346
298.48846
298.42905
298.36417
298.29134
298.20879
298.12042
298.03861
310.30452
309.12101
305.55884
302.74158
301.48458
301.19814
301.1306
301.12726
301.01913
300.96245
300.85896
300.79135
300.70231
300.62156
300.53762
300.45222
300.36607
300.2792
300.19161
300.10335
300.01453
299.92527
299.83569
299.74594
299.65616
299.56649
299.47709
299.38809
299.29964
299.21186
299.1249
299.03889
298.95396
298.87024
298.78785
298.70693
298.6276
298.54999
298.47423
298.40045
298.32879
298.25939
298.19238
298.12789
298.06609
298.00709
297.95106
297.89813
297.84845
297.80216
297.75941
297.72034
297.68508
297.65377
297.62653
297.6035
297.58477
297.57047
297.56068
297.55552
297.5551
297.55954
297.56888
297.58316
297.60249
297.62666
297.65625
297.68975
297.7299
297.76978
297.82037
297.85643
297.91457
297.92194
297.98423
297.93487
298.00376
297.91553
298.01022
297.94924
309.58675
306.7715
302.72697
300.71867
300.15751
300.1576
300.25519
300.2667
300.26202
300.23701
300.21443
300.17743
300.13617
300.08853
300.03721
299.98241
299.92433
299.86318
299.79928
299.73297
299.66454
299.59426
299.52239
299.44918
299.37486
299.29968
299.22383
299.14754
299.071
298.99441
298.91795
298.84182
298.76619
298.69124
298.61715
298.54407
298.47219
298.40166
298.33265
298.26533
298.19986
298.13641
298.07514
298.01621
297.95979
297.90603
297.8551
297.80715
297.76234
297.72083
297.68276
297.64829
297.61754
297.59066
297.56777
297.54898
297.53441
297.52416
297.51832
297.51697
297.52023
297.52819
297.54088
297.55832
297.5806
297.60751
297.63951
297.67527
297.71705
297.75862
297.8095
297.84648
297.90318
297.91149
297.97067
297.92276
297.99183
297.90418
298.00612
297.94164
308.24006
304.77136
301.78122
300.10289
299.7787
299.81816
299.85276
299.82751
299.8
299.76775
299.73646
299.70205
299.66581
299.62686
299.58572
299.54209
299.49628
299.44827
299.39815
299.34604
299.29204
299.23628
299.17888
299.11999
299.05975
298.99833
298.93589
298.8726
298.80862
298.74414
298.67933
298.61437
298.54946
298.48476
298.42047
298.35678
298.29387
298.23192
298.17113
298.11169
298.05378
297.99758
297.94329
297.89109
297.84116
297.79368
297.74883
297.70678
297.66771
297.63177
297.59913
297.56994
297.54435
297.52248
297.50447
297.49043
297.48047
297.47469
297.47315
297.47594
297.48317
297.49491
297.51117
297.53197
297.55735
297.58714
297.62168
297.65974
297.70328
297.74648
297.79786
297.83558
297.89167
297.90017
297.95682
297.91018
297.97966
297.89333
298.00156
297.93437
307.10929
303.38995
300.62214
299.36026
299.31693
299.33199
299.34993
299.31487
299.29764
299.26921
299.24611
299.21775
299.18923
299.1586
299.12681
299.09338
299.05849
299.02198
298.98386
298.94414
298.90285
298.86002
298.8157
298.76994
298.72285
298.67449
298.62498
298.57444
298.52298
298.47076
298.41792
298.36461
298.31101
298.25727
298.20359
298.15013
298.0971
298.04469
297.99308
297.94248
297.89309
297.84511
297.79874
297.75419
297.71164
297.67129
297.63334
297.59798
297.56538
297.53573
297.50918
297.48591
297.46605
297.44974
297.43712
297.4283
297.42338
297.42244
297.42556
297.43282
297.4443
297.46007
297.48012
297.50446
297.53311
297.5659
297.60309
297.64353
297.6889
297.7337
297.78571
297.82406
297.87945
297.88814
297.94291
297.89732
297.96754
297.88296
297.99667
297.92744
306.45624
302.2151
299.6845
298.74664
298.82688
298.80066
298.82884
298.7933
298.78803
298.76446
298.75026
298.72933
298.70974
298.68821
298.66602
298.64255
298.61796
298.59211
298.56497
298.53653
298.50676
298.47565
298.44323
298.4095
298.37451
298.3383
298.30093
298.26247
298.22302
298.18268
298.14156
298.09979
298.0575
298.01484
297.97199
297.92909
297.88634
297.84391
297.802
297.76082
297.72055
297.68142
297.64361
297.60735
297.57284
297.54028
297.50987
297.48182
297.45631
297.43352
297.41364
297.39681
297.38319
297.37293
297.36614
297.36295
297.36345
297.36772
297.37581
297.38782
297.4038
297.42381
297.44785
297.47589
297.50795
297.54384
297.58378
297.62666
297.67391
297.72029
297.77302
297.81194
297.86656
297.87557
297.92895
297.8843
297.95558
297.87321
297.99173
297.92086
305.9058
301.05446
298.9001
298.15702
298.30832
298.25296
298.30123
298.26623
298.27589
298.259
298.25591
298.24369
298.23389
298.22185
298.20938
298.19573
298.18107
298.16528
298.14836
298.13029
298.11105
298.09062
298.06901
298.04622
298.02227
297.99718
297.97099
297.94375
297.91551
297.88636
297.85637
297.82564
297.79429
297.76245
297.73025
297.69783
297.66537
297.63304
297.60101
297.56948
297.53865
297.5087
297.47986
297.45232
297.4263
297.402
297.37962
297.35936
297.34142
297.32599
297.31323
297.3033
297.29637
297.29256
297.292
297.29481
297.30107
297.31085
297.3242
297.34121
297.36192
297.38638
297.41457
297.44646
297.48204
297.52114
297.56389
297.60926
297.65842
297.70637
297.75988
297.79937
297.85335
297.86261
297.91494
297.87126
297.94385
297.8645
297.98677
297.91464
305.34861
300.03757
298.26651
297.62154
297.82054
297.73943
297.80718
297.77045
297.79242
297.77996
297.78583
297.78068
297.77874
297.77431
297.76974
297.76419
297.75781
297.75051
297.74229
297.73312
297.72297
297.71183
297.69968
297.68652
297.67235
297.65718
297.64102
297.62391
297.60588
297.58698
297.56729
297.54687
297.52582
297.50424
297.48224
297.45996
297.43753
297.41513
297.3929
297.37102
297.34968
297.32907
297.30937
297.2908
297.27354
297.25781
297.2438
297.2317
297.22171
297.214
297.20874
297.20609
297.2062
297.20919
297.2152
297.22432
297.23663
297.2522
297.27106
297.29329
297.31893
297.348
297.38049
297.41634
297.45555
297.49793
297.54355
297.59144
297.64252
297.69207
297.74636
297.78646
297.83977
297.84943
297.90089
297.8583
297.93231
297.85621
297.9818
297.9088
304.89219
299.10939
297.73506
297.13331
297.3707
297.26458