/*--------------------------------*- C++ -*----------------------------------*\
  =========                 |
  \\      /  F ield         | OpenFOAM: The Open Source CFD Toolbox
   \\    /   O peration     | Website:  https://openfoam.org
    \\  /    A nd           | Version:  12
     \\/     M anipulation  |
\*---------------------------------------------------------------------------*/
FoamFile
{
    format      ascii;
    class       volVectorField;
    location    "0.081";
    object      U;
}
// * * * * * * * * * * * * * * * * * * * * * * * * * * * * * * * * * * * * * //

dimensions      [0 1 -1 0 0 0 0];

internalField   nonuniform List<vector> 
16000
(
(214.60172 -3.1461318e-17 -8.319073)
(251.23665 0 5.3410529)
(237.4598 0 -7.5111954)
(245.05186 4.9815213e-17 3.7586148)
(240.40575 -4.9167254e-17 -5.9017353)
(242.58975 0 1.741164)
(240.81171 0 -4.2834458)
(241.3104 8.4160451e-17 -0.024959567)
(240.47769 -7.9958506e-17 -3.1239333)
(240.35441 0 -1.2502178)
(239.84337 7.2247288e-17 -2.5329217)
(239.49704 -2.0583265e-16 -1.9566044)
(239.05532 1.3027951e-16 -2.389102)
(238.62833 -1.2392328e-16 -2.3246259)
(238.17348 1.1757971e-16 -2.4818716)
(237.70488 -3.487875e-18 -2.5504723)
(237.21782 -3.3133067e-18 -2.6501461)
(236.71322 -9.7766561e-17 -2.7389463)
(236.19053 1.9154548e-16 -2.8292794)
(235.64963 -9.0880788e-17 -2.9171857)
(235.09036 1.7286229e-16 -3.0030413)
(234.51267 -1.6386026e-16 -3.0861425)
(233.91655 0 -3.1659851)
(233.3021 1.5252086e-16 -3.241982)
(232.6695 -4.1311004e-18 -3.3135378)
(232.01905 -2.6619168e-16 -3.3800257)
(231.35114 1.261652e-16 -3.4408122)
(230.66632 0 -3.4952513)
(229.96521 0 -3.5427009)
(229.24862 2.1909149e-16 -3.5825281)
(228.51745 -2.041367e-16 -3.6141227)
(227.77276 0 -3.6369058)
(227.01572 0 -3.6503404)
(226.24767 0 -3.6539458)
(225.47005 5.1497217e-18 -3.6473064)
(224.68442 1.5627807e-16 -3.6300841)
(223.89245 -1.4306124e-16 -3.602029)
(223.0959 -1.4011101e-16 -3.5629875)
(222.29661 1.2406144e-16 -3.5129116)
(221.49646 0 -3.4518661)
(220.69739 -1.1873012e-16 -3.3800301)
(219.90133 1.1206952e-16 -3.2977012)
(219.11022 -2.1238309e-16 -3.205292)
(218.32594 2.003809e-16 -3.1033272)
(217.55032 -1.956932e-16 -2.9924356)
(216.78514 3.5828354e-16 -2.873339)
(216.03203 5.6087114e-18 -2.7468411)
(215.29254 2.9371077e-19 -2.6138132)
(214.56808 -1.5080268e-16 -2.4751789)
(213.85989 1.4262118e-16 -2.3318992)
(213.16908 -1.259805e-16 -2.1849553)
(212.49656 0 -2.035331)
(211.84311 7.4872532e-18 -1.8839968)
(211.20931 0 -1.7318934)
(210.59558 6.6626775e-18 -1.5799194)
(210.00217 2.0746381e-16 -1.4289237)
(209.42919 -3.7919533e-16 -1.2796975)
(208.87658 1.0950658e-17 -1.1329698)
(208.34418 1.6850298e-16 -0.98940396)
(207.83165 -1.4914899e-16 -0.8496145)
(207.33855 1.4048991e-16 -0.71415577)
(206.8644 -8.8402311e-18 -0.58358207)
(206.40874 0 -0.4584317)
(205.9711 0 -0.3392423)
(205.55111 -1.1140438e-16 -0.22659389)
(205.14859 1.1208183e-16 -0.1211248)
(204.7636 -9.931433e-17 -0.023557703)
(204.39653 1.9384791e-16 0.065297069)
(204.04797 -1.8916865e-16 0.14459255)
(203.71852 8.3854158e-17 0.21361965)
(203.40843 5.29461e-18 0.27212313)
(203.11661 0 0.32039343)
(202.84011 4.7587009e-18 0.35982031)
(202.57313 -4.5192545e-18 0.3932428)
(202.30397 0 0.42424863)
(202.04277 -3.3784012e-17 0.4544608)
(201.63713 6.2511364e-17 0.45786141)
(201.58556 -3.1766757e-17 0.631815)
(200.72158 0 0.23169845)
(201.1691 0 1.3108267)
(215.89622 0 -11.125905)
(252.85707 -3.736261e-18 3.3039754)
(238.36864 -1.2004617e-16 -10.423369)
(246.50051 1.1069641e-16 1.6809485)
(241.49956 0 -8.7515976)
(243.91425 1.0184249e-16 -0.40784922)
(241.93179 -1.8805822e-16 -7.0178642)
(242.51891 -1.0132948e-19 -2.2954813)
(241.59467 8.4751016e-17 -5.704204)
(241.47225 0 -3.6377531)
(240.92028 -1.5308719e-16 -4.9986548)
(240.54511 1.4974928e-16 -4.3892774)
(240.07142 1.4242295e-16 -4.8085226)
(239.61018 -2.6218055e-16 -4.7445262)
(239.12097 1.2052575e-16 -4.8818009)
(238.61619 1.1080359e-17 -4.9429954)
(238.09199 1.1586339e-16 -5.0271194)
(237.54897 -1.0319024e-16 -5.1021831)
(236.98677 0 -5.1764706)
(236.40526 0 -5.2472856)
(235.80438 5.6939693e-18 -5.314505)
(235.18415 -1.7861881e-16 -5.377416)
(234.54469 3.3869396e-16 -5.4353821)
(233.88622 -3.1647998e-16 -5.4877173)
(233.20908 1.4304582e-16 -5.5337218)
(232.5137 0 -5.5726823)
(231.80069 1.2475479e-16 -5.6038773)
(231.07076 -1.3377607e-16 -5.626593)
(230.32477 0 -5.6401302)
(229.56371 3.5351498e-18 -5.6438164)
(228.78874 -1.3408612e-17 -5.6370167)
(228.00115 0 -5.6191494)
(227.20236 0 -5.5896932)
(226.39395 -1.7108656e-16 -5.5482075)
(225.57759 3.3971925e-16 -5.4943398)
(224.75509 -1.6313007e-16 -5.4278395)
(223.92834 -1.59517e-16 -5.3485708)
(223.09929 1.460014e-16 -5.2565184)
(222.26997 -1.1244819e-16 -5.1517975)
(221.44242 -2.824806e-19 -5.0346577)
(220.61869 -2.6422938e-19 -4.9054845)
(219.8008 2.3339335e-16 -4.7647982)
(218.99073 -1.1011805e-16 -4.6132489)
(218.19039 0 -4.4516071)
(217.40158 2.0288853e-16 -4.280754)
(216.626 1.1961992e-17 -4.1016663)
(215.8652 -5.1354945e-18 -3.9154)
(215.12058 -1.6495307e-16 -3.7230732)
(214.39337 0 -3.5258472)
(213.68466 -1.4691952e-16 -3.3249072)
(212.99531 -8.8781249e-18 -3.1214428)
(212.32603 2.6075702e-16 -2.9166275)
(211.67737 -1.304108e-16 -2.7116013)
(211.04967 0 -2.5074548)
(210.44312 -2.0432768e-17 -2.305216)
(209.85777 -2.1172495e-16 -2.1058427)
(209.29349 3.6215765e-16 -1.9102147)
(208.75006 -2.1580018e-16 -1.71913)
(208.22712 0 -1.5333033)
(207.72423 -1.7121217e-16 -1.3533831)
(207.2408 1.7991681e-16 -1.1799421)
(206.77623 2.6750171e-17 -1.0135283)
(206.33 0 -0.85467567)
(205.90158 -1.4222782e-16 -0.70389657)
(205.49055 7.3368876e-18 -0.56173406)
(205.09671 1.1196779e-16 -0.42877617)
(204.72011 -1.9781808e-17 -0.30567847)
(204.36111 9.320877e-17 -0.19316921)
(204.02024 -1.0534882e-16 -0.091985247)
(203.69796 5.5198815e-18 -0.0026796556)
(203.39425 -5.2076796e-18 0.07461406)
(203.1077 0 0.14030032)
(202.83498 -4.6449125e-18 0.19594161)
(202.57052 4.3924464e-18 0.24519961)
(202.3057 8.317221e-18 0.29121454)
(202.02289 9.8529047e-19 0.32670824)
(201.70244 0 0.37488625)
(201.44707 3.0249148e-17 0.48684966)
(200.8352 -5.7586176e-17 0.19542882)
(201.033 2.5869848e-17 1.1663512)
(217.05413 0 -14.004902)
(254.32718 -1.2289924e-16 1.0701705)
(239.33119 2.5056551e-16 -13.420122)
(247.74364 -2.2380502e-16 -0.56479524)
(242.48255 1.105226e-16 -11.677313)
(245.03352 -3.2727388e-18 -2.7468655)
(242.92405 9.9610613e-17 -9.7997324)
(243.53685 -9.4342751e-17 -4.7622389)
(242.55607 -5.6004465e-18 -8.3478324)
(242.41057 -5.3175871e-18 -6.1902085)
(241.82348 -1.0101425e-17 -7.5620379)
(241.41255 1.3936097e-16 -6.9578283)
(240.90362 -1.4126324e-16 -7.3459678)
(240.40412 1.3863823e-16 -7.2886529)
(239.87606 -1.1909905e-16 -7.4045688)
(239.33078 -1.5609309e-17 -7.4575708)
(238.76484 0 -7.5260105)
(238.17882 -1.2153493e-20 -7.5861349)
(237.57243 -2.2702289e-16 -7.6432609)
(236.94568 -3.6343918e-19 -7.6953578)
(236.2986 1.7400624e-16 -7.7419874)
(235.63135 1.7091815e-17 -7.782352)
(234.9442 -2.1618444e-17 -7.8156945)
(234.23754 0 -7.8412251)
(233.51188 7.1333418e-21 -7.8581487)
(232.76788 -1.6594453e-16 -7.8656676)
(232.00633 1.4825389e-16 -7.8629935)
(231.22821 8.2741136e-18 -7.8493553)
(230.4346 0 -7.824018)
(229.62679 -7.4227228e-18 -7.7862892)
(228.80619 -1.3387388e-21 -7.7355394)
(227.97439 -1.9979775e-16 -7.6712138)
(227.1331 2.012239e-16 -7.5928472)
(226.28417 1.1923174e-17 -7.5000832)
(225.42957 -1.8049543e-16 -7.3926819)
(224.57135 1.4896581e-16 -7.2705375)
(223.71164 -1.8150422e-16 -7.1336865)
(222.85263 1.5213473e-16 -6.9823167)
(221.99653 -1.4404063e-16 -6.8167695)
(221.1455 1.3575299e-16 -6.637545)
(220.30172 1.6050619e-17 -6.4452981)
(219.46727 0 -6.2408301)
(218.64412 2.002101e-16 -6.025082)
(217.83416 -2.4233601e-16 -5.799118)
(217.0391 0 -5.5641101)
(216.26051 1.7984901e-16 -5.3213198)
(215.49977 -1.5782461e-16 -5.0720749)
(214.75807 1.7027735e-16 -4.8177499)
(214.03643 -1.8010856e-16 -4.5597416)
(213.33565 0 -4.299448)
(212.65632 1.775927e-16 -4.0382465)
(211.99889 -1.3346832e-16 -3.7774715)
(211.36358 0 -3.5183979)
(210.75048 0 -3.2622268)
(210.15949 1.2504973e-16 -3.010072)
(209.59038 -2.0883914e-16 -2.7629548)
(209.04281 1.2259233e-16 -2.5217973)
(208.51631 1.844948e-16 -2.2874217)
(208.01035 1.9879821e-19 -2.0605504)
(207.52431 1.7727444e-19 -1.8418238)
(207.05747 -3.2473176e-16 -1.6318001)
(206.60914 8.9617423e-17 -1.4309868)
(206.17868 0 -1.2398821)
(205.76553 1.4243101e-16 -1.0589499)
(205.36924 -1.6337636e-16 -0.88867376)
(204.98959 1.1166569e-16 -0.7295758)
(204.62665 1.3181229e-17 -0.58223469)
(204.28076 -8.6154169e-17 -0.44728752)
(203.95242 1.156874e-17 -0.32534815)
(203.64194 2.1753781e-17 -0.21681278)
(203.34897 -1.0228697e-16 -0.1216776)
(203.07169 9.6182804e-17 -0.039360513)
(202.80656 -7.2456033e-17 0.032125637)
(202.54805 1.3645306e-16 0.096585988)
(202.28562 -5.6255349e-17 0.1547159)
(202.0008 -6.068347e-17 0.20393515)
(201.70443 5.0130853e-17 0.27918626)
(201.39205 0 0.35368124)
(200.88578 3.207585e-18 0.15529252)
(200.94742 -1.2162721e-17 1.0073104)
(218.05265 0 -16.952107)
(255.64643 0 -1.2999447)
(240.07368 0 -16.54912)
(248.80794 1.0696166e-16 -2.912537)
(243.28134 -1.2418704e-16 -14.728889)
(245.98777 -2.2118765e-16 -5.2012915)
(243.73667 2.1036248e-16 -12.69705)
(244.37807 -1.2459815e-17 -7.3541513)
(243.33313 5.9327603e-18 -11.10021)
(243.16069 -1.7446317e-16 -8.8723355)
(242.53387 1.7079822e-16 -10.23542)
(242.0817 1.0150268e-17 -9.650383)
(241.53267 -1.5413191e-16 -9.9995915)
(240.98962 1.3692038e-16 -9.9505751)
(240.41763 -1.3524665e-20 -10.043887)
(239.82675 -8.2115801e-18 -10.086745)
(239.21411 0 -10.137887)
(238.58025 -7.4122436e-18 -10.180609)
(237.92502 -2.1099098e-16 -10.217906)
(237.24854 2.1304506e-16 -10.248196)
(236.55098 1.2645641e-17 -10.270814)
(235.83267 -1.1988996e-17 -10.284878)
(235.09403 2.1603887e-16 -10.289531)
(234.33565 -1.7208738e-16 -10.283893)
(233.55827 1.0204894e-17 -10.267082)
(232.76279 1.9349601e-16 -10.23823)
(231.95027 -1.2799908e-16 -10.196486)
(231.12195 0 -10.141042)
(230.27927 1.4789139e-16 -10.07114)
(229.42379 -1.2413819e-16 -9.9860988)
(228.55728 2.501724e-16 -9.88532)
(227.68165 -1.336998e-17 -9.7683182)
(226.79895 -2.1013746e-16 -9.6347304)
(225.91134 1.7428167e-16 -9.4843357)
(225.0211 -1.8774839e-16 -9.3170666)
(224.13056 -2.9509036e-20 -9.1330241)
(223.24209 2.0987116e-16 -8.9324832)
(222.35808 -3.1672761e-16 -8.715898)
(221.48089 9.321942e-17 -8.4839028)
(220.6128 3.5290806e-17 -8.2373074)
(219.75602 -4.9901864e-17 -7.9770907)
(218.91263 0 -7.7043846)
(218.08455 -8.8789063e-17 -7.4204602)
(217.27353 1.3906297e-16 -7.126705)
(216.48112 -2.0996322e-16 -6.824602)
(215.70868 1.9728261e-16 -6.5157058)
(214.95732 -2.092405e-16 -6.2016141)
(214.22795 3.934383e-16 -5.8839443)
(213.52126 -3.0832301e-16 -5.5643073)
(212.83772 3.0917448e-16 -5.2442831)
(212.17761 -1.4511626e-16 -4.9253982)
(211.54099 1.3659546e-16 -4.6091068)
(210.92777 -9.6024738e-17 -4.2967723)
(210.3377 3.0109513e-17 -3.9896579)
(209.77039 0 -3.6889141)
(209.22532 0 -3.3955768)
(208.70189 0 -3.1105634)
(208.1994 2.3306674e-17 -2.8346754)
(207.71711 0 -2.5686026)
(207.25425 -1.6403406e-16 -2.3129407)
(206.80998 1.92024e-16 -2.0681992)
(206.3835 -1.0808185e-16 -1.8348211)
(205.9741 -1.188409e-19 -1.6132389)
(205.58116 2.5285585e-16 -1.4038493)
(205.20422 2.9699111e-17 -1.2070581)
(204.84306 -1.3867564e-16 -1.0233067)
(204.49776 5.2004118e-17 -0.85308646)
(204.16869 -1.4608385e-16 -0.6969321)
(203.8563 -4.5643284e-17 -0.55532591)
(203.56077 -6.4154371e-17 -0.4285146)
(203.28144 -6.0153391e-17 -0.31635312)
(203.01617 5.6360158e-17 -0.21801814)
(202.76126 0 -0.13112968)
(202.51075 0 -0.052347496)
(202.25293 -1.5525488e-17 0.017883804)
(201.97541 0 0.083050261)
(201.68803 6.8558828e-18 0.17196224)
(201.34848 5.1626102e-17 0.22932028)
(200.91168 -7.2898224e-17 0.11003295)
(200.87374 -1.2935871e-20 0.84568557)
(218.8753 0 -20.095687)
(256.79482 -8.8440518e-18 -3.7465144)
(240.68424 2.6742483e-16 -19.813984)
(249.65615 -2.4983138e-16 -5.385076)
(243.84499 2.5490705e-16 -17.895484)
(246.74068 -2.332304e-16 -7.8083021)
(244.35029 -2.2231771e-16 -15.699935)
(245.00957 2.1045655e-16 -10.103549)
(243.90234 0 -13.95542)
(243.6929 0 -11.703811)
(243.02409 1.8035637e-16 -13.022591)
(242.52394 -1.708643e-16 -12.475043)
(241.93011 -1.0150228e-17 -12.775525)
(241.33838 2.8870633e-17 -12.734005)
(240.71758 -9.136206e-18 -12.802575)
(240.07634 3.4651267e-17 -12.831504)
(239.41233 0 -12.86236)
(238.72604 0 -12.883901)
(238.01746 -2.3663293e-16 -12.897523)
(237.28683 2.0986201e-16 -12.901867)
(236.53447 0 -12.896086)
(235.76091 0 -12.879191)
(234.96679 -1.9093313e-16 -12.850199)
(234.15296 3.6133485e-16 -12.808126)
(233.32044 -1.7089852e-16 -12.751991)
(232.47044 -2.0245728e-17 -12.680845)
(231.6044 -3.8344368e-17 -12.593785)
(230.72391 -1.4528757e-16 -12.489979)
(229.83078 1.1995849e-16 -12.368677)
(228.92699 0 -12.229241)
(228.0147 -3.0721425e-17 -12.071162)
(227.09622 0 -11.894082)
(226.17395 0 -11.697809)
(225.25043 2.0737784e-16 -11.482336)
(224.32824 -2.1980594e-16 -11.247849)
(223.40999 2.3057238e-17 -10.994738)
(222.49828 -2.1755398e-17 -10.723602)
(221.59565 -4.1127302e-17 -10.435243)
(220.70456 -8.426393e-20 -10.130667)
(219.82734 8.0013844e-20 -9.8110609)
(218.96615 -7.5487129e-20 -9.4777884)
(218.12297 0 -9.1323586)
(217.29956 -1.2207693e-16 -8.7764096)
(216.49745 1.1463689e-16 -8.4116743)
(215.71791 0 -8.0399543)
(214.96196 -5.0806732e-17 -7.6630931)
(214.23038 1.909561e-16 -7.2829397)
(213.52369 -2.2385656e-16 -6.9013257)
(212.84217 -2.1059906e-16 -6.520036)
(212.1859 1.5789554e-16 -6.1407852)
(211.55473 1.1135742e-16 -5.7651966)
(210.94836 -1.3900161e-16 -5.3947858)
(210.36631 -3.2588858e-17 -5.0309459)
(209.80797 -2.1408443e-16 -4.6749416)
(209.27263 1.1450015e-16 -4.3279005)
(208.75948 -1.0738856e-16 -3.9908153)
(208.26764 1.0044504e-16 -3.6645453)
(207.79622 2.3534416e-16 -3.3498212)
(207.34426 -1.7601575e-16 -3.0472552)
(206.91086 0 -2.7573594)
(206.49505 -3.8517974e-17 -2.4805569)
(206.09596 -7.210053e-17 -2.217201)
(205.71282 1.3471847e-16 -1.9676313)
(205.34499 1.2604281e-16 -1.7321569)
(204.99199 -2.3553636e-16 -1.5110892)
(204.65363 8.2487825e-17 -1.3047748)
(204.33002 5.1419089e-17 -1.1136051)
(204.02155 9.6123657e-17 -0.93800185)
(203.72866 1.3474838e-16 -0.77830988)
(203.45142 2.5569822e-20 -0.6346319)
(203.18886 0 -0.50666828)
(202.93857 0 -0.39331299)
(202.69664 -3.4272745e-17 -0.29195025)
(202.45648 9.6140414e-17 -0.19991304)
(202.20655 -8.989926e-17 -0.11756392)
(201.9385 -8.4139046e-17 -0.037217115)
(201.65593 5.2497597e-17 0.060334352)
(201.31705 0 0.11123782)
(200.9174 4.6088119e-17 0.062159648)
(200.81259 2.2642228e-20 0.68844627)
(219.50044 0 -23.410352)
(257.74519 1.8674296e-20 -6.2699705)
(241.10301 9.100768e-18 -23.175635)
(250.33777 2.8937454e-16 -7.9948576)
(244.25724 3.3065564e-19 -21.164567)
(247.26348 -5.0754942e-16 -10.564507)
(244.7189 -3.2102766e-19 -18.79696)
(245.40224 4.5775783e-16 -13.013962)
(244.23089 -2.1061271e-16 -16.910727)
(243.98005 -1.249287e-17 -14.683689)
(243.26794 1.1864897e-17 -15.922081)
(242.71486 -1.8016106e-16 -15.424576)
(242.07261 1.9194133e-16 -15.66832)
(241.42807 -1.8237021e-16 -15.630253)
(240.75419 3.0720577e-16 -15.671767)
(240.05809 -3.0951615e-16 -15.682297)
(239.33801 1.3794784e-16 -15.689456)
(238.59444 0 -15.685809)
(237.82754 0 -15.671623)
(237.03775 1.4693434e-17 -15.645547)
(236.22567 -2.7860076e-17 -15.606519)
(235.39208 0 -15.553393)
(234.53797 2.0005276e-16 -15.485034)
(233.66454 4.6767399e-19 -15.400336)
(232.77323 -3.5802128e-16 -15.298222)
(231.86567 1.6916592e-16 -15.177684)
(230.94374 2.0015005e-17 -15.037802)
(230.00951 0 -14.877762)
(229.06526 -1.7928591e-16 -14.696887)
(228.11345 1.3519374e-16 -14.494659)
(227.15669 -2.2417535e-16 -14.270737)
(226.19773 2.1100871e-16 -14.024989)
(225.23938 -2.2835483e-16 -13.757489)
(224.28454 2.1494821e-16 -13.468551)
(223.33609 7.6194228e-17 -13.158719)
(222.39686 0 -12.828778)
(221.46962 0 -12.479749)
(220.55701 4.246488e-17 -12.112875)
(219.66147 3.9995585e-17 -11.729607)
(218.78525 -3.765431e-17 -11.331581)
(217.93037 3.5435224e-17 -10.920593)
(217.09858 6.6850094e-17 -10.498566)
(216.29132 -6.2788313e-17 -10.06752)
(215.50977 3.5400079e-16 -9.6295347)
(214.7548 -2.769093e-16 -9.1867157)
(214.027 5.1973332e-17 -8.7411628)
(213.32667 -4.8901468e-17 -8.2949344)
(212.65386 0 -7.8500219)
(212.00838 2.1493222e-16 -7.4083214)
(211.38983 -1.6098736e-16 -6.971615)
(210.79762 0 -6.5415508)
(210.23101 0 -6.1196341)
(209.68913 1.3246102e-16 -5.7072158)
(209.17102 -6.1911378e-17 -5.3054919)
(208.67563 0 -4.9155023)
(208.20187 -1.6266892e-16 -4.5381352)
(207.74863 1.0125728e-16 -4.1741357)
(207.31479 1.4212788e-16 -3.8241151)
(206.89926 -1.7679285e-16 -3.4885637)
(206.50099 1.6525016e-16 -3.1678731)
(206.11895 -1.5414005e-16 -2.8623482)
(205.75219 6.6290428e-20 -2.5722269)
(205.39994 0 -2.2977353)
(205.06153 6.2652365e-17 -2.0390775)
(204.73652 -2.9209886e-16 -1.796457)
(204.42473 1.633564e-16 -1.5701138)
(204.12635 0 -1.3603297)
(203.84179 -1.4202018e-16 -1.1674023)
(203.5715 8.8211518e-17 -0.99153803)
(203.31541 1.2339554e-16 -0.83269801)
(203.07235 3.614377e-20 -0.69040936)
(202.83966 -7.1394972e-17 -0.5632869)
(202.61314 9.9831692e-17 -0.44865145)
(202.38575 -1.5505259e-16 -0.34441994)
(202.14688 8.6705149e-17 -0.2501391)
(201.89052 2.6931817e-17 -0.15593692)
(201.61376 5.026126e-17 -0.052402911)
(201.27992 0 -0.0011702754)
(200.91461 -4.3756026e-17 0.013501145)
(200.75232 2.0392335e-17 0.53846477)
(219.91248 0 -26.893425)
(258.49084 9.8423089e-18 -8.8970167)
(241.32279 -3.0684762e-16 -26.659998)
(250.83596 2.5058692e-16 -10.74653)
(244.47264 2.5736919e-16 -24.532238)
(247.54674 -5.0200116e-16 -13.474448)
(244.89293 2.3090084e-16 -21.976414)
(245.54206 2.3376617e-16 -16.085249)
(244.32897 -2.2154445e-16 -19.950517)
(244.01211 3.9434004e-17 -17.798173)
(243.25593 0 -18.921353)
(242.64452 0 -18.483155)
(241.94892 -2.2426883e-17 -18.666624)
(241.24577 -1.7026544e-16 -18.627911)
(240.51252 1.409091e-16 -18.641717)
(239.75497 1.9114395e-17 -18.630373)
(238.97199 -3.6232611e-17 -18.610881)
(238.16422 3.0912536e-16 -18.578175)
(237.33216 -2.2716674e-16 -18.531726)
(236.47655 2.4655416e-16 -18.470077)
(235.59837 -2.0374643e-16 -18.391959)
(234.69883 2.7623298e-17 -18.296076)
(233.77937 1.5693141e-16 -18.181164)
(232.84168 -1.9738265e-16 -18.046029)
(231.8877 0 -17.889553)
(230.91964 0 -17.710727)
(229.93991 0 -17.508688)
(228.95116 -1.9766662e-16 -17.282735)
(227.95622 1.8620498e-16 -17.032362)
(226.95809 -3.5280414e-17 -16.757281)
(225.95988 0 -16.457447)
(224.9648 -2.8280741e-16 -16.133073)
(223.97605 2.3637137e-16 -15.784639)
(222.99685 -5.5904047e-17 -15.412904)
(222.03031 1.5809344e-16 -15.018902)
(221.07943 -4.9132636e-17 -14.603926)
(220.14701 -1.8634619e-16 -14.169527)
(219.23563 2.1981773e-16 -13.717475)
(218.3476 -1.6502802e-16 -13.249742)
(217.48494 7.7838527e-17 -12.768459)
(216.64933 -7.3039976e-17 -12.275889)
(215.84212 1.3729595e-16 -11.774373)
(215.0643 -6.433482e-17 -11.266304)
(214.31655 -2.4212468e-16 -10.754075)
(213.59919 5.1055143e-16 -10.240049)
(212.91225 -2.1263679e-16 -9.7265182)
(212.25546 -1.498379e-16 -9.215678)
(211.62831 9.3162849e-17 -8.7095965)
(211.03008 8.7629958e-17 -8.2101959)
(210.45985 -1.6393306e-16 -7.7192358)
(209.91656 1.5316636e-16 -7.2383026)
(209.39903 0 -6.7688051)
(208.90601 1.3406095e-16 -6.311972)
(208.43617 -1.8777456e-16 -5.8688563)
(207.98819 5.8515871e-17 -5.4403413)
(207.56072 5.4535048e-17 -5.0271508)
(207.15244 0 -4.6298629)
(206.76207 0 -4.2489232)
(206.3884 0 -3.8846613)
(206.03029 0 -3.5373158)
(205.68666 0 -3.2070468)
(205.35657 -7.1646737e-17 -2.8939573)
(205.03921 0 -2.598144)
(204.73398 -5.4735802e-20 -2.3196927)
(204.44047 2.313417e-16 -2.0586908)
(204.15856 -2.1519936e-16 -1.8152639)
(203.88849 -1.0017566e-16 -1.5895762)
(203.63075 -1.8624729e-16 -1.3817971)
(203.38577 2.5958331e-16 -1.1919957)
(203.15341 4.5557302e-20 -1.0199944)
(202.93229 7.4745951e-17 -0.86513154)
(202.71956 0 -0.72577923)
(202.51069 0 -0.59932252)
(202.2984 0 -0.48403378)
(202.07339 -1.1148445e-16 -0.37829332)
(201.83082 0 -0.27161397)
(201.56227 -9.6292202e-17 -0.16298756)
(201.23723 1.342258e-16 -0.10718726)
(200.90552 8.3176107e-17 -0.038151564)
(200.69292 -1.9301662e-17 0.39752232)
(220.1167 0 -30.552071)
(259.03864 0 -11.632225)
(241.35021 3.2286083e-16 -30.275637)
(251.15484 1.9367489e-17 -13.655155)
(244.5037 -2.7019216e-16 -28.009312)
(247.65492 0 -16.560661)
(244.8633 1.61888e-17 -25.233908)
(245.55662 -3.0687043e-17 -19.309084)
(244.17693 0 -23.054528)
(243.79226 1.9343201e-16 -21.031117)
(242.98488 -4.1877667e-16 -22.017109)
(242.30463 1.9829741e-16 -21.64595)
(241.54593 2.3535758e-17 -21.771116)
(240.77434 0 -21.727231)
(239.97188 2.1118077e-17 -21.712424)
(239.14325 -3.4064115e-16 -21.674833)
(238.28798 7.5104267e-17 -21.624136)
(237.40698 2.5103693e-16 -21.556675)
(236.50115 2.383942e-16 -21.471427)
(235.5717 -2.5714347e-16 -21.36682)
(234.6201 0 -21.241424)
(233.64808 -2.8850765e-16 -21.093835)
(232.65768 2.4496316e-16 -20.922715)
(231.65122 -2.0646264e-16 -20.726849)
(230.63129 1.9459715e-16 -20.505159)
(229.60074 -1.8440833e-16 -20.256732)
(228.56265 3.4787638e-16 -19.980878)
(227.52032 -1.6416016e-16 -19.677133)
(226.47721 1.5524788e-16 -19.345305)
(225.43687 -2.9268666e-16 -18.985491)
(224.40293 1.3775627e-16 -18.598096)
(223.37901 1.3009446e-16 -18.183844)
(222.36867 -2.4544632e-16 -17.743778)
(221.37531 5.6992822e-17 -17.279251)
(220.40218 -5.6777814e-19 -16.791924)
(219.45225 2.5534932e-16 -16.283716)
(218.52819 0 -15.756803)
(217.63235 1.9125367e-19 -15.213558)
(216.76669 0 -14.656514)
(215.93276 -7.9699249e-17 -14.088321)
(215.13174 -1.4977661e-16 -13.511695)
(214.36436 7.0319648e-17 -12.929368)
(213.63101 0 -12.344048)
(212.93167 -6.1962547e-17 -11.758371)
(212.266 2.9001781e-16 -11.174863)
(211.63335 -3.2559716e-16 -10.595913)
(211.03282 -3.0507358e-16 -10.023742)
(210.46329 2.8484631e-16 -9.4603872)
(209.92344 -1.7775873e-16 -8.9076859)
(209.41184 0 -8.3672701)
(208.92698 0 -7.8405644)
(208.46725 7.2546491e-17 -7.328789)
(208.03104 6.7702735e-17 -6.8329676)
(207.61675 1.2617536e-16 -6.3539365)
(207.22278 -5.8835864e-17 -5.8923587)
(206.84761 -1.0959829e-16 -5.4487395)
(206.48975 -2.043807e-16 -5.0234442)
(206.14783 -9.5349542e-17 -4.6167152)
(205.82056 1.7701761e-16 -4.2286912)
(205.50676 0 -3.8594344)
(205.20536 -7.6672888e-17 -3.5089411)
(204.91544 -1.4251927e-16 -3.1771667)
(204.63626 1.324089e-16 -2.8640702)
(204.36725 6.1411562e-17 -2.5696112)
(204.10808 5.7118027e-17 -2.2937578)
(203.85872 0 -2.0365179)
(203.61948 1.969033e-16 -1.7979357)
(203.39092 1.8269792e-16 -1.5780532)
(203.17349 -2.5420934e-16 -1.3768094)
(202.96696 7.8610827e-17 -1.1938875)
(202.76983 -7.2857838e-17 -1.0284327)
(202.57904 -4.7822379e-20 -0.87863208)
(202.38976 2.5032618e-16 -0.74199031)
(202.19469 -2.319573e-16 -0.61682325)
(201.98597 5.369029e-17 -0.50027673)
(201.75896 1.4932739e-16 -0.38263356)
(201.50118 -4.6122081e-17 -0.26885152)
(201.18999 -4.2718152e-17 -0.20289632)
(200.88624 0 -0.097156995)
(200.62795 3.6597959e-17 0.2660518)
(220.12365 3.9256935e-16 -34.396288)
(259.39315 5.38698e-19 -14.482636)
(241.1631 -3.5989699e-16 -34.037149)
(251.28788 0 -16.724826)
(244.27424 0 -31.560574)
(247.41741 -2.685291e-16 -19.81764)
(244.53325 2.7164919e-16 -28.546006)
(245.05421 6.4427745e-17 -22.693363)
(243.76062 -2.4453291e-16 -26.25916)
(243.2958 2.312981e-16 -24.409425)
(242.4269 -2.4719644e-16 -25.236711)
(241.6651 2.0777199e-16 -24.928116)
(240.83134 -4.9289389e-17 -24.994369)
(239.97972 -4.673934e-17 -24.935733)
(239.09665 -1.7710908e-16 -24.88727)
(238.18596 1.6728515e-16 -24.815692)
(237.24788 -3.5722901e-16 -24.725846)
(236.28372 6.0047672e-16 -24.614771)
(235.29493 -2.8371656e-16 -24.481054)
(234.2833 -2.6918674e-16 -24.32299)
(233.25096 2.5384936e-16 -24.139018)
(232.20034 -3.0227206e-17 -23.927671)
(231.13423 -2.2754094e-16 -23.687613)
(230.05571 2.1434824e-16 -23.417707)
(228.96816 2.5390401e-16 -23.117028)
(227.87521 -1.4317326e-16 -22.784909)
(226.7807 0 -22.420988)
(225.68864 2.5602374e-16 -22.025221)
(224.60313 -3.2157068e-16 -21.597921)
(223.52827 1.1315149e-16 -21.139767)
(222.46815 -2.8604986e-16 -20.651812)
(221.42668 2.0153691e-16 -20.135481)
(220.40762 -6.3498704e-17 -19.592554)
(219.41443 2.3862505e-16 -19.025137)
(218.45021 -2.2383749e-16 -18.43564)
(217.51772 -2.1095168e-16 -17.826717)
(216.61923 1.977217e-16 -17.201228)
(215.75659 -4.6373786e-17 -16.562183)
(214.93114 0 -15.912679)
(214.14374 8.2054606e-17 -15.255846)
(213.3948 -7.6589217e-17 -14.594794)
(212.68428 0 -13.932555)
(212.01172 1.3485322e-16 -13.272041)
(211.37631 -6.3081552e-17 -12.616002)
(210.77693 -1.7687842e-16 -11.966999)
(210.21218 5.5171448e-16 -11.327373)
(209.68049 -2.0656225e-16 -10.699235)
(209.18008 9.634434e-17 -10.084455)
(208.70912 -2.7014109e-16 -9.4846617)
(208.26566 -1.8363076e-19 -8.9012436)
(207.84777 1.5662957e-16 -8.3353612)
(207.45351 -1.4611657e-16 -7.7879568)
(207.08099 -6.799991e-17 -7.2597709)
(206.72835 -6.3340782e-17 -6.7513597)
(206.39385 -1.1826956e-16 -6.2631129)
(206.07583 2.1963398e-16 -5.7952751)
(205.77273 0 -5.3479657)
(205.48314 9.4913861e-17 -4.9211989)
(205.20575 -3.5317962e-16 -4.5149046)
(204.93941 2.4579581e-16 -4.1289555)
(204.68312 7.6068534e-17 -3.7631756)
(204.436 1.4131591e-16 -3.4173686)
(204.19741 1.3130622e-16 -3.0913548)
(203.96688 -1.2147799e-16 -2.7849664)
(203.74417 -1.1256949e-16 -2.4980534)
(203.52935 -3.1314927e-16 -2.2305082)
(203.32283 -4.4490916e-20 -1.9822579)
(203.12523 -8.9481396e-17 -1.7532239)
(202.93703 0 -1.5432241)
(202.75798 -2.299916e-16 -1.3518035)
(202.58645 7.0908622e-17 -1.1779229)
(202.41919 0 -1.0196474)
(202.25106 1.2127886e-16 -0.87457618)
(202.07507 0 -0.74075801)
(201.88455 1.03571e-16 -0.61432414)
(201.67423 -1.4350573e-16 -0.48731382)
(201.42952 1.3259625e-16 -0.36741803)
(201.13707 -8.165165e-17 -0.2834572)
(200.85467 7.5402235e-17 -0.15429097)
(200.56571 0 0.14415841)
(219.92179 -4.1244314e-16 -38.433968)
(259.54333 3.6455364e-16 -17.466783)
(240.7294 -3.3390734e-16 -37.974321)
(251.16631 3.3207997e-16 -19.969877)
(243.76446 3.1797204e-16 -35.174942)
(246.96036 -1.808066e-17 -23.259868)
(243.96534 -2.8471168e-16 -31.939027)
(244.43097 -2.7026587e-16 -26.267976)
(243.05009 2.8766598e-16 -29.582038)
(242.47881 0 -27.933395)
(241.53793 2.8702612e-17 -28.586823)
(240.68207 0 -28.328882)
(239.76063 -1.2909008e-16 -28.33576)
(238.8168 2.4374323e-16 -28.250829)
(237.84103 0 -28.160936)
(236.83673 0 -28.045113)
(235.8049 0 -27.905182)
(234.74748 3.9250827e-17 -27.738469)
(233.66665 0 -27.543273)
(232.56502 -2.4547968e-16 -27.317802)
(231.44555 3.3074536e-16 -27.060436)
(230.3116 1.2514438e-16 -26.769757)
(229.16688 1.7744376e-16 -26.444558)
(228.01542 -2.7871539e-16 -26.083938)
(226.86153 -5.2522226e-17 -25.687317)
(225.70972 -2.4854549e-16 -25.254486)
(224.56466 1.8706349e-16 -24.78564)
(223.43106 -2.2093082e-16 -24.281407)
(222.3136 8.2665722e-17 -23.742847)
(221.21686 7.8150421e-17 -23.171466)
(220.14518 0 -22.569195)
(219.10261 2.7799764e-16 -21.938358)
(218.09281 -2.6109601e-16 -21.281647)
(217.119 0 -20.602059)
(216.18388 -2.3081022e-16 -19.902849)
(215.2896 2.1619066e-16 -19.187456)
(214.43773 -1.0187452e-16 -18.459436)
(213.62927 1.9073372e-16 -17.7224)
(212.86466 -2.6799551e-16 -16.979932)
(212.1438 1.2658713e-19 -16.235535)
(211.46609 -1.565812e-16 -15.492572)
(210.83052 -7.3279299e-17 -14.754214)
(210.23567 -1.3752853e-16 -14.023408)
(209.67984 2.5638356e-16 -13.302839)
(209.16107 -1.1964337e-16 -12.594921)
(208.67723 0 -11.901779)
(208.22604 -3.7745081e-19 -11.225253)
(207.80519 9.7328949e-17 -10.566903)
(207.41233 0 -9.9280194)
(207.04513 8.4655658e-17 -9.3096375)
(206.70132 7.9153419e-17 -8.71256)
(206.37871 -7.3491791e-17 -8.1373753)
(206.07522 2.7362101e-16 -7.5844799)
(205.78888 -2.5436613e-16 -7.0541021)
(205.51786 -1.1830184e-16 -6.5463239)
(205.26045 -1.0990162e-16 -6.0611042)
(205.01513 1.0204798e-16 -5.5983)
(204.78047 1.8929959e-16 -5.1576876)
(204.55526 -3.5113734e-16 -4.7389839)
(204.33843 4.069419e-16 -4.3418725)
(204.12905 -1.5078282e-16 -3.966007)
(203.92638 1.3976145e-16 -3.6110442)
(203.72989 -1.2937535e-16 -3.2766727)
(203.53924 2.3960351e-16 -2.9626019)
(203.35432 -3.3260843e-16 -2.6685709)
(203.1753 2.0502321e-16 -2.3943623)
(203.0027 -8.3059887e-20 -2.1397942)
(202.83722 8.7627165e-17 -1.9046778)
(202.67938 0 -1.6887186)
(202.5289 0 -1.4913246)
(202.38409 0 -1.3112972)
(202.24148 -1.2728168e-16 -1.1466272)
(202.09574 1.5060263e-20 -0.99491395)
(201.94031 0 -0.85373046)
(201.76934 0 -0.71866933)
(201.57641 9.1988635e-17 -0.58393692)
(201.34713 -1.6949264e-16 -0.45707969)
(201.07742 0 -0.35300904)
(200.81265 0 -0.21040382)
(200.5016 -1.3198612e-16 0.033215432)
(219.47787 2.7832913e-17 -42.673478)
(259.45175 -7.8934451e-16 -20.604704)
(240.02091 3.4936618e-16 -42.053169)
(250.52366 -2.182933e-17 -23.398116)
(242.94429 3.7481224e-16 -38.908271)
(246.17151 -3.5347849e-16 -26.92566)
(243.0891 0 -35.449672)
(243.42391 -3.1838065e-16 -30.034333)
(241.99198 2.3405537e-16 -33.019905)
(241.29719 2.2229674e-16 -31.596592)
(240.27092 -2.3995447e-16 -32.070665)
(239.30701 0 -31.844499)
(238.28361 1.8919687e-19 -31.789698)
(237.23412 0 -31.664569)
(236.1526 3.864709e-16 -31.521788)
(235.04248 -7.3007425e-16 -31.348019)
(233.90573 3.4467058e-16 -31.143265)
(232.74516 -4.0714404e-17 -30.904957)
(231.56395 -3.8684877e-17 -30.631226)
(230.36578 3.676379e-17 -30.320277)
(229.15473 -6.8660066e-17 -29.970589)
(227.93532 -3.2523715e-16 -29.58095)
(226.71239 3.0610714e-16 -29.150517)
(225.49109 5.7704352e-17 -28.678878)
(224.27675 -2.7344152e-16 -28.166079)
(223.07482 -6.9055699e-19 -27.612682)
(221.89074 2.9041845e-16 -27.019758)
(220.72983 -1.8227494e-16 -26.388911)
(219.59721 -6.0634991e-19 -25.722252)
(218.49764 0 -25.02238)
(217.43545 0 -24.292331)
(216.41444 -7.1712671e-17 -23.535525)
(215.43781 1.3425907e-16 -22.755698)
(214.50809 0 -21.956819)
(213.62713 -1.1865619e-16 -21.14301)
(212.79607 2.2202563e-16 -20.318459)
(212.01538 -1.0401607e-16 -19.487329)
(211.28486 -1.9492655e-16 -18.653691)