/*--------------------------------*- C++ -*----------------------------------*\
  =========                 |
  \\      /  F ield         | OpenFOAM: The Open Source CFD Toolbox
   \\    /   O peration     | Website:  https://openfoam.org
    \\  /    A nd           | Version:  12
     \\/     M anipulation  |
\*---------------------------------------------------------------------------*/
FoamFile
{
    format      ascii;
    class       volScalarField;
    location    "0.111";
    object      Ma;
}
// * * * * * * * * * * * * * * * * * * * * * * * * * * * * * * * * * * * * * //

dimensions      [];

internalField   nonuniform List<scalar> 
16000
(
0.62680781
0.74447733
0.69973057
0.72414652
0.70915197
0.71604397
0.71036169
0.71186138
0.7092213
0.70876868
0.70714538
0.70600628
0.70458914
0.70320541
0.70173939
0.70022672
0.69865621
0.6970294
0.69534511
0.69360283
0.69180219
0.68994302
0.68802543
0.68604978
0.68401676
0.68192739
0.67978304
0.67758547
0.67533685
0.67303973
0.67069712
0.66831245
0.66588955
0.66343269
0.66094652
0.65843606
0.65590666
0.65336397
0.65081383
0.6482623
0.64571551
0.64317963
0.6406608
0.63816502
0.63569811
0.63326562
0.63087278
0.6285244
0.62622489
0.62397814
0.62178753
0.61965589
0.6175855
0.61557804
0.61363461
0.61175572
0.60994126
0.60819057
0.60650244
0.60487507
0.60330616
0.60179328
0.60033395
0.59892534
0.59756425
0.59624691
0.5949689
0.59372508
0.59250968
0.59131621
0.59013737
0.58896502
0.58779122
0.58661026
0.58541915
0.5842311
0.58282323
0.58210776
0.57942689
0.5801352
0.63131924
0.74972084
0.70307627
0.7288268
0.71300774
0.72036139
0.71423197
0.71584936
0.71302586
0.71250047
0.71078873
0.70953343
0.70802416
0.70652566
0.70495042
0.7033206
0.70163037
0.69987958
0.69806765
0.69619412
0.69425889
0.69226204
0.69020403
0.68808562
0.68590794
0.68367251
0.68138127
0.67903659
0.67664126
0.67419856
0.67171222
0.66918641
0.66662577
0.66403532
0.66142051
0.65878711
0.65614119
0.65348905
0.65083717
0.6481921
0.64556041
0.64294858
0.64036293
0.63780956
0.63529422
0.63282231
0.63039875
0.62802797
0.62571386
0.62345974
0.62126836
0.61914185
0.61708177
0.61508908
0.61316416
0.61130683
0.60951632
0.60779135
0.60613012
0.60453037
0.60298931
0.60150408
0.60007186
0.5986896
0.59735398
0.59606114
0.59480656
0.593585
0.5923905
0.59121643
0.59005526
0.58889838
0.58773748
0.58656803
0.58538509
0.58416162
0.58290686
0.58181131
0.57974701
0.57980085
0.63553385
0.75453468
0.70671112
0.73290453
0.7166283
0.72408606
0.71779747
0.71930476
0.71642584
0.71574413
0.71396392
0.71257083
0.710957
0.70933149
0.70763143
0.70587028
0.70404477
0.7021545
0.70019915
0.69817859
0.69609305
0.69394304
0.69172946
0.68945357
0.6871171
0.68472217
0.68227141
0.67976793
0.67721532
0.67461769
0.67197966
0.66930632
0.66660321
0.6638763
0.66113193
0.65837675
0.65561762
0.6528616
0.65011577
0.6473872
0.64468285
0.64200942
0.63937335
0.63678064
0.63423685
0.63174699
0.6293155
0.6269462
0.62464224
0.62240616
0.62023982
0.61814448
0.61612077
0.61416875
0.61228793
0.61047726
0.6087352
0.60705974
0.60544841
0.60389839
0.60240639
0.6009691
0.59958333
0.59824581
0.59695303
0.59570111
0.59448544
0.59330069
0.59214081
0.59099904
0.5898677
0.58873796
0.58760166
0.58645392
0.58528502
0.58407436
0.58287148
0.58163035
0.57987216
0.57960543
0.63938394
0.75892668
0.70976845
0.73647826
0.71979311
0.72735849
0.72090463
0.7222818
0.7193388
0.71848099
0.71661783
0.71507064
0.71333407
0.71156524
0.70972275
0.70781333
0.70583573
0.7037895
0.70167471
0.69949156
0.6972407
0.69492311
0.69254022
0.69009391
0.68758655
0.68502106
0.68240088
0.67973002
0.67701305
0.67425512
0.67146189
0.66863953
0.66579467
0.66293434
0.66006586
0.65719683
0.65433495
0.65148795
0.64866349
0.64586906
0.64311181
0.64039853
0.63773548
0.63512839
0.63258231
0.63010162
0.62768999
0.62535033
0.62308485
0.62089502
0.61878165
0.61674488
0.61478428
0.61289886
0.61108714
0.60934716
0.60767654
0.60607249
0.60453188
0.60305128
0.60162695
0.60025514
0.5989323
0.59765495
0.59641947
0.59522193
0.59405774
0.59292155
0.59180724
0.59070799
0.58961603
0.58852249
0.58741932
0.58630024
0.58515373
0.58397123
0.58278853
0.58150879
0.57995104
0.57942275
0.64285991
0.76283633
0.71257127
0.73942096
0.7223466
0.73007032
0.72349803
0.7246859
0.72169623
0.7206279
0.71867084
0.71695163
0.71507368
0.71314575
0.71114372
0.7090699
0.70692406
0.70470592
0.70241584
0.7000544
0.69762272
0.69512236
0.69255542
0.68992457
0.6872331
0.68448489
0.6816845
0.6788371
0.6759485
0.67302512
0.67007391
0.66710232
0.66411825
0.66112987
0.65814562
0.65517402
0.65222357
0.64930262
0.64641925
0.64358114
0.64079543
0.63806867
0.63540669
0.63281455
0.63029652
0.62785599
0.62549553
0.62321688
0.62102098
0.61890802
0.61687751
0.61492836
0.61305889
0.61126699
0.6095501
0.6079053
0.60632933
0.60481867
0.60336953
0.60197792
0.60063966
0.59935062
0.59810696
0.59690502
0.59574112
0.59461132
0.59351113
0.59243522
0.59137752
0.59033119
0.58928846
0.58824061
0.58717945
0.58609732
0.58498357
0.58383704
0.58267286
0.581391
0.57997047
0.57929373
0.64590889
0.76617767
0.71492339
0.74190819
0.72455579
0.73213967
0.72543755
0.7264371
0.72340411
0.72211123
0.72004811
0.71814598
0.7161107
0.71401069
0.71183381
0.70957999
0.70724946
0.7048423
0.70235932
0.69980172
0.69717137
0.69447067
0.69170277
0.68887145
0.68598125
0.68303741
0.68004592
0.67701345
0.67394735
0.67085557
0.6677466
0.66462936
0.6615131
0.65840724
0.65532127
0.65226459
0.64924634
0.64627526
0.64335956
0.64050677
0.63772368
0.63501619
0.63238926
0.62984691
0.62739216
0.62502707
0.62275274
0.62056943
0.61847653
0.61647275
0.61455614
0.61272419
0.61097396
0.60930211
0.60770503
0.60617886
0.60471951
0.60332276
0.60198424
0.60069951
0.599464
0.59827332
0.59712341
0.59601049
0.59493087
0.59388071
0.59285562
0.59185045
0.5908592
0.58987512
0.58889055
0.58789699
0.58688595
0.58584877
0.58477675
0.58367235
0.58253404
0.58127311
0.57996434
0.57917519
0.64850228
0.76893359
0.71682231
0.74390166
0.72630067
0.73354881
0.7268788
0.72750273
0.72448204
0.72291079
0.72072727
0.71863109
0.71641856
0.71412795
0.71175479
0.7092985
0.70675987
0.70413979
0.70143992
0.69866246
0.69581042
0.6928875
0.68989825
0.68684798
0.68374289
0.68058994
0.67739694
0.67417238
0.67092545
0.66766589
0.66440389
0.66114994
0.65791467
0.65470869
0.65154241
0.64842583
0.64536843
0.64237897
0.63946533
0.63663444
0.63389218
0.6312433
0.62869139
0.6262389
0.62388719
0.62163655
0.61948628
0.61743483
0.61547987
0.61361842
0.61184695
0.61016154
0.60855791
0.60703159
0.60557795
0.60419226
0.60286974
0.60160557
0.60039493
0.59923302
0.59811507
0.59703648
0.5959931
0.59498113
0.59399693
0.59303682
0.59209664
0.59117142
0.59025537
0.58934189
0.58842356
0.58749211
0.58653872
0.5855542
0.58453207
0.58347607
0.58237202
0.58114544
0.57993108
0.57906335
0.65068274
0.77113531
0.71831142
0.74543032
0.72763581
0.73452308
0.72782781
0.728323
0.72489715
0.72304886
0.72070919
0.71839262
0.71596844
0.71345533
0.71085302
0.70816163
0.70538271
0.70251826
0.69957111
0.69654485
0.69344401
0.69027398
0.68704114
0.68375278
0.68041716
0.67704339
0.67364144
0.67022198
0.66679627
0.66337601
0.65997318
0.65659981
0.65326778
0.64998863
0.64677332
0.64363206
0.64057413
0.63760768
0.63473969
0.63197581
0.62932036
0.62677629
0.62434525
0.6220276
0.61982253
0.6177282
0.61574181
0.6138598
0.61207795
0.61039152
0.60879545
0.60728439
0.60585287
0.60449536
0.60320638
0.60198049
0.60081237
0.59969679
0.59862865
0.59760295
0.59661484
0.59565969
0.59473337
0.59383214
0.59295252
0.59209104
0.59124383
0.59040622
0.58957266
0.58873683
0.58789164
0.58702904
0.58613992
0.58521505
0.58424993
0.58324769
0.58218614
0.58100883
0.57987568
0.57894526
0.65251714
0.77280999
0.71934723
0.74649187
0.72831499
0.73455493
0.72795203
0.7276518
0.72460551
0.72247134
0.71992635
0.71735328
0.71467544
0.71190054
0.70903014
0.70606555
0.7030094
0.69986507
0.69663702
0.69333063
0.68995247
0.68651012
0.68301233
0.67946889
0.6758906
0.67228919
0.66867715
0.66506759
0.66147403
0.65791018
0.65438968
0.65092586
0.6475315
0.64421855
0.64099795
0.63787937
0.63487112
0.63197996
0.62921109
0.62656809
0.62405294
0.62166612
0.61940668
0.61727241
0.61525995
0.61336503
0.61158256
0.60990688
0.60833187
0.60685116
0.6054582
0.60414644
0.60290938
0.60174068
0.60063421
0.59958406
0.59858458
0.59763034
0.59671614
0.59583701
0.59498814
0.59416505
0.59336375
0.59258067
0.59181257
0.59105626
0.59030821
0.58956412
0.58881878
0.5880662
0.58729968
0.58651141
0.58569218
0.5848331
0.58393093
0.58298646
0.58197437
0.58086037
0.57980029
0.57881486
0.65400354
0.77393135
0.71985683
0.74688551
0.72827169
0.73404566
0.72747645
0.72679223
0.72354295
0.72105752
0.71825764
0.71539062
0.71241579
0.7093368
0.70615628
0.70287731
0.69950418
0.69604225
0.69249824
0.68888001
0.68519685
0.68145922
0.67767893
0.67386885
0.67004293
0.66621588
0.66240306
0.65862016
0.65488292
0.65120685
0.64760687
0.64409709
0.64069043
0.63739845
0.63423107
0.63119641
0.62830074
0.62554839
0.62294178
0.62048146
0.61816632
0.61599366
0.61395945
0.61205848
0.61028465
0.60863111
0.60709054
0.60565525
0.60431744
0.60306926
0.60190301
0.60081119
0.59978658
0.59882232
0.59791192
0.59704927
0.59622866
0.59544467
0.59469225
0.5939666
0.59326317
0.59257776
0.59190664
0.59124653
0.59059447
0.58994765
0.58930291
0.58865637
0.58800322
0.58733789
0.58665409
0.58594425
0.58519937
0.5844112
0.58357657
0.58269278
0.58173665
0.58069723
0.57970338
0.5786711
0.65507969
0.7743966
0.71976281
0.74574403
0.72745464
0.73268749
0.72621073
0.72493191
0.72155185
0.7186903
0.71557821
0.71237167
0.70905082
0.70561959
0.70208195
0.69844329
0.69471035
0.6908913
0.68699595
0.68303556
0.67902301
0.67497253
0.67089973
0.66682126
0.66275465
0.65871794
0.65472943
0.65080724
0.64696895
0.64323126
0.63960959
0.63611774
0.63276765
0.62956912
0.6265297
0.62365461
0.62094676
0.61840681
0.61603333
0.61382302
0.61177093
0.60987074
0.608115
0.60649545
0.60500322
0.60362909
0.60236369
0.60119767
0.60012187
0.5991274
0.59820577
0.59734892
0.5965493
0.59579987
0.59509411
0.594426
0.59379002
0.59318104
0.59259431
0.59202543
0.59147026
0.590925
0.59038632
0.58985129
0.58931734
0.58878202
0.58824262
0.5876957
0.58713692
0.58656117
0.58596252
0.58533375
0.58466648
0.58395315
0.58318925
0.58236846
0.58147485
0.58051782
0.57958269
0.57851384
0.6556545
0.77403987
0.71895175
0.74394319
0.72601957
0.73040985
0.72400867
0.72212335
0.71851034
0.71523227
0.71174419
0.70814323
0.70442033
0.70058207
0.69663468
0.69258677
0.68844864
0.68423244
0.67995227
0.67562397
0.6712651
0.66689462
0.66253266
0.65820015
0.65391847
0.64970896
0.64559248
0.64158893
0.6377168
0.63399272
0.63043109
0.62704377
0.62383988
0.62082569
0.61800464
0.61537744
0.61294221
0.6106948
0.60862907
0.60673722
0.60501013
0.60343772
0.60200923
0.60071354
0.5995394
0.59847563
0.59751135
0.59663604
0.59583972
0.59511295
0.59444694
0.59383353
0.59326525
0.59273523
0.59223726
0.59176571
0.59131549
0.59088195
0.59046089
0.59004841
0.58964093
0.58923517
0.58882829
0.5884178
0.58800153
0.58757746
0.5871433
0.58669613
0.5862321
0.58574654
0.58523386
0.58468735
0.58409963
0.58346368
0.58277236
0.58201653
0.58119168
0.58032165
0.57943776
0.57834481
0.65566626
0.77278724
0.71728748
0.74140249
0.72370911
0.72711216
0.72074553
0.71819954
0.71427077
0.71052492
0.70658847
0.70252664
0.6983362
0.69402793
0.68961198
0.68510168
0.68051251
0.67586219
0.67117062
0.66645952
0.66175221
0.65707313
0.65244745
0.64790051
0.64345723
0.63914154
0.63497578
0.6309801
0.62717197
0.62356579
0.62017259
0.61699986
0.61405161
0.61132845
0.60882784
0.60654443
0.60447048
0.60259624
0.60091044
0.59940068
0.59805385
0.59685645
0.59579496
0.594856
0.59402663
0.59329443
0.59264767
0.59207535
0.59156727
0.59111403
0.59070704
0.59033851
0.59000142
0.58968946
0.589397
0.58911905
0.58885116
0.58858937
0.58833013
0.58807019
0.58780663
0.58753678
0.58725835
0.58696933
0.58666799
0.58635273
0.58602172
0.58567254
0.58530189
0.58490549
0.58447806
0.58401358
0.58350597
0.58294833
0.58233013
0.58164097
0.58088997
0.58010879
0.57927106
0.57816772
0.65509549
0.77054063
0.71469969
0.7377693
0.72038713
0.72268055
0.7162722
0.71301407
0.70865887
0.70437378
0.69990368
0.69530039
0.69056594
0.68571707
0.68077022
0.67574548
0.67066553
0.66555542
0.66044233
0.65535504
0.65032344
0.64537783
0.64054829
0.63586383
0.63135167
0.62703641
0.62293941
0.6190782
0.61546611
0.61211207
0.60902063
0.60619208
0.60362284
0.60130589
0.59923127
0.59738668
0.59575801
0.59432993
0.59308632
0.59201079
0.59108698
0.59029889
0.58963111
0.589069
0.58859881
0.58820775
0.58788405
0.58761693
0.58739661
0.58721429
0.58706206
0.58693291
0.58682062
0.58671971
0.5866254
0.5865335
0.58644038
0.58634287
0.58623819
0.58612384
0.58599756
0.58585742
0.58570165
0.58552877
0.58533751
0.58512667
0.58489489
0.58464025
0.58435999
0.58405018
0.58370585
0.58332184
0.58289342
0.58241333
0.5818676
0.58124655
0.58057258
0.57987834
0.57908494
0.57798856
0.65388376
0.76712932
0.71113524
0.73296114
0.71589371
0.71694634
0.71038843
0.70634998
0.70144076
0.69652135
0.69141747
0.68617952
0.68081741
0.67535617
0.66982121
0.66424171
0.65864957
0.65307888
0.64756544
0.64214585
0.63685675
0.63173369
0.62681014
0.62211644
0.61767888
0.61351891
0.60965268
0.60609074
0.60283807
0.5998943
0.59725425
0.59490847
0.59284399
0.59104506
0.58949388
0.5881713
0.58705746
0.5861323
0.58537602
0.58476944
0.58429424
0.58393316
0.58367015
0.5834904
0.58338036
0.58332777
0.58332158
0.58335191
0.58340997
0.58348802
0.58357925
0.58367771
0.58377826
0.58387647
0.58396853
0.58405122
0.58412181
0.58417798
0.58421776
0.58423944
0.58424148
0.58422263
0.58418172
0.58411778
0.58402998
0.58391752
0.58377947
0.58361444
0.58342015
0.583193
0.58292838
0.58262214
0.58227058
0.58186551
0.58139056
0.58083901
0.58024321
0.57962851
0.57887666
0.57781441
0.65197645
0.76231529
0.70663767
0.72678643
0.71002175
0.70968427
0.7028249
0.6979099
0.69229753
0.68662602
0.68077723
0.67480721
0.66873746
0.66260383
0.65644349
0.65029719
0.64420817
0.63822113
0.6323812
0.62673246
0.6213166
0.61617142
0.61132957
0.60681749
0.60265477
0.59885372
0.59541954
0.59235065
0.58963937
0.58727281
0.58523381
0.58350198
0.58205464
0.58086772
0.57991658
0.57917661
0.57862381
0.57823515
0.57798887
0.5778647
0.57784394
0.5779095
0.57804594
0.57823937
0.57847739
0.57874905
0.57904468
0.57935582
0.57967512
0.57999624
0.58031371
0.58062289
0.58091986
0.58120133
0.58146459
0.58170739
0.58192795
0.58212481
0.58229682
0.58244303
0.58256263
0.58265501
0.58271962
0.58275596
0.58276362
0.58274218
0.58269114
0.58260959
0.58249565
0.58234609
0.58215688
0.58192476
0.5816464
0.58131232
0.5809057
0.5804253
0.57990851
0.57936292
0.57864311
0.57765157
0.64931584
0.75571066
0.70109086
0.71898184
0.7024632
0.70054846
0.69319403
0.68728054
0.6808055
0.67425467
0.66755197
0.66076319
0.65392583
0.64709026
0.64030892
0.63363715
0.62713129
0.62084685
0.61483647
0.60914785
0.60382203
0.59889182
0.59438099
0.59030382
0.58666524
0.58346155
0.5806813
0.57830663
0.57631457
0.57467843
0.57336906
0.57235604
0.57160862
0.57109655
0.57079066
0.57066334
0.5706888
0.57084329
0.57110512
0.57145473
0.5718746
0.57234913
0.57286459
0.57340893
0.57397164
0.57454363
0.5751171
0.57568535
0.57624274
0.5767845
0.57730666
0.57780596
0.57827975
0.57872592
0.57914284
0.57952926
0.57988428
0.58020729
0.58049789
0.58075587
0.58098111
0.5811736
0.58133334
0.58146031
0.58155449
0.58161582
0.58164416
0.58163902
0.5815989
0.58152104
0.58140219
0.5812398
0.58103
0.58076187
0.58042076
0.58001345
0.57957661
0.57909028
0.57839392
0.57749169
0.64576762
0.74664783
0.69388226
0.70909561
0.69276157
0.68906371
0.68099044
0.67394527
0.66645013
0.658896
0.65124569
0.64358007
0.63595921
0.62845352
0.62113439
0.61407292
0.6073367
0.60098687
0.59507564
0.58964414
0.5847213
0.58032334
0.57645422
0.57310661
0.5702634
0.56789956
0.56598399
0.56448144
0.56335417
0.56256348
0.56207088
0.56183908
0.56183265
0.5620185
0.56236615
0.56284791
0.56343879
0.56411655
0.5648615
0.56565632
0.56648595
0.56733731
0.56819918
0.56906194
0.56991743
0.57075879
0.57158027
0.57237713
0.57314548
0.5738822
0.57458482
0.57525145
0.57588068
0.57647151
0.57702333
0.57753582
0.57800893
0.5784428
0.57883772
0.57919413
0.57951254
0.57979347
0.58003744
0.58024485
0.58041606
0.58055136
0.58065092
0.58071453
0.58074107
0.58072844
0.58067438
0.58057675
0.5804303
0.58022281
0.57994434
0.57961102
0.57925323
0.5788179
0.57814203
0.57734192
0.64104423
0.73513263
0.68458302
0.69656687
0.68033751
0.67466907
0.66561305
0.65728473
0.64861705
0.63995265
0.63130191
0.62276955
0.61444492
0.60642142
0.59878732
0.59162239
0.58499402
0.57895431
0.57353857
0.56876484
0.56463472
0.56113501
0.55824007
0.55591446
0.55411571
0.55279682
0.55190863
0.55140164
0.55122754
0.55134029
0.55169688
0.55225777
0.5529871
0.55385273
0.55482616
0.55588229
0.55699925
0.5581581
0.55934252
0.5605386
0.56173453
0.56292035
0.56408775
0.56522986
0.56634101
0.56741665
0.56845314
0.56944762
0.57039796
0.5713026
0.57216046
0.57297091
0.5737337
0.57444884
0.57511663
0.57573758
0.57631237
0.57684182
0.57732682
0.57776836
0.57816749
0.5785252
0.57884246
0.57912006
0.57935871
0.57955901
0.57972139
0.57984584
0.57993162
0.57997744
0.57998218
0.5799438
0.57985523
0.57970361
0.57948514
0.5792247
0.57894297
0.57855503
0.57790349
0.57719849
0.63478555
0.72217777
0.6726343
0.68080867
0.66447337
0.65664332
0.64629386
0.63651188
0.62655429
0.61674691
0.60716
0.59792759
0.58916543
0.58097994
0.57345943
0.56667082
0.56065734
0.55543838
0.55101094
0.54735241
0.54442424
0.54217588
0.54054875
0.53947977
0.53890442
0.53875913
0.53898311
0.53951951
0.54031619
0.54132609
0.54250727
0.54382277
0.54524033
0.54673204
0.54827395
0.54984563
0.5514298
0.55301194
0.55457993
0.55612374
0.55763517
0.55910756
0.56053558
0.56191506
0.56324279
0.56451639
0.56573419
0.56689509
0.56799851
0.5690443
0.57003264
0.57096401
0.57183914
0.57265893
0.57342448
0.57413698
0.57479775
0.57540815
0.57596961
0.57648358
0.57695151
0.57737483
0.57775484
0.5780927
0.57838946
0.57864599
0.57886292
0.57904039
0.57917802
0.57927548
0.57933269
0.57934745
0.57931118
0.57921153
0.57905101
0.57885975
0.57864638
0.57830331
0.5776879
0.57706134
0.62666479
0.70522056
0.65720219
0.66093361
0.64412508
0.63392753
0.62200083
0.61066238
0.59944571
0.58867118
0.57846542
0.56897865
0.56032766
0.55260005
0.54584911
0.54009455
0.53532511
0.53150321
0.5285707
0.52645488
0.5250742
0.52434326
0.52417688
0.52449309
0.52521519
0.52627305
0.52760368
0.52915136
0.53086743
0.53270984
0.5346426
0.53663513
0.5386617
0.54070077
0.54273446
0.54474805
0.54672953
0.54866916
0.55055918
0.55239349
0.55416739
0.55587733
0.55752079
0.55909606
0.56060211
0.56203852
0.56340531
0.56470293
0.56593214
0.56709396
0.56818965
0.56922062
0.57018841
0.57109468
0.57194116
0.57272964
0.57346192
0.57413983
0.57476522
0.5753399
0.57586566
0.57634424
0.57677724
0.57716613
0.57751224
0.57781673
0.57808034
0.57830337
0.57848588
0.57862841
0.57873156
0.57879285
0.57880302
0.57875201
0.578648
0.57852109
0.57836466
0.57805864
0.57748845
0.57695334
0.61603639
0.68328536
0.63689203
0.6355249
0.61781775
0.60513392
0.59156131
0.57883151
0.56672762
0.55554645
0.54542946
0.53649737
0.52881581
0.52240328
0.51723423
0.51324729
0.51035426
0.50844946
0.50741818
0.50714378
0.50751294
0.50841948
0.50976655
0.51146773
0.51344729
0.51563979
0.51798943
0.52044904
0.52297918
0.52554709
0.5281258
0.53069328
0.53323168
0.53572666
0.53816684
0.54054332
0.54284923
0.54507944
0.54723023
0.54929905
0.5512843
0.5531852
0.55500162
0.55673395
0.55838302
0.55995002
0.56143639
0.56284384
0.56417422
0.56542953
0.56661186
0.56772339
0.56876632
0.56974289
0.57065536
0.57150597
0.57229692
0.57303039
0.57370855
0.57433353
0.57490734
0.57543196
0.57590921
0.57634083
0.57672841
0.57707327
0.57737636
0.57763815
0.57785919
0.57804068
0.57818345
0.57828451
0.57833517
0.57832941
0.57828047
0.57821392
0.57810508
0.57782782
0.57730684
0.57688142
0.60174781
0.6542683
0.60978571
0.60282576
0.58394178
0.56888515
0.55408527
0.5406626
0.52858158
0.5180584
0.50916553
0.50192002
0.49627165
0.49212099
0.4893329
0.48775166
0.48721369
0.48755767
0.48863164
0.49029731
0.49243222
0.49493024
0.49770096
0.50066846
0.50376971
0.50695294
0.510176
0.51340487
0.51661231
0.51977675
0.52288126
0.52591273
0.52886118
0.53171919
0.53448141
0.5371442
0.53970527
0.54216343
0.5445184
0.54677061
0.54892106
0.55097119
0.55292283
0.55477805
0.55653916
0.55820862
0.55978901
0.561283
0.56269331
0.56402269
0.56527389
0.56644966
0.56755271
0.56858574
0.56955139
0.57045226
0.57129086
0.57206964
0.57279102
0.57345732
0.57407076
0.57463347
0.57514746
0.57561465
0.57603681
0.57641543
0.57675162
0.57704617
0.57730015
0.57751515
0.57769175
0.57782651
0.57791223
0.57794792
0.57795073
0.57793943
0.57787343
0.577628
0.5771661
0.57684604
0.58182652
0.61582347
0.57369231
0.56103539
0.54147749
0.52448098
0.50960339
0.49691042
0.48636965
0.47802382
0.47177546
0.46746479
0.46488058
0.46378864
0.46395097
0.46514085
0.46715198
0.46980316
0.4729395
0.47643135
0.48017205
0.48407504
0.48807091
0.49210457
0.49613272
0.50012165
0.50404545
0.50788443
0.51162388
0.5152531
0.51876453
0.52215312
0.52541579
0.52855103
0.53155857
0.53443906
0.53719393
0.53982516
0.5423352
0.5447268
0.54700297
0.54916688
0.55122184
0.55317121
0.55501842
0.55676689
0.55842004
0.55998128
0.56145395
0.56284136
0.56414676
0.56537331
0.56652411
0.56760219
0.56861048
0.56955183
0.57042897
0.57124458
0.57200123
0.57270141
0.57334748
0.57394168
0.57448615
0.57498295
0.57543395
0.57584076
0.57620467
0.57652686
0.57680889
0.57705249
0.57725781
0.57742132
0.57753801
0.5776111
0.57765859
0.57769156
0.57766289
0.57746455
0.57708503
0.57682898
0.55366008
0.5654449
0.52725204
0.50880388
0.48815003
0.47266705
0.45968123
0.44979236
0.44273575
0.43826835
0.43604375
0.4356984
0.43687451
0.43924557
0.44252686
0.44647916
0.45090678
0.4556531
0.46059479
0.46563616
0.47070381
0.47574216
0.48070961
0.48557549
0.49031764
0.49492043
0.49937327
0.50366946
0.50780523
0.51177906
0.51559113
0.51924289
0.52273676
0.52607583
0.52926372
0.5323044
0.53520208
0.53796111
0.54058596
0.5430811
0.545451
0.5477001
0.54983277
0.55185332
0.55376597
0.55557482
0.55728391
0.55889715
0.56041834
0.56185119
0.56319927
0.56446606
0.56565492
0.56676911
0.56781175
0.56878589
0.56969441
0.57054014
0.57132579
0.57205393
0.57272705
0.57334748
0.57391746
0.57443911
0.57491438
0.57534494
0.57573227
0.57607789
0.57638367
0.57665129
0.5768806
0.57706869
0.57721306
0.57731941
0.57740314
0.5774678
0.57746732
0.57731654
0.57702585
0.57686825
0.5131338
0.50058825
0.46335958
0.44545751
0.42803197
0.41582775
0.40751634
0.40288205
0.40127081
0.40209653
0.40479033
0.40886511
0.41391862
0.41963248
0.42576129
0.43212004
0.43857167
0.44501623
0.45138197
0.45761832
0.46369047
0.46957526
0.47525808
0.48073062
0.4859891
0.49103305
0.49586435
0.50048654
0.50490431
0.50912313
0.51314895
0.51698804
0.5206468
0.52413166
0.52744904
0.53060523
0.53360642
0.53645864
0.53916774
0.54173939
0.54417908
0.54649211
0.54868359
0.55075846
0.55272147
0.55457722
0.55633013
0.55798445
0.55954431
0.56101365
0.5623963
0.56369591
0.56491603
0.56606007
0.56713129
0.56813284
0.56906773
0.56993886
0.57074905
0.57150095
0.57219712
0.57283997
0.57343183
0.57397486
0.57447103
0.57492208
0.57532964
0.57569547
0.57602149
0.57630918
0.57655833
0.57676708
0.57693536
0.57707006
0.57718322
0.57727352
0.57730196
0.57720724
0.577002
0.57687652
0.45132709
0.4187609
0.38906135
0.37421543
0.36337967
0.3585786
0.35801236
0.36076214
0.36583658
0.37247599
0.38009495
0.38826892
0.39669745
0.40517346
0.41355733
0.42175726
0.42971494
0.43739521
0.44477883
0.4518574
0.4586298
0.46509978
0.47127421
0.47716196
0.48277302
0.488118
0.49320771
0.49805295
0.50266431
0.50705207
0.51122614
0.51519602
0.51897081
0.52255917
0.52596934
0.5292092
0.53228621
0.53520748
0.53797978
0.54060956
0.54310295
0.54546581
0.54770373
0.54982204
0.55182584
0.55372002
0.55550926
0.55719803
0.55879062
0.56029117
0.56170362
0.56303177
0.56427925
0.56544957
0.56654607
0.56757198
0.56853036
0.5694242
0.57025634
0.57102949
0.57174627
0.57240917
0.57302056
0.57358264
0.57409742
0.57456673
0.57499231
0.57537604
0.57571975
0.57602473
0.57629093
0.57651758
0.57670604
0.57686282
0.57699647
0.57710351
0.57715423
0.57711008
0.57699424
0.57695487
0.35559194
0.32211923
0.30450853
0.30002854
0.30141044
0.30767378
0.31684104
0.32764664
0.33921712
0.35100116
0.36266309
0.37400689
0.38492489
0.39536406
0.40530479
0.41474744
0.42370405
0.43219314
0.44023646
0.44785705
0.45507804
0.46192196
0.46841037
0.47456359
0.48040071
0.48593954
0.49119665
0.49618744
0.50092623
0.50542632
0.50970008
0.51375903
0.5176139
0.52127471
0.52475086
0.52805113
0.53118378
0.53415656
0.53697679
0.53965136
0.54218682
0.54458932
0.54686474
0.54901864
0.55105632
0.55298283
0.55480299
0.55652141
0.55814247
0.5596704
0.56110921
0.56246277
0.56373477
0.56492877
0.56604815
0.56709617
0.56807593
0.56899044
0.56984258
0.5706351
0.57137061
0.57205166
0.57268064
0.57325979
0.57379119
0.57427676
0.57471838
0.57511794
0.57547722
0.57579745
0.57607905
0.57632234
0.57652929
0.57670481
0.57685374
0.57697239
0.57704247
0.57704525
0.57700268
0.57699789
0.21652173
0.21524052
0.22062232
0.23401463
0.25131258
0.26968996
0.28794286
0.30542123
0.32189609
0.33730348
0.3516685
0.3650515
0.37752614
0.38916767
0.40004779
0.41023252
0.41978153
0.42874832
0.43718061
0.4451209
0.45260709
0.45967298
0.46634879
0.47266165
0.47863592
0.4842936
0.48965457
0.49473689
0.49955701
0.50412995
0.50846947
0.51258822
0.51649787
0.52020921
0.52373226
0.52707631
0.53025005
0.5332616
0.53611856
0.53882809
0.54139692
0.5438314
0.54613753
0.54832099
0.55038721
0.5523413
0.55418815
0.55593243
0.55757859
0.55913088
0.56059334
0.56196989
0.56326423
0.56447994
0.56562043
0.56668898
0.56768869
0.56862258
0.56949354
0.57030431
0.57105753
0.57175571
0.57240125
0.57299639
0.57354327
0.57404388
0.57450019
0.57491411
0.57528733
0.57562117
0.57591658
0.57617466
0.57639754
0.57658833
0.57674925
0.57687817
0.57696765
0.57701196
0.57702208
0.57703485
0.091913551
0.1218035
0.15921148
0.19284519
0.22296392
0.24947769
0.27300641
0.29401578
0.31292171
0.33005018
0.34566399
0.35997362
0.37314988
0.3853326
0.3966374
0.40716081
0.41698411
0.42617635
0.43479662
0.44289585
0.45051822
0.45770234
0.46448209
0.4708874
0.47694485
0.48267815
0.48810854
0.49325517
0.49813533
0.50276472
0.50715766
0.51132725
0.51528551
0.51904352
0.52261152
0.52599901
0.52921483
0.53226721
0.53516387
0.53791203
0.5405185
0.54298968
0.5453316
0.54755001
0.54965031
0.55163768
0.55351701
0.55529299
0.55697006
0.55855249
0.56004435
0.56144952
0.56277175
0.56401461
0.56518153
0.56627578
0.56730048
0.56825865
0.56915318
0.56998679
0.57076209
0.57148159
0.57214764
0.57276247
0.57332822
0.57384693
0.5743206
0.57475112
0.57514014
0.57548901
0.57579896
0.57607148
0.57630852
0.57651204
0.57668301
0.57682094
0.57692496
0.57699573
0.57703677
0.57705494
0.011032668
0.2971995
0.47184607
0.51972417
0.52944215
0.52995309
0.52963072
0.53077035
0.53225154
0.53373471
0.53521312
0.53665742
0.53807806
0.53948434
0.54088712
0.5422964
0.54371363
0.54513934
0.5465733
0.5480145
0.54946151
0.55091251
0.55236551
0.55381839
0.55526897
0.55671504
0.55815443
0.55958499
0.56100461
0.56241125
0.5638029
0.56517763
0.56653351
0.56786866
0.56918123
0.57046938
0.57173129
0.57296515
0.57416914
0.57534143
0.5764802
0.57758361
0.57864982
0.57967697
0.58066321
0.58160669
0.58250557
0.58335802
0.58416225
0.58491651
0.58561911
0.58626844
0.58686298
0.5874013
0.58788209
0.58830418
0.58866655
0.58896826
0.58920859
0.58938665
0.58950124
0.58955133
0.58953606
0.58945463
0.58930532
0.58908809
0.58879825
0.5884432
0.58800288
0.58751928
0.58690101
0.58631793
0.58545481
0.58489203
0.58364295
0.58332328
0.5815164
0.58154191
0.57929435
0.57941239
0.064350345
0.38496537
0.52222954
0.54726882
0.54811809
0.54629508
0.5454406
0.54558394
0.54578851
0.54609367
0.54648473
0.54704099
0.54771758
0.54848499
0.54931478
0.55020371
0.55114508
0.55213442
0.55316635
0.55423568
0.55533768
0.55646788
0.55762207
0.55879626
0.55998666
0.56118965
0.56240177
0.56361972
0.56484031
0.56606048
0.56727728
0.56848786
0.56968944
0.57087935
0.57205495
0.5732137
0.57435308
0.57547066
0.57656401
0.57763076
0.57866858
0.57967516
0.58064821
0.58158551
0.58248483
0.58334402
0.58416095
0.58493356
0.58565985
0.5863379
0.58696589
0.5875421
0.58806494
0.58853295
0.58894481
0.58929936
0.58959562
0.58983273
0.59001004
0.59012672
0.59018167
0.59017402
0.59010305
0.5899681
0.58976773
0.58950182
0.58916654
0.58876804
0.58828928
0.58776644
0.58711973
0.5865015
0.58562448
0.58502269
0.58377785
0.58341929
0.58161025
0.58163389
0.57930758
0.5795223
0.14959854
0.46597982
0.54190185
0.55466513
0.55330256
0.55237009
0.55236096
0.55292105
0.55333637
0.55385961
0.55436332
0.55492938
0.55551581
0.55614399
0.55680547
0.55750491
0.55823838
0.55900621
0.55980687
0.56063866
0.56149976
0.56238822
0.56330193
0.56423862
0.5651959
0.56617128
0.56716217
0.56816591
0.56917977
0.570201
0.57122678
0.5722543
0.57328071
0.57430317
0.57531883
0.57632486
0.57731845
0.57829678
0.57925707
0.58019657
0.58111254
0.58200231
0.58286321
0.58369264
0.58448805
0.58524696
0.58596695
0.58664569
0.58728094
0.58787057
0.58841261
0.58890518
0.5893466
0.58973533
0.59007001
0.59034946
0.5905727
0.59073892
0.59084752
0.59089771
0.59088847
0.59081903
0.59068884
0.59049731
0.59024324
0.5899265
0.58954382
0.58910059
0.58858168
0.58801962
0.587342
0.58669084
0.58579472
0.58515947
0.58391059
0.58351934
0.5816991
0.58172205
0.57932842
0.57962178
0.23189804
0.51317311
0.55555692
0.56306196
0.56039628
0.56062738
0.56068659
0.56128502
0.56155743
0.5620097
0.56238499
0.56284068
0.56329912
0.56378941
0.564297
0.56482993
0.56538547
0.56596582
0.56657082
0.56720041
0.56785427
0.56853191
0.56923256
0.56995524
0.57069873
0.57146163
0.5722423
0.57303894
0.57384955
0.57467198
0.57550395
0.57634302
0.57718665
0.5780322
0.57887695
0.57971811
0.58055282
0.58137819
0.5821913
0.58298921
0.58376898
0.58452767
0.58526239
0.58597026
0.58664847
0.58729428
0.58790502
0.58847812
0.58901114
0.58950177
0.58994784