/*--------------------------------*- C++ -*----------------------------------*\
  =========                 |
  \\      /  F ield         | OpenFOAM: The Open Source CFD Toolbox
   \\    /   O peration     | Website:  https://openfoam.org
    \\  /    A nd           | Version:  12
     \\/     M anipulation  |
\*---------------------------------------------------------------------------*/
FoamFile
{
    format      ascii;
    class       volScalarField;
    location    "0.111";
    object      rho;
}
// * * * * * * * * * * * * * * * * * * * * * * * * * * * * * * * * * * * * * //

dimensions      [1 -3 0 0 0 0 0];

internalField   nonuniform List<scalar> 
16000
(
1.0568984
1.0896568
1.077557
1.0857712
1.081929
1.0853673
1.0843912
1.0862117
1.0863624
1.0875711
1.0882248
1.0892405
1.0901204
1.0911191
1.0921175
1.0931679
1.0942509
1.0953738
1.096535
1.0977352
1.0989746
1.1002531
1.1015705
1.1029263
1.10432
1.1057506
1.107217
1.1087178
1.1102513
1.1118156
1.1134084
1.1150272
1.1166691
1.118331
1.1200096
1.1217012
1.123402
1.125108
1.126815
1.1285188
1.1302149
1.131899
1.1335669
1.1352142
1.1368367
1.1384307
1.1399922
1.1415179
1.1430045
1.144449
1.145849
1.147202
1.1485062
1.14976
1.150962
1.1521113
1.1532071
1.154249
1.1552367
1.1561703
1.1570499
1.1578759
1.1586491
1.1593705
1.1600412
1.1606628
1.1612366
1.1617641
1.1622468
1.1626856
1.1630814
1.1634354
1.1637488
1.1640207
1.1642445
1.1644191
1.1646328
1.1642743
1.1653003
1.1634356
1.0535953
1.0868662
1.0740922
1.0829267
1.0788561
1.0825626
1.0814846
1.0834764
1.0836199
1.0849308
1.0856361
1.0867269
1.0876809
1.088754
1.0898331
1.0909647
1.092133
1.0933436
1.0945955
1.095889
1.0972241
1.0986005
1.1000179
1.1014754
1.102972
1.1045066
1.1060775
1.1076829
1.1093208
1.1109885
1.1126834
1.1144023
1.1161419
1.1178985
1.1196683
1.1214469
1.1232303
1.1250137
1.1267927
1.1285625
1.1303187
1.1320565
1.1337715
1.1354594
1.1371161
1.1387378
1.140321
1.1418624
1.1433593
1.144809
1.1462095
1.1475591
1.1488562
1.1500998
1.1512892
1.1524238
1.1535035
1.1545282
1.1554982
1.1564138
1.1572756
1.1580842
1.1588405
1.1595459
1.1602016
1.1608091
1.1613701
1.1618862
1.1623585
1.1627882
1.1631758
1.1635223
1.1638285
1.1640919
1.1643091
1.1644985
1.1646039
1.1645109
1.1651552
1.1635856
1.0505975
1.084322
1.0711787
1.0803089
1.0760957
1.0800046
1.0788974
1.0810093
1.0811945
1.0825889
1.0833684
1.0845362
1.0855763
1.0867328
1.0879028
1.0891262
1.0903903
1.0916993
1.0930523
1.0944493
1.09589
1.0973738
1.0988999
1.1004672
1.1020743
1.1037196
1.1054009
1.107116
1.1088622
1.1106364
1.1124353
1.1142551
1.116092
1.1179415
1.1197993
1.1216605
1.1235204
1.1253738
1.127216
1.1290418
1.1308464
1.1326252
1.1343735
1.1360873
1.1377626
1.1393958
1.1409838
1.1425239
1.1440136
1.1454511
1.1468349
1.1481637
1.1494368
1.1506538
1.1518146
1.1529191
1.1539679
1.1549613
1.1559
1.1567848
1.1576166
1.1583964
1.1591253
1.1598047
1.1604361
1.161021
1.1615613
1.1620585
1.1625138
1.1629281
1.1633019
1.1636359
1.16393
1.1641815
1.1643924
1.1645683
1.1646373
1.1646581
1.1650596
1.1637131
1.0479212
1.0820186
1.0684768
1.0779506
1.0736022
1.0777444
1.0766142
1.0788644
1.0791011
1.0805922
1.0814602
1.082717
1.0838579
1.085111
1.0863854
1.0877137
1.0890863
1.0905057
1.0919713
1.0934826
1.0950393
1.0966403
1.0982845
1.0999704
1.1016962
1.1034596
1.1052581
1.1070888
1.1089482
1.1108327
1.1127382
1.1146602
1.116594
1.1185346
1.1204769
1.1224154
1.1243449
1.1262597
1.1281547
1.1300246
1.1318643
1.1336693
1.135435
1.1371577
1.1388336
1.1404598
1.1420336
1.1435529
1.145016
1.1464218
1.1477694
1.1490586
1.1502892
1.1514615
1.1525762
1.1536339
1.1546356
1.1555823
1.1564752
1.1573155
1.1581042
1.1588429
1.1595327
1.1601752
1.160772
1.1613248
1.1618354
1.1623053
1.1627358
1.1631275
1.1634807
1.1637958
1.1640718
1.1643069
1.1645046
1.1646581
1.1647122
1.1647735
1.1650226
1.1638258
1.0456119
1.0800936
1.0661502
1.0759244
1.071435
1.0758507
1.0747106
1.0771049
1.0774138
1.0790091
1.0799842
1.0813398
1.0825947
1.0839552
1.0853443
1.0867874
1.0882777
1.0898168
1.0914041
1.0930391
1.0947208
1.096448
1.0982191
1.100032
1.1018843
1.1037732
1.1056952
1.1076465
1.1096231
1.1116203
1.1136332
1.1156563
1.1176842
1.1197111
1.121731
1.123738
1.1257262
1.1276898
1.1296231
1.1315209
1.1333782
1.1351905
1.1369538
1.1386646
1.14032
1.1419175
1.1434554
1.1449323
1.1463475
1.1477007
1.1489919
1.1502218
1.151391
1.1525007
1.1535521
1.1545467
1.155486
1.1563715
1.1572049
1.1579878
1.1587216
1.1594079
1.1600481
1.160644
1.1611972
1.1617094
1.1621824
1.1626177
1.1630164
1.1633791
1.1637059
1.1639964
1.1642494
1.1644637
1.1646421
1.1647703
1.1648121
1.1648832
1.1650133
1.1639491
1.0437142
1.0785651
1.0642756
1.0743551
1.0697692
1.0743975
1.0732456
1.0758048
1.0762018
1.0779067
1.079001
1.0804584
1.0818341
1.0833082
1.084819
1.0863853
1.0880027
1.0896717
1.0913917
1.0931614
1.0949797
1.0968444
1.0987534
1.1007037
1.102692
1.1047145
1.1067668
1.1088441
1.1109411
1.1130523
1.1151716
1.1172927
1.119409
1.1215141
1.1236013
1.1256641
1.1276961
1.1296914
1.1316442
1.1335495
1.1354025
1.1371994
1.1389366
1.1406115
1.142222
1.1437667
1.1452447
1.1466558
1.1480003
1.1492789
1.1504927
1.1516432
1.1527321
1.1537612
1.1547326
1.1556484
1.1565106
1.1573213
1.1580824
1.158796
1.1594638
1.1600874
1.1606686
1.161209
1.1617102
1.1621741
1.1626023
1.1629963
1.1633569
1.1636846
1.1639793
1.16424
1.1644651
1.1646541
1.1648077
1.1649083
1.164936
1.1650038
1.1650347
1.1640823
1.0422247
1.0774395
1.0628354
1.0732546
1.0685787
1.0734101
1.0723031
1.0749935
1.0754945
1.0772854
1.0785055
1.0800689
1.0815756
1.0831762
1.0848229
1.0865283
1.0882891
1.0901047
1.091974
1.0938949
1.0958654
1.0978824
1.0999429
1.1020427
1.1041774
1.106342
1.1085309
1.110738
1.1129569
1.1151807
1.1174021
1.119614
1.1218088
1.1239791
1.1261179
1.1282183
1.1302736
1.132278
1.1342261
1.1361132
1.1379354
1.1396894
1.1413729
1.1429843
1.1445226
1.1459877
1.14738
1.1487005
1.1499506
1.1511323
1.1522477
1.1532993
1.1542895
1.1552212
1.1560969
1.1569193
1.1576911
1.1584147
1.1590923
1.1597262
1.1603183
1.1608705
1.1613843
1.1618616
1.1623039
1.1627129
1.1630902
1.163437
1.1637541
1.1640417
1.1642994
1.1645257
1.1647188
1.1648784
1.1650028
1.1650735
1.1650843
1.165137
1.1650849
1.1642386
1.0410817
1.0766586
1.0617654
1.0725691
1.0677939
1.0728515
1.0717745
1.0746595
1.0751848
1.0770914
1.0784716
1.0801676
1.0818322
1.0835855
1.0853925
1.0872608
1.0891878
1.091172
1.0932113
1.0953031
1.0974439
1.0996298
1.1018562
1.1041178
1.1064087
1.1087225
1.111052
1.1133898
1.1157279
1.1180582
1.1203723
1.1226619
1.1249187
1.1271349
1.1293028
1.1314157
1.1334671
1.1354516
1.1373646
1.1392022
1.1409617
1.1426411
1.1442394
1.1457565
1.147193
1.1485501
1.1498298
1.1510344
1.1521666
1.1532296
1.1542264
1.1551606
1.1560354
1.1568543
1.1576204
1.1583369
1.1590068
1.1596328
1.1602175
1.1607631
1.1612717
1.1617451
1.162185
1.162593
1.1629707
1.1633195
1.1636407
1.1639357
1.1642048
1.1644482
1.1646648
1.1648529
1.1650107
1.1651372
1.1652289
1.1652686
1.1652605
1.1652863
1.1651661
1.1644242
1.0402806
1.0762092
1.0610497
1.0723182
1.0673571
1.0725815
1.0715938
1.0745162
1.0753554
1.0774057
1.0789766
1.0808303
1.0826779
1.0846102
1.0866027
1.088659
1.0907765
1.0929526
1.0951842
1.0974671
1.0997967
1.1021675
1.1045733
1.107007
1.1094611
1.1119273
1.1143968
1.1168605
1.1193089
1.1217326
1.1241221
1.1264682
1.1287623
1.1309962
1.1331624
1.1352545
1.1372669
1.1391952
1.141036
1.142787
1.1444471
1.1460161
1.1474948
1.1488848
1.1501885
1.1514088
1.1525491
1.1536133
1.1546053
1.1555293
1.1563895
1.15719
1.1579349
1.158628
1.159273
1.1598734
1.1604324
1.1609528
1.1614373
1.1618881
1.1623073
1.1626966
1.1630577
1.163392
1.1637008
1.1639855
1.1642472
1.1644867
1.1647046
1.1649005
1.165073
1.1652202
1.1653401
1.1654308
1.1654872
1.1654961
1.1654679
1.1654565
1.1652812
1.1646445
1.0398557
1.0761265
1.0607267
1.0724228
1.0673213
1.0728042
1.0719642
1.0750886
1.0761082
1.0783074
1.0800987
1.0821381
1.0841957
1.0863359
1.0885415
1.0908131
1.0931472
1.0955398
1.0979861
1.1004804
1.1030162
1.105586
1.1081815
1.1107935
1.1134125
1.1160279
1.1186293
1.1212057
1.1237462
1.1262402
1.1286774
1.1310484
1.1333442
1.1355573
1.1376808
1.1397096
1.1416395
1.1434678
1.1451932
1.1468155
1.1483357
1.1497558
1.1510789
1.1523084
1.1534488
1.1545045
1.1554806
1.1563822
1.1572143
1.1579821
1.1586905
1.1593443
1.1599478
1.1605054
1.161021
1.161498
1.1619398
1.1623491
1.1627286
1.1630805
1.1634067
1.1637087
1.163988
1.1642459
1.1644834
1.1647016
1.1649014
1.1650835
1.1652481
1.1653943
1.1655208
1.1656253
1.1657056
1.1657585
1.1657786
1.1657578
1.1657076
1.1656523
1.1654353
1.1649049
1.039876
1.0764825
1.0608516
1.0727364
1.0677831
1.0735554
1.0729236
1.0762054
1.0775002
1.0798757
1.0819221
1.0841815
1.0864801
1.0888603
1.0913095
1.0938257
1.0964039
1.099038
1.1017213
1.1044458
1.1072025
1.1099812
1.1127712
1.1155606
1.1183375
1.1210893
1.1238033
1.1264672
1.1290688
1.1315969
1.1340409
1.1363916
1.1386411
1.1407828
1.1428119
1.1447252
1.1465211
1.1481993
1.1497613
1.1512095
1.1525477
1.1537803
1.1549125
1.1559502
1.1568993
1.157766
1.1585566
1.1592773
1.159934
1.1605324
1.161078
1.1615759
1.1620306
1.1624466
1.1628277
1.1631774
1.1634987
1.1637945
1.1640671
1.1643184
1.1645502
1.1647638
1.1649604
1.1651409
1.1653063
1.1654573
1.1655945
1.1657183
1.1658287
1.1659245
1.1660042
1.1660654
1.1661053
1.1661196
1.1661035
1.1660546
1.1659797
1.1658767
1.1656341
1.1652101
1.0404222
1.0773491
1.0615231
1.0737106
1.0689209
1.0749338
1.0745603
1.0780209
1.0796288
1.0822088
1.0845447
1.0870626
1.0896368
1.0922923
1.0950188
1.0978111
1.1006621
1.103563
1.106504
1.109474
1.1124607
1.1154508
1.1184305
1.1213851
1.1243
1.1271606
1.1299525
1.1326622
1.1352771
1.1377861
1.1401796
1.1424498
1.1445907
1.1465985
1.1484713
1.1502091
1.1518135
1.1532879
1.1546369
1.1558659
1.1569815
1.1579907
1.1589009
1.1597197
1.1604547
1.1611132
1.1617024
1.1622293
1.1627003
1.1631213
1.163498
1.1638355
1.1641382
1.1644105
1.1646558
1.1648776
1.1650786
1.1652612
1.1654274
1.1655791
1.1657174
1.1658436
1.1659584
1.1660626
1.1661567
1.1662413
1.1663165
1.1663827
1.1664393
1.1664851
1.1665184
1.1665368
1.1665365
1.1665125
1.1664619
1.1663866
1.1662839
1.1661322
1.1658803
1.1655622
1.0414887
1.0787316
1.0627374
1.0753475
1.0707177
1.0769739
1.0769391
1.0805934
1.0825771
1.0854045
1.0880709
1.0908936
1.093785
1.096757
1.0997986
1.1029012
1.1060539
1.1092442
1.1124584
1.1156811
1.1188963
1.1220871
1.1252361
1.128326
1.1313398
1.134261
1.1370747
1.1397671
1.1423266
1.1447438
1.1470116
1.1491252
1.1510827
1.1528842
1.1545319
1.1560302
1.1573847
1.1586025
1.1596916
1.1606608
1.1615189
1.1622753
1.1629392
1.1635193
1.1640244
1.1644626
1.1648414
1.1651681
1.1654491
1.1656904
1.1658973
1.1660746
1.1662265
1.1663569
1.1664691
1.1665657
1.1666493
1.1667219
1.166785
1.1668401
1.1668881
1.1669298
1.1669657
1.1669962
1.1670215
1.1670419
1.1670573
1.1670676
1.1670721
1.1670695
1.167058
1.1670351
1.166996
1.1669354
1.1668533
1.1667534
1.1666203
1.1664211
1.1661737
1.1659604
1.0431297
1.0806825
1.0645568
1.0776141
1.0732601
1.0797694
1.080164
1.0840372
1.0864587
1.089589
1.0926343
1.0958165
1.0990743
1.1024085
1.1058052
1.1092505
1.1127288
1.1162225
1.1197129
1.1231801
1.1266037
1.1299629
1.133237
1.1364065
1.1394527
1.142359
1.1451113
1.1476978
1.1501103
1.152343
1.1543939
1.1562634
1.1579547
1.1594734
1.1608269
1.162024
1.1630749
1.1639902
1.1647811
1.1654586
1.166034
1.1665178
1.1669204
1.1672513
1.1675195
1.1677333
1.1679002
1.1680272
1.1681203
1.168185
1.1682263
1.1682483
1.1682548
1.1682491
1.1682337
1.1682111
1.1681831
1.1681512
1.1681167
1.1680804
1.1680431
1.168005
1.1679664
1.1679273
1.1678876
1.1678474
1.1678063
1.1677638
1.1677191
1.1676709
1.1676173
1.1675554
1.1674798
1.1673858
1.1672764
1.1671543
1.1669901
1.1667481
1.1665146
1.1664003
1.0454055
1.0832603
1.0670921
1.0806394
1.0766473
1.0834215
1.0843507
1.0884856
1.0914165
1.0949244
1.0984096
1.1020144
1.1056925
1.1094344
1.1132208
1.1170317
1.1208453
1.1246381
1.1283857
1.132063
1.1356451
1.1391077
1.1424281
1.1455857
1.1485629
1.1513457
1.1539238
1.1562909
1.1584447
1.1603864
1.1621205
1.1636546
1.1649982
1.1661627
1.1671608
1.1680056
1.168711
1.1692905
1.1697575
1.1701247
1.1704042
1.1706074
1.1707447
1.1708257
1.1708591
1.1708528
1.1708136
1.1707479
1.170661
1.1705577
1.1704421
1.1703179
1.1701879
1.1700548
1.1699206
1.169787
1.1696553
1.1695267
1.1694018
1.1692811
1.1691649
1.1690531
1.1689457
1.1688423
1.1687427
1.1686466
1.1685533
1.1684622
1.1683722
1.168282
1.16819
1.1680925
1.1679838
1.1678606
1.167729
1.1675872
1.1673932
1.167119
1.1669103
1.1668802
1.0483736
1.0864968
1.07047
1.0844947
1.081002
1.0880673
1.0896646
1.0941361
1.0976598
1.1016349
1.1056275
1.1097171
1.1138634
1.1180471
1.1222418
1.1264201
1.1305526
1.1346087
1.1385577
1.1423695
1.1460156
1.1494705
1.1527123
1.1557237
1.1584924
1.1610113
1.1632783
1.1652958
1.1670705
1.1686124
1.1699342
1.1710506
1.1719775
1.1727317
1.1733298
1.1737885
1.1741238
1.1743511
1.1744844
1.1745371
1.1745213
1.174448
1.1743271
1.1741673
1.1739766
1.1737617
1.1735288
1.1732831
1.173029
1.1727704
1.1725106
1.1722522
1.1719974
1.1717482
1.1715058
1.1712715
1.1710459
1.1708296
1.170623
1.1704259
1.1702384
1.1700601
1.1698905
1.1697292
1.1695756
1.169429
1.1692888
1.1691539
1.1690233
1.1688958
1.1687697
1.1686406
1.1685031
1.1683563
1.1682077
1.1680483
1.1678264
1.1675314
1.1673609
1.1674037
1.0521047
1.0904005
1.0748164
1.0893314
1.0865295
1.0939519
1.0963672
1.1012701
1.1054677
1.1099975
1.1145578
1.1191817
1.1238276
1.128465
1.133058
1.1375688
1.141959
1.1461905
1.1502274
1.1540372
1.1575926
1.1608722
1.1638613
1.1665522
1.1689433
1.1710393
1.1728499
1.1743887
1.1756728
1.1767211
1.177554
1.1781924
1.1786569
1.1789679
1.1791446
1.179205
1.179166
1.1790427
1.1788493
1.178598
1.1783002
1.1779656
1.1776029
1.1772197
1.1768224
1.1764168
1.1760076
1.1755988
1.175194
1.1747959
1.1744068
1.1740286
1.1736627
1.1733102
1.1729718
1.1726481
1.1723393
1.1720455
1.1717664
1.1715019
1.1712514
1.1710143
1.1707899
1.1705775
1.1703763
1.1701854
1.170004
1.169831
1.1696651
1.1695055
1.1693499
1.1691938
1.1690326
1.1688684
1.1687077
1.1685324
1.1682868
1.1679879
1.1678643
1.1679536
1.0567892
1.0951214
1.0803661
1.0954772
1.0935623
1.1014046
1.1047809
1.1102108
1.1151507
1.1203141
1.1254921
1.130681
1.1358294
1.1408917
1.1458183
1.1505602
1.155071
1.1593091
1.1632398
1.1668368
1.1700825
1.1729687
1.1754957
1.1776714
1.17951
1.1810305
1.1822556
1.1832103
1.1839206
1.1844126
1.184712
1.1848434
1.1848298
1.1846926
1.1844513
1.1841236
1.1837253
1.1832705
1.1827715
1.1822392
1.1816831
1.1811112
1.1805306
1.1799472
1.1793661
1.1787913
1.1782265
1.1776745
1.1771376
1.1766176
1.1761158
1.1756333
1.1751708
1.1747286
1.174307
1.1739058
1.173525
1.173164
1.1728223
1.1724994
1.1721945
1.1719066
1.171635
1.1713786
1.1711366
1.1709079
1.1706914
1.1704859
1.1702906
1.1701043
1.1699244
1.1697461
1.1695668
1.1693913
1.1692229
1.1690334
1.1687704
1.1684842
1.1684141
1.1685201
1.0627077
1.1012398
1.0875136
1.1032687
1.1024456
1.1107484
1.1152344
1.1213108
1.1270636
1.1329319
1.1387555
1.1444955
1.1500828
1.1554538
1.1605474
1.1653091
1.1696947
1.1736711
1.177218
1.1803274
1.1830028
1.1852573
1.1871117
1.1885929
1.1897314
1.1905599
1.1911119
1.1914202
1.1915165
1.1914307
1.1911901
1.19082
1.1903429
1.1897789
1.1891459
1.1884595
1.1877332
1.186979
1.1862067
1.1854251
1.1846415
1.1838621
1.1830919
1.1823351
1.1815954
1.1808754
1.1801773
1.1795028
1.1788533
1.1782294
1.1776318
1.1770608
1.1765162
1.1759981
1.1755058
1.1750391
1.1745972
1.1741794
1.1737848
1.1734126
1.1730617
1.1727311
1.1724197
1.1721264
1.1718502
1.17159
1.1713445
1.1711127
1.1708937
1.1706861
1.1704869
1.1702918
1.1701003
1.169919
1.1697461
1.1695444
1.1692714
1.169012
1.1689979
1.1690975
1.0700473
1.1092778
1.0964607
1.1129329
1.1135485
1.1224016
1.1281661
1.1350402
1.1416628
1.1482551
1.1546672
1.1608264
1.1666477
1.1720595
1.1770039
1.18144
1.1853443
1.1887106
1.1915478
1.1938773
1.1957299
1.1971433
1.198159
1.1988201
1.1991695
1.1992487
1.1990966
1.1987492
1.1982392
1.1975959
1.196845
1.1960094
1.1951089
1.1941606
1.1931791
1.1921769
1.1911648
1.1901515
1.1891447
1.1881504
1.1871737
1.1862188
1.1852891
1.184387
1.1835146
1.1826733
1.1818642
1.1810878
1.1803447
1.1796346
1.1789575
1.178313
1.1777005
1.1771193
1.1765686
1.1760475
1.175555
1.1750901
1.1746517
1.1742388
1.17385
1.1734842
1.1731402
1.1728168
1.1725129
1.1722273
1.1719587
1.1717063
1.1714691
1.1712455
1.171032
1.1708254
1.1706276
1.1704452
1.1702703
1.1700603
1.1697869
1.1695633
1.1696006
1.1696887
1.0789411
1.1191103
1.1078108
1.1250176
1.1275149
1.1370549
1.1442219
1.1519934
1.1594321
1.1666004
1.173346
1.179579
1.185222
1.1902236
1.1945578
1.1982226
1.2012361
1.2036327
1.2054581
1.2067655
1.2076114
1.2080526
1.2081446
1.2079393
1.2074847
1.2068239
1.2059954
1.2050329
1.2039659
1.2028196
1.2016157
1.2003727
1.199106
1.1978287
1.1965516
1.1952839
1.1940329
1.1928045
1.1916038
1.1904344
1.1892994
1.1882012
1.1871413
1.1861208
1.1851406
1.1842008
1.1833016
1.1824427
1.1816236
1.1808437
1.1801022
1.1793981
1.1787304
1.1780981
1.1774999
1.1769347
1.1764012
1.1758982
1.1754244
1.1749785
1.1745592
1.1741652
1.1737952
1.1734479
1.1731222
1.1728169
1.1725307
1.1722629
1.1720125
1.1717776
1.1715546
1.1713417
1.1711428
1.170963
1.170788
1.1705742
1.1703114
1.1701313
1.1702131
1.1702794
1.0901336
1.1316472
1.1224673
1.140468
1.1452937
1.1556008
1.1640995
1.172644
1.1805764
1.187872
1.194406
1.2001176
1.2049784
1.208995
1.2122013
1.2146517
1.2164142
1.2175642
1.2181789
1.2183339
1.2181002
1.2175433
1.2167215
1.2156864
1.2144828
1.2131493
1.2117187
1.2102187
1.2086725
1.2070995
1.2055157
1.2039345
1.2023665
1.2008207
1.1993039
1.1978219
1.1963791
1.1949787
1.1936233
1.1923146
1.191054
1.1898421
1.1886791
1.187565
1.1864994
1.1854818
1.1845113
1.183587
1.1827077
1.1818724
1.1810797
1.1803283
1.1796169
1.1789439
1.178308
1.1777077
1.1771416
1.1766084
1.1761065
1.1756346
1.1751913
1.1747751
1.1743849
1.1740194
1.1736771
1.173357
1.1730581
1.1727796
1.1725203
1.1722781
1.1720499
1.1718354
1.1716396
1.1714649
1.1712912
1.171078
1.1708346
1.1707031
1.1708202
1.1708496
1.1051905
1.1479862
1.1417033
1.1603511
1.1678482
1.1788061
1.188152
1.1968981
1.2045967
1.2112253
1.2167485
1.2211905
1.2246106
1.2270952
1.2287459
1.2296699
1.2299738
1.2297579
1.229114
1.2281236
1.2268576
1.2253771
1.2237336
1.2219705
1.2201235
1.2182225
1.2162918
1.2143512
1.2124168
1.2105014
1.2086155
1.2067671
1.2049626
1.2032068
1.2015035
1.1998553
1.1982639
1.1967307
1.195256
1.1938401
1.1924827
1.1911832
1.1899408
1.1887544
1.187623
1.1865452
1.1855195
1.1845445
1.1836186
1.1827402
1.1819076
1.1811193
1.1803736
1.1796689
1.1790034
1.1783757
1.1777842
1.1772273
1.1767036
1.1762116
1.1757498
1.1753168
1.1749113
1.1745321
1.1741778
1.1738473
1.1735397
1.1732542
1.1729896
1.1727435
1.1725137
1.1723013
1.1721115
1.1719433
1.1717728
1.1715663
1.1713502
1.1712651
1.1714014
1.1713948
1.1255838
1.1694227
1.1669455
1.1856824
1.1955543
1.2066249
1.2157912
1.2236493
1.2300335
1.2350105
1.2386762
1.2411682
1.2426395
1.2432454
1.2431338
1.2424387
1.2412785
1.2397545
1.2379524
1.2359433
1.2337854
1.2315265
1.2292049
1.2268515
1.224491
1.2221428
1.2198223
1.2175415
1.2153095
1.2131335
1.2110187
1.2089688
1.2069865
1.2050735
1.2032306
1.2014582
1.199756
1.1981235
1.1965598
1.1950637
1.1936338
1.1922687
1.1909666
1.189726
1.1885448
1.1874214
1.1863539
1.1853403
1.1843788
1.1834674
1.1826044
1.1817877
1.1810157
1.1802864
1.1795982
1.1789493
1.1783382
1.1777632
1.1772227
1.1767153
1.1762395
1.1757939
1.1753772
1.174988
1.1746253
1.1742878
1.1739748
1.1736854
1.1734182
1.173171
1.1729425
1.1727349
1.1725525
1.1723909
1.1722266
1.1720353
1.1718526
1.1718011
1.1719343
1.1719242
1.1539254
1.1967501
1.1992874
1.2173519
1.2275894
1.2374406
1.2450239
1.2507355
1.2547038
1.2571674
1.2583623
1.2585203
1.2578496
1.2565313
1.254718
1.2525351
1.2500845
1.2474475
1.2446887
1.2418587
1.2389972
1.2361349
1.2332955
1.230497
1.227753
1.2250738
1.2224669
1.2199375
1.2174892
1.2151244
1.2128442
1.2106491
1.2085388
1.2065125
1.2045692
1.2027073
1.2009252
1.1992211
1.1975928
1.1960385
1.1945559
1.1931427
1.1917969
1.1905162
1.1892983
1.1881411
1.1870423
1.1859998
1.1850115
1.1840752
1.1831889
1.1823507
1.1815585
1.1808105
1.1801048
1.1794397
1.1788135
1.1782246
1.1776713
1.1771522
1.1766659
1.1762109
1.1757859
1.1753898
1.1750213
1.1746794
1.1743634
1.1740722
1.1738044
1.1735582
1.1733332
1.1731318
1.1729566
1.1728012
1.1726455
1.1724747
1.1723258
1.1722968
1.1724135
1.1723919
1.1927788
1.2317717
1.2375223
1.2528155
1.2619275
1.26882
1.2731871
1.275576
1.2763476
1.275867
1.2744334
1.2722943
1.2696462
1.2666428
1.2634029
1.2600169
1.2565534
1.2530641
1.2495873
1.2461517
1.242778
1.2394814
1.2362726
1.2331589
1.230145
1.2272339
1.2244268
1.2217242
1.2191253
1.2166291
1.2142337
1.2119373
1.2097375
1.2076319
1.2056179
1.2036929
1.2018541
1.2000988
1.1984243
1.1968279
1.1953069
1.1938586
1.1924805
1.19117
1.1899245
1.1887417
1.1876192
1.1865545
1.1855454
1.1845898
1.1836854
1.1828301
1.182022
1.1812591
1.1805395
1.1798614
1.1792231
1.178623
1.1780595
1.177531
1.1770363
1.1765738
1.1761425
1.175741
1.1753682
1.1750233
1.1747055
1.1744136
1.1741463
1.1739023
1.1736818
1.1734868
1.173318
1.1731684
1.1730228
1.1728742
1.1727546
1.1727331
1.1728204
1.1728122
1.2403305
1.272829
1.2799654
1.2897436
1.2946294
1.2969517
1.2970994
1.2957216
1.2932512
1.2900333
1.2863201
1.2822975
1.2780995
1.2738227
1.2695357
1.2652872
1.2611111
1.2570309
1.2530621
1.249215
1.2454956
1.2419072
1.2384509
1.2351262
1.2319316
1.2288649
1.2259233
1.2231036
1.2204025
1.2178164
1.2153418
1.2129751
1.2107125
1.2085507
1.206486
1.2045151
1.2026346
1.2008412
1.1991318
1.1975031
1.1959523
1.1944764
1.1930724
1.1917378
1.1904698
1.1892658
1.1881232
1.1870397
1.1860129
1.1850404
1.1841202
1.1832499
1.1824277
1.1816515
1.1809194
1.1802295
1.1795803
1.17897
1.1783971
1.1778601
1.1773576
1.1768883
1.176451
1.1760445
1.1756678
1.17532
1.1750003
1.1747076
1.1744408
1.1741989
1.1739824
1.1737926
1.1736286
1.1734844
1.173349
1.1732212
1.1731271
1.1731113
1.1731666
1.1731393
1.2943571
1.3149798
1.319514
1.3218677
1.3210635
1.318407
1.3145113
1.3098657
1.3047908
1.2995038
1.2941486
1.2888199
1.2835791
1.2784656
1.2735035
1.2687071
1.2640835
1.2596353
1.2553623
1.251262
1.2473306
1.2435635
1.2399555
1.2365015
1.2331958
1.2300332
1.2270081
1.2241154
1.22135
1.2187069
1.2161814
1.213769
1.2114653
1.2092661
1.2071673
1.205165
1.2032556
1.2014354
1.1997009
1.1980489
1.1964762
1.1949796
1.1935562
1.1922031
1.1909176
1.1896969
1.1885386
1.1874401
1.1863989
1.1854129
1.1844796
1.1835971
1.1827632
1.1819759
1.1812334
1.1805337
1.1798753
1.1792565
1.1786756
1.1781314
1.1776223
1.177147
1.1767045
1.1762936
1.1759133
1.1755629
1.1752413
1.1749478
1.1746813
1.1744412
1.1742278
1.1740415
1.1738808
1.173741
1.1736157
1.1735057
1.1734277
1.1734052
1.1734269
1.1734043
1.3471779
1.3504585
1.3492227
1.3447546
1.3389178
1.3323384
1.3254795
1.3185824
1.3117932
1.3051909
1.2988182
1.2926954
1.2868293
1.2812192
1.2758593
1.2707417
1.2658569
1.2611948
1.2567453
1.2524983
1.2484444
1.2445743
1.2408791
1.2373508
1.2339816
1.230764
1.2276913
1.224757
1.221955
1.2192796
1.2167253
1.2142871
1.2119601
1.2097396
1.2076214
1.2056014
1.2036754
1.2018399
1.2000911
1.1984256
1.1968401
1.1953315
1.1938966
1.1925326
1.1912367
1.1900061
1.1888382
1.1877305
1.1866805
1.185686
1.1847447
1.1838544
1.1830131
1.1822187
1.1814694
1.1807633
1.1800988
1.1794742
1.178888
1.1783387
1.1778249
1.1773454
1.176899
1.1764846
1.1761013
1.1757482
1.1754247
1.1751297
1.1748627
1.1746232
1.1744112
1.1742262
1.1740669
1.1739302
1.1738134
1.173717
1.1736478
1.173613
1.1736058
1.173591
1.3811838
1.3736038
1.3660543
1.3577885
1.3492002
1.3407047
1.3324672
1.3245622
1.3170178
1.3098374
1.3030124
1.2965282
1.2903676
1.2845126
1.2789456
1.2736495
1.2686085
1.2638075
1.2592329
1.2548719
1.2507128
1.2467447
1.2429577
1.2393425
1.2358906
1.2325941
1.2294457
1.2264386
1.2235663
1.2208229
1.2182028
1.2157008
1.2133118
1.2110313
1.2088548
1.206778
1.2047971
1.2029081
1.2011075
1.1993918
1.1977577
1.1962019
1.1947215
1.1933134
1.1919749
1.1907032
1.1894957
1.1883499
1.1872633
1.1862337
1.1852586
1.1843361
1.1834639
1.1826401
1.1818627
1.18113
1.1804403
1.1797919
1.1791832
1.1786127
1.1780792
1.1775811
1.1771174
1.176687
1.176289
1.1759224
1.1755866
1.1752808
1.1750044
1.1747572
1.1745388
1.1743483
1.1741844
1.1740452
1.1739295
1.1738375
1.1737697
1.1737252
1.1737012
1.1736917
1.1634164
1.1681415
1.1828544
1.194817
1.200348
1.2016177
1.2016876
1.2013564
1.2013931
1.2011005
1.2008342
1.2002913
1.1996992
1.1990554
1.1983667
1.1976374
1.1968721
1.1960764
1.1952553
1.194413
1.1935533
1.1926798
1.1917958
1.1909041
1.1900073
1.1891079
1.1882081
1.1873098
1.1864149
1.1855251
1.184642
1.1837671
1.1829019
1.1820477
1.1812058
1.1803775
1.179564
1.1787665
1.1779862
1.1772243
1.1764819
1.17576
1.1750599
1.1743827
1.1737293
1.1731009
1.1724985
1.1719229
1.1713751
1.170856
1.1703662
1.1699064
1.169477
1.1690784
1.1687107
1.1683739
1.1680676
1.1677915
1.1675447
1.1673261
1.1671341
1.1669668
1.1668222
1.1666977
1.1665909
1.1664979
1.1664182
1.1663412
1.1662805
1.1661941
1.1661606
1.1660199
1.1660634
1.1657656
1.1660259
1.1653983
1.1660531
1.1649125
1.1660664
1.1640587
1.1591772
1.1702392
1.1866857
1.1950877
1.1973662
1.1972746
1.1967404
1.1964916
1.1961749
1.1958734
1.1954819
1.1950842
1.1946397
1.1941595
1.1936398
1.1930884
1.1925057
1.1918949
1.1912581
1.1905977
1.1899162
1.1892156
1.1884984
1.1877668
1.1870229
1.186269
1.1855072
1.1847395
1.183968
1.1831946
1.1824212
1.1816497
1.180882
1.1801197
1.1793646
1.1786183
1.1778824
1.1771586
1.1764483
1.1757531
1.1750744
1.1744137
1.1737723
1.1731516
1.1725529
1.1719774
1.1714264
1.1709009
1.1704019
1.1699304
1.1694872
1.169073
1.1686883
1.1683334
1.1680085
1.1677135
1.1674481
1.1672117
1.1670036
1.1668225
1.1666667
1.1665343
1.1664232
1.1663307
1.1662544
1.1661905
1.1661381
1.1660878
1.1660509
1.1659904
1.1659754
1.165861
1.1659147
1.1656506
1.1659134
1.1653208
1.1659751
1.164843
1.1660382
1.1639791
1.1597971
1.1733537
1.1851917
1.1916146
1.1925915
1.1921103
1.1916017
1.1913421
1.1910493
1.1907667
1.1904335
1.1900978
1.1897267
1.1893427
1.1889314
1.1885001
1.1880457
1.1875702
1.1870737
1.1865571
1.1860214
1.1854675
1.1848967
1.1843103
1.1837096
1.1830961
1.1824713
1.1818368
1.1811943
1.1805455
1.1798921
1.1792359
1.1785786
1.1779221
1.1772682
1.1766186
1.1759751
1.1753396
1.1747137
1.1740992
1.1734978
1.1729112
1.172341
1.1717886
1.1712558
1.1707439
1.1702542
1.169788
1.1693466
1.168931
1.168542
1.1681805
1.167847
1.1675419
1.1672654
1.1670174
1.1667975
1.1666053
1.1664397
1.1662997
1.1661833
1.1660887
1.1660135
1.1659553
1.1659115
1.1658784
1.1658549
1.1658324
1.1658206
1.1657863
1.1657915
1.1657023
1.1657693
1.1655355
1.1658017
1.1652419
1.1658975
1.1647749
1.166007
1.1639034
1.1575671
1.1720707
1.1828455
1.1875961
1.1874309
1.1870417
1.1865965
1.186398
1.1860813
1.1858297
1.1855166
1.185233
1.1849173
1.1846052
1.1842725
1.1839311
1.1835744
1.1832046
1.1828204
1.1824216
1.1820081
1.18158
1.1811374
1.1806808
1.1802105
1.1797274
1.1792322
1.178726
1.1782099
1.1776851
1.177153
1.176615
1.1760727
1.1755277
1.1749816
1.1744362
1.1738933
1.1733547
1.1728221
1.1722974
1.1717825
1.171279
1.1707889
1.1703137
1.1698553
1.1694151
1.1689947
1.1685956
1.1682189
1.167866
1.1675377
1.167235
1.1669584
1.1667085
1.1664853
1.1662888
1.1661188
1.1659745
1.165855
1.1657592
1.165685
1.1656307
1.1655938
1.1655718
1.1655622
1.1655614
1.165568
1.1655743
1.1655887
1.1655808
1.1656076
1.165543
1.1656254
1.1654195
1.1656916
1.1651621
1.165822
1.1647086
1.1659732
1.163832
1.151959
1.1684888
1.1784256
1.181995
1.1814489
1.1813622
1.1809996
1.1809401
1.1806974
1.1805633
1.1803406
1.1801655
1.1799471
1.1797418
1.179514
1.1792815
1.1790345
1.1787769
1.1785065
1.1782234
1.1779272
1.1776178
1.1772953
1.1769596
1.1766109
1.1762498
1.1758765
1.1754918
1.1750964
1.1746912
1.1742771
1.1738555
1.1734274
1.1729942
1.1725575
1.1721188
1.1716797
1.1712419
1.1708073
1.1703776
1.1699546
1.1695403
1.1691363
1.1687445
1.1683668
1.1680046
1.1676598
1.1673337
1.1670278
1.1667433
1.1664813
1.1662427
1.1660281
1.165838
1.1656726
1.1655318
1.1654154
1.1653226
1.1652524
1.1652037
1.1651745
1.1651627
1.1651661
1.1651822
1.1652083
1.1652411
1.165279
1.165315
1.1653563
1.1653753
1.1654246
1.1653847
1.1654836
1.1653042
1.1655849
1.1650825
1.1657481
1.1646442
1.1659377
1.1637647
1.1459349
1.1649302
1.1734799
1.1764077
1.1757066
1.1758787
1.1755604
1.1756394
1.1754613
1.1754396
1.1752983
1.1752253
1.1750965
1.1749896
1.1748569
1.1747229
1.1745739
1.174416
1.1742467
1.1740662
1.1738744
1.1736709
1.1734558
1.1732289
1.1729902
1.17274
1.1724783
1.1722057
1.1719224
1.1716291
1.1713266
1.1710156
1.1706972
1.1703725
1.1700427
1.1697091
1.1693734
1.1690369
1.1687014
1.1683685
1.1680401
1.1677179
1.1674036
1.1670992
1.1668063
1.1665266
1.1662619
1.1660136
1.1657831
1.1655717
1.1653805
1.1652103
1.165062
1.1649358
1.1648321
1.1647506
1.1646911
1.1646529
1.164635
1.1646359
1.1646539
1.1646868
1.1647323
1.164788
1.1648512
1.1649188
1.164989
1.1650555
1.1651244
1.1651706
1.1652429
1.1652282
1.1653441
1.1651903
1.1654805
1.1650039
1.1656759
1.1645819
1.1659011
1.163701
1.140701
1.1615483
1.1685922
1.1712147
1.170408
1.1707841
1.1704733
1.1706634
1.1705242
1.1705914
1.1705126
1.170527
1.170473
1.1704443
1.1703854
1.1703308
1.1702626
1.1701887
1.1701055
1.1700134
1.169912
1.169801
1.16968
1.169549
1.1694077
1.1692561
1.1690943
1.1689225
1.1687409
1.1685498
1.1683499
1.1681416
1.1679259
1.1677035
1.1674755
1.167243
1.1670074
1.1667699
1.1665322
1.1662956
1.1660619
1.1658328
1.1656098
1.1653947
1.1651891
1.1649948
1.1648133
1.1646461
1.1644945
1.1643598
1.164243
1.1641449
1.1640663
1.1640075
1.1639687
1.1639497
1.1639501
1.1639692
1.1640059
1.1640588
1.164126
1.1642053
1.1642945
1.1643912
1.1644927
1.1645959
1.1646992
1.1647968
1.1648938
1.1649677
1.165063
1.165074
1.1652073
1.1650785
1.1653783
1.1649269
1.1656054
1.1645218
1.1658642
1.1636409
1.1358297
1.1584978
1.1640044