/*--------------------------------*- C++ -*----------------------------------*\
  =========                 |
  \\      /  F ield         | OpenFOAM: The Open Source CFD Toolbox
   \\    /   O peration     | Website:  https://openfoam.org
    \\  /    A nd           | Version:  12
     \\/     M anipulation  |
\*---------------------------------------------------------------------------*/
FoamFile
{
    format      ascii;
    class       volScalarField;
    location    "0.105";
    object      omega;
}
// * * * * * * * * * * * * * * * * * * * * * * * * * * * * * * * * * * * * * //

dimensions      [0 0 -1 0 0 0 0];

internalField   nonuniform List<scalar> 
16000
(
1090.9873
2194.0064
1068.642
643.99982
454.29522
315.96005
239.74017
181.00338
145.82484
118.07078
100.3367
85.882212
75.175101
66.225455
58.924221
52.771704
47.577884
43.147739
39.340943
36.045468
33.177271
30.665423
28.451557
26.489146
24.740682
23.176987
21.773898
20.512752
19.377734
18.354411
17.429722
16.593362
15.83712
15.154049
14.538217
13.984114
13.486551
13.040635
12.642271
12.288011
11.973976
11.696085
11.451368
11.237129
11.050306
10.887778
10.747122
10.626041
10.52233
10.433897
10.358869
10.295605
10.242571
10.198415
10.161958
10.132298
10.108831
10.091309
10.080045
10.075722
10.076265
10.076431
10.076065
10.075453
10.07453
10.073324
10.071868
10.070189
10.06827
10.066009
10.063212
10.059534
10.05423
10.046259
10.03736
10.029011
10.021614
10.022388
10.017136
10.032284
1132.7356
2185.197
1062.0272
644.09492
454.42481
318.80589
240.79538
182.78615
146.649
119.09266
100.87386
86.441026
75.532018
66.535125
59.147964
52.945403
47.704824
43.239932
39.405897
36.088776
33.203755
30.679627
28.457069
26.488846
24.736413
23.170219
21.765401
20.502946
19.367117
18.343727
17.419452
16.583628
15.827901
15.145211
14.52966
13.975804
13.478566
13.032991
12.634796
12.28065
11.966972
11.68946
11.444988
11.230978
11.044546
10.882422
10.742139
10.621419
10.518079
10.430027
10.355354
10.292431
10.239723
10.195877
10.159688
10.130214
10.106812
10.089132
10.077239
10.071725
10.071807
10.07196
10.071529
10.070864
10.069898
10.068651
10.067148
10.065415
10.06343
10.061078
10.058147
10.054307
10.048922
10.041014
10.032547
10.024498
10.018137
10.016919
10.017353
10.033053
1172.8955
2186.6298
1049.9067
640.5463
451.06478
319.04151
239.69832
182.97086
146.20328
119.24688
100.71984
86.450797
75.428443
66.436461
59.016431
52.802315
47.550952
43.080917
39.245719
35.929699
33.047652
30.528495
28.312343
26.351729
24.607317
23.049475
21.652878
20.398235
19.269837
18.253852
17.336892
16.508026
15.75883
15.082148
14.472129
13.923376
13.430948
12.989936
12.595877
12.245417
11.935353
11.661268
11.419854
11.208557
11.024746
10.865042
10.726934
10.60816
10.506575
10.420114
10.346846
10.285167
10.233552
10.190671
10.155317
10.126527
10.10364
10.086285
10.074396
10.068275
10.067763
10.067823
10.06728
10.06651
10.065453
10.06412
10.062531
10.060705
10.058618
10.056143
10.053044
10.048984
10.043434
10.035556
10.02755
10.020063
10.014289
10.012472
10.015689
10.031024
1211.259
2194.5884
1040.343
637.13003
447.30398
319.07917
238.30692
182.99638
145.61749
119.30168
100.51472
86.399268
75.28401
66.290933
58.844867
52.62089
47.36196
42.889171
39.055238
35.742604
32.865536
30.353225
28.145174
26.193825
24.458972
22.91095
21.523996
20.278529
19.158772
18.151299
17.242736
16.421868
15.680205
15.010477
14.406879
13.864046
13.377164
12.941428
12.552225
12.206041
11.900117
11.629981
11.392137
11.183951
11.003118
10.846169
10.710533
10.593957
10.494333
10.409644
10.337928
10.277617
10.227191
10.185351
10.150897
10.122847
10.100516
10.083514
10.071716
10.065276
10.06409
10.063999
10.063306
10.062393
10.061205
10.059748
10.058036
10.056081
10.053853
10.051223
10.047932
10.043627
10.037886
10.030061
10.022579
10.015711
10.010368
10.008551
10.013732
10.026163
1247.649
2212.7549
1031.9791
633.40702
442.78794
318.37585
236.23496
182.53606
144.65469
119.0788
100.122
86.171563
75.000968
66.013651
58.558735
52.335818
47.080209
42.613649
38.788997
35.486905
32.62104
30.12109
27.925991
25.988289
24.266976
22.732427
21.358513
20.125407
19.017168
18.020805
17.123092
16.312522
15.580577
14.919852
14.324599
13.789469
13.309756
12.88081
12.497955
12.157356
11.856729
11.591627
11.358404
11.154208
10.977127
10.823639
10.6911
10.577269
10.480061
10.397544
10.327717
10.269057
10.220056
10.179448
10.146056
10.118887
10.097238
10.080704
10.069124
10.062537
10.06079
10.060484
10.059604
10.058508
10.05715
10.055531
10.053659
10.05154
10.049138
10.046318
10.042812
10.038237
10.032264
10.024628
10.017716
10.011484
10.006576
10.00513
10.011536
10.021505
1281.9217
2238.5211
1027.7478
630.42476
438.78015
317.04577
233.68457
181.66844
143.41786
118.61669
99.586266
85.79007
74.598872
65.621915
58.172568
51.960324
46.717216
42.264582
38.455968
35.170549
32.321228
29.838408
27.660485
25.740136
24.035862
22.518019
21.16016
19.942279
18.848172
17.865273
16.980643
16.182468
15.46224
14.812392
14.227243
13.701454
13.230402
12.809603
12.434453
12.100676
11.806385
11.547261
11.319607
11.120189
10.94753
10.798111
10.669206
10.558591
10.464179
10.384166
10.316504
10.259727
10.212338
10.173113
10.140908
10.114728
10.093854
10.077868
10.066593
10.059986
10.057812
10.057237
10.056137
10.054823
10.053259
10.051444
10.04938
10.047065
10.044455
10.041412
10.03767
10.032818
10.026557
10.019303
10.013005
10.007429
10.003005
10.001971
10.008839
10.017084
1314.0333
2269.4918
1027.7089
627.60223
434.84587
315.07939
231.03046
180.42953
141.99908
117.91801
98.916336
85.253536
74.073924
65.113586
57.683151
51.491423
46.269894
41.838997
38.05306
34.79055
31.96327
29.502522
27.346282
25.446692
23.763152
22.265469
20.926888
19.727309
18.650176
17.683299
16.814174
16.030664
15.324317
14.687372
14.114226
13.599543
13.138768
12.727555
12.361518
12.03604
11.749185
11.496984
11.275867
11.082064
10.914495
10.769745
10.645002
10.538066
10.446814
10.369622
10.304385
10.249706
10.204104
10.1664
10.135493
10.1104
10.090386
10.07502
10.06412
10.057595
10.055118
10.054229
10.052877
10.051314
10.049513
10.047471
10.045185
10.042645
10.039799
10.036504
10.0325
10.027388
10.020796
10.014161
10.008511
10.003613
9.9997359
9.9991262
10.005874
10.013031
1344.0943
2303.1
1029.2148
624.46784
430.97956
312.4668
228.39324
178.95844
140.49243
117.00497
98.129005
84.570428
73.427231
64.490685
57.09056
50.928533
45.737113
41.335669
37.578158
34.344703
31.545034
29.11136
26.981674
25.104344
23.445375
21.971539
20.65571
19.477789
18.420775
17.472748
16.621815
15.855484
15.165415
14.543616
13.984565
13.482933
13.03422
12.634178
12.278691
11.963742
11.685472
11.441119
11.227479
11.040242
10.878397
10.738869
10.618789
10.515964
10.428196
10.354104
10.291516
10.23912
10.195455
10.159384
10.129866
10.105937
10.086853
10.072167
10.061692
10.055326
10.052657
10.051418
10.049786
10.04795
10.045886
10.04359
10.041056
10.038266
10.035159
10.031587
10.027294
10.021953
10.015213
10.009254
10.00428
10.000083
9.9968076
9.9965756
10.003003
10.009461
1372.2001
2337.1249
1027.6284
620.56013
426.20841
309.15425
224.87068
177.09613
138.65642
115.90742
97.220037
83.739841
72.651792
63.748484
56.389755
50.265898
45.11315
40.749451
37.023184
33.824879
31.058729
28.657478
26.560096
24.71385
23.08386
21.638001
20.348683
19.195954
18.162344
17.236058
16.406004
15.65934
14.987911
14.383439
13.840497
13.353763
12.918797
12.53144
12.187639
11.883358
11.614993
11.379494
11.174262
10.995075
10.839581
10.705775
10.590894
10.492575
10.408582
10.337826
10.278073
10.22811
10.1865
10.15215
10.124085
10.101378
10.083279
10.069321
10.059307
10.053147
10.050375
10.048761
10.046828
10.044698
10.042351
10.039778
10.036973
10.033913
10.030525
10.026658
10.022055
10.016483
10.009929
10.004639
10.000355
9.9968764
9.9942611
9.9943416
10.000248
10.006395
1398.4446
2369.9177
1019.0616
615.56696
419.72535
305.40075
220.51685
174.76234
136.76616
114.62852
96.17909
82.756461
71.739527
62.878943
55.57264
49.490583
44.38404
40.066922
36.386477
33.231895
30.506859
28.144454
26.084977
24.274243
22.677925
21.264316
20.005435
18.881608
17.874886
16.973403
16.166986
15.442593
14.792276
14.207408
13.682665
13.212728
12.793212
12.420051
12.089354
11.797146
11.539741
11.31395
11.117698
10.946466
10.798034
10.670418
10.561606
10.468156
10.38825
10.321016
10.264249
10.216827
10.177359
10.144788
10.118215
10.096763
10.079685
10.06649
10.056962
10.051028
10.048217
10.046212
10.043959
10.041521
10.038878
10.036013
10.032918
10.029568
10.025883
10.021712
10.0168
10.010954
10.004977
10.000366
9.9967711
9.9940127
9.9921148
9.9924821
9.9977379
10.003404
1422.9432
2400.7672
1010.148
609.50425
411.59342
301.24989
215.91003
172.23232
134.77769
113.16856
94.99331
81.613163
70.678724
61.861447
54.616584
48.597637
43.551095
39.292055
35.666057
32.563796
29.887473
27.570554
25.555099
23.785603
22.227903
20.850981
19.626676
18.535648
17.559497
16.686084
15.905845
15.206382
14.579716
14.016774
13.512341
13.061098
12.65872
12.30121
11.984852
11.705763
11.460346
11.245203
11.058641
10.896103
10.755213
10.633955
10.530878
10.442658
10.367429
10.303856
10.250234
10.20543
10.168155
10.137391
10.11232
10.092131
10.076089
10.063684
10.054658
10.048949
10.046125
10.043725
10.04114
10.038382
10.035433
10.032267
10.028869
10.025216
10.02122
10.016734
10.011557
10.005503
10.000396
9.9964754
9.9935571
9.991495
9.9903462
9.9910904
9.995601
10.000611
1445.8203
2430.6951
996.73195
601.90037
402.06846
296.69106
211.13011
169.44768
132.76379
111.53338
93.635586
80.279566
69.431554
60.68948
53.52509
47.583655
42.610508
38.421341
34.860206
31.819474
29.200221
26.935824
24.97066
23.248267
21.734545
20.398571
19.213199
18.159071
17.217355
16.375629
15.622822
14.950982
14.35057
13.811941
13.329978
12.899348
12.515805
12.175397
11.874619
11.609701
11.377174
11.174219
10.997847
10.844419
10.71152
10.597002
10.499891
10.416937
10.346065
10.286287
10.236161
10.194062
10.159011
10.130056
10.106467
10.087523
10.072509
10.060903
10.052399
10.046896
10.044045
10.041257
10.038329
10.035244
10.031985
10.028514
10.024805
10.020838
10.016526
10.011714
10.006314
10.000549
9.99621
9.9929937
9.9907392
9.9893259
9.988848
9.989989
9.9939293
9.9985032
1467.386
2458.8178
979.39699
593.40039
392.04335
291.72361
206.28039
166.46515
130.69836
109.70102
92.040765
78.738896
68.003007
59.356911
52.291554
46.444763
41.559305
37.452979
33.967761
30.998139
28.444836
26.240654
24.331886
22.662839
21.199055
19.90662
18.764676
17.751755
16.848451
16.042588
15.323054
14.681467
14.109749
13.597654
13.140101
12.731726
12.368416
12.046227
11.761909
11.511897
11.292632
11.101214
10.935544
10.791619
10.667071
10.560023
10.468872
10.391309
10.325027
10.26894
10.221923
10.182807
10.150027
10.122872
10.100722
10.082977
10.068961
10.058145
10.050181
10.04487
10.041924
10.038766
10.03549
10.032073
10.0285
10.024725
10.020704
10.016414
10.011789
10.006676
10.001022
9.9960353
9.9924479
9.9899331
9.9883325
9.9875272
9.9876308
9.9891558
9.9927299
9.9968733
1487.8753
2481.3791
957.90141
584.33988
381.57281
286.40084
201.44637
163.29166
128.51014
107.57617
90.192964
76.980191
66.380155
57.855368
50.909746
45.176095
40.394272
36.384561
32.98758
30.098812
27.621111
25.485807
23.637312
22.027966
20.620928
19.381559
18.288157
17.321096
16.460371
15.693891
15.010357
14.401574
13.860381
13.376727
12.945253
12.560486
12.218547
11.915458
11.648205
11.413583
11.208121
11.028791
10.873867
10.739515
10.623261
10.523046
10.437872
10.365656
10.304374
10.252099
10.208072
10.171525
10.141241
10.11591
10.095148
10.078534
10.065462
10.055398
10.047989
10.042889
10.039721
10.036215
10.032594
10.028841
10.024949
10.020871
10.016543
10.011928
10.006989
10.001655
9.9960813
9.9919858
9.9891218
9.9872921
9.9863336
9.986112
9.9867577
9.9886569
9.9920664
9.99598
1507.5461
2493.6689
932.29381
574.63321
370.72578
280.75474
196.7025
159.84789
126.0789
105.16598
88.064739
74.98555
64.550389
56.174605
49.372192
43.772468
39.112372
35.213705
31.918929
29.118287
26.726116
24.669626
22.895405
21.353545
20.009981
18.829194
17.789535
16.872385
16.058107
15.334457
14.689925
14.116241
13.605608
13.151762
12.747633
12.387445
12.067693
11.784344
11.534527
11.315531
11.124005
10.957658
10.813399
10.688524
10.580664
10.487474
10.408068
10.340818
10.283918
10.235852
10.194833
10.160654
10.132486
10.109184
10.089797
10.074228
10.062035
10.052656
10.045783
10.040963
10.037407
10.033573
10.029614
10.025526
10.021308
10.016926
10.012302
10.007375
10.002134
9.9966126
9.9917531
9.9884163
9.9862407
9.9850618
9.9847238
9.9850482
9.9861295
9.9883845
9.9918634
9.9956816
1526.6187
2485.1423
902.96111
564.32629
359.54898
274.7915
192.042
156.00635
123.32737
102.42538
85.626213
72.73212
62.497547
54.303416
47.671413
42.228279
37.710823
33.934407
30.757334
28.065333
25.772336
23.805593
22.114222
20.64786
19.374183
18.25815
17.277287
16.41196
15.647225
14.969092
14.365694
13.829359
13.352538
12.929036
12.552853
12.217601
11.920264
11.656833
11.424363
11.220869
11.042726
10.887989
10.754295
10.638669
10.53905
10.453407
10.379701
10.317234
10.264319
10.219934
10.182259
10.150376
10.12408
10.102518
10.084675
10.070092
10.058701
10.04993
10.043502
10.038958
10.034968
10.030816
10.026532
10.022115
10.017566
10.012871
10.007962
10.002748
9.9972778
9.9918691
9.9879767
9.985351
9.9838103
9.9832291
9.9834688
9.9843075
9.9857494
9.9883036
9.9920267
9.9958813
1545.2602
2435.639
871.38163
553.4531
348.09901
268.4236
187.15447
151.7389
120.14216
99.306452
82.843552
70.195105
60.20565
52.232101
45.80075
40.533979
36.182102
32.558341
29.519167
26.951089
24.771307
22.905812
21.30651
19.923508
18.723316
17.676837
16.759503
15.951927
15.238873
14.608101
14.047077
13.548669
13.105663
12.712355
12.363775
12.053247
11.778019
11.534366
11.319
11.130656
10.965686
10.822154
10.698465
10.591622
10.499534
10.420535
10.352929
10.295084
10.245884
10.20482
10.17008
10.140743
10.116155
10.09613
10.079632
10.06614
10.055476
10.047253
10.041144
10.03676
10.032395
10.027932
10.023337
10.018603
10.013725
10.008704
10.003516
9.9980693
9.9924218
9.9878589
9.9847462
9.9827918
9.9818307
9.9817805
9.982527
9.9838348
9.9856119
9.9883968
9.9924137
9.9964169
1563.3331
2400.3277
839.53231
541.95584
336.3783
261.10965
182.11338
146.94215
116.40947
95.751042
79.681517
67.350283
57.65923
49.952312
43.747698
38.701242
34.547826
31.100997
28.22112
25.794188
23.740955
21.987877
20.485776
19.193274
18.074821
17.101545
16.250185
15.50178
14.841175
14.257941
13.739439
13.278844
12.869395
12.505479
12.182311
11.895756
11.641817
11.417384
11.219596
11.045728
10.893493
10.7606
10.646222
10.547682
10.462709
10.389756
10.32734
10.274091
10.228764
10.190701
10.158625
10.13153
10.108779
10.09009
10.074817
10.062343
10.052354
10.044654
10.038778
10.034374
10.029688
10.02492
10.020025
10.014993
10.009804
10.004453
9.9989675
9.9934135
9.9880534
9.9844362
9.9820539
9.9807177
9.9802865
9.9807001
9.9818602
9.983552
9.9856595
9.9886438
9.992742
9.9969635
1580.3799
2358.0223
806.76216
529.50068
324.28342
252.61542
176.72513
141.50064
112.02051
91.69781
76.106363
64.176696
54.839507
47.449584
41.537724
36.75267
32.832149
29.588981
26.888686
24.619012
22.7004
21.069699
19.675579
18.47767
17.443145
16.544635
15.759832
15.070732
14.461992
13.92374
13.446677
13.022697
12.64566
12.310501
12.012896
11.748917
11.515024
11.308191
11.125854
10.965724
10.825726
10.703811
10.59804
10.507144
10.428781
10.361466
10.303835
10.25469
10.212955
10.177654
10.14799
10.122972
10.101954
10.084439
10.070212
10.058588
10.049305
10.042114
10.036484
10.031813
10.02686
10.021799
10.016612
10.011295
10.005826
10.000182
9.9943957
9.9887098
9.9844489
9.9815704
9.9798521
9.9790805
9.9791345
9.9799568
9.9814451
9.9834074
9.9857683
9.9889541
9.99308
9.9974412
1595.7375
2290.1622
772.33639
515.59195
311.04616
242.79132
170.67492
135.27428
106.87437
87.087595
72.092051
60.655029
51.763963
44.772056
39.207465
34.727309
31.073416
28.057531
25.549935
23.450777
21.680616
20.177903
18.894673
17.793023
16.842471
16.017733
15.297607
14.664482
14.106544
13.612892
13.175103
12.785834
12.439297
12.130848
11.856737
11.613667
11.398433
11.208103
11.040274
10.892701
10.763534
10.651156
10.554165
10.470188
10.397852
10.33569
10.282411
10.236898
10.198189
10.165732
10.138188
10.114988
10.095496
10.079227
10.065918
10.055021
10.046301
10.039543
10.034154
10.029123
10.023931
10.018606
10.013143
10.007543
10.001809
9.9959383
9.9900425
9.984895
9.9814317
9.9792273
9.9780803
9.9778092
9.9783023
9.979489
9.9812456
9.9833964
9.98593
9.989277
9.993408
9.9978142
1608.3079
2221.0855
735.35425
499.64668
297.02637
231.4408
163.49208
128.09528
100.89383
81.890314
67.632781
56.82657
48.494913
41.979159
36.81692
32.678474
29.318203
26.544011
24.245703
22.324252
20.705806
19.332881
18.160482
17.153436
16.284012
15.529632
14.869824
14.291159
13.780625
13.328258
12.926907
12.569791
12.251571
11.967877
11.715267
11.491029
11.292689
11.117284
10.962716
10.826805
10.70769
10.604413
10.514581
10.436915
10.369974
10.31246
10.263149
10.22101
10.185182
10.154923
10.129295
10.107693
10.089559
10.074422
10.06194
10.051681
10.043404
10.03693
10.031687
10.026358
10.020939
10.015382
10.009677
10.003815
9.9978234
9.9917869
9.9859682
9.9818128
9.9789959
9.9773523
9.9766811
9.9768317
9.9777062
9.9792143
9.981203
9.983502
9.9861605
9.9896187
9.9937478
9.9980861
1615.2849
2137.3755
695.57874
479.96771
281.95218
218.24436
154.70153
119.82561
94.078554
76.15374
62.81313
52.800253
45.12997
39.157974
34.440686
30.667858
27.612392
25.095063
23.009297
21.266326
19.79781
18.551362
17.485935
16.569313
15.776112
15.086223
14.483401
13.954026
13.487065
13.072322
12.703912
12.375841
12.083289
11.822223
11.589282
11.381845
11.198535
11.036337
10.89347
10.768096
10.658405
10.562662
10.479435
10.40736
10.345179
10.291755
10.245985
10.206751
10.173576
10.145305
10.121337
10.101097
10.08412
10.070018
10.058271
10.048593
10.040713
10.034401
10.029159
10.023585
10.017944
10.012174
10.006272
10.000207
9.9939874
9.9878285
9.9828292
9.9793369
9.9770893
9.9759014
9.9756112
9.9760972
9.9772782
9.9790507
9.9812403
9.9836811
9.9864533
9.9899644
9.9940611
9.998261
1611.4912
2034.6606
652.4959
454.25728
265.64438
202.85004
144.06216
110.48993
86.580304
70.007016
57.820381
48.724857
41.789478
36.404541
32.15652
28.759716
26.009589
23.747813
21.870258
20.29911
18.973007
17.845318
16.87955
16.046961
15.324772
14.694914
14.142969
13.657131
13.227622
12.846523
12.507288
12.204826
11.934868
11.693909
11.478979
11.287529
11.11737
10.966688
10.833738
10.716967
10.614896
10.526007
10.448616
10.381538
10.323549
10.273619
10.23108
10.194571
10.163385
10.136873
10.114381
10.095313
10.07939
10.066019
10.054898
10.045724
10.038261
10.032106
10.026642
10.020893
10.015044
10.009062
10.002965
9.9967709
9.9905351
9.9845361
9.9803528
9.9774274
9.975646
9.9748298
9.9748408
9.9755822
9.9769855
9.9789446
9.981284
9.983857
9.9867555
9.9903044
9.9943477
9.9984051
1590.7736
1903.2605
606.31433
421.83972
248.10835
185.0487
131.79696
100.41569
78.750737
63.777785
52.877119
44.766787
38.59732
33.812363
30.036153
27.010273
24.553366
22.534373
20.852085
19.439768
18.243782
17.223474
16.347099
15.589537
14.930656
14.354267
13.847517
13.400487
13.004497
12.652577
12.33871
12.058396
11.807819
11.583859
11.383891
11.205662
11.047192
10.906697
10.782554
10.673262
10.577513
10.494479
10.422146
10.359444
10.305259
10.258578
10.218489
10.18416
10.15473
10.129638
10.108474
10.090488
10.075291
10.062531
10.051897
10.043149
10.035923
10.029891
10.024231
10.018352
10.012352
10.006195
9.9998871
9.9934727
9.9871893
9.9820765
9.9784339
9.9759968
9.9745966
9.9740833
9.9743349
9.9752709
9.9768234
9.9788872
9.9813052
9.9839699
9.9869822
9.9905646
9.9945468
9.9984985
1544.2855
1743.0542
558.19753
383.50817
230.24671
165.11163
118.59339
90.230078
71.049054
57.791695
48.208649
41.086329
35.670305
31.466015
28.140642
25.4662
23.283567
21.479757
19.972775
18.701298
17.619654
16.692856
15.89368
15.200581
14.596203
14.06624
13.598191
13.184088
12.816216
12.489109
12.196764
11.93524
11.701115
11.491592
11.304304
11.137221
10.988557
10.856701
10.740172
10.637592
10.547667
10.469174
10.400932
10.341652
10.290359
10.246084
10.208014
10.175595
10.147767
10.12399
10.103725
10.086522
10.071959
10.059668
10.049449
10.040913
10.033833
10.027836
10.022001
10.016006
10.009899
10.003657
9.9972838
9.9908396
9.9846436
9.9801952
9.9770066
9.9749567
9.9738647
9.9735959
9.9740379
9.9751237
9.9767753
9.9788851
9.9813205
9.9840202
9.9870996
9.9907077
9.9946472
9.9984742
1463.8809
1580.8205
509.13629
344.01157
206.27145
145.79828
105.39431
80.62383
63.932769
52.362787
44.03038
37.838405
33.118837
29.441163
26.518225
24.154647
22.214394
20.600835
19.244138
18.09309
17.108466
16.260409
15.525532
14.88529
14.324742
13.831713
13.396178
13.009836
12.665949
12.358909
12.084068
11.837772
11.61695
11.419066
11.241973
11.083817
10.942951
10.817877
10.707202
10.609613
10.523882
10.448927
10.384039
10.327606
10.278769
10.236612
10.200324
10.169168
10.142479
10.119611
10.100082
10.083461
10.069461
10.057588
10.047584
10.039198
10.032175
10.026144
10.020135
10.013998
10.00775
10.001383
9.9949177
9.9885037
9.9828358
9.9788146
9.9759866
9.9742299
9.9733752
9.9732946
9.9738861
9.9750795
9.9767986
9.9789308
9.9813642
9.9840636
9.987141
9.9907099
9.9946063
9.9984141
1351.4001
1492.3612
463.00233
296.64233
182.41437
127.65728
93.461902
72.11842
57.775337
47.783918
40.559879
35.174084
31.046409
27.807954
25.215607
23.104673
21.360477
19.901016
18.665452
17.611448
16.705212
15.921001
15.238495
14.641446
14.116682
13.653435
13.242798
12.87744
12.551414
12.260239
11.998988
11.764469
11.553868
11.364879
11.195539
11.04415
10.909204
10.789327
10.683238
10.589718
10.507597
10.435725
10.372978
10.318425
10.271117
10.23021
10.194932
10.16462
10.138806
10.116654
10.097728
10.081586
10.067855
10.056214
10.046378
10.038093
10.031105
10.025035
10.018894
10.01263
10.006249
9.9997539
9.993194
9.9868059
9.9816188
9.9778884
9.975315
9.9737595
9.973094
9.9730882
9.9738317
9.9750839
9.9768483
9.9789999
9.9814532
9.9841821
9.9872614
9.9907544
9.9945425
9.9983129
1218.4025
1250.5873
422.82152
254.37769
160.22648
112.52759
83.588588
65.250018
52.908479
44.254578
37.950194
33.207069
29.53826
26.633756
24.28877
22.363962
20.761852
19.412574
18.264925
17.280577
16.430404
15.691737
15.046626
14.480576
13.981686
13.540056
13.147645
12.797697
12.484641
12.203874
11.951628
11.724761
11.520687
11.337242
11.172588
11.02513
10.893448
10.776243
10.672307
10.580508
10.499824
10.429524
10.36805
10.314565
10.26815
10.227986
10.193316
10.163457
10.137798
10.115804
10.096989
10.080932
10.067264
10.055664
10.045854
10.037584
10.0306
10.024521
10.018353
10.012042
10.005599
9.9990215
9.9923734
9.9859478
9.9810012
9.9774348
9.9750082
9.9735692
9.972976
9.9728663
9.9738331
9.9750959
9.9768797
9.9790353
9.9815016
9.9842575
9.9873448
9.9907862
9.9944885
9.9982352
1098.8483
1112.8073
390.14451
223.6642
143.62874
101.39765
76.275599
60.246605
49.428656
41.777453
36.146776
31.869723
28.530623
25.864492
23.695054
21.901567
20.398964
19.125884
18.037107
17.098642
16.284444
15.574173
14.951652
14.403891
13.920744
13.491873
13.110015
12.768789
12.462954
12.18815
11.940784
11.717892
11.517022
11.336128
11.173474
11.027553
10.897023
10.780653
10.677293
10.585841
10.505244
10.434488
10.372608
10.318673
10.27181
10.23121
10.196125
10.165879
10.13986
10.117524
10.09839
10.082036
10.068089
10.056229
10.046175
10.037677
10.030489
10.02427
10.018189
10.011931
10.005562
9.9990683
9.9925077
9.9861396
9.9810782
9.9774641
9.9749995
9.9735429
9.9729713
9.9730196
9.9737994
9.975096
9.9768678
9.9790229
9.981502
9.9842831
9.9873801
9.9907883
9.9944339
9.9981768
1043.9186
1071.6428
365.8817
206.57446
132.75444
93.841437
70.824803
56.268859
46.463114
39.518112
34.39136
30.479139
27.411664
24.952169
22.943097
21.276136
19.874749
18.683556
17.661655
16.778257
16.009759
15.337716
14.747419
14.226903
13.766261
13.357198
12.992689
12.66682
12.374619
12.111939
11.875342
11.661989
11.469531
11.296016
11.139793
10.999442
10.873703
10.761428
10.661545
10.57303
10.494899
10.4262
10.366018
10.313478
10.267755
10.228079
10.193738
10.164086
10.138535
10.116564
10.097708
10.081559
10.067757
10.05599
10.045986
10.037502
10.030297
10.024034
10.017885
10.011568
10.005141
9.9985948
9.9919955
9.9856417
9.9808102
9.9772984
9.9749077
9.9734867
9.9729047
9.9728006
9.9737891
9.9750275
9.9767922
9.9789365
9.9814197
9.9842151
9.9873247
9.9907281
9.9943629
9.9981334
31495.705
79319.409
37087.994
10743.729
1414.491
611.4745
434.25137
350.67155
290.49256
236.25139
192.45008
159.19842
134.62131
116.37996
102.33951
90.861487
81.148745
72.862954
65.767822
59.648195
54.326218
49.666459
45.564126
41.933869
38.710371
35.829184
33.244966
30.917746
28.815674
26.913616
25.190123
23.626072
22.204768
20.911517
19.734789
18.664878
17.693046
16.811546
16.013307
15.291896
14.64171
14.057187
13.533265
13.065381
12.649051
12.280042
11.954523
11.668457
11.41816
11.200278
11.01154
10.848837
10.7092
10.59011
10.489053
10.40383
10.334095
10.279547
10.24004
10.218186
10.210891
10.208945
10.206892
10.203878
10.200257
10.196094
10.191252
10.184519
10.175319
10.165679
10.152443
10.144116
10.121979
10.113181
10.088711
10.098459
10.049012
10.077088
9.9987444
10.018883
20042.177
59535.453
24638.675
5098.0731
973.48233
528.86765
397.89794
321.50362
264.06424
212.69347
174.40331
145.60114
124.56049
108.77687
96.314295
85.860017
76.949632
69.339145
62.799378
57.129823
52.176159
47.822411
43.976479
40.562355
37.518163
34.790876
32.339103
30.125453
28.121826
26.305617
24.657031
23.158347
21.794189
20.551037
19.418578
18.387831
17.45064
16.599809
15.828706
15.131317
14.502403
13.936638
13.429267
12.97597
12.572437
12.214637
11.898911
11.62133
11.378385
11.166853
10.983564
10.825513
10.689839
10.574126
10.475947
10.393066
10.324812
10.271554
10.233232
10.212589
10.205904
10.204118
10.202065
10.199085
10.195526
10.191431
10.186785
10.18076
10.172315
10.163219
10.150731
10.142701
10.121779
10.113379
10.088836
10.098728
10.049071
10.077357
9.9991524
10.019196
28372.482
35367.468
13508.006
2552.7102
837.08677
498.9048
387.8385
306.19205
250.61868
201.10692
166.63738
139.51395
119.99531
105.09954
93.214738
83.170207
74.636934
67.349724
61.07617
55.628199
50.862745
46.670702
42.964163
39.670412
36.728667
34.091731
31.719497
29.575519
27.633757
25.87253
24.272741
22.817352
21.491678
20.282793
19.181081
18.177872
17.265337
16.436595
15.685254
15.005545
14.39245
13.840763
13.345938
12.903795
12.510132
12.161052
11.853008
11.582137
11.345057
11.13863
10.959757
10.80551
10.673119
10.560259
10.464428
10.383575
10.316539
10.264272
10.226859
10.207139
10.200906
10.199259
10.197227
10.194299
10.190812
10.186798
10.182222
10.176843
10.169196
10.160673
10.148957
10.141217
10.121543
10.113461
10.088853
10.09871
10.049042
10.077494
9.9996493
10.019584
35909.897
24008.907
8355.1936
1546.864
754.80615
475.6168
375.44069
290.22932
239.37434
190.42831
159.6144
133.60668
115.66122
101.56344
90.254362
80.614502
72.446326
65.460747
59.436533
54.197119
49.608593
45.568203
41.992267
38.811373
35.968029
33.414447
31.116767
29.038662
27.155682
25.44685
23.893748
22.479958
21.191418
20.015748
18.943985
17.967696
17.079366
16.272396
15.540604
14.878453
14.281119
13.7435
13.261255
12.830327
12.446611
12.106343
11.806079
11.542014
11.310898
11.10967
10.935302
10.784944
10.655983
10.545954
10.452544
10.373754
10.308149
10.256898
10.220425
10.201647
10.195874
10.19437
10.192364
10.189498
10.18609
10.182164
10.177699
10.1727
10.165885
10.157961
10.147041
10.139587
10.121153
10.113391
10.088762
10.098523
10.048939
10.07752
10.000199
10.020067
40419.695
20479.082
5881.2868
1228.5167
720.41308
458.09376
365.77425
277.76319
231.18909
182.2844
154.64267
129.01734
112.39229
98.756447
87.875738
78.53498
70.651365
63.896831
58.065925
52.989993
48.541731
44.622776
41.152358
38.063455
35.300535
32.818419
30.581278
28.558699
26.725733
25.061814
23.549034
22.17144
20.915459
19.769128
18.724026
17.771839
16.905325
16.1181
15.404141
14.7581
14.175306
13.65073
13.180212
12.759784
12.385423
12.05348
11.760595
11.503009
11.277594
11.081355
10.911328
10.764744
10.639073
10.531809
10.44076
10.363989
10.299913
10.249619
10.214048
10.19606
10.190823
10.189456
10.187486
10.18469
10.181369
10.177538
10.173187
10.168383
10.162405
10.155108
10.144999
10.137831
10.120619
10.113112
10.088546
10.098159
10.048767
10.077439
10.000778
10.02062
43214.877
19114.722
4524.9307
1156.5544
699.93587
439.7564
358.28162
267.95224
224.96041
175.78114
150.74187
125.1341
109.6923
96.337254
85.827321
76.73106
69.086484
62.523359
56.854985
51.917576
47.588969
43.774158
40.394688
37.385472
34.692715
32.272598
30.089336
28.115854
26.327253
24.703436
23.226852
21.881921
20.65548
19.535914
18.515273
17.585293
16.738988
15.970142
15.272859
14.641958
14.072887
13.560671
13.101319
12.690925
12.325538
12.001612
11.715854
11.464548
11.244681
11.053314
10.887551
10.744736
10.622214
10.51767
10.428957
10.354186
10.291762
10.242388
10.207702
10.19047
10.185768
10.184523
10.182597
10.17988
10.176653
10.172925
10.168697
10.164034
10.158749
10.152106
10.142822
10.135945
10.1199
10.112645
10.0882
10.097624
10.048533
10.077256
10.001366
10.021197
45431.516
17196.031
3636.7198
1106.064
684.62234
427.1688
352.34041
260.09358
220.14547
170.61397
147.63756
121.8661
107.45312
94.250384
84.061597
75.16331
67.718808
61.314643
55.783017
50.96295
46.736422
43.010977
39.709986
36.769909
34.138327
31.77268
29.638491
27.707236
25.957868
24.369859
22.925784
21.610341
20.410707
19.315554
18.317347
17.407813
16.580213
15.828454
15.146746
14.530051
13.973913
13.473391
13.024651
12.623828
12.267033
11.950812
11.671927
11.426697
11.212223
11.025621
10.864102
10.724847
10.605431
10.50357
10.417162
10.344371
10.283683
10.235214
10.201397
10.18497
10.180715
10.179578
10.177704
10.175074
10.171948
10.16833
10.164231
10.159731
10.154922
10.14896
10.14051
10.133932
10.118969
10.112058
10.087726
10.096926
10.048236
10.076967
10.001953
10.021697
47068.068
14542.626
3070.1858
1075.0413
672.97052
417.01619