/*--------------------------------*- C++ -*----------------------------------*\
  =========                 |
  \\      /  F ield         | OpenFOAM: The Open Source CFD Toolbox
   \\    /   O peration     | Website:  https://openfoam.org
    \\  /    A nd           | Version:  12
     \\/     M anipulation  |
\*---------------------------------------------------------------------------*/
FoamFile
{
    format      ascii;
    class       volVectorField;
    location    "0.105";
    object      U;
}
// * * * * * * * * * * * * * * * * * * * * * * * * * * * * * * * * * * * * * //

dimensions      [0 1 -1 0 0 0 0];

internalField   nonuniform List<vector> 
16000
(
(216.07514 -3.1357366e-17 -8.407278)
(253.08189 0 5.4019465)
(239.09077 0 -7.5921229)
(246.83518 4.9613823e-17 3.7991136)
(242.13618 -4.8973417e-17 -5.968722)
(244.34627 0 1.7609083)
(242.54901 0 -4.3330321)
(243.05467 8.3824488e-17 -0.025632044)
(242.21358 -7.9639344e-17 -3.1609771)
(242.09103 0 -1.2661553)
(241.57631 7.1960118e-17 -2.5642525)
(241.22795 -2.0501365e-16 -1.9824055)
(240.7834 1.2976021e-16 -2.4206338)
(240.35372 -1.2343268e-16 -2.3568002)
(239.89594 1.171126e-16 -2.5170731)
(239.42428 -3.4739504e-18 -2.588051)
(238.93396 -3.3001173e-18 -2.6905468)
(238.4259 -9.7383677e-17 -2.7822807)
(237.89953 1.9079509e-16 -2.8757548)
(237.35472 -9.0524819e-17 -2.9669973)
(236.79131 1.7219256e-16 -3.0563945)
(236.20922 -1.6322346e-16 -3.1432501)
(235.60846 0 -3.2270676)
(234.98912 1.5193795e-16 -3.3072671)
(234.35138 -4.1107671e-18 -3.3832606)
(233.69554 -2.651813e-16 -3.4544277)
(233.022 1.256869e-16 -3.5201412)
(232.3313 0 -3.5797605)
(231.62409 0 -3.6326482)
(230.90117 2.1828364e-16 -3.6781751)
(230.16347 -2.0338159e-16 -3.7157331)
(229.41205 0 -3.744745)
(228.64811 0 -3.7646744)
(227.873 0 -3.7750411)
(227.08817 5.1312397e-18 -3.7754303)
(226.2952 1.5572642e-16 -3.7655047)
(225.4958 -1.4255411e-16 -3.7450163)
(224.69175 -1.3962403e-16 -3.7138137)
(223.8849 1.2362823e-16 -3.6718521)
(223.07719 0 -3.6192002)
(222.27057 -1.1832706e-16 -3.5560412)
(221.46703 1.1168724e-16 -3.4826778)
(220.66854 -2.1167323e-16 -3.3995286)
(219.87703 1.9970775e-16 -3.3071261)
(219.0944 -1.9504883e-16 -3.2061094)
(218.32246 3.5710515e-16 -3.0972147)
(217.56291 5.5973432e-18 -2.9812639)
(216.81736 2.9918773e-19 -2.8591504)
(216.08728 -1.5031386e-16 -2.7318227)
(215.374 1.4216731e-16 -2.6002668)
(214.67866 -1.25577e-16 -2.4654885)
(214.00229 0 -2.328494)
(213.34568 7.4637217e-18 -2.1902722)
(212.70949 0 -2.0517762)
(212.09415 6.6419215e-18 -1.9139062)
(211.49991 2.0682166e-16 -1.7774954)
(210.92683 -3.7801964e-16 -1.6432963)
(210.37477 1.0911968e-17 -1.5119698)
(209.84339 1.6798102e-16 -1.3840745)
(209.33216 -1.4869178e-16 -1.2600747)
(208.8403 1.4005673e-16 -1.1403153)
(208.36688 -8.8132054e-18 -1.0250637)
(207.91076 0 -0.91446854)
(207.47044 0 -0.80855171)
(207.04402 -1.1106966e-16 -0.70722551)
(206.62922 1.1174697e-16 -0.61029302)
(206.22344 -9.9023978e-17 -0.51747828)
(205.82393 1.9329293e-16 -0.42846299)
(205.42791 -1.8864509e-16 -0.3429237)
(205.03251 8.3632123e-17 -0.26055875)
(204.63462 5.2815456e-18 -0.18111479)
(204.2309 0 -0.10447038)
(203.81854 4.7492218e-18 -0.030728554)
(203.39655 -4.5115884e-18 0.03989584)
(202.96663 0 0.10702008)
(202.53278 -3.3746104e-17 0.16661957)
(202.07293 6.2463131e-17 0.21814486)
(201.72025 -3.1743491e-17 0.31436781)
(201.01664 0 0.15538442)
(201.02146 0 0.73548213)
(217.39268 0 -11.236339)
(254.7255 -3.7199652e-18 3.352111)
(240.10834 -1.1957183e-16 -10.526823)
(248.30057 1.1023454e-16 1.7089029)
(243.24491 0 -8.8401581)
(245.68888 1.0142274e-16 -0.40192344)
(243.68587 -1.872905e-16 -7.0874473)
(244.28161 -1.026405e-19 -2.3121188)
(243.34867 8.4403316e-17 -5.7595172)
(243.22737 0 -3.6711797)
(242.67184 -1.5246225e-16 -5.0475425)
(242.29468 1.4913514e-16 -4.4329774)
(241.81817 1.4184302e-16 -4.8576517)
(241.35415 -2.6111248e-16 -4.7945656)
(240.8619 1.2003454e-16 -4.9347443)
(240.35387 1.1035316e-17 -4.9983976)
(239.82618 1.1539676e-16 -5.0853289)
(239.27944 -1.027735e-16 -5.1633443)
(238.71325 0 -5.2407797)
(238.12749 0 -5.3149398)
(237.52208 5.6711387e-18 -5.3857089)
(236.89706 -1.7791379e-16 -5.4523816)
(236.25251 3.3735862e-16 -5.5143278)
(235.58868 -3.1523918e-16 -5.5708677)
(234.90588 1.4248583e-16 -5.621307)
(234.20458 0 -5.6649371)
(233.48536 1.2427676e-16 -5.7010403)
(232.74895 -1.3326146e-16 -5.7289059)
(231.99623 0 -5.7478362)
(231.22819 3.5216259e-18 -5.7571595)
(230.44601 -1.3358164e-17 -5.7562404)
(229.65099 0 -5.744496)
(228.84457 0 -5.7214036)
(228.02835 -1.7046348e-16 -5.6865205)
(227.20403 3.3848377e-16 -5.6394925)
(226.37343 -1.6253796e-16 -5.5800677)
(225.53847 -1.5894965e-16 -5.5081092)
(224.70115 1.454799e-16 -5.4236013)
(223.86351 -1.1205541e-16 -5.3266594)
(223.02764 -2.8740972e-19 -5.2175344)
(222.19562 -2.6890374e-19 -5.0966141)
(221.36954 2.3259176e-16 -4.9644225)
(220.55142 -1.0974044e-16 -4.8216153)
(219.7432 0 -4.6689717)
(218.94676 2.0221254e-16 -4.5073849)
(218.16385 1.1930276e-17 -4.3378478)
(217.39607 -5.1111121e-18 -4.1614361)
(216.64489 -1.6440879e-16 -3.9792908)
(215.91161 0 -3.7925973)
(215.19736 -1.4644714e-16 -3.6025654)
(214.5031 -8.8548075e-18 -3.4104081)
(213.82959 2.5992363e-16 -3.2173197)
(213.17741 -1.2999405e-16 -3.024457)
(212.54695 0 -2.8329192)
(211.93843 -2.0368503e-17 -2.6437309)
(211.35184 -2.1106401e-16 -2.4578288)
(210.78703 3.6102568e-16 -2.2760475)
(210.24364 -2.1512559e-16 -2.0991115)
(209.72117 0 -1.9276257)
(209.2189 -1.7068387e-16 -1.7620827)
(208.73592 1.7935977e-16 -1.6028403)
(208.27118 2.6667947e-17 -1.4501537)
(207.82344 0 -1.3041618)
(207.39116 -1.4179627e-16 -1.1648569)
(206.97239 7.3128956e-18 -1.0321132)
(206.56483 1.1163351e-16 -0.90568873)
(206.16586 -1.9723962e-17 -0.78525481)
(205.77269 9.2943683e-17 -0.67043697)
(205.38253 -1.0505837e-16 -0.5608573)
(204.99254 5.5054251e-18 -0.45617149)
(204.59962 -5.1949542e-18 -0.35610588)
(204.20041 0 -0.26053235)
(203.79202 -4.6358115e-18 -0.16950412)
(203.37341 4.3851368e-18 -0.083133137)
(202.94577 8.305865e-18 -0.0024575931)
(202.51003 9.8425818e-19 0.068962712)
(202.07347 0 0.14085153)
(201.65468 3.0225725e-17 0.21272556)
(201.09813 -5.7567195e-17 0.1281846)
(200.91466 2.5857874e-17 0.6265203)
(218.57554 0 -14.138684)
(256.21551 -1.2235457e-16 1.1014842)
(241.05908 2.4953469e-16 -13.545557)
(249.56616 -2.2284033e-16 -0.54799899)
(244.24873 1.100595e-16 -11.784733)
(246.82925 -3.258962e-18 -2.7561551)
(244.69834 9.9192359e-17 -9.8876872)
(245.31975 -9.3942304e-17 -4.7958766)
(244.3298 -5.5766186e-18 -8.4213915)
(244.18503 -5.2949738e-18 -6.2419211)
(243.59405 -1.0058561e-17 -7.6292096)
(243.18077 1.3877796e-16 -7.0203607)
(242.66868 -1.4067037e-16 -7.4137471)
(242.16604 1.3806084e-16 -7.3576833)
(241.63457 -1.1860129e-16 -7.4764975)
(241.08566 -1.5544511e-17 -7.5320918)
(240.51583 0 -7.6034043)
(239.92568 -1.2536748e-20 -7.6665542)
(239.31487 -2.2609379e-16 -7.726892)
(238.68341 -3.684543e-19 -7.7823926)
(238.03132 1.7329539e-16 -7.8326252)
(237.35877 1.7022544e-17 -7.8767988)
(236.666 -2.1531486e-17 -7.914162)
(235.9534 0 -7.9439297)
(235.2215 7.4954005e-21 -7.9653105)
(234.47094 -1.6529133e-16 -7.9775093)
(233.70254 1.4766931e-16 -7.9797392)
(232.91726 8.2420077e-18 -7.9712292)
(232.11621 0 -7.9512431)
(231.30069 -7.3943189e-18 -7.9190862)
(230.47212 -1.0584976e-21 -7.8741257)
(229.63211 -1.9904698e-16 -7.8158028)
(228.7824 2.0046446e-16 -7.7436476)
(227.92486 1.1878689e-17 -7.657299)
(227.06147 -1.7983373e-16 -7.5565122)
(226.19434 1.4841681e-16 -7.4411771)
(225.32562 -1.8084986e-16 -7.3113261)
(224.45755 1.515841e-16 -7.167144)
(223.59235 -1.4353057e-16 -7.0089704)
(222.73226 1.3527006e-16 -6.8373051)
(221.87949 1.5994533e-17 -6.6528045)
(221.03617 0 -6.4562741)
(220.20434 1.9952565e-16 -6.2486619)
(219.38592 -2.4150373e-16 -6.0310431)
(218.5827 0 -5.8046045)
(217.7963 1.7924894e-16 -5.5706262)
(217.02816 -1.5729414e-16 -5.3304581)
(216.27953 1.6971733e-16 -5.0854987)
(215.55149 -1.7951363e-16 -4.8371701)
(214.8449 0 -4.5868952)
(214.16042 1.7701986e-16 -4.3360747)
(213.49853 -1.3303562e-16 -4.0860631)
(212.85951 0 -3.8381497)
(212.24344 0 -3.5935403)
(211.65025 1.246545e-16 -3.353339)
(211.07966 -2.0817915e-16 -3.1185385)
(210.53125 1.2220491e-16 -2.890008)
(210.00442 1.8391833e-16 -2.6684879)
(209.49844 2.0247953e-19 -2.4545822)
(209.01242 1.8048635e-19 -2.2487664)
(208.54529 -3.2372434e-16 -2.0513748)
(208.09585 8.9339151e-17 -1.8626136)
(207.66276 0 -1.6825782)
(207.24439 1.4199792e-16 -1.5112047)
(206.83876 -1.6288263e-16 -1.3483034)
(206.44354 1.1133437e-16 -1.1935671)
(206.05611 1.3144157e-17 -1.0466008)
(205.67368 -8.5909175e-17 -0.90696811)
(205.29349 1.1537145e-17 -0.7742379)
(204.91275 2.1697404e-17 -0.6480297)
(204.52843 -1.0204101e-16 -0.52805067)
(204.13728 9.5971604e-17 -0.41414845)
(203.73643 -7.2317539e-17 -0.30634667)
(203.32461 1.362304e-16 -0.2048969)
(202.90269 -5.61794e-17 -0.11110829)
(202.4736 -6.0620859e-17 -0.026318256)
(202.04601 5.0087464e-17 0.057308916)
(201.60574 0 0.11925513)
(201.11478 3.2056814e-18 0.099367442)
(200.84397 -1.2158648e-17 0.51169997)
(219.59943 0 -17.110816)
(257.55606 0 -1.2838359)
(241.82034 0 -16.700252)
(250.65279 1.0648894e-16 -2.9136232)
(245.06679 -1.2365205e-16 -14.860336)
(247.80321 -2.2022242e-16 -5.2293782)
(245.52956 2.0945144e-16 -12.807173)
(246.17951 -1.2405263e-17 -7.4077603)
(245.12503 5.907331e-18 -11.1945)
(244.95275 -1.7371107e-16 -8.9448705)
(244.32169 1.7006075e-16 -10.322839)
(243.86674 1.0106967e-17 -9.7337086)
(243.31415 -1.5347341e-16 -10.087732)
(242.76755 1.3633292e-16 -10.040222)
(242.19172 -1.3986159e-20 -10.136349)
(241.59676 -8.1760114e-18 -10.181874)
(240.97977 0 -10.235925)
(240.34128 -7.3812235e-18 -10.281725)
(239.68112 -2.1010967e-16 -10.322287)
(238.9994 2.121524e-16 -10.356034)
(238.29627 1.2593456e-17 -10.382305)
(237.57206 -1.1939784e-17 -10.400221)
(236.82718 2.1515612e-16 -10.40893)
(236.06222 -1.7138248e-16 -10.407555)
(235.27791 1.0163748e-17 -10.395212)
(234.47516 1.9272139e-16 -10.371034)
(233.65505 -1.2748505e-16 -10.33417)
(232.81881 0 -10.283806)
(231.96789 1.4731297e-16 -10.219181)
(231.10388 -1.2365121e-16 -10.139607)
(230.22857 2.4921056e-16 -10.04448)
(229.34388 -1.3308045e-17 -9.9333069)
(228.4519 -2.0933342e-16 -9.8057157)
(227.55482 1.7362979e-16 -9.6614778)
(226.65494 -1.8704248e-16 -9.5005176)
(225.75464 -2.9652945e-20 -9.3229289)
(224.85634 2.0910582e-16 -9.1289805)
(223.96247 -3.1557648e-16 -8.9191216)
(223.07543 9.2879514e-17 -8.6939841)
(222.19756 3.5165391e-17 -8.4543774)
(221.33113 -4.9725783e-17 -8.2012832)
(220.47827 0 -7.9358397)
(219.64095 -8.8483643e-17 -7.6593281)
(218.82099 1.3858104e-16 -7.3731503)
(218.02 -2.092508e-16 -7.0788077)
(217.23939 1.9660975e-16 -6.777877)
(216.48033 -2.0854093e-16 -6.4719806)
(215.7438 3.9212647e-16 -6.1627622)
(215.03053 -3.0730207e-16 -5.8518598)
(214.34105 3.0815757e-16 -5.5408793)
(213.67567 -1.4463846e-16 -5.2313713)
(213.03452 1.3615428e-16 -4.9248089)
(212.41752 -9.5712062e-17 -4.6225671)
(211.82443 3.0013174e-17 -4.325909)
(211.25482 0 -4.0359691)
(210.70814 0 -3.7537468)
(210.18368 0 -3.4800984)
(209.68059 2.3232993e-17 -3.2157342)
(209.19791 0 -2.9612156)
(208.73458 -1.6352247e-16 -2.7169627)
(208.28936 1.914244e-16 -2.483251)
(207.86094 -1.0774837e-16 -2.260212)
(207.44787 -1.2074852e-19 -2.0478673)
(207.04845 2.5208414e-16 -1.8460793)
(206.66069 2.9611115e-17 -1.6545789)
(206.28224 -1.3826309e-16 -1.4729824)
(205.91048 5.1853614e-17 -1.3008218)
(205.54267 -1.4567097e-16 -1.1375941)
(205.17607 -4.5519474e-17 -0.98281497)
(204.80797 -6.3989708e-17 -0.83606946)
(204.43546 -6.0010733e-17 -0.69703795)
(204.0554 5.6238016e-17 -0.56553987)
(203.66491 0 -0.44163683)
(203.26246 0 -0.3257554)
(202.84905 -1.550523e-17 -0.21890679)
(202.42936 0 -0.12110476)
(202.00785 6.8502797e-18 -0.029473372)
(201.56701 5.1588452e-17 0.034193627)
(201.11833 -7.2869151e-17 0.062218132)
(200.78413 -1.5194646e-20 0.39386737)
(220.44437 0 -20.281676)
(258.72315 -8.8023243e-18 -3.7464949)
(242.44947 2.6627429e-16 -19.991027)
(251.51633 -2.4869247e-16 -5.4048798)
(245.64775 2.5378473e-16 -18.050807)
(248.57296 -2.3218046e-16 -7.8559308)
(246.15946 -2.2133421e-16 -15.832544)
(246.82678 2.0951712e-16 -10.178234)
(245.71038 0 -14.071009)
(245.50007 0 -11.798304)
(244.82672 1.7956346e-16 -13.13121)
(244.32335 -1.7010955e-16 -12.58033)
(243.72555 -1.0105983e-17 -12.885234)
(243.12979 2.8744209e-17 -12.845528)
(242.50467 -9.0966486e-18 -12.916907)
(241.85883 3.4501041e-17 -12.948613)
(241.18993 0 -12.982452)
(240.49845 0 -13.007148)
(239.78434 -2.3562565e-16 -13.024105)
(239.04784 2.089656e-16 -13.03197)
(238.28926 0 -13.029895)
(237.50911 0 -13.016897)
(236.70803 -1.90141e-16 -12.991993)
(235.88687 3.5983763e-16 -12.954198)
(235.04665 -1.7019166e-16 -12.902529)
(234.18858 -2.0163244e-17 -12.836032)
(233.3141 -3.8189232e-17 -12.753801)
(232.42482 -1.4470738e-16 -12.654993)
(231.52257 1.1947715e-16 -12.538852)
(230.60935 0 -12.40473)
(229.68734 -3.0601501e-17 -12.252105)
(228.75887 0 -12.080609)
(227.82641 0 -11.890036)
(226.89251 2.0659365e-16 -11.68037)
(225.9598 -2.1897211e-16 -11.451786)
(225.03094 2.2970892e-17 -11.204664)
(224.10858 -2.1674673e-17 -10.939596)
(223.19533 -4.0977442e-17 -10.65738)
(222.29369 -8.5298929e-20 -10.359019)
(221.40605 8.1045097e-20 -10.045703)
(220.53464 -7.650053e-20 -9.7188011)
(219.68149 0 -9.379833)
(218.84844 -1.2165276e-16 -9.0304513)
(218.03705 1.1423657e-16 -8.6724083)
(217.24866 0 -8.3075284)
(216.48436 -5.063461e-17 -7.9376813)
(215.74497 1.9031411e-16 -7.5647445)
(215.03107 -2.2310058e-16 -7.1905789)
(214.34298 -2.0990127e-16 -6.8169987)
(213.68082 1.5736989e-16 -6.4457461)
(213.04449 1.1099435e-16 -6.078468)
(212.4337 -1.3854493e-16 -5.716698)
(211.84798 -3.248259e-17 -5.3618365)
(211.28672 -2.1339488e-16 -5.015143)
(210.74916 1.1413028e-16 -4.6777218)
(210.23441 -1.0704626e-16 -4.3505211)
(209.7415 1.0012371e-16 -4.0343293)
(209.26933 2.3460006e-16 -3.7297754)
(208.81674 -1.7545786e-16 -3.4373313)
(208.38246 0 -3.1573215)
(207.96515 -3.8397342e-17 -2.8899228)
(207.56336 -7.1877336e-17 -2.6351657)
(207.17556 1.3430178e-16 -2.3929687)
(206.80001 1.2565852e-16 -2.1631008)
(206.4347 -2.3482582e-16 -1.9451973)
(206.0773 8.2242718e-17 -1.7387872)
(205.72523 5.1270185e-17 -1.5433215)
(205.37578 9.5853729e-17 -1.3582281)
(205.0263 1.3438649e-16 -1.1829707)
(204.67415 2.5890795e-20 -1.0170975)
(204.31659 0 -0.8602509)
(203.95065 0 -0.71223641)
(203.57343 -3.4208745e-17 -0.57321421)
(203.18322 9.5989335e-17 -0.44367478)
(202.78148 -8.9782008e-17 -0.32409725)
(202.37334 -8.405343e-17 -0.21454034)
(201.95953 5.2452658e-17 -0.11610893)
(201.52759 0 -0.044556251)
(201.10467 4.6075808e-17 0.015839142)
(200.73142 2.7071656e-20 0.27784547)
(221.08964 0 -23.625404)
(259.6907 1.92256e-20 -6.2853186)
(242.88224 9.0607021e-18 -23.377308)
(252.21193 2.8803089e-16 -8.0352751)
(246.07088 3.34932e-19 -21.345195)
(249.11031 -5.0521533e-16 -10.633799)
(246.54323 -3.2512343e-19 -18.953279)
(247.23249 4.556716e-16 -13.11177)
(246.05474 -2.09654e-16 -17.048674)
(245.79986 -1.2436034e-17 -14.801558)
(245.08274 1.1811655e-17 -16.053116)
(244.52586 -1.7935349e-16 -15.553244)
(243.8791 1.9107805e-16 -15.801057)
(243.22995 -1.815595e-16 -15.765109)
(242.55115 3.0584076e-16 -15.80945)
(241.84986 -3.0814775e-16 -15.822851)
(241.12425 1.3733828e-16 -15.833061)
(240.37481 0 -15.832636)
(239.60169 0 -15.821846)
(238.80531 1.4630081e-17 -15.799344)
(237.98624 -2.7740396e-17 -15.764068)
(237.14526 0 -15.714872)
(236.28336 1.9921022e-16 -15.650618)
(235.40174 4.7476815e-19 -15.570193)
(234.50182 -3.5652859e-16 -15.472515)
(233.58526 1.6846214e-16 -15.356566)
(232.65394 1.9932906e-17 -15.221417)
(231.70995 0 -15.066239)
(230.75559 -1.7856837e-16 -14.890342)
(229.79335 1.3465067e-16 -14.693194)
(228.82588 -2.2329672e-16 -14.474439)
(227.85596 2.101754e-16 -14.233927)
(226.88646 -2.2747611e-16 -13.97172)
(225.92032 2.141173e-16 -13.688116)
(224.96046 7.5905752e-17 -13.383649)
(224.00981 0 -13.059094)
(223.07117 0 -12.715465)
(222.14724 4.230746e-17 -12.354002)
(221.24054 3.984873e-17 -11.97616)
(220.3534 -3.7517358e-17 -11.583581)
(219.48787 3.5307546e-17 -11.178072)
(218.64578 6.6614948e-17 -10.761571)
(217.82864 -6.2568619e-17 -10.336121)
(217.03768 3.5276964e-16 -9.903825)
(216.27382 -2.7594894e-16 -9.4668181)
(215.53771 5.1794143e-17 -9.027231)
(214.82968 -4.8736496e-17 -8.5871546)
(214.14984 0 -8.1486129)
(213.49803 2.1421455e-16 -7.7135335)
(212.87387 -1.6044879e-16 -7.2837268)
(212.2768 0 -6.8608637)
(211.70608 0 -6.4464641)
(211.16085 1.3203017e-16 -6.0418818)
(210.64009 -6.1709196e-17 -5.6483009)
(210.14272 0 -5.26673)
(209.66755 -1.6214734e-16 -4.8980035)
(209.21333 1.0093177e-16 -4.5427854)
(208.77874 1.4167691e-16 -4.2015729)
(208.36243 -1.7623005e-16 -3.8747032)
(207.96301 1.6472974e-16 -3.5623671)
(207.579 -1.5365487e-16 -3.2646093)
(207.20887 6.6356051e-20 -2.9813323)
(206.85103 0 -2.7123301)
(206.50372 6.2461469e-17 -2.4572607)
(206.16495 -2.9121759e-16 -2.2156529)
(205.83242 1.6287236e-16 -1.9869402)
(205.50361 0 -1.7704896)
(205.1759 -1.4162409e-16 -1.5656594)
(204.8467 8.7975539e-17 -1.3718632)
(204.51352 1.2308476e-16 -1.1886067)
(204.17379 3.7000744e-20 -1.0154888)
(203.82474 -7.124493e-17 -0.85233038)
(203.46345 9.9649635e-17 -0.69940834)
(203.0882 -1.5481192e-16 -0.55711913)
(202.70088 8.6592671e-17 -0.42547539)
(202.30611 2.6901444e-17 -0.30554846)
(201.90264 5.0218209e-17 -0.20055419)
(201.48523 0 -0.11647672)
(201.08278 -4.3744929e-17 -0.035281902)
(200.6804 2.0376573e-17 0.1652357)
(221.51925 0 -27.138002)
(260.45092 9.7942028e-18 -8.9307727)
(243.11414 -3.0545738e-16 -26.889017)
(252.72174 2.4938955e-16 -10.80785)
(246.29712 2.5618231e-16 -24.739086)
(249.40445 -4.996409e-16 -13.567081)
(246.72456 2.2982483e-16 -22.156862)
(247.38029 2.3268219e-16 -16.208046)
(246.1592 -2.2051481e-16 -20.112215)
(245.84111 3.9251671e-17 -17.941452)
(245.07941 0 -19.076493)
(244.46354 0 -18.636818)
(243.76285 -2.2324824e-17 -18.823933)
(243.05445 -1.6949468e-16 -18.787534)
(242.31562 1.402687e-16 -18.804162)
(241.55216 1.9028366e-17 -18.795753)
(240.76292 -3.6070558e-17 -18.779371)
(239.94851 3.0775723e-16 -18.749949)
(239.1094 -2.2615737e-16 -18.706954)
(238.24634 2.4547845e-16 -18.648928)
(237.36028 -2.0285355e-16 -18.574597)
(236.45242 2.7504278e-17 -18.482658)
(235.52419 1.5626366e-16 -18.37184)
(234.5773 -1.9653831e-16 -18.240937)
(233.61369 0 -18.088819)
(232.63557 0 -17.914462)
(231.64537 0 -17.716986)
(230.64578 -1.968619e-16 -17.495673)
(229.63965 1.8544417e-16 -17.249997)
(228.63002 -3.5139744e-17 -16.97965)
(227.62006 0 -16.684568)
(226.613 -2.8170397e-16 -16.364946)
(225.61214 2.3544312e-16 -16.021249)
(224.62074 -5.569056e-17 -15.654218)
(223.64198 1.5749741e-16 -15.264878)
(222.67892 -4.8937618e-17 -14.854517)
(221.73444 -1.8564413e-16 -14.424681)
(220.8112 2.1901079e-16 -13.977145)
(219.91159 -1.6441882e-16 -13.513887)
(219.03767 7.7559235e-17 -13.037054)
(218.19121 -7.2778323e-17 -12.548925)
(217.3736 1.3680839e-16 -12.051868)
(216.58592 -6.4106056e-17 -11.548301)
(215.82888 -2.4128344e-16 -11.040654)
(215.10285 5.0877953e-16 -10.531319)
(214.40789 -2.1190103e-16 -10.022628)
(213.74379 -1.4933159e-16 -9.5168127)
(213.11006 9.284105e-17 -9.0159754)
(212.50599 8.7337529e-17 -8.5220711)
(211.93067 -1.6338784e-16 -8.0368868)
(211.38306 1.5265533e-16 -7.5620291)
(210.86196 0 -7.0989167)
(210.36609 1.3362252e-16 -6.6487749)
(209.89409 -1.8716073e-16 -6.2126366)
(209.44454 5.8326515e-17 -5.7913449)
(209.01599 5.4358081e-17 -5.3855594)
(208.60697 0 -4.9957649)
(208.21597 0 -4.6222804)
(207.8415 0 -4.2652686)
(207.48205 0 -3.9247529)
(207.13608 0 -3.600619)
(206.802 -7.1422566e-17 -3.2926206)
(206.4782 0 -3.0004117)
(206.16295 -5.4244037e-20 -2.7235266)
(205.85426 2.3064415e-16 -2.4613813)
(205.54992 -2.1456303e-16 -2.2133096)
(205.2475 -9.9887114e-17 -1.9785937)
(204.94448 -1.8572975e-16 -1.7565259)
(204.63838 2.5889332e-16 -1.5464709)
(204.32685 4.2915434e-20 -1.3478866)
(204.00754 7.4573773e-17 -1.1603336)
(203.67788 0 -0.98368038)
(203.335 0 -0.81829012)
(202.97733 0 -0.6643235)
(202.60693 -1.1134328e-16 -0.52159839)
(202.2273 0 -0.39275834)
(201.83674 -9.6212429e-17 -0.28110274)
(201.43764 1.341359e-16 -0.18162692)
(201.05339 8.3155659e-17 -0.085385247)
(200.62942 -1.9275234e-17 0.057380012)
(221.73726 0 -30.828254)
(261.01025 0 -11.68499)
(243.15139 3.2136169e-16 -30.532715)
(253.0495 1.928296e-17 -13.739232)
(246.33714 -2.6890905e-16 -28.242771)
(249.51695 0 -16.678298)
(246.70471 1.611217e-17 -25.438874)
(247.4012 -3.0541334e-17 -19.458589)
(246.01488 0 -23.241009)
(245.62643 1.9252451e-16 -21.201127)
(244.81308 -4.1681312e-16 -22.197385)
(244.12767 1.9736776e-16 -21.82565)
(243.36322 2.3426454e-17 -21.954146)
(242.58561 0 -21.91278)
(241.77678 2.1021137e-17 -21.900856)
(240.9414 -3.3909284e-16 -21.866292)
(240.07898 7.4749768e-17 -21.818787)
(239.19041 2.4989893e-16 -21.754679)
(238.27657 2.3733479e-16 -21.672938)
(237.33865 -2.5599538e-16 -21.571986)
(236.37811 0 -21.450382)
(235.39668 -2.8725464e-16 -21.306711)
(234.39639 2.4389644e-16 -21.139621)
(233.37958 -2.0558309e-16 -20.94788)
(232.34883 1.9376472e-16 -20.730389)
(231.30703 -1.8363798e-16 -20.486216)
(230.25729 3.4642739e-16 -20.214646)
(229.20294 -1.634811e-16 -19.915191)
(228.14748 1.5461928e-16 -19.587636)
(227.09453 -2.915079e-16 -19.232054)
(226.04777 1.3720184e-16 -18.848828)
(225.01089 1.2958153e-16 -18.438664)
(223.98751 -2.4449462e-16 -18.002588)
(222.98113 5.6756418e-17 -17.541943)
(221.99507 -5.7860836e-19 -17.058383)
(221.03237 2.5437518e-16 -16.553826)
(220.0958 0 -16.030453)
(219.18777 1.9452851e-19 -15.490648)
(218.31032 0 -14.936963)
(217.46509 -7.9406774e-17 -14.372068)
(216.65329 -1.4923513e-16 -13.798711)
(215.87573 7.0068119e-17 -13.219656)
(215.13284 0 -12.637647)
(214.42465 -6.1748053e-17 -12.055359)
(213.75084 2.8901701e-16 -11.47536)
(213.1108 -3.2447455e-16 -10.900079)
(212.50363 -3.0403669e-16 -10.331777)
(211.92824 2.8387273e-16 -9.7725257)
(211.38331 -1.7715915e-16 -9.2241947)
(210.86741 0 -8.6884401)
(210.379 0 -8.1667015)
(209.91645 7.2307529e-17 -7.6602023)
(209.47811 6.748074e-17 -7.1699544)
(209.0623 1.2576143e-16 -6.6967647)
(208.66734 -5.8643563e-17 -6.2412453)
(208.29157 -1.0924115e-16 -5.8038252)
(207.93334 -2.03721e-16 -5.384764)
(207.59102 -9.5045708e-17 -4.9841637)
(207.26303 1.764496e-16 -4.6019823)
(206.9478 0 -4.2380519)
(206.64375 -7.6430358e-17 -3.8920805)
(206.34932 -1.4207259e-16 -3.5636605)
(206.06289 1.3199618e-16 -3.252298)
(205.78276 6.1222745e-17 -2.9573979)
(205.50704 5.6945079e-17 -2.6782623)
(205.2336 0 -2.4141258)
(204.96015 1.963375e-16 -2.1641899)
(204.68428 1.82192e-16 -1.9276861)
(204.40362 -2.535406e-16 -1.7039319)
(204.11602 7.8413354e-17 -1.4923352)
(203.81935 -7.2693893e-17 -1.2924359)
(203.51124 -4.9847594e-20 -1.1041762)
(203.18898 2.4987896e-16 -0.92792973)
(202.85126 -2.3160522e-16 -0.76353264)
(202.5 5.3620196e-17 -0.61100164)
(202.13714 1.4917212e-16 -0.47473936)
(201.76193 -4.6083616e-17 -0.35617142)
(201.38428 -4.2689832e-17 -0.24058207)
(201.01728 0 -0.13646224)
(200.5769 3.6578357e-17 -0.044947763)
(221.75424 3.90889e-16 -34.705904)
(261.37388 5.4497298e-19 -14.55537)
(242.97198 -3.5817748e-16 -34.324642)
(253.1889 0 -16.83508)
(246.1138 0 -31.822137)
(249.28741 -2.6722128e-16 -19.963208)
(246.37816 2.7033058e-16 -28.776)
(246.90409 6.4116089e-17 -22.870452)
(245.5992 -2.4336103e-16 -26.470427)
(245.13107 2.3018464e-16 -24.606867)
(244.25548 -2.4602267e-16 -25.443105)
(243.48763 2.0678207e-16 -25.134926)
(242.64724 -4.9057264e-17 -25.204352)
(241.78869 -4.6521031e-17 -25.148433)
(240.89829 -1.7628872e-16 -25.102932)
(239.97985 1.6650741e-16 -25.034458)
(239.03357 -3.5559706e-16 -24.947862)
(238.06074 5.9774164e-16 -24.840178)
(237.06279 -2.8242688e-16 -24.709982)
(236.0415 -2.6798861e-16 -24.555556)
(234.99898 2.5271491e-16 -24.375325)
(233.93769 -3.0097392e-17 -24.167798)
(232.86039 -2.2655673e-16 -23.93162)
(231.7702 2.1341706e-16 -23.665627)
(230.67052 2.5282913e-16 -23.368867)
(229.56501 -1.4255986e-16 -23.040645)
(228.45757 0 -22.680568)
(227.35224 2.54972e-16 -22.288563)
(226.2532 -3.202564e-16 -21.864919)
(225.16462 1.1268308e-16 -21.410288)
(224.09065 -2.8491608e-16 -20.925703)
(223.03532 2.0073497e-16 -20.412573)
(222.00245 -6.3254585e-17 -19.872666)
(220.99558 2.3771043e-16 -19.308084)
(220.01794 -2.229753e-16 -18.72124)
(219.07235 -2.1016033e-16 -18.114797)
(218.16117 1.9697646e-16 -17.491632)
(217.28633 -4.6199922e-17 -16.854776)
(216.44923 0 -16.207357)
(215.65083 8.1761303e-17 -15.552539)
(214.89156 -7.6310404e-17 -14.893472)
(214.17143 0 -14.233231)
(213.49002 1.3437937e-16 -13.574773)
(212.84656 -6.2860411e-17 -12.920894)
(212.23992 -1.7626015e-16 -12.274199)
(211.66873 5.4980571e-16 -11.637072)
(211.13139 -2.0585796e-16 -11.011663)
(210.62615 9.6015597e-17 -10.399877)
(210.15114 -2.6922911e-16 -9.8033682)
(209.7044 -1.8692097e-19 -9.2235451)
(209.28396 1.5610376e-16 -8.6615751)
(208.88784 -1.456303e-16 -8.1183943)
(208.51407 -6.7773483e-17 -7.5947217)
(208.16073 -6.3131022e-17 -7.0910723)
(207.82595 -1.1788456e-16 -6.6077731)
(207.50793 2.1891531e-16 -6.1449797)
(207.20493 0 -5.7026923)
(206.91526 9.4606246e-17 -5.2807709)
(206.63732 -3.5204438e-16 -4.8789504)
(206.36952 2.4500863e-16 -4.4968596)
(206.11033 7.5826983e-17 -4.1340206)
(205.85821 1.4087119e-16 -3.789862)
(205.61161 1.3089632e-16 -3.4637432)
(205.3689 -1.2110315e-16 -3.1549405)
(205.1283 -1.1222924e-16 -2.8626464)
(204.88781 -3.1222479e-16 -2.5860026)
(204.64527 -4.4310771e-20 -2.3241375)
(204.39843 -8.9235603e-17 -2.0762298)
(204.14508 0 -1.8415512)
(203.88323 -2.294286e-16 -1.6194648)
(203.61101 7.0747113e-17 -1.4095183)
(203.32623 0 -1.2117351)
(203.02649 1.2106256e-16 -1.0263902)
(202.71082 0 -0.85298906)
(202.38055 1.0344368e-16 -0.69218677)
(202.0359 -1.4335694e-16 -0.54994505)
(201.67841 1.324858e-16 -0.4240792)
(201.32473 -8.1597059e-17 -0.29235691)
(200.97414 7.5361427e-17 -0.18593665)
(200.52216 0 -0.14114206)
(221.55763 -4.1062926e-16 -38.777336)
(261.52884 3.6262985e-16 -17.559701)
(242.53992 -3.322858e-16 -38.294732)
(253.0715 3.3039108e-16 -20.108183)
(245.60417 3.1640954e-16 -35.459997)
(248.8288 -1.7980178e-17 -23.434127)
(245.80792 -2.8330613e-16 -32.196103)
(246.27777 -2.6894477e-16 -26.474925)
(244.88605 2.8625593e-16 -29.819954)
(244.30997 0 -28.160104)
(243.36162 2.856363e-17 -28.820886)
(242.49871 0 -28.564047)
(241.56966 -1.2847796e-16 -28.573904)
(240.61784 2.4258181e-16 -28.491776)
(239.63361 0 -28.40488)
(238.62037 0 -28.292199)
(237.5791 0 -28.155541)
(236.51171 3.90723e-17 -27.992215)
(235.42037 0 -27.800502)
(234.30768 -2.443806e-16 -27.578585)
(233.17661 3.292646e-16 -27.324818)
(232.03052 1.2459291e-16 -27.037751)
(230.87315 1.7667281e-16 -26.716148)
(229.70856 -2.7750662e-16 -26.359072)
(228.5411 -5.2295324e-17 -25.965908)
(227.37534 -2.4749968e-16 -25.536413)
(226.21601 1.8627554e-16 -25.070749)
(225.0679 -2.2002247e-16 -24.569514)
(223.93577 8.2316508e-17 -24.033742)
(222.82429 7.7830887e-17 -23.464917)
(221.7379 0 -22.864954)
(220.68075 2.7691148e-16 -22.236169)
(219.6566 -2.6007941e-16 -21.581255)
(218.66878 0 -20.903215)
(217.72007 -2.2993789e-16 -20.205319)
(216.81272 2.1536979e-16 -19.491031)
(215.94838 -1.0150166e-16 -18.76394)
(215.12813 1.9003439e-16 -18.02769)
(214.35246 -2.6701701e-16 -17.285913)
(213.62132 1.290831e-19 -16.542157)
(212.93416 -1.5601563e-16 -15.799836)
(212.28998 -7.3017175e-17 -15.062173)
(211.68738 -1.3705015e-16 -14.332162)
(211.12467 2.554806e-16 -13.612542)
(210.59988 -1.192222e-16 -12.905769)
(210.11086 0 -12.214012)
(209.65533 -3.8369771e-19 -11.539145)
(209.23094 9.6993627e-17 -10.882756)
(208.8353 0 -10.246157)
(208.46606 8.4369009e-17 -9.6303919)
(208.12089 7.8891874e-17 -9.0362606)
(207.79753 -7.3246653e-17 -8.4643344)
(207.49383 2.7271385e-16 -7.9149762)
(207.20772 -2.5352487e-16 -7.3883608)
(206.93725 -1.179131e-16 -6.8844941)
(206.68054 -1.0954177e-16 -6.4032326)
(206.43585 1.017151e-16 -5.9443005)
(206.20152 1.8868436e-16 -5.5073065)
(205.97596 -3.5000175e-16 -5.0917591)
(205.75768 4.0563415e-16 -4.6970846)
(205.5452 -1.5030252e-16 -4.3226233)
(205.33706 1.3931972e-16 -3.9676468)
(205.13183 -1.289719e-16 -3.6313774)
(204.92798 2.3886637e-16 -3.3129711)
(204.72385 -3.3160253e-16 -3.0115211)
(204.51761 2.0441792e-16 -2.7260867)
(204.30727 -8.0119586e-20 -2.455736)
(204.09075 8.7384713e-17 -2.1996032)
(203.86601 0 -1.9569169)
(203.63125 0 -1.7270099)
(203.38481 0 -1.5094742)
(203.12472 -1.2702714e-16 -1.3043912)
(202.84903 1.2185942e-20 -1.1118172)
(202.55715 0 -0.93102693)
(202.24937 0 -0.76371777)
(201.92418 9.1896918e-17 -0.61682257)
(201.58658 -1.6934937e-16 -0.48323901)
(201.25854 0 -0.33626886)
(200.92356 0 -0.23163723)
(200.46517 -1.3194302e-16 -0.23009003)
(221.11345 2.7721834e-17 -43.052055)
(261.43766 -7.8511611e-16 -20.720419)
(241.82745 3.4762278e-16 -42.404828)
(252.42403 -2.1717215e-17 -23.563011)
(244.77812 3.7293539e-16 -39.219815)
(248.03355 -3.5167937e-16 -27.129412)
(244.9253 0 -35.733029)
(245.26283 -3.1679935e-16 -30.27205)
(243.81945 2.32891e-16 -33.284711)
(243.11875 2.2120746e-16 -31.852918)
(242.08411 -2.3877444e-16 -32.333029)
(241.11198 0 -32.108597)
(240.07977 1.9173931e-19 -32.056738)
(239.02099 0 -31.93453)
(237.92966 3.8464937e-16 -31.794811)
(236.80917 -7.2664182e-16 -31.624216)
(235.66147 3.4305403e-16 -31.422722)
(234.48937 -4.0524979e-17 -31.187734)
(233.29606 -3.8510717e-17 -30.917353)
(232.0852 3.6604334e-17 -30.60975)
(230.8609 -6.8349859e-17 -30.263368)
(229.62771 -3.2380628e-16 -29.876952)
(228.39051 3.0475797e-16 -29.449621)
(227.15451 5.7451931e-17 -28.980923)
(225.9251 -2.7228821e-16 -28.470862)
(224.70781 -7.0288243e-19 -27.919965)
(223.50818 2.8920153e-16 -27.329271)
(222.33162 -1.8151908e-16 -26.700355)
(221.18335 -6.1741824e-19 -26.03531)
(220.06825 0 -25.336722)
(218.99077 0 -24.607623)
(217.95482 -7.1437999e-17 -23.851439)
(216.9637 1.337402e-16 -23.071923)
(216.02006 0 -22.273068)
(215.12583 -1.182163e-16 -21.459031)
(214.28224 2.2119904e-16 -20.634043)
(213.48982 -1.0363143e-16 -19.802315)
(212.74844 -1.9421431e-16 -18.96797)