/*--------------------------------*- C++ -*----------------------------------*\
  =========                 |
  \\      /  F ield         | OpenFOAM: The Open Source CFD Toolbox
   \\    /   O peration     | Website:  https://openfoam.org
    \\  /    A nd           | Version:  12
     \\/     M anipulation  |
\*---------------------------------------------------------------------------*/
FoamFile
{
    format      ascii;
    class       volScalarField;
    location    "0.124";
    object      k;
}
// * * * * * * * * * * * * * * * * * * * * * * * * * * * * * * * * * * * * * //

dimensions      [0 2 -2 0 0 0 0];

internalField   nonuniform List<scalar> 
16000
(
0.049778787
0.02160447
0.022481306
0.016545459
0.014035272
0.012704477
0.011914804
0.011442081
0.011122013
0.010906432
0.010747393
0.010629018
0.010536659
0.010463592
0.010404765
0.010356993
0.010317957
0.010286102
0.010260149
0.010238791
0.010221114
0.010206763
0.010195231
0.010185958
0.010178721
0.010173157
0.010169087
0.010166341
0.010164777
0.010164265
0.010164681
0.010165921
0.010167904
0.010170561
0.010173832
0.01017766
0.010181987
0.010186757
0.010191913
0.010197399
0.010203151
0.010209099
0.010215177
0.010221316
0.010227441
0.010233479
0.01023937
0.010245064
0.010250516
0.010255681
0.010260511
0.010264956
0.010268962
0.01027248
0.010275468
0.01027789
0.010279712
0.010280899
0.010281402
0.010281157
0.010280063
0.010277995
0.01027483
0.010270442
0.010264697
0.010257449
0.010248493
0.010237498
0.010223881
0.010206588
0.010184058
0.010154935
0.010122477
0.010098012
0.010079343
0.010066838
0.010059987
0.010069824
0.010048528
0.010067921
0.045248206
0.020440515
0.021035164
0.015999235
0.013689703
0.012501724
0.011751903
0.011325374
0.011021044
0.010822778
0.01067405
0.010564457
0.010478519
0.010410944
0.010356642
0.010312762
0.01027704
0.010248019
0.010224633
0.010205674
0.010190079
0.010177613
0.01016786
0.010160218
0.010154519
0.010150397
0.010147675
0.010146192
0.010145813
0.010146415
0.010147878
0.010150099
0.010152993
0.010156492
0.010160534
0.010165063
0.010170023
0.010175357
0.010181009
0.010186924
0.010193044
0.010199299
0.010205626
0.010211959
0.010218228
0.01022436
0.010230296
0.010235987
0.010241391
0.010246468
0.010251176
0.01025547
0.010259302
0.010262625
0.010265398
0.010267588
0.010269166
0.010270098
0.010270341
0.010269839
0.010268501
0.010266206
0.01026283
0.01025824
0.010252294
0.010244846
0.010235693
0.010224524
0.010210795
0.010193467
0.010170979
0.010142458
0.010111689
0.010088443
0.010070865
0.010058647
0.010053638
0.010058208
0.010048994
0.010069148
0.041981477
0.019619179
0.019703148
0.01543466
0.013336233
0.012274372
0.011583216
0.011198704
0.010917855
0.010737828
0.010600307
0.010499943
0.010420911
0.010359111
0.010309623
0.010269873
0.010237721
0.010211753
0.010191062
0.010174637
0.010161276
0.010150815
0.010142949
0.010137036
0.01013296
0.010130356
0.010129055
0.010128902
0.010129767
0.010131533
0.010134086
0.010137323
0.010141158
0.01014552
0.010150348
0.010155584
0.010161173
0.010167058
0.010173183
0.010179494
0.010185936
0.010192443
0.010198953
0.010205403
0.010211729
0.010217861
0.010223741
0.010229322
0.010234567
0.010239439
0.010243905
0.010247925
0.010251456
0.010254456
0.010256888
0.010258721
0.010259928
0.010260479
0.010260338
0.010259451
0.010257736
0.010255082
0.010251366
0.010246445
0.010240175
0.010232401
0.010222926
0.010211444
0.01019745
0.010179961
0.010157364
0.010129089
0.010100296
0.010078518
0.010062126
0.010050898
0.010046689
0.010049415
0.01004946
0.010069635
0.039146347
0.019066743
0.018548568
0.014929054
0.013016179
0.01206881
0.011428742
0.011083072
0.010823106
0.010659628
0.010532813
0.010440982
0.010368541
0.010312202
0.01026731
0.010231506
0.010202805
0.010179818
0.010161712
0.01014773
0.010136565
0.010128057
0.010122041
0.010117826
0.01011534
0.010114228
0.010114321
0.010115472
0.010117553
0.010120452
0.010124059
0.010128271
0.010133
0.010138173
0.010143727
0.010149603
0.010155745
0.010162098
0.010168607
0.010175217
0.010181876
0.010188524
0.0101951
0.010201547
0.010207807
0.010213814
0.010219512
0.010224858
0.010229817
0.010234362
0.010238463
0.010242089
0.010245204
0.01024777
0.010249752
0.010251123
0.010251859
0.010251934
0.010251314
0.010249951
0.010247772
0.010244674
0.010240533
0.010235207
0.01022854
0.010220373
0.010210509
0.010198647
0.01018431
0.010166621
0.010143991
0.010115864
0.010089048
0.010068742
0.010053579
0.010043383
0.010039408
0.010041252
0.010046739
0.010065217
0.036208137
0.01875566
0.017562762
0.014460488
0.012718236
0.011874421
0.011283863
0.010974018
0.01073463
0.010586655
0.010470337
0.010386647
0.010320659
0.010269625
0.010229231
0.010197287
0.010171981
0.010151967
0.01013641
0.010124833
0.010115873
0.010109318
0.010105142
0.010102638
0.010101731
0.01010211
0.010103597
0.010106046
0.010109332
0.010113348
0.010117984
0.010123138
0.01012872
0.010134653
0.010140872
0.010147318
0.010153933
0.010160664
0.010167456
0.010174258
0.010181019
0.010187685
0.010194201
0.010200512
0.010206569
0.010212313
0.010217691
0.010222664
0.010227204
0.010231288
0.010234894
0.010237999
0.010240574
0.010242586
0.010244005
0.010244805
0.010244964
0.01024446
0.010243264
0.01024133
0.010238592
0.010234957
0.010230304
0.010224489
0.010217348
0.010208713
0.010198388
0.010186076
0.010171306
0.010153326
0.010130719
0.010102843
0.010078018
0.010059214
0.010045338
0.010036152
0.010032275
0.010033993
0.010043067
0.010055234
0.033194864
0.018686842
0.016835717
0.014031035
0.012444016
0.011693568
0.011149924
0.010872933
0.010653337
0.010519644
0.010413505
0.010337495
0.010277751
0.010231827
0.010195796
0.010167601
0.010145603
0.010128526
0.010115484
0.010106279
0.010099526
0.010094951
0.010092582
0.010091842
0.010092467
0.010094331
0.010097201
0.010100934
0.010105404
0.010110502
0.010116124
0.010122165
0.010128534
0.01013515
0.010141946
0.010148861
0.010155838
0.010162826
0.010169772
0.010176627
0.010183345
0.01018988
0.010196182
0.010202204
0.010207902
0.010213228
0.010218136
0.010222589
0.010226566
0.010230052
0.010233031
0.010235488
0.010237402
0.010238747
0.010239494
0.01023962
0.010239106
0.010237931
0.01023607
0.01023348
0.010230102
0.010225848
0.010220607
0.010214232
0.010206552
0.010197389
0.010186546
0.010173727
0.010158458
0.010140089
0.010117556
0.010090172
0.010067321
0.010050042
0.010037479
0.010029251
0.01002549
0.010027193
0.010038007
0.010046526
0.03066808
0.018786399
0.016317478
0.01363733
0.012191297
0.011525565
0.011026692
0.010779662
0.010579129
0.010458532
0.010362227
0.010293497
0.010239804
0.010198839
0.010167074
0.010142561
0.010123815
0.010109665
0.010099136
0.010092299
0.010087756
0.010085319
0.010084646
0.010085882
0.010087861
0.010091204
0.010095445
0.01010044
0.010106058
0.010112193
0.010118738
0.010125589
0.010132653
0.010139846
0.0101471
0.010154353
0.010161551
0.010168643
0.010175582
0.010182324
0.010188829
0.010195058
0.010200972
0.01020653
0.010211699
0.010216441
0.010220716
0.010224497
0.010227765
0.010230513
0.010232734
0.01023442
0.010235557
0.010236124
0.010236098
0.010235456
0.010234179
0.01023225
0.010229644
0.010226323
0.010222231
0.010217289
0.010211392
0.010204393
0.010196119
0.010186378
0.010174966
0.010161594
0.010145782
0.010126928
0.010104466
0.010078015
0.010057099
0.010041352
0.01003009
0.010022783
0.010019213
0.010020867
0.010031487
0.01003872
0.029089368
0.018970027
0.01589825
0.013276882
0.011958628
0.011370179
0.010913608
0.010694063
0.010511667
0.010403202
0.010316429
0.010254685
0.010206904
0.01017081
0.010143259
0.010122407
0.010106899
0.010095695
0.010087714
0.010083219
0.010080838
0.010081116
0.010081698
0.010084372
0.010088283
0.010093085
0.010098671
0.010104884
0.010111592
0.010118686
0.010126059
0.010133607
0.010141237
0.010148862
0.010156415
0.010163836
0.010171072
0.010178078
0.010184815
0.010191244
0.010197336
0.010203061
0.01020839
0.010213295
0.010217751
0.010221733
0.010225211
0.010228163
0.010230578
0.010232455
0.010233792
0.010234591
0.010234844
0.010234536
0.010233646
0.010232153
0.010230037
0.010227283
0.010223865
0.01021975
0.010214884
0.010209194
0.010202584
0.010194911
0.010185997
0.01017564
0.010163619
0.010149656
0.010133285
0.010113897
0.010091416
0.010066476
0.010047453
0.01003323
0.010023233
0.010016812
0.0100135
0.010015114
0.010025206
0.010030807
0.026828997
0.019159204
0.015410175
0.012946486
0.011744373
0.011226614
0.010810004
0.010615389
0.010450997
0.010353885
0.010276337
0.010221356
0.01017937
0.010148087
0.010124722
0.010107533
0.010095269
0.010087036
0.010081679
0.010079336
0.010078657
0.010080953
0.010084283
0.010088702
0.010094118
0.010100355
0.010107228
0.010114583
0.010122284
0.010130217
0.010138277
0.010146362
0.010154379
0.010162242
0.010169887
0.010177256
0.010184305
0.010190995
0.010197297
0.010203184
0.010208636
0.010213637
0.010218171
0.010222222
0.010225777
0.010228822
0.01023134
0.010233314
0.01023474
0.010235621
0.010235964
0.010235774
0.01023505
0.010233783
0.010231954
0.01022954
0.010226524
0.010222887
0.010218606
0.010213647
0.01020796
0.010201478
0.010194111
0.010185722
0.010176132
0.010165133
0.010152479
0.010137889
0.010120965
0.010101096
0.01007843
0.010055647
0.010038476
0.01002575
0.010016964
0.010011405
0.010008427
0.010009857
0.010018829
0.01002275
0.025154728
0.019331758
0.014736495
0.012643388
0.011548471
0.011095288
0.010716703
0.01054471
0.010397683
0.010311024
0.010242378
0.010193971
0.010157666
0.010131151
0.010111953
0.010098441
0.010089441
0.010084165
0.010081608
0.010079232
0.01008417
0.010087686
0.010092717
0.010098834
0.010105791
0.010113382
0.01012144
0.010129809
0.010138348
0.010146944
0.01015549
0.01016389
0.010172054
0.010179902
0.010187375
0.010194424
0.010201013
0.010207118
0.01021272
0.010217808
0.010222376
0.010226421
0.010229942
0.010232938
0.010235407
0.010237347
0.010238753
0.010239615
0.010239932
0.010239712
0.010238967
0.010237705
0.010235931
0.010233639
0.010230813
0.01022743
0.010223469
0.010218909
0.010213728
0.010207892
0.010201353
0.010194048
0.010185893
0.010176758
0.010166468
0.010154806
0.010141512
0.010126279
0.0101088
0.010088626
0.010065738
0.010045578
0.010030232
0.010018962
0.010011317
0.010006593
0.010004031
0.010005172
0.010012563
0.010014578
0.023660239
0.019474681
0.014196046
0.012365437
0.01137142
0.010976559
0.010634222
0.01048269
0.0103519
0.010275013
0.010214969
0.01017301
0.010142302
0.010120536
0.010105507
0.010095699
0.01009001
0.01008753
0.010088174
0.010091178
0.010094876
0.010100682
0.010107565
0.010115303
0.010123677
0.010132487
0.010141561
0.010150744
0.010159895
0.010168899
0.010177655
0.010186074
0.010194075
0.010201589
0.010208568
0.010214977
0.010220795
0.010226012
0.010230627
0.010234645
0.010238077
0.010240935
0.010243234
0.010244986
0.010246201
0.010246889
0.010247053
0.01024669
0.010245803
0.010244402
0.010242499
0.010240106
0.010237232
0.010233872
0.010230011
0.010225628
0.010220695
0.010215191
0.01020909
0.01020236
0.010194953
0.010186808
0.010177849
0.010167952
0.010156945
0.010144612
0.010130687
0.010114831
0.010096776
0.010076501
0.010054198
0.010036317
0.01002276
0.010012894
0.010006315
0.010002377
0.010000273
0.010001073
0.010006898
0.010008827
0.022285213
0.01960494
0.013726743
0.01211283
0.011213141
0.01087008
0.010562356
0.010429056
0.010313978
0.010246327
0.010194608
0.010159026
0.010133863
0.010116856
0.010106018
0.010099942
0.010097633
0.010098353
0.010101375
0.010106309
0.010112968
0.010120657
0.01012925
0.010138465
0.010148077
0.010157883
0.010167714
0.010177417
0.010186857
0.010195922
0.010204521
0.01021258
0.010220035
0.010226834
0.010232946
0.010238355
0.010243061
0.010247072
0.010250407
0.010253089
0.010255145
0.010256604
0.010257495
0.010257841
0.010257665
0.010256983
0.010255807
0.010254139
0.010251985
0.01024935
0.010246249
0.010242694
0.010238693
0.010234245
0.010229336
0.010223941
0.01021803
0.010211578
0.010204556
0.01019693
0.010188654
0.010179669
0.010169902
0.010159241
0.010147514
0.010134508
0.01011997
0.010103562
0.010084963
0.010064543
0.0100437
0.010027921
0.010016072
0.010007547
0.010001963
0.0099987546
0.0099971217
0.0099976383
0.010002088
0.010003961
0.021054473
0.019693049
0.013296784
0.011885562
0.011073206
0.010775855
0.010501235
0.010384391
0.010284265
0.010225488
0.010181873
0.010152654
0.010133028
0.010120811
0.010114205
0.010111903
0.010112963
0.010116683
0.010122497
0.01012992
0.010138518
0.010148033
0.010158141
0.010168584
0.010179136
0.010189598
0.010199806
0.010209616
0.010218906
0.01022758
0.010235563
0.010242804
0.010249263
0.010254916
0.010259756
0.01026379
0.010267041
0.010269538
0.01027132
0.010272428
0.010272903
0.010272789
0.010272126
0.010270947
0.010269282
0.010267155
0.01026458
0.010261565
0.010258112
0.010254227
0.010249918
0.010245197
0.010240071
0.010234538
0.010228586
0.010222189
0.010215313
0.010207926
0.010199997
0.01019149
0.01018236
0.010172548
0.010161984
0.010150567
0.010138134
0.010124468
0.010109331
0.010092459
0.010073501
0.010052786
0.010034295
0.010020418
0.010010161
0.010002903
0.0099982534
0.0099957157
0.0099945515
0.0099949018
0.0099981829
0.0099999403
0.019944814
0.019699688
0.012906762
0.011681644
0.010950852
0.010693916
0.010450968
0.01034903
0.010263228
0.010213147
0.010177495
0.010154671
0.010140614
0.010133241
0.010130912
0.010132409
0.010136843
0.010143541
0.010151938
0.010161583
0.010172097
0.010183133
0.010194415
0.010205686
0.01021673
0.010227356
0.010237415
0.010246784
0.010255368
0.010263095
0.010269922
0.010275828
0.010280808
0.01028487
0.010288035
0.010290338
0.010291823
0.01029254
0.010292545
0.010291893
0.010290639
0.010288835
0.010286527
0.010283756
0.010280555
0.010276952
0.010272962
0.010268595
0.01026385
0.010258729
0.010253233
0.01024737
0.010241144
0.010234553
0.010227585
0.010220213
0.0102124
0.010204108
0.010195301
0.010185942
0.010175986
0.010165375
0.01015404
0.01014189
0.010128777
0.010114487
0.010098777
0.010081476
0.010062494
0.010042073
0.010025959
0.010013822
0.010005007
0.0099989246
0.0099951593
0.0099932279
0.009992494
0.0099928927
0.0099955404
0.0099974255
0.018945202
0.019488489
0.012554749
0.011500004
0.010845865
0.010624493
0.01041186
0.010323642
0.01025159
0.010210203
0.010182432
0.010166076
0.010157638
0.010155152
0.010157109
0.010162364
0.010170069
0.010179576
0.01019034
0.010201909
0.010213903
0.010225999
0.01023792
0.010249427
0.010260324
0.010270447
0.010279679
0.010287933
0.010295154
0.010301312
0.010306405
0.010310451
0.010313481
0.01031554
0.010316678
0.010316953
0.01031643
0.010315174
0.010313253
0.010310731
0.010307668
0.010304122
0.010300142
0.010295769
0.010291038
0.010285976
0.010280598
0.010274911
0.010268914
0.010262601
0.010255967
0.01024901
0.010241732
0.010234129
0.010226188
0.010217883
0.010209176
0.010200022
0.010190379
0.010180209
0.010169467
0.010158097
0.010146032
0.010133183
0.010119425
0.010104566
0.010088359
0.010070632
0.010051718
0.010032842
0.010018698
0.010008133
0.010000593
0.0099955759
0.0099926446
0.0099912495
0.0099908598
0.0099915358
0.0099941406
0.0099962798
0.018040569
0.01864547
0.012238017
0.011339939
0.010758499
0.010567992
0.01038446
0.010309187
0.010250418
0.010217828
0.010197916
0.010188089
0.010185288
0.010187662
0.010193809
0.010202649
0.010213364
0.01022532
0.010237989
0.010250926
0.010263766
0.010276199
0.010287981
0.010298906
0.010308823
0.010317619
0.010325225
0.010331612
0.010336777
0.010340744
0.010343555
0.010345269
0.010345956
0.010345688
0.010344542
0.010342592
0.010339918
0.010336592
0.010332686
0.010328267
0.010323395
0.010318126
0.010312507
0.010306578
0.010300372
0.01029391
0.010287207
0.010280266
0.010273083
0.010265647
0.010257943
0.010249963
0.0102417
0.010233146
0.01022429
0.010215106
0.010205558
0.010195595
0.01018517
0.010174239
0.010162761
0.010150683
0.010137938
0.010124441
0.010110081
0.010094702
0.010078113
0.010060124
0.010041041
0.010024894
0.010012507
0.01000334
0.0099969079
0.0099928278
0.0099906725
0.0099897552
0.0099895796
0.0099906509
0.0099936746
0.0099962816
0.017222737
0.017288992
0.011958627
0.011201184
0.010687836
0.010525347
0.010369824
0.010307083
0.010261162
0.010237496
0.010225399
0.010222084
0.010224825
0.010231882
0.010241934
0.010253954
0.010267148
0.010280895
0.01029469
0.010308113
0.010320836
0.010332598
0.01034321
0.010352538
0.0103605
0.010367056
0.01037221
0.010375994
0.010378469
0.010379709
0.010379799
0.010378836
0.010376914
0.010374129
0.01037057
0.010366323
0.010361468
0.010356078
0.010350222
0.010343963
0.010337355
0.010330447
0.010323281
0.010315891
0.010308303
0.010300537
0.010292601
0.010284496
0.010276214
0.010267739
0.010259051
0.010250131
0.010240963
0.010231534
0.01022183
0.01021183
0.010201499
0.010190787
0.010179641
0.01016801
0.010155852
0.010143122
0.010129758
0.010115675
0.010100775
0.010084919
0.010067997
0.010050141
0.010032082
0.010018078
0.010007328
0.0099994084
0.0099939405
0.0099906616
0.0099891981
0.0099887398
0.0099886699
0.0099901176
0.0099938681
0.0099970622
0.01648762
0.016425346
0.011722719
0.011084141
0.010634774
0.010497953
0.01036945
0.010319013
0.010285519
0.010270842
0.010266435
0.01026946
0.010277444
0.010288736
0.010302077
0.010316491
0.010331211
0.010345659
0.010359382
0.01037203
0.010383354
0.010393187
0.010401433
0.010408059
0.010413073
0.010416526
0.010418494
0.010419076
0.010418384
0.010416536
0.010413647
0.010409835
0.010405209
0.010399871
0.010393913
0.01038742
0.010380465
0.010373115
0.010365429
0.010357458
0.010349248
0.010340838
0.010332259
0.010323538
0.010314695
0.010305742
0.010296686
0.010287523
0.010278242
0.010268824
0.010259244
0.010249474
0.010239489
0.010229269
0.010218795
0.010208047
0.010196996
0.010185596
0.010173793
0.010161528
0.010148756
0.010135435
0.010121512
0.010106909
0.010091538
0.010075304
0.010058092
0.010040191
0.010024507
0.010012342
0.010003066
0.0099962716
0.0099916664
0.0099890682
0.0099881504
0.0099881573
0.0099882475
0.0099899799
0.0099941384
0.0099977872
0.015827348
0.015423105
0.011521266
0.010989333
0.010600267
0.010487509
0.010384983
0.010346885
0.010325407
0.010319649
0.010322614
0.010331498
0.010344014
0.010358595
0.010374058
0.0103895
0.01040424
0.010417795
0.010429835
0.010440138
0.010448586
0.010455144
0.010459841
0.010462752
0.010463986
0.010463672
0.010461951
0.01045897
0.010454874
0.010449804
0.010443889
0.010437248
0.010429991
0.010422214
0.010414
0.010405422
0.010396541
0.010387411
0.010378077
0.010368576
0.010358941
0.0103492
0.010339372
0.010329476
0.010319522
0.010309518
0.010299464
0.010289357
0.010279181
0.010268918
0.010258537
0.010248008
0.010237297
0.010226374
0.010215213
0.010203792
0.010192086
0.01018006
0.010167663
0.010154834
0.010141517
0.010127668
0.010113248
0.010098189
0.0100824
0.010065857
0.010048711
0.010031543
0.010018093
0.010007574
0.0099996085
0.0099938292
0.0099900167
0.0099880472
0.0099874526
0.0099877366
0.0099882216
0.0099901714
0.0099944635
0.0099983446
0.01523625
0.014742834
0.011356677
0.010917441
0.010585366
0.010496218
0.010418612
0.010393059
0.010383062
0.010385767
0.010395271
0.010408867
0.010424456
0.010440598
0.010456255
0.01047069
0.010483402
0.01049409
0.010502611
0.010508927
0.010513084
0.010515191
0.010515398
0.010513878
0.010510817
0.010506397
0.010500796
0.010494182
0.01048671
0.010478518
0.010469731
0.010460455
0.010450785
0.010440801
0.01043057
0.010420147
0.010409577
0.010398897
0.010388136
0.010377317
0.010366458
0.010355575
0.010344676
0.010333769
0.010322858
0.010311943
0.010301021
0.010290084
0.010279118
0.010268103
0.01025701
0.010245807
0.010234454
0.010222915
0.010211153
0.010199139
0.010186849
0.010174256
0.010161323
0.010147994
0.010134206
0.0101199
0.010105038
0.010089588
0.010073477
0.010056631
0.010039436
0.01002443
0.010012716
0.010003654
0.0099968379
0.0099919648
0.0099888695
0.0099874582
0.0099871262
0.0099876192
0.0099883804
0.0099906253
0.0099948986
0.0099988349
0.014708681
0.013990279
0.011225611
0.010871102
0.010591924
0.010527429
0.010473395
0.010460255
0.010460583
0.010470355
0.010484524
0.010500598
0.01051676
0.01053183
0.01054505
0.010555969
0.010564359
0.010570169
0.010573482
0.010574448
0.010573268
0.010570169
0.010565387
0.010559153
0.010551687
0.01054319
0.010533842
0.010523804
0.010513214
0.010502192
0.010490843
0.010479249
0.010467481
0.010455598
0.010443646
0.010431661
0.010419669
0.010407691
0.01039574
0.010383824
0.010371949
0.010360116
0.010348326
0.010336575
0.010324859
0.010313174
0.01030151
0.010289858
0.010278202
0.010266525
0.0102548
0.010242996
0.010231075
0.010218996
0.010206715
0.010194194
0.0101814
0.010168307
0.010154889
0.010141112
0.010126919
0.010112236
0.010096996
0.010081178
0.01006483
0.010048071
0.010031436
0.010018487
0.010008282
0.010000463
0.0099946418
0.0099905605
0.0099880958
0.0099871267
0.0099870261
0.0099877154
0.0099886915
0.0099911927
0.0099954255
0.0099992716
0.014244304
0.013407794
0.011132743
0.010855022
0.010623846
0.010585204
0.010552443
0.01055032
0.010558428
0.010572332
0.01058786
0.010602951
0.010616258
0.010627035
0.010634931
0.010639859
0.010641907
0.010641276
0.010638238
0.010633089
0.010626127
0.010617638
0.010607885
0.010597108
0.010585517
0.010573293
0.010560593
0.010547546
0.01053426
0.010520825
0.010507315
0.010493785
0.010480282
0.010466839
0.010453481
0.010440225
0.010427082
0.010414055
0.010401144
0.010388346
0.010375653
0.010363057
0.010350546
0.010338111
0.01032574
0.01031342
0.010301139
0.010288883
0.010276637
0.010264383
0.010252099
0.010239758
0.010227327
0.010214768
0.010202036
0.010189085
0.010175873
0.010162362
0.010148525
0.01013434
0.010119779
0.01010479
0.010089287
0.01007318
0.010056496
0.010039716
0.010025056
0.010013591
0.010004677
0.0099979022
0.0099929271
0.0099895194
0.0099875678
0.0099869276
0.009987224
0.0099879095
0.0099891312
0.0099918289
0.0099959468
0.0099994327
0.013848527
0.012945323
0.011080559
0.010874303
0.010705809
0.010672591
0.010656826
0.010662062
0.010673441
0.01068685
0.010699208
0.010709122
0.010715896
0.010719321
0.010719483
0.010716638
0.010711128
0.010703326
0.010693605
0.010682318
0.01066978
0.010656267
0.010642017
0.010627232
0.01061208
0.010596698
0.010581199
0.010565673
0.010550191
0.010534808
0.010519567
0.010504497
0.010489619
0.010474946
0.010460484
0.010446234
0.01043219
0.010418344
0.010404685
0.010391199
0.010377869
0.010364677
0.010351605
0.010338635
0.010325747
0.010312923
0.010300147
0.010287398
0.010274661
0.010261918
0.010249148
0.010236329
0.010223436
0.010210437
0.010197297
0.010183971
0.010170413
0.010156574
0.010142409
0.010127886
0.010112982
0.010097686
0.010081975
0.010065809
0.010049213
0.010032774
0.010019902
0.010009686
0.010001817
0.0099958962
0.0099916291
0.0099888072
0.0099873044
0.0099868583
0.0099873103
0.009988131
0.0099896084
0.0099925281
0.0099965402
0.00999962
0.013530567
0.012573032
0.011073164
0.010928977
0.010807834
0.010788851
0.010782845
0.01078928
0.010797753
0.010805119
0.01080954
0.010810435
0.010807773
0.01080182
0.010792989
0.010781743
0.010768537
0.010753786
0.010737858
0.010721069
0.010703681
0.01068591
0.01066793
0.010649881
0.010631872
0.010613989
0.010596298
0.010578847
0.010561671
0.010544793
0.010528229
0.010511985
0.010496062
0.010480456
0.010465156
0.010450152
0.010435426
0.010420961
0.010406736
0.010392729
0.010378918
0.010365277
0.010351783
0.010338409
0.010325132
0.010311928
0.010298773
0.010285645
0.010272522
0.010259384
0.010246211
0.010232983
0.010219678
0.010206275
0.010192748
0.010179066
0.010165193
0.010151082
0.010136683
0.010121939
0.010106798
0.010091225
0.010075221
0.01005885
0.010042429
0.010027478
0.010015852
0.010006688
0.0099996508
0.0099944041
0.0099906953
0.0099883487
0.0099872201
0.0099869288
0.009987415
0.009988283
0.009989891
0.0099929721
0.0099970751
0.0099999788
0.013307232
0.012302864
0.011113425
0.011025541
0.010940142
0.010925477
0.010920367
0.010920653
0.01091987
0.010916256
0.010909158
0.010898706
0.010885327
0.010869545
0.010851883
0.010832818
0.01081276
0.010792049
0.010770962
0.010749718
0.010728488
0.010707404
0.010686565
0.010666045
0.010645895
0.010626153
0.010606841
0.010587972
0.010569552
0.01055158
0.010534047
0.010516943
0.010500253
0.01048396
0.010468044
0.010452483
0.010437253
0.010422329
0.010407686
0.010393296
0.01037913
0.010365161
0.010351359
0.010337695
0.010324139
0.010310665
0.010297242
0.010283845
0.010270446
0.010257021
0.010243546
0.010229999
0.01021636
0.010202608
0.010188726
0.010174695
0.010160495
0.010146099
0.010131474
0.010116575
0.010101339
0.010085691
0.010069579
0.010053082
0.010036802
0.010023439
0.010012803
0.010004494
0.0099981258
0.009993403
0.0099901045
0.0099880871
0.0099872214
0.0099870439
0.0099875775
0.0099884892
0.0099900977
0.0099929654
0.0099967488
0.0099996285
0.013178604
0.012133607
0.011206538
0.011152919
0.011087501
0.011069002
0.011055035
0.011042499
0.011027801
0.011010445
0.01099056
0.010968611
0.010945129
0.010920606
0.010895458
0.010870022
0.010844561
0.010819276
0.010794313
0.010769783
0.010745759
0.010722293
0.010699416
0.010677145
0.010655486
0.010634435
0.010613985
0.010594122
0.010574826
0.01055608
0.01053786
0.010520143
0.010502903
0.010486115
0.01046975
0.010453782
0.010438182
0.01042292
0.010407966
0.010393291
0.010378864
0.010364654
0.01035063
0.01033676
0.010323012
0.010309356
0.010295759
0.010282191
0.010268621
0.01025502
0.010241358
0.010227609
0.010213747
0.01019975
0.010185597
0.010171272
0.010156759
0.010142048
0.010127127
0.010111983
0.010096592
0.010080906
0.010064872
0.010048554
0.010032625
0.010020402
0.010010582
0.010002953
0.0099971269
0.0099928271
0.0099898386
0.0099880254
0.0099873056
0.0099872214
0.0099877688
0.0099887603
0.0099904435
0.0099931829
0.0099966696
0.0099994484
0.013111767
0.012061147
0.011363609
0.011294601
0.011233413
0.01120069
0.011171006
0.011142124
0.011112342
0.011081665
0.011050359
0.011018786
0.010987273
0.010956083
0.010925413
0.010895402
0.010866144
0.010837697
0.010810094
0.010783346
0.010757452
0.010732399
0.010708168
0.010684735
0.010662072
0.010640149
0.010618935
0.010598398
0.010578506
0.010559227
0.010540528
0.010522378
0.010504744
0.010487596
0.010470901
0.010454628
0.010438746
0.010423224
0.010408029
0.010393132
0.010378499
0.010364099
0.010349902
0.010335874
0.010321984
0.010308199
0.010294488
0.010280817
0.010267155
0.010253468
0.010239724
0.010225891
0.01021194
0.010197841
0.010183566
0.010169091
0.010154395
0.01013946
0.010124272
0.010108825
0.010093113
0.010077133
0.010060918
0.010044714
0.01002981
0.010018254
0.010009048
0.010001916
0.0099965065
0.0099925553
0.0099898483
0.0099882156
0.0099874985
0.0099875185
0.0099880853
0.0099891327
0.0099907927
0.0099932472
0.0099962838
0.009999036
0.013119329
0.012019895
0.011517921
0.011426795
0.011354138
0.011302996
0.011256229
0.011212331
0.01117
0.011129048
0.011089417
0.011051131
0.011014205
0.010978642
0.010944426
0.010911524
0.010879898
0.010849498
0.010820274
0.010792171
0.010765137
0.010739118
0.01071406
0.010689915
0.010666632
0.010644166
0.010622471
0.010601504
0.010581225
0.010561593
0.010542572
0.010524123
0.010506212
0.010488803
0.010471864
0.01045536
0.01043926
0.01042353
0.01040814
0.010393057
0.010378251
0.010363689
0.010349341
0.010335175
0.01032116
0.010307266
0.01029346
0.010279711
0.010265986
0.010252255
0.010238485
0.010224645
0.010210701
0.010196623
0.01018238
0.010167942
0.010153279
0.010138363
0.010123169
0.010107675
0.010091857
0.010075704
0.010059266
0.010042926
0.010028511
0.010017271
0.010008352
0.010001462
0.0099962597
0.0099924856
0.0099899256
0.0099884047
0.0099877603
0.0099878287
0.0099884672
0.00998962
0.0099913155
0.0099935955
0.0099962918
0.0099988942
0.013210451
0.012044397
0.011633571
0.011522948
0.011434916
0.011367889
0.011308245
0.011254047
0.011203652
0.011156403
0.011111853
0.011069706
0.011029732
0.010991745
0.010955585
0.010921114
0.010888209
0.010856759
0.010826665
0.010797835
0.010770187
0.010743645
0.010718138
0.010693602
0.010669975
0.010647203
0.010625232
0.010604014
0.010583503
0.010563655
0.01054443
0.010525788
0.010507692
0.010490105
0.010472992
0.010456319
0.010440054
0.010424163
0.010408614
0.010393376
0.010378418
0.010363708
0.010349217
0.010334914
0.01032077
0.010306753
0.010292834
0.010278982
0.010265169
0.010251364
0.010237538
0.010223662
0.010209706
0.010195643
0.010181445
0.010167087
0.010152541
0.010137783
0.01012279
0.010107541
0.010092012
0.010076183
0.010060075
0.01004396
0.010029245
0.010017875
0.010008843
0.01000188
0.0099966297
0.0099928228
0.0099902317
0.0099886741
0.0099879945
0.0099880505
0.009988725
0.0099899171
0.009991593
0.0099936855
0.0099961017
0.0099986981
0.013335032
0.012100843
0.01169402
0.011571509
0.011473263
0.011397939
0.011332221
0.011273533
0.011219814
0.011170075
0.011123638
0.011080045
0.011038948
0.011000077
0.010963214
0.010928174
0.010894802
0.010862961
0.010832535
0.010803418
0.010775517
0.010748748
0.010723034
0.010698304
0.010674497
0.010651551
0.010629414
0.010608033
0.010587362
0.010567356
0.010547972
0.010529172
0.010510917
0.01049317
0.010475896
0.010459061
0.010442632
0.010426575
0.010410859
0.010395452
0.010380324
0.010365443
0.010350779
0.010336303
0.010321983
0.01030779
0.010293695
0.010279667
0.010265677
0.010251696
0.010237695
0.010223644
0.010209516
0.010195283
0.010180919
0.010166397
0.010151692
0.010136782
0.010121642
0.010106255
0.010090601
0.010074665
0.010058498
0.010042476
0.010028433
0.010017412
0.010008658
0.010001882
0.0099967646
0.0099930382
0.0099904701
0.0099888807
0.0099881569
0.0099880132
0.0099889156
0.0099900827
0.0099917386
0.0099937005
0.0099959463
0.0099985454
65.977671
359.92162
120.78745
14.511027
0.40003466
0.021356495
0.020086521
0.019787719
0.019529349
0.018478043
0.017144247
0.015957733
0.015057581
0.01448676
0.014081246
0.013696949
0.013322765
0.012990896
0.012712179
0.012479025
0.012280931
0.012110131
0.011961401
0.011830956
0.011715789
0.011613431
0.01152189
0.011439569
0.011365216
0.011297848
0.011236648
0.011180903
0.011129993
0.011083395
0.011040696
0.011001563
0.010965712
0.010932888
0.01090286
0.01087542
0.010850387
0.010827587
0.010806846
0.010788002
0.010770898
0.010755376
0.010741271
0.010728423
0.010716693
0.010705958