/*--------------------------------*- C++ -*----------------------------------*\
  =========                 |
  \\      /  F ield         | OpenFOAM: The Open Source CFD Toolbox
   \\    /   O peration     | Website:  https://openfoam.org
    \\  /    A nd           | Version:  12
     \\/     M anipulation  |
\*---------------------------------------------------------------------------*/
FoamFile
{
    format      ascii;
    class       volScalarField;
    location    "0.124";
    object      omega;
}
// * * * * * * * * * * * * * * * * * * * * * * * * * * * * * * * * * * * * * //

dimensions      [0 0 -1 0 0 0 0];

internalField   nonuniform List<scalar> 
16000
(
1089.1872
2185.6927
1069.6786
644.15432
454.54
316.04543
239.81783
181.0208
145.82802
118.05736
100.30976
85.847768
75.139168
66.188968
58.88869
52.737469
47.545393
43.117347
39.312806
36.019745
33.153887
30.644323
28.432682
26.472404
24.725964
23.164187
21.762906
20.503457
19.370022
18.348165
17.424837
16.589743
15.834681
15.152712
14.537909
13.984764
13.488094
13.043009
12.645418
12.291871
11.978491
11.701202
11.457037
11.243295
11.056907
10.894757
10.754422
10.633605
10.5301
10.441816
10.366882
10.303659
10.250618
10.206416
10.169877
10.140108
10.116539
10.098993
10.087868
10.083759
10.083929
10.083345
10.082151
10.08044
10.078089
10.075026
10.071166
10.066409
10.060569
10.053274
10.044039
10.03279
10.021262
10.013249
10.007783
10.004826
10.004125
10.011431
10.007409
10.020574
1130.7981
2177.3046
1060.8535
644.51577
454.66593
318.94793
240.86603
182.82832
146.64479
119.07979
100.84348
86.404858
75.493453
66.496476
59.110244
52.909189
47.670471
43.207821
39.37616
36.061604
33.179078
30.657368
28.437162
26.471193
24.720896
23.156723
21.753808
20.493138
19.358975
18.337127
17.414279
16.579779
15.825285
15.143743
14.529262
13.976401
13.480087
13.035369
12.637969
12.284558
11.971551
11.694654
11.450744
11.237242
11.051255
10.889516
10.749559
10.629105
10.525976
10.438075
10.363499
10.300619
10.247906
10.204017
10.16775
10.138169
10.114652
10.096907
10.08508
10.079763
10.079574
10.078952
10.077674
10.075889
10.073474
10.070353
10.066443
10.061647
10.055814
10.048616
10.039563
10.028638
10.01773
10.010168
10.00509
10.002182
10.002232
10.007057
10.008203
10.021681
1170.8218
2178.9883
1049.4599
640.84765
451.28919
319.18756
239.75832
183.01001
146.18957
119.23038
100.68389
86.411195
75.386241
66.394865
58.976031
52.763785
47.514553
43.047005
39.214372
35.901101
33.021737
30.505156
28.291495
26.333263
24.591104
23.035386
21.640785
20.388013
19.261359
18.246988
17.331517
16.504032
15.756116
15.080625
14.471711
13.923985
13.432507
12.992374
12.599129
12.24942
11.940039
11.666576
11.425731
11.214946
11.031583
10.872266
10.734484
10.615976
10.5146
10.42829
10.355117
10.293482
10.241862
10.198938
10.163511
10.134618
10.111614
10.094172
10.082291
10.07629
10.075609
10.074872
10.073457
10.071541
10.069007
10.065776
10.061763
10.056876
10.050983
10.043807
10.034865
10.024152
10.013988
10.006972
10.002311
9.9997459
10.000067
10.003955
10.008892
10.02235
1209.0648
2187.5548
1039.4767
637.39923
447.50059
319.22325
238.35119
183.03189
145.59324
119.28005
100.47308
86.355718
75.23807
66.246189
58.801663
52.579925
47.323424
42.853388
39.022231
35.712532
32.838347
30.32878
28.123367
26.174534
24.442054
22.896265
21.511406
20.267898
19.149967
18.144179
17.237171
16.41774
15.677406
15.008912
14.406456
13.864682
13.378776
12.94394
12.555568
12.210148
11.904917
11.63541
11.398138
11.190467
11.010084
10.853522
10.71821
10.601899
10.50248
10.417941
10.346321
10.286053
10.235623
10.193742
10.159218
10.131071
10.108622
10.091518
10.079689
10.073279
10.072014
10.071114
10.06953
10.067451
10.064768
10.061401
10.057263
10.052262
10.046281
10.039101
10.030268
10.019704
10.010284
10.003811
9.9995883
9.997397
9.99778
10.001225
10.008037
10.020821
1245.3437
2205.9787
1031.2239
633.68034
442.96736
318.51976
236.26448
182.56785
144.62024
119.05186
100.07463
86.123953
74.951286
65.965684
58.512674
52.292366
47.039503
42.575974
38.754335
35.455367
32.592597
30.095567
27.903261
25.968214
24.2494
22.717195
21.345476
20.114418
19.008086
18.013483
17.117388
16.308312
15.577744
14.918293
14.324217
13.790173
13.311461
12.883434
12.501422
12.161597
11.86167
11.5972
11.364547
11.160866
10.984233
10.831129
10.69891
10.58534
10.488333
10.405962
10.33623
10.277613
10.228609
10.187962
10.154504
10.127245
10.105482
10.088834
10.0772
10.070634
10.06879
10.067669
10.065882
10.063606
10.06074
10.057206
10.052915
10.047775
10.041675
10.034448
10.02572
10.015328
10.00666
10.000741
9.9969816
9.9951603
9.9955405
9.9988204
10.006939
10.016777
1279.517
2231.8705
1027.5155
630.69369
438.96654
317.18945
233.70081
181.6957
143.37452
118.58368
99.532883
85.737961
74.545267
65.570536
58.123532
51.9143
46.674297
42.224994
38.41967
35.137573
32.291573
29.811864
27.636895
25.719348
24.017703
22.502319
21.146758
19.931014
18.838895
17.857828
16.974878
16.178251
15.459444
14.810908
14.226967
13.702288
13.232256
12.812389
12.438089
12.105091
11.811503
11.553008
11.32592
11.12701
10.954793
10.805752
10.677161
10.566799
10.472582
10.392711
10.325141
10.268407
10.221017
10.181755
10.149487
10.123226
10.102244
10.086136
10.074779
10.068163
10.065893
10.0645
10.062481
10.059977
10.056902
10.053174
10.048707
10.043408
10.037168
10.029857
10.021228
10.01107
10.003154
9.9978001
9.9945182
9.9930529
9.9934508
9.9965983
10.005158
10.013814
1311.5437
2262.86
1027.6992
627.86686
435.02014
315.22124
231.04368
180.45106
141.95486
117.8785
98.856892
85.196623
74.016304
65.058696
57.631094
51.44281
46.224787
41.797535
38.015204
34.756228
31.932506
29.475067
27.321953
25.425316
23.744538
22.249429
20.913247
19.715892
18.640825
17.675847
16.80846
16.026547
15.32166
14.686058
14.114143
13.600589
13.140844
12.730569
12.365385
12.040682
11.754525
11.502947
11.282384
11.089078
10.921939
10.777556
10.653117
10.546424
10.45536
10.378302
10.313153
10.258518
10.212917
10.175178
10.144212
10.119043
10.098931
10.083442
10.072435
10.06587
10.063285
10.061581
10.059302
10.056546
10.053237
10.049295
10.044631
10.039155
10.032761
10.025331
10.01678
10.006996
9.9998225
9.9950394
9.9922361
9.9911164
9.9915747
9.994617
10.002834
10.010321
1341.5323
2296.4421
1029.4398
624.72892
431.1522
312.60594
228.39574
178.97352
140.43739
116.95782
98.063606
84.508534
73.365566
64.432273
57.035518
50.877394
45.689929
41.292455
37.538903
34.309209
31.513336
29.083178
26.956792
25.082579
23.426503
21.955352
20.642018
19.466401
18.411521
17.465453
16.616306
15.85161
15.163031
14.542596
13.98479
13.484293
13.036613
12.637506
12.282864
11.968674
11.691089
11.447344
11.234239
11.04748
10.88605
10.746874
10.627083
10.524488
10.436898
10.362932
10.300428
10.248074
10.204412
10.16831
10.138734
10.114736
10.095565
10.080758
10.070155
10.063713
10.060919
10.058874
10.056313
10.053285
10.049722
10.045548
10.040672
10.035005
10.02845
10.020881
10.012354
10.003144
9.996702
9.9924916
9.9901593
9.9893775
9.9899343
9.9928704
10.000564
10.007664
1369.578
2330.434
1028.0194
620.81936
426.37948
309.28891
224.86556
177.10222
138.59501
115.85219
97.148833
83.672894
72.586117
63.686633
56.331859
50.212397
45.064099
40.704707
36.98279
33.788498
31.026385
28.628852
26.534945
24.691957
23.064982
21.621908
20.33517
19.184815
18.153395
17.229114
16.40088
15.655877
14.985953
14.382853
13.841156
13.355551
12.921606
12.535169
12.192194
11.888653
11.620948
11.386034
11.181312
11.002575
10.847472
10.713998
10.599388
10.501284
10.417457
10.346818
10.287142
10.23722
10.195616
10.161238
10.133119
10.110347
10.09217
10.078099
10.067942
10.061665
10.058745
10.05634
10.05348
10.050165
10.046335
10.041916
10.036818
10.030948
10.024228
10.016525
10.007935
9.9995538
9.9938284
9.9901858
9.9883095
9.9878601
9.9885592
9.9913729
9.998346
10.00496
1395.7792
2363.2162
1019.3296
615.82798
419.89933
305.52729
220.50011
174.75729
136.6929
114.56521
96.102333
82.684518
71.669964
62.813848
55.512139
49.435015
44.333459
40.021022
36.34528
33.195012
30.474222
28.115746
26.059896
24.252554
22.659357
21.248618
19.992385
18.870982
17.866488
16.967036
16.162456
15.439731
14.790916
14.20741
13.683895
13.215066
12.796545
12.424276
12.094373
11.80287
11.546092
11.320854
11.125079
10.954266
10.806197
10.678888
10.570324
10.47707
10.397316
10.330187
10.273492
10.226108
10.186648
10.154054
10.12743
10.105915
10.088767
10.075473
10.065794
10.059703
10.05671
10.053936
10.050767
10.047157
10.043049
10.038377
10.033052
10.026973
10.02008
10.012291
10.003593
9.9962502
9.9912264
9.9881404
9.9867001
9.9865748
9.9874563
9.9901543
9.9963663
10.002347
1420.2533
2394.0822
1010.4914
609.77171
411.76871
301.3646
215.87284
172.21561
134.69453
113.09692
94.911262
81.536398
70.60549
61.793446
54.553894
48.540433
43.499396
39.245477
35.624469
32.526934
29.855011
27.542201
25.530513
23.764517
22.210023
20.836031
19.614418
18.525839
17.551927
16.680548
15.902138
15.204326
14.579136
14.017524
13.514282
13.064106
12.662679
12.306017
11.990407
11.711979
11.467144
11.252513
11.066389
10.904232
10.763672
10.642694
10.539842
10.451799
10.376704
10.313226
10.259666
10.214897
10.177633
10.146852
10.121735
10.101483
10.085375
10.072885
10.063715
10.057809
10.054759
10.05162
10.048135
10.044226
10.039839
10.034909
10.029357
10.023073
10.015995
10.008177
9.9996896
9.9932535
9.9889134
9.9863664
9.9853394
9.9855228
9.9866071
9.9891959
9.9947234
10.000203
1443.1249
2424.0404
997.11739
602.18811
402.23322
296.79432
211.07382
169.41793
132.6711
111.45348
93.548469
80.198295
69.355058
60.619066
53.460763
47.525418
42.558202
38.374717
34.818915
31.78311
29.168486
26.908353
24.947064
23.228249
21.717782
20.384769
19.202097
18.15041
17.21091
16.371185
15.620181
14.949944
14.350954
13.813598
13.332765
12.90314
12.520486
12.180865
11.880777
11.616464
11.384466
11.181969
11.00599
10.852903
10.720297
10.606029
10.509118
10.426321
10.355569
10.295874
10.245801
10.203733
10.168693
10.139727
10.116099
10.097093
10.082012
10.070335
10.061703
10.055978
10.052839
10.049349
10.045547
10.041342
10.036678
10.03149
10.025714
10.019245
10.011981
10.004102
9.9961872
9.9905911
9.9868992
9.9848668
9.9842308
9.9847027
9.9860031
9.9884958
9.9933978
9.9985761
1464.7028
2452.2987
979.83993
593.67344
392.17322
291.81326
206.20432
166.42143
130.59707
109.61303
91.948959
78.653673
67.923862
59.284792
52.226337
46.386303
41.507334
37.407029
33.927458
30.963004
28.414477
26.214668
24.309845
22.644406
21.183879
19.894408
18.755127
17.744592
16.843439
16.039501
15.321688
14.681624
14.111243
13.600335
13.14383
12.73638
12.373881
12.052405
11.768709
11.519237
11.300443
11.109432
10.944107
10.800478
10.676186
10.569353
10.478377
10.400952
10.334775
10.278761
10.23179
10.192699
10.15993
10.132769
10.110589
10.092785
10.078697
10.067813
10.059751
10.054218
10.050902
10.047082
10.042968
10.038473
10.033541
10.028104
10.022104
10.015471
10.008078
10.000057
9.9931093
9.9882793
9.985189
9.9836376
9.9833731
9.9841049
9.985622
9.9880768
9.9923578
9.9971559
1485.2248
2475.1704
958.39865
584.60814
381.66922
286.47426
201.35099
163.23317
128.40142
107.48075
90.097091
76.891871
66.299263
57.782512
50.844622
45.118357
40.343508
36.340197
32.949115
30.065686
27.592856
25.461971
23.617453
22.011685
20.607838
19.371344
18.280509
17.315723
16.457034
15.692361
15.010429
14.403054
13.863088
13.380514
12.949984
12.566046
12.224829
11.92237
11.655665
11.421515
11.216461
11.037484
10.882856
10.748758
10.632722
10.532692
10.447669
10.375572
10.314379
10.262168
10.218182
10.181656
10.15138
10.126047
10.105264
10.088598
10.075451
10.065311
10.057827
10.052546
10.048911
10.044783
10.040367
10.035593
10.030404
10.024735
10.018519
10.01172
10.004316
9.9963946
9.990445
9.9863294
9.9837866
9.9826687
9.9827601
9.9837155
9.9854164
9.9879345
9.9919299
9.9964389
1504.9487
2488.0483
932.83495
574.89263
370.78692
280.81026
196.58869
159.77436
125.96403
105.06416
87.965729
74.895311
64.468958
56.102248
49.308376
43.716631
39.063935
35.171954
31.883246
29.08807
26.700777
24.648657
22.87831
21.339907
19.999389
18.82132
17.784065
16.869026
16.056619
15.334613
14.691528
14.11911
13.609581
13.15669
12.753389
12.393924
12.074798
11.791993
11.542646
11.324054
11.132875
10.966822
10.822814
10.698152
10.590474
10.497441
10.418164
10.351017
10.294195
10.246183
10.2052
10.17104
10.142878
10.119574
10.100175
10.084567
10.0723
10.06283
10.055877
10.050928
10.046844
10.042424
10.037719
10.03268
10.02725
10.021368
10.014964
10.00799
10.000597
9.9933106
9.9881933
9.9847414
9.9826991
9.9819463
9.9823801
9.9835253
9.9853524
9.9879812
9.991899
9.996234
1524.0942
2480.8757
903.51624
564.57572
359.57318
274.82674
191.91162
155.918
123.20778
102.31866
85.525406
72.641505
62.417117
54.233068
47.610343
42.175693
37.665943
33.896438
30.725476
28.038876
25.750626
23.788077
22.100375
20.637248
19.366389
18.252839
17.274153
16.410737
15.647667
14.970984
14.368854
13.83362
13.357754
12.935075
12.559599
12.224964
11.928159
11.665187
11.433114
11.229958
11.052107
10.897617
10.764131
10.648681
10.549213
10.463697
10.390101
10.327723
10.274877
10.230541
10.192898
10.161032
10.134742
10.113177
10.095327
10.080719
10.069267
10.060396
10.05385
10.049152
10.044691
10.039987
10.03501
10.029721
10.024065
10.017987
10.011434
10.004347
9.9968581
9.9907293
9.9863506
9.9834997
9.9819414
9.9814594
9.9822152
9.9835267
9.9854178
9.9881623
9.992194
9.9964696
1542.8318
2433.446
871.86786
553.68865
348.08572
268.43672
187.01048
151.63708
120.01938
99.196781
82.742746
70.106046
60.128094
52.165534
45.744073
40.486188
36.142151
32.525246
29.49202
26.929105
24.753778
22.892165
21.296208
19.916123
18.718461
17.674172
16.758738
15.952814
15.241195
14.611662
14.051718
13.554244
13.112046
12.719432
12.371445
12.061433
11.786649
11.543378
11.328342
11.140279
10.97555
10.832224
10.708706
10.602008
10.510045
10.431152
10.363636
10.305868
10.256731
10.215713
10.181005
10.151685
10.127103
10.107074
10.090569
10.077064
10.06636
10.058048
10.051799
10.04723
10.042441
10.037465
10.032233
10.026713
10.020851
10.01459
10.007899
10.000859
9.9937984
9.9885911
9.9849001
9.9825756
9.9814704
9.9812211
9.9822399
9.9837087
9.9856324
9.9884401
9.9926632
9.9969943
1561.0321
2397.272
839.94931
542.17742
336.32783
261.09901
181.95959
146.829
116.28528
95.640904
79.583069
67.265167
57.586784
49.891538
43.697263
38.659712
34.51394
31.073644
28.199311
25.777105
23.72788
21.978243
20.479092
19.189113
18.072824
17.10141
16.251654
15.504635
14.845232
14.263031
13.745427
13.285608
12.876829
12.51349
12.190819
11.904691
11.651118
11.427
11.229481
11.055846
10.903809
10.771087
10.656852
10.558432
10.473561
10.400698
10.338358
10.285175
10.239906
10.201889
10.169847
10.142772
10.12003
10.101338
10.086056
10.073571
10.063561
10.055802
10.049791
10.045154
10.040098
10.034865
10.029396
10.023658
10.01761
10.011203
10.004389
9.9973139
9.9912778
9.9868717
9.9838116
9.9819373
9.9811904
9.9811469
9.9824251
9.9840362
9.9860121
9.9888574
9.993102
9.9974566
1578.2375
2355.9614
807.12429
529.70577
324.19778
252.57939
176.56598
141.37924
111.89753
91.590499
76.013323
64.098371
54.774733
47.39678
41.495079
36.718509
32.805061
29.567808
26.872431
24.60688
22.691732
21.063947
19.672297
18.47649
17.443757
16.546779
15.763292
15.075326
14.467573
13.930174
13.453846
13.030501
12.654014
12.31933
12.022135
11.758508
11.524918
11.318347
11.136235
10.976298
10.836465
10.71469
10.60904
10.518245
10.439969
10.372729
10.315165
10.266079
10.224397
10.189141
10.159514
10.134524
10.113521
10.096009
10.081774
10.070136
10.060836
10.053617
10.047902
10.04295
10.037677
10.032209
10.026518
10.02058
10.014353
10.007821
10.00104
9.9942758
9.9892036
9.9855117
9.9830347
9.9815758
9.9810612
9.9815508
9.9827428
9.9844628
9.9864958
9.9893807
9.9935441
9.9978476
1593.7784
2288.2207
772.64594
515.76913
310.93579
242.73017
170.51576
135.14932
106.7565
86.987308
72.008008
60.586596
51.709177
44.728731
39.173524
34.700966
31.053245
28.042429
25.538999
23.44327
21.675952
20.175616
18.894387
17.794432
16.845323
16.02182
15.302755
14.670551
14.11341
13.62045
13.183261
12.794512
12.448427
12.140371
11.8666
11.623824
11.408845
11.218735
11.051097
10.903688
10.774661
10.662404
10.565516
10.481627
10.409367
10.347271
10.294052
10.248593
10.209934
10.177523
10.150021
10.126856
10.107389
10.091133
10.077823
10.066913
10.058171
10.051379
10.045917
10.040667
10.035203
10.029527
10.023634
10.017512
10.011133
10.004465
9.9976701
9.9918586
9.9875351
9.9844547
9.9824849
9.9814881
9.9812039
9.9818678
9.9832061
9.9849593
9.9870417
9.9899744
9.9940077
9.9981708
1606.5723
2219.6333
735.6084
499.79682
296.88585
231.35854
163.33903
127.97323
100.78605
81.801598
67.56128
56.770426
48.451403
41.94582
36.791661
32.659609
29.304428
26.534383
24.239434
22.320726
20.70454
19.333496
18.162677
17.156973
16.288695
15.535299
14.876345
14.29842
13.788532
13.33673
12.935871
12.579187
12.261342
11.977978
11.725656
11.501669
11.303548
11.128333
10.97393
10.838164
10.719174
10.616004
10.526265
10.448679
10.381807
10.324355
10.275099
10.233011
10.197232
10.167021
10.141438
10.119878
10.10178
10.086669
10.0742
10.063938
10.055644
10.049139
10.043835
10.038344
10.032712
10.026865
10.020793
10.014491
10.007987
10.001339
9.9947883
9.989898
9.9862456
9.9836852
9.9820998
9.981496
9.981474
9.9823111
9.9837323
9.9855077
9.9876207
9.9905767
9.9944786
9.9984558
1613.8315
2136.3894
695.78322
480.09029
281.7928
218.14581
154.56128
119.71389
93.985907
76.080347
62.756391
52.75714
45.097565
39.13394
34.423189
30.655479
27.604044
25.089974
23.006841
21.266012
19.799261
18.55428
17.490089
16.574522
15.78223
15.09313
14.490996
13.962225
13.495792
13.081518
12.71352
12.385813
12.093581
11.832798
11.600106
11.39289
11.209774
11.047746
10.90503
10.779788
10.670212
10.57457
10.491431
10.419433
10.35732
10.303955
10.25824
10.219056
10.18593
10.157708
10.133788
10.113596
10.096665
10.082602
10.070885
10.061223
10.05334
10.047004
10.041713
10.036034
10.030244
10.024261
10.018062
10.011614
10.004939
9.9982583
9.9925567
9.9883218
9.9852616
9.9831855
9.9819431
9.9814923
9.9818043
9.9827689
9.9842578
9.9860625
9.9882235
9.99118
9.9949176
9.9986029
1610.4056
2034.2606
652.65565
454.34795
265.47822
202.74392
143.94123
110.39555
86.506333
69.95079
57.778231
48.69366
41.766692
36.388272
32.145335
28.752513
26.00552
23.746262
21.870748
20.301263
18.976531
17.849989
16.885193
16.053441
15.33198
14.702762
14.151382
13.666045
13.236982
12.856279
12.517399
12.215251
11.945574
11.704865
11.490158
11.298907
11.128927
10.978403
10.845596
10.728951
10.626992
10.538203
10.4609
10.393901
10.335981
10.286113
10.243631
10.207175
10.176039
10.149576
10.127135
10.108119
10.092248
10.078928
10.067852
10.058715
10.051274
10.045119
10.03962
10.033811
10.027869
10.021751
10.015454
10.008965
10.002309
9.9957604
9.9908255
9.9871153
9.9845066
9.9828274
9.9819398
9.9816749
9.9821508
9.9832115
9.9847285
9.9865574
9.9887938
9.9917862
9.995388
9.9987685
1590.1298
1903.4743
606.4383
421.89602
247.94526
184.94695
131.69964
100.34267
78.695816
63.737238
52.847282
44.745167
38.582054
33.802066
30.029766
27.006974
24.552512
22.535467
20.854767
19.443748
18.248842
17.229442
16.353845
15.59696
14.938675
14.362816
13.856541
13.409938
13.014332
12.662758
12.349203
12.06917
11.818846
11.595115
11.395353
11.21731
11.059009
10.918667
10.794662
10.685496
10.589861
10.506929
10.434689
10.37207
10.31796
10.271347
10.23132
10.197049
10.167674
10.142635
10.121524
10.103592
10.08845
10.075746
10.065167
10.056471
10.049288
10.043286
10.037642
10.031744
10.025689
10.019444
10.013015
10.006434
9.9998489
9.9939458
9.9895506
9.986283
9.9840119
9.9826076
9.9820028
9.9819187
9.9825218
9.9836399
9.9851484
9.9869547
9.9892076
9.9922197
9.9957893
9.9989875
1544.1795
1743.7146
558.29574
383.52582
230.13234
165.03056
118.52032
90.177473
71.010196
57.763292
48.188027
41.071816
35.660622
31.460152
28.137802
25.465761
23.285045
21.482778
19.97705
18.706606
17.625827
16.699766
15.901229
15.208692
14.604816
14.075303
13.607665
13.193935
12.826402
12.499604
12.207541
11.946274
11.712384
11.503074
11.315982
11.149078
11.000578
10.868873
10.752482
10.65003
10.560223
10.481838
10.413695
10.354506
10.303297
10.259099
10.2211
10.188748
10.160982
10.137264
10.117057
10.099911
10.085404
10.073171
10.063012
10.054535
10.047514
10.041575
10.035811
10.029856
10.02375
10.017458
10.010971
10.004334
9.9978194
9.992619
9.9886622
9.9857752
9.9837963
9.9826022
9.9820985
9.982222
9.9829014
9.9840546
9.9855545
9.9873379
9.9895424
9.9924094
9.9957802
9.9988823
1464.3275
1581.0432
509.20475
344.04395
206.17964
145.73555
105.34334
80.586617
63.905279
52.342867
44.016369
37.829118
33.113307
29.438604
26.518017
24.156314
22.217569
20.605238
19.249552
18.099347
17.115438
16.267996
15.533658
14.893896
14.333782
13.841148
13.405976
13.019966
12.676385
12.369628
12.095047
11.84899
11.628388
11.430708
11.253804
11.095822
10.955118
10.830195
10.71966
10.622201
10.536593
10.461753
10.396971
10.340639
10.291896
10.249828
10.213623
10.182546
10.15593
10.133132
10.11367
10.097113
10.083174
10.07136
10.061415
10.053086
10.046121
10.040158
10.034254
10.028207
10.022039
10.015726
10.009262
10.002697
9.996339
9.9916454
9.9880515
9.9854677
9.9837286
9.9827203
9.9823534
9.9825677
9.9832945
9.984452
9.9859413
9.9877276
9.989923
9.992684
9.9958674
9.9988485
1352.3316
1493.7323
463.06583
296.63868
182.35437
127.61358
93.426922
72.09166
57.755422
47.769869
40.550622
35.168624
31.04393
27.807818
25.217329
23.107884
21.364894
19.906425
18.671694
17.618392
16.712758
15.929073
15.247033
14.650404
14.126022
13.663128
13.252818
12.887763
12.562018
12.271104
12.010095
11.775801
11.56541
11.376616
11.207458
11.056239
10.921453
10.801727
10.695779
10.602394
10.520399
10.448647
10.386015
10.331571
10.284368
10.24356
10.208377
10.178157
10.152432
10.130365
10.11152
10.095455
10.081797
10.070226
10.060454
10.052228
10.045295
10.039286
10.033251
10.027076
10.020775
10.014341
10.0078
10.001279
9.9953687
9.9909742
9.9876568
9.9853013
9.9837548
9.982907
9.9826417
9.9829381
9.9836985
9.9848554
9.9863334
9.9881095
9.9902482
9.9928315
9.9957716
9.9986977
1219.6901
1251.4147
422.88436
254.35895
160.19125
112.49702
83.563213
65.229975
52.893913
44.244785
37.944285
33.204215
29.537812
26.635217
24.29176
22.368194
20.767104
19.418673
18.271736
17.287996
16.438349
15.700144
15.055447
14.489774
13.99123
13.549922
13.157811
12.808143
12.495348
12.214826
11.962808
11.736154
11.53228
11.349023
11.184545
11.037253
10.905727
10.788671
10.684876
10.593211
10.512656
10.442479
10.381123
10.327752
10.281449
10.241392
10.206827
10.17707
10.151511
10.129615
10.110895
10.09493
10.081351
10.069838
10.060109
10.051916
10.045004
10.039003
10.032961
10.026755
10.020402
10.013889
10.007251
10.000674
9.9949784
9.990721
9.9875278
9.9852809
9.9838358
9.9830896
9.9828808
9.9832292
9.984018
9.9851896
9.9866857
9.9884845
9.9906094
9.9930853
9.9958426
9.9986601
1100.3574
1113.6383
390.22111
223.63808
143.60662
101.37316
76.255454
60.231047
49.417837
41.770576
36.143113
31.868584
28.531493
25.866977
23.698854
21.906449
20.404747
19.132424
18.044289
17.106376
16.292659
15.582813
14.960675
14.413263
13.930438
13.501868
13.120293
12.779332
12.473745
12.199174
11.952026
11.729339
11.528661
11.347947
11.185463
11.039702
10.909323
10.793097
10.689873
10.598552
10.51808
10.447444
10.38568
10.331857
10.285104
10.24461
10.20963
10.179487
10.153569
10.131334
10.112299
10.096042
10.082191
10.070425
10.060462
10.052053
10.044953
10.038833
10.032913
10.026798
10.020565
10.014188
10.007692
10.001216
9.9953949
9.9910839
9.9878388
9.9855514
9.9840756
9.9833089
9.983104
9.9834373
9.9842132
9.9853756
9.9868771
9.9886875
9.99079
9.9931688
9.9957884
9.9985855
1045.542
1072.4024
365.96743
206.55409
132.73516
93.817716
70.806298
56.255703
46.454673
39.51327
34.389294
30.479234
27.413477
24.955371
22.947441
21.28143
19.880843
18.690329
17.669009
16.786114
16.018056
15.346403
14.756458
14.236265
13.775922
13.36714
13.002896
12.677277
12.385312
12.122855
11.886469
11.673314
11.481043
11.307704
11.151649
11.011456
10.885867
10.773735
10.673989
10.585605
10.507599
10.439021
10.378955
10.326527
10.280914
10.241344
10.207108
10.177557
10.152107
10.130234
10.111474
10.095419
10.08171
10.070033
10.060117
10.051718
10.044596
10.038427
10.032433
10.026255
10.01996
10.013528
10.006999
10.000559
9.9950329
9.9908802
9.9877627
9.9855584
9.9841336
9.9833959
9.9831895
9.9835263
9.9842907
9.9854448
9.9869475
9.9887632
9.9908497
9.9931697
9.9957151
9.9985153
31297.771
78954.783
36878.366
10647.76
1399.3164
611.32098
434.12396
350.50486
290.4032
236.26424
192.49748
159.22958
134.63609
116.39577
102.35889
90.883069
81.170931
72.882568
65.782822
59.658868
54.333661
49.671492
45.567278
41.935554
38.710933
35.828898
33.244049
30.916373
28.813989
26.911732
25.188133
23.624054
22.202788
20.909635
19.733052
18.663332
17.691731
16.810497
16.012556
15.291471
14.641629
14.057464
13.533907
13.066389
12.650422
12.281763
11.956578
11.670834
11.420852
11.203274
11.014826
10.852384
10.712971
10.594054
10.493117
10.407976
10.338504
10.284319
10.245507
10.224832
10.217999
10.21577
10.213289
10.210031
10.206355
10.202309
10.197058
10.189571
10.178695
10.167106
10.147864
10.131643
10.092569
10.077378
10.041161
10.047901
9.9890743
10.005251
9.979912
10.002252
19967.665
59283.568
24502.76
5054.6163
971.31349
528.84488
397.78209
321.35694
264.03322
212.74612
174.45163
145.62239
124.5731
108.79576
96.335083
85.882177
76.971349
69.357009
62.812322
57.138874
52.182417
47.826519
43.978889
40.563449
37.518263
34.790231
32.337912
30.123877
28.119994
26.303633
24.654979
23.156297
21.792201
20.549167
19.41687
18.386327
17.449378
16.598822
15.828024
15.130965
14.502398
13.936992
13.429987
12.977056
12.573883
12.216431
11.901037
11.623777
11.381145
11.169914
10.986911
10.829118
10.693662
10.578118
10.480055
10.397222
10.329232
10.27635
10.238758
10.219307
10.213053
10.210972
10.208511
10.205307
10.201699
10.197693
10.192972
10.186106
10.175869
10.164561
10.145833
10.129698
10.091196
10.076243
10.041186
10.04831
9.9895134
10.006178
9.9804713
10.002954
28229.092
35256.008
13447.915
2536.1806
835.3758
498.9874
387.7687
306.10079
250.64578
201.17795
166.68142
139.5334
120.01035
105.12077
93.235403
83.192355
74.657819
67.366055
61.087684
55.636149
50.868096
46.674023
42.965898
39.67094
36.728292
34.090693
31.717983
29.573682
27.631716
25.87038
24.270561
22.815207
21.489624
20.280879
19.17935
18.176361
17.264082
16.435628
15.684602
15.005231
14.39249
13.841168
13.346712
12.904939
12.511638
12.162907
11.855197
11.584648
11.34788
11.141755
10.963166
10.809175
10.676999
10.564305
10.468589
10.387793
10.32097
10.269094
10.232436
10.213914
10.208098
10.20615
10.203727
10.200591
10.197054
10.19311
10.188664
10.182462
10.172905
10.161905
10.143728
10.127573
10.089875
10.075084
10.041076
10.048611
9.9899725
10.007014
9.9812693
10.003766
35708.572
23927.734
8320.0993
1541.2792
754.03916
475.77561
375.37909
290.19485
239.46174
190.5178
159.65424
133.62502
115.67743
101.58578
90.274346
80.636407
72.465995
65.475379
59.446533
54.203834
49.612885
45.570604
41.993211
38.811225
35.96708
33.412924
31.114846
29.036484
27.15336
25.444471
23.891382
22.477665
21.189249
20.013748
18.942192
17.966146
17.078091
16.271425
15.539963
14.878162
14.281192
13.743946
13.262078
12.831524
12.448175
12.10826
11.808333
11.544593
11.313791
11.112867
10.938783
10.788679
10.659931
10.550067
10.45677
10.378037
10.312596
10.261754
10.226062
10.208425
10.203114
10.201299
10.19892
10.195856
10.192394
10.18851
10.184106
10.178555
10.169711
10.15905
10.141453
10.125172
10.088435
10.074009
10.040844
10.048822
9.9904678
10.007874
9.9825079
10.004619
40201
20390.879
5857.0531
1225.8656
719.81584
458.23885
365.67384
277.77853
231.31262
182.36669
154.67708
129.03444
112.40862
98.778553
87.894425
78.556178
70.669402
63.909694
58.074442
52.995475
48.544945
44.624233
41.152483
38.062598
35.298975
32.816372
30.57891
28.556141
26.723089
25.059165
23.546445
22.168964
20.913143
19.767013
18.722145
17.770227
16.90401
16.117109
15.403496
14.757821
14.175404
13.651211
13.181079
12.761034
12.387046
12.055462
11.762918
11.505662
11.280566
11.084632
10.914889
10.76856
10.6431
10.535999
10.445062
10.36835
10.304381
10.254517
10.21975
10.202898
10.198121
10.196427
10.194099
10.191113
10.187728
10.183908
10.179551
10.174411
10.166314
10.156023
10.139033
10.122594
10.086905
10.072988
10.040485
10.048925
9.9909928
10.008874
9.983535
10.005229
42986.958
19024.408
4505.0696
1153.9709
699.45233
439.92409
358.19118
267.995
225.06343
175.85962
150.77319
125.14924
109.70833
96.358284
85.844672
76.751391
69.102783
62.53456
56.862133
51.921891
47.591148
43.774699
40.394007
37.383908
34.690535
32.270009
30.086498
28.11289
26.324261
24.70049
23.224012
21.879236
20.652993
19.533662
18.513286
17.583602
16.73762
15.969119
15.272203
14.641685
14.073006
13.561186
13.102231
12.69223
12.327224
12.003664
11.718254
11.467284
11.24774
11.056681
10.891205
10.748644
10.626332
10.521951
10.433349
10.358637
10.29626
10.247335
10.213474
10.197469
10.193127
10.191538
10.189268
10.186365
10.18306
10.179305
10.175
10.170032
10.162703
10.152817
10.136466
10.119898
10.085277
10.071802
10.039978
10.0489
9.9915476
10.00999
9.9841253
10.005533
45199.046
17123.458
3616.5157
1103.3281
684.20108
427.29286
352.29695
260.14106
220.22851
170.68018
147.66638
121.88063
107.46931
94.269762
84.077678
75.182708
67.733398
61.324297
55.788871
50.966126
46.737569
43.010591
39.708478
36.767609
34.135496
31.769516
29.635148
27.703834
25.954497
24.366588
22.922669
21.607426
20.408031
19.31315
18.315241
17.406034
16.578784
15.827395
15.146076
14.529783
13.974053
13.473942
13.025612
12.625194
12.26879
11.952943
11.674415
11.429527
11.215382
11.029091
10.867861
10.72886
10.609655
10.507954
10.421657
10.348925
10.288237
10.240219
10.207246
10.19206
10.188126
10.18664
10.184434
10.181618
10.178394
10.174705
10.170453
10.165485
10.158883
10.149437
10.133748
10.117058
10.08353
10.070235
10.039294
10.048727
9.992134
10.011079
9.9847848
10.006032
46833.298
14490.261
3049.6244
1072.3841
672.5887