/*--------------------------------*- C++ -*----------------------------------*\
  =========                 |
  \\      /  F ield         | OpenFOAM: The Open Source CFD Toolbox
   \\    /   O peration     | Website:  https://openfoam.org
    \\  /    A nd           | Version:  12
     \\/     M anipulation  |
\*---------------------------------------------------------------------------*/
FoamFile
{
    format      ascii;
    class       volScalarField;
    location    "0.124";
    object      rho;
}
// * * * * * * * * * * * * * * * * * * * * * * * * * * * * * * * * * * * * * //

dimensions      [1 -3 0 0 0 0 0];

internalField   nonuniform List<scalar> 
16000
(
1.0584313
1.0909495
1.0789504
1.0870994
1.0832857
1.086701
1.0857304
1.08754
1.0876879
1.0888891
1.0895369
1.0905455
1.0914184
1.0924097
1.0934003
1.0944428
1.0955172
1.0966315
1.0977836
1.0989744
1.100204
1.1014723
1.1027792
1.1041241
1.1055065
1.1069254
1.1083798
1.1098682
1.1113889
1.1129401
1.1145194
1.1161243
1.117752
1.1193995
1.1210634
1.1227401
1.1244258
1.1261165
1.1278082
1.1294965
1.1311772
1.1328461
1.1344988
1.1361312
1.1377392
1.1393189
1.1408668
1.1423794
1.1438535
1.1452864
1.1466755
1.1480187
1.149314
1.1505601
1.1517557
1.1528999
1.1539921
1.155032
1.1560197
1.1569551
1.1578386
1.1586706
1.1594517
1.1601823
1.1608629
1.1614941
1.1620765
1.1626108
1.1630982
1.16354
1.1639373
1.1642905
1.1645993
1.1648625
1.1650776
1.1652475
1.1654146
1.1652526
1.1658487
1.1647847
1.055188
1.0882168
1.0755458
1.0843134
1.080274
1.0839553
1.0828841
1.0848635
1.0850047
1.0863073
1.0870066
1.0880899
1.0890365
1.0901017
1.0911725
1.0922956
1.0934549
1.0946561
1.0958982
1.0971816
1.0985061
1.0998717
1.1012777
1.1027234
1.1042079
1.1057299
1.1072878
1.1088799
1.1105039
1.1121575
1.1138378
1.1155419
1.1172664
1.1190075
1.1207616
1.1225243
1.1242916
1.1260588
1.1278216
1.1295752
1.1313152
1.133037
1.1347363
1.1364087
1.1380504
1.1396576
1.1412268
1.142755
1.1442393
1.1456774
1.1470672
1.148407
1.1496956
1.1509318
1.1521151
1.153245
1.1543215
1.1553447
1.156315
1.1572329
1.158099
1.158914
1.1596786
1.1603936
1.1610597
1.1616775
1.1622474
1.1627703
1.1632472
1.1636793
1.1640677
1.1644129
1.1647142
1.1649693
1.1651775
1.1653501
1.1654557
1.1654539
1.1658011
1.1649276
1.0522462
1.0857272
1.0726853
1.0817514
1.0775704
1.0814529
1.0803526
1.0824514
1.082634
1.0840195
1.0847925
1.0859523
1.0869843
1.0881323
1.0892933
1.0905075
1.0917619
1.0930607
1.0944031
1.0957892
1.0972184
1.0986904
1.1002043
1.1017589
1.1033529
1.1049845
1.1066519
1.1083526
1.1100839
1.1118429
1.1136263
1.1154303
1.1172509
1.119084
1.1209251
1.1227695
1.1246123
1.1264488
1.1282739
1.1300828
1.1318706
1.1336329
1.1353651
1.1370631
1.1387231
1.1403417
1.1419158
1.1434427
1.1449202
1.1463464
1.1477198
1.1490395
1.1503047
1.151515
1.1526704
1.1537711
1.1548174
1.1558101
1.15675
1.1576378
1.1584747
1.1592616
1.1599994
1.1606891
1.1613315
1.1619273
1.162477
1.1629813
1.1634411
1.1638576
1.1642318
1.1645641
1.1648534
1.1650972
1.1652971
1.1654564
1.1655401
1.1655964
1.1657762
1.1650841
1.0496199
1.0834733
1.0700384
1.079443
1.075128
1.0792422
1.078119
1.0803554
1.080589
1.0820706
1.0829313
1.0841796
1.0853116
1.0865554
1.0878201
1.0891383
1.0905002
1.0919086
1.0933627
1.0948622
1.0964065
1.0979947
1.0996257
1.1012979
1.1030094
1.1047582
1.1065417
1.1083568
1.1102004
1.1120685
1.1139573
1.1158623
1.1177789
1.119702
1.1216266
1.1235473
1.1254589
1.1273559
1.1292332
1.1310855
1.132908
1.1346961
1.1364454
1.1381522
1.1398129
1.1414245
1.1429847
1.1444912
1.1459426
1.1473377
1.1486758
1.1499566
1.1511801
1.1523468
1.1534571
1.154512
1.1555123
1.1564594
1.1573544
1.1581986
1.1589933
1.1597399
1.1604394
1.1610931
1.1617018
1.1622662
1.162787
1.1632646
1.1637
1.1640939
1.1644474
1.1647608
1.1650327
1.165261
1.1654468
1.1655868
1.1656606
1.1657288
1.1658053
1.1652521
1.0473534
1.0815898
1.0677565
1.0774605
1.073005
1.077391
1.0762579
1.0786373
1.0789425
1.0805276
1.0814947
1.0828409
1.0840862
1.0854366
1.0868151
1.0882472
1.0897261
1.0912533
1.0928282
1.0944504
1.0961187
1.0978321
1.0995888
1.1013869
1.1032239
1.105097
1.1070027
1.1089374
1.1108969
1.1128765
1.1148715
1.1168765
1.118886
1.1208943
1.1228956
1.1248839
1.1268535
1.1287985
1.1307136
1.1325934
1.1344331
1.1362284
1.1379753
1.1396703
1.1413108
1.1428943
1.1444191
1.1458839
1.1472882
1.1486317
1.1499145
1.1511371
1.1523005
1.1534058
1.1544542
1.1554472
1.1563865
1.1572737
1.1581105
1.1588985
1.1596394
1.1603346
1.1609856
1.1615937
1.1621597
1.1626845
1.1631686
1.1636125
1.1640168
1.1643821
1.1647094
1.1649986
1.1652485
1.165457
1.1656238
1.1657426
1.1658061
1.1658648
1.1658697
1.1654328
1.0454909
1.0800952
1.0659184
1.0759258
1.0713762
1.075972
1.0748274
1.0773703
1.0777632
1.0794572
1.0805427
1.0819901
1.0833554
1.0848187
1.0863181
1.0878727
1.0894777
1.0911339
1.0928404
1.0945962
1.0964
1.0982497
1.1001431
1.1020773
1.1040489
1.1060543
1.108089
1.1101482
1.1122269
1.1143192
1.1164194
1.1185211
1.120618
1.1227035
1.1247711
1.1268144
1.1288271
1.1308033
1.1327375
1.1346246
1.1364601
1.1382401
1.1399612
1.1416209
1.1432171
1.1447485
1.1462144
1.1476145
1.1489493
1.1502195
1.1514263
1.1525711
1.1536557
1.154682
1.155652
1.1565678
1.1574316
1.1582455
1.1590115
1.1597317
1.1604078
1.1610417
1.1616347
1.1621884
1.1627036
1.1631812
1.1636216
1.1640252
1.1643924
1.1647235
1.1650193
1.1652796
1.165503
1.1656878
1.1658312
1.1659271
1.1659775
1.1660132
1.1659657
1.1656277
1.0440304
1.0789968
1.0645079
1.0748524
1.0702124
1.0750115
1.0739121
1.0765846
1.0770814
1.0788611
1.0800717
1.0816244
1.0831199
1.0847088
1.0863431
1.0880356
1.0897828
1.0915844
1.0934389
1.0953446
1.0972991
1.0992997
1.1013431
1.1034253
1.1055419
1.1076879
1.1098577
1.1120453
1.1142443
1.1164479
1.1186489
1.1208402
1.1230145
1.1251643
1.1272828
1.129363
1.1313986
1.1333837
1.1353131
1.1371822
1.1389871
1.1407248
1.1423929
1.1439899
1.145515
1.1469681
1.1483496
1.1496607
1.1509027
1.1520777
1.1531878
1.1542355
1.1552233
1.156154
1.1570302
1.1578546
1.1586298
1.1593583
1.1600425
1.1606845
1.1612865
1.1618503
1.1623774
1.1628691
1.1633266
1.1637506
1.1641413
1.1644991
1.1648239
1.165116
1.1653758
1.1656029
1.1657962
1.1659535
1.16607
1.1661417
1.1661764
1.1661814
1.1660903
1.1658437
1.0429118
1.0782381
1.0634626
1.0741882
1.0694509
1.0744735
1.0734047
1.07627
1.0767927
1.0786867
1.0800561
1.0817402
1.0833923
1.0851326
1.0869257
1.0887797
1.0906916
1.0926602
1.0946832
1.0967581
1.0988813
1.101049
1.1032567
1.105499
1.1077701
1.1100635
1.1123723
1.114689
1.1170058
1.1193145
1.121607
1.1238749
1.1261102
1.1283051
1.1304521
1.1325445
1.1345761
1.1365414
1.138436
1.1402562
1.1419992
1.1436633
1.1452474
1.1467516
1.1481764
1.1495232
1.1507939
1.1519909
1.1531171
1.1541754
1.155169
1.1561015
1.156976
1.157796
1.1585647
1.1592853
1.1599606
1.1605935
1.1611865
1.1617421
1.1622622
1.1627487
1.1632033
1.1636271
1.1640213
1.1643863
1.1647226
1.1650299
1.1653082
1.1655574
1.1657774
1.1659679
1.166128
1.1662546
1.1663415
1.1663882
1.1664036
1.1663711
1.1662455
1.1660872
1.0421301
1.0778059
1.0627665
1.0739527
1.0690325
1.0742212
1.0732405
1.0761463
1.0769756
1.0790126
1.0805712
1.0824115
1.084245
1.0861627
1.0881396
1.09018
1.0922806
1.0944393
1.0966527
1.0989168
1.1012269
1.1035776
1.1059627
1.1083752
1.1108076
1.1132517
1.1156988
1.1181398
1.1205654
1.1229662
1.1253329
1.1276565
1.1299284
1.1321405
1.1342856
1.1363574
1.1383503
1.14026
1.1420833
1.143818
1.145463
1.1470181
1.1484844
1.1498633
1.1511574
1.1523695
1.1535031
1.1545621
1.1555503
1.1564721
1.1573315
1.1581326
1.1588796
1.1595762
1.1602261
1.1608328
1.1613993
1.1619287
1.1624235
1.1628861
1.1633185
1.1637226
1.1640998
1.1644514
1.1647781
1.1650805
1.1653586
1.1656122
1.1658409
1.1660442
1.1662217
1.1663731
1.1664975
1.1665908
1.1666466
1.1666682
1.166661
1.1665858
1.1664344
1.1663612
1.0417178
1.0777336
1.0624571
1.0740685
1.0690089
1.0744538
1.0736175
1.0767206
1.0777323
1.0799167
1.081694
1.0837183
1.08576
1.0878836
1.0900719
1.0923255
1.0946408
1.0970138
1.0994398
1.1019132
1.1044274
1.1069749
1.1095476
1.1121364
1.1147316
1.1173232
1.1199004
1.1224525
1.1249689
1.1274389
1.1298526
1.1322004
1.1344738
1.1366651
1.1387679
1.1407769
1.1426883
1.1444993
1.1462087
1.1478164
1.1493234
1.1507319
1.1520448
1.1532657
1.154399
1.1554491
1.1564212
1.1573202
1.1581512
1.1589194
1.1596296
1.1602866
1.1608948
1.1614584
1.1619812
1.1624668
1.1629184
1.1633389
1.1637307
1.1640963
1.1644375
1.1647559
1.1650529
1.1653295
1.1655863
1.1658238
1.1660416
1.1662395
1.1664166
1.1665722
1.1667054
1.1668161
1.1669032
1.1669614
1.1669855
1.1669825
1.1669498
1.1668293
1.1666618
1.1666692
1.0417414
1.078091
1.0625863
1.0743934
1.0694718
1.0752033
1.0745741
1.0778352
1.0791183
1.0814774
1.0835079
1.0857503
1.088031
1.0903925
1.0928222
1.0953181
1.0978751
1.1004873
1.103148
1.1058491
1.1085817
1.1113359
1.1141008
1.1168649
1.1196161
1.1223421
1.1250304
1.1276687
1.1302452
1.1327486
1.1351687
1.1374963
1.1397236
1.1418443
1.1438538
1.1457488
1.1475277
1.1491906
1.1507388
1.1521749
1.1535026
1.1547263
1.1558512
1.1568831
1.1578281
1.1586922
1.1594817
1.1602027
1.1608612
1.1614629
1.1620131
1.1625169
1.1629789
1.1634034
1.1637942
1.1641548
1.1644882
1.1647972
1.1650842
1.1653511
1.1655996
1.1658313
1.1660471
1.1662479
1.1664341
1.1666057
1.1667626
1.166904
1.1670289
1.167136
1.1672244
1.1672938
1.1673426
1.167365
1.1673581
1.1673317
1.1672704
1.167103
1.1669295
1.1670175
1.0422827
1.0789512
1.0632532
1.0753529
1.0705993
1.0765719
1.0761988
1.079637
1.0812312
1.083793
1.0861106
1.0886092
1.091163
1.0937975
1.0965017
1.0992712
1.1020983
1.1049745
1.1078902
1.1108341
1.1137942
1.1167573
1.1197096
1.1226367
1.1255242
1.1283574
1.1311224
1.1338057
1.136395
1.1388793
1.1412492
1.143497
1.145617
1.1476055
1.1494606
1.1511823
1.1527725
1.1542343
1.1555725
1.1567925
1.1579008
1.1589043
1.1598105
1.1606269
1.1613609
1.1620201
1.1626114
1.1631417
1.1636175
1.1640447
1.1644288
1.1647749
1.1650876
1.1653708
1.1656284
1.1658633
1.1660786
1.1662765
1.166459
1.1666281
1.1667849
1.1669307
1.1670663
1.1671922
1.1673085
1.1674152
1.1675118
1.1675973
1.1676704
1.1677297
1.1677739
1.1678024
1.1678129
1.1677997
1.1677635
1.1677151
1.1676227
1.1674091
1.1672408
1.1674094
1.0433376
1.0803212
1.0644568
1.0769759
1.0723802
1.0785937
1.0785565
1.0821865
1.0841537
1.0869604
1.0896058
1.0924064
1.0952746
1.0982225
1.1012389
1.1043154
1.1074412
1.1106038
1.1137896
1.1169835
1.1201694
1.1233307
1.1264502
1.1295108
1.1324956
1.1353885
1.1381747
1.1408406
1.143375
1.1457684
1.1480139
1.1501072
1.1520461
1.1538308
1.1554638
1.1569492
1.1582928
1.1595016
1.1605836
1.1615474
1.1624019
1.1631564
1.1638198
1.1644011
1.1649087
1.1653508
1.165735
1.1660682
1.1663571
1.1666074
1.1668244
1.1670131
1.1671774
1.1673213
1.1674479
1.1675599
1.1676599
1.1677497
1.167831
1.1679052
1.1679734
1.1680362
1.1680943
1.1681478
1.1681967
1.1682405
1.1682788
1.1683102
1.1683333
1.1683464
1.168348
1.1683372
1.1683104
1.168263
1.1682003
1.1681311
1.1680058
1.1677517
1.1676006
1.1678405
1.0449586
1.0822513
1.066256
1.0792182
1.0748959
1.0813609
1.0817497
1.0855966
1.0879982
1.0911048
1.0941259
1.0972826
1.1005137
1.1038203
1.1071883
1.1106041
1.114052
1.1175148
1.1209738
1.1244093
1.1278011
1.1311286
1.1343716
1.1375105
1.1405271
1.143405
1.1461302
1.1486915
1.1510803
1.1532915
1.1553229
1.157175
1.1588512
1.1603568
1.1616994
1.1628878
1.1639319
1.1648424
1.1656302
1.1663065
1.1668822
1.167368
1.1677739
1.1681095
1.1683837
1.1686048
1.1687802
1.1689168
1.1690206
1.1690971
1.1691512
1.1691871
1.1692084
1.1692184
1.1692196
1.1692144
1.1692047
1.1691919
1.1691772
1.1691617
1.169146
1.1691304
1.1691152
1.1691003
1.1690854
1.1690699
1.169053
1.1690333
1.1690092
1.1689787
1.1689405
1.1688927
1.1688307
1.1687517
1.1686659
1.1685765
1.1684184
1.1681347
1.1680129
1.1683042
1.0472061
1.0848009
1.0687607
1.0822104
1.0782467
1.0849746
1.0858937
1.0899994
1.0929064
1.096387
1.099844
1.1034193
1.1070668
1.1107771
1.1145309
1.1183086
1.1220883
1.1258468
1.12956
1.1332031
1.1367515
1.140181
1.1434694
1.1465963
1.1495446
1.1523003
1.1548534
1.1571978
1.1593312
1.1612549
1.1629736
1.1644946
1.1658276
1.1669837
1.1679755
1.1688163
1.1695195
1.1700987
1.170567
1.1709371
1.171221
1.17143
1.1715744
1.1716636
1.1717064
1.1717105
1.1716828
1.1716295
1.171556
1.1714671
1.1713668
1.1712586
1.1711456
1.1710302
1.1709146
1.1708003
1.1706886
1.1705807
1.1704772
1.1703787
1.1702853
1.1701973
1.1701144
1.1700363
1.1699624
1.1698921
1.1698241
1.1697572
1.1696894
1.1696191
1.1695446
1.1694629
1.1693688
1.1692623
1.1691567
1.1690472
1.1688574
1.1685591
1.1684779
1.1687928
1.0501381
1.0880026
1.072097
1.0860232
1.0825538
1.0895701
1.0911518
1.0955906
1.0990856
1.1030291
1.1069889
1.1110447
1.1151559
1.1193037
1.1234618
1.127603
1.1316982
1.1357171
1.1396294
1.1434053
1.1470167
1.1504384
1.153649
1.1566314
1.1593736
1.1618686
1.1641143
1.1661134
1.1678725
1.1694015
1.170713
1.1718216
1.1727432
1.1734941
1.1740912
1.1745508
1.1748887
1.1751202
1.1752593
1.1753191
1.1753116
1.1752477
1.1751373
1.174989
1.1748107
1.1746093
1.1743906
1.1741599
1.1739216
1.1736796
1.1734371
1.1731969
1.172961
1.1727313
1.1725092
1.1722957
1.1720917
1.1718976
1.1717136
1.1715399
1.1713764
1.1712228
1.1710787
1.1709434
1.1708162
1.1706962
1.1705822
1.1704726
1.1703656
1.1702597
1.170153
1.1700412
1.1699192
1.1697904
1.1696687
1.1695384
1.1693182
1.1690206
1.1689911
1.1692918
1.0538234
1.0918644
1.0763925
1.0908044
1.0880195
1.0953899
1.0977835
1.1026497
1.1068131
1.1113065
1.1158291
1.1204144
1.1250204
1.1296175
1.1341697
1.13864
1.14299
1.1471824
1.1511815
1.1549553
1.158477
1.1617255
1.1646865
1.1673522
1.1697213
1.1717985
1.1735934
1.1751196
1.176394
1.1774355
1.1782641
1.1789005
1.1793654
1.1796787
1.1798595
1.1799258
1.179894
1.1797793
1.1795957
1.1793554
1.1790695
1.1787477
1.1783986
1.1780298
1.1776477
1.177258
1.1768654
1.1764739
1.176087
1.1757075
1.1753376
1.1749793
1.1746338
1.1743024
1.1739858
1.1736843
1.1733983
1.1731278
1.1728726
1.1726324
1.1724068
1.1721952
1.1719968
1.171811
1.1716367
1.1714729
1.1713182
1.171171
1.1710297
1.170893
1.1707584
1.1706208
1.170476
1.1703307
1.1701969
1.1700457
1.1697969
1.1695098
1.1695378
1.1698165
1.0584486
1.0965281
1.0818741
1.09688
1.0949754
1.1027625
1.1061102
1.1114987
1.1163985
1.1215199
1.1266545
1.1317994
1.1369031
1.1419208
1.1468032
1.1515021
1.1559716
1.1601706
1.1640649
1.1676285
1.1708442
1.1737041
1.1762084
1.178365
1.180188
1.1816965
1.1829129
1.1838618
1.1845692
1.1850608
1.1853622
1.1854976
1.18549
1.1853604
1.1851282
1.1848108
1.1844241
1.1839818
1.1834964
1.1829784
1.1824373
1.1818812
1.1813169
1.1807505
1.1801868
1.1796302
1.179084
1.1785511
1.1780338
1.177534
1.177053
1.1765918
1.1761511
1.1757313
1.1753326
1.1749548
1.1745978
1.1742611
1.1739442
1.1736464
1.173367
1.1731051
1.1728599
1.1726303
1.1724153
1.1722137
1.172024
1.1718447
1.1716743
1.1715116
1.1713535
1.1711947
1.1710329
1.1708772
1.1707348
1.1705641
1.1702923
1.1700231
1.1701098
1.1703774
1.064296
1.1025637
1.088941
1.1045888
1.1037667
1.1120101
1.1164589
1.1224879
1.1281936
1.1340135
1.1397877
1.1454784
1.1510169
1.1563405
1.1613885
1.1661075
1.1704535
1.174394
1.1779091
1.1809909
1.183643
1.1858783
1.1877177
1.1891877
1.1903186
1.1911429
1.1916936
1.1920034
1.1921037
1.1920239
1.1917913
1.1914308
1.1909648
1.1904132
1.1897937
1.1891217
1.1884107
1.1876724
1.1869167
1.1861523
1.1853864
1.1846251
1.1838735
1.1831358
1.1824155
1.1817154
1.1810375
1.1803837
1.1797553
1.1791529
1.1785773
1.1780287
1.1775071
1.1770123
1.1765439
1.1761014
1.1756842
1.1752914
1.1749221
1.1745755
1.1742506
1.1739462
1.1736612
1.1733947
1.1731453
1.1729119
1.172693
1.172487
1.1722929
1.172109
1.1719318
1.1717565
1.1715833
1.1714228
1.1712747
1.171088
1.1708036
1.1705617
1.1707015
1.1709551
1.0715566
1.1105187
1.0977941
1.114152
1.1147579
1.1235465
1.1292637
1.1360832
1.1426513
1.1491887
1.1555464
1.1616529
1.1674238
1.1727885
1.1776898
1.1820872
1.1859577
1.1892952
1.1921085
1.1944189
1.1962572
1.1976607
1.1986703
1.199329
1.1996793
1.1997621
1.1996163
1.1992774
1.1987777
1.1981463
1.1974088
1.1965878
1.1957028
1.1947709
1.1938065
1.1928222
1.1918283
1.1908338
1.1898461
1.1888713
1.1879145
1.1869797
1.1860704
1.185189
1.1843375
1.1835175
1.18273
1.1819755
1.1812545
1.180567
1.1799129
1.1792917
1.1787029
1.1781458
1.1776196
1.1771234
1.1766561
1.1762167
1.1758041
1.175417
1.1750543
1.1747147
1.1743969
1.1740999
1.1738223
1.1735629
1.1733202
1.173093
1.1728801
1.1726796
1.1724877
1.1723006
1.1721214
1.1719598
1.1718079
1.1716107
1.1713296
1.1711263
1.1713041
1.1715177
1.0803557
1.1202474
1.1090271
1.126115
1.1285878
1.1380572
1.1451659
1.1528754
1.1602532
1.1673625
1.1740518
1.1802328
1.1858284
1.1907882
1.1950864
1.1987211
1.2017104
1.2040884
1.2059006
1.2071995
1.2080413
1.2084824
1.2085777
1.2083787
1.207933
1.2072832
1.2064677
1.2055198
1.2044686
1.2033392
1.2021532
1.2009287
1.1996812
1.1984236
1.1971666
1.1959193
1.194689
1.1934816
1.192302
1.1911539
1.1900405
1.1889639
1.1879257
1.1869273
1.1859692
1.1850518
1.1841751
1.183339
1.1825429
1.1817863
1.1810684
1.1803883
1.1797449
1.1791372
1.178564
1.1780241
1.1775161
1.1770388
1.1765909
1.176171
1.1757776
1.1754095
1.1750652
1.1747437
1.1744435
1.1741634
1.1739021
1.1736586
1.1734315
1.1732187
1.1730162
1.1728219
1.1726409
1.1724807
1.1723264
1.1721253
1.1718621
1.1717062
1.1719015
1.1720479
1.0914283
1.1326572
1.1235374
1.1414148
1.1461985
1.1564294
1.1648607
1.173338
1.1812073
1.1884448
1.1949266
1.2005927
1.2054152
1.2094004
1.2125822
1.2150148
1.2167655
1.217909
1.2185221
1.2186796
1.2184521
1.2179045
1.2170946
1.2160736
1.2148859
1.2135697
1.2121576
1.2106771
1.2091511
1.207599
1.2060366
1.2044771
1.2029311
1.2014075
1.1999131
1.1984535
1.1970331
1.1956553
1.1943226
1.1930366
1.1917987
1.1906096
1.1894695
1.1883783
1.1873357
1.1863412
1.185394
1.1844931
1.1836375
1.1828261
1.1820575
1.1813304
1.1806436
1.1799955
1.1793848
1.17881
1.1782695
1.177762
1.177286
1.1768398
1.1764221
1.1760314
1.1756663
1.1753255
1.1750078
1.1747118
1.1744365
1.174181
1.1739438
1.1737222
1.1735129
1.1733155
1.1731358
1.1729782
1.1728225
1.172623
1.1723853
1.1722733
1.1724649
1.1725499
1.1063259
1.1488392
1.142591
1.1611134
1.1685504
1.1794292
1.1887047
1.1973849
1.2050253
1.2116041
1.2170861
1.2214954
1.224891
1.2273588
1.2289994
1.2299195
1.2302247
1.2300147
1.2293803
1.2284026
1.2271519
1.2256888
1.2240644
1.2223216
1.2204961
1.2186174
1.2167095
1.2147922
1.2128814
1.2109899
1.2091279
1.2073035
1.205523
1.2037912
1.2021119
1.2004875
1.1989201
1.1974105
1.1959596
1.1945674
1.1932336
1.1919577
1.1907389
1.1895761
1.1884684
1.1874142
1.1864123
1.1854612
1.1845593
1.1837051
1.1828969
1.1821332
1.1814123
1.1807325
1.1800923
1.17949
1.178924
1.1783927
1.1778945
1.1774279
1.1769912
1.176583
1.1762018
1.1758464
1.1755154
1.1752077
1.1749223
1.1746583
1.174414
1.1741869
1.1739741
1.1737767
1.1736005
1.1734458
1.1732897
1.1730952
1.172885
1.1728105
1.1729934
1.173037
1.126528
1.1700855
1.1676121
1.1862283
1.1960261
1.2070202
1.2161221
1.223925
1.2302645
1.2352073
1.2388484
1.2413249
1.2427885
1.2433936
1.2432868
1.2426013
1.2414546
1.2399473
1.2381643
1.2361762
1.2340409
1.2318057
1.2295087
1.2271805
1.2248455
1.2225232
1.2202286
1.2179738
1.2157678
1.2136177
1.2115286
1.2095044
1.2075475
1.2056597
1.2038419
1.2020944
1.200417
1.1988091
1.1972698
1.195798
1.1943924
1.1930514
1.1917735
1.1905568
1.1893998
1.1883004
1.187257
1.1862676
1.1853303
1.1844433
1.1836047
1.1828127
1.1820654
1.1813611
1.180698
1.1800743
1.1794884
1.1789386
1.1784232
1.1779407
1.1774895
1.1770679
1.1766747
1.1763084
1.1759677
1.1756516
1.1753591
1.1750893
1.1748404
1.1746101
1.1743965
1.1742015
1.1740299
1.1738782
1.1737233
1.1735382
1.1733578
1.1733174
1.1734884
1.1734892
1.1546194
1.1971892
1.1997014
1.2176514
1.2278212
1.2376076
1.2451408
1.2508156
1.2547592
1.2572088
1.2583991
1.2585599
1.2578983
1.2565942
1.254799
1.2526372
1.25021
1.2475982
1.2448658
1.2420631
1.2392295
1.2363955
1.2335845
1.2308144
1.2280988
1.2254479
1.222869
1.2203675
1.2179467
1.2156092
1.2133559
1.2111874
1.2091035
1.2071033
1.2051857
1.2033494
1.2015926
1.1999135
1.1983103
1.1967807
1.1953227
1.193934
1.1926126
1.1913562
1.1901627
1.1890297
1.1879552
1.186937
1.185973
1.1850611
1.1841993
1.1833856
1.1826181
1.1818948
1.181214
1.1805737
1.1799723
1.1794082
1.1788795
1.1783847
1.1779223
1.1774907
1.1770884
1.1767141
1.1763665
1.1760445
1.1757471
1.1754734
1.1752215
1.1749896
1.1747768
1.1745854
1.1744182
1.1742695
1.1741187
1.1739496
1.1738002
1.1737774
1.1739171
1.1739027
1.1931811
1.2319499
1.2376652
1.2528667
1.2619211
1.2687725
1.2731144
1.2754915
1.2762621
1.2757892
1.2743701
1.2722507
1.269626
1.2666489
1.2634372
1.260081
1.2566481
1.25319
1.2497447
1.2463406
1.2429983
1.239733
1.2365551
1.233472
1.2304883
1.227607
1.2248294
1.2221556
1.2195853
1.2171171
1.2147495
1.2124803
1.2103075
1.2082284
1.2062406
1.2043415
1.2025284
1.2007985
1.1991492
1.1975778
1.1960816
1.194658
1.1933045
1.1920185
1.1907974
1.189639
1.1885408
1.1875004
1.1865157
1.1855844
1.1847044
1.1838735
1.1830899
1.1823515
1.1816563
1.1810027
1.1803888
1.1798129
1.1792734
1.1787687
1.1782972
1.1778574
1.177448
1.1770674
1.1767145
1.1763881
1.1760872
1.1758106
1.1755567
1.1753242
1.1751128
1.1749244
1.17476
1.1746133
1.1744686
1.1743187
1.1741989
1.1741845
1.1742761
1.1742436
1.2404123
1.2727365
1.2798299
1.2895552
1.2944151
1.2967277
1.2968794
1.2955154
1.2930661
1.2898744
1.2861911
1.2822008
1.2780366
1.2737946
1.2695428
1.2653297
1.2611889
1.2571437
1.2532096
1.2493966
1.2457109
1.2421556
1.2387317
1.2354389
1.2322757
1.2292397
1.2263282
1.2235382
1.2208662
1.2183087
1.2158622
1.2135231
1.2112878
1.2091528
1.2071147
1.2051699
1.2033153
1.2015475
1.1998634
1.1982599
1.196734
1.1952829
1.1939036
1.1925935
1.19135
1.1901703
1.1890521
1.1879929
1.1869903
1.1860422
1.1851462
1.1843002
1.1835022
1.1827502
1.1820422
1.1813764
1.1807511
1.1801646
1.1796152
1.1791012
1.1786213
1.178174
1.1777578
1.1773714
1.1770136
1.1766832
1.1763791
1.1761001
1.1758448
1.1756122
1.1754022
1.1752159
1.1750529
1.1749079
1.1747712
1.1746413
1.174542
1.1745163
1.1745638
1.1745481
1.2941073
1.3146283
1.3191407
1.3214875
1.320694
1.3180595
1.3141935
1.3095824
1.304545
1.2992974
1.2939823
1.288694
1.2834935
1.27842
1.2734973
1.2687396
1.2641539
1.2597431
1.2555065
1.2514418
1.2475452
1.2438122
1.2402376
1.2368161
1.2335424
1.2304109
1.2274164
1.2245537
1.2218176
1.2192034
1.2167063
1.2143218
1.2120455
1.2098732
1.2078011
1.2058251
1.2039416
1.202147
1.200438
1.1988112
1.1972634
1.1957917
1.1943929
1.1930644
1.1918033
1.190607
1.1894729
1.1883985
1.1873816
1.1864196
1.1855105
1.184652
1.1838421
1.1830787
1.18236
1.181684
1.1810491
1.1804534
1.1798955
1.1793737
1.1788866
1.1784326
1.1780105
1.177619
1.1772568
1.1769228
1.1766158
1.1763348
1.1760785
1.1758461
1.1756373
1.1754523
1.1752898
1.1751462
1.1750169
1.1749027
1.1748176
1.1747817
1.1747876
1.1747584
1.3466191
1.3498992
1.3486815
1.3442465
1.3384509
1.3319169
1.3251053
1.3182562
1.3115148
1.3049595
1.2986331
1.2925553
1.2867333
1.2811659
1.2758477
1.2707707
1.2659253
1.2613016
1.2568894
1.2526789
1.2486605
1.2448249
1.2411635
1.2376681
1.234331
1.2311449
1.228103
1.2251988
1.2224263
1.2197798
1.2172539
1.2148436
1.212544
1.2103506
1.208259
1.2062651
1.2043651
1.2025552
1.2008317
1.1991914
1.1976308
1.1961469
1.1947366
1.193397
1.1921253
1.1909189
1.1897751
1.1886914
1.1876654
1.1866948
1.1857773
1.1849108
1.1840931
1.1833223
1.1825965
1.1819137
1.1812722
1.1806705
1.1801067
1.1795794
1.1790871
1.1786283
1.1782018
1.1778063
1.1774407
1.1771037
1.1767943
1.1765114
1.176254
1.1760214
1.175813
1.1756279
1.175465
1.1753227
1.1751999
1.1750977
1.175019
1.1749667
1.1749364
1.174911
1.380443
1.3729134
1.3654215
1.3572098
1.3486783
1.3402389
1.3320565
1.3242049
1.3167125
1.3095823
1.3028059
1.2963687
1.2902535
1.2844427
1.2789183
1.2736637
1.2686629
1.2639011
1.2593646
1.2550406
1.2509175
1.2469846
1.2432318
1.2396501
1.2362309
1.2329664
1.2298493
1.2268727
1.2240304
1.2213165
1.2187253
1.2162516
1.2138906
1.2116376
1.2094882
1.2074382
1.2054837
1.2036208
1.2018461
1.200156
1.1985472
1.1970166
1.1955611
1.1941779
1.1928641
1.191617
1.190434
1.1893125
1.1882503
1.1872448
1.1862939
1.1853954
1.1845472
1.1837472
1.1829934
1.1822842
1.1816176
1.180992
1.1804057
1.1798572
1.179345
1.1788676
1.1784238
1.1780122
1.1776316
1.177281
1.1769591
1.1766649
1.1763977
1.1761567
1.1759408
1.1757489
1.1755799
1.1754338
1.1753116
1.175213
1.1751337
1.1750669
1.1750145
1.1749958
1.163491
1.1680669
1.1825926
1.1944018
1.1998661
1.2011219
1.20119
1.2008612
1.2008948
1.2006068
1.2003503
1.1997964
1.1992051
1.1985644
1.1978794
1.1971543
1.1963935
1.1956029
1.1947871
1.1939505
1.1930968
1.1922297
1.1913522
1.1904673
1.1895775
1.1886853
1.1877928
1.1869019
1.1860146
1.1851324
1.184257
1.1833899
1.1825324
1.1816859
1.1808517
1.1800311
1.1792252
1.1784352
1.1776623
1.1769076
1.1761723
1.1754574
1.1747641
1.1740934
1.1734464
1.1728241
1.1722275
1.1716575
1.171115
1.1706008
1.1701156
1.1696601
1.1692346
1.1688396
1.1684753
1.1681417
1.1678385
1.1675653
1.1673217
1.1671068
1.1669191
1.1667574
1.1666198
1.1665044
1.1664094
1.1663307
1.166269
1.1662136
1.1661791
1.1661255
1.1661258
1.1660309
1.1661033
1.1658915
1.1661167
1.165659
1.1661731
1.165366
1.1661472
1.1649035
1.1592523
1.1701577
1.1863774
1.1946677
1.1969183
1.1968267
1.1962979
1.1960495
1.1957324
1.1954297
1.1950367
1.1946422
1.1942004
1.1937223
1.1932052
1.1926567
1.1920774
1.1914703
1.1908376
1.1901817
1.1895048
1.1888094
1.1880975
1.1873715
1.1866335
1.1858856
1.18513
1.1843688
1.1836038
1.1828372
1.1820706
1.1813061
1.1805453
1.1797901
1.179042
1.1783028
1.177574
1.1768572
1.1761539
1.1754655
1.1747936
1.1741395
1.1735046
1.1728903
1.1722977
1.1717282
1.1711829
1.1706628
1.170169
1.1697025
1.1692639
1.1688541
1.1684734
1.1681223
1.167801
1.1675094
1.1672473
1.1670144
1.1668099
1.1666329
1.166482
1.1663558
1.1662525
1.1661699
1.166106
1.1660573
1.1660235
1.1659953
1.1659846
1.1659565
1.1659746
1.1659062
1.1659873
1.1658044
1.1660357
1.1656061
1.1661122
1.1653221
1.1661239
1.1648571
1.159801
1.1731921
1.1848626
1.1912203
1.1921867
1.1917091
1.1912042
1.1909448
1.1906527
1.1903712
1.1900403
1.1897059
1.1893367
1.1889548
1.1885461
1.1881177
1.1876663
1.1871942
1.1867013
1.1861885
1.1856569
1.1851073
1.1845411
1.1839594
1.1833637
1.1827554
1.1821359
1.181507
1.1808702
1.1802272
1.1795798
1.1789297
1.1782786
1.1776284
1.1769808
1.1763376
1.1757005
1.1750714
1.1744518
1.1738437
1.1732486
1.1726681
1.1721039
1.1715576
1.1710306
1.1705243
1.1700401
1.1695792
1.1691428
1.168732
1.1683476
1.1679904
1.167661
1.1673598
1.167087
1.1668425
1.1666263
1.1664377
1.1662762
1.1661406
1.1660297
1.1659417
1.165875
1.1658274
1.1657968
1.1657795
1.1657751
1.165775
1.1657893
1.1657869
1.1658243
1.1657815
1.1658742
1.1657173
1.165954
1.1655504
1.1660513
1.1652774
1.1660997
1.1648123
1.157553
1.1718709
1.1825357
1.1872346
1.1870702
1.1866847
1.1862441
1.1860464
1.185732
1.185482
1.1851715
1.1848901
1.1845772
1.1842676
1.1839376
1.1835991
1.1832453
1.1828787
1.1824978
1.1821024
1.1816926
1.1812682
1.1808295
1.1803769
1.1799109
1.1794322
1.1789416
1.1784401
1.1779289
1.1774091
1.1768821
1.1763493
1.1758124
1.1752728
1.1747323
1.1741925
1.1736553
1.1731223
1.1725954
1.1720765
1.1715672
1.1710694
1.1705848
1.1701151
1.1696621
1.1692272
1.1688119
1.1684177
1.1680458
1.1676975
1.1673736
1.1670751
1.1668026
1.1665565
1.1663371
1.1661443
1.165978
1.1658376
1.1657224
1.1656314
1.1655632
1.165516
1.1654881
1.1654774
1.1654815
1.1654971
1.1655233
1.1655523
1.1655926
1.1656162
1.165674
1.1656564
1.1657625
1.1656296
1.1658738
1.1654937
1.1659932
1.1652323
1.1660716
1.1647701
1.1519707
1.1683071
1.1781541
1.1816873
1.1811496
1.1810637
1.1807056
1.1806458
1.1804056
1.1802726
1.1800525
1.179879
1.1796629
1.1794596
1.1792342
1.1790041
1.1787595
1.1785045
1.1782369
1.1779565
1.1776633
1.177357
1.1770376
1.1767053
1.1763601
1.1760025
1.175633
1.1752522
1.1748609
1.1744598
1.1740501
1.1736328
1.1732092
1.1727807
1.1723487
1.1719148
1.1714806
1.1710478
1.1706181
1.1701934
1.1697755
1.1693661
1.1689672
1.1685804
1.1682075
1.1678501
1.16751
1.1671885
1.166887
1.1666068
1.166349
1.1661144
1.1659037
1.1657173
1.1655557
1.1654186
1.165306
1.1652172
1.1651516
1.165108
1.165085
1.1650809
1.1650939
1.1651217
1.1651621
1.1652119
1.1652697
1.1653285
1.1653957
1.1654456
1.1655248
1.1655318
1.1656526
1.1655429
1.1657951
1.1654371
1.1659367
1.1651871
1.1660411
1.1647303
1.1460139
1.1647871
1.1732676
1.1761644
1.1754744
1.1756439
1.1753302
1.1754075
1.1752318
1.1752102
1.1750709
1.1749988
1.1748717
1.174766
1.174635
1.1745027
1.1743555
1.1741994
1.1740321
1.1738537
1.1736641
1.173463
1.1732503
1.173026
1.17279
1.1725426
1.1722839
1.1720143
1.1717342
1.1714443
1.1711452
1.1708378
1.1705231
1.1702022
1.1698763
1.1695468
1.1692152
1.1688829
1.1685516
1.1682231
1.167899
1.1675811
1.1672712
1.1669711
1.1666826
1.1664072
1.1661466
1.1659024
1.165676
1.1654685
1.1652812
1.1651148
1.1649701
1.1648476
1.1647475
1.1646697
1.1646141
1.16458
1.1645667
1.1645731
1.1645975
1.1646385
1.164694
1.1647619
1.1648399
1.1649249
1.1650152
1.1651046
1.1651992
1.1652758
1.1653768
1.1654083
1.1655446
1.1654577
1.1657177
1.1653815
1.1658821
1.1651425
1.1660147
1.1646916
1.1408404
1.1614486
1.1684433
1.1710362
1.1702426
1.1706136
1.1703076
1.1704947
1.1703578
1.1704242
1.170347
1.1703614
1.1703088
1.1702804
1.1702225
1.1701688
1.1701017
1.1700289
1.169947
1.1698564
1.1697565
1.169647
1.1695278
1.1693986
1.1692592
1.1691097
1.1689502
1.1687806
1.1686014
1.168413
1.1682157
1.1680102
1.1677974
1.167578
1.1673532
1.167124
1.1668917
1.1666577
1.1664235
1.1661905
1.1659605
1.165735
1.1655157
1.1653043
1.1651025
1.1649119
1.1647341
1.1645705
1.1644225
1.1642913
1.1641779
1.1640833
1.1640081
1.1639528
1.1639174
1.163902
1.1639062
1.1639295
1.1639709
1.1640294
1.1641033
1.164191
1.1642906
1.1643999
1.1645166
1.1646376
1.1647612
1.1648817
1.165004
1.1651076
1.1652307
1.1652865
1.1654382
1.1653746
1.1656411
1.1653272
1.1658293
1.165099
1.1659904
1.1646533
1.1360299
1.1584453
1.163919
1.1663913