/*--------------------------------*- C++ -*----------------------------------*\
  =========                 |
  \\      /  F ield         | OpenFOAM: The Open Source CFD Toolbox
   \\    /   O peration     | Website:  https://openfoam.org
    \\  /    A nd           | Version:  12
     \\/     M anipulation  |
\*---------------------------------------------------------------------------*/
FoamFile
{
    format      ascii;
    class       volScalarField;
    location    "0.099";
    object      nut;
}
// * * * * * * * * * * * * * * * * * * * * * * * * * * * * * * * * * * * * * //

dimensions      [0 2 -1 0 0 0 0];

internalField   nonuniform List<scalar> 
16000
(
4.6783612e-07
9.8667626e-06
1.7927951e-05
2.3739117e-05
1.8202662e-05
2.4937919e-05
1.7644676e-05
2.4146784e-05
1.8851443e-05
2.5961108e-05
2.1857956e-05
2.5668059e-05
2.3400137e-05
2.4017962e-05
2.3203067e-05
2.3067698e-05
2.2823387e-05
2.2754821e-05
2.2763541e-05
2.286933e-05
2.3064654e-05
2.3348929e-05
2.3719578e-05
2.4176573e-05
2.472201e-05
2.5361622e-05
2.6103198e-05
2.6959235e-05
2.7944957e-05
2.9076738e-05
3.0372516e-05
3.1856159e-05
3.355851e-05
3.5517588e-05
3.7780178e-05
4.0402083e-05
4.3449762e-05
4.7002446e-05
5.1158217e-05
5.6038637e-05
6.1786317e-05
6.8569152e-05
7.6598893e-05
8.6134938e-05
9.7485879e-05
0.00011102161
0.0001272006
0.00014658115
0.00016984249
0.00019781175
0.0002315005
0.00027214844
0.00032126975
0.00038071923
0.00045277264
0.00054023809
0.00064659552
0.00077617886
0.00093442184
0.0010190964
0.0010190682
0.001018997
0.0010188847
0.0010186893
0.0010184
0.0010179929
0.0010174405
0.0010167157
0.0010158002
0.0010146933
0.0010134205
0.0010120101
0.0010104702
0.00100927
0.001008363
0.0010076581
0.0010070914
0.0010069433
0.0010065185
0.0010076394
4.1521368e-07
9.3706224e-06
1.9748942e-05
2.1290254e-05
1.6435403e-05
2.2404141e-05
1.5686603e-05
2.1190026e-05
1.6681787e-05
2.2972099e-05
1.9817805e-05
2.3175625e-05
2.1427614e-05
2.179228e-05
2.1155162e-05
2.0969779e-05
2.0766013e-05
2.0693115e-05
2.0703081e-05
2.0799437e-05
2.0979504e-05
2.1242429e-05
2.1586253e-05
2.2011013e-05
2.2518355e-05
2.3113645e-05
2.3803632e-05
2.4599577e-05
2.5515889e-05
2.6568541e-05
2.7774225e-05
2.9154737e-05
3.0738613e-05
3.2561044e-05
3.4665798e-05
3.7105341e-05
3.9942575e-05
4.3251948e-05
4.7124807e-05
5.1676239e-05
5.7043312e-05
6.338409e-05
7.0897953e-05
7.983221e-05
9.0483258e-05
0.00010320266
0.0001184277
0.00013669282
0.00015864973
0.00018509269
0.00021699345
0.00025554645
0.00030221264
0.00035878487
0.0004274644
0.00051096992
0.0006126748
0.00073677693
0.00088852736
0.0010183531
0.001018346
0.0010182524
0.0010181248
0.0010179151
0.0010176129
0.0010171955
0.0010166366
0.0010159097
0.0010149972
0.0010138986
0.0010126408
0.0010112704
0.0010097991
0.0010086695
0.0010078227
0.0010071662
0.0010066494
0.0010063299
0.0010061771
0.0010071648
3.7119589e-07
8.9854389e-06
1.8702842e-05
1.9495215e-05
1.4742564e-05
1.9755142e-05
1.398882e-05
1.8443255e-05
1.5021486e-05
2.0183858e-05
1.8093632e-05
2.0663928e-05
1.9434127e-05
1.9540409e-05
1.9049353e-05
1.8842889e-05
1.8671032e-05
1.860349e-05
1.8616538e-05
1.8707721e-05
1.8875594e-05
1.9119672e-05
1.9438322e-05
1.9831812e-05
2.0301432e-05
2.0852354e-05
2.1490601e-05
2.2226365e-05
2.3073072e-05
2.404629e-05
2.5161867e-05
2.6439956e-05
2.7907174e-05
2.9596264e-05
3.1548303e-05
3.3812665e-05
3.6449086e-05
3.9528233e-05
4.3135759e-05
4.7380221e-05
5.2394079e-05
5.8327743e-05
6.5369886e-05
7.375638e-05
8.3773727e-05
9.5758416e-05
0.00011012968
0.00012740157
0.00014820244
0.00017329919
0.00020362982
0.00024035027
0.0002848761
0.00033894773
0.0004047037
0.00048478681
0.00058248029
0.0007018747
0.00084808071
0.001017657
0.0010176718
0.0010175511
0.0010174001
0.0010171681
0.0010168447
0.0010164082
0.0010158339
0.001015096
0.0010141783
0.0010130818
0.0010118332
0.0010104925
0.0010090968
0.0010080477
0.0010072673
0.0010066654
0.0010061676
0.0010057779
0.001005755
0.0010062905
3.3588556e-07
8.6959922e-06
1.7776371e-05
1.8163247e-05
1.3273765e-05
1.7466382e-05
1.2483369e-05
1.6139858e-05
1.3538489e-05
1.7814898e-05
1.6535878e-05
1.8435661e-05
1.7589195e-05
1.750692e-05
1.7124709e-05
1.6917303e-05
1.6773458e-05
1.6716209e-05
1.6734972e-05
1.6824386e-05
1.698353e-05
1.7212323e-05
1.7509487e-05
1.7875647e-05
1.8311862e-05
1.8823252e-05
1.9415361e-05
2.0097543e-05
2.0882293e-05
2.1784851e-05
2.2820516e-05
2.4008049e-05
2.5372513e-05
2.6944553e-05
2.8762971e-05
3.0874486e-05
3.3336096e-05
3.6215513e-05
3.9593869e-05
4.3573646e-05
4.8283764e-05
5.3868844e-05
6.0508971e-05
6.8429875e-05
7.7910934e-05
8.9277068e-05
0.00010293329
0.0001193779
0.00013922135
0.00016321069
0.00019225853
0.000227493
0.000270297
0.00032237452
0.00038582125
0.00046322851
0.00055781844
0.00067361203
0.00081563623
0.00099017863
0.0010170415
0.0010168908
0.0010167116
0.001016453
0.0010161045
0.0010156455
0.0010150527
0.0010143014
0.001013376
0.0010122796
0.0010110383
0.0010097208
0.0010083963
0.0010074261
0.001006711
0.0010061584
0.0010056704
0.0010052599
0.0010053211
0.0010055051
3.0589831e-07
8.4821444e-06
1.6965149e-05
1.8173574e-05
1.3266298e-05
1.5465773e-05
1.1156956e-05
1.415885e-05
1.2258928e-05
1.5765298e-05
1.5144817e-05
1.6421362e-05
1.5862036e-05
1.5652498e-05
1.5351238e-05
1.5156993e-05
1.5036482e-05
1.4990241e-05
1.501361e-05
1.5100671e-05
1.5250716e-05
1.5464225e-05
1.5740328e-05
1.6080121e-05
1.6484564e-05
1.6958807e-05
1.7508055e-05
1.8140997e-05
1.8869207e-05
1.9707554e-05
2.0670977e-05
2.1777078e-05
2.3049639e-05
2.4517486e-05
2.6217468e-05
2.8193986e-05
3.050159e-05
3.3205597e-05
3.638374e-05
4.0132721e-05
4.4578469e-05
4.9861264e-05
5.6154479e-05
6.3674329e-05
7.2694781e-05
8.353175e-05
9.6578513e-05
0.00011232048
0.00013135329
0.0001544086
0.00018237823
0.00021636825
0.00025773527
0.00030815456
0.00036968867
0.000444889
0.00053693046
0.00064978058
0.00078840399
0.00095900748
0.0010164547
0.0010162714
0.0010160587
0.0010157689
0.0010153906
0.0010149047
0.0010142893
0.0010135213
0.0010125848
0.0010114852
0.0010102492
0.001008948
0.0010077034
0.0010068116
0.0010061606
0.0010056519
0.001005172
0.0010047586
0.0010047961
0.001004729
2.797266e-07
8.3532366e-06
1.631665e-05
1.794753e-05
1.3048833e-05
1.3711469e-05
1.05717e-05
1.2518132e-05
1.1409719e-05
1.4037021e-05
1.3924842e-05
1.4649706e-05
1.4282269e-05
1.3997584e-05
1.3747461e-05
1.3568386e-05
1.3462916e-05
1.3423523e-05
1.3447891e-05
1.3530405e-05
1.3670341e-05
1.3868642e-05
1.4124685e-05
1.4439948e-05
1.4815374e-05
1.5256113e-05
1.576709e-05
1.6356475e-05
1.7034945e-05
1.7816965e-05
1.8717285e-05
1.9752572e-05
2.0945591e-05
2.2323664e-05
2.3922032e-05
2.578318e-05
2.7959588e-05
3.0514662e-05
3.3523966e-05
3.7079217e-05
4.1303615e-05
4.6334606e-05
5.234125e-05
5.953116e-05
6.8174765e-05
7.858199e-05
9.1137369e-05
0.00010631709
0.00012470574
0.00014702525
0.00017415267
0.00020717949
0.00024744477
0.00029660553
0.00035670454
0.00043026927
0.00052044645
0.00063117269
0.00076738037
0.00093523604
0.0010159061
0.0010156876
0.0010154372
0.001015112
0.0010147002
0.0010141837
0.0010135426
0.0010127553
0.0010118052
0.0010106994
0.0010094677
0.0010081755
0.0010070217
0.0010062078
0.0010056188
0.0010051494
0.0010046787
0.0010042687
0.0010042639
0.0010039785
2.4871195e-07
8.283017e-06
1.5809033e-05
1.6978014e-05
1.2947452e-05
1.2121368e-05
1.0613749e-05
1.1545356e-05
1.0962049e-05
1.2533134e-05
1.2826627e-05
1.3081793e-05
1.2814148e-05
1.2496451e-05
1.2275232e-05
1.2111449e-05
1.2017091e-05
1.1983411e-05
1.2008511e-05
1.2087357e-05
1.2218915e-05
1.2404516e-05
1.2643528e-05
1.2861582e-05
1.3202959e-05
1.360699e-05
1.4077855e-05
1.4623011e-05
1.5252056e-05
1.5978721e-05
1.6817526e-05
1.7784232e-05
1.8900668e-05
2.0192713e-05
2.169412e-05
2.3445612e-05
2.5497723e-05
2.7911983e-05
3.0762536e-05
3.4394808e-05
3.8439111e-05
4.3266428e-05
4.9043929e-05
5.5971847e-05
6.4318137e-05
7.4389661e-05
8.6565108e-05
0.00010131479
0.00011921541
0.00014098445
0.00016748944
0.00019981407
0.00023928764
0.00028755795
0.00034665958
0.00041911023
0.0005080449
0.00061738836
0.00075206491
0.00091823407
0.001015392
0.0010151359
0.0010148441
0.00101448
0.0010140313
0.0010134812
0.0010128115
0.0010120025
0.0010110372
0.0010099219
0.0010086942
0.0010074063
0.0010063578
0.0010056204
0.0010050906
0.0010046566
0.0010041966
0.0010037888
0.0010037191
0.0010032522
2.2895547e-07
8.2428592e-06
1.5373697e-05
1.5442626e-05
1.1834025e-05
1.0567265e-05
9.1540008e-06
1.030028e-05
9.611331e-06
1.1270831e-05
1.1715589e-05
1.1637253e-05
1.1409088e-05
1.1099317e-05
1.0902032e-05
1.0758206e-05
1.0677524e-05
1.0652553e-05
1.0616476e-05
1.0678973e-05
1.0794242e-05
1.0962608e-05
1.1181862e-05
1.1452173e-05
1.1777673e-05
1.2161345e-05
1.2607668e-05
1.3124034e-05
1.37195e-05
1.4407366e-05
1.5202347e-05
1.6119719e-05
1.7180857e-05
1.8410722e-05
1.9842183e-05
2.1514842e-05
2.3478041e-05
2.5792137e-05
2.8530738e-05
3.178344e-05
3.5659429e-05
4.0296965e-05
4.5863159e-05
5.2995612e-05
6.1125089e-05
7.0956137e-05
8.2864841e-05
9.7318883e-05
0.0001148904
0.000136298
0.00016240528
0.00019429525
0.0002332958
0.00028105527
0.00033961217
0.00041148956
0.00049982845
0.00060856222
0.00074263136
0.0009082219
0.0010149071
0.0010146112
0.0010142753
0.0010138694
0.0010133813
0.0010127951
0.0010120943
0.0010112616
0.0010102801
0.0010091525
0.0010079286
0.001006666
0.0010057156
0.0010050528
0.0010045788
0.0010041773
0.0010037307
0.001003323
0.0010031837
0.0010025653
2.108048e-07
8.2009342e-06
1.4918108e-05
1.3518347e-05
9.7295006e-06
9.3943815e-06
7.5498872e-06
8.7888307e-06
8.9635277e-06
1.0134164e-05
1.0585377e-05
1.0290784e-05
1.0081719e-05
9.8035755e-06
9.6307242e-06
9.442591e-06
9.3526866e-06
9.3233392e-06
9.347234e-06
9.4214903e-06
9.5419986e-06
9.710345e-06
9.9254338e-06
1.0187249e-05
1.0499915e-05
1.0867321e-05
1.129399e-05
1.178735e-05
1.2356087e-05
1.3013054e-05
1.3773251e-05
1.4651694e-05
1.5669586e-05
1.685125e-05
1.8229001e-05
1.9841754e-05
2.1738125e-05
2.397781e-05
2.6633747e-05
2.9794664e-05
3.356999e-05
3.8095855e-05
4.354196e-05
5.0104965e-05
5.8037066e-05
6.7651983e-05
8.0027236e-05
9.4319202e-05
0.00011171977
0.00013295401
0.00015888748
0.00019060969
0.00022945567
0.00027708407
0.00033554964
0.00040739615
0.00049578872
0.00060468995
0.00073907975
0.00090520168
0.001014446
0.0010141083
0.0010137261
0.0010132767
0.0010127473
0.0010121233
0.0010113895
0.0010105313
0.0010095332
0.0010083918
0.0010071673
0.0010059575
0.0010050995
0.001004508
0.0010040857
0.0010037151
0.0010032861
0.0010028781
0.0010026779
0.0010019301
1.9290122e-07
8.1596482e-06
1.3373627e-05
1.1772187e-05
7.8680562e-06
8.351778e-06
6.7217884e-06
7.9281647e-06
8.2960909e-06
9.061132e-06
9.4649126e-06
9.0616142e-06
8.8593913e-06
8.5345909e-06
8.3528266e-06
8.234616e-06
8.1771418e-06
8.1718538e-06
8.2127375e-06
8.2965815e-06
8.4242126e-06
8.5928954e-06
8.8049928e-06
9.0604742e-06
9.363678e-06
9.7188817e-06
1.0130763e-05
1.0606904e-05
1.1155761e-05
1.1789766e-05
1.2524257e-05
1.337429e-05
1.4361118e-05
1.5508689e-05
1.6849081e-05
1.8420914e-05
2.0272505e-05
2.2463404e-05
2.5066785e-05
2.8171696e-05
3.1887554e-05
3.6349969e-05
4.1731624e-05
4.822912e-05
5.609674e-05
6.5650029e-05
7.7278005e-05
9.1437124e-05
0.00010970048
0.00013095109
0.00015693749
0.00018876268
0.00022777802
0.00027566278
0.0003345007
0.00040687231
0.00049598602
0.00060585559
0.00074152403
0.00090932138
0.0010140026
0.0010136213
0.0010131918
0.0010126976
0.001012126
0.0010114633
0.0010106956
0.0010098101
0.0010087948
0.0010076415
0.0010064071
0.0010052851
0.0010045126
0.0010039878
0.0010036135
0.0010032731
0.0010028676
0.0010024605
0.0010022019
0.001001367
1.7822406e-07
8.1132786e-06
1.0623555e-05
9.7573703e-06
6.4649581e-06
7.4345493e-06
6.1252688e-06
7.1197942e-06
7.7565847e-06
8.0855162e-06
8.36444e-06
7.8567718e-06
7.6086097e-06
7.3807941e-06
7.2447683e-06
7.1641793e-06
7.1341849e-06
7.149768e-06
7.2054096e-06
7.3004106e-06
7.432083e-06
7.602781e-06
7.8138767e-06
8.0658303e-06
8.3630706e-06
8.7103079e-06
9.1124836e-06
9.5773903e-06
1.0113444e-05
1.0732733e-05
1.1392101e-05
1.2214686e-05
1.317208e-05
1.4287834e-05
1.5593779e-05
1.7128271e-05
1.8939396e-05
2.108661e-05
2.3643438e-05
2.6699525e-05
3.0365277e-05
3.5050415e-05
4.0423809e-05
4.6923461e-05
5.4805874e-05
6.4389631e-05
7.6074516e-05
9.0327498e-05
0.00010773761
0.00012903925
0.00015655218
0.00018875515
0.00022826945
0.00027680572
0.00033649001
0.00040995655
0.00050047709
0.00061214018
0.0007500768
0.00092073005
0.0010135708
0.0010131444
0.0010126672
0.001012128
0.001011514
0.0010108125
0.0010100107
0.0010090966
0.0010080625
0.0010069039
0.0010056525
0.001004652
0.0010039579
0.0010034946
0.0010031652
0.0010028556
0.0010024792
0.0010020739
0.0010017457
0.0010008886
1.6498685e-07
8.0659324e-06
8.3819716e-06
8.3090381e-06
5.690483e-06
6.5812054e-06
5.6209619e-06
6.4135915e-06
7.2052713e-06
7.1734309e-06
7.1709878e-06
6.7386847e-06
6.535205e-06
6.3662346e-06
6.2691082e-06
6.219929e-06
6.2140185e-06
6.2472981e-06
6.3162675e-06
6.4206069e-06
6.5590454e-06
6.7331975e-06
6.9455734e-06
7.197092e-06
7.4922662e-06
7.8023423e-06
8.1932279e-06
8.6461693e-06
9.1694486e-06
9.7747176e-06
1.0476007e-05
1.1291592e-05
1.2242054e-05
1.3351013e-05
1.4650597e-05
1.6179557e-05
1.7986563e-05
2.0131847e-05
2.2690396e-05
2.575374e-05
2.9434875e-05
3.387503e-05
3.9247243e-05
4.5758973e-05
5.3670907e-05
6.3857629e-05
7.5711676e-05
9.0190744e-05
0.00010789414
0.00012957884
0.00015616987
0.00019058672
0.00023093661
0.000280529
0.00034154605
0.00041669364
0.00050932825
0.00062363869
0.00076487165
0.00093960738
0.0010131447
0.0010126717
0.0010121473
0.0010115634
0.0010109077
0.0010101679
0.0010093325
0.0010083898
0.0010073338
0.0010061787
0.0010049619
0.0010040606
0.0010034382
0.001003031
0.0010027449
0.0010024676
0.0010021233
0.0010017244
0.0010013364
0.0010005593
1.5317671e-07
8.0078587e-06
6.6664459e-06
7.2880477e-06
5.0678785e-06
5.8194119e-06
5.1864467e-06
5.7859171e-06
6.5489701e-06
6.1386368e-06
6.0933695e-06
5.7597554e-06
5.5973891e-06
5.476027e-06
5.4122276e-06
5.3900784e-06
5.4052763e-06
5.4553456e-06
5.5373857e-06
5.6518431e-06
5.7980049e-06
5.9777937e-06
6.1677792e-06
6.4164219e-06
6.7083439e-06
7.0476595e-06
7.4413532e-06
7.8968917e-06
8.4227731e-06
9.0308485e-06
9.7352961e-06
1.0554163e-05
1.1509265e-05
1.2624578e-05
1.3932772e-05
1.5473354e-05
1.7296101e-05
1.9462517e-05
2.2049744e-05
2.5152193e-05
2.8885653e-05
3.3394452e-05
3.8860439e-05
4.5496207e-05
5.3570473e-05
6.3417598e-05
7.5453129e-05
9.0179512e-05
0.00010916886
0.00013142835
0.00015874443
0.00019229871
0.00023577833
0.00028684091
0.00034968909
0.0004271197
0.00052259676
0.00064043626
0.00078603329
0.00096612981
0.0010127184
0.001012198
0.0010116272
0.0010109997
0.0010103035
0.0010095265
0.0010086583
0.001007689
0.0010066106
0.0010054521
0.0010043267
0.0010035149
0.0010029565
0.0010025998
0.0010023561
0.0010021125
0.0010018014
0.0010014231
0.0010009895
0.0010002873
1.4263392e-07
7.9365696e-06
5.3446299e-06
6.3622055e-06
4.5126279e-06
5.1404951e-06
4.8145784e-06
5.145782e-06
5.7252817e-06
5.2391352e-06
5.1472339e-06
4.9025827e-06
4.7788786e-06
4.6972955e-06
4.6630638e-06
4.665287e-06
4.7002457e-06
4.7664848e-06
4.8619276e-06
4.9686606e-06
5.1184364e-06
5.3016914e-06
5.5206611e-06
5.7782691e-06
6.0787431e-06
6.4265819e-06
6.828694e-06
7.2931732e-06
7.8287425e-06
8.4474129e-06
9.163484e-06
9.9952268e-06
1.0915209e-05
1.2037781e-05
1.3355417e-05
1.4908349e-05
1.6747668e-05
1.893621e-05
2.1553314e-05
2.4696787e-05
2.8486211e-05
3.3321365e-05
3.8932926e-05
4.5755505e-05
5.4066958e-05
6.4211097e-05
7.6623227e-05
9.1827881e-05
0.00011046772
0.00013456474
0.00016283939
0.00019759093
0.00024032865
0.00029573358
0.00036092172
0.00044125045
0.00054031689
0.00066259156
0.00081365602
0.0010004467
0.0010122868
0.0010117184
0.0010111027
0.0010104329
0.001009698
0.0010088856
0.0010079852
0.0010069914
0.0010058991
0.0010047278
0.001003747
0.0010030172
0.0010025157
0.0010022033
0.0010020001
0.0010017912
0.0010015102
0.0010011675
0.0010007346
0.0010001089
1.3322637e-07
7.8038541e-06
4.3358518e-06
5.5377124e-06
4.0159565e-06
4.5355756e-06
4.4875192e-06
4.4500362e-06
4.8949991e-06
4.436534e-06
4.3267014e-06
4.1553324e-06
4.0683767e-06
4.0211963e-06
4.0138419e-06
4.0386067e-06
4.0924822e-06
4.1581044e-06
4.2620334e-06
4.3958568e-06
4.5604148e-06
4.757208e-06
4.9891593e-06
5.2593987e-06
5.5727207e-06
5.9338899e-06
6.3498816e-06
6.8085859e-06
7.3545948e-06
7.9844306e-06
8.7124366e-06
9.5569018e-06
1.0540186e-05
1.1690396e-05
1.3041055e-05
1.4633707e-05
1.6521738e-05
1.877033e-05
2.1461945e-05
2.4699318e-05
2.8607492e-05
3.3344096e-05
3.9099828e-05
4.6109688e-05
5.4663357e-05
6.566424e-05
7.8560284e-05
9.4370294e-05
0.00011376841
0.00013758662
0.00016841827
0.00020464756
0.00024922315
0.00030408883
0.00037521339
0.00045906309
0.00056247763
0.00069011015
0.00084776878
0.0010124399
0.0010118448
0.0010112291
0.0010105704
0.00100986
0.001009088
0.0010082428
0.0010073125
0.0010062936
0.0010052018
0.0010040847
0.0010032187
0.0010025685
0.0010021177
0.0010018423
0.0010016752
0.0010015017
0.0010012484
0.0010009468
0.0010005757
0.0010000154
1.2487737e-07
7.4770504e-06
3.6404322e-06
4.8057124e-06
3.5730739e-06
3.998925e-06
3.9763943e-06
3.8199525e-06
4.0959955e-06
3.7269399e-06
3.6232691e-06
3.5103359e-06
3.4577995e-06
3.4409801e-06
3.4582145e-06
3.4910881e-06
3.5570446e-06
3.6518851e-06
3.7748129e-06
3.9260638e-06
4.1071061e-06
4.3199605e-06
4.5679707e-06
4.854555e-06
5.173038e-06
5.5482823e-06
5.9788111e-06
6.4726911e-06
7.0400683e-06
7.6930268e-06
8.4462846e-06
9.318874e-06
1.0334075e-05
1.1521063e-05
1.2915686e-05
1.4561015e-05
1.6513302e-05
1.8840806e-05
2.1629393e-05
2.4987928e-05
2.9046477e-05
3.3970636e-05
3.9963566e-05
4.7270836e-05
5.6198533e-05
6.7122377e-05
8.1219997e-05
9.7762234e-05
0.00011806827
0.00014302098
0.00017368454
0.00021340419
0.00026015143
0.00031771114
0.00038860378
0.00048047156
0.00058899326
0.00072291066
0.00088829248
0.0010120201
0.0010113884
0.0010107278
0.0010100278
0.0010092789
0.0010084715
0.0010075959
0.0010066411
0.0010056001
0.0010044995
0.0010035043
0.0010027419
0.0010021674
0.0010017633
0.0010015172
0.0010013788
0.0010012397
0.0010010198
0.0010007564
0.0010004802
0.00099993229
1.1766707e-07
7.071621e-06
3.1971202e-06
4.1559323e-06
3.1785342e-06
3.3740076e-06
3.5235208e-06
3.2426375e-06
3.3741905e-06
3.1106665e-06
3.0278533e-06
2.9610882e-06
2.9397974e-06
2.9500998e-06
2.9748688e-06
3.0363612e-06
3.1255603e-06
3.2412802e-06
3.3836276e-06
3.5535664e-06
3.7531072e-06
3.9845516e-06
4.2433707e-06
4.5468714e-06
4.8942109e-06
5.2910498e-06
5.7441933e-06
6.2619968e-06
6.8548105e-06
7.535486e-06
8.3192099e-06
9.2258239e-06
1.0279666e-05
1.1511377e-05
1.2903333e-05
1.459842e-05
1.6611543e-05
1.9014562e-05
2.2029028e-05
2.5533908e-05
2.977404e-05
3.4922971e-05
4.1197474e-05
4.8856418e-05
5.8221616e-05
6.969164e-05
8.3755687e-05
0.0001010144
0.00012329793
0.00014955859
0.00018184462
0.00022155893
0.00027299447
0.0003336416
0.00040834874
0.00050529747
0.00061966677
0.00076078252
0.00093500265
0.0010115863
0.0010109164
0.0010102134
0.001009474
0.0010086888
0.0010078483
0.0010069437
0.0010059688
0.0010049238
0.0010038452
0.001002984
0.0010023143
0.0010018108
0.0010014518
0.0010012285
0.0010011103
0.0010009997
0.0010008253
0.0010006243
0.0010003763
0.0009999611
1.1185239e-07
6.0882066e-06
2.8180352e-06
3.5657264e-06
2.8362078e-06
2.7975541e-06
3.0730685e-06
2.7202271e-06
2.7548797e-06
2.5843671e-06
2.5290971e-06
2.4997724e-06
2.4991516e-06
2.5269533e-06
2.5859616e-06
2.6721348e-06
2.7835966e-06
2.920176e-06
3.0827284e-06
3.2726577e-06
3.4872142e-06
3.7374093e-06
4.0233327e-06
4.3490221e-06
4.7193012e-06
5.1400218e-06
5.6183004e-06
6.1628156e-06
6.7842404e-06
7.4794129e-06
8.2921346e-06
9.2306826e-06
1.0320395e-05
1.1593019e-05
1.3088266e-05
1.4855794e-05
1.6957008e-05
1.9468795e-05
2.2486583e-05
2.6128303e-05
3.0540434e-05
3.6162128e-05
4.2757814e-05
5.0817737e-05
6.0680596e-05
7.2767599e-05
8.7597027e-05
0.00010580717
0.00012935978
0.00015708733
0.00019119113
0.00023315162
0.00028756731
0.00035166438
0.00043063832
0.00052798137
0.00065415096
0.00080333503
0.00098746618
0.0010111388
0.00101043
0.0010096874
0.0010089101
0.0010080908
0.0010072203
0.0010062899
0.0010052959
0.0010042549
0.0010032798
0.0010025222
0.0010019346
0.0010014943
0.0010011808
0.0010009772
0.0010008727
0.0010007801
0.0010006422
0.0010005014
0.0010003315
0.00099990106
1.0699415e-07
4.2560143e-06
2.473744e-06
3.0189079e-06
2.4066345e-06
2.314194e-06
2.6018562e-06
2.255702e-06
2.2397208e-06
2.1413388e-06
2.1164633e-06
2.1123393e-06
2.1395595e-06
2.1975928e-06
2.2824125e-06
2.3916994e-06
2.5247888e-06
2.6821892e-06
2.8625354e-06
3.0718812e-06
3.3112325e-06
3.5834271e-06
3.8919182e-06
4.2409039e-06
4.6354458e-06
5.0816413e-06
5.58689e-06
6.1508856e-06
6.7997694e-06
7.5408375e-06
8.3912127e-06
9.3721626e-06
1.0510494e-05
1.1839875e-05
1.3402522e-05
1.5251061e-05
1.7450921e-05
2.008353e-05
2.3250231e-05
2.7076814e-05
3.1719198e-05
3.73697e-05
4.459563e-05
5.3097878e-05
6.3509479e-05
7.6276132e-05
9.194675e-05
0.00011119863
0.00013486723
0.00016545389
0.000201543
0.00024595876
0.00030064752
0.00037146582
0.00045509611
0.00055818839
0.00069191112
0.00084994512
0.0010114161
0.0010106794
0.0010099323
0.0010091532
0.0010083401
0.0010074881
0.0010065904
0.0010056398
0.0010046375
0.0010036179
0.0010027861
0.0010021206
0.0010016035
0.0010012147
0.0010009437
0.0010007629
0.0010006677
0.0010005848
0.0010004707
0.0010003677
0.0010002514
0.0010000132
1.0183355e-07
3.5110778e-06
2.1159433e-06
2.5161728e-06
2.0545905e-06
1.9101287e-06
2.1191575e-06
1.8488974e-06
1.821036e-06
1.7774099e-06
1.7787557e-06
1.8053976e-06
1.8641498e-06
1.9487756e-06
2.0569084e-06
2.1876726e-06
2.3413072e-06
2.516962e-06
2.7194203e-06
2.94979e-06
3.210592e-06
3.5048819e-06
3.8363131e-06
4.209247e-06
4.6289192e-06
5.1016481e-06
5.6287988e-06
6.2296444e-06
6.9114928e-06
7.688689e-06
8.5792769e-06
9.6057834e-06
1.0796545e-05
1.2187194e-05
1.3822586e-05
1.5758898e-05
1.80659e-05
2.0830088e-05
2.4159078e-05
2.8185929e-05
3.3075872e-05
3.9315839e-05
4.6653223e-05
5.5629324e-05
6.6628512e-05
8.0122332e-05
9.6691942e-05
0.0001170543
0.00014341049
0.00017445854
0.00021265903
0.00025968628
0.00031760382
0.0003926181
0.00048121343
0.0005904447
0.00073218963
0.00089970557
0.001010971
0.0010102104
0.0010094282
0.0010086164
0.0010077706
0.0010068878
0.0010059646
0.0010049971
0.0010039986
0.0010030805
0.0010023537
0.0010017739
0.0010013208
0.0010009765
0.0010007373
0.0010005821
0.0010004941
0.0010004175
0.001000326
0.0010002671
0.0010001926
0.001000043
9.8046032e-08
2.8037949e-06
1.8060425e-06
2.0118571e-06
1.7635616e-06
1.5645285e-06
1.6742826e-06
1.5045949e-06
1.4916393e-06
1.491367e-06
1.5193583e-06
1.5789166e-06
1.664138e-06
1.7715477e-06
1.9002271e-06
2.0503876e-06
2.2219626e-06
2.4180797e-06
2.6403024e-06
2.890945e-06
3.1727748e-06
3.4890267e-06
3.8434902e-06
4.2406478e-06
4.6858718e-06
5.1820988e-06
5.7426006e-06
6.3748027e-06
7.0906917e-06
7.9053074e-06
8.8377396e-06
9.9118435e-06
1.1157655e-05
1.2612894e-05
1.4325011e-05
1.6353698e-05
1.8773597e-05
2.1676382e-05
2.5176571e-05
2.9415203e-05
3.4794634e-05
4.1126471e-05
4.8862103e-05
5.8332167e-05
6.9942195e-05
8.4191912e-05
0.00010169624
0.00012321423
0.00015103092
0.00018384568
0.00022423322
0.00027396541
0.00033523195
0.00041455324
0.000508308
0.00062393205
0.00077398173
0.00095140356
0.0010105233
0.0010097372
0.0010089242
0.0010080837
0.0010072099
0.0010062996
0.0010053537
0.0010043793
0.0010034066
0.0010026195
0.0010019799
0.0010014717
0.0010010764
0.0010007776
0.0010005564
0.0010004296
0.0010003488
0.0010002762
0.0010002014
0.0010001784
0.0010001443
0.001000064
9.5835285e-08
2.1871982e-06
1.5366211e-06
1.5324213e-06
1.4952087e-06
1.269186e-06
1.3125357e-06
1.2299828e-06
1.2445652e-06
1.2750015e-06
1.3362471e-06
1.4216772e-06
1.5282568e-06
1.6546489e-06
1.8010998e-06
1.9686114e-06
2.1580238e-06
2.3723205e-06
2.6133173e-06
2.8835511e-06
3.1859333e-06
3.5238171e-06
3.9010945e-06
4.3223462e-06
4.7930505e-06
5.3198665e-06
5.9110024e-06
6.5766596e-06
7.3211308e-06
8.1736629e-06
9.1485967e-06
1.0271203e-05
1.1573338e-05
1.3095006e-05
1.4886304e-05
1.7079259e-05
1.9633808e-05
2.2701139e-05
2.6403301e-05
3.0890916e-05
3.6349569e-05
4.3007578e-05
5.1147113e-05
6.1115661e-05
7.3341393e-05
8.8352286e-05
0.0001067983
0.0001306119
0.00015872243
0.00019331069
0.00023589264
0.00028834106
0.00035631276
0.0004365704
0.00053553006
0.00065762569
0.0008160242
0.0010035194
0.0010100813
0.0010092697
0.0010084292
0.0010075631
0.0010066666
0.0010057352
0.0010047682
0.0010037898
0.0010029221
0.0010022265
0.0010016634
0.0010012112
0.0010008571
0.0010006062
0.0010004101
0.0010002986
0.0010002261
0.0010001581
0.0010000992
0.0010001048
0.0010001104
0.0010000734
9.5984595e-08
1.6614814e-06
1.309276e-06
1.1655022e-06
1.2256241e-06
1.0220597e-06
1.0470963e-06
1.0270913e-06
1.0700336e-06
1.1298375e-06
1.2151106e-06
1.3200809e-06
1.4436538e-06
1.5859602e-06
1.7480456e-06
1.9313997e-06
2.1375359e-06
2.3690238e-06
2.6280256e-06
2.9171895e-06
3.2395124e-06
3.5984258e-06
3.9979065e-06
4.442636e-06
4.9382189e-06
5.4914802e-06
6.1108621e-06
6.8069205e-06
7.5929446e-06
8.4857414e-06
9.5065598e-06
1.068232e-05
1.2046957e-05
1.3643159e-05
1.5524388e-05
1.7757368e-05
2.0425162e-05
2.3631151e-05
2.7503315e-05
3.2200134e-05
3.7917417e-05
4.4896122e-05
5.3431052e-05
6.3887553e-05
7.6714613e-05
9.3231498e-05
0.00011273581
0.00013671309
0.00016620868
0.00020251423
0.00024722387
0.00030514582
0.00037354085
0.000457865
0.00056189539
0.00069702642
0.00085681745
0.0010104818
0.0010096539
0.0010088187
0.001007955
0.0010070651
0.0010061478
0.0010052036
0.0010042368
0.0010032795
0.001002519
0.0010018988
0.0010014016
0.0010010033
0.0010006878
0.0010004506
0.0010002892
0.0010001897
0.0010001223
0.0010000614
0.0010000193
0.0010000453
0.0010000837
0.0010000732
9.9293494e-08
1.2324429e-06
1.1210496e-06
8.9720194e-07
1.0685046e-06
8.1821575e-07
8.6488986e-07
8.8956386e-07
9.552552e-07
1.0381304e-06
1.1407879e-06
1.2607551e-06
1.3983888e-06
1.5546693e-06
1.7310558e-06
1.9292574e-06
2.1512169e-06
2.3989537e-06
2.6750959e-06
2.9822692e-06
3.3235344e-06
3.7023949e-06
4.1229155e-06
4.5898869e-06
5.1090546e-06
5.6874269e-06
6.3336912e-06
7.0587813e-06
7.876506e-06
8.8044065e-06
9.8646851e-06
1.1085543e-05
1.2502562e-05
1.4160534e-05
1.6115567e-05
1.8437717e-05
2.1214105e-05
2.4552782e-05
2.858744e-05
3.3483228e-05
3.9713246e-05
4.7049416e-05
5.6021179e-05
6.7011922e-05
8.049313e-05
9.70459e-05
0.00011738704
0.00014240108
0.00017317686
0.00021303797
0.00026005744
0.00031798452
0.00038939486
0.00047748514
0.0005919457
0.00072726576
0.00089450329
0.0010100873
0.0010092463
0.0010083932
0.0010075135
0.0010066054
0.0010056671
0.0010047028
0.001003737
0.0010028789
0.0010021896
0.0010016317
0.0010011846
0.0010008295
0.0010005586
0.001000344
0.001000192
0.0010001066
0.0010000402
0.00099998696
0.0009999618
0.0010000029
0.001000064
0.0010000744
1.058702e-07
9.5443325e-07
9.5692054e-07
7.5858649e-07
7.6180898e-07
6.9788927e-07
7.4287982e-07
8.0260685e-07
8.8553338e-07
9.8451277e-07
1.1002267e-06
1.2325687e-06
1.382586e-06
1.5515858e-06
1.7411517e-06
1.9530514e-06
2.1892599e-06
2.4519768e-06
2.7436646e-06
3.0670944e-06
3.4254102e-06
3.8222182e-06
4.2617104e-06
4.7488409e-06
5.2895702e-06
5.8890863e-06
6.5594487e-06
7.3106236e-06
8.1642446e-06
9.1271391e-06
1.0227525e-05
1.1494999e-05
1.2966877e-05
1.469007e-05
1.6723298e-05
1.9139773e-05
2.2030471e-05
2.5508141e-05
2.9712184e-05
3.4814712e-05
4.1027995e-05
4.8613668e-05
5.7893917e-05
6.9263737e-05
8.3211636e-05
0.00010033903
0.00012246842
0.00014855454
0.00018064394
0.0002201455
0.00026880186
0.00032877464
0.00040274578
0.00049874497
0.00061234812
0.0007527632
0.00092648459
0.0010097295
0.0010088717
0.0010080012
0.0010071091
0.0010061926
0.0010052492
0.0010042829
0.0010033292
0.0010025615
0.0010019329
0.0010014268
0.0010010207
0.0010006964
0.0010004627
0.0010002745
0.0010001239
0.001000051
0.00099998534
0.00099993918
0.00099992836
0.00099997937
0.0010000522
0.0010000675
1.2039464e-07
9.5793796e-07
7.9852028e-07
5.6253498e-07
6.0542362e-07
6.0831617e-07
6.7155162e-07
7.5002085e-07
8.4643524e-07
9.5755236e-07
1.0843461e-06
1.227632e-06
1.3886925e-06
1.5689292e-06
1.7699513e-06
1.9935504e-06
2.2417295e-06
2.5167284e-06
2.8210605e-06
3.1575564e-06
3.5294257e-06
3.9403428e-06
4.3945707e-06
4.897137e-06
5.4540854e-06
6.072819e-06
6.7625571e-06
7.5349209e-06
8.4046776e-06
9.3906302e-06
1.0516687e-05
1.1813208e-05
1.3318522e-05
1.5080825e-05
1.716043e-05
1.9632502e-05
2.2590393e-05
2.6149693e-05
3.0453194e-05
3.5677012e-05
4.2038212e-05
5.0161019e-05
5.9735271e-05
7.1462017e-05
8.5844596e-05
0.00010350249
0.00012520067
0.00015188419
0.00018472175
0.00022515824
0.0002749882
0.00033954398
0.00041592748
0.00051024532
0.00062682891
0.00077109464
0.00094981316
0.0010094357
0.0010085577
0.001007665
0.0010067541
0.0010058233
0.001004873
0.0010039162
0.0010030231
0.0010023161
0.001001738
0.0010012731
0.0010009011
0.0010006059
0.0010003902
0.0010002326
0.0010000954
0.0010000149
0.00099995339
0.00099991202
0.00099990959
0.00099996347
0.0010000413
0.0010000593
1.1039856e-07
6.1843259e-07
6.3322646e-07
4.6587254e-07
5.0801892e-07
5.5358406e-07
6.3193262e-07
7.2400007e-07
8.3106351e-07
9.52452e-07
1.0892305e-06
1.2424435e-06
1.4134e-06
1.6035557e-06
1.8145525e-06
2.0482281e-06
2.3066399e-06
2.5920578e-06
2.9071063e-06
3.2546655e-06
3.6380142e-06
4.0608978e-06
4.5276514e-06
5.0433786e-06
5.6142067e-06
6.247636e-06
6.9530063e-06
7.7421002e-06
8.6369583e-06
9.6457642e-06
1.079776e-05
1.2124074e-05
1.3663954e-05
1.5466712e-05
1.7593993e-05
2.0122584e-05
2.314779e-05
2.6787585e-05
3.1187704e-05
3.652789e-05
4.3029567e-05
5.0965218e-05
6.0669941e-05
7.2557559e-05
8.7137502e-05
0.00010503859
0.00012703755
0.00015544703
0.0001889945
0.00023030215
0.000281208
0.00034399438
0.00042150528
0.00051729256
0.00063580321
0.0007826178
0.00096473587
0.0010092312
0.0010083369
0.0010074248
0.001006494
0.0010055444
0.0010045806
0.0010036283
0.0010028049
0.0010021411
0.001001602
0.0010011682
0.0010008207
0.0010005496
0.001000341