/*--------------------------------*- C++ -*----------------------------------*\
  =========                 |
  \\      /  F ield         | OpenFOAM: The Open Source CFD Toolbox
   \\    /   O peration     | Website:  https://openfoam.org
    \\  /    A nd           | Version:  12
     \\/     M anipulation  |
\*---------------------------------------------------------------------------*/
FoamFile
{
    format      ascii;
    class       volScalarField;
    location    "0.034";
    object      omega;
}
// * * * * * * * * * * * * * * * * * * * * * * * * * * * * * * * * * * * * * //

dimensions      [0 0 -1 0 0 0 0];

internalField   nonuniform List<scalar> 
16000
(
1092.9686
2229.8955
1118.3092
665.88598
471.62001
326.75592
249.72562
187.74982
151.74502
122.19007
103.98403
88.65447
77.646548
68.301587
60.750327
54.364641
48.982891
44.391439
40.447312
37.033335
34.062655
31.46192
29.170616
27.140386
25.332356
23.716203
22.2667
20.964341
19.792754
18.737114
17.78385
16.922119
16.143284
15.44005
14.806244
14.236165
13.724487
13.266147
12.85685
12.493037
12.170794
11.88591
11.635284
11.41619
11.225576
11.060218
10.917581
10.795303
10.691126
10.60287
10.5285
10.466118
10.41379
10.369664
10.332089
10.29991
10.272783
10.251902
10.241166
10.239168
10.241152
10.245687
10.251007
10.255947
10.259456
10.26116
10.261164
10.259584
10.256056
10.249169
10.234586
10.20113
10.136884
10.068488
10.021856
10.003862
10.00037
10.006524
10.018295
10.037247
1134.4442
2214.0198
1104.8919
665.93569
471.21531
329.74859
250.50704
189.52614
152.40368
123.14979
104.42576
89.168808
77.941036
68.569373
60.930321
54.501366
49.075469
44.452655
40.48414
37.051123
34.065913
31.454964
29.156855
27.122533
25.312108
23.694938
22.245129
20.942798
19.771611
18.717022
17.765251
16.905112
16.127822
15.425961
14.79338
14.224434
13.71391
13.25671
12.848352
12.485354
12.164104
11.880197
11.630358
11.411942
11.222091
11.057451
10.915429
10.793662
10.689912
10.602
10.527871
10.465679
10.413565
10.369779
10.332749
10.301318
10.274924
10.254016
10.241295
10.238248
10.240073
10.244069
10.248429
10.252267
10.254732
10.25554
10.25469
10.252039
10.246935
10.237751
10.220148
10.183573
10.119138
10.055567
10.015428
10.001212
9.9988222
10.007348
10.019769
10.031829
1174.279
2211.4035
1091.0451
661.57577
467.17999
329.80882
249.04958
189.51492
151.74127
123.1965
104.14319
89.11061
77.759238
68.413356
60.743917
54.311012
48.879014
44.255562
40.289874
36.86152
33.882403
31.279214
28.990004
26.965541
25.165165
23.558212
22.118367
20.825488
19.663228
18.617406
17.674226
16.822266
16.052673
15.357929
14.731929
14.169068
13.66426
13.212471
12.80906
12.450493
12.133519
11.853641
11.607409
11.392164
11.205299
11.043377
10.903752
10.78406
10.682093
10.595701
10.522813
10.461639
10.410384
10.367404
10.33122
10.300749
10.27543
10.255369
10.241911
10.237299
10.238541
10.242186
10.245683
10.248467
10.249869
10.249646
10.247665
10.243542
10.236395
10.224464
10.203476
10.163813
10.100131
10.042686
10.009316
9.9979674
9.9973347
10.007437
10.019662
10.026595
1212.3135
2213.2467
1078.3993
657.40671
462.68611
329.52968
247.28145
189.36037
150.92247
123.13914
103.8052
88.990429
77.537967
68.210807
60.518725
54.083343
48.648736
44.0271
40.066716
36.645385
33.674402
31.080889
28.802308
26.789386
25.000617
23.405352
21.976885
20.694811
19.542681
18.506716
17.573183
16.730399
15.969464
15.282735
14.664156
14.108145
13.609734
13.164001
12.766183
12.412568
12.100321
11.82491
11.582711
11.370956
11.187352
11.028392
10.891373
10.773923
10.673858
10.589085
10.517509
10.457401
10.407029
10.36485
10.329467
10.299848
10.27543
10.256113
10.242511
10.236359
10.236357
10.239538
10.242204
10.243967
10.244288
10.242895
10.239499
10.233526
10.223979
10.209115
10.184927
10.143026
10.081708
10.031161
10.003859
9.9947944
9.9962621
10.007011
10.018587
10.020761
1248.4015
2227.4197
1067.0806
652.7535
457.32521
328.53971
244.80413
188.7019
149.71389
122.79653
103.27665
88.690855
77.178638
67.874971
60.178755
53.751556
48.325645
43.715057
39.768177
36.361207
33.404745
30.826554
28.563581
26.566681
24.793588
23.213723
21.800065
20.532002
19.392902
18.369402
17.447958
16.616627
15.866498
15.18979
14.580505
14.033074
13.542629
13.104399
12.713584
12.366157
12.059719
11.789771
11.552565
11.345096
11.16544
11.010055
10.876175
10.761425
10.663632
10.580791
10.51078
10.451938
10.402594
10.361304
10.326758
10.297969
10.274385
10.255811
10.24242
10.235052
10.233575
10.236098
10.237969
10.238681
10.237805
10.234998
10.229838
10.221646
10.209435
10.191596
10.164541
10.121373
10.063629
10.020338
9.9986267
9.9917188
9.9951576
10.006436
10.017345
10.015359
1282.3829
2249.6197
1058.4861
648.93545
452.04796
326.91527
241.78185
187.62427
148.21886
122.20999
102.60565
88.234968
76.701328
67.423647
59.738829
53.329336
47.921623
43.330062
39.403626
36.017297
33.080846
30.522843
28.279786
26.302673
24.548801
22.987592
21.591757
20.340552
19.21708
18.208379
17.301218
16.483387
15.746002
15.081124
14.48282
13.945531
13.464466
13.035014
12.65246
12.312366
12.012687
11.749048
11.517676
11.315185
11.140048
10.988743
10.858437
10.746758
10.651521
10.57085
10.50259
10.445159
10.396943
10.356601
10.322912
10.294928
10.272094
10.254163
10.241053
10.232881
10.230059
10.231604
10.232644
10.232192
10.229927
10.225416
10.218157
10.207473
10.192496
10.171848
10.142449
10.098997
10.04598
10.0101
9.9934605
9.9887888
9.994088
10.005935
10.015463
10.010326
1314.1754
2278.0319
1055.3188
645.54119
447.32972
324.65113
238.39856
186.14894
146.51172
121.38214
101.80268
87.620839
76.101952
66.854808
59.19588
52.814058
47.433914
42.869425
38.97022
35.610866
32.700032
30.167213
27.948622
25.994719
24.26377
22.724664
21.34985
20.118541
19.013499
18.022112
17.131602
16.329472
15.606919
14.955814
14.370301
13.844829
13.37467
12.955343
12.582352
12.250952
11.95903
11.702544
11.477861
11.281078
11.111023
10.964288
10.837974
10.729721
10.6373
10.559015
10.492671
10.436777
10.389778
10.350435
10.317625
10.290435
10.268299
10.250909
10.238045
10.229567
10.225557
10.225775
10.225865
10.224071
10.220171
10.213665
10.204051
10.190752
10.173106
10.149996
10.118881
10.076123
10.028875
10.000285
9.9880096
9.9859863
9.992937
10.005475
10.013474
10.006103
1343.8947
2309.9427
1055.0018
642.00464
442.73414
321.77017
235.40303
184.39737
144.8247
120.34013
100.88893
86.858342
75.382951
66.171994
58.551072
52.206106
46.862118
42.332424
38.466196
35.139945
32.260314
29.757679
27.568395
25.639174
23.93496
22.421615
21.071252
19.863137
18.77961
17.808309
16.937067
16.153071
15.447658
14.812473
14.241745
13.729932
13.272359
12.864639
12.502538
12.181914
11.898786
11.650269
11.433096
11.24285
11.078402
10.936674
10.814735
10.710225
10.620834
10.54511
10.480809
10.426549
10.380836
10.342532
10.310617
10.284217
10.262747
10.245851
10.233213
10.224529
10.219637
10.218276
10.217203
10.213846
10.208062
10.199338
10.187255
10.171419
10.151402
10.126327
10.094185
10.053048
10.012525
9.9908956
9.9827921
9.9832118
9.9913708
10.004191
10.010353
10.003076
1371.6693
2342.9174
1054.415
637.75738
437.9102
318.19231
231.80312
182.31469
142.81892
119.10793
99.865393
85.949881
74.538654
65.371828
57.800063
51.500191
46.200789
41.714044
37.883477
34.596348
31.753801
29.28668
27.132397
25.236671
23.563565
22.080053
20.757834
19.576367
18.517554
17.569151
16.719776
15.956307
15.27029
14.653099
14.099059
13.602636
13.159218
12.764505
12.41433
12.104533
11.831391
11.591735
11.382881
11.200507
11.042175
10.905833
10.788677
10.688184
10.602001
10.528967
10.4668
10.414245
10.369871
10.332637
10.301635
10.27603
10.255208
10.238762
10.226291
10.217356
10.21163
10.208774
10.206274
10.201139
10.193279
10.182245
10.167769
10.149683
10.127777
10.101374
10.068995
10.030399
9.9973906
9.9822487
9.9780893
9.9806179
9.9891857
10.001396
10.005598
10.000151
1397.5929
2375.0317
1046.2774
632.3361
431.26852
314.04566
227.21083
179.7424
140.67846
117.70897
98.720293
84.890755
73.560311
64.446089
56.934436
50.683001
45.435602
41.000548
37.220271
33.980798
31.182875
28.757635
26.643934
24.786059
23.148683
21.69921
20.408984
19.257782
18.22707
17.304535
16.47969
15.739247
15.074986
14.477949
13.942568
13.463315
13.035636
12.65532
12.318362
12.02067
11.758443
11.528379
11.328307
11.153611
11.001979
10.871367
10.759718
10.663478
10.580699
10.51044
10.450477
10.399675
10.356687
10.320553
10.290485
10.265688
10.245501
10.229461
10.2171
10.207875
10.201318
10.196994
10.192827
10.185759
10.175756
10.162497
10.14591
10.126052
10.102902
10.075972
10.044351
10.009252
9.9842047
9.9748641
9.9743421
9.9784058
9.986664
9.9973195
10.00011
9.9982484
1421.8091
2405.0977
1036.772
625.81772
423.01323
309.56868
222.23516
177.00185
138.48647
116.13032
97.438596
83.672747
72.435162
63.373435
55.930844
49.7493
44.567695
40.195854
36.474403
33.291142
30.545449
28.168645
26.101535
24.287157
22.690385
21.279306
20.025126
18.907988
17.908949
17.015448
16.217572
15.502704
14.862622
14.287942
13.773208
13.312898
12.902522
12.537935
12.215308
11.930642
11.680228
11.460568
11.269856
11.103443
10.958864
10.834033
10.727454
10.635708
10.556811
10.489383
10.431722
10.382721
10.341165
10.306171
10.277062
10.253093
10.233545
10.217876
10.205567
10.196005
10.188613
10.182838
10.176846
10.167809
10.155764
10.140565
10.122346
10.101359
10.077739
10.05124
10.021593
9.9910703
9.9738965
9.9694708
9.972222
9.977295
9.9848221
9.9936337
9.9958481
9.9968276
1444.4477
2433.9955
1023.0054
618.00294
413.16853
304.7061
217.1039
174.00202
136.28309
114.38289
95.991163
82.265405
71.124492
62.147243
54.792842
48.695551
43.593048
39.296207
35.64413
32.526187
29.840787
27.519436
25.505121
23.740015
22.189116
20.820602
19.60673
18.527658
17.564042
16.703074
15.933335
15.246629
14.63321
14.083155
13.591107
13.151536
12.760035
12.412503
12.105323
11.834612
11.596784
11.388919
11.207942
11.050103
10.912896
10.794104
10.692709
10.605396
10.529992
10.465475
10.410446
10.363349
10.3233
10.289504
10.26139
10.238282
10.219388
10.20407
10.191766
10.181826
10.173611
10.166462
10.158617
10.147737
10.13394
10.11728
10.09808
10.076748
10.053536
10.02844
10.001887
9.9773713
9.9673513
9.9671522
9.9721461
9.9779026
9.9847228
9.9918802
9.99373
9.9956055
1465.7771
2461.7964
1005.1656
608.83873
402.57924
299.43626
211.92654
170.81666
134.05159
112.44234
94.309204
80.651405
69.633267
60.761205
53.513585
47.517687
42.508803
38.299551
34.727672
31.684592
29.068434
26.810109
24.854596
23.144904
21.645735
20.322283
19.153123
18.116324
17.192004
16.367619
15.631731
14.975711
14.391279
13.867949
13.40041
12.983098
12.611749
12.282269
11.991293
11.735148
11.510165
11.313341
11.142483
10.993488
10.863897
10.751761
10.655455
10.572626
10.500907
10.439197
10.386446
10.341609
10.303219
10.270722
10.243657
10.221449
10.203248
10.188292
10.175975
10.165649
10.156671
10.148313
10.138748
10.126326
10.111248
10.09377
10.074377
10.053589
10.031725
10.008896
9.9860476
9.9694284
9.9647643
9.9672866
9.9741682
9.980311
9.9865103
9.9917288
9.9924726
9.9944466
1486.0556
2484.7814
983.05636
599.25411
391.60112
293.81559
206.78013
167.4461
131.71628
110.21102
92.375862
78.820015
67.948476
59.206894
52.086734
46.210574
41.310947
37.203271
33.723848
30.765216
28.227789
26.041056
24.148102
22.500088
21.059344
19.790393
18.670967
17.680995
16.800035
16.015654
15.316234
14.693349
14.13963
13.64482
13.203345
12.809532
12.459357
12.148695
11.874414
11.633204
11.421482
11.236131
11.075329
10.935145
10.813024
10.70684
10.615583
10.537168
10.469564
10.410847
10.360353
10.317483
10.281157
10.250156
10.224231
10.202969
10.185522
10.170981
10.158696
10.148036
10.138414
10.129106
10.118125
10.10462
10.088878
10.071338
10.052603
10.033251
10.013627
9.9939308
9.9755372
9.9664749
9.9644066
9.9700647
9.9778253
9.9838617
9.9888649
9.9923067
9.9913669
9.9934411
1505.5272
2498.2517
956.67242
589.01533
380.25643
287.86968
201.74926
163.81615
129.15286
107.69707
90.163012
76.753296
66.057346
57.473827
50.504514
44.768807
39.996489
36.004544
32.631415
29.764353
27.315484
25.21016
23.39372
21.815081
20.439404
19.230374
18.165796
17.226612
16.392789
15.651762
14.991715
14.404165
13.881101
13.416079
13.001834
12.632388
12.304099
12.012788
11.755466
11.529324
11.330894
11.15781
11.006893
10.875346
10.760737
10.66067
10.574259
10.499917
10.435879
10.380701
10.332661
10.291752
10.257308
10.228254
10.203648
10.183394
10.166779
10.152757
10.140625
10.129775
10.1197
10.109765
10.09782
10.083804
10.068094
10.051271
10.03399
10.016786
9.9999646
9.983919
9.9703024
9.9658165
9.9660635
9.9747677
9.9822889
9.9876145
9.9909547
9.9924488
9.9900779
9.9927065
1524.4135
2492.4338
926.30677
578.18365
368.59817
281.61017
196.82666
159.79506
126.27917
104.85395
87.639926
74.427862
63.943186
55.550292
48.758936
43.186201
38.561979
34.696814
31.445355
28.690366
26.343627
24.330572
22.59913
21.097803
19.793524
18.65051
17.645759
16.759191
15.975524
15.280465
14.661841
14.111785
13.622549
13.187764
12.801259
12.456447
12.15018
11.878308
11.637768
11.426485
11.24072
11.078455
10.937265
10.81409
10.706831
10.613442
10.531886
10.461548
10.400829
10.348848
10.30387
10.265115
10.232562
10.205402
10.182547
10.163419
10.147726
10.134373
10.122597
10.111822
10.101578
10.09131
10.078959
10.065046
10.050044
10.034611
10.01936
10.004675
9.9906446
9.977673
9.9691634
9.9670427
9.9722067
9.9802244
9.9867861
9.9908425
9.9922313
9.9921599
9.9890694
9.9922487
1542.8976
2446.2334
893.17847
566.78588
356.68477
274.95001
191.69649
155.35619
122.97617
101.63262
84.77187
71.818116
61.589258
53.425896
46.842657
41.452484
36.999211
33.291319
30.181713
27.554017
25.323395
23.414057
21.776768
20.36056
19.131193
18.058933
17.118681
16.290623
15.559187
14.911873
14.335848
13.823797
13.368318
12.963547
12.604361
12.283896
11.999271
11.74663
11.522561
11.325726
11.152367
11.000482
10.868444
10.753195
10.652625
10.565093
10.488953
10.422656
10.365219
10.316331
10.27428
10.23827
10.207735
10.18254
10.161479
10.14383
10.129162
10.11665
10.10548
10.095151
10.085181
10.074754
10.062584
10.04934
10.035585
10.02196
10.008956
9.9967728
9.9853866
9.9754413
9.97136
9.973169
9.9793239
9.985576
9.9908504
9.99357
9.9933646
9.991491
9.9886527
9.9917902
1560.8594
2407.7679
859.95024
554.78772
344.52003
267.34377
186.4364
150.3924
119.12435
97.972881
81.522209
68.898697
58.979114
51.091443
44.742219
39.578822
35.329516
31.803206
28.856867
26.373692
24.272491
22.478014
20.939928
19.615936
18.469734
17.471834
16.598477
15.830297
15.151808
14.552358
14.019026
13.544809
13.122774
12.747155
12.413021
12.116097
11.852241
11.618224
11.411079
11.22799
11.066594
10.924538
10.800996
10.693269
10.59909
10.516974
10.44553
10.383515
10.329837
10.284033
10.244956
10.211691
10.183639
10.160482
10.141369
10.125384
10.111907
10.100432
10.090121
10.08057
10.071292
10.061001
10.049519
10.037379
10.025181
10.01347
10.002584
9.9926127
9.9837366
9.9777758
9.9773605
9.9808191
9.9858876
9.9904414
9.9943609
9.996085
9.9947688
9.9914869
9.9885041
9.9908208
1577.7993
2366.4608
825.90929
541.85104
331.98997
258.54793
180.84744
144.78322
114.61062
93.811427
77.855901
65.647535
56.092836
48.531365
42.482835
37.587553
33.576846
30.258973
27.496244
25.173731
23.209959
21.540294
20.112233
18.884518
17.82362
16.901594
16.095666
15.387449
14.761279
14.207062
13.715294
13.27767
12.887892
12.540753
12.231802
11.956981
11.712622
11.495587
11.303216
11.133146
10.983251
10.851451
10.735799
10.635069
10.546957
10.470076
10.403192
10.345267
10.295399
10.252778
10.216751
10.186381
10.160998
10.139978
10.122889
10.108667
10.096713
10.086504
10.077313
10.068767
10.060371
10.050705
10.040251
10.029461
10.018889
10.008972
9.9999436
9.9919131
9.9853755
9.983285
9.9848093
9.9879527
9.9914282
9.994699
9.9973785
9.99852
9.9968872
9.9929726
9.9892328
9.9911728
1593.0349
2297.9245
790.27759
527.45213
318.30304
248.40501
174.60754
138.38523
109.33142
89.087388
73.745663
62.044012
52.947322
45.793968
40.101132
35.517838
31.779735
28.694062
26.128059
23.9795
22.167074
20.627806
19.312634
18.182812
17.207208
16.360008
15.619567
14.967905
14.392954
13.883579
13.431169
13.028203
12.668741
12.348009
12.062143
11.80774
11.581486
11.380347
11.201842
11.043665
10.903937
10.781048
10.673635
10.579364
10.496967
10.425105
10.36265
10.308659
10.262354
10.223359
10.190398
10.162934
10.140256
10.1217
10.106734
10.094415
10.084146
10.075453
10.067683
10.060439
10.05282
10.044121
10.03486
10.02546
10.016393
10.008016
10.00052
9.9941132
9.9901678
9.9900952
9.9920446
9.9943822
9.9963733
9.9983226
10.000043
10.000956
9.999782
9.9958877
9.9914772
9.9929925
1605.5109
2229.1409
752.08264
510.98241
303.84974
236.72296
167.23241
131.02711
103.20747
83.768977
69.184266
58.129104
49.605251
42.939139
37.657729
33.423599
29.985325
27.146308
24.793746
22.826315
21.168439
19.761307
18.558897
17.525246
16.632016
15.856151
15.176755
14.580113
14.052936
13.585042
13.169121
12.798229
12.466886
12.170602
11.905828
11.669769
11.459875
11.273091
11.107269
10.960189
10.829982
10.715742
10.615114
10.526926
10.44987
10.382814
10.324714
10.274726
10.232162
10.196414
10.166586
10.142048
10.122114
10.106088
10.09333
10.083031
10.07459
10.067571
10.061379
10.05551
10.048694
10.041093
10.033003
10.024831
10.016969
10.009728
10.003327
9.9981865
9.996476
9.9968906
9.9982286
9.9995084
10.000419
10.00132
10.002284
10.002975
10.002588
9.9996501
9.9951871
9.995435
1612.483
2145.6017
711.10618
490.72129
288.35228
223.18558
158.231
122.56562
96.236596
77.903017
64.256494
54.013016
46.165586
40.05531
35.228439
31.367565
28.240288
25.663205
23.527255
21.741634
20.236414
18.957994
17.864382
16.922628
16.10678
15.396288
14.774563
14.227696
13.744419
13.314312
12.931354
12.589408
12.28353
12.009576
11.76409
11.544376
11.349023
11.174943
11.020335
10.883355
10.762212
10.655226
10.561062
10.478487
10.406409
10.343879
10.28999
10.243805
10.205016
10.172539
10.145792
10.124119
10.106881
10.09343
10.08291
10.074695
10.06819
10.062918
10.058313
10.053539
10.047681
10.041084
10.033963
10.026661
10.019505
10.012782
10.006922
10.003555
10.002509
10.002667
10.003038
10.003159
10.003193
10.003401
10.003647
10.003869
10.003949
10.002557
9.9991778
9.9978034
1608.8528
2043.5764
666.80829
464.33026
271.62869
207.42843
147.35167
113.02215
88.571172
71.619344
59.152711
49.847221
42.750953
37.240364
32.892517
29.415225
26.599276
24.282657
22.35882
20.748177
19.387925
18.230342
17.238077
16.381716
15.637958
14.988325
14.418083
13.915169
13.469595
13.073265
12.719484
12.403036
12.119549
11.865425
11.637618
11.433519
11.2509
11.087928
10.942862
10.814179
10.700456
10.600263
10.51203
10.43473
10.367318
10.308968
10.259219
10.21687
10.181347
10.15206
10.128329
10.109432
10.09488
10.083769
10.075456
10.069295
10.064758
10.061211
10.058062
10.054045
10.049093
10.043271
10.036765
10.029847
10.02283
10.016169
10.011171
10.008424
10.007047
10.006331
10.00571
10.005056
10.004491
10.004121
10.004032
10.004132
10.004034
10.00348
10.001699
9.9996703
1588.2227
1913.2985
619.39851
431.12655
253.69383
189.23571
134.81708
102.72731
80.56865
65.252273
54.100249
45.801648
39.487715
34.589574
30.72304
27.623921
25.106777
23.03755
21.312626
19.86373
18.635941
17.587623
16.686266
15.906146
15.226654
14.631224
14.106714
13.642982
13.231158
12.864113
12.535692
12.241288
11.976991
11.739609
11.526461
11.335261
11.164012
11.010939
10.874452
10.75311
10.645694
10.551503
10.468649
10.396231
10.333326
10.279114
10.232871
10.193922
10.161512
10.135114
10.114263
10.098048
10.085835
10.076955
10.070734
10.066568
10.063767
10.061758
10.059598
10.056316
10.052021
10.046659
10.040357
10.033353
10.026105
10.01977
10.015211
10.011891
10.009524
10.00779
10.006495
10.005397
10.004232
10.003168
10.00266
10.002761
10.003295
10.003565
10.002519
10.000526
1541.9174
1755.152
570.07201
391.93317
235.43037
168.87997
121.32515
92.319252
72.698261
59.135129
49.329352
42.039632
36.49461
32.18882
28.782073
26.041273
23.803679
21.953694
20.40739
19.101954
17.990592
17.037443
16.214603
15.499988
14.87582
14.327449
13.842092
13.411594
13.028065
12.685916
12.379006
12.103301
11.855302
11.632153
11.431454
11.251161
11.089501
10.944903
10.81595
10.701356
10.599941
10.510616
10.432357
10.364042
10.304878
10.254076
10.210987
10.175195
10.14572
10.122034
10.103523
10.089565
10.079477
10.072566
10.068271
10.065807
10.064508
10.063741
10.062104
10.059389
10.055438
10.050196
10.043751
10.036472
10.029459
10.023437
10.018225
10.013914
10.010441
10.007664
10.005389
10.0035
10.002025
10.001042
10.000619
10.0008
10.001431
10.001869
10.001444
10.000245
1461.7292
1595.6885
519.85997
351.63352
210.94834
149.15402
107.83955
82.505036
65.428801
53.588878
45.059256
38.718451
33.883707
30.115037
27.118804
24.695128
22.704769
21.048788
19.655664
18.472933
17.460373
16.587362
15.82991
15.168993
14.589294
14.078339
13.625867
13.223382
12.863994
12.541968
12.252551
11.992003
11.757192
11.54554
11.354884
11.183376
11.02941
10.891552
10.768502
10.659066
10.562154
10.476839
10.402571
10.337899
10.282125
10.234484
10.1943
10.16094
10.133804
10.112248
10.095713
10.083599
10.075342
10.070103
10.067272
10.06621
10.065983
10.065916
10.064644
10.062183
10.058272
10.0529
10.046286
10.039569
10.032962
10.026483
10.020381
10.014848
10.010054
10.006091
10.002968
10.000618
9.9989592
9.9979693
9.9976724
9.9980286
9.9988284
9.9995674
9.9998181
9.9997417
1349.4855
1512.4784
472.75121
303.31186
186.58452
130.62711
95.651644
73.820321
59.141464
48.911455
41.511387
35.992315
31.761152
28.440538
25.781628
23.615772
21.825494
20.326753
19.05715
17.97333
17.040616
16.232589
15.528388
14.911339
14.367927
13.887118
13.459792
13.078447
12.737002
12.430876
12.155035
11.906221
11.68157
11.478747
11.29579
11.131026
10.983006
10.850441
10.732164
10.627094
10.53421
10.452525
10.381077
10.319088
10.265748
10.220335
10.182175
10.15068
10.125415
10.105547
10.090574
10.079901
10.07289
10.068846
10.06719
10.066873
10.067518
10.067389
10.066175
10.06362
10.059564
10.054261
10.048793
10.042675
10.035975
10.028902
10.021777
10.015
10.00894
10.003867
9.9999134
9.9970858
9.9953072
9.9944653
9.9944358
9.9950678
9.9961363
9.9973014
9.9982557
9.9992517
1216.708
1276.8143
431.80321
260.24534
163.92687
115.18233
85.574063
66.810161
54.171785
45.304984
38.842508
33.978923
30.215879
27.235968
24.829386
22.853344
21.207916
19.821465
18.64147
17.628598
16.752948
15.991234
15.325016
14.739408
14.222193
13.763224
13.354267
12.988412
12.659969
12.364238
12.097377
11.856187
11.638046
11.440775
11.262547
11.101804
10.957191
10.827507
10.711666
10.60868
10.517686
10.438112
10.368558
10.308332
10.256639
10.212752
10.175985
10.145699
10.121307
10.102265
10.088026
10.078015
10.071597
10.068117
10.066961
10.067419
10.068167
10.067924
10.066226
10.063154
10.059605
10.055817
10.051042
10.045229
10.038388
10.030743
10.022713
10.014831
10.00764
10.001575
9.9968981
9.9936824
9.9918399
9.9911835
9.9914723
9.9924354
9.993842
9.9954603
9.9971091
9.9989252
1097.3051
1131.3744
398.39779
228.98861
146.99134
103.83813
78.118189
61.705676
50.618692
42.773983
36.998474
32.610334
29.183628
26.446833
24.219225
22.376995
20.832901
19.523992
18.40386
17.437605
16.598469
15.865541
15.222189
14.655057
14.15372
13.707577
13.309194
12.95205
12.630799
12.340999
12.078999
11.841794
11.62691
11.432296
11.256231
11.097247
10.954064
10.825541
10.710638
10.60839
10.517895
10.438297
10.368792
10.308589
10.256935
10.213099
10.176384
10.146131
10.121733
10.102629
10.088264
10.078053
10.071391
10.06774
10.066609
10.067271
10.068221
10.068205
10.06666
10.063614
10.060737
10.057469
10.053126
10.047411
10.040325
10.032158
10.023392
10.014667
10.006635
9.9998393
9.9946266
9.9911037
9.9891643
9.9885845
9.9891173
9.9904849
9.9922745
9.9942741
9.9964278
9.9987524
1042.3092
1093.5176
373.61796
211.60452
135.92303
96.159827
72.57376
57.653369
47.593585
40.467138
35.205078
31.188804
28.038995
25.512786
23.448529
21.735093
20.293943
19.068244
18.016002
17.105595
16.312762
15.61853
15.007762
14.468146
13.989496
13.563299
13.182362
12.840644
12.533083
12.255471
12.004329
11.776795
11.570516
11.383546
11.214256
11.061259
10.923345
10.799433
10.688541
10.589758
10.502236
10.425175
10.357819
10.299446
10.249352
10.206847
10.171255
10.141923
10.118245
10.099676
10.085694
10.075744
10.069273
10.06595
10.064997
10.065259
10.066761
10.066273
10.064329
10.062671
10.06128
10.059235
10.0557
10.050243
10.043012
10.034459
10.025146
10.015792
10.007104
9.9996939
9.9939911
9.990152
9.9880315
9.987349
9.9873096
9.9892481
9.9915459
9.9937082
9.9961029
9.9986764
27949.204
77610.45
34231.87
9315.1851
1245.6472
594.51606
426.26601
342.70689
283.14195
230.28147
188.68036
156.67738
132.8274
114.80113
100.82007
89.587461
80.200055
72.12392
65.127854
59.073424
53.813767
49.212438
45.161386
41.57555
38.390902
35.544011
32.990499
30.691208
28.615037
26.7373
25.036626
23.493878
22.092546
20.818283
19.659914
18.607861
17.653373
16.788636
16.006532
15.300684
14.665512
14.095343
13.585091
13.130273
12.726413
12.36923
12.054915
11.779517
11.539466
11.331546
11.152714
11.000148
10.871053
10.762737
10.671973
10.595386
10.529824
10.474077
10.42772
10.397818
10.382529
10.370476
10.354747
10.334582
10.312373
10.292504
10.278799
10.27389
10.27899
10.288797
10.304885
10.319249
10.329917
10.333835
10.289487
10.293951
10.220237
10.21181
10.082336
10.128988
22482.686
52196.515
20972.783
4226.629
925.58027
515.86265
391.16449
313.51759
257.79639
207.78272
171.68308
143.6012
123.13961
107.41569
95.04881
84.908082
76.28039
68.798295
62.316156
56.698635
51.796975
47.489374
43.682926
40.30294
37.288627
34.587783
32.15978
29.967886
27.984599
26.1876
24.557079
23.075301
21.727087
20.499232
19.381697
18.365561
17.442635
16.605652
15.847944
15.163551
14.547241
13.993578
13.497812
13.0557
12.662935
12.315442
12.009599
11.741562
11.507929
11.305608
11.131649
10.983297
10.857776
10.752396
10.663889
10.588769
10.524107
10.468438
10.422168
10.392935
10.377352
10.363689
10.346052
10.324696
10.302735
10.284677
10.273481
10.271778
10.278706
10.2906
10.306971
10.320806
10.330179
10.33329
10.2908
10.2926
10.214746
10.196557
10.081264
10.119885
32079.526
28215.262
10853.037
2116.0947
797.23211
489.07558
382.17936
298.79058
245.75898
197.04073
164.68474
137.80994
118.88973
103.94893
92.220694
82.488268
74.169506
66.963768
60.734291
55.329847
50.604859
46.447623
42.770765
39.502579
36.583057
33.965737
31.611144
29.483368
27.556848
25.810095
24.223961
22.781399
21.467907
20.270825
19.180752
18.189041
17.287823
16.470144
15.729582
15.060419
14.457628
13.915906
13.430728
12.99799
12.613481
12.273268
11.973848
11.711435
11.482739
11.284748
11.114568
10.969476
10.846719
10.743609
10.656696
10.58261
10.518541
10.462988
10.416626
10.387815
10.371635
10.356335
10.337071
10.315014
10.293863
10.277897
10.269218
10.270859
10.279166
10.293406
10.308972
10.322116
10.330117
10.332478
10.291908
10.290905
10.204566
10.17128
10.079151
10.111458
38107.312
22114.77
7346.4511
1394.3391
737.30638
468.46271
370.4886
283.71718
235.94953
187.42425
158.43944
132.24322
114.9175
100.64886
89.552745
80.193138
72.175991
65.236363
59.241619
54.033392
49.472758
45.455836
41.899623
38.735493
35.906576
33.365636
31.079371
29.011839
27.138949
25.439823
23.895957
22.490917
21.210806
20.043453
18.980054
18.012168
17.132229
16.333564
15.609965
14.955937
14.366638
13.836879
13.362353
12.939071
12.56291
12.230072
11.937162
11.680439
11.456729
11.263091
11.096682
10.954822
10.834856
10.733863
10.648509
10.575447
10.511971
10.456801
10.410468
10.382124
10.365285
10.348426
10.327836
10.305538
10.285686
10.271962
10.265867
10.26985
10.280314
10.295589
10.310934
10.323163
10.329882
10.331416
10.293046
10.288819
10.192111
10.141598
10.072979
10.102786
41501.442
19888.572
5391.5236
1189.5241
710.91124
450.01955
362.08469
272.83191
229.27205
180.26813
154.11091
128.0205
112.01399
98.108668
87.48361
78.363682
70.572778
63.836829
58.020603
52.961702
48.527906
44.62068
41.15978
38.078693
35.322316
32.845857
30.613853
28.596205
26.768177
25.10922
23.601303
22.228443
20.977195
19.835748
18.795785
17.84896
16.987968
16.20635
15.498059
14.857777
14.280805
13.762036
13.297355
12.882853
12.514473
12.188535
11.90173
11.650346
11.431317
11.241758
11.078876
10.940038
10.822626
10.723594
10.639683
10.567587
10.504716
10.449969
10.4039
10.375994
10.358418
10.340121
10.318549
10.296478
10.278353
10.266904
10.263557
10.269389
10.281979
10.29779
10.31275
10.323883
10.329612
10.330092
10.294509
10.285982
10.179462
10.117962
10.062575
10.093695
43921.346
18645.507
4251.9731
1129.3825
694.42893
435.20877
356.24955
264.5513
224.35598
174.59055
150.75004
124.53401
109.66691
95.986301
85.744501
76.798004
69.197651
62.630446
56.960436
52.024657
47.696762
43.881785
40.501477
37.491006
34.796822
32.375308
30.190871
28.216646
26.427825
24.804237
23.328177
21.98401
20.758655
19.640583
18.621905
17.694299
16.850704
16.084826
15.390745
14.763293
14.197882
13.68947
13.234114
12.827954
12.466989
12.147647
11.866686
11.620413
11.405868
11.220216
11.060721
10.924837
10.809761
10.712598
10.63009
10.558971
10.496759
10.442504
10.396951
10.369458
10.351111
10.331542
10.309356
10.287969
10.271888
10.262675
10.262489
10.269798
10.28404
10.300113
10.314355
10.324237
10.329325
10.328522
10.29588
10.28203
10.16629
10.099227
10.051609
10.084303
45783.415
16605.829
3477.5572
1089.4488
683.01054
424.68692
351.58042
258.12977
220.50638
170.18013
148.10822
121.69137
107.77071
94.22376
84.27468
75.455579
68.015362
61.587175
56.037126
51.20316
46.963742
43.22636
39.914273
36.963957
34.323051
31.949017
29.807417
27.86978
26.115081
24.522631
23.074814
21.75624
20.554114
19.457133
18.457779
17.547698
16.720065
15.968704
15.287798
14.672303
14.11772
13.619051
13.172509
12.774257
12.420344
12.107292
11.831912
11.590527
11.380282
11.198396
11.042237
10.909045
10.796231
10.700888
10.619774
10.549672
10.488197
10.434533
10.389694
10.362581
10.343458
10.32282
10.300399
10.280136
10.266284
10.259274
10.261741
10.270974
10.286386
10.302389
10.315663
10.324205
10.328545
10.326733
10.296046
10.276342
10.152157
10.082164
10.040929
10.074772
47170.421
14048.366
2981.0753
1065.3909
673.89236
416.39575