/*--------------------------------*- C++ -*----------------------------------*\
  =========                 |
  \\      /  F ield         | OpenFOAM: The Open Source CFD Toolbox
   \\    /   O peration     | Website:  https://openfoam.org
    \\  /    A nd           | Version:  12
     \\/     M anipulation  |
\*---------------------------------------------------------------------------*/
FoamFile
{
    format      ascii;
    class       volScalarField;
    location    "1300";
    object      Ma;
}
// * * * * * * * * * * * * * * * * * * * * * * * * * * * * * * * * * * * * * //

dimensions      [];

internalField   nonuniform List<scalar> 
16200
(
0.5344855846
0.6374840069
0.6956547594
0.7418209372
0.785241776
0.8315033249
0.8825577535
0.9290145618
0.9456775854
0.9461024853
0.9449960239
0.9439511648
0.9426632627
0.9412433184
0.9395745534
0.9376628149
0.9354347584
0.932850328
0.9298407712
0.9263395324
0.9222666457
0.9175356942
0.9120520009
0.9057158074
0.8984265132
0.8900903577
0.8806330833
0.8700185539
0.8582740313
0.8455198436
0.8319955226
0.8180660579
0.8041914583
0.7908592147
0.7785030566
0.7674403235
0.7578465476
0.7497644145
0.7431321812
0.7378175344
0.7336487956
0.7304404077
0.7280116772
0.7261988804
0.7248615399
0.7238842675
0.7231753977
0.7226641103
0.7222968459
0.7220337851
0.7218456957
0.7217112926
0.7216151681
0.7215460842
0.7214959721
0.7214586268
0.7214304956
0.7214079249
0.7213890928
0.7213675849
0.5479057007
0.6545032059
0.7146119258
0.7623531958
0.807624999
0.8563450453
0.909107971
0.9489603427
0.9583442676
0.9580297574
0.956858213
0.9557260075
0.9543395175
0.9528013525
0.9509892696
0.9489039007
0.9464670839
0.9436308772
0.9403195088
0.9364567755
0.9319530458
0.9267107201
0.9206238622
0.9135817132
0.9054749238
0.8962061133
0.8857071102
0.8739635809
0.8610471105
0.8471491748
0.8326017064
0.8178619515
0.8034509892
0.7898637919
0.7774885779
0.7665652607
0.7571873066
0.7493311333
0.7428933651
0.7377236254
0.733649326
0.7304934543
0.7280870884
0.7262775928
0.7249331587
0.7239443129
0.7232229895
0.7227002581
0.7223233578
0.7220526305
0.7218586873
0.7217199651
0.7216207438
0.7215495366
0.7214979686
0.7214597568
0.7214309087
0.7214080217
0.7213889925
0.7213659443
0.5610873999
0.6712507256
0.7332807603
0.7826789241
0.82995343
0.8809439056
0.9343256027
0.9647653588
0.9689438243
0.968105909
0.9668622353
0.9656282031
0.9641133505
0.9624221278
0.9604284148
0.9581257955
0.9554315133
0.9522886159
0.9486136397
0.9443196444
0.939306134
0.9334631356
0.9266725219
0.9188126583
0.9097676838
0.8994424724
0.8877861126
0.8748242569
0.8606981878
0.8456981975
0.830267064
0.8149517531
0.8003092196
0.7868047009
0.7747460957
0.764272414
0.7553838987
0.7479881845
0.7419420172
0.7370801666
0.7332326372
0.7302345937
0.7279326504
0.7261890935
0.7248844976
0.7239186816
0.7232100727
0.7226940066
0.7223203866
0.7220511417
0.7218577865
0.7217192518
0.7216200703
0.7215488883
0.7214973619
0.7214592634
0.7214304634
0.7214077185
0.721389056
0.7213660441
0.573284918
0.6866091073
0.7503826165
0.8015539482
0.8511311498
0.9041423664
0.9551273572
0.9756588218
0.9768416804
0.9758439619
0.9745177325
0.9731652908
0.9715082132
0.9696452476
0.9674475896
0.9648997974
0.9619142209
0.9584236931
0.9543361877
0.9495531428
0.9439624725
0.9374417123
0.9298615264
0.9210925618
0.911018984
0.8995593575
0.8866979083
0.8725251495
0.8572801581
0.8413722499
0.8253531283
0.8098299107
0.7953484448
0.7822988093
0.770879083
0.7611169821
0.7529230308
0.7461459975
0.7406134235
0.7361539529
0.7326064704
0.7298227376
0.7276681903
0.7260227052
0.7247815137
0.7238556865
0.7231717831
0.7226707289
0.7223061204
0.7220422463
0.7218520887
0.7217154741
0.7216174711
0.7215470495
0.7214960392
0.7214583344
0.7214297672
0.7214072232
0.7213888945
0.7213656178
0.5842663926
0.7004666064
0.7658496233
0.8187726944
0.8708215201
0.9258473642
0.9700977189
0.9822991405
0.9821414201
0.981036203
0.9796167944
0.9781238974
0.9763006645
0.9742373811
0.9718039112
0.968974141
0.9656552801
0.961768883
0.9572133958
0.9518778121
0.9456380492
0.9383599557
0.9299056939
0.9201440219
0.9089694111
0.8963304717
0.8822700366
0.8669719157
0.8507972702
0.8342797225
0.8180560554
0.8027460475
0.788832188
0.7765911164
0.7660946287
0.757261157
0.7499235885
0.7438862684
0.7389598077
0.7349753408
0.7317859657
0.7292631674
0.7272931533
0.7257748479
0.7246194287
0.7237504351
0.7231036827
0.7226266811
0.7222775544
0.7220236226
0.7218398558
0.7217073672
0.7216120497
0.7215434031
0.721493588
0.7214567141
0.7214286857
0.7214065058
0.7213886455
0.7213653215
0.5936808007
0.7125161169
0.7794132094
0.8341210781
0.8886210901
0.9450611901
0.9798741393
0.9859014341
0.9847806279
0.9836344961
0.9820579409
0.9804084512
0.9784016438
0.976115431
0.9734190918
0.9702739762
0.9665813606
0.9622505632
0.9571699039
0.951216218
0.9442546899
0.9361425545
0.926739048
0.9159205537
0.9036068602
0.8897984132
0.8746241721
0.8583876042
0.8415831951
0.8248515456
0.8088685416
0.7942087367
0.781243506
0.7701115642
0.7607570687
0.753002582
0.7466220038
0.7413925173
0.7371206932
0.7336483278
0.7308471777
0.728610513
0.7268461478
0.7254724272
0.7244167756
0.7236155742
0.7230143386
0.7225676314
0.7222385516
0.7219978427
0.7218227882
0.7216960449
0.7216045265
0.7215384083
0.7214902907
0.721454572
0.7214273006
0.7214055974
0.7213882636
0.7213648975
0.6014462595
0.7228038083
0.7912243841
0.8479575541
0.9049485245
0.9602686368
0.9851023369
0.9877477629
0.9850193074
0.9837144785
0.9819968829
0.9801647082
0.9779454803
0.9754013179
0.9724016249
0.9688942516
0.9647743666
0.9599392043
0.9542673559
0.9476248161
0.9398683257
0.9308510076
0.9204371623
0.9085240305
0.8950763848
0.8801722383
0.8640537362
0.8471606059
0.8301118181
0.8136148244
0.7983252656
0.7847169877
0.7730168439
0.7632185283
0.7551507101
0.7485608505
0.74318481
0.7387892794
0.7351879849
0.7322397589
0.7298379257
0.7278983651
0.7263503239
0.725131095
0.7241839422
0.7234578767
0.7229080918
0.7224963159
0.7221908067
0.7219659368
0.7218014985
0.7216818617
0.7215950991
0.7215321701
0.7214861987
0.721451932
0.7214256206
0.7214045068
0.7213877744
0.7213644305
0.6074768177
0.7313213655
0.8014327377
0.8605210827
0.9200409667
0.9700579005
0.9847095162
0.9842922402
0.9828847174
0.9814593527
0.9795689789
0.9775246569
0.9750612523
0.9722225409
0.9688785822
0.9649631584
0.9603649764
0.9549692886
0.9486451985
0.9412494818
0.9326339836
0.9226548795
0.9111935331
0.8981858791
0.8836652641
0.8678138107
0.851007444
0.8338220722
0.8169696561
0.8011672599
0.7869888545
0.7747645174
0.764561703
0.7562380448
0.7495284114
0.7441292588
0.7397587568
0.736187524
0.733245191
0.7308119883
0.7288042497
0.7271602486
0.7258297188
0.7247678143
0.723932715
0.7232854126
0.7227903918
0.7224163663
0.7221367085
0.7219294547
0.721776977
0.7216654389
0.7215841492
0.7215249166
0.7214814427
0.7214488662
0.7214236791
0.7214032489
0.7213871774
0.7213638886
0.6117139317
0.7380321098
0.8101705779
0.8718430786
0.9333331503
0.9752479889
0.9818594789
0.9804473849
0.9786145917
0.9770203048
0.9749428345
0.9726642941
0.969931592
0.9667679715
0.9630438849
0.9586784921
0.9535534442
0.9475425724
0.9405068424
0.9322975662
0.9227683832
0.9117893897
0.8992746518
0.88521961
0.8697510217
0.8531780311
0.8360182488
0.8189626307
0.8027646446
0.7880865253
0.7753682202
0.764771657
0.7562084989
0.7494214358
0.7440781024
0.7398477627
0.7364484937
0.733666006
0.7313518162
0.7294099208
0.7277798021
0.7264210903
0.7253025249
0.7243956467
0.723672316
0.723104586
0.7226656148
0.7223307261
0.7220782053
0.7218896645
0.7217500337
0.7216472828
0.7215719845
0.7215168286
0.7214761243
0.7214454285
0.7214215006
0.7214018356
0.7213864812
0.7213632816
0.6144787218
0.7434361249
0.8179080097
0.88223207
0.943556335
0.9748072641
0.975784596
0.9743450465
0.9724673733
0.9706841462
0.9683950037
0.9658523808
0.9628165427
0.9592888051
0.9551396116
0.9502737271
0.9445659328
0.9378806235
0.9300738295
0.9209972919
0.9105153327
0.898524903
0.884990514
0.8699897907
0.8537669335
0.8367726356
0.8196557812
0.803179459
0.7880745067
0.7748879739
0.7638906405
0.7550721543
0.748207019
0.7429511774
0.7389322674
0.7358133853
0.7333263142
0.7312795936
0.7295500553
0.7280661586
0.7267896763
0.7257000014
0.7247830823
0.7240251696
0.7234104083
0.722920851
0.722537576
0.7222420189
0.7220170712
0.7218477445
0.7217214358
0.7216278817
0.7215589078
0.7215080876
0.7214703475
0.7214416752
0.7214191116
0.7214002792
0.7213856903
0.7213626049
0.6159525918
0.7478516774
0.8249820745
0.8922139627
0.9497993036
0.9690486667
0.9683024119
0.9667003109
0.9646621278
0.9626629093
0.9601359498
0.9572972661
0.9539216876
0.9499880079
0.9453663945
0.9399484567
0.933603245
0.9261888274
0.9175606466
0.9075779836
0.8961263955
0.8831450808
0.8686699366
0.8528852847
0.836172338
0.8191228172
0.8024841732
0.7870311577
0.7734060113
0.7619944574
0.7528840887
0.745906087
0.7407262595
0.7369441738
0.7341722211
0.732084157
0.7304352125
0.729061348
0.7278660204
0.7268015731
0.7258505287
0.7250101242
0.7242815842
0.7236641324
0.7231527634
0.722738419
0.7224092882
0.7221523595
0.7219547625
0.7218046782
0.7216918339
0.721607656
0.7215451828
0.7214988532
0.7214642046
0.7214376567
0.7214165359
0.7213985909
0.7213848093
0.7213618588
0.6162267839
0.7515468772
0.8314837237
0.9012920992
0.9519039736
0.9612382005
0.9592995762
0.957600155
0.9553927287
0.9531502868
0.9503555485
0.9471857502
0.943430977
0.9390480757
0.9339067709
0.9278872084
0.9208540062
0.9126623009
0.9031722027
0.8922595673
0.8798450198
0.8659296648
0.8506451931
0.8343054011
0.8174361125
0.8007479405
0.7850329729
0.7710092283
0.759174248
0.7497270466
0.7425785477
0.7374282827
0.7338661129
0.731463847
0.729838982
0.7286881271
0.7277959622
0.7270278705
0.7263136496
0.7256280792
0.7249724889
0.7243599096
0.7238049067
0.7233179823
0.7229035842
0.7225604532
0.7222830775
0.7220634213
0.721892458
0.7217612788
0.7216617765
0.7215869664
0.7215310402
0.7214892677
0.7214577794
0.7214334194
0.721413796
0.7213967816
0.7213838421
0.7213610418
0.6154342851
0.7548494748
0.8377923095
0.9083641066
0.9464485496
0.9515522292
0.9490480933
0.9472334267
0.9448195795
0.9423049275
0.9392117622
0.9356765666
0.9315042316
0.9266303955
0.9209234859
0.9142537161
0.9064830934
0.8974688607
0.8870840556
0.8752341891
0.8618934773
0.8471485432
0.831251111
0.8146579574
0.7980271992
0.7821429767
0.7677747135
0.7555199014
0.7456942682
0.7383071511
0.7331156806
0.7297215649
0.7276709783
0.7265322521
0.7259431819
0.7256310479
0.7254128678
0.7251834959
0.7248976951
0.724550713
0.724160568
0.7237540424
0.7233571966
0.7229902222
0.722665714
0.7223891838
0.7221606419
0.7219764633
0.7218310685
0.7217181896
0.7216317073
0.7215661111
0.7215166744
0.7214794535
0.7214511455
0.7214290051
0.7214109124
0.7213948614
0.7213827935
0.7213601533
0.6137762758
0.75798602
0.8441818988
0.9126533905
0.9396065566
0.9404138632
0.9376853866
0.9357226995
0.9330806579
0.9302693396
0.9268481973
0.9229130376
0.918281534
0.9128694505
0.9065438826
0.8991685954
0.8906076981
0.8807289776
0.8694304191
0.8566641306
0.8424799409
0.8270742243
0.8108360973
0.7943614034
0.778404718
0.7637607616
0.7511080131
0.7408754765
0.733183104
0.7278671055
0.7245639195
0.7228126429
0.7221441365
0.7221419713
0.7224743887
0.7229034501
0.7232790309
0.72352416
0.7236165291
0.7235696405
0.7234160711
0.7231944162
0.7229405292
0.7226828444
0.7224409157
0.7222260834
0.7220431583
0.7218923929
0.7217712728
0.7216759049
0.7216019765
0.7215453317
0.7215022469
0.7214695146
0.7214443671
0.7214244509
0.7214079039
0.7213928405
0.7213816702
0.7213591928
0.6116803136
0.7611788216
0.8501238813
0.9135287725
0.9289988426
0.9282483053
0.9253958644
0.9232278143
0.9203223028
0.9171739826
0.9133776593
0.9089904705
0.9038415219
0.8978300978
0.8908238987
0.8826856265
0.8732880337
0.8625197549
0.8503184213
0.8367028961
0.8218222415
0.8060022445
0.7897722095
0.7738407182
0.7590027465
0.7459943779
0.7353464118
0.7272938867
0.7217690508
0.7184652165
0.7169351082
0.7166874949
0.7172605595
0.7182661299
0.7194086609
0.7204862364
0.7213804571
0.7220404024
0.7224643294
0.722681736
0.7227377247
0.7226809251
0.722555454
0.7223966993
0.7222301144
0.7220720223
0.7219313803
0.7218118266
0.7217135541
0.7216347899
0.721572852
0.7215248185
0.7214878888
0.721459538
0.7214374991
0.7214197895
0.7214047878
0.7213907294
0.7213804783
0.7213581602
0.6095530957
0.7648360115
0.8545696816
0.9082705681
0.9169160434
0.9151534417
0.91216674
0.9097387914
0.9065291765
0.9029981154
0.8987761339
0.8938843836
0.8881627695
0.8814977767
0.8737599199
0.8648167038
0.854557849
0.8429065325
0.829859298
0.8155249138
0.8001725506
0.784264986
0.7684539142
0.7535129835
0.7402108357
0.7291623105
0.7207141193
0.7149053502
0.7115056331
0.7101024891
0.7102005229
0.7113049017
0.7129775108
0.7148663487
0.7167143899
0.7183549475
0.7196991775
0.7207196601
0.7214327682
0.7218818218
0.7221225799
0.7222121135
0.7222014543
0.7221318135
0.7220336137
0.7219274136
0.7218257318
0.7217351488
0.7216582357
0.7215951031
0.7215445319
0.721504718
0.7214737045
0.7214495954
0.7214305887
0.7214150502
0.7214015798
0.7213885378
0.7213792166
0.7213570551
0.6078144205
0.7684576416
0.8565802201
0.8991403377
0.9032746261
0.9010594953
0.8979178068
0.8951845244
0.8916381334
0.8876880711
0.8829996547
0.8775604915
0.8712203986
0.8638570935
0.8553477986
0.8455741341
0.8344563206
0.8219709573
0.8081955689
0.7933492188
0.7778313554
0.7622308903
0.7472831701
0.7337654682
0.7223549637
0.7134995302
0.7073489722
0.7037642668
0.7023876815
0.7027388076
0.7043048154
0.7066073881
0.7092426709
0.7118986128
0.7143565075
0.7164827949
0.7182154614
0.7195479019
0.7205122292
0.7211635772
0.7215666867
0.721785671
0.7218773054
0.7218876446
0.7218512735
0.7217923331
0.7217263879
0.7216625644
0.7216055153
0.7215570169
0.7215171571
0.7214851401
0.7214597761
0.7214397454
0.7214236757
0.7214102583
0.7213982946
0.7213862742
0.7213778723
0.7213558767
0.6072807852
0.7714555117
0.85555794
0.8883200515
0.8884576771
0.88597905
0.882643094
0.8795653449
0.8756463849
0.8712366366
0.8660355997
0.8600006272
0.8529926108
0.8448877143
0.8355783138
0.8249739324
0.8130424184
0.7998332244
0.7855231405
0.7704525391
0.7551459092
0.740288501
0.7266452904
0.714932764
0.7056839794
0.6991563639
0.6953117336
0.6938642475
0.6943674829
0.6963072468
0.6991773123
0.7025295348
0.706000019
0.7093173769
0.7122993655
0.7148427175
0.7169093181
0.718510749
0.7196926563
0.7205201842
0.7210655843
0.7213988018
0.7215813474
0.7216632799
0.721682651
0.7216666182
0.7216333417
0.7215941438
0.7215554932
0.7215206355
0.7214908225
0.7214661641
0.7214461663
0.7214300351
0.721416794
0.7214054366
0.7213949459
0.7213839452
0.7213764158
0.7213546243
0.6087539992
0.7730981422
0.8515662707
0.8741891455
0.8725615472
0.8699009732
0.8663150085
0.8628443336
0.8585060979
0.8535859195
0.847819486
0.8411397132
0.8334226143
0.8245530916
0.8144495113
0.8030637711
0.7904271744
0.7766778805
0.7621035905
0.7471657112
0.7324926745
0.7188206232
0.7068831808
0.6972791614
0.690364385
0.6862048564
0.6845997251
0.6851540533
0.6873694427
0.6907257897
0.6947405775
0.6990039041
0.7031938293
0.7070782566
0.7105085825
0.7134086886
0.7157614569
0.7175942019
0.7189641155
0.7199447662
0.7206146437
0.7210484874
0.7213116857
0.7214575848
0.7215271093
0.7215499457
0.7215464587
0.7215298595
0.7215081976
0.7214860112
0.7214655865
0.7214478455
0.7214329225
0.7214205026
0.7214099722
0.7214006052
0.7213915464
0.7213815535
0.7213748461
0.7213532977
0.6123973975
0.7728532549
0.8423497028
0.8587120286
0.8555516357
0.8526866809
0.8488028851
0.8448946347
0.840096099
0.8346257624
0.8282584245
0.8209102573
0.8124770092
0.8028628145
0.792022425
0.7799636059
0.7667956223
0.7527581876
0.7382543288
0.7238531664
0.7102502417
0.6981767566
0.6882764773
0.6809895418
0.6764834829
0.6746506151
0.6751623029
0.6775525459
0.6813022808
0.6859062353
0.6909164571
0.695964966
0.700771179
0.7051396466
0.7089521234
0.7121564747
0.7147538495
0.7167850772
0.7183171447
0.7194306711
0.7202092952
0.7207316695
0.7210663326
0.7212693124
0.7213838989
0.7214418907
0.7214655188
0.7214696156
0.7214636037
0.7214531574
0.7214414799
0.7214302202
0.7214200796
0.7214111781
0.7214032347
0.7213957819
0.7213881082
0.7213791023
0.7213732258
0.7213518991
0.6172884722
0.7707802786
0.8292614369
0.8413443261
0.837312234
0.8342210442
0.8300040662
0.8256323263
0.8203534067
0.8143183151
0.8073425047
0.7993339092
0.7902124443
0.7799122027
0.7684359695
0.755862242
0.7423927597
0.7283767592
0.7143253746
0.7008860634
0.6887714908
0.6786500266
0.671028871
0.6661690599
0.6640589599
0.6644474415
0.6669159302
0.6709613733
0.6760683772
0.6817604621
0.6876300067
0.6933514597
0.6986833473
0.7034635636
0.7076008366
0.7110640071
0.7138700129
0.7160712393
0.7177429502
0.7189716397
0.7198451719
0.7204453682
0.7208433051
0.7210971793
0.7212522166
0.721341971
0.7213902487
0.7214132704
0.7214216503
0.721422059
0.7214185126
0.7214133097
0.7214076626
0.7214020854
0.7213966021
0.7213909831
0.721384643
0.721376601
0.7213715113
0.7213504346
0.6211668194
0.7667013733
0.8152974334
0.8225038471
0.8178956472
0.8145373962
0.8099673602
0.8051149317
0.7993436502
0.7927396216
0.7851587006
0.7765111132
0.7667475073
0.7558453351
0.7438705794
0.7309877833
0.7175010839
0.7038656665
0.6906772151
0.6786173968
0.6683605862
0.6604623655
0.6552650131
0.6528507054
0.6530527851
0.6555127086
0.6597576344
0.6652750706
0.6715705401
0.6782045769
0.6848118583
0.6911076697
0.6968864776
0.7020159911
0.7064286473
0.7101115123
0.7130951162
0.7154416995
0.7172335027
0.7185618975
0.7195181941
0.7201867578
0.7206406881
0.7209399185
0.721131247
0.7212496791
0.7213203457
0.7213606543
0.7213822515
0.7213926811
0.7213966791
0.7213971241
0.7213956884
0.7213932435
0.7213900923
0.7213862235
0.7213811614
0.7213740526
0.7213697247
0.7213489117
0.6242371873
0.7601594836
0.7983494949
0.8023976299
0.7974295796
0.7937394901
0.7887948684
0.7834396873
0.7771566087
0.7699755556
0.7617931416
0.7525362618
0.742196844
0.7308118897
0.7185252224
0.7055970904
0.6924322814
0.679572712
0.6676603452
0.6573597128
0.6492562268
0.6437584178
0.6410354981
0.6410078435
0.6433864259
0.6477413471
0.6535757926
0.6603883451
0.6677164069
0.6751613066
0.6823993757
0.689183897
0.6953417131
0.7007668747
0.7054125139
0.7092814733
0.7124159639
0.7148866226
0.7167815622
0.7181961909
0.7192246111
0.7199532081
0.7204566736
0.7207963127
0.7210201907
0.7211645043
0.7212554951
0.7213115825
0.7213453063
0.7213649756
0.721375963
0.7213816653
0.7213841683
0.7213846672
0.7213837208
0.7213815167
0.7213776731
0.7213714623
0.7213678843
0.7213473342
0.6255411284
0.7510365135
0.7796574616
0.7811987706
0.7759526139
0.771853346
0.7665032032
0.7606167473
0.7537981445
0.7460376895
0.7372750775
0.7274700825
0.7166683285
0.70497917
0.6926326298
0.6799835331
0.6675220078
0.6558443831
0.645592976
0.6373660761
0.6316222189
0.6286074508
0.6283274911
0.6305688432
0.6349551664
0.6410173175
0.6482580425
0.6562008638
0.6644209762
0.6725611155
0.6803369877
0.6875364157
0.6940150094
0.6996899109
0.704532246
0.7085584954
0.7118209083
0.714397278
0.7163806585
0.717869788
0.7189610138
0.7197423036
0.7202895807
0.7206652154
0.7209182823
0.7210859486
0.7211953825
0.7212658642
0.7213107058
0.721338886
0.7213563408
0.7213669291
0.7213731088
0.7213763685
0.7213775011
0.7213768751
0.7213741864
0.7213688424
0.721366061
0.7213456951
0.6244716634
0.7353782809
0.7592365327
0.758810155
0.7533404045
0.7487548217
0.7429751349
0.7365497418
0.7292002752
0.720897716
0.7116281948
0.7013977943
0.6903153628
0.6785696091
0.6664768616
0.654474992
0.6431133219
0.6330027723
0.624740169
0.6188180714
0.6155468688
0.6150123458
0.6170789361
0.6214319442
0.6276405719
0.6352224947
0.6436967827
0.6526201919
0.6616078844
0.6703425383
0.6785760589
0.6861271655
0.6928767975
0.6987622486
0.7037702678
0.7079291314
0.7112997292
0.7139659641
0.7160250481
0.7175784584
0.7187243302
0.7195518484
0.7201378652
0.7205455614
0.7208248016
0.7210135359
0.7211397017
0.7212233094
0.7212783376
0.721314351
0.7213377837
0.721352907
0.7213625131
0.7213683566
0.7213714454
0.7213723102
0.7213707103
0.7213662191
0.7213643074
0.7213439843
0.6207074928
0.7185847
0.7369611653
0.7350281156
0.7293878042
0.7242960863
0.718099147
0.7111764023
0.7033539461
0.6946035289
0.6849617203
0.6744912585
0.6633708407
0.6518701419
0.6403841308
0.6294129735
0.61953136
0.6113229808
0.6052997469
0.6018229263
0.6010502259
0.6029230774
0.6071936806
0.6134785488
0.621320303
0.6302429007
0.6397925502
0.6495632489
0.6592097414
0.6684519554
0.6770744452
0.6849232702
0.6919015507
0.6979641351
0.7031113455
0.707381683
0.7108434958
0.7135859155
0.7157096562
0.7173184401
0.7185118088
0.7193798597
0.7200001212
0.720436371
0.7207390788
0.720946818
0.7210881601
0.7211837331
0.7212480899
0.7212913076
0.7213202604
0.7213395874
0.7213523817
0.7213606391
0.7213655644
0.7213678319
0.7213672551
0.7213636254
0.721362479
0.7213422182
0.6140490724
0.6998734327
0.7129321056
0.7098546185
0.7040687736
0.6985035854
0.6919282997
0.684581901
0.6763816591
0.6673174129
0.6574813845
0.6470009688
0.6361272546
0.6252054734
0.6146927245
0.6051225728
0.5970574754
0.5910156781
0.5873958535
0.5864176183
0.5880954801
0.592250964
0.5985547898
0.6065834713
0.6158748092
0.6259723775
0.6364555735
0.6469565903
0.6571677656
0.6668429746
0.6757958385
0.6838964475
0.6910672969
0.6972785332
0.702542299
0.7069059895
0.7104444162
0.7132512006
0.7154300096
0.7170863975
0.7183209941
0.7192245557
0.7198750755
0.7203367495
0.720660496
0.7208853767
0.7210404814
0.7211469579
0.7212198534
0.7212696923
0.7213037379
0.7213269571
0.7213427134
0.7213532217
0.7213598677
0.7213634496
0.7213638318
0.7213610769
0.7213605979
0.7213404378
0.6045566414
0.6798020764
0.6874000765
0.6834325179
0.6774957512
0.6715081289
0.6646072905
0.656928299
0.6484711839
0.6392586107
0.6294422039
0.61921729
0.6089034007
0.5989075959
0.5897246421
0.5818880643
0.5759120993
0.5722199252
0.5710820067
0.5725796724
0.5766034423
0.5828829299
0.5910360737
0.6006228562
0.6111919526
0.6223147668
0.6336064078
0.6447362058
0.6554312137
0.6654757624
0.6747091357
0.6830224709
0.6903551851
0.6966907859
0.7020517493
0.706493243
0.7100957058
0.7129566291
0.7151821736
0.7168793801
0.7181497013
0.7190843404
0.7197615796
0.7202458834
0.720588487
0.7208288251
0.720996407
0.7211128158
0.7211935228
0.7212494428
0.7212881824
0.7213150012
0.7213335053
0.7213461091
0.7213543637
0.7213591716
0.7213604534
0.7213585888
0.7213586291
0.7213386417
0.5924463481
0.656995993
0.660527957
0.6558502278
0.6497737191
0.6434331121
0.6362856049
0.6283946865
0.6198359219
0.6106764138
0.6011282883
0.5914521539
0.5820251256
0.5732954309
0.565766506
0.5599388033
0.5562488412
0.5550065178
0.5563520435
0.5602422118
0.5664679073
0.5746944208
0.584511346
0.5954798624
0.6071698947
0.6191849383
0.6311758992
0.6428469747
0.6539566635
0.6643163339
0.673787814
0.6822806554
0.6897490791
0.6961883049
0.701629885
0.7061358162
0.7097914621
0.7126976647
0.7149626919
0.7166947825
0.71799599
0.7189577881
0.7196586008
0.720163036
0.7205225348
0.7207768071
0.7209556965
0.7210811487
0.7211689976
0.7212304983
0.7212735606
0.721303704
0.7213247535
0.7213393049
0.7213490598
0.7213550059
0.7213571334
0.7213561692
0.7213565678
0.7213368627
0.5779867377
0.6320010953
0.6324354488
0.627192091
0.6210176952
0.6144206076
0.6071361164
0.5991870445
0.590717447
0.5818454361
0.5728408812
0.5640208689
0.5558031474
0.5486521878
0.5430506756
0.5394377014
0.5381519911
0.5393836468
0.5431510532
0.5493065644
0.5575669609
0.567557789
0.5788595847
0.5910471378
0.6037177245
0.6165083528
0.6291042559
0.6412416029
0.6527070076
0.6633356832
0.67300922
0.681653296
0.689235125
0.695760242
0.7012682168
0.7058270816
0.7095265347
0.7124703307
0.7147685208
0.7165302991
0.7178581343
0.7188436234
0.7195652098
0.7200875401
0.7204621678
0.720728995
0.7209181268
0.7210518082
0.7211461825
0.7212128004
0.7212598389
0.7212930493
0.721316453
0.7213328117
0.7213439622
0.7213509595
0.721353886
0.7213538226
0.7213544156
0.7213351134
0.5612640831
0.6051234107
0.6032480965
0.5975916958
0.5913706403
0.5846434055
0.5773629368
0.5695403449
0.5613813326
0.5530554225
0.5448825455
0.5372222806
0.53051229
0.5252075515
0.5217438541
0.5204781162
0.5216413247
0.5253072881
0.5313880675
0.5396542449
0.549772358
0.5613484591
0.5739682249
0.5872280118
0.6007553578
0.6142203036
0.6273400538
0.639879629
0.651650571
0.6625090513
0.6723539858
0.6811252136
0.6888014036
0.6953972277
0.7009593824
0.7055612674
0.7092964184
0.7122711339
0.7145969748
0.7163838863
0.717734597
0.7187407044
0.7194805697
0.7200187912
0.7204069556
0.7206850876
0.7208834911
0.7210246556
0.7211249869
0.7211962927
0.7212469849
0.7212830206
0.7213085982
0.7213266312
0.7213390758
0.7213470396
0.7213507265
0.7213515512
0.7213521819
0.7213334122
0.5424077252
0.5765826818
0.573094769
0.5671955019
0.5610129985
0.5543125114
0.5472099108
0.5397244512
0.5321170728
0.5246047036
0.5175461111
0.5113264449
0.5063815184
0.5031330998
0.5019495022
0.5030930523
0.5066861954
0.5126973051
0.5209513207
0.5311593893
0.5429583411
0.5559503377
0.5697359111
0.5839374688
0.5982134789
0.6122653592
0.6258395054
0.6387266972
0.6507604679
0.6618153915
0.6718056017
0.680683422
0.6884376755
0.6950911776
0.7006970008
0.7053333492
0.709097175
0.7120970075
0.7144456859
0.7162537339
0.7176240101
0.7186480098
0.7194039282
0.7199562423
0.7203565066
0.7206448088
0.7208515981
0.7209995612
0.7211053256
0.7211809212
0.7212349663
0.721273601
0.721301183
0.7213207643
0.7213344046
0.7213432532
0.7213476707
0.7213493551
0.7213498745
0.7213317809
0.5215487373
0.5466447255
0.5419990863
0.5362465221
0.5302098235
0.5237050414
0.5169691
0.5100400424
0.5032264241
0.4967854024
0.4911006323
0.4865642552
0.483589194
0.482544132
0.4837159717
0.487268064
0.4932207575
0.5014523668
0.5117208306
0.5236979857
0.5370074891
0.5512588832
0.5660736207
0.5811020922
0.5960328853
0.6105964823
0.6245655665
0.6377537517
0.6500139217
0.6612368175
0.6713499787
0.6803167867
0.6881351178
0.6948350912
0.7004755203
0.7051389354
0.7089253467
0.7119452474
0.7143125568
0.7161382317
0.7175251506
0.7185646222
0.7193346055
0.7198993966
0.7203104627
0.7206079043
0.7208222704
0.7209764037
0.7210871177
0.721166634
0.721223752
0.7212647736
0.7212942003
0.7213152106
0.7213299513
0.7213396078
0.7213447339
0.72134723
0.7213475022
0.7213302527
0.4988684681
0.5157025901
0.5106615993
0.5050008739
0.4992406173
0.4931032826
0.4869247599
0.4807683866
0.4749801839
0.4698471412
0.4657619969
0.4631052604
0.4622484761
0.4634925228
0.4670357424
0.4729448904
0.4811495949
0.4914554286
0.503572354
0.5171498221
0.5318108621
0.5471799905
0.5629028695
0.5786580557
0.5941625595
0.6091733341
0.6234865232
0.6369359028
0.6493913751
0.6607579156
0.6709749224
0.6800156247
0.6878860204
0.694622822
0.7002900447
0.7049741367
0.7087778591
0.7118134394
0.7141957082
0.7160359305
0.7174369132
0.7184897079
0.7192719809
0.7198477977
0.7202684926
0.7205741371
0.720795341
0.7209550678
0.7210702855
0.7211533805
0.7212133103
0.7212565205
0.7212876424
0.7213099687
0.7213257171
0.7213361115
0.7213419294
0.721345167
0.721345084
0.7213288708
0.474372963
0.4841376734
0.4791407452
0.4737204564
0.4683710928
0.4627763722
0.4573450502
0.4521686124
0.4476188036
0.4440002623
0.4416990473
0.4410673379
0.4424207901
0.4459833652
0.4518637609
0.4600395584
0.4703637784
0.4825865437
0.4963865704
0.5114043602
0.5272712816
0.5436314846
0.5601561206
0.5765509579
0.5925592594
0.607961806
0.6225755575
0.6362520589
0.6488761957
0.6603655164
0.6706699581
0.6797715714
0.6876836851
0.6944490009
0.7001362744
0.7048355207
0.7086519858
0.7116994329
0.7140934574
0.7159455268
0.7173582986
0.7184225096
0.7192154871
0.7198010256
0.7202302894
0.7205432861
0.720770653
0.7209354439
0.7210547542
0.7211411111
0.72120361
0.7212488235
0.7212815006
0.7213050356
0.7213217025
0.7213327727
0.7213392671
0.7213431555
0.7213426667
0.7213276661
0.4486419358
0.4523411533
0.4477132587
0.4426593634
0.4378648167
0.4329864844
0.4284837601
0.4244762585
0.4213498148
0.4194144572
0.419035202
0.4205221318
0.4241248623
0.4299864896
0.4381298109
0.448453917
0.460750272
0.4747295118
0.4900530017
0.5063624097
0.523303425
0.5405422697
0.5577754785
0.5747343897
0.5911861463
0.6069328008
0.6218097121
0.6356840756
0.6484539911
0.6600481513
0.6704259067
0.6795772529
0.6875221755
0.6943088468
0.7000103648
0.7047200067
0.7085452717
0.7116012849
0.7140042797
0.7158658349
0.717288394
0.7183623324
0.719164601
0.7197586911
0.7201955671
0.7205151435
0.7207480575
0.7209174271
0.7210404512
0.7211297771
0.7211946195
0.7212416638
0.721275765
0.7213004069
0.7213179073
0.7213296
0.721336753
0.7213411886
0.7213403192
0.7213265369
0.4218678991
0.4207046105
0.4166433011
0.4120860158
0.4079800263
0.4039750165
0.4005610968
0.3978833357
0.3963301118
0.3962050175
0.3978394876
0.4014907871
0.4073363388
0.4154386584
0.4257418005
0.4380787133
0.4521939417
0.46777251
0.484469409
0.5019346793
0.5198319634
0.5378504027
0.5557109233
0.5731684382
0.5900115865
0.606061309
0.6211691986
0.6352162457
0.648112236
0.6597957827
0.6702346864
0.6794261402
0.6873962074
0.6941980835
0.6999088631
0.7046248182
0.7084554965
0.7115172325
0.7139267866
0.7157957715
0.7172263629
0.7183085371
0.7191188388
0.7197204324
0.7201640579
0.7204895139
0.7207274136
0.7209009173
0.7210273068
0.7211193307
0.7211863074
0.721235022
0.7212704252
0.7212960772
0.721314331
0.7213266013
0.7213343888
0.7213392647
0.7213380483
0.7213255411
0.3943640551
0.3895820085
0.3861963834
0.3822577132
0.3789563434
0.3759578281
0.3737645847
0.3725433657
0.3726747536
0.3744451288
0.3781416441
0.383960745
0.3920049269
0.4022597116
0.4145997773
0.4288047444
0.444585623
0.4616133269
0.4795447437
0.4980430933
0.5167918337
0.535502779
0.5539197221
0.5718190146
0.5890084974
0.6053258235
0.6206368974
0.6348348845
0.6478399361
0.6595995324
0.670089098
0.6793123789
0.6873010154
0.6941128362
0.6998286276
0.7045474193
0.7083806258
0.7114456553
0.7138596983
0.7157343347
0.7171714281
0.7182605266
0.7190777471
0.7196859086
0.7201355085
0.7204662107
0.7207085858
0.7208858172
0.7210152522
0.7211097243
0.7211786419
0.7212288782
0.7212654693
0.7212920396
0.7213109728