/*--------------------------------*- C++ -*----------------------------------*\
  =========                 |
  \\      /  F ield         | OpenFOAM: The Open Source CFD Toolbox
   \\    /   O peration     | Website:  https://openfoam.org
    \\  /    A nd           | Version:  12
     \\/     M anipulation  |
\*---------------------------------------------------------------------------*/
FoamFile
{
    format      ascii;
    class       volScalarField;
    location    "1300";
    object      nut;
}
// * * * * * * * * * * * * * * * * * * * * * * * * * * * * * * * * * * * * * //

dimensions      [0 2 -1 0 0 0 0];

internalField   nonuniform List<scalar> 
16200
(
0.0005123566558
0.001753694945
0.00291609384
0.00381719785
0.00407989126
0.003572386156
0.002600428909
0.001394191329
0.0007115152938
0.0001816671913
5.692792069e-06
2.627443229e-06
2.380130486e-06
2.339219019e-06
1.857855494e-06
1.599288399e-06
1.394807779e-06
1.250096871e-06
1.155506545e-06
1.093625851e-06
1.056730213e-06
1.041825653e-06
1.045935981e-06
1.067120753e-06
1.104691811e-06
1.159423886e-06
1.233906668e-06
1.333066946e-06
1.465307086e-06
1.644931756e-06
1.896706446e-06
2.264234062e-06
2.825667453e-06
3.726004067e-06
5.249810737e-06
7.98599822e-06
1.320153225e-05
2.368483606e-05
4.566031988e-05
9.31896899e-05
0.0001984074309
0.0004354988013
0.0009771660783
0.001002200572
0.001001788474
0.001000857842
0.000999527138
0.0009989211036
0.0009986859747
0.0009986071981
0.0009985920945
0.000998602286
0.0009986233244
0.0009986514011
0.0009986876808
0.0009987364595
0.0009988045014
0.0009989029444
0.0009990486818
0.0009992760615
0.0005055967391
0.001714909973
0.002819384517
0.003617709185
0.003705583524
0.003070493405
0.002113181064
0.001023517547
0.0005610064637
4.043614707e-05
2.681906485e-06
2.207816711e-06
2.010372325e-06
1.970368007e-06
1.668049117e-06
1.432301963e-06
1.24550048e-06
1.113363661e-06
1.028536908e-06
9.741424755e-07
9.427030472e-07
9.31129954e-07
9.364468292e-07
9.566358552e-07
9.909132509e-07
1.039854993e-06
1.105713608e-06
1.192934129e-06
1.309305566e-06
1.4682397e-06
1.692757955e-06
2.022693552e-06
2.528503969e-06
3.340024206e-06
4.711379495e-06
7.168083584e-06
1.184102088e-05
2.122022732e-05
4.086473256e-05
8.333205303e-05
0.0001773198157
0.0003890967156
0.0008730097699
0.001002057549
0.001001686936
0.001000861686
0.00099953841
0.0009989263549
0.0009986894799
0.000998611027
0.0009985970445
0.0009986085055
0.0009986306605
0.0009986595493
0.0009986962924
0.0009987451012
0.000998812859
0.0009989108144
0.0009990566298
0.0009992877662
0.000499764414
0.001675342447
0.002719911439
0.003407731226
0.003328514659
0.002597597244
0.00161547873
0.0007467553204
0.0003713731084
1.409311056e-05
2.103281468e-06
1.862926332e-06
1.701702035e-06
1.663987311e-06
1.488713377e-06
1.275192327e-06
1.105945246e-06
9.861593676e-07
9.105193181e-07
8.628142614e-07
8.358353973e-07
8.26379839e-07
8.314710349e-07
8.490518983e-07
8.783054849e-07
9.197323663e-07
9.754885401e-07
1.049971173e-06
1.150964246e-06
1.29159491e-06
1.493559892e-06
1.793212202e-06
2.253910612e-06
2.99204454e-06
4.235417216e-06
6.454955706e-06
1.06633204e-05
1.908726757e-05
3.668746025e-05
7.464031215e-05
0.0001584196265
0.0003467119744
0.0007759390023
0.001001956924
0.001001602685
0.001000855159
0.0009995519069
0.0009989366214
0.0009986978363
0.0009986186838
0.0009986047262
0.0009986165429
0.0009986391314
0.0009986683697
0.0009987052807
0.0009987539829
0.0009988213844
0.0009989188524
0.0009990646351
0.0009992988302
0.0004958829578
0.001636054778
0.002616349976
0.003159716878
0.002939897317
0.002166147266
0.001143550677
0.0005536998547
0.0001800877892
4.925212584e-06
1.768309114e-06
1.587215598e-06
1.454358186e-06
1.418779248e-06
1.328381034e-06
1.134198932e-06
9.804074347e-07
8.715926777e-07
8.039463792e-07
7.618885697e-07
7.384659964e-07
7.303851183e-07
7.347144107e-07
7.494793258e-07
7.739932884e-07
8.089312332e-07
8.567093953e-07
9.221009725e-07
1.013231813e-06
1.143114444e-06
1.332289117e-06
1.61428587e-06
2.047216532e-06
2.738201059e-06
3.897599138e-06
5.960792539e-06
9.864122139e-06
1.766550447e-05
3.39439136e-05
6.899805454e-05
0.0001462579413
0.0003196103313
0.0007141398928
0.001001878754
0.001001523758
0.001000816881
0.0009995545179
0.000998943652
0.0009987056896
0.0009986266138
0.0009986127501
0.0009986247874
0.0009986476596
0.0009986771483
0.0009987141901
0.0009987628196
0.0009988299389
0.0009989270246
0.0009990728286
0.0009993099171
0.0004921546674
0.001596463554
0.002510564231
0.002909419426
0.002556801302
0.001784337186
0.0008218746955
0.0004204252073
4.304829568e-05
2.0624306e-06
1.504238885e-06
1.353055619e-06
1.243839695e-06
1.211121971e-06
1.176043214e-06
1.000853349e-06
8.62350498e-07
7.644443714e-07
7.04528202e-07
6.677757314e-07
6.476046114e-07
6.40737635e-07
6.444042782e-07
6.568673595e-07
6.777423196e-07
7.080841061e-07
7.507670401e-07
8.110250673e-07
8.972158059e-07
1.022029263e-06
1.204821995e-06
1.476738416e-06
1.89176114e-06
2.549944767e-06
3.648565222e-06
5.596386565e-06
9.272082284e-06
1.660428977e-05
3.187554218e-05
6.46933979e-05
0.0001368577741
0.0002983818484
0.0006651021977
0.001001824758
0.001001456395
0.001000765506
0.0009995518137
0.0009989501779
0.0009987144879
0.0009986356532
0.0009986216367
0.0009986335813
0.0009986564771
0.0009986860431
0.0009987231276
0.0009987716777
0.0009988385605
0.0009989353465
0.0009990812006
0.0009993209068
0.0004879452774
0.001556202848
0.00240111018
0.002652353648
0.002180815172
0.001384141643
0.0006068915819
0.0002888207876
1.704255261e-05
1.553738062e-06
1.273924201e-06
1.156799861e-06
1.066468174e-06
1.036026517e-06
1.03372574e-06
8.76284165e-07
7.523132504e-07
6.65024224e-07
6.125973301e-07
5.810426587e-07
5.642041479e-07
5.588942987e-07
5.625930949e-07
5.739201778e-07
5.929100851e-07
6.210923832e-07
6.618140893e-07
7.206591043e-07
8.060417789e-07
9.302774339e-07
1.11181217e-06
1.380129869e-06
1.786390753e-06
2.425910423e-06
3.487448576e-06
5.362725163e-06
8.893354616e-06
1.592379628e-05
3.054037677e-05
6.188549089e-05
0.0001306445252
0.0002841438815
0.0006317220162
0.001001789092
0.001001399216
0.001000714733
0.0009995423191
0.0009989550294
0.0009987234038
0.0009986452488
0.0009986310294
0.0009986427015
0.0009986654498
0.0009986949766
0.0009987320521
0.0009987805361
0.0009988472435
0.0009989438221
0.0009990897792
0.0009993318848
0.0004826835086
0.001514568582
0.002286706388
0.002378415571
0.001822326679
0.001005998109
0.0004550474023
0.0001705695517
5.248123631e-06
1.287226734e-06
1.084240121e-06
9.864643548e-07
9.117114563e-07
8.839934242e-07
8.991845549e-07
7.594516708e-07
6.501073493e-07
5.737738314e-07
5.290717383e-07
5.029595879e-07
4.897837661e-07
4.865507874e-07
4.910977897e-07
5.02492828e-07
5.212367126e-07
5.490898588e-07
5.90239215e-07
6.502408411e-07
7.374583139e-07
8.638936311e-07
1.047936534e-06
1.317176399e-06
1.721296448e-06
2.352511436e-06
3.3942805e-06
5.228073211e-06
8.673040926e-06
1.552111722e-05
2.973202123e-05
6.013840262e-05
0.0001266628124
0.0002747486337
0.000609085934
0.001001767873
0.001001350456
0.001000664229
0.0009995276549
0.0009989586343
0.0009987324784
0.0009986553475
0.0009986408753
0.0009986521177
0.0009986745687
0.0009987039538
0.0009987409758
0.0009987894071
0.0009988559991
0.0009989524595
0.0009990985719
0.0009993428509
0.0004756625532
0.001469893291
0.002164118541
0.002097360171
0.001498644488
0.0007209612382
0.0003522193971
7.713804699e-05
2.550744081e-06
1.083051621e-06
9.208033934e-07
8.400318486e-07
7.786160089e-07
7.539674835e-07
7.765051781e-07
6.538161328e-07
5.585958332e-07
4.929913155e-07
4.558173434e-07
4.350507095e-07
4.256009621e-07
4.247503278e-07
4.307483497e-07
4.431284861e-07
4.626242335e-07
4.920770236e-07
5.352639537e-07
5.980988692e-07
6.889358844e-07
8.196557802e-07
1.007845973e-06
1.282124044e-06
1.689675991e-06
2.321430337e-06
3.358272119e-06
5.177275255e-06
8.587832995e-06
1.53570693e-05
2.937931704e-05
5.931475933e-05
0.0001246350219
0.0002696162613
0.0005959544701
0.001001756729
0.001001307771
0.001000613025
0.0009995085779
0.0009989609587
0.0009987414838
0.0009986657295
0.0009986510142
0.0009986617294
0.0009986837787
0.0009987129503
0.0009987498923
0.000998798293
0.0009988648334
0.0009989612651
0.0009991075896
0.0009993538279
0.0004670145651
0.001420375942
0.002008960759
0.00181204654
0.001187715402
0.0005360066836
0.0002668069818
3.101875192e-05
1.478424454e-06
9.155165415e-07
7.859385913e-07
7.180370735e-07
6.671711884e-07
6.452483388e-07
6.683700225e-07
5.610897991e-07
4.78782863e-07
4.231977333e-07
3.930690175e-07
3.773725523e-07
3.715670024e-07
3.732338131e-07
3.808040227e-07
3.947821476e-07
4.162707029e-07
4.479850484e-07
4.941734556e-07
5.608677268e-07
6.564683873e-07
7.928973535e-07
9.877733919e-07
1.269466591e-06
1.684955183e-06
2.324396281e-06
3.368265153e-06
5.193944287e-06
8.61131935e-06
1.538503999e-05
2.939327113e-05
5.923387663e-05
0.000124177465
0.0002679058772
0.0005904440627
0.00100175206
0.001001269208
0.001000560271
0.0009994863084
0.0009989622346
0.0009987503412
0.0009986762582
0.0009986613328
0.0009986714629
0.0009986930409
0.0009987219514
0.0009987588017
0.0009988072002
0.0009988737546
0.0009989702453
0.0009991168384
0.000999364826
0.00045673615
0.001366408207
0.001835418947
0.001531672638
0.0008695009969
0.0004032570364
0.000189615075
1.823266127e-05
1.155650394e-06
7.763416017e-07
6.720158392e-07
6.148301549e-07
5.725674117e-07
5.533444987e-07
5.733223516e-07
4.801676843e-07
4.098016882e-07
3.636377371e-07
3.40117615e-07
3.291869472e-07
3.2683149e-07
3.307040397e-07
3.405037968e-07
3.563926071e-07
3.800838579e-07
4.146193194e-07
4.644382804e-07
5.356876788e-07
6.368883203e-07
7.801479926e-07
9.833334059e-07
1.274906819e-06
1.702110069e-06
2.355236841e-06
3.416178031e-06
5.266628455e-06
8.725729909e-06
1.557477291e-05
2.971787633e-05
5.978484155e-05
0.0001250590878
0.0002691182993
0.000591448318
0.001001750801
0.00100123304
0.001000505104
0.0009994618843
0.0009989626534
0.0009987589696
0.0009986868011
0.0009986717202
0.0009986812451
0.0009987023155
0.0009987309413
0.0009987677029
0.0009988161346
0.0009988827703
0.000998979406
0.0009991263232
0.000999375856
0.0004447034897
0.001307924118
0.00165007973
0.001264628292
0.0006256054985
0.0003071651453
0.0001248145525
1.241550109e-05
9.449131953e-07
6.604198806e-07
5.76146139e-07
5.276357325e-07
4.924035351e-07
4.75733669e-07
4.907104202e-07
4.103919497e-07
3.50970803e-07
3.135282506e-07
2.960445339e-07
2.894109671e-07
2.898486433e-07
2.963029153e-07
3.080810104e-07
3.260187582e-07
3.522222675e-07
3.899756334e-07
4.438673736e-07
5.201792043e-07
6.276283535e-07
7.786284813e-07
9.914635699e-07
1.294965093e-06
1.737017703e-06
2.408820672e-06
3.495231986e-06
5.38568079e-06
8.916073089e-06
1.590071264e-05
3.030571701e-05
6.087340871e-05
0.0001270826412
0.0002728251119
0.0005980121701
0.00100175055
0.001001197895
0.001000446778
0.0009994362754
0.0009989624355
0.0009987673304
0.0009986972594
0.0009986820883
0.0009986910161
0.0009987115699
0.000998739908
0.0009987765968
0.0009988251029
0.0009988918887
0.0009989887529
0.000999136047
0.0009993869251
0.0004305949352
0.001243899414
0.001460060819
0.001001262689
0.0004687424997
0.0002408675873
5.986368453e-05
6.837113578e-06
7.589342749e-07
5.635245624e-07
4.949315049e-07
4.537818356e-07
4.243902943e-07
4.102040703e-07
4.195569958e-07
3.507866903e-07
3.012670047e-07
2.717330262e-07
2.595914415e-07
2.563903412e-07
2.597887587e-07
2.683502516e-07
2.82044096e-07
3.021790579e-07
3.311526725e-07
3.724232009e-07
4.307125435e-07
5.124722632e-07
6.266866829e-07
7.861719359e-07
1.009763026e-06
1.326890123e-06
1.786401801e-06
2.48107392e-06
3.600094584e-06
5.543640277e-06
9.170999039e-06
1.634392141e-05
3.112229542e-05
6.24319682e-05
0.0001301080074
0.0002787238557
0.000609463541
0.001001749473
0.001001162711
0.001000384668
0.0009994102728
0.0009989617751
0.0009987754022
0.0009987075565
0.0009986923654
0.0009987007267
0.0009987207775
0.0009987488424
0.0009987854853
0.0009988341124
0.0009989011178
0.000998998291
0.0009991460112
0.000999398039
0.0004143023202
0.001172210122
0.001264827244
0.0007501069369
0.0003647464127
0.0001874799362
3.070939911e-05
3.52498141e-06
6.137064329e-07
4.82171051e-07
4.263725505e-07
3.913622243e-07
3.667954925e-07
3.548360969e-07
3.585249538e-07
3.000097317e-07
2.593735892e-07
2.369253383e-07
2.294238305e-07
2.293660967e-07
2.351571495e-07
2.455980448e-07
2.612327677e-07
2.837268301e-07
3.156817006e-07
3.606889844e-07
4.236109887e-07
5.111097606e-07
6.324962671e-07
8.010648307e-07
1.036308396e-06
1.368448098e-06
1.847576987e-06
2.568643788e-06
3.72639014e-06
5.73444352e-06
9.481409536e-06
1.68894321e-05
3.214067514e-05
6.440820835e-05
0.0001340274416
0.0002865827942
0.0006252883083
0.001001746241
0.001001126711
0.00100031829
0.0009993845015
0.0009989608419
0.00099878318
0.000998717638
0.0009987024976
0.0009987103392
0.0009987299185
0.0009987577387
0.0009987943718
0.0009988431709
0.0009989104658
0.0009990080247
0.0009991562157
0.0009994092011
0.0003964440657
0.001092109094
0.001068605087
0.0005589071934
0.0002807284372
0.000139146948
1.847772054e-05
1.915646143e-06
5.021871845e-07
4.124150405e-07
3.683799295e-07
3.383307761e-07
3.175602349e-07
3.074844445e-07
3.058961946e-07
2.565961185e-07
2.240274137e-07
2.079313321e-07
2.040758863e-07
2.071369232e-07
2.149224436e-07
2.271439453e-07
2.447956762e-07
2.697940802e-07
3.048832496e-07
3.537740178e-07
4.214890454e-07
5.149383642e-07
6.438061718e-07
8.219241771e-07
1.069604152e-06
1.417803804e-06
1.918331339e-06
2.668776854e-06
3.87056083e-06
5.953244007e-06
9.840190107e-06
1.752580696e-05
3.33406932e-05
6.676361846e-05
0.0001387625894
0.0002962347652
0.0006451173759
0.00100173993
0.001001089348
0.001000247294
0.0009993594225
0.0009989597723
0.0009987906679
0.0009987274673
0.0009987124464
0.0009987198263
0.000998738979
0.0009987665942
0.0009988032612
0.0009988522864
0.0009989199403
0.000999017958
0.0009991666584
0.0009994204132
0.0003783068251
0.001006542755
0.0008596021733
0.0004271266719
0.0002272165944
0.0001010801383
1.285956444e-05
1.097554245e-06
4.149130883e-07
3.522447604e-07
3.16853278e-07
2.921050078e-07
2.74600077e-07
2.663446276e-07
2.603428113e-07
2.195248246e-07
1.943556949e-07
1.838940432e-07
1.834626259e-07
1.888317648e-07
1.983626826e-07
2.123437321e-07
2.320950704e-07
2.59701173e-07
2.980159742e-07
3.508734041e-07
4.234791173e-07
5.230209167e-07
6.595913342e-07
8.476068971e-07
1.108182257e-06
1.473427277e-06
1.996823096e-06
2.779192496e-06
4.029691338e-06
6.196138357e-06
1.02417377e-05
1.824425463e-05
3.470720227e-05
6.946981829e-05
0.0001442565495
0.0003075595975
0.0006686870652
0.001001729937
0.001001050263
0.001000171445
0.0009993353561
0.0009989586723
0.0009987978768
0.0009987370226
0.0009987221861
0.0009987291698
0.0009987479506
0.0009987754091
0.0009988121593
0.0009988614674
0.000998929549
0.0009990280937
0.0009991773358
0.0009994316753
0.0003604894171
0.0009137909495
0.0006917447585
0.0003498304489
0.0001917759582
5.677035652e-05
8.614974175e-06
6.838842142e-07
3.461902877e-07
3.004579431e-07
2.719761705e-07
2.514288745e-07
2.373339858e-07
2.307889226e-07
2.213024767e-07
1.882211841e-07
1.697402635e-07
1.637972533e-07
1.665719176e-07
1.738166085e-07
1.849513397e-07
2.007041482e-07
2.226140021e-07
2.52880772e-07
2.94457834e-07
3.513135341e-07
4.288555595e-07
5.345713153e-07
6.789886239e-07
8.771486703e-07
1.151040028e-06
1.534035891e-06
2.081519112e-06
2.898010662e-06
4.201412918e-06
6.460021674e-06
1.068171797e-05
1.903818721e-05
3.622920603e-05
7.250677764e-05
0.0001504700584
0.0003204756993
0.0006958202072
0.001001715903
0.001001009237
0.001000095188
0.0009993125072
0.00099895762
0.0009988048207
0.0009987462934
0.0009987317018
0.000998738359
0.0009987568296
0.000998784186
0.0009988210728
0.0009988707221
0.0009989392989
0.000999038434
0.0009991882442
0.000999442986
0.0003455748443
0.0008132001133
0.0005593765567
0.0002896955269
0.0001596176349
3.133596802e-05
4.094259009e-06
4.614453489e-07
2.913730047e-07
2.566147575e-07
2.335413001e-07
2.164275866e-07
2.049090884e-07
2.00172187e-07
1.881125988e-07
1.620707711e-07
1.495651956e-07
1.477529601e-07
1.527850101e-07
1.616134422e-07
1.742767719e-07
1.918134578e-07
2.159049188e-07
2.48840363e-07
2.936738295e-07
3.545192844e-07
4.370003144e-07
5.489200442e-07
7.01263753e-07
9.097393837e-07
1.197251697e-06
1.598560405e-06
2.171154157e-06
3.023698169e-06
4.383825538e-06
6.742463823e-06
1.115685193e-05
1.990282507e-05
3.78990805e-05
7.586120301e-05
0.0001573780149
0.0003349323437
0.0007264086538
0.001001697652
0.00100096592
0.001000023736
0.0009992909918
0.000998956671
0.0009988115164
0.0009987552781
0.0009987409873
0.0009987473899
0.0009987656161
0.0009987929291
0.000998830009
0.0009988800585
0.0009989491964
0.0009990489802
0.0009991993834
0.0009994543428
0.0003367830279
0.0007083026349
0.000460043942
0.000241733911
0.0001294488702
1.866187557e-05
1.955957572e-06
3.340839069e-07
2.464294305e-07
2.191727479e-07
2.003553365e-07
1.861277971e-07
1.767590038e-07
1.735642755e-07
1.600948354e-07
1.405242131e-07
1.329822729e-07
1.348309938e-07
1.416184519e-07
1.518349071e-07
1.65980192e-07
1.85296332e-07
2.115595705e-07
2.471382419e-07
2.951914309e-07
3.599872831e-07
4.473753992e-07
5.654876795e-07
7.257874749e-07
9.446698893e-07
1.246042456e-06
1.666118341e-06
2.264698378e-06
3.155025743e-06
4.575436573e-06
7.041614175e-06
1.166475501e-05
2.083490317e-05
3.971200098e-05
7.952535542e-05
0.0001649669367
0.000350904027
0.0007604004978
0.001001675144
0.001000919821
0.0009999570767
0.0009992708594
0.0009989558628
0.0009988179811
0.0009987639818
0.0009987500431
0.000998756263
0.0009987743131
0.0009988016443
0.0009988389755
0.0009988894846
0.0009989592474
0.0009990597336
0.0009992107547
0.0009994657417
0.0003369056984
0.0006043773374
0.0003731649775
0.0002066927384
0.0001023265241
1.224323541e-05
9.533728444e-07
2.572391119e-07
2.087377393e-07
1.869426648e-07
1.716157744e-07
1.599301368e-07
1.524898352e-07
1.507022781e-07
1.368463177e-07
1.231677061e-07
1.201445952e-07
1.244933407e-07
1.326649667e-07
1.441410103e-07
1.597338734e-07
1.808086453e-07
2.092102521e-07
2.473836073e-07
2.985973242e-07
3.672803001e-07
4.595164685e-07
5.837783015e-07
7.52024411e-07
9.813714168e-07
1.296775438e-06
1.735995106e-06
2.361330131e-06
3.291029321e-06
4.77510486e-06
7.356116982e-06
1.220380027e-05
2.183243341e-05
4.166549841e-05
8.349616943e-05
0.0001732331179
0.0003683864656
0.0007977911304
0.00100164845
0.001000870575
0.0009998950809
0.0009992521127
0.0009989552196
0.0009988242329
0.0009987724141
0.0009987588745
0.0009987649828
0.0009987829262
0.0009988103385
0.00099884798
0.0009988990075
0.0009989694565
0.0009990706953
0.0009992223572
0.0009994771779
0.0003468387484
0.0005098463763
0.0003164666748
0.0001841255858
5.984798601e-05
8.620294085e-06
4.920317094e-07
2.06475886e-07
1.771293412e-07
1.59524948e-07
1.471007958e-07
1.376375422e-07
1.319030835e-07
1.314098764e-07
1.179700058e-07
1.095106491e-07
1.101166143e-07
1.162434111e-07
1.25557065e-07
1.382194024e-07
1.552317078e-07
1.780315303e-07
2.085216478e-07
2.492248185e-07
3.035235849e-07
3.760133131e-07
4.73019962e-07
6.033679512e-07
7.795287107e-07
1.019368444e-06
1.34893847e-06
1.807627564e-06
2.460414564e-06
3.430981024e-06
4.981999409e-06
7.685048307e-06
1.277301376e-05
2.289451504e-05
4.375908866e-05
8.77744814e-05
0.000182180958
0.0003873928934
0.0008386151415
0.001001617713
0.001000817916
0.0009998375465
0.0009992347226
0.0009989547556
0.0009988302896
0.0009987805882
0.0009987674905
0.0009987735565
0.0009987914622
0.000998819019
0.0009988570301
0.0009989086339
0.0009989798276
0.0009990818654
0.0009992341789
0.0009994886448
0.0003641833022
0.0004721101333
0.0002753272267
0.0001653936966
3.196070212e-05
3.552287837e-06
2.824402565e-07
1.707083812e-07
1.509852802e-07
1.36614429e-07
1.265210255e-07
1.189181806e-07
1.146736256e-07
1.15257358e-07
1.029308995e-07
9.880305205e-08
1.022610539e-07
1.096660726e-07
1.199891211e-07
1.338000547e-07
1.522019542e-07
1.766814236e-07
2.0919735e-07
2.523533696e-07
3.096503046e-07
3.858554196e-07
4.875442084e-07
6.239039928e-07
8.079360694e-07
1.058282279e-06
1.402132894e-06
1.880587252e-06
2.561480013e-06
3.57435699e-06
5.195555505e-06
8.027853729e-06
1.337197982e-05
2.402117845e-05
4.599399229e-05
9.236448996e-05
0.0001918218542
0.0004079517193
0.0008829415073
0.00100158312
0.001000761653
0.0009997842306
0.0009992186397
0.000998954478
0.0009988361685
0.0009987885192
0.0009987759026
0.0009987819931
0.0009987999294
0.0009988276938
0.0009988661331
0.0009989183698
0.0009989903637
0.0009990932425
0.0009992462014
0.0009995001337
0.0003853168118
0.0004112306009
0.0002469098034
0.000146694538
1.729978522e-05
1.35139411e-06
1.881734543e-07
1.43743695e-07
1.292751303e-07
1.174461069e-07
1.092028841e-07
1.031900892e-07
1.002948156e-07
1.006400265e-07
9.114981942e-08
9.073914485e-08
9.605866586e-08
1.04449869e-07
1.157196859e-07
1.306515523e-07
1.504040792e-07
1.765063931e-07
2.109754306e-07
2.564991163e-07
3.167006647e-07
3.965244947e-07
5.028029499e-07
6.450969377e-07
8.369535355e-07
1.097815123e-06
1.456052337e-06
1.954552603e-06
2.664181981e-06
3.720790571e-06
5.415412388e-06
8.38426147e-06
1.400071112e-05
2.521317441e-05
4.83727647e-05
9.727306079e-05
0.000202172823
0.0004301036424
0.0009308671837
0.001001544887
0.001000701644
0.000999734871
0.0009992038028
0.0009989543891
0.0009988418866
0.0009987962234
0.0009987841235
0.0009987903029
0.0009988083363
0.0009988363705
0.0009988752956
0.00099892822
0.0009990010663
0.0009991048234
0.0009992584133
0.0009995116347
0.0004110512223
0.0003773859895
0.0002333039498
0.000126164448
1.005085404e-05
4.860133348e-07
1.439470544e-07
1.221770432e-07
1.109480896e-07
1.012000331e-07
9.45533886e-08
8.997748936e-08
8.811193859e-08
8.727668161e-08
8.210911833e-08
8.458189399e-08
9.114566066e-08
1.003724784e-07
1.125526382e-07
1.285710028e-07
1.496239362e-07
1.77283144e-07
2.136261745e-07
2.614283863e-07
3.244392171e-07
4.07785326e-07
5.185629811e-07
6.667168731e-07
8.663550789e-07
1.13774434e-06
1.510475557e-06
2.029300124e-06
2.76829222e-06
3.870058448e-06
5.641394849e-06
8.754255956e-06
1.465960648e-05
2.647189835e-05
5.089914533e-05
0.0001025094012
0.000213255765
0.0004538998641
0.0009825107277
0.001001503245
0.001000637774
0.0009996892023
0.0009991901451
0.0009989544882
0.0009988474597
0.0009988037174
0.0009987921672
0.0009987984968
0.000998816692
0.0009988450566
0.0009988845236
0.0009989381885
0.0009990119361
0.0009991166037
0.0009992708002
0.0009995231368
0.0004384715285
0.000363825775
0.0002283567114
8.535345883e-05
5.040050702e-06
1.966356921e-07
1.186852844e-07
1.04281523e-07
9.532460007e-08
8.753033524e-08
8.214789918e-08
7.874480915e-08
7.787867096e-08
7.679657938e-08
7.532578958e-08
7.978921632e-08
8.727599002e-08
9.725998826e-08
1.103146956e-07
1.27374624e-07
1.496692058e-07
1.788141433e-07
2.169498708e-07
2.669420082e-07
3.326698378e-07
4.194471352e-07
5.346408617e-07
6.885892476e-07
8.959760462e-07
1.177915517e-06
1.565257896e-06
2.104693852e-06
2.873685501e-06
4.022063538e-06
5.873490257e-06
9.138044609e-06
1.534939832e-05
2.779929725e-05
5.357787502e-05
0.0001080846779
0.0002250966247
0.0004794001854
0.001002184642
0.001001458442
0.001000569927
0.000999646965
0.0009991775976
0.0009989547723
0.0009988529029
0.000998811018
0.0009988000474
0.0009988065858
0.0009988250051
0.0009988537592
0.0009988938224
0.0009989482782
0.0009990229727
0.0009991285772
0.0009992833337
0.0009995346308
0.0004822551249
0.0003656993773
0.0002283467393
4.150428073e-05
1.364280359e-06
1.206593991e-07
1.006510527e-07
8.955722124e-08
8.233101981e-08
7.593027437e-08
7.165502132e-08
6.935909368e-08
6.945453512e-08
6.886637708e-08
7.031044322e-08
7.608158774e-08
8.427310415e-08
9.496343184e-08
1.088506744e-07
1.268997129e-07
1.503725137e-07
1.809301958e-07
2.207780963e-07
2.728747216e-07
3.412326324e-07
4.313573464e-07
5.508929647e-07
7.105806458e-07
9.256941246e-07
1.218217997e-06
1.620300518e-06
2.180647196e-06
2.980292401e-06
4.176776141e-06
6.111772999e-06
9.535955992e-06
1.607100528e-05
2.919763989e-05
5.641431311e-05
0.0001140113394
0.0002377241307
0.0005066705997
0.001002154382
0.001001410738
0.001000497969
0.000999607912
0.0009991660924
0.0009989552371
0.0009988582301
0.0009988181411
0.0009988077781
0.0009988145807
0.000998833284
0.0009988624846
0.0009989031962
0.0009989584906
0.0009990341742
0.0009991407326
0.0009992959756
0.0009995461098
0.0005232631376
0.0003595198134
0.0002228687165
1.941318734e-05
3.281337257e-07
9.697467786e-08
8.653076328e-08
7.746264694e-08
7.142562503e-08
6.620166264e-08
6.293421407e-08
6.167267466e-08
6.267089512e-08
6.306639345e-08
6.658996615e-08
7.320579193e-08
8.199061602e-08
9.334502251e-08
1.080183501e-07
1.270008504e-07
1.5158761e-07
1.834865564e-07
2.249698271e-07
2.790912864e-07
3.499999984e-07
4.433975793e-07
5.672114252e-07
7.325947542e-07
9.554254005e-07
1.258581021e-06
1.675546581e-06
2.25711891e-06
3.088094624e-06
4.334227657e-06
6.356394939e-06
9.948423749e-06
1.682550199e-05
3.066945455e-05
5.941429911e-05
0.0001203027968
0.000251169049
0.000535781618
0.001002120448
0.001001360408
0.001000421719
0.0009995718114
0.0009991555637
0.0009989558772
0.0009988634541
0.0009988251023
0.0009988153723
0.0009988224918
0.0009988415366
0.0009988712383
0.000998912648
0.0009989688262
0.0009990455368
0.0009991530535
0.0009993087093
0.0009995575646
0.0005623116924
0.0003493129967
0.0002092543464
9.637648595e-06
1.26947147e-07
8.290521854e-08
7.485662725e-08
6.741953348e-08
6.233044497e-08
5.810244576e-08
5.577174909e-08
5.54842099e-08
5.73135348e-08
5.890708847e-08
6.378108833e-08
7.098372596e-08
8.030252545e-08
9.22796809e-08
1.076911037e-07
1.275515185e-07
1.53190118e-07
1.8636308e-07
2.294111815e-07
2.85485987e-07
3.58876107e-07
4.554834178e-07
5.835245857e-07
7.545739309e-07
9.851275381e-07
1.298979009e-06
1.73098911e-06
2.33412393e-06
3.197139276e-06
4.494528727e-06
6.607608082e-06
1.037601451e-05
1.761415258e-05
3.221756371e-05
6.258417012e-05
0.0001269733642
0.0002654638787
0.0005668072777
0.0010020831
0.001001307759
0.001000340929
0.000999538448
0.000999145949
0.000998956687
0.0009988685866
0.0009988319158
0.0009988228426
0.0009988303288
0.0009988497698
0.0009988800248
0.0009989221798
0.0009989792841
0.0009990570549
0.0009991655218
0.0009993215477
0.000999568977
0.0005811804341
0.0003383652613
0.0001853534774
5.646838285e-06
9.452613137e-08
7.161272013e-08
6.516643163e-08
5.903004197e-08
5.472623009e-08
5.138370927e-08
4.995825687e-08
5.058558971e-08
5.315524494e-08
5.591657575e-08
6.162447668e-08
6.928827249e-08
7.909996624e-08
9.165870774e-08
1.077604874e-07
1.284450368e-07
1.550767579e-07
1.894615006e-07
2.340104178e-07
2.919749641e-07
3.677861663e-07
4.675501615e-07
5.997787512e-07
7.764763636e-07
1.014771577e-06
1.339397038e-06
1.786628844e-06
2.411681981e-06
3.30747574e-06
4.657790342e-06
6.865662197e-06
1.081928683e-05
1.843820144e-05
3.384474954e-05
6.593018931e-05
0.0001340372324
0.000280640926
0.0005998213781
0.001002042577
0.001001253134
0.001000262097
0.0009995076234
0.0009991371896
0.0009989576603
0.0009988736379
0.0009988385949
0.0009988302004
0.0009988381005
0.0009988579899
0.0009988888477
0.0009989317923
0.0009989898623
0.0009990687205
0.0009991781212
0.0009993344916
0.0009995803249
0.0005686309085
0.0003330459487
0.0001531249684
2.185602865e-06
7.708122866e-08
6.233192618e-08
5.708024087e-08
5.199004612e-08
4.836475695e-08
4.585067845e-08
4.531200768e-08
4.677035234e-08
4.994392461e-08
5.371610047e-08
5.995541803e-08
6.801811603e-08
7.828699463e-08
9.138723342e-08
1.081339349e-07
1.295926625e-07
1.571641097e-07
1.927051207e-07
2.386988148e-07
2.984985547e-07
3.766804974e-07
4.795589038e-07
6.159465117e-07
7.982868767e-07
1.04435546e-06
1.379847333e-06
1.84249403e-06
2.489841032e-06
3.419183126e-06
4.824155717e-06
7.130841861e-06
1.127883466e-05
1.929892275e-05
3.55538041e-05
6.945857274e-05
0.0001415083918
0.0002967319103
0.0006348961663
0.0010019991
0.001001196649
0.001000189119
0.0009994791553
0.0009991292304
0.0009989587907
0.0009988786175
0.0009988451517
0.0009988374565
0.0009988458149
0.0009988662019
0.0009988977093
0.0009989414849
0.0009990005568
0.0009990805237
0.0009991908361
0.000999347525
0.0009995915902
0.0005523798111
0.0003305706612
8.216079664e-05
7.4049305e-07
6.538113284e-08
5.471344026e-08
5.035230853e-08
4.610130807e-08
4.307969994e-08
4.136327265e-08
4.166989996e-08
4.384026857e-08
4.735149242e-08
5.205192197e-08
5.866853386e-08
6.709151452e-08
7.778349068e-08
9.138667963e-08
1.08735615e-07
1.309225087e-07
1.593853387e-07
1.960331316e-07
2.434224193e-07
3.050103437e-07
3.855207741e-07
4.914798521e-07
6.32006999e-07
8.199939141e-07
1.073877418e-06
1.420338566e-06
1.898604876e-06
2.568635728e-06
3.532320954e-06
4.993739748e-06
7.403387476e-06
1.175517528e-05
2.019744708e-05
3.734723673e-05
7.317496267e-05
0.0001493996363
0.0003137660068
0.000672098366
0.001001952879
0.001001138253
0.001000121554
0.0009994528771
0.0009991220201
0.0009989600716
0.0009988835334
0.0009988515971
0.0009988446202
0.0009988534788
0.00099887441
0.0009989066107
0.0009989512557
0.0009990113623
0.0009990924523
0.0009992036506
0.0009993606309
0.0009996027525
0.0005318792145
0.0003253941206
4.487748161e-05
2.786169359e-07
5.673490684e-08
4.844279898e-08
4.474295545e-08
4.117380926e-08
3.871988875e-08
3.778479381e-08
3.885786229e-08
4.160284867e-08
4.550047266e-08
5.076665196e-08
5.76854295e-08
6.643800157e-08
7.752081287e-08
9.159113283e-08
1.095034419e-07
1.323773386e-07
1.616889695e-07
1.994006006e-07
2.481435005e-07
3.114803516e-07
3.942852181e-07
5.032998148e-07
6.479559715e-07
8.416025999e-07
1.103352443e-06
1.460896341e-06
1.954998718e-06
2.648118089e-06
3.646966255e-06
5.16667352e-06
7.683548852e-06
1.224881452e-05
2.113483964e-05
3.922736043e-05
7.708448899e-05
0.0001577224885
0.0003317692959
0.0007114872682
0.001001904123
0.001001077873
0.001000059004
0.0009994286358
0.0009991155108
0.0009989614966
0.0009988883927
0.000998857941
0.0009988516999
0.0009988610979
0.000998882617
0.0009989155518
0.0009989611013