/*--------------------------------*- C++ -*----------------------------------*\
  =========                 |
  \\      /  F ield         | OpenFOAM: The Open Source CFD Toolbox
   \\    /   O peration     | Website:  https://openfoam.org
    \\  /    A nd           | Version:  12
     \\/     M anipulation  |
\*---------------------------------------------------------------------------*/
FoamFile
{
    format      ascii;
    class       volScalarField;
    location    "1300";
    object      p;
}
// * * * * * * * * * * * * * * * * * * * * * * * * * * * * * * * * * * * * * //

dimensions      [1 -1 -2 0 0 0 0];

internalField   nonuniform List<scalar> 
16200
(
79486.60143
79493.44507
79502.46541
79514.17563
79529.52689
79549.81283
79577.00956
79613.08669
79658.31963
79712.58617
79777.21394
79854.12934
79945.20696
80053.57561
80181.76087
80333.92413
80513.78543
80726.61045
80977.70777
81273.70598
81621.71749
82029.95059
82507.25312
83063.17541
83707.45705
84449.42131
85296.79086
86253.96674
87319.61924
88483.74575
89724.88082
91009.13626
92292.95065
93529.7087
94677.81085
95706.84027
96599.96329
97352.9425
97971.33005
98467.24914
98856.49972
99156.22243
99383.16777
99552.56111
99677.50194
99768.76895
99834.93491
99882.62551
99916.85126
99941.33676
99958.81435
99971.27023
99980.1343
99986.43815
99990.90636
99994.09415
99996.30706
99998.01379
99998.74607
100000.0289
78370.65729
78378.89447
78388.50266
78401.45544
78418.6522
78441.57321
78472.6933
78513.3675
78563.9808
78624.34453
78696.06889
78781.44853
78882.45686
79002.67771
79144.81328
79313.54176
79512.96655
79748.9757
80027.51988
80356.0494
80742.60918
81196.47649
81727.66536
82346.91129
83065.01156
83891.93369
84835.2061
85897.59565
87073.94804
88347.61931
89688.01424
91051.7003
92388.43545
93650.2892
94799.81003
95814.09928
96684.4395
97413.22914
98010.271
98489.63127
98867.34965
99159.83935
99382.76244
99550.28327
99674.64616
99766.02646
99832.61101
99880.80413
99915.50351
99940.38685
99958.176
99970.86345
99979.89369
99986.31021
99990.85722
99994.08565
99996.32915
99998.04095
99998.74973
100000.0325
77438.26653
77447.45383
77458.23661
77472.81984
77492.27014
77518.34947
77553.86085
77599.42398
77655.43894
77722.02306
77801.07251
77895.30119
78006.75905
78139.58082
78296.72426
78483.49148
78704.5088
78966.42017
79275.97288
79641.56007
80072.27025
80578.51533
81171.49524
81863.04618
82664.74882
83586.62253
84634.93636
85809.09671
87097.66257
88474.62387
89898.51818
91316.91576
92675.84824
93930.14752
95050.07221
96022.37404
96847.17172
97533.31234
98094.28637
98545.48904
98902.66141
99181.03225
99394.77821
99556.64859
99677.72153
99767.30442
99832.98344
99880.77394
99915.33521
99940.20685
99958.03538
99970.77498
99979.85337
99986.30672
99990.88162
99994.12252
99996.37564
99998.08502
99998.77152
100000.0764
76706.47231
76716.4738
76728.96928
76745.60007
76767.83798
76797.85541
76838.35676
76889.53112
76951.77293
77025.80525
77113.65087
77218.54921
77342.6412
77490.6833
77665.93445
77874.35684
78121.13543
78413.69003
78759.61048
79168.29028
79649.956
80216.24147
80879.55194
81652.66043
82547.4518
83573.04808
84732.84878
86020.48475
87415.29233
88879.56413
90360.80595
91800.27544
93144.8102
94356.44878
95416.06093
96321.09719
97080.23217
97707.8833
98220.28793
98633.41416
98962.16879
99220.22147
99419.97818
99572.53026
99687.57123
99773.34441
99836.66561
99883.02027
99916.71724
99941.07196
99958.59151
99971.14509
99980.11
99986.49206
99991.02186
99994.2296
99996.45962
99998.14883
99998.79939
100000.103
76201.36353
76212.56142
76227.16978
76246.27624
76271.89585
76306.7607
76353.14128
76410.99121
76480.65862
76563.59148
76661.86575
76779.27993
76918.02637
77083.5032
77279.31089
77512.13228
77787.82864
78114.73142
78501.45913
78958.56757
79497.52925
80131.16681
80872.85499
81735.77748
82731.18847
83865.79062
85137.82863
86532.23668
88016.47279
89540.35378
91042.61762
92462.98687
93754.40046
94889.94658
95862.70341
96680.55096
97359.4613
97917.95421
98373.78133
98742.62645
99038.03858
99271.82988
99454.45846
99595.23206
99702.35163
99782.89436
99842.81089
99886.97221
99919.26545
99942.72444
99959.67224
99971.85963
99980.58882
99986.81784
99991.24806
99994.38844
99996.57247
99998.2293
99998.83869
100000.1421
75929.00168
75941.71308
75958.84023
75980.90689
76010.62183
76051.28145
76104.54623
76169.8345
76247.48728
76339.73509
76448.84269
76579.44075
76733.88736
76918.33781
77136.87132
77397.01645
77705.45135
78071.49148
78504.81481
79017.06857
79620.81363
80329.78132
81157.85205
82117.82233
83218.97628
84463.52517
85841.78005
87327.14245
88873.77232
90420.51698
91901.87117
93261.81982
94464.15979
95495.40952
96360.92823
97077.67446
97667.09909
98150.17285
98544.94686
98866.06144
99125.30263
99332.44365
99495.92669
99623.24868
99721.09487
99795.34428
99851.042
99892.4007
99922.84338
99945.08464
99961.2322
99972.89354
99981.27663
99987.27749
99991.55753
99994.5978
99996.71405
99998.32595
99998.88714
100000.1853
75863.44209
75877.99592
75898.05862
75923.68953
75958.41753
76005.66366
76066.29166
76138.96797
76225.6659
76329.49753
76452.26004
76599.27843
76773.11833
76980.73203
77226.70539
77519.39245
77866.29339
78277.67109
78764.24462
79338.70502
80014.60137
80806.29287
81727.52551
82789.51123
83997.6678
85347.12376
86817.38714
88368.37598
89941.56772
91468.75217
92886.15838
94147.62661
95231.11637
96137.20468
96882.26544
97490.27149
97986.1188
98391.63765
98724.12374
98996.58066
99218.76595
99398.34442
99541.76635
99654.76914
99742.56676
99809.86479
99860.80863
99898.94482
99927.21696
99948.00252
99963.17645
99974.18768
99982.13733
99987.84953
99991.93809
99994.85096
99996.88142
99998.43768
99998.9451
100000.2363
75999.62525
76016.63437
76039.92447
76069.71834
76110.53033
76165.29456
76234.40103
76316.57035
76414.63175
76531.7471
76670.07198
76835.72966
77031.47856
77265.10687
77541.79844
77870.78678
78260.50062
78722.21917
79267.75582
79910.77545
80665.5254
81546.32854
82565.63238
83731.32392
85042.61442
86484.80408
88024.28574
89607.1992
91165.3286
92629.16114
93942.88484
95074.49362
96017.50027
96785.55101
97403.84589
97901.01864
98303.46952
98632.53932
98903.96359
99128.71611
99314.403
99466.60957
99589.88911
99688.32602
99765.75315
99825.76608
99871.64868
99906.29955
99932.18778
99951.35101
99965.42503
99975.69276
99983.14131
99988.51679
99992.3803
99995.14295
99997.07243
99998.56357
99999.01189
100000.2943
76321.75844
76341.75136
76368.74091
76403.49996
76451.64686
76514.62276
76592.70349
76685.38858
76795.27299
76926.82978
77082.10681
77268.20191
77488.16362
77750.66206
78061.58806
78431.1016
78868.62737
79386.43442
79997.30387
80715.53233
81555.42806
82530.25884
83649.70655
84916.34435
86320.67619
87835.67484
89413.50525
90988.42382
92487.6801
93847.03106
95023.91044
96002.81901
96792.33128
97416.98189
97908.16639
98296.88795
98609.39701
98865.51697
99078.88438
99258.23803
99409.03045
99534.8713
99638.55983
99722.66864
99789.76766
99842.43033
99883.13839
99914.17874
99937.56567
99955.0058
99967.89814
99977.35866
99984.25794
99989.26119
99992.87402
99995.46837
99997.28463
99998.70269
99999.08724
100000.3598
76799.55006
76823.01166
76854.24081
76894.87037
76951.21679
77022.89075
77110.46588
77215.09726
77339.2238
77487.87566
77663.07718
77872.91538
78120.8139
78416.35248
78766.21896
79181.51167
79672.65048
80252.75145
80935.27181
81734.62012
82664.36354
83735.54335
84953.40589
86312.94643
87793.37452
89353.55462
90932.1989
92455.94852
93854.09224
95073.81026
96089.24112
96901.64337
97532.66262
98014.88454
98383.25278
98669.15284
98897.4136
99085.64636
99245.09247
99382.20707
99500.37882
99601.39584
99686.47405
99756.8327
99813.91043
99859.35883
99894.92867
99922.34228
99943.18834
99958.85916
99970.52573
99979.14086
99985.45971
99990.06634
99993.40995
99995.8223
99997.5158
99998.85409
99999.17078
100000.4331
77419.01245
77446.50933
77482.6589
77530.46124
77596.16474
77678.52146
77778.04655
77895.77465
78035.11686
78202.38087
78399.48934
78635.57494
78914.54983
79246.92381
79640.21452
80106.34744
80656.57978
81304.5885
82064.10257
82949.02919
83971.24663
85138.12375
86448.3801
87886.82578
89419.11199
90989.7595
92527.23922
93956.79901
95216.5484
96269.69968
97108.32076
97748.85798
98223.10628
98568.71485
98821.81831
99012.62702
99163.67259
99289.95773
99400.22945
99498.72713
99586.92661
99664.97687
99732.6923
99790.10143
99837.64613
99876.16
99906.73878
99930.59277
99948.91961
99962.81901
99973.2468
99980.99994
99986.72186
99990.91725
99993.97949
99996.20011
99997.76377
99999.01689
99999.26229
100000.5144
78158.76575
78190.97238
78232.86907
78288.91677
78363.82867
78456.29091
78568.4965
78702.1306
78859.64355
79048.79398
79271.524
79537.96503
79852.49911
80226.45656
80668.1513
81190.2365
81804.72925
82525.68047
83366.69079
84340.38272
85455.62451
86714.14352
88105.56609
89601.9768
91154.42656
92695.21525
94148.13605
95444.12375
96535.77676
97404.70301
98059.99997
98530.47322
98854.79997
99072.94401
99220.33745
99324.91651
99406.39673
99477.01681
99543.07574
99606.74295
99667.76753
99724.85218
99776.59045
99821.97801
99860.58991
99892.54331
99918.35457
99938.77586
99954.65058
99966.81013
99976.01058
99982.90244
99988.02302
99991.80079
99994.57496
99996.59759
99998.02654
99999.19022
99999.36157
100000.6041
79007.11679
79044.80633
79093.38213
79158.91044
79246.27414
79352.40286
79478.73218
79629.89092
79807.56601
80020.80895
80271.54485
80570.97021
80924.06165
81343.0173
81837.08288
82419.64387
83103.33476
83902.12473
84828.63634
85892.88891
87098.86667
88440.21383
89894.8368
91420.48807
92954.73684
94422.35015
95749.45221
96879.17065
97782.15287
98458.40128
98931.52654
99239.25961
99424.03008
99525.84397
99578.05664
99605.65201
99625.30085
99646.50016
99673.24439
99705.82388
99742.46109
99780.60306
99817.7939
99852.14364
99882.48163
99908.30389
99929.6196
99946.77526
99960.29697
99970.77286
99978.77585
99984.82065
99989.3451
99992.70558
99995.18954
99997.01097
99998.30228
99999.37326
99999.46831
100000.7023
79953.42889
79997.53877
80054.25488
80131.05152
80231.37656
80351.15165
80492.57597
80662.33254
80861.56545
81100.9006
81382.22532
81717.9441
82113.78136
82582.76592
83134.97647
83784.18071
84543.06415
85424.67547
86439.49954
87593.342
88883.10419
90291.78321
91783.59908
93302.23452
94775.48614
96127.18151
97292.79675
98232.33974
98935.57137
99418.91831
99717.06557
99873.21158
99930.86471
99928.37326
99896.13179
99855.84078
99821.11309
99798.8456
99790.92856
99795.98373
99810.90624
99832.06738
99856.11908
99880.41929
99903.16138
99923.30737
99940.42597
99954.50749
99965.79616
99974.66155
99981.51019
99986.73218
99990.67312
99993.62197
99995.81733
99997.43686
99998.58932
99999.56514
99999.58191
100000.8093
80975.44989
81027.35439
81093.60989
81181.66313
81294.68325
81430.70833
81590.36178
81782.33079
82007.15268
82277.30435
82594.58575
82972.52637
83417.50446
83943.11547
84559.97725
85281.80175
86120.75806
87088.12113
88190.87635
89428.58871
90788.54624
92240.89914
93735.76795
95205.50599
96574.04911
97771.4578
98748.18249
99483.31503
99984.52438
100281.4157
100416.0614
100434.0602
100377.9336
100283.2334
100176.9215
100077.3452
99995.19249
99934.9723
99896.69726
99877.53272
99873.2353
99879.26475
99891.52163
99906.73045
99922.54616
99937.47472
99950.70483
99961.91598
99971.10367
99978.44244
99984.18882
99988.61937
99991.99491
99994.54191
99996.45326
99997.8723
99998.88613
99999.76497
99999.70176
100000.9253
82079.16288
82140.44944
82217.16645
82318.51434
82446.32993
82600.56389
82781.44828
82999.31743
83253.60217
83558.79374
83916.60235
84341.53226
84840.5508
85427.66692
86113.84703
86912.35273
87834.07578
88887.1592
90073.03093
91382.49996
92790.95709
94254.86273
95712.13501
97088.87179
98312.11503
99324.43231
100094.5566
100620.3926
100924.6803
101046.4291
101031.6821
100925.986
100769.4365
100594.1337
100423.4516
100272.4939
100149.245
100056.0722
99991.3417
99950.96454
99929.73146
99922.33705
99924.05429
99931.07793
99940.60997
99950.76905
99960.41771
99968.96557
99976.18976
99982.09172
99986.79342
99990.46866
99993.30079
99995.45874
99997.09298
99998.31466
99999.19131
99999.97184
99999.82812
100001.0506
83267.44712
83340.22169
83429.26799
83548.40664
83694.40427
83868.98091
84072.88028
84319.14276
84605.6332
84948.89799
85350.69514
85826.46632
86383.78185
87036.87638
87796.63712
88674.96393
89679.98246
90814.67824
92072.57821
93433.62025
94860.28256
96296.55414
97672.31335
98913.86111
99957.9359
100763.8859
101319.4872
101639.2347
101757.2542
101718.2775
101569.4838
101354.5925
101110.392
100865.2547
100639.0323
100443.8062
100285.1226
100163.4618
100075.7645
100016.8733
99980.76697
99961.50291
99953.8338
99953.51425
99957.36733
99963.18432
99969.54902
99975.63766
99981.03636
99985.59352
99989.31097
99992.26988
99994.58316
99996.36706
99997.73283
99998.76162
99999.50359
100000.185
99999.96294
100001.1854
84541.61455
84628.63432
84731.76331
84869.87117
85034.5854
85232.02617
85461.10773
85738.63014
86060.82256
86446.23319
86896.75891
87428.59221
88049.63732
88773.68315
89610.53199
90569.27642
91653.4782
92859.02531
94169.75017
95553.6737
96960.99929
98326.47111
99577.64612
100647.6081
101487.8138
102076.1915
102418.1245
102541.2943
102487.3867
102303.6749
102036.3433
101726.1363
101406.1007
101100.8765
100826.9993
100593.8078
100404.6889
100258.4807
100150.9029
100075.8951
100026.7585
99997.02406
99981.01594
99974.12546
99972.86028
99974.73628
99978.09983
99981.92599
99985.6343
99988.93826
99991.73275
99994.01568
99995.8362
99997.26248
99998.36968
99999.21117
99999.82174
100000.404
100000.11
100001.33
85901.42131
86005.81249
86122.4506
86279.59269
86465.72788
86690.23662
86948.63272
87262.1001
87625.27445
88058.4332
88563.44401
89156.71128
89845.88218
90643.3311
91556.61795
92590.65905
93742.95126
95000.78569
96337.17089
97708.30129
99054.41429
100305.8701
101394.2035
102264.7967
102886.5886
103255.5484
103391.7321
103332.1895
103122.7089
102810.6202
102439.6674
102046.99
101661.7876
101305.14
100990.5504
100724.9154
100509.7334
100342.4276
100217.6788
100128.6686
100068.1365
100029.1814
100005.7773
99993.01746
99987.14844
99985.4553
99986.0829
99987.83331
99989.98112
99992.12117
99994.05334
99995.70097
99997.05554
99998.14152
99999.00093
99999.66148
100000.1446
100000.6289
100000.2714
100001.4849
87361.65542
87486.16775
87617.9723
87797.3704
88006.56385
88261.90099
88553.52205
88906.86503
89315.00295
89799.55873
90362.11012
91018.62104
91775.91897
92644.08223
93627.40714
94725.4091
95928.08648
97212.82387
98541.37571
99859.62169
101101.853
102199.8974
103095.0269
103748.4987
104147.1277
104302.6162
104246.0464
104020.2029
103672.1672
103247.5654
102786.8415
102323.2911
101882.3813
101481.9057
101132.6518
100839.37
100601.9227
100416.5212
100276.9672
100175.8092
100105.324
100058.2584
100028.3024
100010.3061
100000.3015
99995.38097
99993.51877
99993.36859
99994.07914
99995.14104
99996.26993
99997.32239
99998.23794
99999.00137
99999.62433
100000.111
100000.4713
100000.8596
100000.4429
100001.6499
88931.29621
89079.80375
89231.24401
89437.9035
89671.38964
89959.03992
90285.57959
90680.29932
91134.66778
91671.24611
92291.17197
93009.32263
93831.18348
94763.62089
95806.47839
96952.37665
98182.27708
99462.88344
100745.6317
101969.4081
103067.8918
103980.1567
104661.4001
105090.0339
105269.1731
105222.938
104989.7523
104615.0584
104145.1562
103622.8523
103084.886
102560.7396
102072.3953
101634.6835
101255.9932
100939.2065
100682.7765
100481.8808
100329.5797
100217.8951
100138.7248
100084.5308
100048.7747
100026.1103
100012.394
100004.558
100000.4328
99998.54501
99997.9341
99997.9993
99998.38161
99998.87799
99999.38112
99999.83985
100000.238
100000.5582
100000.8006
100001.0959
100000.6224
100001.8246
90610.14954
90786.38965
90957.69542
91191.91048
91450.9519
91772.22663
92135.01125
92572.09933
93073.37142
93661.85441
94338.2309
95115.50566
95997.02349
96985.1344
98073.60166
99246.56445
100475.0369
101715.6862
102912.4216
104001.9342
104922.8877
105626.1618
106082.9218
106287.9294
106257.7503
106025.3232
105633.1495
105126.9646
104550.9001
103944.3444
103340.2511
102764.4903
102235.8751
101766.6055
101362.9735
101026.2438
100753.6593
100539.5177
100376.2557
100255.4584
100168.715
100108.2594
100067.3712
100040.5472
100023.5012
100013.0334
100006.8531
100003.3783
100001.5539
100000.6992
100000.3889
100000.3668
100000.4835
100000.6552
100000.8403
100001.0018
100001.1318
100001.3376
100000.8114
100002.0084
92384.64941
92590.29827
92781.29936
93046.20807
93332.40241
93688.34949
94088.73379
94569.55258
95119.21599
95760.21761
96492.4752
97325.842
98260.15628
99291.65156
100406.5177
101579.6527
102772.6551
103934.5443
105005.9329
105926.5477
106644.7151
107125.7468
107356.7118
107346.4328
107121.5439
106720.4544
106187.1347
105565.9573
104898.0717
104219.229
103558.7284
102939.1217
102376.3928
101880.4319
101455.708
101102.09
100815.7828
100590.3359
100417.661
100288.9827
100195.6401
100129.6865
100084.2585
100053.729
100033.697
100020.8543
100012.8086
100007.8855
100004.948
100003.2451
100002.2933
100001.7887
100001.5441
100001.4461
100001.4299
100001.4406
100001.464
100001.5845
100001.0067
100002.2009
94256.6372
94486.97901
94691.36874
94987.53684
95305.21065
95699.91883
96141.90344
96669.65996
97270.32172
97964.25184
98749.91901
99632.65115
100607.4566
101663.4092
102778.5609
103919.0766
105039.1138
106083.6609
106994.7444
107719.6977
108219.5157
108474.534
108486.0446
108273.8828
107871.4316
107319.7853
106662.4789
105941.4821
105194.5825
104453.9322
103745.4313
103088.6475
102497.0693
101978.5725
101536.0466
101168.1562
100870.2155
100635.1365
100454.39
100318.9029
100219.8139
100149.0346
100099.5915
100065.7615
100043.0521
100028.0666
100018.3284
100012.0842
100008.1263
100005.6424
100004.0971
100003.1441
100002.5622
100002.2115
100002.0055
100001.8735
100001.7966
100001.8358
100001.2006
100002.4033
96209.75892
96474.39426
96706.00787
97035.49701
97387.53926
97823.77368
98309.51157
98884.07169
99533.84549
100275.5652
101105.5268
102023.6329
103019.1764
104073.6639
105157.299
106229.0519
107238.6099
108131.0563
108854.136
109365.9888
109641.4109
109674.6904
109478.7176
109081.1619
108519.2767
107834.727
107069.3493
106262.1529
105447.4876
104654.1034
103904.8165
103216.5499
102600.6086
102063.1172
101605.5973
101225.6735
100917.8937
100674.626
100486.9699
100345.6077
100241.5187
100166.5058
100113.5123
100076.7428
100051.6327
100034.7143
100023.4407
100015.992
100011.0993
100007.8966
100005.8028
100004.4338
100003.5377
100002.9505
100002.5661
100002.2995
100002.1291
100002.0888
100001.3859
100002.6174
98288.01245
98590.40342
98848.95502
99211.878
99596.76059
100071.8512
100598.1532
101213.6594
101904.5035
102682.8016
103541.8092
104475.3124
105466.3166
106488.9101
107506.5799
108473.5601
109338.6429
110050.9784
110567.2754
110858.0253
110911.3239
110733.2675
110345.4082
109780.3714
109077.0132
108276.1014
107417.0319
106535.6458
105662.9746
104824.6481
104040.7327
103325.8292
102689.34
102135.8691
101665.7517
101275.7114
100959.6347
100709.4239
100515.8659
100369.4424
100261.0072
100182.2822
100126.1504
100086.763
100059.5005
100040.8386
100028.1725
100019.6259
100013.8773
100010.0136
100007.4134
100005.6588
100004.4704
100003.6624
100003.1106
100002.7178
100002.4605
100002.3399
100001.5704
100002.8428
100486.5314
100828.7768
101114.4307
101509.0872
101923.3461
102431.8389
102992.9379
103641.1773
104362.0824
105162.3852
106031.4838
106956.6247
107914.5357
108872.8777
109790.4821
110619.9743
111312.8575
111825.528
112125.4821
112195.5603
112035.5126
111660.6307
111098.3451
110383.8856
109556.0715
108653.851
107713.8278
106768.7003
105846.4138
104969.7953
104156.4869
103419.0613
102765.2657
102198.3821
101717.713
101319.1985
100996.1514
100740.0736
100541.4882
100390.713
100278.5051
100196.5277
100137.6228
100095.9045
100066.7123
100046.478
100032.5493
100023.0022
100016.4702
100011.9992
100008.9319
100006.8204
100005.3606
100004.3468
100003.6382
100003.1276
100002.7899
100002.5865
100001.7653
100003.0753
102792.99
103172.2302
103479.9246
103905.0824
104347.0617
104883.8139
105472.8461
106143.8868
106881.359
107686.0302
108543.0336
109433.2584
110327.9302
111190.0863
111976.5882
112641.6841
113142.5961
113444.9378
113527.3927
113383.9861
113023.8863
112468.9767
111750.2069
110903.6467
109966.9927
108976.8741
107967.0194
106967.152
106002.4188
105093.1628
104254.9037
103498.4475
102830.1003
102251.9906
101762.5186
101356.9387
101028.0638
100767.05
100564.1971
100409.6901
100294.2126
100209.3889
100148.0351
100104.242
100073.3204
100051.6681
100036.5947
100026.1365
100018.8879
100013.8591
100010.3614
100007.92
100006.2085
100005.0032
100004.1482
100003.5282
100003.116
100002.8273
100001.9733
100003.3113
105200.4366
105612.5227
105939.0946
106388.678
106853.1506
107410.0081
108016.5958
108696.8931
109433.9014
110222.0735
111042.2012
111869.5698
112671.3448
113408.2688
114038.0496
114519.3238
114817.0204
114906.6598
114777.3763
114432.5419
113888.3872
113171.0959
112313.3042
111350.7016
110319.2204
109252.9722
108182.9013
107136.0008
106134.9225
105197.8283
104338.3867
103565.8645
102885.3096
102297.84
101801.0624
101389.6279
101055.9111
100790.768
100584.3092
100426.6124
100308.308
100220.9965
100157.4821
100111.8433
100079.3721
100056.4417
100040.3311
100029.0432
100021.1397
100015.5991
100011.7051
100008.959
100007.0144
100005.6313
100004.64
100003.9192
100003.4376
100003.0619
100002.1956
100003.5486
107690.807
108131.0818
108473.0681
108939.6802
109419.1618
109986.0329
110597.6973
111271.2426
111988.1794
112736.8572
113494.2382
114231.3926
114913.3686
115501.0711
115955.4999
116241.591
116332.8437
116214.3069
115884.1188
115352.9349
114641.8926
113779.6358
112799.1709
111735.0373
110621.0879
109488.9197
108366.8829
107279.5173
106247.2748
105286.4123
104408.985
103622.9163
102932.1509
102336.9163
101834.1173
101417.8706
101080.1637
100811.5912
100602.103
100441.6913
100320.9494
100231.4677
100166.0492
100118.7696
100084.9109
100060.8289
100043.7787
100031.7361
100023.2341
100017.2245
100012.9661
100009.939
100007.779
100006.231
100005.113
100004.2998
100003.7533
100003.2902
100002.4324
100003.7849
110249.2596
110710.255
111062.8745
111538.6609
112023.2251
112586.6899
113187.7981
113835.8659
114511.0219
115196.3135
115865.8754
116488.2594
117028.3914
117449.4679
117717.5214
117804.738
117693.0887
117376.0669
116859.0683
116158.0683
115297.3241
114306.5719
113218.3151
112065.5169
110879.8601
109690.5533
108523.5916
107401.3407
106342.327
105361.1466
104468.4477
103670.9764
102971.7048
102370.0707
101862.3533
101442.1929
101101.2329
100829.8389
100617.8245
100455.1139
100332.2778
100240.9072
100173.8132
100125.0766
100089.9763
100064.8574
100046.9568
100034.2279
100025.1797
100018.7404
100014.1473
100010.8615
100008.5027
100006.802
100005.5668
100004.6697
100004.0614
100003.5124
100002.6836
100004.018
112855.2033
113326.3892
113683.2541
114158.6021
114636.8376
115181.0875
115753.7033
116356.3882
116968.0981
117567.6104
118127.439
118615.3309
118997.8478
119242.0609
119319.9951
119211.2015
118905.3567
118402.9718
117714.9669
116860.9562
115866.9458
114762.8189
113580.0516
112349.8477
111101.7742
109862.8434
108656.95
107504.5509
106422.4931
105423.9252
104518.264
103711.219
103004.8994
102398.0374
101886.3512
101463.0526
101119.4782
100845.7915
100631.6902
100467.0461
100342.4187
100249.4087
100180.8431
100130.8143
100094.6043
100068.5526
100049.8829
100036.5305
100026.9843
100020.1519
100015.2517
100011.728
100009.1861
100007.3444
100006.0011
100005.0282
100004.3605
100003.729
100002.9487
100004.2452
115491.0421
115958.3211
116306.4704
116763.869
117222.5951
117732.2424
118259.0117
118797.7294
119326.6822
119821.5792
120254.605
120594.2864
120810.1806
120874.1871
120764.5714
120467.7516
119979.9833
119307.312
118464.65
117473.9219
116361.9009
115158.0155
113892.4452
112594.6147
111292.1141
110009.9813
108770.2604
107591.7424
106489.8117
105476.3532
104559.7018
103744.6488
103032.5328
102421.4514
101906.6155
101480.85
101135.2152
100859.6961
100643.892
100477.6353
100351.484
100257.0563
100187.2013
100136.0284
100098.8277
100071.9378
100052.5732
100038.6551
100028.6552
100021.4637
100016.2823
100012.5403
100009.8298
100007.8581
100006.4159
100005.3748
100004.6488
100003.9408
100003.2272
100004.462
118110.6959
118558.2537
118890.2469
119319.078
119745.159
120205.8518
120671.1983
121129.8649
121560.2091
121936.1997
122230.8867
122414.8333
122461.4335
122347.7591
122058.0204
121584.6495
120929.2524
120102.0569
119120.7227
118008.5035
116792.2843
115500.6944
114162.5231
112805.4958
111455.4074
110135.5477
108866.3431
107665.1346
106546.0324
105519.814
104593.8591
103772.1404
103055.3035
102440.8708
101923.5919
101495.9395
101148.7245
100871.7734
100654.602
100487.0143
100359.5751
100263.9266
100192.9449
100140.7608
100102.6771
100075.0348
100055.0432
100040.6124
100030.1998
100022.6806
100017.2419
100013.2999
100010.4348
100008.3434
100006.8111
100005.7086
100004.925
100004.1494
100003.5177
100004.663
120671.9033
121092.6045
121402.2407
121791.3906
122173.2344
122572.0058
122962.4533
123328.1467
123648.2304
123896.14
124046.6652
124073.2038
123953.3113
123669.0965
123210.0859
122573.7412
121765.8633
120799.7342
119694.8155
118475.009
117166.909
115798.1843
114396.2541
112987.2802
111595.4586
110242.5481
108947.5678
107726.5978
106592.6356
105555.4846
104621.6757
103794.4471
103073.8166
102456.7821
101937.6709
101508.6337
101160.2548
100882.2199
100663.974
100495.3024
100366.7835
100270.0889
100198.1257
100145.0501
100106.1804
100077.8639
100057.3072
100042.4122
100031.6248
100023.8071
100018.1335
100014.0086
100011.0016
100008.8005
100007.1867
100006.029
100005.1881
100004.3566
100003.8156
100004.8448
123159.4827
123538.1734
123814.8566
124152.1508
124478.2277
124804.1628
125109.3995
125373.3543
125576.407
125692.3994
125698.3696
125570.9185
125291.6909
124847.397
124232.1115
123447.3694
122502.1778
121411.993
120197.4014
118882.5124
117493.4123
116056.7721
114598.7283
113144.0417
111715.5054
110333.5473
109015.9656
107777.7441
106630.9057
105584.3926
104643.9773
103812.2345
103088.6096
102469.6195
101949.2024
101519.2134
101170.0303
100891.2131
100672.1476
100502.6082
100373.1929
100275.6069
100202.7918
100148.9319
100109.3641
100080.4442
100059.379
100044.0644
100032.9369
100024.8476
100018.96
100014.6681
100011.5314
100009.2299
100007.5429
100006.335
100005.4374
100004.5635
100004.1129
100005.0141
125522.8411
125853.2284
126092.9551
126372.0601
126635.3774
126881.7415
127095.7063
127253.7714
127337.8822
127322.9798
127188.5367
126914.4007
126485.9951
125894.0647
125136.468
124217.9752
123150.0096
121949.5529
120637.858
119238.9803
117778.4074
116281.8507
114774.288
113279.2476
111818.304
110410.7334
109073.2767
107819.962
106661.9557
105607.4345
104661.4891
103826.0909
103100.1605
102479.7708
101958.5005
101527.9316
101178.2536
100898.9142
100679.2496
100509.0307
100378.8799
100280.5392
100206.9876
100152.4394
100112.2527
100082.7937
100061.2715
100045.5782
100034.1426
100025.8067
100019.7243
100015.2802
100012.025
100009.6322
100007.8799
100006.6257
100005.6732
100004.7709
100004.404
100005.177
127750.0565
128021.9605
128217.3249
128431.6074
128626.8717
128790.2886
128911.0448
128963.5987
128931.349
128790.7032
128523.5283
128112.7751
127547.2333
126821.1005
125935.334
124897.2538
123720.1015
122421.9292
121024.3664
119551.28
118027.5513
116478.0156
114926.6302
113395.8548
111906.2136
110475.9901
109121.0091
107854.4641
106686.7653
105625.4056
104674.8588
103836.5452
103108.9013
102487.5883
101965.8513
101535.0198
101185.1106
100905.4713
100685.3973
100514.6618
100383.9157
100284.9404
100210.7545
100155.6039
100114.8693
100084.9294
100062.9971
100046.9624
100035.2482
100026.6886
100020.4294
100015.8468
100012.4836
100010.0081
100008.1977
100006.9005
100005.8957
100004.9784
100004.6844
100005.332
129798.9277
130011.054
130162.3628
130311.7847
130439.272
130521.5695
130551.7232
130503.1767
130360.7072
130102.4714
129712.6121
129176.9499
128487.2075
127640.4948
126640.2939
125495.9397
124222.0579
122837.4668
121364.004
119825.2986
118245.6688
116649.1787
115058.9046
113496.3909
111981.262
110530.9476
109160.4786
107882.3175
106706.2043
105639.0178
104684.6713
103844.0782
103115.227
102493.3958
101971.5191
101540.6924
101190.7743
100911.0228
100690.7005
100519.5879
100388.3675
100288.8625
100214.1323
100158.4555
100117.2366
100086.868
100064.568
100048.2259
100036.2599
100027.4979
100021.0783
100016.3699
100012.9084
100010.3585
100008.4967
100007.1589
100006.1057
100005.1845
100004.9484
100005.4813
131655.5445
131808.2778
131918.7458
132006.7679
132069.4826
132075.3882
132020.373
131877.7654
131633.5686
131267.8024
130766.6724
130118.5722
129317.7382
128363.7203
127262.0639
126023.716
124664.3837
123203.459
121662.9034
120066.1131
118436.9143
116798.7126
115173.8373
113583.0563
112045.2275
110577.0477
109192.8591
107904.4828
106721.0624
105648.9228
104691.4651
103849.1353
103119.5051
102497.4956
101975.7515
101545.151
101195.4074
100915.6994
100695.263
100523.8907
100392.2995
100292.3552
100217.159
100161.023
100119.3764
100088.6259
100065.9964
100049.3776
100037.1843
100028.239
100021.6742
100016.8517
100013.301
100010.6842
100008.777
100007.4007
100006.3038
100005.3869
100005.1951
100005.6322
133316.344
133414.7422
133487.5237
133519.1506
133521.3315
133457.0619
133324.0199
133096.0057
132759.9633
132297.7301
131697.304
130949.3282
130050.1725
129001.4291
127810.3457
126489.1865
125054.5343
123526.2418
121926.3648
120278.1039
118604.8768
116929.5422
115273.8065
113657.7856
112099.6879
110615.5821
109219.2132
107921.8381
106732.068
105655.7262
104695.7442
103852.1353
103122.0829
102500.1743
101978.7835
101548.587
101199.1649
100919.6253
100699.184
100527.6489
100395.773
100295.4663
100219.8714
100163.3346
100121.3097
100090.2189
100067.294
100050.4261
100038.0276
100028.9167
100022.2203
100017.2942
100013.6628
100010.9865
100009.0389
100007.6259
100006.4899
100005.5836
100005.4319
100005.7872
134792.1055
134839.5551
134875.2417
134855.814
134802.7758
134675.6624
134472.8494