/*--------------------------------*- C++ -*----------------------------------*\
  =========                 |
  \\      /  F ield         | OpenFOAM: The Open Source CFD Toolbox
   \\    /   O peration     | Website:  https://openfoam.org
    \\  /    A nd           | Version:  12
     \\/     M anipulation  |
\*---------------------------------------------------------------------------*/
FoamFile
{
    format      ascii;
    class       surfaceScalarField;
    location    "1300";
    object      phi;
}
// * * * * * * * * * * * * * * * * * * * * * * * * * * * * * * * * * * * * * //

dimensions      [1 0 -1 0 0 0 0];

internalField   nonuniform List<scalar> 
32120
(
-0.000618510995
-0.04516942503
0.04578793602
-0.001373450094
-0.06422167911
0.06497661844
-0.002299160777
-0.08352143237
0.08444714321
-0.003413215412
-0.1061814646
0.1072955194
-0.004643111963
-0.1341268937
0.1353567905
-0.005783998015
-0.1698067945
0.1709476809
-0.006767883969
-0.2160918046
0.217075691
-0.009656287879
-0.2726209239
0.2755093286
-0.01737748853
-0.3309111669
0.3386323687
-0.02788930914
-0.3945107743
0.4050225965
-0.04040841823
-0.4695905662
0.4821096773
-0.0552679901
-0.5590837254
0.5739432997
-0.07292928578
-0.6655579811
0.6832192797
-0.09392141277
-0.7923496851
0.8133418154
-0.1188654728
-0.9432418338
0.9681858977
-0.1485044647
-1.122863348
1.152502344
-0.1837143098
-1.336624114
1.371833964
-0.2255392487
-1.59101381
1.632838755
-0.2752152254
-1.893696027
1.943372009
-0.3342131189
-2.25379068
2.31278858
-0.4042794458
-2.682091423
2.752157756
-0.4874942944
-3.191388534
3.27460339
-0.5863368574
-3.796797428
3.895639998
-0.7037715231
-4.51615937
4.633594042
-0.8433534828
-5.370482876
5.510064841
-1.009363975
-6.384451394
6.550461891
-1.206978274
-7.587001144
7.784615446
-1.442464643
-9.012007092
9.247493464
-1.723402168
-10.69913811
10.98007563
-2.058888004
-12.6949901
13.03047594
-2.459691705
-15.05465097
15.45545468
-2.938320065
-17.84387639
18.32250476
-3.509025384
-21.14196468
21.71267001
-4.187892365
-25.04521832
25.72408531
-4.993170043
-29.67073381
30.4760115
-5.945907334
-35.16036435
36.11310165
-7.070797612
-41.68495993
42.80985022
-8.397048418
-49.4491907
50.77544152
-9.959115372
-58.69730008
60.25936704
-11.79721048
-69.7201171
71.55821223
-13.9575694
-82.86364096
85.02399988
-16.49245251
-98.53956608
101.0744492
-19.45980711
-117.2381289
120.2054835
-22.92240804
-139.5437384
143.0063393
-26.94615354
-166.1539203
170.1776658
-31.59702521
-197.9022504
202.553122
-36.93598393
-235.7860899
241.1250486
-43.01075387
-281.0002215
287.0749915
-49.84299307
-334.9777564
341.8099956
-57.40868104
-399.4400825
407.0057705
-65.60861647
-476.4581102
484.6580456
-74.22457703
-568.5277199
577.1436805
-82.85474061
-678.6632277
687.2933912
-90.81928305
-810.5137406
818.478283
-97.02313902
-968.5090887
974.7129447
-99.75732384
-1158.043925
1160.778109
-96.4126146
-1385.712403
1382.367694
-83.06697326
-1659.609466
1646.263825
-53.89479953
-1989.701812
1960.529638
-2388.359774
2334.786769
-0.0005348310454
-0.04463459387
-0.001199218265
-0.06355729166
-0.002008377915
-0.08271227253
-0.002965194817
-0.1052246475
-0.004004729819
-0.1330873584
-0.00498054653
-0.1688309774
-0.005938191324
-0.2151341591
-0.00989167862
-0.2686674355
-0.01744543479
-0.3233574091
-0.02677694789
-0.3851792591
-0.03786778651
-0.458499725
-0.05106619097
-0.545885318
-0.06676518296
-0.6498589857
-0.08544155293
-0.7736733112
-0.1076535898
-0.9210297924
-0.1340714511
-1.096445482
-0.1654841258
-1.305211434
-0.2028331118
-1.553664818
-0.247232222
-1.84929691
-0.3000078623
-2.201015033
-0.3627369281
-2.61936235
-0.4373023914
-3.116823063
-0.5259580593
-3.708141754
-0.6314143018
-4.410703121
-0.7569465327
-5.24495064
-0.9065346113
-6.23486331
-1.085034164
-7.408501588
-1.298374053
-8.798667199
-1.553760561
-10.44375159
-1.859848113
-12.38890253
-2.226813866
-14.6876852
-2.666302571
-17.40438766
-3.191320865
-20.61694637
-3.816278592
-24.42026055
-4.557348794
-28.9296636
-5.433155612
-34.28455747
-6.465641939
-40.6524736
-7.680922931
-48.23390963
-9.109984688
-57.26823832
-10.78916278
-68.04093893
-12.76038595
-80.89241779
-15.07116988
-96.22878209
-17.7742922
-114.5350066
-20.92699011
-136.3910404
-24.58939037
-162.49152
-28.82173808
-193.6699026
-33.67975609
-230.9280719
-39.20718904
-275.4727886
-45.42416544
-328.76078
-52.3094097
-392.5548383
-59.77348319
-468.9940367
-67.61900136
-560.6822017
-75.48207121
-670.8001578
-82.74659807
-803.2492137
-88.41977244
-962.8359144
-90.95177696
-1155.51192
-87.97593582
-1388.688244
-75.93439863
-1671.651003
-49.54179256
-2016.094418
-2436.882914
-0.0004061780263
-0.0442284157
-0.0008983467027
-0.06306512267
-0.001485745586
-0.08212487339
-0.002137207234
-0.1045731856
-0.002743070744
-0.1324814945
-0.003191492454
-0.168382555
-0.003917690093
-0.2144079604
-0.008150322794
-0.2644348012
-0.01500762356
-0.3165001062
-0.02332106001
-0.37686582
-0.03319819413
-0.4486225877
-0.04494916224
-0.5341343462
-0.05892402298
-0.6358841207
-0.0755473675
-0.7570499618
-0.095313811
-0.9012633434
-0.1188189324
-1.072940354
-0.1467637813
-1.277266578
-0.1799873034
-1.520441289
-0.2194850744
-1.809799132
-0.2664477669
-2.154052332
-0.3222980772
-2.563512032
-0.3887447223
-3.050376411
-0.4678473716
-3.629039099
-0.5621046862
-4.3164458
-0.6745680726
-5.13248725
-0.8089875806
-6.100443798
-0.9699864082
-7.247502759
-1.163252469
-8.605401135
-1.395713299
-10.21129075
-1.67563283
-12.108983
-2.01256204
-14.35075598
-2.417159924
-16.99978976
-2.901046925
-20.13305936
-3.476909311
-23.84439815
-4.158961549
-28.24761136
-4.963688208
-33.4798308
-5.910686066
-39.70547574
-7.023440743
-47.12115493
-8.329942172
-55.96173689
-9.863106562
-66.50777452
-11.6609932
-79.09453116
-13.76680008
-94.1229752
-16.22856834
-112.0732384
-19.09844767
-133.5211611
-22.43127087
-159.1586969
-26.28203084
-189.8191426
-30.70167336
-226.5084294
-35.73034174
-270.4441202
-41.38683293
-323.1042888
-47.65248047
-386.2891907
-54.44691283
-462.1996043
-61.5920094
-553.5371052
-68.75881162
-663.6333556
-75.38988199
-796.6181433
-80.58641871
-957.6393776
-82.94485541
-1153.153483
-80.32128578
-1391.311814
-69.49219744
-1682.480091
-45.66810554
-2039.91851
-2480.752293
-0.000296917897
-0.04393149763
-0.0006491678787
-0.0627128724
-0.001057925819
-0.0817161152
-0.001460798364
-0.1041703127
-0.001692003969
-0.1322502885
-0.00163149639
-0.1684430619
-0.002607900789
-0.213431555
-0.006954466528
-0.2600882339
-0.01308533157
-0.3103692391
-0.02040864325
-0.3695425058
-0.029105265
-0.439925963
-0.03945244074
-0.523787167
-0.05175646968
-0.6235800878
-0.06639382234
-0.7424126046
-0.08380212763
-0.8838550331
-0.1045111762
-1.0522313
-0.1291457687
-1.252631979
-0.1584560402
-1.491131011
-0.1933347725
-1.774920392
-0.234853255
-2.112533842
-0.2842978995
-2.514067381
-0.3432250264
-2.991449277
-0.4135299321
-3.558734187
-0.4975412444
-4.232434482
-0.5981424254
-5.031886066
-0.7189227313
-5.979663489
-0.864350699
-7.102074789
-1.039946392
-8.42980544
-1.252397713
-9.998839431
-1.509543168
-11.85183754
-1.820187165
-14.04011198
-2.193852358
-16.62612456
-2.64068883
-19.68622289
-3.171714731
-23.31337224
-3.799386637
-27.61993945
-4.538353876
-32.74086355
-5.406225031
-38.83760458
-6.424233384
-46.10314656
-7.617755717
-54.76821456
-9.016670757
-65.10885946
-10.65555698
-77.45564493
-12.57369326
-92.20483891
-14.81480062
-109.832131
-17.42638306
-130.9095786
-20.45843703
-156.1266429
-23.96116934
-186.3164103
-27.98119047
-222.4884082
-32.55540293
-265.8699077
-37.70146384
-317.9582279
-43.40320714
-380.5874474
-49.58870946
-456.014102
-56.09767639
-547.0281382
-62.63338391
-657.0976481
-68.69244044
-790.5590868
-73.46254659
-952.8692715
-75.67461902
-1150.941411
-73.38947844
-1393.596955
-63.69077206
-1692.178798
-42.2444434
-2061.364839
-2520.326956
-0.0001989190753
-0.04373257835
-0.0004135077173
-0.06249828344
-0.0006396901407
-0.0814899325
-0.0007934189678
-0.1040165835
-0.0006712131551
-0.1323724938
-0.0001305590674
-0.1689837152
-0.001467062761
-0.21209505
-0.005559806538
-0.2559954884
-0.01091901563
-0.3050100278
-0.01728696694
-0.3631745518
-0.02486581408
-0.4323471127
-0.03389233695
-0.5147606405
-0.04463562224
-0.6128367984
-0.05742895512
-0.729619267
-0.07265834642
-0.8686256365
-0.09079215352
-1.034097487
-0.1123829517
-1.231041175
-0.1380958623
-1.465418094
-0.1687265064
-1.744289742
-0.2052370048
-2.076023337
-0.2487958749
-2.470508505
-0.3008360153
-2.93940913
-0.3631291667
-3.496441031
-0.4378859485
-4.157677695
-0.5278835613
-4.941888451
-0.6366197032
-5.870927344
-0.7684756421
-6.970218848
-0.9288446024
-8.269436478
-1.124151599
-9.803532432
-1.361699094
-11.61429003
-1.649382876
-13.75242819
-1.995466593
-16.28004084
-2.408631353
-19.27305812
-2.898372435
-22.82363115
-3.475640404
-27.04267147
-4.153552863
-32.06295108
-4.948048548
-38.04310889
-5.878428513
-45.17276658
-6.967777968
-53.6788651
-8.243270482
-63.83336694
-9.73634617
-75.96256924
-11.48272752
-90.45845756
-13.5222002
-107.7926583
-15.89802964
-128.5337492
-18.6558025
-153.36887
-21.84137218
-183.1308406
-25.4974227
-218.8323577
-29.65795368
-261.7093767
-34.339667
-313.2765146
-39.52880753
-375.3983069
-45.16134492
-450.3815646
-51.09351335
-541.0959698
-57.05840785
-651.1327536
-62.60244546
-785.0150492
-66.99304318
-948.4786737
-69.08488189
-1148.849572
-67.12710063
-1395.554736
-58.48573524
-1700.820163
-39.24528804
-2080.605286
-2555.931999
-0.0001247468508
-0.04360783132
-0.0002198761686
-0.06240315387
-0.0002768769749
-0.08143293146
-0.0001794904227
-0.1041139698
0.0002930268235
-0.1328450106
0.001052377997
-0.1697430657
-0.0005433759443
-0.2104992951
-0.004062919004
-0.2524759439
-0.008723050107
-0.3003498949
-0.01426852373
-0.3576290761
-0.02086796229
-0.4257476717
-0.0287249915
-0.5069036084
-0.03807159117
-0.6034901955
-0.04919790684
-0.7184929477
-0.06243985838
-0.855383681
-0.07820765642
-1.018329685
-0.09698877177
-1.212260055
-0.1193752928
-1.443031568
-0.1460837968
-1.717581233
-0.1779915852
-2.044115544
-0.216178992
-2.432321093
-0.261989963
-2.893598154
-0.3171127238
-3.441318267
-0.3836878122
-4.091102602
-0.4644426877
-4.861133573
-0.5628413661
-5.772528663
-0.6832160943
-6.849844117
-0.8308184568
-8.121834113
-1.011712672
-9.622638213
-1.232501852
-11.39350085
-1.500023539
-13.4849065
-1.821241243
-15.95882313
-2.203472977
-18.89082638
-2.654911693
-22.37219243
-3.185272424
-26.51231074
-3.806414688
-31.44180881
-4.532867673
-37.3166559
-5.382254004
-44.32338025
-6.375628002
-52.6854911
-7.537737397
-62.67125754
-8.897188146
-74.60311849
-10.48647693
-88.86916877
-12.34181142
-105.9373238
-14.50260014
-126.3729605
-17.01042365
-150.8610465
-19.907188
-180.2340763
-23.23203683
-215.5075089
-27.0163851
-257.9250285
-31.27616435
-309.0167353
-35.99995705
-370.6745142
-41.13114246
-445.2503792
-46.54132588
-535.6857864
-51.99118199
-645.6828975
-57.07317929
-779.9330519
-61.128239
-944.423614
-63.12506978
-1146.852741
-61.48620419
-1397.193601
-53.83750969
-1708.468858
-36.64848285
-2097.794313
-2587.861219
-5.716017202e-05
-0.04355067098
-3.649196643e-05
-0.06242382184
8.47649549e-05
-0.08155418816
0.000467451676
-0.1044966562
0.001358124485
-0.133735683
0.002008069686
-0.1703930102
0.0001176349262
-0.2086088593
-0.003218320943
-0.2491399867
-0.007188486181
-0.2963797281
-0.01192298451
-0.3528945758
-0.01755354992
-0.4201171041
-0.02426299701
-0.5001941589
-0.03225187594
-0.5955013137
-0.04177411745
-0.708970703
-0.05312484786
-0.8440329471
-0.06666706931
-1.00478746
-0.08283587559
-1.196091245
-0.1021642811
-1.423703158
-0.1253046842
-1.694440825
-0.1530658555
-2.016354368
-0.1864597037
-2.398927241
-0.2267686132
-2.85328924
-0.2756358915
-3.392450986
-0.335181506
-4.031556985
-0.4081351413
-4.788179935
-0.4979635972
-5.682700205
-0.6089434404
-6.73886427
-0.7461042709
-7.984673278
-0.9149964626
-9.453746016
-1.121358493
-11.18713881
-1.370889166
-13.23537582
-1.669316667
-15.66039563
-2.022789482
-18.53735356
-2.438453511
-21.9565284
-2.925043659
-26.02572058
-3.493387909
-30.87346455
-4.156808719
-36.65323509
-4.931447857
-43.5487411
-5.836541073
-51.78039788
-6.894646597
-61.613152
-8.131806053
-73.36595903
-9.577589871
-87.42338494
-11.26495895
-104.2499547
-13.22982455
-124.4080949
-15.51013597
-148.5807351
-18.14423534
-177.5999769
-21.16808963
-212.4836546
-24.61083556
-254.4822825
-28.48780992
-305.139761
-32.78989078
-366.3724333
-37.46743348
-440.5728365
-42.40637342
-530.7468464
-47.39299097
-640.6962799
-52.06234528
-775.2636976
-55.82324464
-940.6627147
-57.74961651
-1144.92637
-56.42377726
-1398.519441
-49.71093554
-1715.181699
-34.43502775
-2113.07022
-2616.37952
-2.337835965e-06
-0.04354833302
0.0001216708249
-0.06254783036
0.0004230812145
-0.0818555984
0.001095197521
-0.1051687724
0.002387713101
-0.1350281983
0.00277510201
-0.1707803987
0.0008498589002
-0.2066836156
-0.002119976245
-0.2461701508
-0.005476494033
-0.2930232093
-0.009476599783
-0.3488944689
-0.01424003016
-0.4153536724
-0.01992547396
-0.4945087135
-0.02670609611
-0.5887206898
-0.03480328477
-0.7008735124
-0.04447587683
-0.8343603529
-0.05604458204
-0.9932187519
-0.06989831995
-1.182237504
-0.08651935756
-1.407082118
-0.1065081956
-1.674451985
-0.1306240237
-1.992238537
-0.1598387316
-2.369712531
-0.1954121868
-2.817715782
-0.2389893353
-3.348873835
-0.2927155774
-3.977830739
-0.359354941
-4.721540568
-0.4423752897
-5.599679853
-0.545935198
-6.635304358
-0.6747075333
-7.855900938
-0.8335600217
-9.294893524
-1.027252881
-10.99344595
-1.260366262
-13.00226244
-1.537553591
-15.38320829
-1.864035507
-18.21087164
-2.246160049
-21.57440385
-2.69189491
-25.57998572
-3.211209656
-30.3541498
-3.816370923
-36.04807381
-4.522192638
-42.84291938
-5.346265553
-50.95632496
-6.309165017
-60.65025253
-7.434607188
-72.24051686
-8.749513829
-86.1084783
-10.28390575
-102.7155628
-12.07053083
-122.6214698
-14.14406185
-146.5072041
-16.53963744
-175.2044013
-19.29039386
-209.7328982
-22.42347889
-251.3491975
-25.95381647
-301.6094234
-29.87454931
-362.4517005
-34.14263958
-436.3047463
-38.65742772
-526.2320583
-43.22900097
-636.1247067
-47.53191462
-770.960784
-51.03778676
-937.1568425
-52.91772454
-1143.046432
-51.90152485
-1399.53564
-46.07508218
-1721.008142
-32.58896962
-2126.556333
-2641.725131
4.594594165e-05
-0.04359427885
0.0002738376572
-0.06277572189
0.0007623048591
-0.08234406543
0.001716456501
-0.1061229238
0.003228766383
-0.1365405078
0.003205161505
-0.1707567933
0.001361246905
-0.2048397003
-0.0009811329228
-0.2438277701
-0.003793539283
-0.2902108019
-0.007151694521
-0.3455363125
-0.01115181321
-0.4113535523
-0.01592995929
-0.4897305658
-0.02163502603
-0.5830156213
-0.0284596484
-0.694048888
-0.03663185869
-0.8261881404
-0.04643744489
-0.9834131634
-0.05822930675
-1.17044564
-0.07245321239
-1.392858209
-0.08967760056
-1.657227594
-0.1106387313
-1.971277404
-0.1363014986
-2.344049762
-0.1679398423
-2.786077436
-0.2072351062
-3.309578569
-0.2563832197
-3.928682623
-0.3181842206
-4.659739564
-0.3960622493
-5.521801821
-0.4939462654
-6.537420339
-0.6159914827
-7.733855717
-0.7662461366
-9.144638865
-0.948467843
-10.81122424
-1.166238861
-12.78449141
-1.423360057
-15.12608709
-1.72436972
-17.90986197
-2.075029626
-21.22374394
-2.482701009
-25.17231433
-2.956617618
-29.88023319
-3.508100824
-35.49659061
-4.150758221
-42.20026198
-4.900683597
-50.20639958
-5.776650423
-59.7742857
-6.800269902
-71.21689738
-7.996066828
-84.91268137
-9.391409319
-101.3202203
-11.0161937
-120.9966854
-12.90215055
-144.6212472
-15.08155512
-173.0249968
-17.58503839
-207.2294149
-20.43804145
-248.4961944
-23.65525081
-298.392214
-27.23207081
-358.8748805
-31.13175195
-432.4050651
-35.26621602
-522.0975942
-39.46776635
-631.9231563
-43.44763769
-766.9809126
-46.73567393
-933.8688063
-48.59289876
-1141.189207
-47.88541492
-1400.243124
-42.90286308
-1725.990694
-31.09720932
-2138.361987
-2664.111538
0.0001022972539
-0.04369657604
0.0004537669361
-0.06312719145
0.001154806138
-0.08304510452
0.002439166347
-0.1074072838
0.003943959388
-0.1380453006
0.003447688959
-0.1702605226
0.001806204799
-0.2031982157
-0.0001347574931
-0.2418868073
-0.002429435277
-0.2879161234
-0.005178596297
-0.3427871507
-0.008463155183
-0.4080689926
-0.01240081223
-0.4857929078
-0.01712073117
-0.5782957012
-0.0227916289
-0.688377989
-0.02961685513
-0.8193629128
-0.03785546867
-0.9751745483
-0.0478358217
-1.160465285
-0.05998319519
-1.380710834
-0.0748545596
-1.642356228
-0.09318788468
-1.952944077
-0.1159678672
-2.321269777
-0.1445089806
-2.757536321
-0.180550716
-3.273536831
-0.2263459577
-3.882887378
-0.2847026006
-4.601382917
-0.3589139757
-5.447590442
-0.4525344516
-6.443799859
-0.5690527744
-7.617337391
-0.7116343438
-9.002057293
-0.8831106053
-10.63974798
-1.086260532
-12.58134148
-1.32427132
-14.8880763
-1.60121351
-17.63291978
-1.922421486
-20.90253596
-2.294759068
-24.79997675
-2.726807531
-29.44818472
-3.229025345
-34.99437279
-3.813914516
-41.6153728
-4.496202059
-49.52411203
-5.293025641
-58.97746212
-6.224091702
-70.28583131
-7.311764414
-83.82500865
-8.581024606
-100.0509601
-10.05921186
-119.5184982
-11.77542553
-142.9050335
-13.75940017
-171.0410221
-16.03957367
-204.9492414
-18.63994717
-245.8958209
-21.57515294
-295.4570083
-24.84286749
-355.6071659
-28.41236227
-428.8355703
-32.20742319
-518.3025333
-36.08112971
-628.0494498
-39.77889214
-763.2831502
-42.88463119
-930.7630672
-44.74274153
-1139.331097
-44.34546625
-1400.6404
-40.17087472
-1730.165285
-29.94938246
-2148.583479
-2683.729306
0.0001511923611
-0.04384776831
0.0006306774057
-0.06360667636
0.001543601886
-0.08395802885
0.003151104854
-0.1090147866
0.004455444926
-0.1393496404
0.003707044456
-0.1695121217
0.002401235525
-0.2018924063
0.000834977366
-0.2403205485
-0.001026539928
-0.2860546054
-0.003260577609
-0.3405531121
-0.005934118744
-0.4053954504
-0.009147839606
-0.4825791858
-0.01301438452
-0.5744291551
-0.01768400034
-0.6837083719
-0.02334382883
-0.8137030829
-0.03023811567
-0.9682802599
-0.038685427
-1.152017972
-0.04910756635
-1.370288693
-0.06206859002
-1.629395203
-0.07832850714
-1.936684158
-0.09891373916
-2.300684544
-0.1252001737
-2.731249884
-0.1589966408
-3.239740362
-0.2025980182
-3.839285998
-0.258754604
-4.545226328
-0.3305034996
-5.375841543
-0.4208745105
-6.353428845
-0.5325961961
-7.505615702
-0.667982976
-8.866670509
-0.8291006419
-10.47863031
-1.018151243
-12.39229088
-1.237925294
-14.66830224
-1.49218868
-17.37865639
-1.785953653
-20.60877098
-2.125654359
-24.46027604
-2.519275357
-29.05456372
-2.976477974
-34.53717017
-3.50874721
-41.08310356
-4.12956325
-48.90329599
-4.854580158
-58.25244521
-5.701787272
-69.4386242
-6.691607699
-82.83518823
-7.846884064
-98.89568377
-9.192673439
-118.1727088
-10.75574117
-141.3419658
-12.56358336
-169.2331799
-14.6427402
-202.8700846
-17.01603734
-243.5225238
-19.6982304
-292.7748152
-22.68930369
-352.6160926
-25.96432893
-425.5605451
-29.4583242
-514.808538
-33.04388326
-624.4638908
-36.49834415
-759.8286893
-39.45596712
-927.8054443
-41.33858783
-1137.448476
-41.25545376
-1400.723534
-37.85914899
-1733.56159
-29.13774948
-2157.304879
-2700.74768
0.0001973177548
-0.04404508599
0.0008166604249
-0.06422601889
0.001952397829
-0.08509376612
0.003765555922
-0.1108279445
0.004490468346
-0.1400745526
0.00379060722
-0.1688122602
0.002764744839
-0.2008665434
0.001551337754
-0.2391071408
0.0001041439868
-0.284607411
-0.001643592291
-0.3388053751
-0.003750279876
-0.403288762
-0.006305275036
-0.4800241897
-0.009412132348
-0.5713222967
-0.01321081574
-0.6799096874
-0.01788061477
-0.8090332826
-0.02365921547
-0.962501658
-0.03086383016
-1.144813356
-0.03992335119
-1.361229171
-0.05142365975
-1.617894893
-0.06616632693
-1.921941489
-0.08524044778
-2.281610421
-0.1100976613
-2.706392668
-0.1426096406
-3.20722838
-0.185064717
-3.796830919
-0.2400501988
-4.490240844
-0.3102043853
-5.305687355
-0.3979191862
-6.265714042
-0.5051545807
-7.398380305
-0.6334959023
-8.738329186
-0.7844499844
-10.32767622
-0.959858429
-12.21688243
-1.162284877
-14.46587579
-1.395298374
-17.14564289
-1.663649775
-20.34041958
-1.973382405
-24.1505434
-2.331924582
-28.69602154
-2.748197121
-34.12089763
-3.232750906
-40.59854977
-3.797931479
-48.33811542
-4.458054164
-57.59232252
-5.229565782
-68.66711258
-6.131153158
-81.93360085
-7.183755647
-97.84308128
-8.410407368
-116.9460571
-9.835815473
-139.9165577
-11.4855274
-167.583468
-13.38447081
-200.9711412
-15.55454668
-241.3524479
-18.01082002
-290.3185419
-20.75563362
-349.871279
-23.76968551
-422.5464932
-26.99869043
-511.5795331
-30.33362178
-621.1289594
-33.58174538
-756.5805657
-36.42433537
-924.9628543
-38.3553248
-1135.517487
-38.59270455
-1400.486154
-35.9509898
-1736.203305
-28.65710491
-2164.598763
-2715.315986
0.0002451131511
-0.04429019907
0.001018173496
-0.06499907923
0.002409985608
-0.08648557821
0.004275339006
-0.1126932979
0.004641557348
-0.1404407709
0.004064149898
-0.1682348527
0.003293059869
-0.2000954533
0.002376554285
-0.2381906351
0.001270829823
-0.2835016864
-8.026447069e-05
-0.3374542807
-0.001728830978
-0.4016401953
-0.003756153839
-0.4779968666
-0.006258152497
-0.5688202978
-0.009366458962
-0.6768013806
-0.01325558767
-0.8051441536
-0.01816322189
-0.9575940234
-0.02441702288
-1.138559555
-0.0324710835
-1.35317511
-0.04295528215
-1.607410693
-0.05673450077
-1.90816227
-0.0749750807
-2.26336984
-0.09920182166
-2.682165926
-0.1313129631
-3.175117235
-0.1735038939
-3.754639985
-0.228069496
-4.435675239
-0.2971269181
-5.23662993
-0.3823888344
-6.180452125
-0.4851287767
-7.295640361
-0.6063837256
-8.617074234
-0.7473123844
-10.18674756
-0.9095719797
-12.05462283
-1.095613752
-14.27983402
-1.308869774
-16.93238687
-1.55385873
-20.09543062
-1.836255945
-23.86814619
-2.162966663
-28.36931082
-2.542225618
-33.74163867
-2.983729348
-40.15704604
-3.498796238
-47.82304852
-4.100540253
-56.9905785
-4.804030077
-67.96362275
-5.626411527
-81.1112194
-6.58693894
-96.88255386
-7.706866855
-115.8261291
-9.009109218
-138.6143153
-10.51753933
-166.0750379
-12.25574352
-199.232937
-14.24494731
-239.3632441
-16.50071159
-288.0627776
-19.02780863
-347.344182
-21.81243374
-419.7618681
-24.81053107
-508.5814358
-27.93048954
-618.0090009
-31.0077234
-753.5033318
-33.76751613
-922.2030616
-35.77113514
-1133.513867
-36.33785873
-1399.91943
-34.43280402
-1738.10836
-28.50473088
-2170.526837
-2727.564963
0.0002959429
-0.0445861419
0.00122236193
-0.06592549819
0.002844703001
-0.08810791919
0.004582305651
-0.1144309004
0.00474046261
-0.1405989277
0.004270791913
-0.1677651818
0.003698005597
-0.1995226667
0.003009999164
-0.2375026284
0.002173150814
-0.2826648377
0.001138640846
-0.3364197703
-0.0001392925516
-0.4003622615
-0.001734500341
-0.4764016584
-0.003740446346
-0.5668143514
-0.006287363231
-0.6742544633
-0.009556389269
-0.8018751271
-0.01380095164
-0.9533494606
-0.01937732511
-1.132983181
-0.02678283067
-1.345769604
-0.03670635027
-1.597487173
-0.05008554837
-1.894783071
-0.06816201998
-2.245293366
-0.09250676329
-2.65782118
-0.1249753984
-3.142648597
-0.1675573432
-3.712058038
-0.222132922
-4.381099659
-0.2902331614
-5.16852969
-0.3729359708
-6.097749314
-0.4709784244
-7.197597906
-0.5850479904
-8.503004667
-0.7161350948
-10.05566045
-0.8658354287
-11.9049225
-1.036551685
-14.10911776
-1.231604321
-16.73733423
-1.455290881
-19.87174406
-1.712934667
-23.6105024
-2.01095048
-28.071295
-2.356941012
-33.39564814
-2.759827443
-39.75415961
-3.230006176
-47.35286979
-3.779518483
-56.44106619
-4.422213471
-67.32092776
-5.173876928
-80.35955594
-6.052286289
-96.0041445
-7.077149296
-114.8012661
-8.269834717
-137.4216299
-9.652805263
-164.6920673
-11.24856864
-197.6371736
-13.07791925
-237.5338935
-15.15710466
-285.9835922
-17.49341722
-345.0078694
-20.07846013
-417.1768252
-22.87802694
-505.781869
-25.81707882
-615.0699491
-28.75759246
-750.5628182
-31.46623844
-919.4944156
-33.5673194
-1131.412787
-34.47472369
-1399.012026
-33.29397313
-1739.28911
-28.68029796
-2175.140512
-2737.607862
0.000377360081
-0.04496350203
0.001487953302
-0.06703609155
0.003258377896
-0.08987834393
0.004572539714
-0.1157450624
0.004529993391
-0.1405563816
0.004205325989
-0.1674405147
0.003826487171
-0.1991438283
0.003358930558
-0.2370350722
0.002777223971
-0.2820831316
0.002036665021
-0.3356792119
0.001091519571
-0.3994171166
-0.0001309454803
-0.475179194
-0.001729580562
-0.5652157168
-0.003845023289
-0.6721390211
-0.006675157999
-0.7990449927
-0.01049927944
-0.9495253396
-0.01571108384
-1.127771376
-0.0228593808
-1.338621307
-0.03269967841
-1.587646874
-0.04624421088
-1.881238537
-0.06479252925
-2.226745046
-0.08990810187
-2.632705605
-0.1233076935
-3.109249003
-0.1666592238
-3.668706505
-0.2213492336
-4.326409648
-0.2883345922
-5.101544331
-0.3681753582
-6.017908548
-0.4612528379
-7.104520425
-0.568084241
-8.396173262
-0.6896227829
-9.934121908
-0.8274738142
-11.76707146
-0.9840171485
-13.95257442
-1.162465949
-16.55888543
-1.366900501
-19.66730951
-1.602307904
-23.375095
-1.874646691
-27.79895622
-2.190943944
-33.07935088
-2.559423787
-39.38567976
-2.989661894
-46.92263168
-3.492752147
-55.93797594
-4.081473344
-66.73220656
-4.770423294
-79.67060599
-5.576102123
-95.19846567
-6.516885802
-113.8604825
-7.612840756
-136.325675
-8.88526969
-163.4196384
-10.35585831
-196.166585
-12.04520853
-235.8445433
-13.97045431
-284.0583464
-16.14151715
-342.8368066
-18.55536032
-414.762982
-21.18732383
-503.1499055
-23.97819978
-612.2790731
-26.81519035
-747.7258276
-29.50397616
-916.8056298
-31.72810932
-1129.188653
-32.9901108
-1397.750024
-32.52672789
-1739.752493
-29.18587678
-2178.481363
-2745.541475
0.0004863209158
-0.04544982293
0.00177913426
-0.06832890488
0.00357712523
-0.09167633488
0.004443744418
-0.1166116816
0.004414465402
-0.1405271025
0.00422451609
-0.1672505653
0.00400702238
-0.1989263345
0.003718333726
-0.2367463835
0.003336634806
-0.2817014327
0.002817574243
-0.3351601513
0.002111458781
-0.3987110012
0.001140447191
-0.4742081824
-0.000203117619
-0.563872152
-0.002073809339
-0.6702683295
-0.004692394062
-0.796426408
-0.008370176362
-0.9458475574
-0.01354799532
-1.122593557
-0.02083811415
-1.331331188
-0.03106978923
-1.577415198
-0.04531919664
-1.866989129
-0.06490064128
-2.207163599
-0.09128826409
-2.60631798
-0.1259549747
-3.074582291
-0.1701620039
-3.624499475
-0.2247886674
-4.271782984
-0.2903019164
-5.036031082
-0.3669014697
-5.941308994
-0.4547860927
-7.016635801
-0.5544401143
-8.296519239
-0.6668594133
-9.821702608
-0.793688644
-11.64024223
-0.9372869369
-13.80897613
-1.100755507
-16.39541686
-1.287960376
-19.48010464
-1.503571546
-23.15948382
-1.75312953
-27.54939823
-2.043143382
-32.78933703
-2.381218363
-39.04760478
-2.776207883
-46.52764216
-3.238379964
-55.47580385
-3.779582845
-66.19100368
-4.413393708
-79.03679512
-5.155219906
-94.45663947
-6.022319166
-112.9933832
-7.033681439
-135.3143127
-8.209694797
-162.243625
-9.571472416
-194.8048073
-11.13966382
-234.2763519
-12.93249268
-282.2655175
-14.96263915
-340.8066601
-17.23242042
-412.4932008
-19.72647728
-500.6558486
-22.40084565
-609.6047047
-25.16675023
-744.959923
-27.86684885
-914.1055311
-30.24054539
-1126.814957
-31.87368667
-1396.116883
-32.12605495
-1739.500125
-30.02583594
-2180.581582
-2751.447023
0.000644754857
-0.0460945779
0.002075145477
-0.06975929562
0.003788806265
-0.09338999581
0.004469895986
-0.1172927715
0.004448579979
-0.1405057868
0.00435311767
-0.1671551033
0.004240569156
-0.1988137863
0.004064881274
-0.236570696
0.003804504736
-0.2814410565
0.003413880829
-0.3347695278
0.002837821197
-0.3981349419
0.001991361565
-0.4733617232
0.0007534638999
-0.5626342547
-0.001049850743
-0.6684650152
-0.003670398138
-0.7938058607
-0.007465933822
-0.9420520219
-0.01293830328
-1.117121187
-0.02077021968
-1.323499271
-0.03185426829
-1.566331148
-0.04729263938
-1.851550756
-0.06834474893
-2.186111487
-0.09630337951
-2.578359346
-0.1323136755
-3.038571993
-0.1771992146
-3.579613935
-0.231386459
-4.217595739
-0.2949835529
-4.972433988
-0.3679917703
-5.868300776
-0.4505673666
-6.934060204
-0.5432502181
-8.203836387
-0.6471154625
-9.717837362
-0.7638502779
-11.52350742
-0.8957832757
-13.67704313
-1.045897897
-16.24530223
-1.217853039
-19.3081495
-1.416025186
-22.96131168
-1.645578321
-27.31984509
-1.912562839
-32.52235251
-2.224042857
-38.73612476
-2.588245689
-46.16343933
-3.014728551
-55.04932099
-3.514546189
-65.69118604
-4.100412391
-78.45092892
-4.786822265
-93.7702296
-5.590115311
-112.1900901
-6.528427565
-134.3760004
-7.621468777
-161.1505838
-8.890024771
-193.5362513
-10.35503353
-232.8113431
-12.03602159
-280.5845294
-13.94857636
-338.8941054
-16.10040013
-410.341377
-18.48527171
-498.270977
-21.07396229
-607.0160141
-23.8007285
-742.2331568
-26.5434031
-911.3628565
-29.09429314
-1124.264067
-31.11784768
-1394.093329
-32.08957161
-1738.528401
-31.20687698
-2181.464276
-2755.390936
0.0008695890402
-0.04696416693
0.002374631117
-0.0712643377
0.003927500435
-0.09494286512
0.004350184808
-0.1177154558
0.004346621958
-0.1405022239
0.004309420354
-0.1671179017
0.004256292607
-0.1987606586
0.004143352107
-0.2364577555
0.003946493105
-0.2812441975
0.003616475527
-0.3344395103
0.003089136652
-0.3976076031
0.002266511489
-0.4725390981
0.001005815677
-0.5613735589
-0.0008982993801
-0.6665609003
-0.003741714696
-0.7909624453
-0.007938628838
-0.9378551079
-0.0140537903
-1.111006025
-0.02282729338
-1.314725768
-0.03518146192
-1.553976978
-0.05218729436
-1.834544921
-0.07497238794
-2.163326391
-0.1045709741
-2.548760758
-0.1417591155
-3.001383851
-0.1869516851
-3.534421366
-0.2402260563
-4.164321368
-0.3014774751
-4.911182569
-0.3706471117
-5.79913114
-0.447944458
-6.856762857
-0.5340097292
-8.117771115
-0.6300039512
-9.621843138
-0.7376455016
-11.41586586
-0.8592206029
-13.55546803
-0.9975924975
-16.10693034
-1.156225253
-19.14951674
-1.339230242
-22.77830669
-1.55143927
-27.10763607
-1.798504875
-32.27528691
-2.087026432
-38.4476032
-2.42469943
-45.82576633
-2.820480614
-54.65353981
-3.284764684
-65.22690197
-3.829551404
-77.9061422
-4.468596889
-93.13118411
-5.217517967
-111.4411691
-6.093811053
-133.4997073
-7.116740906