/*--------------------------------*- C++ -*----------------------------------*\
  =========                 |
  \\      /  F ield         | OpenFOAM: The Open Source CFD Toolbox
   \\    /   O peration     | Website:  https://openfoam.org
    \\  /    A nd           | Version:  12
     \\/     M anipulation  |
\*---------------------------------------------------------------------------*/
FoamFile
{
    format      ascii;
    class       volScalarField;
    location    "1300";
    object      rho;
}
// * * * * * * * * * * * * * * * * * * * * * * * * * * * * * * * * * * * * * //

dimensions      [1 -3 0 0 0 0 0];

internalField   nonuniform List<scalar> 
16200
(
0.938722634
0.9387468359
0.9392839164
0.9405403089
0.943046237
0.948157598
0.9590130741
0.9792953136
0.991675808
0.9933076613
0.9937484255
0.9943751568
0.9950973839
0.995991793
0.9970527704
0.998333408
0.9998560681
1.001672665
1.003826183
1.006376253
1.009383637
1.012919832
1.017060587
1.021887399
1.027482245
1.033922353
1.041269637
1.049555777
1.058761594
1.068792337
1.079454936
1.090451776
1.101406742
1.111923626
1.121654858
1.130351844
1.137882301
1.144219341
1.149416405
1.153579913
1.156845338
1.15935817
1.16125987
1.162678662
1.163724703
1.164488531
1.165042101
1.165440976
1.165727147
1.165931804
1.166077815
1.166181789
1.166255658
1.166307988
1.166344755
1.166370527
1.166387848
1.166401089
1.166403919
1.166410625
0.928415688
0.9285821117
0.9293153572
0.9308897306
0.9339897419
0.940423065
0.9540323234
0.9746263702
0.9826420293
0.9836691547
0.9841919263
0.9848961148
0.985715554
0.9867258443
0.9879215914
0.9893607678
0.9910689465
0.9931032388
0.99551224
0.9983624969
1.001722897
1.005674075
1.01030183
1.015697718
1.021952567
1.02914862
1.037345224
1.046558697
1.05673538
1.067721768
1.079245011
1.09092515
1.102329749
1.113053463
1.12278665
1.131346881
1.13867225
1.144792916
1.149798673
1.153812537
1.156972054
1.159416553
1.161278232
1.162676257
1.163713428
1.164475055
1.165029694
1.165430915
1.16571964
1.165926571
1.166074405
1.166179742
1.166254587
1.166307573
1.166344807
1.166370776
1.166388228
1.166401407
1.166403932
1.166410106
0.9198791775
0.9202286689
0.9212179381
0.9231762168
0.9269794567
0.9349911452
0.9520428883
0.9701590406
0.9750307442
0.9756994735
0.9762906616
0.9770783139
0.9779920796
0.9791162991
0.9804475569
0.9820493953
0.9839523887
0.9862201311
0.9889085085
0.9920920885
0.995848778
1.000268621
1.005447187
1.011484782
1.018478008
1.026508212
1.035622286
1.04580599
1.056950238
1.068820315
1.081050584
1.0931862
1.104766529
1.115413699
1.124886484
1.13308553
1.140023543
1.14578425
1.150487475
1.154266499
1.157255681
1.159583943
1.16137074
1.162723217
1.163734338
1.16448213
1.165030142
1.165428722
1.165716841
1.165924079
1.166072541
1.166178532
1.16625394
1.166307355
1.16634492
1.16637106
1.166388631
1.166401804
1.166404214
1.166410697
0.9131572171
0.9137105834
0.9150034197
0.9174458686
0.9221630201
0.9320644945
0.9523059049
0.9661913735
0.9688461208
0.9694791755
0.9701593049
0.9710460509
0.9720765612
0.9733410417
0.9748389538
0.9766392474
0.978777831
0.9813245862
0.9843428693
0.9879155205
0.992130174
0.9970870453
1.002891687
1.009651707
1.017465172
1.026404175
1.036489278
1.047655053
1.059711942
1.072324367
1.085033285
1.097333007
1.108774111
1.119043995
1.127993874
1.135615622
1.1419937
1.1472578
1.151549879
1.155007258
1.157756744
1.159913815
1.16158284
1.162856917
1.163817307
1.164533062
1.165061242
1.165447738
1.165728573
1.165931447
1.166077293
1.166181705
1.166256148
1.166308964
1.166346157
1.166372028
1.166389393
1.166402376
1.166404491
1.166410899
0.908552042
0.9093231572
0.9109477959
0.9139560331
0.919864246
0.9323599444
0.9539695733
0.9631040868
0.9646186868
0.9653206133
0.9661019069
0.967103918
0.9682686396
0.9696917416
0.9713764173
0.9733971303
0.9757963609
0.978651447
0.9820350385
0.9860398118
0.9907641473
0.9963180299
1.002814603
1.010363769
1.019056636
1.028942844
1.03999707
1.052077724
1.064892332
1.077998874
1.09086616
1.102980285
1.11394894
1.123556982
1.131760419
1.138638819
1.144336818
1.149017106
1.152833081
1.155918744
1.158388903
1.160343089
1.161869129
1.163045051
1.16393955
1.164611884
1.165111859
1.165480225
1.165749484
1.165944988
1.166086141
1.166187555
1.166260076
1.166311651
1.166348049
1.166373387
1.166390373
1.166403076
1.166404873
1.166411292
0.9061338999
0.9071270467
0.9090987131
0.9127278541
0.9200615706
0.9360474944
0.9559007197
0.961592884
0.9624423949
0.963286223
0.964159697
0.9652795756
0.9665850566
0.9681773184
0.9700651543
0.9723294169
0.9750205959
0.978224017
0.9820217396
0.9865153314
0.9918120991
0.9980289332
1.005282255
1.013677317
1.023286869
1.03412045
1.046083018
1.058932617
1.072262529
1.085539033
1.098199549
1.109772457
1.119962565
1.128670948
1.135957472
1.14197689
1.146918114
1.150962755
1.154265445
1.156950579
1.159117653
1.1608488
1.162214782
1.163278364
1.164095497
1.16471538
1.165180231
1.165525286
1.165779168
1.165964563
1.166099078
1.166196132
1.166265788
1.166315482
1.166350648
1.166375174
1.166391595
1.166403908
1.166405319
1.166411692
0.9056435419
0.9068799586
0.9092416285
0.913630478
0.9227383892
0.9423599651
0.958506973
0.9619269407
0.962243229
0.9631241954
0.9641188673
0.9653858337
0.9668659296
0.9686652374
0.9707987273
0.9733530261
0.9763865302
0.9799919182
0.9842602307
0.9893013342
0.9952305281
1.00216926
1.010231805
1.019508486
1.030037279
1.041765156
1.054502712
1.067891638
1.081418181
1.094492934
1.106574689
1.117281713
1.126442511
1.134077769
1.140338973
1.145437774
1.149589901
1.152982467
1.155762573
1.158040133
1.159897202
1.161398005
1.16259649
1.163540624
1.164274007
1.164836007
1.165261308
1.165579579
1.165815435
1.16598875
1.166115192
1.166206858
1.166272927
1.166320238
1.166353831
1.166377318
1.166393027
1.166404861
1.166405843
1.166412171
0.9070068568
0.9085148386
0.9113255749
0.9167215586
0.9283160561
0.9501656712
0.9614212026
0.9630673226
0.9638234593
0.9648443344
0.9659848086
0.9674173747
0.9690933262
0.9711231697
0.9735291648
0.976403949
0.9798147758
0.9838622735
0.9886469442
0.994286395
1.000901341
1.008611846
1.01751962
1.027684662
1.039089756
1.051595743
1.064899737
1.078526445
1.091883431
1.104377028
1.115540893
1.125118276
1.133070895
1.139528697
1.144715129
1.148878454
1.152244877
1.15499585
1.157264388
1.159142795
1.160694771
1.161966951
1.162997317
1.16381996
1.164466902
1.164968221
1.165351393
1.165640671
1.16585671
1.166016547
1.166133856
1.166219353
1.166281266
1.16632579
1.166357527
1.166379784
1.166394655
1.166405929
1.166406435
1.166412709
0.9100737182
0.9118549457
0.9151876025
0.9218486425
0.936885433
0.9583535936
0.9659163941
0.9663628762
0.9671463857
0.9682914532
0.9695814036
0.9711928257
0.9730826565
0.9753656166
0.9780724575
0.9813021098
0.9851312284
0.9896681009
0.9950213919
1.001313208
1.008663708
1.017182294
1.026945084
1.03796453
1.050146947
1.063246352
1.076838567
1.09035029
1.103157142
1.114718238
1.124685877
1.132945773
1.139586268
1.144826573
1.148939255
1.152189848
1.154801349
1.156941198
1.158724039
1.160223017
1.161483573
1.162535695
1.163402636
1.164105819
1.164666697
1.1651068
1.1654469
1.165706143
1.165901384
1.166046901
1.166154394
1.166233188
1.166290544
1.166331983
1.16636165
1.166382524
1.166396457
1.166407105
1.166407097
1.166413316
0.9145997577
0.9166841987
0.9206598294
0.9288546809
0.9477773631
0.9661442203
0.9699892561
0.970965239
0.9719141227
0.9732106747
0.9746786182
0.976497862
0.9786341533
0.9812061691
0.9842540428
0.9878830247
0.9921790013
0.997256493
1.003229417
1.010219517
1.018339126
1.027676738
1.038268587
1.050060445
1.062860666
1.076302664
1.089850145
1.102871119
1.114766886
1.125100913
1.13367095
1.14050445
1.145797528
1.149833792
1.152912505
1.155300033
1.157205858
1.158777904
1.160110205
1.161256503
1.162244829
1.163089876
1.163801635
1.164390207
1.16486759
1.165247611
1.165544939
1.165774004
1.165948113
1.166078921
1.166176227
1.166247998
1.166300534
1.166338684
1.166366124
1.166385499
1.166398416
1.166408382
1.166407824
1.166413994
0.92044633
0.9228809508
0.9277267627
0.938108426
0.9600872589
0.9745562433
0.976066899
0.9769637481
0.978053221
0.9795097266
0.9811703251
0.983216513
0.9856241792
0.9885158204
0.9919411053
0.9960103744
1.000816902
1.006478615
1.013110826
1.020829485
1.0297309
1.039870359
1.051226533
1.063656717
1.076853112
1.090328781
1.103465658
1.115628167
1.126300763
1.135187986
1.142240225
1.147610884
1.151577912
1.154463885
1.156575228
1.158166519
1.1594268
1.16048148
1.161403371
1.162227514
1.162965882
1.163619444
1.164186478
1.164667142
1.16506511
1.165387384
1.165643162
1.165842606
1.165995759
1.166111836
1.166198844
1.166263452
1.16631103
1.166345767
1.166370877
1.16638867
1.166400514
1.166409751
1.166408617
1.166414746
0.9274056238
0.9302355807
0.9361651381
0.949673852
0.9725273546
0.9816891152
0.9830061856
0.9840760342
0.9853360176
0.9869816728
0.9888683922
0.9911775692
0.9938952635
0.9971464089
1.000989563
1.00553922
1.010895254
1.017177552
1.024499422
1.032964318
1.042641143
1.053535223
1.065546122
1.078421943
1.091731807
1.104889383
1.117244718
1.128219299
1.137426783
1.144729439
1.150219693
1.154151314
1.156856085
1.1586727
1.159899383
1.160770233
1.161449916
1.162040311
1.162593572
1.163127372
1.163639243
1.164118081
1.164551982
1.164932491
1.165256055
1.165523698
1.165739788
1.165910664
1.166043415
1.166145022
1.166221824
1.166279272
1.166321853
1.166353122
1.166375845
1.166392004
1.166402734
1.166411207
1.166409473
1.166415574
0.9353551859
0.9386989156
0.9459869355
0.963251579
0.9840092084
0.9901213696
0.991028168
0.992286903
0.9937279802
0.995578577
0.9977084765
1.000298807
1.003347077
1.006981249
1.011269993
1.016332305
1.022273301
1.029210707
1.037248049
1.046464645
1.056885913
1.068446737
1.080946063
1.094010869
1.10709942
1.119568625
1.13079729
1.14031763
1.147899292
1.153558856
1.157507349
1.160069201
1.161603898
1.16244777
1.162879949
1.163108883
1.163273306
1.163451979
1.163677742
1.163952575
1.164261286
1.164582319
1.164895034
1.165183602
1.165438257
1.165654846
1.165833511
1.165977206
1.166090379
1.16617798
1.166244823
1.166295226
1.166332853
1.166360655
1.166380973
1.166395468
1.166405062
1.166412742
1.16641039
1.166416483
0.9441677753
0.9482365672
0.9574447465
0.9782117665
0.9960876331
0.9990804956
0.9999636453
1.001415573
1.00304376
1.00511284
1.007504535
1.01040122
1.013813029
1.017870726
1.022651678
1.028275967
1.034848315
1.042476664
1.051244692
1.061194161
1.072288837
1.084372172
1.09712723
1.110064562
1.122565966
1.13398919
1.143800407
1.151679091
1.157556166
1.161583197
1.164059693
1.16535171
1.165824613
1.165798848
1.16552767
1.165191543
1.164903444
1.164720373
1.164657628
1.164703313
1.16483121
1.165010828
1.165214114
1.165418984
1.165610382
1.165779707
1.16592343
1.166041538
1.166136128
1.166210329
1.166267569
1.16631113
1.166343904
1.166368287
1.16638621
1.166399035
1.166407483
1.16641435
1.166411366
1.166417475
0.9535996594
0.9586351828
0.9704860122
0.9932946694
1.006234391
1.008624478
1.009616046
1.011277944
1.013128682
1.015458572
1.018159539
1.02141453
1.025244579
1.029780844
1.035106181
1.041337976
1.04857572
1.056910774
1.066395834
1.077018297
1.088659271
1.101053218
1.113765992
1.126217801
1.137766174
1.147830176
1.156008119
1.162141502
1.166309192
1.168768814
1.169877174
1.170016811
1.169542476
1.16874992
1.167863106
1.167034278
1.166351977
1.165853339
1.165538079
1.165382232
1.165350148
1.165403784
1.165508856
1.165638019
1.16577174
1.165897622
1.166008971
1.166103186
1.16618029
1.166241787
1.166289857
1.166326834
1.166354906
1.166375949
1.166391515
1.166402681
1.166409985
1.166416023
1.166412396
1.166418551
0.9637444179
0.9701489477
0.9851040465
1.007473199
1.017034581
1.018864727
1.020075369
1.021972783
1.024077421
1.026701728
1.029747526
1.033397093
1.037681248
1.042730707
1.04863214
1.055497383
1.06341437
1.072446372
1.082597425
1.093779324
1.105772083
1.118196153
1.130519097
1.142116038
1.152379471
1.16084052
1.167253729
1.171616794
1.174130579
1.175126558
1.174990686
1.174102312
1.172794363
1.171333053
1.169912169
1.168656907
1.167633366
1.166860952
1.166325768
1.165993488
1.165820482
1.165762382
1.165779706
1.165840714
1.165922112
1.166008281
1.166089812
1.166161856
1.166222616
1.166272156
1.166311533
1.166342226
1.166365778
1.166383586
1.166396852
1.166406383
1.166412558
1.166417754
1.166413485
1.166419716
0.9746599686
0.9828562072
1.000937748
1.022201583
1.028285533
1.02994339
1.031392669
1.033533854
1.035911636
1.038851302
1.042265872
1.046337117
1.051105464
1.056700135
1.063207661
1.070726416
1.079319499
1.089004565
1.099717346
1.111277362
1.123357159
1.135476238
1.147041455
1.157438116
1.166147529
1.172845308
1.177444843
1.180078802
1.181038236
1.180697946
1.179450195
1.177657229
1.175623523
1.173583942
1.171702954
1.170080726
1.168763221
1.167754284
1.167028274
1.166542064
1.166245332
1.16608845
1.166027637
1.166027506
1.166061619
1.166111633
1.166165822
1.166217391
1.166262956
1.166301303
1.166332489
1.16635722
1.166376455
1.166391153
1.16640219
1.166410123
1.166415189
1.166419538
1.166414659
1.166420971
0.9865417995
0.9968232669
1.017425217
1.036532643
1.040144289
1.041807703
1.0435034
1.04590556
1.0485838
1.051870871
1.055691845
1.060226586
1.06552214
1.071700379
1.078838327
1.087008279
1.096233178
1.106469427
1.117570839
1.129258006
1.141103873
1.15255643
1.163010977
1.171917254
1.178884403
1.183743795
1.186552676
1.187548842
1.187081602
1.185543331
1.183315802
1.180735412
1.17807515
1.175538861
1.173263615
1.171326991
1.169757192
1.168544568
1.167653448
1.167033282
1.166628178
1.166384173
1.166253949
1.166199111
1.166190608
1.166207807
1.166237007
1.16626974
1.166301232
1.166329147
1.16635265
1.166371756
1.166386891
1.166398614
1.166407504
1.166413885
1.166417869
1.166421373
1.166415939
1.166422322
0.9997021004
1.011990569
1.034123342
1.049182476
1.052609979
1.054445505
1.056416465
1.059116051
1.062139884
1.065821189
1.070095665
1.075136494
1.080991512
1.087767043
1.095520585
1.104287419
1.11403874
1.124658645
1.135911298
1.147421086
1.158682691
1.169114589
1.178152813
1.185355169
1.19047807
1.193500884
1.194598424
1.194081475
1.19232947
1.189732669
1.186651236
1.183391159
1.180193487
1.177232725
1.174621038
1.172415977
1.170630271
1.169242672
1.168208995
1.167472476
1.166972614
1.166651895
1.166460113
1.166356411
1.166309575
1.166297055
1.166303473
1.166318922
1.166337421
1.166355647
1.166371972
1.16638579
1.166397047
1.16640594
1.166412771
1.166417652
1.16642059
1.166423259
1.166417343
1.166423769
1.014406459
1.028408554
1.050577194
1.063450926
1.065906269
1.068019545
1.070296619
1.073321747
1.07672123
1.080822299
1.085569164
1.091123007
1.09752738
1.104866334
1.113169678
1.122426507
1.132545267
1.143327964
1.154446934
1.165444701
1.175772679
1.184868761
1.192255877
1.197626358
1.200883802
1.202134148
1.201638776
1.199751733
1.196860206
1.1933387
1.189519397
1.185676393
1.182020046
1.178697955
1.175800083
1.173366444
1.171396395
1.16985878
1.168702224
1.167864783
1.167282169
1.166893977
1.166647665
1.16650037
1.166419099
1.166379704
1.166365389
1.166365012
1.166371544
1.166380793
1.166390431
1.166399294
1.166406897
1.166413106
1.166417973
1.166421413
1.166423342
1.166425197
1.166418832
1.166425315
1.030544994
1.046135321
1.067579731
1.078093557
1.080203441
1.082629995
1.085212033
1.08856747
1.092346401
1.096864384
1.102073036
1.108116755
1.115030344
1.122868737
1.1316245
1.141228739
1.151514937
1.16219769
1.172866938
1.183012634
1.192087868
1.199596736
1.205180954
1.208674626
1.210112944
1.209699864
1.207752991
1.204645023
1.200754727
1.196432456
1.191979639
1.187639084
1.183592702
1.179963946
1.176823247
1.174195395
1.172068253
1.170402231
1.169139903
1.168215024
1.167560207
1.167112716
1.166818134
1.166631976
1.166519799
1.166456126
1.166422966
1.166408119
1.166403647
1.166404597
1.166408018
1.166412251
1.166416421
1.166420096
1.166423094
1.166425155
1.166426119
1.166427186
1.166420387
1.166426956
1.047795092
1.064928042
1.085665303
1.09346555
1.095411714
1.0981537
1.101044609
1.104732543
1.108890808
1.113818253
1.119473857
1.125979603
1.133354595
1.14161423
1.150700352
1.16047341
1.170685474
1.18097083
1.190861984
1.199837021
1.207396326
1.213145506
1.216858743
1.218502518
1.21821863
1.216279201
1.21303184
1.208849361
1.204091568
1.199080372
1.194086192
1.189322436
1.18494529
1.181056862
1.177710552
1.174918001
1.172657223
1.170881459
1.169528197
1.168527633
1.167809862
1.167310284
1.166972991
1.166752203
1.166612301
1.166526711
1.166476435
1.166448372
1.166433795
1.166427084
1.166424738
1.166424654
1.166425607
1.166426894
1.166428121
1.166428867
1.166428911
1.166429222
1.166422024
1.166428686
1.066046076
1.08430464
1.102811185
1.109440667
1.111409985
1.114456585
1.117660353
1.121686616
1.126232263
1.131570389
1.137663973
1.144602513
1.152377183
1.16095102
1.170203226
1.17991872
1.189774395
1.199345814
1.208144055
1.215678106
1.22153223
1.225432206
1.227281325
1.227157851
1.225281901
1.221966731
1.217569419
1.212450207
1.206943958
1.201342813
1.195887538
1.190764701
1.186107618
1.181999717
1.178479629
1.175547665
1.173173403
1.171303993
1.169872652
1.168806639
1.168034013
1.1674887
1.167113624
1.166861986
1.16669722
1.166591851
1.166526039
1.166485913
1.166462065
1.166448291
1.166440603
1.166436502
1.166434446
1.166433488
1.166433043
1.16643254
1.166431715
1.166431304
1.166423716
1.166430504
1.085099877
1.104115842
1.120189691
1.125931902
1.12807867
1.131451271
1.135001923
1.139392976
1.144346752
1.15009735
1.156604695
1.163915478
1.171982039
1.1807078
1.189906138
1.199292431
1.208486267
1.217035238
1.224467516
1.230358925
1.234399615
1.236437612
1.236489546
1.234719707
1.231399581
1.226861548
1.221457469
1.215527263
1.209378269
1.203273502
1.197426334
1.191999317
1.187105673
1.182812573
1.179145877
1.176096134
1.173625688
1.171676506
1.170178218
1.169055662
1.168235269
1.167649815
1.167241321
1.166962205
1.166775141
1.166651927
1.166572017
1.166520887
1.166488541
1.166468262
1.166455631
1.166447796
1.166442932
1.166439871
1.166437849
1.166436165
1.166434524
1.166433426
1.166425395
1.166432419
1.104622368
1.123262799
1.138229036
1.143164587
1.145595649
1.149295321
1.153207901
1.157957859
1.163297318
1.16941086
1.176248291
1.18380799
1.191996751
1.200656429
1.209538165
1.218301646
1.226534306
1.233789492
1.239646441
1.243771684
1.24596789
1.246194468
1.244558925
1.241285618
1.236674569
1.2310609
1.224781737
1.218152713
1.211453397
1.20491949
1.198739653
1.193055239
1.187961933
1.183512805
1.179722667
1.176573648
1.174021868
1.172004876
1.170449282
1.169277938
1.168415983
1.16779531
1.167357266
1.167053675
1.166846618
1.166707303
1.166614605
1.166553442
1.166513309
1.166487043
1.166469844
1.166458544
1.166451064
1.166446035
1.166442529
1.166439733
1.166437334
1.166435565
1.166426985
1.166434446
1.125186619
1.143575533
1.156955565
1.161356656
1.16409832
1.168081232
1.172320784
1.177373565
1.183022904
1.18939943
1.196434269
1.204073299
1.212173478
1.220517377
1.228804093
1.236658498
1.243665158
1.249414655
1.253561821
1.255874079
1.256260419
1.254772956
1.251585932
1.246960854
1.241208638
1.234656006
1.227619947
1.220390532
1.213220782
1.206321507
1.199859436
1.193957364
1.188695732
1.184115386
1.180221563
1.176989096
1.174368741
1.172294257
1.170689715
1.169476341
1.168578257
1.167926702
1.167462535
1.167137146
1.166912162
1.166758324
1.166654026
1.166583717
1.166536454
1.166504682
1.166483265
1.166468754
1.166458841
1.166451975
1.166447077
1.166443239
1.166440138
1.166437689
1.166428569
1.166436578
1.146622547
1.165235381
1.176368961
1.180433053
1.183464775
1.187675611
1.192187761
1.197472595
1.203336254
1.209852641
1.216926486
1.224449049
1.232228196
1.2399964
1.247418278
1.254109588
1.259680691
1.263783652
1.266161572
1.26668071
1.26534167
1.262267639
1.257677338
1.251851065
1.245098117
1.237730003
1.23004118
1.222296653
1.214724934
1.207514587
1.200813077
1.194727039
1.189323674
1.184633208
1.180652552
1.177350193
1.17467223
1.172549167
1.17090293
1.169653416
1.168723968
1.168045354
1.167558102
1.167213303
1.166972246
1.166805309
1.166690492
1.166611848
1.166558059
1.166521228
1.166495921
1.166478437
1.166466264
1.166457685
1.166451485
1.166446675
1.166442927
1.166439774
1.166430264
1.166438777
1.168645801
1.187549034
1.196286955
1.200197255
1.203501051
1.207897873
1.212622291
1.218056714
1.224021455
1.230532122
1.237463375
1.244654795
1.251872155
1.258813264
1.265130278
1.270455553
1.274448309
1.276836183
1.277451876
1.276249658
1.273303067
1.26878545
1.262941528
1.256056868
1.248431047
1.240356813
1.232105749
1.223919332
1.216003979
1.208528629
1.201623933
1.19538248
1.189859958
1.185077335
1.181024242
1.177663615
1.174937488
1.172773554
1.171091923
1.169811415
1.168854784
1.168152485
1.167644845
1.167282768
1.167027304
1.166848554
1.1667242
1.166637964
1.166578206
1.166536729
1.166507836
1.166487604
1.166473335
1.166463163
1.166455747
1.166450038
1.166445691
1.166441812
1.166432076
1.166441017
1.19124573
1.209651231
1.21671767
1.220562738
1.224084777
1.228599279
1.233445527
1.238917156
1.244842202
1.25117775
1.257767302
1.264405906
1.270829322
1.276719823
1.281739474
1.285558507
1.287899427
1.288569272
1.287483013
1.284667392
1.280249863
1.274435938
1.267482246
1.259670452
1.251285763
1.242600927
1.233865594
1.225299796
1.21709035
1.209389027
1.202311854
1.1959392
1.190316714
1.185457253
1.181344045
1.177935135
1.175168992
1.172970865
1.171259325
1.169952323
1.168972186
1.168249184
1.167723555
1.167346103
1.16707773
1.166888331
1.166755334
1.166662186
1.16659697
1.16655123
1.166519037
1.166496267
1.166480058
1.166468407
1.166459858
1.166453321
1.16644842
1.166443799
1.166434023
1.166443288
1.214318554
1.23181891
1.237539706
1.241346196
1.245017355
1.249569504
1.254434688
1.259815043
1.265542565
1.27152004
1.277563901
1.283436796
1.288860311
1.293520753
1.297108885
1.299346814
1.300025722
1.29902768
1.296337513
1.29203769
1.286292603
1.279325735
1.271395675
1.262774543
1.253731021
1.244518118
1.235365211
1.226473174
1.21801162
1.210117371
1.202893739
1.196410447
1.19070434
1.185781127
1.181618367
1.178169769
1.175370649
1.173144123
1.171407454
1.170077898
1.16907749
1.168336426
1.167794939
1.16740382
1.167123887
1.166924891
1.166784065
1.166684628
1.166614426
1.166564777
1.166529549
1.166504439
1.166486436
1.166473413
1.166463813
1.166456522
1.166451101
1.166445737
1.16643611
1.166445553
1.237686238
1.253978625
1.258628328
1.262398944
1.266124439
1.270606973
1.275362965
1.280502632
1.285859969
1.29129207
1.296596203
1.301516617
1.305776347
1.309082082
1.311166058
1.311808533
1.310867349
1.308290121
1.304117265
1.298471455
1.291540205
1.283554595
1.274768713
1.26544211
1.255826487
1.246156273
1.236642564
1.227469341
1.218791217
1.210732024
1.203384004
1.196807554
1.191031765
1.186055999
1.18185276
1.178371881
1.175545873
1.17329598
1.171538352
1.170189696
1.169171868
1.16841508
1.167859638
1.16745638
1.167166101
1.166958464
1.166810551
1.166705395
1.166630641
1.166577414
1.166539397
1.166512132
1.166492475
1.166478182
1.16646761
1.166459635
1.166453722
1.166447629
1.166438339
1.166447792
1.261133189
1.275981883
1.279788837
1.283493903
1.28717453
1.291463102
1.295965649
1.300708614
1.305527181
1.31024239
1.314641559
1.318464181
1.3214481
1.323332137
1.323896522
1.322979499
1.320498673
1.316455463
1.310932124
1.304078503
1.296094813
1.287212683
1.277677919
1.267736321
1.257623211
1.247556065
1.237729766
1.228313537
1.219448954
1.211248553
1.203794906
1.197140204
1.191306654
1.186287943
1.182052032
1.178545267
1.175697648
1.173428765
1.171653819
1.170289096
1.169256364
1.168485927
1.167918227
1.167504201
1.167204672
1.166989261
1.166834938
1.166724586
1.166645682
1.16658918
1.166548606
1.166519361
1.166498179
1.166482713
1.166471246
1.166462657
1.166456268
1.166449479
1.166440706
1.166449981
1.284527406
1.29771755
1.300774634
1.304343694
1.307866955
1.311844163
1.315958006
1.320162495
1.324296046
1.328154195
1.331524046
1.334152703
1.335802862
1.33625216
1.335329859
1.332927495
1.32901308
1.323630023
1.316890513
1.30896144
1.300048365
1.290379073
1.280189232
1.269710925
1.2591643
1.248751697
1.238653794
1.229026985
1.220001533
1.211680135
1.204136875
1.197416677
1.191535596
1.186482209
1.182220363
1.178693245
1.175828592
1.17354453
1.171755451
1.170377323
1.16933191
1.168549667
1.167971222
1.167547661
1.167239875
1.167017476
1.166857361
1.166742294
1.166659611
1.166600117
1.1665572
1.166526137
1.166503553
1.166487006
1.166474721
1.166465582
1.166458725
1.166451297
1.166443207
1.166452078
1.307536604
1.318817444
1.321355467
1.324668494
1.327929047
1.331487778
1.335094705
1.338641134
1.341972891
1.344871372
1.347132277
1.348519892
1.348827611
1.347873852
1.345533885
1.341745374
1.33651691
1.329923355
1.322097315
1.313215347
1.303483537
1.293123388
1.282359879
1.271412127
1.260486608
1.249772345
1.239437659
1.229627826
1.220463283
1.212038122
1.204418939
1.197644179
1.191724356
1.186643412
1.182361441
1.178818753
1.175941035
1.173645107
1.171844677
1.170455482
1.169399348
1.168606935
1.1680191
1.16758711
1.167271962
1.167043291
1.166877949
1.166758608
1.166672486
1.166610262
1.166565203
1.166532476
1.166508605
1.166491062
1.166478035
1.166468405
1.166461081
1.166453097
1.166445832
1.166454035
1.32970217
1.339067183
1.341246014
1.344221523
1.347129209
1.350174073
1.353173373
1.355968036
1.358415244
1.360292259
1.361409464
1.361554138
1.360552222
1.35826127
1.354597201
1.349535886
1.343117469
1.335439613
1.326648211
1.316924448
1.306472032
1.295505108
1.284238251
1.272878752
1.261621001
1.250642422
1.240100643
1.23013131
1.220846302
1.212332155
1.204648813
1.197828906
1.191877923
1.18677557
1.182478499
1.178924381
1.176037038
1.173732128
1.171922775
1.170524564
1.169459439
1.168658309
1.168062292
1.167622868
1.167301167
1.167066874
1.166896821
1.166773611
1.166684365
1.166619654
1.16657264
1.166538391
1.16651334
1.166494885
1.166481189
1.166471118
1.166463328
1.166454896
1.166448542
1.166455822
1.350942041
1.358402865
1.360259693
1.362795144
1.365258705
1.367710708
1.370027718
1.372010478
1.373529188
1.374364663
1.374345184
1.373283498
1.37103698
1.367498539
1.362618528
1.356403526
1.348917632
1.340274662
1.330628757
1.320162521
1.309075776
1.297575139
1.285865552
1.2741438
1.262593737
1.251382766
1.240659283
1.230550592
1.221161095
1.212570658
1.204833283
1.19797634
1.192000733
1.186882271
1.182574432
1.179012456
1.176118462
1.173807067
1.171990904
1.170585471
1.169512879
1.168704318
1.168101197
1.167655232
1.167327708
1.167088384
1.166914091
1.166787384
1.166695304
1.166628331
1.166579535
1.166543896
1.166517766
1.166498478
1.166484184
1.166473713
1.166465461
1.166456707
1.16645127
1.166457505
1.370789465
1.376533597
1.378116019
1.380170124
1.382140221
1.383955273
1.385549466
1.386696246
1.387279967
1.387090718
1.385975454
1.383772403
1.380367589
1.375684663
1.369702392
1.362451606
1.354014372
1.344515807
1.334114934
1.32299391
1.311348086
1.29937694
1.28727679
1.275235255
1.263427097
1.252011102
1.241127708
1.230896974
1.221416748
1.21276097
1.2049783
1.198091323
1.192096727
1.18696672
1.182651839
1.179085076
1.176186989
1.173871262
1.172050119
1.170639027
1.169560303
1.168745449
1.168136184
1.167684478
1.167351791
1.16710797
1.166929867
1.166800002
1.166705355
1.166636329
1.166585912
1.166549008
1.166521892
1.166501847
1.166487021
1.166476183
1.166467481
1.166458535
1.166453964
1.166459109
1.389219657
1.393425779
1.394698198
1.396219825
1.397655537
1.398813689
1.399675964
1.399997409
1.399673817
1.398507511
1.396363274
1.393103492
1.388639452
1.382920935
1.375949848
1.367776053
1.358495108
1.348240066
1.337172737
1.325473907
1.313334482
1.300947495
1.288501746
1.276176971
1.264140153
1.252542695
1.241518171
1.231180337
1.221621264
1.212909606
1.205089186
1.198178209
1.19216947
1.187031829
1.18271309
1.179144158
1.176244159
1.173925943
1.172101393
1.170685995
1.169602305
1.168782156
1.168167599
1.167710866
1.167373607
1.167125775
1.166944251
1.166811541
1.166714573
1.166643684
1.166591796
1.166553742
1.166525727
1.166504997
1.166489702
1.166478523
1.166469394
1.166460377
1.166456562
1.166460659
1.405873906
1.408828428
1.409805847
1.410806079
1.411715099
1.412239058
1.412396059
1.411933265
1.410756264
1.408682103
1.405592188
1.401371147
1.39595209
1.38930674
1.381455766
1.372464036
1.362437373
1.351514542
1.339858942
1.327649685
1.315073615
1.302318165
1.289565706
1.27698928
1.264749257
1.252990726
1.241841343
1.231409361
1.221781743
1.213022395
1.205170741
1.198240955
1.192222219
1.187080276
1.182760373
1.179191481
1.176291409
1.17397226
1.172145639
1.170727093
1.169639444
1.168814872
1.168195771
1.167734645
1.167393346
1.167141937
1.166957347
1.166822074
1.166723008
1.166650433
1.166597212
1.166558113
1.166529282
1.166507936
1.166492228
1.166480727
1.166471206
1.166462219
1.166459031
1.166462169
1.420695197
1.422694708
1.423392515
1.423906868
1.424315104
1.424247509
1.42374595
1.422558589
1.420598659
1.417698933
1.413755583
1.408673097
1.40240316
1.394935804
1.386306988
1.376593574
1.365909425
1.354397624
1.342222581
1.329561823
1.316598712
1.303515956
1.290490537
1.277689871
1.26526874
1.253366849
1.242106744
1.231591863
1.22190463
1.21310467
1.205227386
1.198283226
1.192258008
1.187114557
1.182795737
1.179228715
1.176330089
1.174011296
1.172183719
1.170763002
1.169672253
1.168844011
1.168221018
1.167756057
1.167411187
1.167156592
1.166969254
1.166831675
1.166730715
1.166656615
1.166602188
1.166562141
1.166532568
1.166510672
1.166494603
1.166482795
1.16647292
1.166464042
1.166461349
1.166463703
1.433718544
1.435055076
1.435485807
1.435560373
1.435501996
1.434895103
1.433793447
1.431952069
1.429288892
1.42565209
1.42095042
1.415105663
1.408085183
1.399894287
1.390581524
1.380233562
1.3689708
1.35693983
1.34430589
1.331245236
1.317938407
1.304564245
1.291295288
1.278294282
1.265711316
1.253681507
1.242322993
1.231734991
1.221995875
1.213161395
1.205263264
1.198308474
1.192279702
1.187137044
1.182821128
1.179257446
1.176361484
1.174044084
1.172216456
1.170794372
1.169701241
1.168869968
1.168243644
1.167775335
1.167427307