/*--------------------------------*- C++ -*----------------------------------*\
  =========                 |
  \\      /  F ield         | OpenFOAM: The Open Source CFD Toolbox
   \\    /   O peration     | Website:  https://openfoam.org
    \\  /    A nd           | Version:  12
     \\/     M anipulation  |
\*---------------------------------------------------------------------------*/
FoamFile
{
    format      ascii;
    class       volVectorField;
    location    "1300";
    object      U;
}
// * * * * * * * * * * * * * * * * * * * * * * * * * * * * * * * * * * * * * //

dimensions      [0 1 -1 0 0 0 0];

internalField   nonuniform List<vector> 
16200
(
(184.1179895 -7.281704984e-17 -1.499481758)
(219.6086086 3.512947299e-17 -1.427406931)
(239.5933299 -2.438353605e-20 -1.603013247)
(255.3414897 0 -1.776829438)
(269.9530722 0 -1.967554457)
(285.1193632 -2.523892137e-17 -2.198150864)
(300.9540877 2.886859418e-17 -2.519833987)
(313.5618097 6.224055293e-17 -2.900887738)
(317.2781924 -1.210736825e-16 -3.027648507)
(317.268966 1.083536133e-16 -3.002283537)
(316.9554553 -4.610643285e-17 -3.056311386)
(316.6578837 0 -3.03215968)
(316.2905889 0 -3.09188661)
(315.8860801 -5.356850404e-17 -3.091037574)
(315.4097526 4.470692589e-17 -3.146179538)
(314.8639474 0 -3.174109392)
(314.2269101 0 -3.234138048)
(313.487244 8.180834579e-19 -3.290878197)
(312.6246062 4.434423232e-17 -3.369012428)
(311.6194727 -3.600738749e-17 -3.457503189)
(310.4480227 0 -3.565743497)
(309.0843945 -2.486686165e-17 -3.691785563)
(307.499892 2.225124876e-17 -3.838748896)
(305.6638959 3.787248502e-17 -4.005649948)
(303.5449396 -3.181490376e-17 -4.190570129)
(301.1128814 -2.721179385e-17 -4.387449152)
(298.3425636 2.287922366e-17 -4.58525561)
(295.2193657 0 -4.766090333)
(291.746933 0 -4.904456749)
(287.9565142 5.725630807e-17 -4.968214653)
(283.9155821 -3.608471427e-17 -4.923042028)
(279.7307318 -1.038857536e-17 -4.741312483)
(275.5394775 0 -4.413206928)
(271.4903917 -4.585409175e-17 -3.954300306)
(267.7183662 5.147723122e-17 -3.404294532)
(264.3248315 -8.87216623e-17 -2.816742295)
(261.3689094 7.480172562e-17 -2.244889528)
(258.8690408 0 -1.729983275)
(256.8108427 0 -1.295737556)
(255.1570489 0 -0.9489862774)
(253.8570306 7.749203842e-17 -0.6841818242)
(252.8548247 -1.309672544e-16 -0.4889417213)
(252.0952019 1.102048191e-16 -0.3486982804)
(251.5276896 0 -0.2496974663)
(251.108735 1.567572123e-16 -0.1804432542)
(250.8024276 -1.318962224e-16 -0.1320747446)
(250.5801657 -4.994870253e-20 -0.09811338828)
(250.4198131 1.871073907e-16 -0.07400650706)
(250.3046086 -3.153087758e-16 -0.0566345572)
(250.2220801 2.655757558e-16 -0.04389135115)
(250.1630665 2.238922089e-16 -0.03436356354)
(250.1208943 3.777402147e-16 -0.02710119105)
(250.0907311 -3.188292502e-16 -0.02145893633)
(250.0690518 8.082205321e-16 -0.01699725654)
(250.0533245 -4.557862795e-16 -0.01341451893)
(250.0416009 0 -0.01050764079)
(250.0327607 1.638506832e-16 -0.008070303191)
(250.0256531 0 -0.006030071858)
(250.0197391 -4.753436276e-16 -0.003684621421)
(250.0131709 -3.971171349e-19 -0.00382195255)
(188.4239746 -1.536959224e-16 -4.164798855)
(225.0863364 1.502918954e-16 -4.428017178)
(245.6744115 -5.437572898e-17 -4.926244828)
(261.8855558 -4.882846365e-17 -5.319093377)
(277.0041752 5.047334958e-17 -5.71458632)
(292.7456428 0 -6.162222601)
(308.6089973 0 -6.728330946)
(318.7909316 6.69531334e-17 -7.159692877)
(320.7328494 -6.249864282e-17 -7.243732666)
(320.584462 0 -7.206144808)
(320.2516094 0 -7.272774921)
(319.9322357 0 -7.238651361)
(319.538165 -6.627951819e-17 -7.303059503)
(319.1024838 5.529938085e-17 -7.295866084)
(318.5873476 -1.41708644e-18 -7.349738753)
(317.994875 -1.187453883e-18 -7.371823805)
(317.3011319 0 -7.425651056)
(316.4929912 -2.519710684e-18 -7.473316199)
(315.5477913 0 -7.539492001)
(314.4433801 1.173002804e-18 -7.612426726)
(313.1530053 3.995828912e-18 -7.700406877)
(311.6475173 -2.887272201e-17 -7.800566578)
(309.8947768 -1.742598702e-17 -7.914300776)
(307.8607435 3.857459786e-17 -8.038572723)
(305.5110803 0 -8.168306649)
(302.8141898 6.951884499e-18 -8.293133985)
(299.7462426 -1.182974332e-17 -8.396201875)
(296.298582 0 -8.452422333)
(292.4876051 -3.465389918e-17 -8.428246964)
(288.3655712 1.446241589e-17 -8.284157448)
(284.0277298 -3.77603348e-17 -7.982069104)
(279.6088248 1.075685148e-17 -7.497690496)
(275.2653449 -3.687317988e-17 -6.833213357)
(271.1485577 -1.572232633e-17 -6.022816804)
(267.3796973 0 -5.126606961)
(264.0365557 4.595800212e-17 -4.215600782)
(261.1530761 -3.873979429e-17 -3.354960291)
(258.7273736 0 -2.59202434)
(256.7323807 1.121100877e-16 -1.951838424)
(255.1254695 -9.484837677e-17 -1.439204033)
(253.8559667 8.015231414e-17 -1.044424138)
(252.8707715 2.706049139e-16 -0.7498604922)
(252.1184774 -1.138649556e-16 -0.5353811355)
(251.5521777 0 -0.3819422756)
(251.1310955 4.852689946e-16 -0.2733925967)
(250.8212098 -5.443648022e-16 -0.1970130234)
(250.5950687 -3.43549397e-16 -0.1432766398)
(250.4311402 3.854108059e-16 -0.1053067257)
(250.3129198 0 -0.0782638942)
(250.2279897 -2.727913655e-16 -0.05879604476)
(250.1671412 2.29532964e-16 -0.04460190258)
(250.1236147 5.796239936e-16 -0.03410544328)
(250.0924804 3.253720968e-16 -0.02622384459)
(250.070135 -2.740685814e-16 -0.02021092679)
(250.0539511 9.239805041e-16 -0.01555604177)
(250.041956 -7.793025518e-16 -0.01190672143)
(250.032892 -4.933753486e-16 -0.008964949792)
(250.0256861 5.558574005e-16 -0.006608364302)
(250.0197085 1.058119019e-15 -0.00397480865)
(250.0126623 9.803956865e-17 -0.003955527633)
(192.6289941 -1.587551287e-19 -6.933907387)
(230.4402449 1.614113777e-16 -7.699776036)
(251.613764 -2.361696093e-16 -8.508515692)
(268.3008269 1.075584128e-16 -9.147420297)
(283.9526665 1.13069674e-16 -9.779397825)
(300.1460979 -2.557573389e-16 -10.47949549)
(315.5259771 2.833722994e-16 -11.29437883)
(322.8393013 3.680221694e-19 -11.68898216)
(323.5450295 -2.633689946e-16 -11.75394826)
(323.2947417 1.145502934e-16 -11.69927276)
(322.9424271 0 -11.77430137)
(322.5965788 7.849460754e-17 -11.72562411)
(322.1671565 -6.542765833e-17 -11.78989496)
(321.690631 -2.604213033e-18 -11.77269149)
(321.1258631 4.808172755e-17 -11.82016869)
(320.4744544 3.756708237e-18 -11.83270878)
(319.7102396 -3.271484749e-17 -11.87619064)
(318.8180552 1.728846346e-18 -11.9118669)
(317.7727081 -4.64197801e-17 -11.96356644)
(316.5490707 3.646913143e-17 -12.01935297)
(315.1170988 -2.775118472e-20 -12.08585633)
(313.4439701 -2.094700911e-17 -12.15893775)
(311.4938008 1.75082538e-17 -12.23739581)
(309.2291229 0 -12.31498324)
(306.6133508 -4.236622515e-17 -12.3818531)
(303.6151405 6.988909333e-18 -12.42132595)
(300.2153176 3.680763992e-17 -12.4084745)
(296.416692 2.127251163e-17 -12.30880699)
(292.2562042 1.837342833e-17 -12.07932504)
(287.8157494 -1.482456328e-17 -11.67411133)
(283.2242561 1.967821546e-19 -11.0562239)
(278.6440624 -4.473874907e-17 -10.21319678)
(274.2429619 3.811245334e-17 -9.168336507)
(270.1633805 -9.817498722e-17 -7.980355721)
(266.5020363 2.76448733e-17 -6.730553154)
(263.3057576 0 -5.503785952)
(260.5798464 -8.06654774e-17 -4.371370557)
(258.3013256 -6.85317316e-17 -3.381062858)
(256.4309909 -1.594491664e-20 -2.554979873)
(254.9218345 4.906183612e-17 -1.893431121)
(253.7242027 -8.257332549e-17 -1.381670437)
(252.7889642 -6.971996899e-17 -0.9969533747)
(252.0696912 2.351094946e-16 -0.7142637338)
(251.5242284 2.971436408e-16 -0.5100921155)
(251.1157288 -1.665560206e-16 -0.3643807481)
(250.8131148 2.803138764e-16 -0.2611324359)
(250.5909879 5.890854694e-16 -0.188178913)
(250.4291639 -3.961166023e-16 -0.1365829025)
(250.3119798 6.657185489e-16 -0.09994387427)
(250.2275184 -2.796776289e-16 -0.07375350599)
(250.1668564 -4.698988421e-16 -0.05486950838)
(250.1233898 1.973302098e-16 -0.04111235603)
(250.0922685 -6.63051979e-16 -0.03097063738)
(250.0699314 0 -0.02339483294)
(250.0537607 -1.871152284e-15 -0.0176628254)
(250.0418015 7.858367925e-16 -0.01327264451)
(250.0327537 3.300421429e-16 -0.009830109806)
(250.0255933 -1.386141493e-16 -0.007156118695)
(250.0197282 -9.315525417e-16 -0.004197437999)
(250.0126882 0 -0.004086375121)
(196.4927503 -3.432683218e-16 -9.83219091)
(235.305747 -1.692902455e-19 -11.20884026)
(256.9960053 0 -12.32063768)
(274.1801466 1.161936551e-19 -13.22691924)
(290.4272676 -1.271737842e-16 -14.12004083)
(306.92035 1.434552043e-16 -15.09536321)
(320.8277193 -3.014121987e-19 -16.07627243)
(325.4707761 -5.974369825e-19 -16.35121289)
(325.5484859 1.061784803e-18 -16.41428201)
(325.269045 1.154953576e-16 -16.34045245)
(324.8925916 -9.729257739e-17 -16.42654507)
(324.5158719 1.274289301e-18 -16.36625464)
(324.0467791 -6.792118506e-17 -16.43234136)
(323.5239025 5.850477756e-17 -16.40905102)
(322.902822 4.763258381e-17 -16.45304623)
(322.1841882 -4.235356555e-17 -16.45995066)
(321.3394753 -4.180230856e-18 -16.49623666)
(320.3511217 0 -16.52292252)
(319.191163 0 -16.56205066)
(317.8312 0 -16.60135985)
(316.2376757 -3.809017487e-17 -16.64525133)
(314.3740154 1.414136169e-17 -16.68780132)
(312.2008478 3.632124779e-17 -16.72441932)
(309.6781737 -2.036501145e-17 -16.7444973)
(306.769084 2.610604161e-17 -16.73190619)
(303.445919 1.479584847e-17 -16.66189824)
(299.6996064 -2.539960346e-17 -16.49976413)
(295.5521088 2.136744101e-17 -16.20057273)
(291.0697221 -1.839449961e-17 -15.7128936)
(286.3704815 -3.066330658e-19 -14.98909818)
(281.6166831 2.678176106e-17 -14.00177083)
(276.9892554 4.61578551e-17 -12.75957477)
(272.6526844 0 -11.31313192)
(268.726291 6.744901716e-17 -9.74648376)
(265.2729605 0 -8.158187251)
(262.3052538 0 -6.640741446)
(259.8009127 2.081908097e-16 -5.265550817)
(257.7189675 3.516806433e-17 -4.076203899)
(256.0114075 2.391671293e-16 -3.089117551)
(254.6295606 5.056805556e-17 -2.298896052)
(253.5267426 5.543037375e-16 -1.685630176)
(252.6591604 -2.156459814e-16 -1.221999842)
(251.986383 -1.211434614e-16 -0.8789159986)
(251.4718366 -9.17147609e-16 -0.629249122)
(251.083314 -1.753224578e-19 -0.4497779521)
(250.7932935 7.201287613e-16 -0.3218148273)
(250.5789438 6.050585455e-16 -0.2309803582)
(250.421844 -1.117649973e-15 -0.1665749055)
(250.3074949 -5.117165458e-16 -0.1208340546)
(250.2247227 2.862431867e-16 -0.08821938014)
(250.1650661 -1.200299195e-15 -0.06482590785)
(250.1222031 0 -0.04791827683)
(250.0914523 1.34943701e-15 -0.03558496201)
(250.0693541 1.130396886e-15 -0.0264902189)
(250.0533455 9.464179047e-16 -0.01970970702)
(250.0415102 0 -0.01459799085)
(250.0325364 6.621704538e-16 -0.01066594367)
(250.02544 6.915504563e-17 -0.007692516075)
(250.019678 -2.078036562e-15 -0.004430218025)
(250.012552 3.174851197e-15 -0.004223001725)
(199.9364347 -7.270010446e-16 -12.90573513)
(239.6504362 3.729377478e-16 -14.91401134)
(261.8066119 -1.406903388e-16 -16.34756826)
(279.4648209 -6.41065456e-22 -17.54285348)
(296.3133857 0 -18.72192168)
(312.9716846 3.141195847e-19 -19.99336652)
(324.2718971 3.116355022e-21 -21.00024364)
(326.9201995 0 -21.14306178)
(326.7541579 -2.200567514e-18 -21.22333509)
(326.4491388 -1.181301896e-16 -21.13205784)
(326.0450965 9.92267837e-17 -21.22973691)
(325.6311204 0 -21.15955156)
(325.1151012 -7.155707024e-17 -21.22662881)
(324.5374115 -1.946944068e-18 -21.19796049)
(323.8505305 4.555887986e-17 -21.23705899)
(323.0537091 -8.18278298e-17 -21.2372451)
(322.1160004 7.282065234e-17 -21.26387052)
(321.0170522 3.609079376e-18 -21.27877547)
(319.7258615 0 -21.30163437)
(318.2104432 4.116957335e-17 -21.31994622)
(316.4335966 -4.321177531e-17 -21.33529634)
(314.3551927 3.678351402e-17 -21.33910451)
(311.9331696 -3.714748737e-17 -21.32203342)
(309.1267377 0 -21.26736144)
(305.901787 -1.791683482e-17 -21.15072311)
(302.2393676 0 -20.9373688)
(298.1478085 2.628596018e-17 -20.58142301)
(293.6771762 -2.211492871e-17 -20.02787363)
(288.9308974 0 -19.22075843)
(284.0650414 0 -18.11894167)
(279.2679813 0 -16.71491911)
(274.7243759 0 -15.04669954)
(270.5789308 0 -13.19485393)
(266.9157738 1.053849661e-16 -11.2656144)
(263.7587905 -1.491520066e-16 -9.368296888)
(261.0869591 1.015159953e-16 -7.596048229)
(258.8543061 -1.716352017e-16 -6.014708277)
(257.0064224 -1.822133993e-16 -4.659983711)
(255.4903306 -9.201669694e-17 -3.54064046)
(254.2583657 -1.558118138e-16 -2.644937381)
(253.2684514 -5.698071417e-16 -1.948012505)
(252.4830827 -2.955539882e-16 -1.418654502)
(251.868415 4.356719612e-16 -1.024579965)
(251.3938988 8.372910885e-16 -0.735922593)
(251.0323619 -7.038079218e-16 -0.5270768578)
(250.7602159 -7.38889595e-16 -0.3772940774)
(250.5575467 -8.683387108e-16 -0.2704588224)
(250.408007 1.040690747e-15 -0.1944505114)
(250.2985228 1.221653587e-15 -0.1403761916)
(250.2188742 -1.462496584e-16 -0.1018246657)
(250.1612251 1.347162001e-15 -0.07423090275)
(250.1196579 -1.844907812e-15 -0.05436949265)
(250.0897503 -2.914289665e-15 -0.03997045003)
(250.0682095 -1.002676869e-15 -0.0294381158)
(250.0525762 0 -0.021662004)
(250.0410019 1.595116757e-15 -0.01586350781)
(250.0321979 -4.980877405e-16 -0.01146283535)
(250.0252169 -2.070572493e-16 -0.008204004699)
(250.0196003 1.832990992e-15 -0.004659129998)
(250.012456 -3.034130153e-15 -0.004358532032)
(202.8433466 1.878204273e-19 -16.12694715)
(243.3749355 0 -18.79459933)
(265.9625353 1.504816566e-19 -20.56614744)
(284.095475 -1.450467529e-19 -22.07332497)
(301.4945372 -3.14590256e-19 -23.56403673)
(317.9534273 0 -25.12020473)
(326.3192396 7.037469977e-19 -26.01762112)
(327.5024394 -1.301768631e-18 -26.04947059)
(327.1437944 1.129841269e-18 -26.14466547)
(326.8228987 -9.502838511e-19 -26.03349255)
(326.3727661 0 -26.13900557)
(325.9168679 8.478136903e-17 -26.05758165)
(325.3486225 -7.079726179e-17 -26.12100255)
(324.7092842 6.131868474e-17 -26.08471613)
(323.9483953 -4.973958687e-17 -26.1154012)
(323.0631551 5.234577323e-18 -26.10671054)
(322.0200538 0 -26.12109137)
(320.7955522 -6.310307393e-17 -26.12175949)
(319.3554898 4.979866488e-17 -26.12495622)
(317.6643304 -1.056388506e-17 -26.11718571)
(315.6816255 8.905457758e-18 -26.09599722)
(313.3645956 0 -26.04878694)
(310.6701766 0 -25.9599559)
(307.5596944 0 -25.80497581)
(304.0064845 0 -25.54954826)
(300.0071267 -6.364515968e-17 -25.14758134)
(295.5960575 -3.972067023e-19 -24.5421014)
(290.8598814 -2.323610845e-17 -23.67124436)
(285.9428746 2.807304293e-19 -22.48222563)
(281.0337984 1.68256287e-17 -20.95129533)
(276.3325927 -2.928520501e-17 -19.10066314)
(272.0092916 1.246946382e-16 -17.00199016)
(268.1737055 -8.53252577e-17 -14.76334741)
(264.8671114 -7.217629298e-17 -12.50617347)
(262.074101 1.228220451e-16 -10.34247254)
(259.7444146 -1.043046448e-16 -8.359375756)
(257.8142928 0 -6.612796193)
(256.2213176 -1.879475451e-16 -5.128285737)
(254.9115638 -2.853189541e-16 -3.906164185)
(253.840897 1.068371085e-16 -2.92845024)
(252.9732028 1.071969295e-19 -2.16592551)
(252.2778788 2.65513023e-16 -1.584312461)
(251.7279057 -5.105997405e-16 -1.149019469)
(251.2988597 4.295232202e-16 -0.8282831654)
(250.9686894 1.442580097e-15 -0.5948447077)
(250.7178514 1.51398319e-16 -0.4264900709)
(250.5294853 -1.269220487e-16 -0.3058268119)
(250.3894632 0 -0.2196524425)
(250.286276 -1.604471309e-15 -0.1581866693)
(250.2107802 1.491910272e-16 -0.1143123037)
(250.1558669 2.246039217e-15 -0.0829169893)
(250.1161036 3.127512205e-15 -0.0603601961)
(250.0873888 4.176334165e-15 -0.04406268498)
(250.0666418 0 -0.03220106357)
(250.0515414 0 -0.0234993576)
(250.0403298 -1.605604834e-15 -0.01705918755)
(250.031764 1.664866435e-16 -0.01221732851)
(250.0249336 -2.756070037e-16 -0.008688934022)
(250.0194809 -1.820461108e-15 -0.004881078731)
(250.0123201 -5.849502682e-18 -0.004491806611)
(205.181771 -1.9929716e-19 -19.47720555)
(246.4894454 2.169546397e-16 -22.82851621)
(269.5051633 -3.389184031e-16 -24.96200448)
(288.1705817 1.653378488e-16 -26.80994181)
(306.0681668 3.526685062e-19 -28.65127572)
(321.4481504 1.923998461e-16 -30.39584611)
(327.0881057 -1.901781391e-16 -31.08396968)
(327.5496136 1.347578389e-18 -31.02103585)
(326.7628777 -1.466682502e-16 -31.11883405)
(326.4132821 1.23763172e-16 -30.98246298)
(325.9208351 -1.6189886e-18 -31.09368752)
(325.4148512 0 -31.00577018)
(324.7852701 -4.537796812e-21 -31.06721789)
(324.0732534 -3.80578193e-18 -31.02676964)
(323.2257678 3.187282756e-18 -31.05011604)
(322.2374683 3.224608126e-17 -31.03335965)
(321.072405 -3.600717703e-17 -31.03404402)
(319.7037632 0 -31.0168628)
(318.0944078 6.436862311e-18 -30.9936878)
(316.2055772 -3.271351125e-17 -30.94944333)
(313.9942675 3.653020632e-17 -30.87686414)
(311.4163972 1.562945619e-17 -30.75824595)
(308.4303747 0 -30.5703233)
(305.0037831 -2.261568193e-17 -30.2790684)
(301.1236177 0 -29.83882081)
(296.81018 -3.898048009e-19 -29.19187881)
(292.1326785 2.787162284e-17 -28.27266506)
(287.2196074 4.773894251e-17 -27.01930504)
(282.2532885 -4.091133958e-17 -25.39301014)
(277.4423171 0 -23.39852078)
(272.9791999 0 -21.09408555)
(269.0016996 9.92764567e-19 -18.58395601)
(265.5742959 -7.167515555e-19 -15.99673728)
(262.6934445 3.751613659e-17 -13.45997411)
(260.3085396 -1.589544475e-16 -11.08042084)
(258.3467873 -2.697287643e-17 -8.933898438)
(256.7332853 2.052431379e-16 -7.063675599)
(255.4028275 -2.706357559e-16 -5.48425262)
(254.304008 2.599535871e-16 -4.187643686)
(253.3981702 2.751389227e-17 -3.150260828)
(252.6560282 -9.237491382e-17 -2.339353694)
(252.0541057 3.884466001e-17 -1.718445317)
(251.5721292 6.542847187e-17 -1.251469427)
(251.1916366 -9.338963769e-16 -0.9055213546)
(250.8955595 -7.379793907e-16 -0.6523398959)
(250.6683271 0 -0.4687805312)
(250.4961227 1.037963908e-15 -0.3365933595)
(250.3670717 0 -0.2418111489)
(250.2712865 0 -0.1739978908)
(250.200764 0 -0.1254950186)
(250.1491839 -4.189611637e-15 -0.09075728065)
(250.1116516 -1.588518556e-15 -0.06580722621)
(250.0844298 -2.823009696e-15 -0.04780912842)
(250.0646839 -2.494819741e-15 -0.03474726697)
(250.0502571 -1.827703132e-15 -0.02520360737)
(250.0395014 0 -0.01817543854)
(250.0312375 0 -0.01292547727)
(250.0245931 1.376021664e-16 -0.009145014701)
(250.019328 1.809387762e-15 -0.00509368672)
(250.0121706 -1.156412941e-17 -0.004622593228)
(206.9168725 2.119929206e-19 -22.97289443)
(248.9909698 0 -26.98698227)
(272.4808467 1.823485942e-19 -29.5296288)
(291.7493132 -1.158737462e-21 -31.7494022)
(310.030073 -2.004522125e-16 -33.97913769)
(323.1882838 2.089948742e-16 -35.70807462)
(326.2883282 0 -36.14747799)
(326.0537137 0 -36.01925878)
(325.6483373 1.500480745e-16 -36.15128861)
(325.2636791 2.094644334e-19 -36.00557557)
(324.7192979 -1.056169563e-16 -36.11908907)
(324.1544713 0 -36.02230675)
(323.454104 2.314351094e-18 -36.07581589)
(322.6583224 6.62358101e-17 -36.02662795)
(321.7119928 -5.548066241e-17 -36.03535574)
(320.6067377 5.487623353e-18 -36.00264184)
(319.3042538 -4.650539482e-18 -35.97974527)
(317.7743172 7.846401644e-18 -35.93300776)
(315.9769581 -5.291981047e-17 -35.8692723)
(313.8706439 -3.87538785e-19 -35.7710612)
(311.4109568 8.513183384e-17 -35.62505518)
(308.5547853 -4.788016915e-17 -35.40666213)
(305.265839 0 -35.08305995)
(301.5236532 -2.904599159e-19 -34.60915216)
(297.3364376 1.968108277e-17 -33.92751588)
(292.7567237 3.373387765e-17 -32.97077579)
(287.8950515 0 -31.67063167)
(282.9216256 0 -29.97545735)
(278.046453 -2.150229037e-17 -27.87238358)
(273.4793761 1.811751165e-17 -25.40300714)
(269.3857741 0 -22.66247792)
(265.8576514 -1.32880122e-16 -19.781278)
(262.9098818 1.357259304e-16 -16.89865264)
(260.4973957 -1.918869031e-17 -14.13889022)
(258.5415483 -6.876938062e-19 -11.59695722)
(256.9547328 -2.218248599e-16 -9.333962595)
(255.6573072 -4.44595668e-16 -7.379469862)
(254.5857511 4.136636938e-16 -5.737196924)
(253.6938551 -3.327902999e-17 -4.391686923)
(252.9497473 0 -3.314716957)
(252.3313748 -4.733207619e-17 -2.470933936)
(251.8222852 -5.970980051e-16 -1.82249807)
(251.4086304 0 -1.332608117)
(251.0775541 0 -0.9678630057)
(250.8166718 -7.541232873e-16 -0.6995488355)
(250.6141761 0 -0.50404525)
(250.4591697 -9.265424377e-16 -0.3626073872)
(250.3419725 1.661737827e-15 -0.2607831278)
(250.254304 -9.261781508e-17 -0.1876899813)
(250.1893122 -2.397524031e-15 -0.1352803366)
(250.1414868 2.193142117e-15 -0.09768452912)
(250.1064969 -3.545945833e-15 -0.0706640817)
(250.080993 0 -0.05117914916)
(250.0624073 2.373401978e-15 -0.03705757443)
(250.0487645 5.897726159e-15 -0.02676352872)
(250.0385393 0 -0.01920621957)
(250.0306288 1.673177414e-16 -0.01358495408)
(250.0241999 -1.374306616e-16 -0.009571688911)
(250.0191412 1.79963562e-15 -0.005297439387)
(250.0119976 5.871414128e-15 -0.004751163798)
(208.0253453 -9.212534514e-16 -26.56869591)
(250.8653978 2.545344356e-16 -31.25820025)
(274.931418 -2.009011822e-19 -34.25627055)
(294.8366653 4.025506842e-19 -36.88572767)
(313.1447152 4.278599373e-19 -39.50563832)
(323.6338281 -2.210871364e-16 -41.00361858)
(324.6991877 2.057728473e-16 -41.25407296)
(324.3729398 0 -41.08335663)
(323.8399598 1.533552832e-16 -41.23386608)
(323.4117049 2.390318058e-19 -41.06637604)
(322.8108599 -1.062693991e-16 -41.17643823)
(322.1803403 0 -41.06850587)
(321.4016604 2.383558822e-18 -41.10744808)
(320.5126744 0 -41.04449723)
(319.4565647 -2.646118167e-20 -41.03141185)
(318.221387 0 -40.97482698)
(316.7665606 -3.821176524e-17 -40.91836687)
(315.0585012 -1.487905994e-19 -40.8295356)
(313.0549387 2.027947103e-17 -40.70906271)
(310.7127581 4.619057424e-17 -40.53557597)
(307.9883117 -4.846777361e-17 -40.28807496)
(304.8429551 -1.669100523e-17 -39.93332897)
(301.250733 -2.839963158e-17 -39.4277445)
(297.2098318 2.386501315e-17 -38.71486299)
(292.757654 2.072692835e-17 -37.72706078)
(287.9862249 1.808329627e-17 -36.3921453)
(283.0496463 0 -34.64837867)
(278.1525174 -5.212204713e-17 -32.46654186)
(273.5154539 8.920926414e-17 -29.86987349)
(269.3286328 5.718779247e-17 -26.94001932)
(265.7138002 1.460324273e-16 -23.80398573)
(262.7100598 1.105988725e-16 -20.6083013)
(260.2845411 0 -17.49214337)
(258.3578647 0 -14.56852919)
(256.8319883 1.003653365e-16 -11.91623597)
(255.6120347 2.550826215e-16 -9.580210228)
(254.6190899 1.915827403e-16 -7.576634282)
(253.7947312 3.23389728e-16 -5.899534666)
(253.0997374 5.462781467e-16 -4.527224083)
(252.5096992 4.599703249e-16 -3.427958634)
(252.0097941 -4.837817675e-17 -2.564702372)
(251.5902362 6.90836812e-16 -1.899002117)
(251.2431177 -1.093047198e-15 -1.393943151)
(250.9607114 -5.734171707e-17 -1.016152779)
(250.7349207 8.171495899e-16 -0.7369082589)
(250.5574084 -8.057384224e-17 -0.5324835769)
(250.4199995 6.741838623e-17 -0.3839390984)
(250.3150894 -3.60889766e-15 -0.276574505)
(250.2359401 0 -0.1992418809)
(250.1768227 2.514712305e-15 -0.1436394673)
(250.13303 -2.094998795e-15 -0.1036714535)
(250.1007982 6.969904397e-15 -0.07490858784)
(250.077175 -1.808345131e-16 -0.05415638398)
(250.0598689 -2.24724065e-15 -0.03912081333)
(250.0470954 -3.838431722e-15 -0.02817206439)
(250.0374605 -3.367801973e-15 -0.02014744495)
(250.0299456 0 -0.01419408979)
(250.0237578 0 -0.009968271222)
(250.0189234 -3.582161404e-15 -0.005492294404)
(250.011804 -5.806323018e-15 -0.004877327917)
(208.6017479 6.829886682e-20 -30.2527303)
(252.2600569 -2.771346698e-16 -35.65679615)
(276.9841414 0 -39.15716433)
(297.4984391 4.522649852e-19 -42.24607261)
(315.0447804 -9.402535348e-19 -45.14226944)
(322.5205545 0 -46.23222579)
(322.3630559 -2.124674631e-16 -46.3727445)
(321.964035 1.841866028e-16 -46.16458733)
(321.4109127 -1.246829066e-18 -46.32286864)
(320.931614 0 -46.13879053)
(320.2667974 3.468821851e-18 -46.24077336)
(319.5610546 9.27576454e-17 -46.12157181)
(318.6937912 -2.152231972e-18 -46.14124474)
(317.6994122 2.669541895e-19 -46.06005922)
(316.5198931 -5.835666318e-17 -46.01777687)
(315.1394009 0 -45.92784815)
(313.5154157 4.862878812e-18 -45.82507262)
(311.6115227 -8.213796754e-18 -45.67720328)
(309.3842868 -2.806946489e-17 -45.47773689)
(306.7909243 1.162391975e-17 -45.19989842)
(303.7914796 2.022814963e-17 -44.81374922)
(300.3559934 1.498792929e-21 -44.27634955)
(296.4746144 0 -43.53306464)
(292.1715086 2.510185555e-17 -42.51712064)
(287.5208934 4.352312075e-19 -41.15447909)
(282.6585478 -1.812517999e-17 -39.37615983)
(277.7780152 0 -37.13883014)
(273.1035932 1.071854834e-16 -34.44726663)
(268.8453388 -1.140700399e-16 -31.36648582)
(265.1545379 -5.83576311e-17 -28.0150811)
(262.0988379 -1.326803743e-16 -24.54206362)
(259.6641389 1.523718593e-17 -21.09820948)
(257.7765664 -3.608969834e-17 -17.81302232)
(256.3317975 -3.065415963e-16 -14.78256284)
(255.2210993 -2.934574114e-16 -12.06731003)
(254.3488711 -1.895117831e-16 -9.69626675)
(253.6411335 3.687588501e-16 -7.673545172)
(253.0468687 3.521207313e-16 -5.985047733)
(252.534828 -1.132849934e-15 -4.604260503)
(252.0882199 -4.397796171e-16 -3.49702799)
(251.6991416 -2.465808389e-17 -2.625466084)
(251.363947 -4.148559679e-17 -1.951139377)
(251.080087 1.11393988e-15 -1.437515907)
(250.8444261 9.056672131e-16 -1.051658966)
(250.6527106 4.895355836e-17 -0.7651800292)
(250.4997356 0 -0.5545365738)
(250.3798096 -2.19561714e-15 -0.4008331432)
(250.2872457 1.83451943e-15 -0.2893138561)
(250.2167516 -9.57029082e-17 -0.2087162121)
(250.1636653 -1.108680048e-20 -0.1505992942)
(250.1240541 1.990536335e-16 -0.1087267721)
(250.0947091 -3.638622217e-15 -0.07854111506)
(250.0730708 0 -0.0567380631)
(250.0571256 2.570230213e-15 -0.04093362665)
(250.0452824 -1.247036982e-16 -0.02942636534)
(250.0362827 3.281490988e-15 -0.02099708973)
(250.0291963 -2.689031364e-15 -0.01475200078)
(250.0232707 0 -0.01033439227)
(250.0186758 3.567244922e-15 -0.005678194645)
(250.0115884 5.759114944e-15 -0.005000883153)
(208.697489 -5.213740437e-16 -34.01993731)
(253.2695364 -3.028179659e-16 -40.18587291)
(278.722023 2.533046286e-16 -44.24036483)
(299.8157492 -4.961618721e-19 -47.84902674)
(315.5638712 -2.577893696e-16 -50.76642182)
(319.7360759 4.865001612e-16 -51.38485357)
(319.4238315 -2.178563888e-16 -51.50069427)
(319.0151604 1.469636696e-18 -51.27585002)
(318.4080123 -1.580541853e-16 -51.44244815)
(317.8703928 -3.11564441e-19 -51.23694975)
(317.134456 1.092524329e-16 -51.32078475)
(316.3440046 -9.789674597e-17 -51.18403776)
(315.3777603 7.946517501e-17 -51.17453917)
(314.2656361 0 -51.06532168)
(312.9490099 -4.953874309e-17 -50.98143021)
(311.4081958 9.511874202e-17 -50.84314395)
(309.5994089 -2.989584968e-17 -50.67527069)
(307.4843724 3.410505976e-17 -50.44451291)
(305.0200277 -2.861993122e-17 -50.13611135)
(302.1662981 -2.473596462e-17 -49.71656265)
(298.890437 2.061033142e-17 -49.14611577)
(295.1762417 1.784240997e-17 -48.37156431)
(291.0367773 0 -47.32780942)
(286.5299854 0 -45.94056597)
(281.7727288 -4.37603283e-17 -44.13616492)
(276.9434081 -3.818571869e-17 -41.85997863)
(272.2632303 0 -39.09953319)
(267.955771 -1.109182905e-16 -35.90161207)
(264.1992177 -9.541886377e-17 -32.37230135)
(261.0920019 2.027090072e-17 -28.65828373)
(258.64451 1.209962878e-16 -24.91809962)
(256.7950323 -1.015043187e-16 -21.29559863)
(255.4384366 -1.857545484e-16 -17.90341566)
(254.4552943 3.122973081e-16 -14.81761381)
(253.7339215 2.814974798e-16 -12.08028389)
(253.1831127 2.37596301e-16 -9.705915183)
(252.7367081 -4.258049272e-16 -7.688433415)
(252.3524026 -3.165296328e-16 -6.007363969)
(252.0072419 5.685614875e-16 -4.632750535)
(251.6918151 -2.992630271e-17 -3.529032707)
(251.4046213 8.301360804e-16 -2.65818452)
(251.1475303 4.225517671e-17 -1.982290158)
(250.9227315 2.243407857e-20 -1.465576512)
(250.7311276 -9.808555486e-16 -1.075844367)
(250.5718514 -4.982075362e-17 -0.7852929144)
(250.4424787 -1.460372509e-20 -0.5707799895)
(250.3395453 4.496503653e-15 -0.4136376804)
(250.2591052 0 -0.2992061168)
(250.1971954 -9.710379853e-17 -0.2162299296)
(250.1501486 1.617052601e-16 -0.1562240712)
(250.1147635 2.083573078e-15 -0.112884049)
(250.0883612 0 -0.08157795984)
(250.0687633 0 -0.0589312038)
(250.0542274 -1.524723795e-16 -0.04249836566)
(250.0433546 4.142500479e-15 -0.03052668302)
(250.0350216 1.030077418e-16 -0.02175464827)
(250.0283883 2.610431117e-15 -0.01525833857)
(250.0227421 -1.096767696e-15 -0.01066981223)
(250.0183999 -1.777171013e-15 -0.00585498875)
(250.0113508 -5.7399819e-15 -0.005121463853)
(208.3322529 0 -37.86901364)
(253.9724163 6.443371477e-19 -44.8597608)
(280.1616598 0 -49.53052202)
(301.5632942 -2.793211499e-16 -53.66691851)
(314.833282 7.736034917e-19 -56.32813756)
(316.6385973 5.053447559e-16 -56.55354158)
(315.9730503 -2.23284122e-16 -56.66502985)
(315.5444006 -1.922650292e-16 -56.38758688)
(314.8803942 -2.920554002e-18 -56.55591775)
(314.2753845 1.394650423e-16 -56.33226762)
(313.4595246 0 -56.39216428)
(312.5734523 1.001066263e-16 -56.23414478)
(311.4967679 -8.645227864e-17 -56.18718552)
(310.2541412 6.87825616e-17 -56.03972555)
(308.7870595 -5.037457152e-17 -55.89989852)
(307.072204 0 -55.6944416)
(305.0652071 -1.024376162e-17 -55.43765701)
(302.7270212 -3.508164701e-17 -55.09416368)
(300.0168049 -3.201095423e-19 -54.64029101)
(296.9002455 6.27742601e-17 -54.03466558)
(293.3564213 -2.125464183e-17 -53.22710321)
(289.3893306 -1.809556156e-17 -52.15421664)
(285.0427415 1.571472283e-17 -50.74256664)
(280.4152249 -1.322032854e-17 -48.9160404)
(275.6676445 6.919868101e-17 -46.61157796)
(271.012328 -2.012012522e-17 -43.80167742)
(266.6793591 -8.446752298e-17 -40.51469322)
(262.8690897 8.546044517e-17 -36.84129226)
(259.7105694 7.267291992e-17 -32.92137407)
(257.2428281 -1.050852246e-17 -28.91708961)
(255.4226984 -1.052649178e-16 -24.983929)
(254.150477 -1.200047172e-16 -21.24995811)
(253.3005847 1.890747387e-16 -17.80670342)
(252.7475009 1.712579757e-16 -14.70960519)
(252.3827788 0 -11.98378108)
(252.1231955 0 -9.63135772)
(251.9121014 -4.0971215e-16 -7.638176625)
(251.7164029 3.447888721e-16 -5.979096217)
(251.5212718 5.981180554e-16 -4.621966678)
(251.3241783 -5.027819829e-16 -3.530674546)
(251.1293871 -1.612140645e-15 -2.667614674)
(250.943625 6.662287989e-16 -1.99576757)
(250.7732025 1.189800437e-15 -1.480387936)
(250.622522 -3.020607763e-17 -1.090224705)
(250.4936606 0 -0.7982426109)
(250.3866297 4.233803084e-17 -0.5818553703)
(250.2999362 -2.299176621e-15 -0.4227580679)
(250.2311927 5.904692495e-17 -0.3065022203)
(250.1776415 -4.919970182e-17 -0.2219349176)
(250.1365279 0 -0.160603357)
(250.1053301 0 -0.116194414)
(250.0818679 1.127116156e-16 -0.08404710139)
(250.0643247 2.981920444e-15 -0.0607502381)