/*--------------------------------*- C++ -*----------------------------------*\
  =========                 |
  \\      /  F ield         | OpenFOAM: The Open Source CFD Toolbox
   \\    /   O peration     | Website:  https://openfoam.org
    \\  /    A nd           | Version:  12
     \\/     M anipulation  |
\*---------------------------------------------------------------------------*/
FoamFile
{
    format      ascii;
    class       volScalarField;
    location    "0.13";
    object      k;
}
// * * * * * * * * * * * * * * * * * * * * * * * * * * * * * * * * * * * * * //

dimensions      [0 2 -2 0 0 0 0];

internalField   nonuniform List<scalar> 
16000
(
0.048774085
0.021607708
0.02247743
0.016548299
0.014037064
0.012706162
0.011916109
0.011443371
0.011123069
0.010907393
0.010748317
0.010629887
0.010537497
0.010464389
0.010405537
0.010357788
0.010318787
0.010286865
0.010260816
0.010239473
0.010221765
0.01020738
0.010195834
0.010186552
0.010179292
0.010173711
0.010169623
0.010166859
0.010165277
0.010164745
0.010165141
0.010166361
0.010168323
0.010170957
0.010174205
0.010178008
0.010182309
0.010187053
0.010192182
0.010197642
0.010203369
0.010209294
0.010215352
0.010221473
0.010227585
0.010233612
0.010239495
0.010245183
0.010250632
0.010255795
0.010260626
0.010265073
0.010269081
0.010272597
0.010275573
0.01027797
0.010279752
0.01028088
0.010281306
0.010280959
0.010279732
0.010277486
0.010274078
0.010269343
0.010263094
0.010255114
0.01024513
0.010232772
0.0102175
0.010198455
0.010174673
0.010146253
0.010116797
0.010094901
0.010078279
0.010066543
0.010060167
0.010063542
0.010059133
0.010085214
0.04554184
0.020446894
0.021034069
0.016000104
0.013690779
0.012502596
0.011752752
0.011326072
0.011021738
0.010823393
0.010674643
0.010565008
0.010479047
0.010411439
0.010357106
0.010313232
0.010277566
0.01024853
0.010225032
0.010206063
0.010190462
0.01017796
0.010168193
0.010160548
0.01015483
0.010150692
0.010147956
0.010146458
0.010146064
0.010146651
0.010148098
0.010150302
0.010153179
0.010156659
0.010160682
0.010165191
0.010170129
0.010175442
0.010181071
0.010186965
0.010193065
0.010199302
0.010205613
0.010211934
0.010218194
0.010224321
0.010230255
0.010235947
0.010241354
0.010246438
0.010251156
0.010255462
0.010259305
0.010262635
0.010265407
0.010267581
0.010269124
0.010270001
0.010270167
0.01026956
0.010268086
0.010265611
0.010261995
0.010257067
0.010250628
0.010242453
0.010232269
0.010219747
0.010204462
0.01018571
0.010162527
0.010135016
0.010106921
0.010086016
0.010070238
0.010059072
0.010053455
0.010053975
0.010059312
0.010088391
0.042209558
0.019627803
0.019703544
0.015434993
0.013336694
0.012274777
0.011583656
0.011199063
0.01091821
0.010738124
0.010600592
0.010500196
0.010421148
0.010359326
0.010309811
0.010270047
0.010237942
0.010211998
0.010191211
0.010174756
0.010161411
0.010150917
0.010143037
0.010137125
0.010133034
0.010130419
0.010129108
0.010128944
0.010129798
0.010131553
0.010134094
0.010137318
0.010141141
0.010145489
0.010150303
0.010155523
0.010161096
0.010166964
0.010173073
0.010179368
0.010185796
0.01019229
0.01019879
0.010205233
0.010211556
0.010217689
0.010223573
0.010229162
0.010234418
0.010239305
0.010243789
0.010247829
0.010251381
0.010254398
0.010256837
0.010258662
0.010259841
0.010260342
0.010260125
0.010259133
0.01025728
0.010254443
0.010250482
0.010245226
0.010238468
0.010229971
0.010219467
0.010206662
0.010191225
0.010172605
0.010149852
0.010123038
0.010096576
0.010076865
0.010062101
0.01005182
0.010046466
0.01004579
0.010054992
0.010081369
0.039108944
0.019075465
0.018552595
0.014928784
0.013016184
0.012068841
0.011428833
0.011083111
0.010823159
0.01065964
0.010532822
0.010440969
0.010368519
0.010312167
0.010267256
0.010231428
0.010202748
0.0101798
0.010161627
0.010147614
0.01013648
0.010127947
0.010121916
0.010117706
0.010115211
0.010114092
0.010114179
0.010115324
0.010117398
0.010120291
0.010123891
0.010128096
0.010132817
0.010137982
0.010143527
0.010149393
0.010155525
0.010161867
0.010168365
0.010174965
0.010181616
0.010188258
0.010194831
0.010201277
0.01020754
0.010213554
0.010219263
0.010224623
0.010229602
0.010234169
0.010238297
0.010241951
0.010245095
0.010247686
0.010249684
0.010251055
0.010251771
0.010251801
0.01025111
0.010249646
0.010247328
0.010244044
0.010239657
0.010233995
0.010226846
0.010217965
0.010207092
0.010193971
0.010178352
0.01015983
0.010137491
0.01011119
0.010086371
0.010067861
0.010054155
0.010044746
0.010039486
0.010038609
0.010049746
0.01006929
0.03597089
0.018765289
0.017567052
0.014459758
0.012717831
0.011874107
0.011283645
0.010973776
0.010734417
0.010586414
0.010470101
0.010386399
0.010320407
0.010269367
0.010228963
0.010196993
0.010171684
0.010151706
0.010136113
0.010124516
0.010115594
0.010109023
0.010104834
0.010102338
0.010101428
0.010101805
0.01010329
0.010105739
0.010109024
0.010113038
0.010117673
0.010122825
0.010128405
0.010134335
0.010140552
0.010146994
0.010153605
0.010160332
0.01016712
0.010173918
0.010180678
0.010187344
0.010193863
0.01020018
0.010206247
0.010212004
0.010217401
0.010222396
0.010226962
0.010231076
0.010234716
0.010237858
0.010240469
0.010242514
0.010243955
0.010244763
0.01024491
0.010244369
0.010243108
0.010241078
0.010238205
0.010234383
0.01022948
0.010223326
0.010215706
0.010206376
0.010195083
0.010181607
0.010165757
0.010147253
0.010125303
0.01009953
0.01007639
0.010059117
0.010046503
0.010037938
0.010032786
0.010031972
0.01004335
0.010058687
0.032946878
0.018697022
0.016837359
0.014029941
0.012443269
0.011692961
0.011149439
0.010872445
0.010652888
0.010519182
0.010413053
0.010337038
0.010277296
0.010231371
0.010195339
0.010167124
0.010145107
0.010128063
0.010115009
0.010105796
0.010099077
0.0100945
0.01009212
0.010091387
0.010092019
0.010093886
0.01009676
0.010100498
0.010104972
0.010110075
0.010115702
0.010121747
0.01012812
0.01013474
0.01014154
0.010148458
0.010155438
0.010162429
0.010169377
0.010176236
0.010182959
0.010189501
0.010195813
0.010201847
0.010207563
0.01021291
0.010217842
0.010222325
0.010226336
0.010229859
0.010232879
0.01023538
0.010237337
0.01023872
0.010239496
0.010239637
0.010239118
0.010237915
0.010235998
0.01023332
0.010229813
0.010225377
0.010219883
0.010213163
0.010205008
0.010195177
0.010183432
0.010169577
0.010153461
0.010134902
0.010113315
0.010088143
0.010066704
0.0100507
0.010039187
0.010031428
0.010026446
0.010025727
0.010036584
0.01004752
0.031051664
0.018795308
0.016318943
0.013635933
0.012190264
0.011524709
0.011025977
0.010778962
0.010578474
0.010457874
0.010361584
0.010292856
0.01023917
0.010198208
0.010166449
0.010141925
0.010123158
0.010109043
0.010098525
0.010091685
0.010087164
0.010084738
0.010084061
0.01008529
0.010087296
0.010090648
0.0100949
0.010099905
0.010105535
0.01011168
0.010118236
0.010125099
0.010132173
0.010139377
0.010146642
0.010153905
0.010161112
0.010168214
0.010175163
0.010181915
0.010188433
0.010194676
0.010200607
0.010206185
0.010211378
0.010216147
0.010220455
0.010224272
0.010227581
0.010230374
0.010232642
0.010234378
0.010235563
0.010236174
0.010236182
0.010235561
0.010234287
0.010232339
0.010229688
0.01022629
0.01022208
0.010216962
0.010210812
0.010203465
0.010194721
0.010184351
0.010172129
0.010157879
0.010141473
0.010122782
0.010101515
0.010077155
0.01005742
0.010042708
0.010032281
0.010025297
0.010020566
0.01001987
0.010029457
0.010035499
0.029023391
0.018979176
0.015898085
0.013275241
0.011957353
0.011369114
0.010912686
0.010693176
0.010510826
0.010402371
0.010315618
0.010253883
0.010206114
0.010170028
0.010142489
0.010121637
0.010106111
0.010094945
0.010086993
0.010082507
0.01008013
0.01008044
0.010081026
0.010083708
0.01008763
0.010092449
0.010098051
0.010104282
0.010111007
0.010118119
0.01012551
0.010133076
0.010140724
0.010148367
0.010155937
0.010163375
0.010170627
0.01017765
0.010184403
0.010190851
0.010196962
0.010202708
0.010208061
0.010212993
0.010217481
0.010221498
0.010225015
0.010228011
0.010230473
0.0102324
0.010233792
0.010234645
0.010234951
0.010234691
0.010233841
0.010232374
0.010230269
0.010227505
0.010224055
0.010219877
0.010214907
0.010209054
0.010202197
0.010194177
0.010184804
0.010173867
0.010161153
0.010146499
0.010129792
0.010110909
0.010089871
0.010066642
0.010048603
0.010035199
0.010025829
0.01001959
0.010015184
0.010014406
0.010022404
0.010024426
0.026747445
0.019168921
0.01540693
0.012944643
0.011742901
0.011225368
0.010808905
0.010614337
0.010449999
0.010352906
0.010275384
0.010220418
0.010178449
0.01014718
0.010123831
0.010106654
0.010094377
0.010086178
0.010080864
0.010078572
0.010077899
0.010080171
0.010083526
0.010087968
0.010093406
0.010099667
0.010106564
0.010113943
0.010121668
0.010129626
0.010137712
0.010145822
0.010153863
0.010161751
0.01016942
0.010176813
0.010183885
0.010190599
0.010196924
0.010202836
0.010208314
0.010213343
0.010217909
0.010221994
0.010225587
0.010228675
0.010231239
0.010233263
0.010234742
0.01023568
0.010236082
0.010235951
0.010235284
0.010234069
0.010232282
0.010229901
0.010226903
0.010223268
0.010218968
0.010213964
0.010208193
0.010201565
0.010193966
0.010185243
0.010175216
0.010163694
0.010150479
0.010135414
0.010118406
0.010099311
0.010078347
0.01005668
0.010040319
0.010028224
0.01001987
0.010014348
0.01001035
0.010009439
0.010015871
0.010016364
0.025167762
0.019340726
0.014733677
0.012641377
0.011546853
0.011093898
0.010715469
0.010543527
0.010396559
0.010309925
0.010241309
0.010192923
0.01015664
0.010130144
0.010110968
0.010097476
0.010088474
0.010083203
0.010080717
0.010078383
0.010083311
0.010086863
0.01009192
0.010098065
0.010105051
0.010112672
0.010120761
0.010129161
0.010137733
0.01014636
0.010154939
0.010163371
0.010171566
0.010179446
0.010186949
0.010194028
0.010200648
0.010206783
0.010212415
0.010217534
0.010222134
0.010226214
0.010229774
0.010232811
0.010235325
0.010237314
0.010238773
0.010239691
0.010240067
0.01023991
0.010239227
0.010238029
0.010236316
0.010234079
0.0102313
0.010227954
0.010224019
0.010219472
0.010214289
0.010208427
0.010201827
0.0101944
0.01018604
0.010176599
0.010165909
0.010153794
0.010140074
0.010124592
0.010107289
0.010088031
0.010066962
0.010047328
0.010032613
0.010021814
0.010014428
0.010009598
0.010006126
0.010005133
0.010009949
0.010009579
0.023639754
0.019483418
0.01419304
0.012363314
0.011369705
0.010975067
0.010632883
0.010481406
0.010350676
0.010273821
0.010213812
0.010171879
0.010141199
0.010119457
0.010104455
0.010094674
0.010088998
0.010086409
0.010087234
0.010090262
0.010094
0.010099837
0.010106754
0.010114527
0.010122938
0.010131786
0.010140898
0.01015012
0.01015931
0.010168353
0.010177147
0.010185605
0.010193644
0.010201196
0.010208212
0.010214657
0.010220511
0.010225764
0.010230415
0.01023447
0.01023794
0.01024084
0.010243183
0.010244982
0.010246249
0.010246992
0.010247215
0.010246915
0.010246093
0.010244759
0.010242923
0.010240598
0.010237788
0.010234487
0.010230679
0.010226338
0.01022144
0.010215961
0.010209875
0.010203141
0.010195699
0.010187466
0.010178339
0.01016818
0.010156829
0.010144121
0.010129898
0.010114005
0.010096402
0.010077105
0.010056125
0.010038633
0.01002552
0.010015985
0.010009519
0.010005358
0.010002524
0.010001625
0.010004814
0.010003351
0.022271262
0.019613463
0.013724012
0.012110653
0.011211366
0.010868509
0.010560939
0.010427696
0.010312682
0.010245067
0.010193388
0.010157837
0.010132707
0.010115731
0.010104926
0.010098881
0.010096615
0.010097399
0.01010042
0.010105394
0.010112091
0.010119821
0.010128456
0.010137714
0.01014737
0.01015722
0.010167097
0.010176845
0.01018633
0.010195441
0.010204085
0.010212188
0.010219687
0.010226529
0.010232683
0.010238134
0.010242881
0.010246933
0.010250309
0.010253033
0.010255133
0.01025664
0.010257581
0.010257981
0.010257862
0.010257242
0.010256131
0.010254532
0.010252448
0.010249885
0.010246857
0.010243374
0.010239442
0.010235058
0.010230206
0.010224861
0.010218994
0.010212579
0.010205588
0.010197983
0.010189703
0.010180668
0.010170782
0.010159916
0.010147917
0.010134627
0.01011991
0.010103625
0.01008572
0.010066473
0.010046224
0.010030652
0.010019064
0.010010744
0.01000516
0.010001634
0.0099994625
0.0099989002
0.010000937
0.0099988124
0.021041033
0.01970074
0.013293919
0.011883366
0.011071401
0.010774234
0.010499764
0.010382981
0.01028292
0.010224186
0.010180615
0.010151432
0.010131846
0.010119666
0.0101131
0.010110838
0.010111936
0.010115692
0.010121561
0.010129028
0.010137673
0.010147236
0.010157394
0.010167887
0.01017849
0.010189003
0.010199262
0.010209124
0.010218466
0.01022719
0.010235224
0.010242514
0.010249022
0.010254722
0.010259608
0.010263688
0.010266984
0.010269527
0.010271355
0.010272509
0.010273033
0.010272972
0.010272364
0.010271244
0.010269643
0.010267584
0.010265081
0.01026214
0.010258764
0.010254957
0.010250726
0.010246082
0.010241031
0.010235569
0.010229682
0.010223343
0.01021652
0.010209183
0.010201302
0.010192839
0.010183737
0.010173918
0.01016329
0.010151736
0.010139112
0.010125262
0.010110068
0.01009343
0.010075257
0.010055994
0.010037278
0.010023436
0.010013265
0.010006093
0.010001368
0.0099984335
0.0099968126
0.009996776
0.0099984237
0.0099961123
0.019931997
0.019706578
0.012903895
0.011679449
0.010949041
0.010692271
0.010449468
0.010347595
0.010261861
0.010211828
0.010176224
0.010153445
0.010139433
0.010132104
0.010129823
0.010131367
0.010135851
0.0101426
0.010151047
0.010160746
0.010171314
0.010182406
0.010193744
0.010205072
0.010216173
0.010226856
0.010236972
0.010246399
0.010255038
0.01026282
0.010269702
0.010275661
0.010280693
0.010284805
0.01028802
0.010290372
0.010291905
0.010292671
0.010292726
0.010292125
0.010290924
0.010289176
0.010286928
0.010284222
0.010281091
0.010277562
0.010273651
0.010269365
0.010264705
0.010259668
0.010254257
0.010248478
0.010242335
0.010235824
0.01022893
0.010221627
0.010213878
0.010205649
0.010196906
0.010187612
0.010177714
0.010167138
0.010155795
0.010143577
0.010130354
0.010115982
0.010100339
0.010083383
0.010065071
0.010045651
0.010029302
0.010017027
0.010008136
0.010002031
0.0099981545
0.0099957821
0.0099945044
0.0099949716
0.0099972594
0.0099949288
0.018933241
0.019490321
0.012551888
0.011497844
0.010844071
0.010622849
0.010410357
0.010322207
0.010250226
0.010208892
0.010181177
0.010164871
0.010156487
0.010154053
0.010156065
0.010161375
0.010169138
0.010178702
0.010189527
0.010201156
0.010213213
0.01022537
0.010237355
0.010248924
0.010259883
0.010270068
0.010279361
0.010287675
0.010294954
0.010301171
0.01030632
0.010310421
0.010313505
0.010315617
0.010316807
0.010317134
0.010316662
0.010315458
0.010313589
0.010311121
0.010308116
0.01030463
0.010300714
0.010296411
0.010291756
0.010286775
0.010281483
0.010275886
0.010269981
0.010263762
0.010257222
0.010250359
0.010243174
0.010235662
0.010227807
0.010219584
0.010210954
0.010201875
0.01019231
0.010182223
0.010171563
0.010160263
0.010148238
0.010135386
0.010121597
0.010106745
0.010090706
0.010073447
0.010055218
0.010036683
0.010022268
0.010011446
0.010003693
0.0099985516
0.0099955002
0.0099937006
0.0099926513
0.0099933958
0.0099965769
0.0099948495
0.018029337
0.018637881
0.012235194
0.011337834
0.010756748
0.010566374
0.010382979
0.010307778
0.010249084
0.010216554
0.010196705
0.010186936
0.010184196
0.010186631
0.01019284
0.010201744
0.010212525
0.010224547
0.010237283
0.010250288
0.010263196
0.010275697
0.010287545
0.010298537
0.010308519
0.010317379
0.010325049
0.010331497
0.010336723
0.010340749
0.010343617
0.010345387
0.010346129
0.010345915
0.010344822
0.010342926
0.010340305
0.010337033
0.010333183
0.010328821
0.010324009
0.010318804
0.010313255
0.010307401
0.010301276
0.010294903
0.010288294
0.010281453
0.010274373
0.010267042
0.010259445
0.010251571
0.010243413
0.010234964
0.01022621
0.010217123
0.010207666
0.010197792
0.010187455
0.010176618
0.010165235
0.010153249
0.010140578
0.01012713
0.010112808
0.010097515
0.010081158
0.01006367
0.01004543
0.010028836
0.010016179
0.01000669
0.0099999491
0.0099956602
0.0099933713
0.0099921535
0.009991408
0.0099924672
0.0099963412
0.0099968043
0.017212305
0.017279437
0.011955937
0.01119916
0.010686145
0.010523781
0.01036839
0.010305727
0.010259886
0.010236288
0.010224261
0.010221013
0.010223823
0.01023095
0.010241073
0.010253165
0.010266432
0.010280253
0.010294121
0.010307616
0.010320411
0.010332244
0.010342926
0.010352322
0.010360349
0.01036697
0.010372187
0.010376032
0.010378567
0.010379865
0.010380013
0.010379106
0.010377239
0.010374509
0.010371005
0.010366813
0.010362012
0.010356679
0.010350882
0.010344683
0.010338139
0.010331299
0.010324206
0.010316896
0.010309396
0.010301725
0.010293893
0.0102859
0.010277735
0.01026938
0.010260814
0.010252016
0.010242969
0.010233661
0.010224077
0.010214193
0.01020397
0.010193359
0.010182308
0.010170773
0.010158711
0.010146077
0.0101328
0.010118798
0.010103983
0.010088277
0.010071643
0.010054161
0.010036315
0.010022021
0.01001098
0.010002725
0.0099969071
0.0099933688
0.0099917496
0.0099910681
0.0099906233
0.0099920486
0.0099964478
0.0099977361
0.016478014
0.016417661
0.011720202
0.011082221
0.010633167
0.010496464
0.010368091
0.010317737
0.01028433
0.010269729
0.010265401
0.010268503
0.010276565
0.010287935
0.010301356
0.010315848
0.010330648
0.010345173
0.010358973
0.010371696
0.010383094
0.010392997
0.010401313
0.010408005
0.010413084
0.010416599
0.010418628
0.01041927
0.010418636
0.010416845
0.010414013
0.010410256
0.010405685
0.010400402
0.010394501
0.010388063
0.010381166
0.010373874
0.010366249
0.010358342
0.010350199
0.01034186
0.01033336
0.010324724
0.010315975
0.010307126
0.010298184
0.010289146
0.010279998
0.010270718
0.010261279
0.010251651
0.010241808
0.010231729
0.010221395
0.010210782
0.010199858
0.010188572
0.010176868
0.010164691
0.010152
0.010138759
0.010124916
0.010110399
0.010095136
0.010079063
0.010062162
0.010044766
0.010028578
0.010016138
0.010006584
0.009999476
0.009994527
0.0099916613
0.0099905959
0.0099903618
0.0099901847
0.0099920523
0.0099962642
0.0099985037
0.015818537
0.015415883
0.011518918
0.010987536
0.010598764
0.010486125
0.010383728
0.010345722
0.010324338
0.010318666
0.01032172
0.010330689
0.010343292
0.010357959
0.010373507
0.010389032
0.010403854
0.010417489
0.010429605
0.010439982
0.010448501
0.010455127
0.010459889
0.010462863
0.010464158
0.010463903
0.01046224
0.010459316
0.010455276
0.010450261
0.010444401
0.010437816
0.010430614
0.010422893
0.010414736
0.010406216
0.010397395
0.010388326
0.010379055
0.010369621
0.010360057
0.010350391
0.010340646
0.01033084
0.010320986
0.010311094
0.010301166
0.010291197
0.010281172
0.010271068
0.010260854
0.010250492
0.010239947
0.010229188
0.010218187
0.010206921
0.010195359
0.010183459
0.010171161
0.010158406
0.010145143
0.010131341
0.010116968
0.010101972
0.01008629
0.0100699
0.010052891
0.010035767
0.01002195
0.010011125
0.010002887
0.0099968252
0.0099927026
0.0099904575
0.0099898216
0.0099898981
0.0099898108
0.0099921325
0.0099962955
0.0099990863
0.01522822
0.014737127
0.01135452
0.010915798
0.010583988
0.01049497
0.010417495
0.010392043
0.010382149
0.01038495
0.010394551
0.01040824
0.010423922
0.010440154
0.010455898
0.010470417
0.010483209
0.010493973
0.010502567
0.010508952
0.010513175
0.010515344
0.010515611
0.010514149
0.010511144
0.010506779
0.010501233
0.010494672
0.010487253
0.010479115
0.010470382
0.010461161
0.010451547
0.01044162
0.010431447
0.010421084
0.010410576
0.010399961
0.010389267
0.010378518
0.010367734
0.010356931
0.010346119
0.010335308
0.010324503
0.010313708
0.010302922
0.010292137
0.01028134
0.010270508
0.010259609
0.010248602
0.010237445
0.010226095
0.010214515
0.010202673
0.01019054
0.010178081
0.010165247
0.010151975
0.010138208
0.010123901
0.010109034
0.010093589
0.010077521
0.01006082
0.010043834
0.010028333
0.010016284
0.0100069
0.0099997974
0.0099946525
0.0099912905
0.0099896214
0.0099893011
0.0099895291
0.0099896572
0.0099922152
0.0099965076
0.0099996504
0.014701418
0.01398515
0.011223653
0.010869643
0.010590683
0.010526352
0.010472454
0.010459426
0.010459864
0.010469742
0.010484012
0.010500183
0.010516439
0.010531598
0.010544902
0.010555899
0.010564363
0.010570242
0.01057362
0.010574647
0.010573526
0.010570483
0.010565754
0.010559572
0.010552157
0.010543711
0.010534413
0.010524426
0.010513887
0.010502919
0.010491622
0.010480083
0.010468373
0.010456548
0.010444656
0.010432734
0.010420807
0.010408897
0.010397016
0.010385175
0.010373379
0.010361631
0.010349933
0.010338283
0.010326681
0.010315123
0.010303604
0.010292117
0.010280648
0.010269175
0.010257671
0.010246096
0.010234403
0.010222543
0.010210466
0.010198129
0.010185498
0.010172539
0.010159218
0.010145485
0.010131281
0.010116543
0.01010123
0.010085343
0.010068925
0.010052087
0.010035371
0.010022069
0.010011526
0.01000338
0.0099972483
0.0099928845
0.0099901809
0.0099890241
0.0099889818
0.0099893174
0.0099897446
0.0099923575
0.0099966591
0.0099998657
0.014237817
0.013403839
0.011131014
0.01085379
0.010622742
0.010584341
0.01055172
0.010549717
0.01055794
0.010571951
0.010587581
0.010602766
0.010616161
0.010627019
0.01063499
0.010639987
0.010642099
0.010641528
0.010638545
0.010633449
0.010626537
0.010618096
0.01060839
0.01059766
0.010586115
0.010573938
0.010561285
0.010548287
0.010535051
0.010521668
0.010508211
0.010494738
0.010481292
0.01046791
0.010454615
0.010441424
0.010428349
0.010415394
0.010402559
0.01038984
0.010377231
0.010364724
0.010352312
0.010339984
0.010327732
0.010315546
0.010303419
0.010291338
0.010279292
0.010267261
0.010255222
0.01024314
0.01023097
0.010218661
0.010206156
0.010193403
0.010180352
0.010166966
0.010153212
0.010139059
0.010124465
0.010109371
0.010093707
0.010077427
0.010060598
0.010043675
0.010028577
0.010016805
0.010007575
0.010000483
0.0099951887
0.0099914941
0.0099893278
0.0099885532
0.0099887211
0.0099892003
0.0099900453
0.0099926189
0.0099967894
0.0099999625
0.013842835
0.012942125
0.011079076
0.01087335
0.010705069
0.010671983
0.010656359
0.010661717
0.010673208
0.010686718
0.010699169
0.010709167
0.010716018
0.010719512
0.010719736
0.010716948
0.01071149
0.010703736
0.010694061
0.010682817
0.010670321
0.01065685
0.010642642
0.010627899
0.010612789
0.01059745
0.010581997
0.010566518
0.010551086
0.010535755
0.010520568
0.010505555
0.010490737
0.010476126
0.01046173
0.010447548
0.010433577
0.010419807
0.010406228
0.010392826
0.010379586
0.01036649
0.010353522
0.010340665
0.010327902
0.01031522
0.010302603
0.010290038
0.010277509
0.010265002
0.010252492
0.010239953
0.010227347
0.010214628
0.010201741
0.010188628
0.010175233
0.010161503
0.010147396
0.010132878
0.010117919
0.010102488
0.010086544
0.010070058
0.010053106
0.010036337
0.010023075
0.010012526
0.010004357
0.0099981362
0.0099935572
0.0099904395
0.0099887157
0.0099881762
0.0099884793
0.0099891036
0.0099902427
0.009992965
0.0099969696
0.010000056
0.013525701
0.012570667
0.01107194
0.01092832
0.010807364
0.010788532
0.010782658
0.010789205
0.010797779
0.010805233
0.010809732
0.010810696
0.010808093
0.010802194
0.010793411
0.010782209
0.010769042
0.01075433
0.010738438
0.010721685
0.010704333
0.010686597
0.010668655
0.010650644
0.010632675
0.010614834
0.010597187
0.010579783
0.010562656
0.010545831
0.010529322
0.010513136
0.010497275
0.010481733
0.010466502
0.01045157
0.01043692
0.010422535
0.010408396
0.010394479
0.010380764
0.010367226
0.010353842
0.010340589
0.010327445
0.010314388
0.0103014
0.01028846
0.01027555
0.010262652
0.010249746
0.010236805
0.0102238
0.010210694
0.010197442
0.010183993
0.010170294
0.010156287
0.010141917
0.010127131
0.010111881
0.010096129
0.010079858
0.010063117
0.010046232
0.010030763
0.010018736
0.010009208
0.010001857
0.0099963146
0.0099923066
0.0099896673
0.0099883032
0.0099879095
0.0099882545
0.0099889644
0.0099903772
0.0099932839
0.0099971967
0.010000087
0.013303249
0.012301297
0.011112456
0.011025214
0.010939985
0.010925456
0.01092046
0.010920841
0.01092014
0.010916593
0.010909554
0.010899151
0.010885816
0.010870072
0.010852445
0.010833411
0.010813383
0.010792702
0.010771644
0.01075043
0.010729231
0.010708179
0.010687374
0.010666889
0.010646777
0.010627076
0.010607807
0.010588985
0.010570615
0.010552695
0.010535218
0.010518173
0.010501547
0.010485321
0.010469476
0.010453991
0.010438841
0.010424002
0.010409449
0.010395154
0.010381091
0.010367232
0.010353548
0.010340013
0.010326599
0.01031328
0.010300031
0.010286827
0.010273645
0.01026046
0.010247248
0.010233984
0.010220639
0.010207182
0.01019358
0.010179794
0.010165785
0.010151506
0.010136906
0.010121927
0.010106508
0.010090587
0.010074123
0.010057198
0.010040414
0.010026559
0.010015495
0.010006796
0.010000085
0.009995054
0.0099914655
0.0099891694
0.0099880554
0.0099877618
0.0099881281
0.0099888971
0.0099904766
0.0099934792
0.0099973664
0.010000092
0.013175269
0.012132819
0.011206104
0.011152926
0.011087652
0.011069266
0.011055387
0.011042922
0.011028281
0.01101097
0.010991123
0.010969205
0.010945751
0.010921253
0.010896128
0.010870715
0.010845276
0.010820013
0.010795075
0.01077057
0.010746573
0.010723136
0.010700291
0.010678054
0.010656432
0.010635422
0.010615015
0.010595197
0.010575952
0.010557259
0.010539096
0.01052144
0.010504265
0.010487546
0.010471255
0.010455365
0.010439848
0.010424675
0.010409816
0.010395242
0.010380924
0.01036683
0.010352933
0.0103392
0.010325603
0.010312112
0.010298698
0.010285331
0.010271982
0.010258621
0.010245218
0.01023174
0.010218157
0.010204436
0.010190545
0.010176454
0.010162131
0.010147546
0.010132661
0.010117439
0.010101834
0.010085803
0.010069324
0.010052505
0.010036054
0.010023381
0.010013143
0.010005127
0.0099989487
0.0099943351
0.0099910706
0.0099890013
0.009987991
0.0099877153
0.0099881302
0.0099889501
0.0099905498
0.0099933349
0.0099968942
0.0099996474
0.013109175
0.012060891
0.011363772
0.011294929
0.011233845
0.011201202
0.011171575
0.011142736
0.011112986
0.011082334
0.011051048
0.011019493
0.010987995
0.01095682
0.010926165
0.01089617
0.010866929
0.010838501
0.010810917
0.010784192
0.010758322
0.010733297
0.010709096
0.010685696
0.010663069
0.010641186
0.010620014
0.010599524
0.010579682
0.010560456
0.010541815
0.010523726
0.010506158
0.01048908
0.010472461
0.010456268
0.010440472
0.010425041
0.010409945
0.010395153
0.010380634
0.010366358
0.010352294
0.010338412
0.010324682
0.010311073
0.010297554
0.010284095
0.010270661
0.010257219
0.010243733
0.010230166
0.010216479
0.010202635
0.010188597
0.010174328
0.010159795
0.010144964
0.010129799
0.010114265
0.010098327
0.010081961
0.010065208
0.010048385
0.010033029
0.010021061
0.010011463
0.010003972
0.0099982285
0.0099939685
0.0099909815
0.0099891052
0.009988193
0.00998795
0.0099883066
0.0099891327
0.0099906424
0.0099931237
0.0099963607
0.0099992065
0.013117549
0.012020066
0.011518282
0.011427405
0.011354792
0.011303698
0.011256958
0.011213079
0.011170761
0.011129819
0.011090196
0.011051917
0.011014999
0.010979445
0.010945238
0.010912348
0.010880734
0.01085035
0.010821144
0.010793062
0.010766051
0.010740057
0.010715029
0.010690915
0.010667668
0.010645241
0.010623588
0.010602667
0.010582437
0.010562859
0.010543894
0.010525507
0.010507662
0.010490325
0.010473461
0.010457039
0.010441025
0.010425389
0.0104101
0.010395125
0.010380436
0.010366002
0.010351793
0.010337779
0.010323932
0.010310221
0.010296617
0.010283088
0.010269602
0.010256124
0.010242617
0.010229043
0.010215361
0.010201531
0.010187511
0.01017326
0.010158736
0.010143896
0.010128693
0.010113075
0.010096994
0.010080416
0.010063401
0.010046408
0.010031547
0.010019895
0.010010595
0.010003364
0.0099978532
0.0099938024
0.0099909953
0.0099892533
0.0099884142
0.0099882241
0.0099886467
0.0099895912
0.009991153
0.0099934244
0.0099962197
0.0099989092
0.01320936
0.012044955
0.011634172
0.011523743
0.011435721
0.011368714
0.011309077
0.011254882
0.011204488
0.01115724
0.011112691
0.011070545
0.011030574
0.010992592
0.010956439
0.010921977
0.010889084
0.010857648
0.01082757
0.01079876
0.010771134
0.010744617
0.010719138
0.010694632
0.010671041
0.010648306
0.010626377
0.010605204
0.010584742
0.010564947
0.010545778
0.010527198
0.010509167
0.01049165
0.010474613
0.010458022
0.010441843
0.010426046
0.010410598
0.01039547
0.01038063
0.01036605
0.010351701
0.010337554
0.01032358
0.010309751
0.010296039
0.010282413
0.010268843
0.010255296
0.010241737
0.01022813
0.010214439
0.010200624
0.010186648
0.010172473
0.010158061
0.010143371
0.010128358
0.01011297
0.010097156
0.010080872
0.010064146
0.010047332
0.010032178
0.01002039
0.010010966
0.010003649
0.0099980817
0.0099940014
0.0099911835
0.009989435
0.0099885841
0.009988364
0.0099888166
0.0099898085
0.0099913506
0.0099934249
0.0099959342
0.0099986569
0.013334211
0.012101453
0.011694852
0.011572384
0.011474147
0.011398827
0.011333106
0.011274414
0.011220691
0.011170949
0.011124511
0.011080917
0.011039822
0.011000955
0.010964098
0.010929066
0.010895704
0.010863877
0.010833467
0.010804369
0.01077649
0.010749745
0.010724058
0.01069936
0.010675586
0.010652678
0.010630581
0.010609245
0.010588621
0.010568667
0.01054934
0.0105306
0.010512409
0.010494731
0.010477532
0.010460777
0.010444433
0.010428469
0.010412853
0.010397555
0.010382544
0.010367792
0.010353269
0.010338948
0.010324799
0.010310794
0.010296906
0.010283103
0.010269357
0.010255634
0.010241899
0.010228118
0.010214254
0.010200268
0.010186125
0.010171789
0.010157221
0.010142383
0.01012723
0.010111714
0.010095784
0.010079404
0.010062627
0.010045908
0.010031401
0.010019943
0.010010778
0.010003629
0.0099981694
0.0099941422
0.0099913292
0.0099895583
0.0099886962
0.0099884763
0.0099889429
0.0099899427
0.0099914591
0.009993397
0.0099957347
0.0099984815
66.026807
360.31825
121.19536
14.631676
0.40418413
0.021415941
0.020129511
0.019823913
0.019560703
0.018506536
0.017170682
0.015982598
0.015080598
0.014508247
0.014101762
0.013716408
0.013340997
0.013008138
0.012728795
0.012495172
0.012296598
0.012125344
0.011976265
0.011845559
0.01173017
0.011627604
0.011535872
0.011453378
0.01137887
0.011311358
0.011250023
0.011194151
0.01114312
0.011096405
0.011053594
0.011014352
0.010978394
0.010945467
0.010915337
0.010887793
0.01086265
0.010839727
0.010818843
0.010799827
0.010782515
0.010766746
0.010752356
0.010739194
0.010727129
0.010716043
0.010705821