/*--------------------------------*- C++ -*----------------------------------*\
  =========                 |
  \\      /  F ield         | OpenFOAM: The Open Source CFD Toolbox
   \\    /   O peration     | Website:  https://openfoam.org
    \\  /    A nd           | Version:  12
     \\/     M anipulation  |
\*---------------------------------------------------------------------------*/
FoamFile
{
    format      ascii;
    class       volScalarField;
    location    "0.13";
    object      rho;
}
// * * * * * * * * * * * * * * * * * * * * * * * * * * * * * * * * * * * * * //

dimensions      [1 -3 0 0 0 0 0];

internalField   nonuniform List<scalar> 
16000
(
1.0583921
1.0909756
1.0788215
1.0871253
1.0833003
1.086725
1.0857505
1.0875649
1.0877127
1.0889169
1.089566
1.0905772
1.0914522
1.092446
1.0934391
1.0944842
1.0955615
1.0966787
1.0978338
1.0990278
1.1002606
1.1015324
1.1028427
1.1041913
1.1055774
1.1070002
1.1084585
1.1099511
1.1114761
1.1130317
1.1146155
1.1162251
1.1178576
1.11951
1.1211788
1.1228606
1.1245514
1.1262474
1.1279443
1.129638
1.1313242
1.1329985
1.1346568
1.1362947
1.1379083
1.1394938
1.1410474
1.1425658
1.1440459
1.145485
1.1468805
1.1482304
1.1495329
1.1507865
1.1519899
1.1531425
1.1542434
1.1552924
1.1562893
1.1572341
1.1581269
1.1589679
1.1597576
1.1604966
1.1611851
1.1618236
1.1624126
1.1629523
1.1634435
1.1638872
1.1642849
1.1646382
1.164948
1.1652142
1.1654364
1.1656165
1.1657594
1.1657887
1.1660678
1.1653912
1.0551497
1.0882547
1.075625
1.0843407
1.0802911
1.0839851
1.0829107
1.0848972
1.0850391
1.0863462
1.0870476
1.0881344
1.0890838
1.0901523
1.0912262
1.0923526
1.0935151
1.0947198
1.0959654
1.0972525
1.0985808
1.0999502
1.1013602
1.1028101
1.1042988
1.1058252
1.1073877
1.1089845
1.1106134
1.1122719
1.1139574
1.1156667
1.1173965
1.1191431
1.1209027
1.1226711
1.1244441
1.1262171
1.1279857
1.1297453
1.1314912
1.1332189
1.1349242
1.1366027
1.1382504
1.1398636
1.1414389
1.1429732
1.1444637
1.1459082
1.1473045
1.148651
1.1499466
1.1511902
1.1523811
1.1535191
1.154604
1.1556359
1.156615
1.1575419
1.1584169
1.1592406
1.1600138
1.1607371
1.1614112
1.1620365
1.1626134
1.1631423
1.1636235
1.1640577
1.1644462
1.1647906
1.1650917
1.1653498
1.1655645
1.1657357
1.1658553
1.1659348
1.1660468
1.1655478
1.0522164
1.0857714
1.0726958
1.0817912
1.0776005
1.0814959
1.080393
1.0824992
1.0826829
1.0840733
1.0848487
1.0860124
1.0870476
1.0881993
1.0893638
1.0905816
1.0918398
1.0931426
1.0944889
1.0958791
1.0973127
1.0987891
1.1003074
1.1018667
1.1034656
1.1051022
1.1067747
1.1084807
1.1102175
1.1119821
1.1137711
1.1155809
1.1174075
1.1192467
1.1210939
1.1229445
1.1247937
1.1266365
1.1284681
1.1302834
1.1320778
1.1338465
1.1355852
1.1372897
1.1389562
1.1405813
1.1421618
1.1436951
1.1451791
1.1466118
1.1479919
1.1493184
1.1505906
1.1518082
1.1529712
1.1540796
1.1551341
1.1561351
1.1570833
1.1579797
1.158825
1.1596202
1.1603662
1.1610639
1.1617141
1.1623174
1.1628743
1.1633849
1.1638494
1.1642684
1.1646426
1.1649735
1.1652619
1.1655085
1.1657122
1.165869
1.1659789
1.1660646
1.1660712
1.1657299
1.0496048
1.0835345
1.0700581
1.0794993
1.0751739
1.0793015
1.0781753
1.0804194
1.0806541
1.0821408
1.0830043
1.0842567
1.0853923
1.0866402
1.0879088
1.0892311
1.0905973
1.0920101
1.0934686
1.0949728
1.0965219
1.0981151
1.0997511
1.1014285
1.1031455
1.1048999
1.1066891
1.1085102
1.1103597
1.1122341
1.1141292
1.1160407
1.1179638
1.1198936
1.121825
1.1237526
1.1256711
1.1275751
1.1294593
1.1313187
1.1331482
1.1349433
1.1366996
1.1384133
1.1400809
1.1416994
1.1432663
1.1447796
1.1462377
1.1476396
1.1489845
1.1502723
1.1515029
1.1526768
1.1537945
1.154857
1.1558652
1.1568203
1.1577233
1.1585756
1.1593783
1.1601327
1.1608399
1.1615011
1.1621172
1.1626889
1.1632168
1.1637009
1.1641413
1.1645382
1.1648921
1.1652039
1.1654746
1.1657051
1.1658926
1.1660319
1.1661332
1.1662011
1.1661403
1.1659126
1.0473521
1.0816678
1.0678047
1.0775325
1.0730657
1.0774661
1.0763302
1.0787179
1.0790245
1.0806153
1.0815857
1.0829364
1.0841858
1.0855407
1.0869236
1.0883604
1.0898439
1.0913761
1.092956
1.0945832
1.0962569
1.0979758
1.0997382
1.1015422
1.1033852
1.1052644
1.1071765
1.1091177
1.1110839
1.1130704
1.1150724
1.1170845
1.1191012
1.1211169
1.1231256
1.1251214
1.1270985
1.1290511
1.1309736
1.132861
1.1347083
1.136511
1.1382653
1.1399678
1.1416155
1.1432062
1.1447381
1.14621
1.1476213
1.1489718
1.1502616
1.1514913
1.1526618
1.1537744
1.1548302
1.1558308
1.1567777
1.1576727
1.1585172
1.159313
1.1600614
1.160764
1.1614222
1.1620373
1.1626102
1.1631419
1.1636328
1.1640831
1.1644927
1.1648615
1.1651895
1.1654773
1.165726
1.1659362
1.1661033
1.1662234
1.1663134
1.1663517
1.1662419
1.1661105
1.045505
1.08019
1.0659793
1.0760153
1.0714554
1.0760653
1.074918
1.0774699
1.077864
1.0795644
1.0806535
1.0821058
1.0834756
1.0849437
1.086448
1.0880076
1.0896177
1.0912793
1.0929913
1.0947529
1.0965626
1.0984184
1.1003181
1.1022588
1.1042371
1.1062494
1.1082911
1.1103576
1.1124436
1.1145435
1.1166513
1.1187609
1.1208656
1.1229591
1.1250348
1.1270861
1.1291069
1.1310913
1.1330335
1.1349287
1.1367722
1.13856
1.1402889
1.1419563
1.1435601
1.145099
1.1465723
1.1479798
1.1493218
1.1505992
1.1518132
1.1529652
1.1540571
1.1550907
1.1560681
1.1569915
1.1578629
1.1586844
1.159458
1.1601857
1.1608691
1.16151
1.1621099
1.1626701
1.1631917
1.1636757
1.1641226
1.1645324
1.164905
1.1652399
1.1655369
1.1657961
1.1660186
1.1662046
1.1663474
1.1664469
1.1665218
1.1665225
1.1663738
1.1663299
1.0440606
1.07911
1.0645869
1.0749608
1.0703098
1.075124
1.074023
1.0767042
1.0772026
1.0789884
1.080203
1.0817609
1.0832614
1.0848556
1.0864953
1.0881934
1.0899464
1.091754
1.0936146
1.0955267
1.0974878
1.0994953
1.1015456
1.103635
1.105759
1.1079126
1.1100902
1.1122857
1.1144929
1.1167047
1.1189141
1.1211139
1.1232966
1.1254551
1.1275822
1.129671
1.1317152
1.133709
1.1356469
1.1375244
1.1393377
1.1410836
1.1427598
1.1443649
1.1458978
1.1473586
1.1487478
1.1500663
1.1513158
1.1524981
1.1536156
1.1546706
1.1556658
1.1566039
1.1574876
1.1583196
1.1591025
1.1598386
1.1605304
1.1611799
1.1617891
1.1623598
1.1628934
1.1633915
1.163855
1.1642849
1.1646817
1.1650454
1.1653758
1.165672
1.1659335
1.16616
1.1663528
1.1665107
1.1666262
1.1667039
1.1667604
1.1667176
1.1665379
1.1665776
1.0429581
1.0783695
1.063559
1.0743155
1.0695666
1.0746057
1.0735336
1.0764093
1.0769334
1.0788343
1.0802086
1.0818985
1.0835561
1.0853024
1.0871016
1.0889619
1.0908803
1.0928556
1.0948855
1.0969674
1.099098
1.1012733
1.1034887
1.105739
1.1080183
1.1103201
1.1126375
1.1149629
1.1172885
1.1196062
1.1219077
1.1241847
1.1264292
1.1286333
1.1307895
1.132891
1.1349316
1.1369059
1.1388094
1.1406383
1.14239
1.1440625
1.145655
1.1471673
1.1486001
1.1499548
1.1512333
1.152438
1.1535717
1.1546374
1.1556386
1.1565785
1.1574605
1.1582881
1.1590644
1.1597927
1.1604758
1.1611165
1.1617173
1.1622804
1.1628078
1.1633013
1.1637624
1.1641924
1.1645925
1.1649633
1.1653053
1.1656185
1.1659024
1.1661561
1.1663784
1.1665691
1.1667291
1.1668556
1.1669414
1.1669968
1.1670311
1.1669406
1.1667392
1.1668596
1.0421928
1.0779553
1.0628804
1.0740998
1.0691666
1.0743712
1.073389
1.076305
1.077138
1.0791821
1.0807462
1.0825931
1.0844329
1.0863572
1.0883409
1.0903883
1.0924962
1.0946624
1.0968835
1.0991555
1.1014738
1.1038329
1.1062266
1.108648
1.1110893
1.1135426
1.115999
1.1184495
1.1208846
1.1232951
1.1256715
1.1280048
1.1302864
1.1325082
1.1346629
1.1367441
1.1387464
1.1406654
1.1424978
1.1442414
1.1458951
1.1474589
1.1489335
1.1503207
1.1516229
1.1528429
1.1539844
1.155051
1.156047
1.1569763
1.1578432
1.158652
1.1594066
1.160111
1.1607687
1.1613833
1.1619579
1.1624953
1.162998
1.1634685
1.1639085
1.1643198
1.1647039
1.1650618
1.1653945
1.1657027
1.1659865
1.166246
1.1664805
1.1666889
1.1668696
1.1670222
1.167147
1.1672395
1.1672943
1.1673272
1.1673353
1.1671935
1.1669798
1.1671831
1.0417987
1.0779028
1.0625905
1.0742337
1.0691626
1.0746251
1.0737883
1.0769016
1.0779177
1.0801099
1.0818935
1.0839249
1.0859736
1.0881048
1.0903005
1.0925621
1.0948854
1.0972668
1.0997014
1.1021836
1.1047068
1.1072636
1.1098458
1.1124443
1.1150494
1.1176509
1.1202382
1.1228006
1.1253272
1.1278075
1.1302314
1.1325894
1.1348729
1.1370743
1.139187
1.1412057
1.1431266
1.1449469
1.1466655
1.1482821
1.1497979
1.151215
1.1525362
1.1537654
1.1549067
1.1559648
1.1569446
1.1578513
1.1586901
1.1594659
1.1601838
1.1608486
1.1614646
1.1620361
1.162567
1.1630608
1.1635207
1.1639496
1.1643498
1.1647237
1.1650729
1.1653991
1.1657033
1.1659868
1.16625
1.1664935
1.1667174
1.1669214
1.1671048
1.1672662
1.1674039
1.1675173
1.1676053
1.1676623
1.1676859
1.1676963
1.1676737
1.1674788
1.1672644
1.1675528
1.041842
1.0782814
1.0627403
1.0745783
1.0696477
1.0753975
1.0747684
1.0780405
1.0793286
1.081696
1.0837336
1.0859839
1.0882725
1.0906423
1.0930804
1.0955851
1.0981511
1.1007726
1.1034428
1.1061537
1.1088963
1.1116607
1.114436
1.1172107
1.1199726
1.1227094
1.1254085
1.1280577
1.130645
1.1331592
1.1355899
1.137928
1.1401657
1.1422967
1.1443161
1.1462208
1.1480093
1.1496815
1.1512387
1.1526836
1.1540198
1.1552519
1.1563851
1.1574251
1.1583779
1.1592499
1.1600471
1.1607759
1.1614421
1.1620515
1.1626095
1.1631212
1.1635913
1.164024
1.1644232
1.1647923
1.1651345
1.1654524
1.1657482
1.166024
1.1662813
1.1665213
1.1667451
1.1669534
1.1671467
1.1673251
1.1674885
1.1676367
1.1677686
1.1678826
1.167977
1.168051
1.1681017
1.1681227
1.1681165
1.1681045
1.1680466
1.1678008
1.1675989
1.1679679
1.0424042
1.0791637
1.0634293
1.0755638
1.0707995
1.0767902
1.076418
1.0798676
1.0814679
1.0840386
1.0863644
1.0888717
1.0914344
1.0940781
1.0967919
1.0995711
1.1024082
1.1052948
1.108221
1.1111757
1.1141468
1.1171211
1.1200847
1.1230232
1.1259221
1.1287669
1.1315433
1.134238
1.1368386
1.139334
1.1417148
1.1439732
1.1461036
1.1481022
1.1499671
1.1516984
1.1532978
1.1547687
1.1561156
1.1573441
1.1584607
1.1594723
1.1603865
1.1612107
1.1619525
1.1626193
1.1632184
1.1637564
1.1642399
1.164675
1.1650671
1.1654213
1.1657422
1.166034
1.1663003
1.1665443
1.1667688
1.1669761
1.1671683
1.1673469
1.1675133
1.1676683
1.1678128
1.1679471
1.1680715
1.1681858
1.1682898
1.168383
1.1684641
1.1685315
1.1685836
1.1686189
1.1686329
1.168619
1.1685854
1.168551
1.1684544
1.1681656
1.1679889
1.1684248
1.0434806
1.0805564
1.0646552
1.0772088
1.0726047
1.0788371
1.0788021
1.0824441
1.0844186
1.0872351
1.0898897
1.0927002
1.0955783
1.0985365
1.1015635
1.104651
1.1077879
1.110962
1.1141594
1.1173651
1.1205631
1.1237365
1.1268682
1.129941
1.1329379
1.1358429
1.1386409
1.1413185
1.1438643
1.1462688
1.1485252
1.1506289
1.152578
1.1543725
1.1560149
1.1575094
1.1588618
1.1600792
1.1611694
1.1621413
1.1630037
1.1637659
1.164437
1.1650258
1.165541
1.1659907
1.1663825
1.1667235
1.1670202
1.1672785
1.1675037
1.1677007
1.1678738
1.1680266
1.1681623
1.168284
1.1683938
1.1684937
1.1685854
1.16867
1.1687486
1.1688218
1.1688898
1.1689529
1.1690109
1.1690636
1.1691105
1.1691507
1.169183
1.1692056
1.1692173
1.1692156
1.1691943
1.169148
1.1690905
1.1690336
1.168896
1.1685782
1.168441
1.1689191
1.0451245
1.0825104
1.0664786
1.0794768
1.0751469
1.0816313
1.0820237
1.0858832
1.0882935
1.0914109
1.0944424
1.0976102
1.1008524
1.1041707
1.1075504
1.1109785
1.1144388
1.1179142
1.1213859
1.1248343
1.1282391
1.1315796
1.1348354
1.1379871
1.1410162
1.1439065
1.1466437
1.1492166
1.1516167
1.1538388
1.1558805
1.1577427
1.1594284
1.1609432
1.1622946
1.1634915
1.1645437
1.1654621
1.1662576
1.1669415
1.1675246
1.1680177
1.1684309
1.1687739
1.1690555
1.1692841
1.1694671
1.1696115
1.1697233
1.169808
1.1698706
1.1699152
1.1699456
1.169965
1.169976
1.169981
1.1699818
1.1699799
1.1699765
1.1699724
1.1699681
1.169964
1.16996
1.1699561
1.1699517
1.1699464
1.1699395
1.1699299
1.1699163
1.169897
1.169871
1.1698347
1.1697805
1.1697058
1.1696284
1.1695487
1.1693687
1.1690355
1.1689553
1.1694481
1.0473962
1.0850851
1.0690092
1.0824957
1.0785258
1.0852737
1.0861981
1.0903173
1.0932346
1.0967271
1.100196
1.1037838
1.1074438
1.1111672
1.1149342
1.1187253
1.1225186
1.1262909
1.130018
1.1336749
1.137237
1.1406802
1.1439818
1.1471218
1.1500827
1.1528506
1.1554154
1.157771
1.1599151
1.161849
1.1635773
1.1651075
1.1664492
1.1676136
1.1686134
1.1694618
1.1701724
1.1707588
1.1712342
1.1716113
1.1719022
1.1721181
1.1722695
1.1723659
1.172416
1.1724276
1.1724076
1.1723622
1.172297
1.1722166
1.1721251
1.1720262
1.1719228
1.1718174
1.1717122
1.1716087
1.1715085
1.1714123
1.171321
1.171235
1.1711543
1.1710789
1.1710086
1.1709428
1.170881
1.1708224
1.1707661
1.1707108
1.170655
1.1705975
1.1705371
1.1704692
1.1703855
1.1702872
1.1701943
1.1700916
1.1698687
1.169533
1.1695251
1.1700017
1.0503536
1.0883129
1.0723734
1.086337
1.0828631
1.0899003
1.0914894
1.0959427
1.0994498
1.1034067
1.10738
1.1114497
1.115575
1.1197373
1.12391
1.128066
1.132176
1.1362098
1.1401368
1.1439272
1.1475528
1.1509884
1.1542123
1.1572075
1.1599619
1.1624685
1.1647251
1.1667345
1.1685032
1.1700413
1.1713614
1.1724781
1.1734073
1.1741656
1.1747696
1.1752359
1.1755805
1.1758185
1.175964
1.1760303
1.1760293
1.1759721
1.1758685
1.1757273
1.1755563
1.1753624
1.1751515
1.174929
1.1746993
1.1744663
1.1742331
1.1740026
1.173777
1.173558
1.1733471
1.1731454
1.1729535
1.1727722
1.1726014
1.1724414
1.1722918
1.1721522
1.1720221
1.1719007
1.1717872
1.1716807
1.17158
1.1714836
1.1713902
1.1712988
1.1712078
1.1711116
1.1710027
1.1708865
1.1707819
1.1706569
1.1703946
1.1700618
1.1701348
1.1705857
1.054066
1.0922022
1.0766986
1.0911492
1.0883622
1.0957543
1.0981576
1.1030395
1.107217
1.1117254
1.1162632
1.120864
1.1254858
1.1300989
1.1346672
1.1391534
1.1435194
1.1477273
1.1517416
1.1555302
1.1590661
1.1623281
1.1653017
1.1679794
1.1703597
1.1724473
1.1742518
1.175787
1.1770697
1.1781189
1.1789547
1.179598
1.1800694
1.1803889
1.1805757
1.1806478
1.1806218
1.1805131
1.1803353
1.1801011
1.1798214
1.179506
1.1791637
1.1788019
1.1784272
1.1780452
1.1776607
1.1772778
1.1768999
1.1765298
1.1761699
1.175822
1.1754875
1.1751676
1.174863
1.1745741
1.1743014
1.1740446
1.1738038
1.1735784
1.173368
1.1731718
1.1729891
1.1728188
1.1726599
1.1725114
1.1723717
1.1722395
1.1721135
1.1719928
1.1718752
1.1717545
1.1716252
1.171497
1.1713842
1.1712387
1.1709465
1.1706199
1.1707689
1.1712124
1.0587211
1.0968965
1.0822138
1.097259
1.0953547
1.1031645
1.1065245
1.1119302
1.1168462
1.1219846
1.1271363
1.1322985
1.1374197
1.1424548
1.1473545
1.1520703
1.1565562
1.160771
1.1646804
1.1682582
1.1714872
1.1743594
1.1768751
1.1790422
1.1808748
1.182392
1.1836163
1.1845726
1.1852867
1.1857845
1.1860918
1.1862327
1.1862304
1.1861059
1.1858788
1.1855666
1.185185
1.1847481
1.1842681
1.1837559
1.1832208
1.182671
1.1821135
1.1815542
1.1809981
1.1804495
1.1799118
1.179388
1.1788803
1.1783905
1.1779201
1.1774701
1.1770412
1.1766337
1.176248
1.1758838
1.175541
1.1752192
1.1749178
1.1746361
1.1743732
1.1741283
1.1739003
1.173688
1.1734902
1.1733056
1.1731328
1.1729703
1.1728169
1.1726717
1.1725317
1.1723906
1.1722462
1.1721113
1.1719928
1.1718291
1.1715193
1.1712162
1.1714289
1.1718593
1.0646012
1.1029664
1.0893172
1.1050048
1.1041862
1.1124538
1.116918
1.1229662
1.1286904
1.1345294
1.1403227
1.1460326
1.1515899
1.156932
1.1619979
1.166734
1.1710961
1.1750517
1.1785807
1.1816753
1.184339
1.1865848
1.1884336
1.189912
1.1910505
1.1918815
1.1924383
1.1927537
1.192859
1.192784
1.1925559
1.1921997
1.1917379
1.1911905
1.1905753
1.1899078
1.1892015
1.1884681
1.1877177
1.1869589
1.186199
1.1854441
1.1846993
1.183969
1.1832566
1.1825649
1.1818961
1.1812519
1.1806335
1.180042
1.1794778
1.1789412
1.1784322
1.1779507
1.1774963
1.1770684
1.1766665
1.1762897
1.1759371
1.1756079
1.1753009
1.1750149
1.1747488
1.1745013
1.1742709
1.1740564
1.1738561
1.1736687
1.1734931
1.1733281
1.1731699
1.173013
1.1728587
1.1727214
1.1725988
1.1724195
1.1721059
1.171848
1.1721127
1.1725002
1.0718962
1.1109577
1.0982093
1.1146103
1.1152231
1.1240374
1.1297735
1.1366146
1.1432037
1.1497623
1.1561409
1.1622678
1.1680583
1.1734416
1.1783603
1.1827738
1.186659
1.1900097
1.1928348
1.1951557
1.1970032
1.1984147
1.1994313
1.2000961
1.2004517
1.2005393
1.2003976
1.2000625
1.1995663
1.1989383
1.1982041
1.1973863
1.1965048
1.1955764
1.1946158
1.1936354
1.1926459
1.1916561
1.1906735
1.1897043
1.1887536
1.1878254
1.1869232
1.1860495
1.1852064
1.1843953
1.1836173
1.1828731
1.182163
1.1814871
1.1808451
1.1802368
1.1796616
1.1791188
1.1786076
1.178127
1.1776762
1.1772539
1.1768592
1.1764908
1.1761473
1.1758276
1.1755303
1.1752539
1.1749971
1.1747583
1.174536
1.1743288
1.1741359
1.1739555
1.1737833
1.1736151
1.1734559
1.1733191
1.1731928
1.1730027
1.1726997
1.1725008
1.1728002
1.17311
1.0807338
1.1207276
1.109488
1.1266206
1.1291055
1.1386025
1.1457339
1.1534675
1.1608686
1.1680006
1.1747116
1.1809131
1.1865277
1.1915048
1.1958185
1.199467
1.2024683
1.2048566
1.2066777
1.2079842
1.2088322
1.2092787
1.2093784
1.2091831
1.2087406
1.2080936
1.2072805
1.2063349
1.2052859
1.2041588
1.2029751
1.2017531
1.2005083
1.1992538
1.1980002
1.1967566
1.1955305
1.1943278
1.1931533
1.192011
1.1909038
1.189834
1.1888034
1.1878131
1.1868638
1.1859559
1.1850895
1.1842643
1.1834799
1.1827356
1.1820308
1.1813645
1.1807356
1.1801432
1.179586
1.1790629
1.1785724
1.1781135
1.1776846
1.1772845
1.1769117
1.1765649
1.1762425
1.1759432
1.1756654
1.1754076
1.1751681
1.174946
1.1747401
1.1745481
1.1743658
1.174191
1.1740308
1.1738958
1.1737659
1.1735707
1.1732909
1.1731504
1.1734604
1.1736822
1.0918512
1.1331851
1.1240524
1.141976
1.146778
1.1570384
1.1654957
1.1739989
1.1818926
1.1891529
1.1956556
1.2013404
1.2061794
1.210179
1.213373
1.2158158
1.217575
1.2187254
1.2193439
1.2195058
1.2192818
1.2187367
1.2179288
1.2169094
1.215723
1.214408
1.212997
1.2115175
1.2099928
1.208442
1.2068813
1.2053237
1.2037801
1.2022591
1.2007679
1.199312
1.1978958
1.1965228
1.1951953
1.1939153
1.192684
1.1915021
1.1903699
1.1892874
1.1882542
1.1872699
1.1863335
1.1854443
1.1846011
1.1838028
1.1830482
1.1823359
1.1816646
1.1810328
1.1804392
1.1798822
1.1793603
1.1788722
1.1784163
1.1779912
1.1775953
1.1772271
1.1768851
1.176568
1.176274
1.1760016
1.1757494
1.1755165
1.1753013
1.1751011
1.1749123
1.1747347
1.1745766
1.1744439
1.1743103
1.1741147
1.1738634
1.173773
1.1740776
1.1742351
1.1068037
1.1494238
1.143171
1.1617407
1.1692023
1.180112
1.1894149
1.1981211
1.2057848
1.2123842
1.217884
1.2223083
1.2257164
1.2281942
1.2298427
1.2307689
1.2310786
1.2308718
1.2302396
1.2292633
1.2280133
1.2265505
1.2249261
1.2231831
1.2213575
1.2194786
1.2175707
1.2156536
1.2137433
1.2118526
1.2099918
1.208169
1.2063906
1.2046615
1.2029853
1.2013647
1.1998015
1.1982969
1.1968516
1.1954656
1.1941387
1.1928705
1.1916601
1.1905066
1.1894087
1.1883653
1.187375
1.1864362
1.1855475
1.1847073
1.183914
1.183166
1.1824615
1.1817991
1.1811769
1.1805935
1.1800471
1.1795363
1.1790594
1.1786147
1.1782009
1.1778162
1.1774592
1.1771284
1.1768222
1.1765391
1.1762779
1.1760374
1.1758159
1.1756105
1.1754183
1.1752412
1.175087
1.1749565
1.1748199
1.1746285
1.1744103
1.1743639
1.1746514
1.1747527
1.1270724
1.1707375
1.1682698
1.1869325
1.1967601
1.2077847
1.2169127
1.2247387
1.2310977
1.2360564
1.2397102
1.2421965
1.2436674
1.2442776
1.2441741
1.2434905
1.2423446
1.2408371
1.2390534
1.2370641
1.2349275
1.2326907
1.2303921
1.2280624
1.2257262
1.2234028
1.2211075
1.2188523
1.2166464
1.2144968
1.2124087
1.210386
1.2084312
1.206546
1.2047314
1.2029878
1.2013149
1.1997122
1.1981788
1.1967136
1.1953154
1.1939825
1.1927135
1.1915066
1.19036
1.1892721
1.1882409
1.1872645
1.1863412
1.185469
1.184646
1.1838705
1.1831407
1.1824546
1.1818105
1.1812067
1.1806414
1.180113
1.1796198
1.1791602
1.1787326
1.1783354
1.177967
1.177626
1.1773108
1.1770199
1.1767524
1.1765068
1.1762813
1.176073
1.1758801
1.1757058
1.1755561
1.1754268
1.1752884
1.175107
1.174926
1.1749149
1.1751673
1.1752145
1.1552491
1.1979204
1.2004486
1.2184436
1.2286421
1.2384557
1.2460108
1.251703
1.2556598
1.2581189
1.2593156
1.2594804
1.2588207
1.2575169
1.2557207
1.2535572
1.2511276
1.248513
1.2457776
1.2429719
1.2401353
1.2372984
1.2344847
1.2317123
1.2289948
1.2263423
1.2237622
1.22126
1.2188391
1.2165019
1.2142496
1.2120826
1.2100008
1.2080033
1.2060892
1.2042569
1.2025049
1.2008314
1.1992343
1.1977117
1.1962615
1.1948815
1.1935694
1.1923233
1.1911408
1.1900198
1.1889581
1.1879536
1.1870042
1.1861078
1.1852625
1.1844661
1.1837168
1.1830126
1.1823516
1.1817321
1.1811523
1.1806104
1.1801047
1.1796336
1.1791954
1.1787886
1.1784116
1.1780629
1.1777411
1.1774447
1.1771727
1.1769237
1.1766956
1.1764861
1.1762945
1.1761239
1.175978
1.1758492
1.1757115
1.1755456
1.1754015
1.1754133
1.1756192
1.1756165
1.1939127
1.232774
1.2385102
1.2537498
1.2628299
1.2697011
1.2740568
1.2764432
1.2772192
1.2767487
1.2753297
1.2732086
1.2705811
1.2676003
1.2643844
1.2610235
1.2575859
1.2541231
1.2506732
1.2472648
1.2439185
1.2406494
1.2374682
1.2343822
1.2313962
1.228513
1.2257339
1.2230594
1.2204888
1.218021
1.2156544
1.2133868
1.2112162
1.2091401
1.207156
1.2052612
1.2034531
1.201729
1.2000863
1.1985222
1.1970342
1.1956196
1.1942759
1.1930005
1.1917911
1.1906451
1.1895602
1.1885342
1.1875646
1.1866495
1.1857865
1.1849737
1.1842089
1.1834903
1.1828158
1.1821837
1.1815921
1.1810392
1.1805234
1.180043
1.1795962
1.1791817
1.1787978
1.1784429
1.1781158
1.1778151
1.1775396
1.1772879
1.1770581
1.1768483
1.1766585
1.1764911
1.1763474
1.176219
1.1760858
1.17594
1.1758276
1.175843
1.1759881
1.1759661
1.2412585
1.2736596
1.2807771
1.2905278
1.295403
1.2977247
1.2978806
1.296517
1.2940656
1.2908699
1.2871815
1.2831851
1.2790146
1.2747659
1.2705076
1.266288
1.262141
1.2580898
1.2541501
1.250332
1.2466415
1.243082
1.2396544
1.2363585
1.2331926
1.2301546
1.2272417
1.2244508
1.2217786
1.2192215
1.2167761
1.2144387
1.2122058
1.2100739
1.2080396
1.2060994
1.20425
1.2024883
1.200811
1.1992152
1.1976978
1.196256
1.1948869
1.1935879
1.1923563
1.1911895
1.1900851
1.1890406
1.1880538
1.1871222
1.1862438
1.1854163
1.1846378
1.1839061
1.1832194
1.1825758
1.1819734
1.1814105
1.1808853
1.1803962
1.1799416
1.1795198
1.1791294
1.1787688
1.1784368
1.178132
1.1778531
1.1775987
1.1773672
1.1771571
1.1769685
1.1768027
1.1766593
1.1765309
1.1764049
1.1762803
1.1761915
1.1761962
1.1762822
1.1762462
1.2950749
1.3156481
1.320178
1.3225343
1.3217434
1.3191069
1.3152359
1.310618
1.3055727
1.3003164
1.2949925
1.2896953
1.2844862
1.2794042
1.2744735
1.2697081
1.2651153
1.2606977
1.256455
1.2523847
1.2484831
1.2447456
1.2411671
1.2377423
1.2344659
1.2313324
1.2283364
1.2254729
1.2227367
1.2201229
1.217627
1.2152443
1.2129706
1.2108016
1.2087334
1.2067621
1.2048841
1.2030958
1.2013939
1.199775
1.1982359
1.1967738
1.1953855
1.1940683
1.1928195
1.1916363
1.1905164
1.1894571
1.1884562
1.1875112
1.1866201
1.1857805
1.1849904
1.1842479
1.1835508
1.1828974
1.1822858
1.1817143
1.1811811
1.1806846
1.1802231
1.1797951
1.1793991
1.1790335
1.1786972
1.1783887
1.1781067
1.17785
1.1776169
1.1774066
1.1772186
1.1770532
1.1769088
1.1767804
1.1766621
1.1765558
1.1764811
1.1764647
1.1764941
1.1764658
1.3477017
1.3509974
1.3497844
1.3453442
1.3395404
1.3329959
1.326173
1.3193122
1.312559
1.3059924
1.2996549
1.2935666
1.2877345
1.2821577
1.2768307
1.2717454
1.2668924
1.2622616
1.257843
1.2536267
1.2496031
1.2457629
1.2420976
1.2385989
1.2352591
1.232071
1.2290277
1.2261227
1.2233502
1.2207043
1.2181797
1.2157713
1.2134744
1.2112844
1.209197
1.207208
1.2053137
1.2035102
1.201794
1.2001618
1.1986101
1.197136
1.1957364
1.1944084
1.1931492
1.1919562
1.1908267
1.1897583
1.1887486
1.1877952
1.1868959
1.1860485
1.1852509
1.1845011
1.1837972
1.1831372
1.1825193
1.1819418
1.181403
1.1809012
1.1804347
1.1800021
1.1796018
1.1792325
1.1788927
1.1785812
1.1782966
1.1780376
1.1778031
1.1775922
1.177404
1.1772378
1.1770919
1.1769641
1.1768529
1.1767604
1.1766924
1.1766544
1.1766393
1.176617
1.3815995
1.3740592
1.3665605
1.3583356
1.34979
1.3413361
1.3331394
1.3252739
1.3177682
1.3106253
1.3038369
1.2973884
1.2912626
1.2854417
1.2799081
1.2746448
1.269636
1.2648668
1.2603235
1.2559934
1.2518648
1.247927
1.24417
1.2405847
1.2371626
1.2338958
1.230777
1.2277994
1.2249568
1.2222432
1.219653
1.2171811
1.2148226
1.2125727
1.2104272
1.2083818
1.2064327
1.2045761
1.2028084
1.2011262
1.1995261
1.1980051
1.1965601
1.1951883
1.1938868
1.1926529
1.1914841
1.1903779
1.1893318
1.1883435
1.1874107
1.1865313
1.1857031
1.1849241
1.1841924
1.183506
1.1828631
1.182262
1.1817009
1.1811781
1.1806919
1.1802409
1.1798236
1.1794385
1.1790841
1.1787593
1.1784625
1.1781927
1.1779486
1.1777295
1.1775341
1.1773611
1.1772091
1.1770775
1.1769674
1.1768793
1.1768107
1.1767561
1.1767154
1.1767001
1.1634559
1.1680529
1.1825747
1.194372
1.1998391
1.2010998
1.2011704
1.2008418
1.2008751
1.2005865
1.2003296
1.1997762
1.1991848
1.1985427
1.1978567
1.1971306
1.1963687
1.1955769
1.19476
1.193922
1.1930671
1.1921986
1.1913197
1.1904334
1.1895423
1.1886487
1.1877548
1.1868627
1.185974
1.1850906
1.1842139
1.1833456
1.182487
1.1816394
1.1808042
1.1799825
1.1791757
1.1783848
1.1776111
1.1768557
1.1761197
1.1754043
1.1747104
1.1740393
1.173392
1.1727694
1.1721726
1.1716026
1.1710601
1.1705461
1.1700612
1.1696061
1.1691813
1.1687872
1.1684241
1.1680919
1.1677908
1.1675204
1.1672803
1.1670698
1.1668877
1.1667327
1.1666033
1.1664974
1.1664131
1.166347
1.1662979
1.1662587
1.1662364
1.1662076
1.1662124
1.1661636
1.1662155
1.1660869
1.1662348
1.1658994
1.1662485
1.165574
1.1662643
1.1650974
1.1592379
1.1701654
1.1863668
1.1946454
1.1968982
1.1968087
1.1962802
1.1960306
1.1957123
1.1954086
1.1950149
1.1946191
1.1941759
1.1936967
1.1931784
1.1926286
1.192048
1.1914395
1.1908055
1.1901482
1.1894701
1.1887733
1.1880601
1.1873328
1.1865935
1.1858444
1.1850876
1.1843251
1.183559
1.1827913
1.1820237
1.1812581
1.1804964
1.1797402
1.1789913
1.1782512
1.1775217
1.1768042
1.1761003
1.1754114
1.174739
1.1740846
1.1734494
1.1728349
1.1722422
1.1716727
1.1711274
1.1706075
1.1701141
1.1696479
1.1692099
1.1688007
1.1684209
1.1680709
1.1677509
1.167461
1.1672012
1.1669712
1.1667704
1.166598
1.1664529
1.1663336
1.1662384
1.1661654
1.1661124
1.166076
1.1660549
1.1660425
1.1660441
1.1660396
1.1660633
1.1660385
1.1661017
1.1659984
1.1661479
1.1658472
1.1661889
1.1655413
1.1662377
1.1650632
1.1598117
1.1732071
1.1848462
1.1911989
1.1921651
1.1916874
1.1911815
1.1909204
1.1906268
1.190344
1.1900119
1.1896761
1.1893056
1.1889224
1.1885124
1.1880826
1.18763
1.1871566
1.1866625
1.1861485
1.1856157
1.1850649
1.1844976
1.1839148
1.183318
1.1827086
1.1820882
1.1814583
1.1808206
1.1801767
1.1795285
1.1788776
1.1782258
1.1775748
1.1769266
1.1762828
1.1756452
1.1750157
1.1743958
1.1737874
1.1731921
1.1726115
1.1720473
1.1715011
1.1709742
1.1704681
1.1699842
1.1695238
1.169088
1.1686778
1.1682942
1.1679379
1.1676096
1.1673096
1.1670384
1.1667959
1.1665821
1.1663966
1.1662389
1.1661082
1.1660031
1.1659222
1.1658638
1.1658258
1.1658059
1.165801
1.1658091
1.1658245
1.1658512
1.1658715
1.1659152
1.165914
1.1659904
1.16591
1.1660643
1.1657935
1.166133
1.1655089
1.1662116
1.1650308
1.1575518
1.1718587
1.1825148
1.1872057
1.1870359
1.18665
1.186209
1.1860102
1.1856946
1.1854438
1.1851324
1.1848499
1.184536
1.1842254
1.1838945
1.183555
1.1832003
1.1828327
1.1824508
1.1820546
1.1816438
1.1812186
1.1807791
1.1803257
1.179859
1.1793795
1.1788882
1.178386
1.1778741
1.1773537
1.1768261
1.1762929
1.1757554
1.1752154
1.1746746
1.1741345
1.173597
1.1730639
1.172537
1.1720181
1.1715089
1.1710113
1.1705269
1.1700576
1.169605
1.1691706
1.168756
1.1683625
1.1679915
1.1676441
1.1673213
1.1670239
1.1667527
1.1665081
1.1662904
1.1660998
1.1659361
1.165799
1.1656878
1.1656018
1.1655396
1.1654996
1.1654801
1.165479
1.1654939
1.1655218
1.1655605
1.1656046
1.1656573
1.1657027
1.1657674
1.1657895
1.1658802
1.1658212
1.1659831
1.1657378
1.1660803
1.1654767
1.1661855
1.165001
1.1519415
1.1682692
1.178112
1.1816404
1.1810993
1.1810139
1.1806561
1.1805957
1.1803552
1.1802219
1.1800014
1.1798273
1.1796108
1.1794069
1.179181
1.1789503
1.1787053
1.1784497
1.1781815
1.1779006
1.1776069
1.1773001
1.1769802
1.1766474
1.1763017
1.1759438
1.1755738
1.1751926
1.1748009
1.1743995
1.1739895
1.173572
1.1731482
1.1727196
1.1722875
1.1718536
1.1714195
1.1709869
1.1705575
1.1701331
1.1697156
1.1693067
1.1689083
1.1685221
1.16815
1.1677935
1.1674543
1.1671339
1.1668335
1.1665546
1.166298
1.1660648
1.1658556
1.1656711
1.1655114
1.1653767
1.1652669
1.1651816
1.1651202
1.1650817
1.1650649
1.165068
1.1650894
1.1651269
1.1651782
1.1652401
1.1653104
1.165384
1.1654635
1.1655346
1.1656208
1.165666
1.1657718
1.1657336
1.1659041
1.1656818
1.1660282
1.1654456
1.1661598
1.1649737
1.1459718
1.1647298
1.1732021
1.1760996
1.1754113
1.1755812
1.1752682
1.1753452
1.1751698
1.1751482
1.175009
1.1749366
1.1748095
1.1747035
1.1745724
1.1744398
1.1742924
1.1741362
1.1739686
1.1737901
1.1736003
1.173399
1.1731861
1.1729616
1.1727255
1.172478
1.1722191
1.1719494
1.1716693
1.1713793
1.1710802
1.1707729
1.1704583
1.1701376
1.169812
1.1694828
1.1691515
1.1688197
1.168489
1.1681611
1.1678377
1.1675206
1.1672116
1.1669125
1.166625
1.1663508
1.1660916
1.1658487
1.1656237
1.1654177
1.165232
1.1650673
1.1649244
1.1648039
1.164706
1.1646308
1.1645782
1.1645478
1.1645389
1.1645505
1.1645813
1.1646296
1.1646936
1.1647713
1.1648601
1.1649571
1.1650598
1.1651638
1.1652706
1.1653676
1.1654759
1.1655441
1.165666
1.1656479
1.1658272
1.1656275
1.1659779
1.1654161
1.1661361
1.1649491
1.1407867
1.1613726
1.1683619
1.1709587
1.1701694
1.1705404
1.1702352
1.1704221
1.1702858
1.1703524
1.1702756
1.17029
1.1702376
1.1702093
1.1701515
1.1700979
1.170031
1.1699583
1.1698765
1.1697859
1.1696861
1.1695767
1.1694576
1.1693284
1.1691892
1.1690398
1.1688804
1.168711
1.168532
1.1683438
1.1681467
1.1679416
1.1677292
1.1675103
1.167286
1.1670574
1.1668258
1.1665926
1.1663592
1.1661272
1.1658982
1.1656738
1.1654557
1.1652456
1.1650452
1.1648561
1.1646799
1.164518
1.1643717
1.1642423
1.1641309
1.1640383
1.1639652
1.163912
1.1638792
1.1638666
1.1638741
1.1639012
1.1639472
1.1640111
1.1640914
1.1641866
1.1642948
1.1644138
1.1645413
1.1646742
1.1648102
1.1649449
1.1650795
1.1652026
1.1653332
1.1654245
1.1655626
1.1655646
1.1657526
1.1655753
1.1659298
1.1653885
1.1661144
1.1649271
1.1359647
1.158368
1.1638414
1.1663101
1.1654102
1.1659445
1.1656147