/*--------------------------------*- C++ -*----------------------------------*\
  =========                 |
  \\      /  F ield         | OpenFOAM: The Open Source CFD Toolbox
   \\    /   O peration     | Website:  https://openfoam.org
    \\  /    A nd           | Version:  12
     \\/     M anipulation  |
\*---------------------------------------------------------------------------*/
FoamFile
{
    format      ascii;
    class       volVectorField;
    location    "0.13";
    object      U;
}
// * * * * * * * * * * * * * * * * * * * * * * * * * * * * * * * * * * * * * //

dimensions      [0 1 -1 0 0 0 0];

internalField   nonuniform List<vector> 
16000
(
(215.21746 -3.1426879e-17 -8.3627604)
(252.0599 0 5.3722449)
(238.17579 0 -7.5576662)
(245.83787 4.9743745e-17 3.7739868)
(241.15939 -4.9099616e-17 -5.9493532)
(243.36107 0 1.7478764)
(241.57002 0 -4.3250459)
(242.07467 8.4042462e-17 -0.031120816)
(241.23647 -7.9846925e-17 -3.1598847)
(241.11466 0 -1.2689166)
(240.60156 7.2147212e-17 -2.5663533)
(240.25472 -2.0554761e-16 -1.9854404)
(239.81179 1.3009913e-16 -2.4243044)
(239.38379 -1.2375337e-16 -2.3610998)
(238.9278 1.1741817e-16 -2.5220807)
(238.45801 -3.4831242e-18 -2.5937511)
(237.96967 -3.3088182e-18 -2.6969526)
(237.4637 -9.7635161e-17 -2.7893975)
(236.93956 1.9128852e-16 -2.8835803)
(236.39711 -9.0759111e-17 -2.9755284)
(235.8362 1.7263415e-16 -3.0656237)
(235.25676 -1.6364359e-16 -3.153168)
(234.65881 0 -3.2376627)
(234.04244 1.5232369e-16 -3.3185268)
(233.40785 -4.1241019e-18 -3.3951715)
(232.75532 -2.6585102e-16 -3.4669767)
(232.08529 1.2600417e-16 -3.533316)
(231.39828 0 -3.5935503)
(230.69496 0 -3.6470444)
(229.97611 2.1882115e-16 -3.6931718)
(229.24269 -2.0388409e-16 -3.7313284)
(228.49574 0 -3.7609409)
(227.73649 0 -3.7814781)
(226.96627 0 -3.7924652)
(226.18655 5.1436506e-18 -3.7934935)
(225.3989 1.5609411e-16 -3.7842326)
(224.60504 -1.4289205e-16 -3.7644413)
(223.80675 -1.3994838e-16 -3.733976)
(223.00588 1.2391661e-16 -3.6927997)
(222.20438 0 -3.6409894)
(221.40419 -1.1859477e-16 -3.5787367)
(220.60731 1.1194112e-16 -3.506352)
(219.81568 -2.1214317e-16 -3.4242612)
(219.03127 2.0015333e-16 -3.3330017)
(218.25593 -1.9547357e-16 -3.2332162)
(217.49147 3.5788045e-16 -3.1256413)
(216.7396 5.603739e-18 -3.0110969)
(216.00189 2.9436028e-19 -2.8904716)
(215.27978 -1.5063262e-16 -2.7647061)
(214.57457 1.4246057e-16 -2.6347768)
(213.8874 -1.2583753e-16 -2.5016779)
(213.21924 0 -2.3664024)
(212.5709 7.4788319e-18 -2.2299273)
(211.94301 0 -2.0931963)
(211.33607 6.6550424e-18 -1.9571062)
(210.75038 2.0721856e-16 -1.8224963)
(210.1861 -3.7874221e-16 -1.6901371)
(209.64322 1.0939454e-17 -1.5607202)
(209.12156 1.6829667e-16 -1.4348497)
(208.6207 -1.4896114e-16 -1.3130516)
(208.14001 1.4031249e-16 -1.1957486)
(207.6787 -8.8289596e-18 -1.083309)
(207.23582 0 -0.97600591)
(206.81018 0 -0.87402777)
(206.40034 -1.1125167e-16 -0.77749874)
(206.00466 1.1193079e-16 -0.68647329)
(205.62134 -9.9176223e-17 -0.60094004)
(205.24854 1.9358415e-16 -0.52081045)
(204.88451 -1.889163e-16 -0.44590902)
(204.52762 8.3748277e-17 -0.37598764)
(204.17604 5.2882741e-18 -0.31077243)
(203.82728 0 -0.2500229)
(203.47791 4.7541037e-18 -0.19361272)
(203.12397 -4.515566e-18 -0.14153134)
(202.76228 0 -0.093398352)
(202.39195 -3.376334e-17 -0.049573532)
(202.00534 6.2490297e-17 -0.0095049392)
(201.64717 -3.1752765e-17 0.045128168)
(201.11122 0 0.0056412989)
(200.96837 0 0.26804509)
(216.5199 0 -11.178351)
(253.68707 -3.7302643e-18 3.3266982)
(239.13336 -1.1987243e-16 -10.477514)
(247.29106 1.1052871e-16 1.6965411)
(242.25761 0 -8.8041466)
(244.69093 1.0169185e-16 -0.40387437)
(242.69558 -1.8778561e-16 -7.064921)
(243.2891 -1.0192558e-19 -2.3063306)
(242.35963 8.4628046e-17 -5.7457687)
(242.23875 0 -3.6625176)
(241.68492 -1.5286745e-16 -5.0380154)
(241.30927 1.4953366e-16 -4.4247481)
(240.83444 1.4222013e-16 -4.8500995)
(240.37219 -2.6180763e-16 -4.7877792)
(239.88181 1.2035454e-16 -4.9286872)
(239.37578 1.1064754e-17 -4.9930654)
(238.85022 1.157017e-16 -5.0806893)
(238.30574 -1.0304592e-16 -5.1593865)
(237.74196 0 -5.2374808)
(237.15876 0 -5.3122813)
(236.55607 5.6862051e-18 -5.3836707)
(235.93393 -1.7837744e-16 -5.4509438)
(235.29245 3.382375e-16 -5.5134709)
(234.63185 -3.1605651e-16 -5.5705728)
(233.95248 1.428548e-16 -5.6215563)
(233.2548 0 -5.6657146)
(232.5394 1.245926e-16 -5.7023322)
(231.80701 -1.336018e-16 -5.7307012)
(231.05851 0 -5.7501276)
(230.29491 3.5307449e-18 -5.7599439)
(229.51738 -1.33918e-17 -5.7595198)
(228.72723 0 -5.7482782)
(227.9259 0 -5.7257028)
(227.11498 -1.7087681e-16 -5.6913582)
(226.29619 3.393038e-16 -5.6448981)
(225.47134 -1.6293091e-16 -5.586079)
(224.64235 -1.5932597e-16 -5.514773)
(223.81122 1.4582584e-16 -5.4309736)
(222.97999 -1.1231554e-16 -5.3348059)
(222.15075 -2.8391753e-19 -5.2265302)
(221.32559 -2.6552787e-19 -5.1065435)
(220.50656 2.3312131e-16 -4.975378)
(219.69569 -1.0998968e-16 -4.8336963)
(218.89494 0 -4.6822828)
(218.10616 2.026558e-16 -4.5220334)
(217.33108 1.1950131e-17 -4.3539413)
(216.57129 -5.1281405e-18 -4.1790802)
(215.82826 -1.6476339e-16 -3.998586)
(215.10324 0 -3.813637)
(214.39736 -1.4675083e-16 -3.6254333)
(213.71153 -8.8680264e-18 -3.4351767)
(213.0465 2.6045466e-16 -3.2440492)
(212.40284 -1.3025855e-16 -3.0531962)
(211.78096 0 -2.8637087)
(211.18109 -2.0408654e-17 -2.6766085)
(210.60332 -2.1147017e-16 -2.4928378)
(210.04758 3.6171749e-16 -2.3132471)
(209.51367 -2.1553586e-16 -2.1385879)
(209.00121 0 -1.9695057)
(208.50965 -1.7099385e-16 -1.8065498)
(208.03821 1.7968693e-16 -1.6501473)
(207.58598 2.6715355e-17 -1.5006509)
(207.15191 0 -1.3583192)
(206.73474 -1.4203502e-16 -1.2233081)
(206.33299 7.3310036e-18 -1.095706)
(205.94499 1.1181644e-16 -0.97553086)
(205.56888 -1.9754786e-17 -0.86273727)
(205.20275 9.3079851e-17 -0.75720585)
(204.84478 -1.0521115e-16 -0.65872745)
(204.49332 5.5127461e-18 -0.56700979)
(204.1466 -5.2013558e-18 -0.48170972)
(203.80231 0 -0.40247849)
(203.4571 -4.6403785e-18 -0.32910208)
(203.10675 4.3888142e-18 -0.26158856)
(202.74754 8.3117706e-18 -0.19962404)
(202.37813 9.8478362e-19 -0.14276576)
(202.00004 0 -0.088923896)
(201.60787 3.0230158e-17 -0.041008462)
(201.15401 -5.7582566e-17 -0.028639355)
(200.87871 2.585713e-17 0.1719298)
(217.69064 0 -14.067515)
(255.16477 -1.22697e-16 1.0854077)
(240.07073 2.5019657e-16 -13.483607)
(248.54509 -2.2345166e-16 -0.55392297)
(243.25084 1.1035599e-16 -11.737788)
(245.82009 -3.2677149e-18 -2.7495153)
(243.69711 9.9460924e-17 -9.854552)
(244.31605 -9.4199204e-17 -4.7802378)
(243.32969 -5.5920141e-18 -8.397116)
(243.18537 -5.3096042e-18 -6.2226375)
(242.59614 -1.0086341e-17 -7.6089273)
(242.18446 1.3915494e-16 -7.0011766)
(241.67416 -1.4105397e-16 -7.3951112)
(241.17342 1.3843528e-16 -7.3396849)
(240.64398 -1.1892428e-16 -7.4591005)
(240.09725 -1.5586618e-17 -7.5153015)
(239.52974 0 -7.5871917)
(238.94206 -1.2121165e-20 -7.6509084)
(238.33389 -2.2670023e-16 -7.7117917)
(237.70524 -3.6555393e-19 -7.7678189)
(237.05614 1.7375994e-16 -7.8185573)
(236.38675 1.7067945e-17 -7.8632164)
(235.69734 -2.1588453e-17 -7.901045)
(234.9883 0 -7.9312591)
(234.26016 7.0110769e-21 -7.9530692)
(233.51357 -1.6572101e-16 -7.9656824)
(232.74935 1.4805363e-16 -7.9683151)
(231.96847 8.2630324e-18 -7.9602002)
(231.17205 0 -7.9406065)
(230.36138 -7.412943e-18 -7.908845)
(229.5379 -1.6286742e-21 -7.8642899)
(228.7032 -1.9954252e-16 -7.8063895)
(227.85902 2.0096585e-16 -7.7346829)
(227.00724 1.1908574e-17 -7.6488177)
(226.14985 -1.8027087e-16 -7.5485593)
(225.28893 1.4877912e-16 -7.4338076)
(224.42665 -1.8128224e-16 -7.3046058)
(223.56522 1.5194759e-16 -7.1611493)
(222.70687 -1.438664e-16 -7.0037884)
(221.85385 1.3558844e-16 -6.8330329)
(221.00834 1.6031692e-17 -6.6495481)
(220.17246 0 -6.4541475)
(219.34826 1.9997395e-16 -6.247785)
(218.53765 -2.4204959e-16 -6.0315399)
(217.7424 0 -5.8066005)
(216.96412 1.7963942e-16 -5.5742463)
(216.20424 -1.5763881e-16 -5.3358236)
(215.46399 1.7007885e-16 -5.0927251)
(214.74443 -1.7989781e-16 -4.8463648)
(214.04638 0 -4.5981554)
(213.37051 1.7738472e-16 -4.3494862)
(212.71727 -1.3331063e-16 -4.1017)
(212.08693 0 -3.8560761)
(211.4796 0 -3.6138135)
(210.89523 1.2489816e-16 -3.3760154)
(210.33364 -2.0858435e-16 -3.1436814)
(209.79451 1.2244107e-16 -2.9176973)
(209.27738 1.8426231e-16 -2.6988299)
(208.78169 1.9603854e-19 -2.4877219)
(208.30669 1.7427478e-19 -2.2849028)
(207.85145 -3.2430835e-16 -2.0907695)
(207.41493 8.9500353e-17 -1.905622)
(206.99598 0 -1.7296719)
(206.59323 1.4223583e-16 -1.5630138)
(206.20518 -1.6315487e-16 -1.4056707)
(205.8301 1.1151018e-16 -1.2575968)
(205.46612 1.3158857e-17 -1.1186868)
(205.11128 -8.6039579e-17 -0.98877102)
(204.76371 1.1553284e-17 -0.86760079)
(204.42171 2.1726453e-17 -0.75484952)
(204.0836 -1.0216398e-16 -0.65011391)
(203.74726 9.6081256e-17 -0.55294214)
(203.40948 -7.2385839e-17 -0.46307541)
(203.06584 1.3634387e-16 -0.38056186)
(202.71249 -5.6219816e-17 -0.30476555)
(202.3489 -6.0650681e-17 -0.23451564)
(201.97461 5.0108727e-17 -0.1710069)
(201.57487 0 -0.11837246)
(201.16143 3.2059432e-18 -0.068460225)
(200.81684 -1.2155707e-17 0.071739403)
(218.70217 0 -17.025826)
(256.49335 0 -1.2907714)
(240.82935 0 -16.624237)
(249.61868 1.067883e-16 -2.9105413)
(244.05806 -1.2399392e-16 -14.800441)
(246.78286 -2.208369e-16 -5.2124549)
(244.5179 2.1003438e-16 -12.761799)
(245.16529 -1.2440278e-17 -7.3809046)
(244.11476 5.9235782e-18 -11.158391)
(243.94317 -1.7419414e-16 -8.9137927)
(243.31409 1.7053475e-16 -10.29068)
(242.86096 1.0134748e-17 -9.7025535)
(242.3104 -1.5389796e-16 -10.05703)
(241.76592 1.3671199e-16 -10.01008)
(241.19237 -1.3521632e-20 -10.106708)
(240.59984 -8.1992643e-18 -10.152745)
(239.98544 0 -10.207273)
(239.3497 -7.4012684e-18 -10.253536)
(238.69247 -2.1068243e-16 -10.294537)
(238.01385 2.1273258e-16 -10.328701)
(237.31403 1.2627285e-17 -10.355367)
(236.59331 -1.1971718e-17 -10.373657)
(235.85214 2.1573221e-16 -10.38272)
(235.0911 -1.7184255e-16 -10.381679)
(234.31094 1.0190523e-17 -10.369656)
(233.51257 1.9322827e-16 -10.345786)
(232.69705 -1.2782126e-16 -10.309222)
(231.86566 0 -10.259157)
(231.01982 1.4769258e-16 -10.194837)
(230.16113 -1.2397065e-16 -10.11558)
(229.29137 2.4984207e-16 -10.020792)
(228.41248 -1.3348228e-17 -9.9099896)
(227.52653 -2.098616e-16 -9.7828117)
(226.63571 1.7405863e-16 -9.6390408)
(225.74231 -1.8750636e-16 -9.478613)
(224.84871 -3.0129234e-20 -9.3016338)
(223.95732 2.0960859e-16 -9.1083839)
(223.07056 -3.1633234e-16 -8.899324)
(222.19081 9.310239e-17 -8.6750967)
(221.32042 3.524806e-17 -8.4365208)
(220.46163 -4.9841267e-17 -8.1845862)
(219.61657 0 -7.9204374)
(218.78721 -8.8683164e-17 -7.6453601)
(217.97534 1.3889467e-16 -7.3607581)
(217.18257 -2.0971297e-16 -7.0681322)
(216.41029 1.9704608e-16 -6.7690563)
(215.65967 -2.0899143e-16 -6.4651474)
(214.93165 3.9297045e-16 -6.1580417)
(214.22697 -3.0795589e-16 -5.8493675)
(213.54613 3.0880533e-16 -5.5407197)
(212.88944 -1.4494099e-16 -5.2336373)
(212.25699 1.3643115e-16 -4.9295825)
(211.64873 -9.5908118e-17 -4.6299215)
(211.06442 3.0073358e-17 -4.3359131)
(210.50371 0 -4.0486929)
(209.96611 0 -3.7692697)
(209.45103 0 -3.4985178)
(208.95777 2.3276718e-17 -3.2371754)
(208.48556 0 -2.9858422)
(208.03347 -1.6381879e-16 -2.7449912)
(207.60044 1.9177261e-16 -2.5149591)
(207.1853 -1.0793604e-16 -2.2959659)
(206.78678 -1.1505199e-19 -2.0881483)
(206.40347 2.5250995e-16 -1.8915213)
(206.03381 2.9653905e-17 -1.7060233)
(205.67607 -1.3848631e-16 -1.5315275)
(205.32834 5.193005e-17 -1.3678529)
(204.98865 -1.4588819e-16 -1.2147654)
(204.65506 -4.5583437e-17 -1.0719703)
(204.32585 -6.4073679e-17 -0.93910547)
(203.9994 -6.0080999e-17 -0.81570432)
(203.67381 5.6302251e-17 -0.70123009)
(203.34599 0 -0.59543556)
(203.01146 0 -0.49832605)
(202.66655 -1.5515283e-17 -0.40866391)
(202.3108 0 -0.32557852)
(201.94007 6.8527521e-18 -0.25384161)
(201.54398 5.1596482e-17 -0.18876055)
(201.15453 -7.2886497e-17 -0.11034689)
(200.75742 -9.7112147e-21 -0.029479696)
(219.53664 0 -20.181623)
(257.64979 -8.8284431e-18 -3.7443694)
(241.44845 2.6700732e-16 -19.899939)
(250.47427 -2.4941042e-16 -5.391181)
(244.62998 2.5449872e-16 -17.976747)
(247.54376 -2.3284569e-16 -7.8278235)
(245.13952 -2.2196084e-16 -15.773966)
(245.80437 2.1011513e-16 -10.139208)
(244.69196 0 -14.022278)
(244.48278 0 -11.754574)
(243.81161 1.8007105e-16 -13.086392)
(243.31029 -1.7059316e-16 -12.536418)
(242.71475 -1.0134297e-17 -12.841696)
(242.12137 2.8825508e-17 -12.802472)
(241.49879 -9.1220236e-18 -12.874256)
(240.85567 3.4597793e-17 -12.906374)
(240.18964 0 -12.940589)
(239.50122 0 -12.965642)
(238.79037 -2.3627701e-16 -12.98293)
(238.05732 2.095453e-16 -12.991102)
(237.30241 0 -12.989312)
(236.52614 0 -12.976577)
(235.72918 -1.9065497e-16 -12.951917)
(234.91236 3.6081044e-16 -12.914348)
(234.07672 -1.7065117e-16 -12.862895)
(233.22349 -2.0216733e-17 -12.796608)
(232.35409 -3.8290282e-17 -12.714587)
(231.47015 -1.4508581e-16 -12.615998)
(230.57349 1.1979123e-16 -12.500095)
(229.66611 0 -12.366238)
(228.75019 -3.0680139e-17 -12.21392)
(227.82805 0 -12.042783)
(226.90215 0 -11.852635)
(225.97504 2.0710639e-16 -11.643472)
(225.04933 -2.1951735e-16 -11.415481)
(224.12768 2.3027055e-17 -11.169057)
(223.2127 -2.1727155e-17 -10.904804)
(222.307 -4.1075749e-17 -10.62353)
(221.41307 -8.5526215e-20 -10.326249)
(220.53329 8.123114e-20 -10.014157)
(219.66986 -7.6655517e-20 -9.6886311)
(218.82482 0 -9.3511939)
(217.99996 -1.2192767e-16 -9.0034994)
(217.19687 1.1449587e-16 -8.6472991)
(216.41686 0 -8.2844137)
(215.66101 -5.0745947e-17 -7.916707)
(214.93012 1.9072509e-16 -7.5460483)
(214.22477 -2.2358359e-16 -7.1742885)
(213.54527 -2.1034465e-16 -6.8032303)
(212.89172 1.577033e-16 -6.4346039)
(212.26402 1.1122235e-16 -6.0700444)
(211.66187 -1.3883141e-16 -5.7110749)
(211.08482 -3.2548176e-17 -5.3590891)
(210.53229 -2.1381914e-16 -5.0153443)
(210.00357 1.143574e-16 -4.6809491)
(209.49787 -1.0725252e-16 -4.3568638)
(209.01434 1.0031754e-16 -4.0438982)
(208.55204 2.3503982e-16 -3.7427115)
(208.10999 -1.7578739e-16 -3.4538164)
(207.6871 0 -3.17759)
(207.28218 -3.8465957e-17 -2.9142729)
(206.89395 -7.2000309e-17 -2.6639816)
(206.52107 1.3453593e-16 -2.4267493)
(206.16209 1.2586673e-16 -2.2024931)
(205.8154 -2.352092e-16 -1.9910502)
(205.47929 8.2374624e-17 -1.7921972)
(205.15186 5.1347649e-17 -1.6056621)
(204.83112 9.5992976e-17 -1.4311343)
(204.5151 1.3456848e-16 -1.268266)
(204.20205 2.3409882e-20 -1.1166533)
(203.8904 0 -0.97576124)
(203.57842 0 -0.8449977)
(203.26322 -3.4241291e-17 -0.7241552)
(202.9404 9.6063531e-17 -0.61303432)
(202.60668 -8.9842524e-17 -0.50980157)
(202.26072 -8.4093616e-17 -0.41491936)
(201.89563 5.2473649e-17 -0.33508476)
(201.5093 0 -0.25402825)
(201.13565 4.6087999e-17 -0.15665111)
(200.7029 1.6356626e-20 -0.12880472)
(220.1737 0 -23.509435)
(258.60868 1.878228e-20 -6.2738838)
(241.87528 9.0860689e-18 -23.271466)
(251.16323 2.8887533e-16 -8.0105159)
(245.04875 3.326057e-19 -21.256609)
(248.07449 -5.0668862e-16 -10.593631)
(245.51662 -3.2282981e-19 -18.881021)
(246.2042 4.5699465e-16 -13.059726)
(245.02945 -2.1026285e-16 -16.986816)
(244.77704 -1.247226e-17 -14.744593)
(244.06236 1.1845497e-17 -15.995061)
(243.5078 -1.7986883e-16 -15.495948)
(242.86358 1.9162944e-16 -15.744025)
(242.21711 -1.8207802e-16 -15.708459)
(241.54117 3.0671482e-16 -15.753103)
(240.8429 -3.0902487e-16 -15.766809)
(240.12052 1.3772934e-16 -15.77729)
(239.3745 0 -15.777113)
(238.60502 0 -15.766543)
(237.81249 1.4670762e-17 -15.744237)
(236.99751 -2.7817731e-17 -15.709133)
(236.16087 0 -15.660088)
(235.30355 1.99755e-16 -15.595968)
(234.42677 4.7066413e-19 -15.515667)
(233.53196 -3.5749439e-16 -15.418111)
(232.62077 1.6891767e-16 -15.302288)
(231.69508 1.9985936e-17 -15.16728)
(230.75699 0 -15.012269)
(229.8088 -1.7903448e-16 -14.836578)
(228.85298 1.3500315e-16 -14.639688)
(227.89218 -2.2386804e-16 -14.421256)
(226.92917 2.1071642e-16 -14.181148)
(225.9668 -2.2804742e-16 -13.919439)
(225.00799 2.1465726e-16 -13.636443)
(224.05566 7.609347e-17 -13.332707)
(223.11269 0 -13.009017)
(222.18189 0 -12.6664)
(221.26593 4.2409189e-17 -12.306106)
(220.36731 3.9943538e-17 -11.929596)
(219.48834 -3.7605663e-17 -11.538517)
(218.63106 3.5389748e-17 -11.13468)
(217.79727 6.6767431e-17 -10.720022)
(216.98848 -6.270934e-17 -10.296582)
(216.20591 3.5356077e-16 -9.8664606)
(215.45047 -2.7656568e-16 -9.4317836)
(214.72278 5.1908082e-17 -8.9946723)
(214.0232 -4.8842004e-17 -8.5572063)
(213.35181 0 -8.1213969)
(212.70845 2.1466627e-16 -7.6891581)
(212.09274 -1.6078788e-16 -7.2622875)
(211.50412 0 -6.8424438)
(210.94186 0 -6.4311381)
(210.40511 1.3229467e-16 -6.0297192)
(209.8929 -6.1834527e-17 -5.6393718)
(209.40421 0 -5.2611122)
(208.93795 -1.6246016e-16 -4.8957909)
(208.493 1.011266e-16 -4.5440966)
(208.06821 1.4194056e-16 -4.2065609)
(207.66242 -1.7655992e-16 -3.8835651)
(207.27441 1.6502654e-16 -3.5753556)
(206.9029 -1.5393267e-16 -3.2820432)
(206.54653 6.7466487e-20 -3.0036187)
(206.20391 0 -2.7399913)
(205.87356 6.2562442e-17 -2.4909652)
(205.55389 -2.9168983e-16 -2.2562649)
(205.24319 1.6312952e-16 -2.0355607)
(204.93962 0 -1.8284814)
(204.64121 -1.4182441e-16 -1.6346321)
(204.34598 8.8097337e-17 -1.4536064)
(204.05211 1.2323968e-16 -1.2849475)
(203.75812 3.2357246e-20 -1.1280521)
(203.46242 -7.1322018e-17 -0.98231219)
(203.16226 9.973843e-17 -0.84754514)
(202.85361 -1.5493127e-16 -0.72317334)
(202.53353 8.6651703e-17 -0.60699516)
(202.19911 2.6918055e-17 -0.50147431)
(201.84218 5.0237819e-17 -0.41316883)
(201.46945 0 -0.3139949)
(201.1088 -4.3756269e-17 -0.20456595)
(200.64905 2.0373409e-17 -0.22492466)
(220.59731 0 -27.005561)
(259.3622 9.824003e-18 -8.9091729)
(242.10291 -3.0633555e-16 -26.767618)
(251.66808 2.501387e-16 -10.771519)
(245.27096 2.5693073e-16 -24.635522)
(248.36441 -5.0112443e-16 -13.513948)
(245.69545 2.3050356e-16 -22.070662)
(246.34905 2.3336719e-16 -16.142233)
(245.1319 -2.2116578e-16 -20.036638)
(244.81516 3.9367195e-17 -17.870449)
(244.0562 0 -19.004464)
(243.44296 0 -18.565442)
(242.74513 -2.2389584e-17 -18.752742)
(242.03974 -1.6998545e-16 -18.716641)
(241.30412 1.4067649e-16 -18.73348)
(240.54408 1.9083346e-17 -18.725272)
(239.75847 -3.6174246e-17 -18.709054)
(238.94791 3.0863244e-16 -18.679765)
(238.1129 -2.2680283e-16 -18.636874)
(237.25418 2.4616791e-16 -18.578926)
(236.37272 -2.03426e-16 -18.504653)
(235.46973 2.7580847e-17 -18.412756)
(234.54665 1.5669298e-16 -18.301973)
(233.60518 -1.9708099e-16 -18.171107)
(232.64727 0 -18.019037)
(231.67514 0 -17.844754)
(230.69121 0 -17.647388)
(229.69816 -1.9738142e-16 -17.426236)
(228.69883 1.8593469e-16 -17.180789)
(227.69626 -3.5230842e-17 -16.910754)
(226.69359 0 -16.616083)
(225.69404 -2.8241788e-16 -16.296988)
(224.70089 2.3604273e-16 -15.953948)
(223.71736 -5.5828966e-17 -15.587719)
(222.74662 1.5788303e-16 -15.19934)
(221.79171 -4.9063862e-17 -14.790107)
(220.85547 -1.8609724e-16 -14.361578)
(219.94055 2.1953154e-16 -13.915532)
(219.04929 -1.6481137e-16 -13.453951)
(218.18375 7.7739597e-17 -12.978982)
(217.34568 -7.2945632e-17 -12.492903)
(216.53646 1.3712242e-16 -11.998075)
(215.75715 -6.4251829e-17 -11.49691)
(215.00844 -2.4181975e-16 -10.991826)
(214.29071 5.0990647e-16 -10.485206)
(213.60403 -2.1236832e-16 -9.9793657)
(212.94816 -1.4965119e-16 -9.4765218)
(212.32263 9.3043581e-17 -8.9787627)
(211.72673 8.7521312e-17 -8.488028)
(211.15957 -1.6372655e-16 -8.0060913)
(210.6201 1.5297276e-16 -7.5345478)
(210.10714 0 -7.074809)
(209.61944 1.3388938e-16 -6.6280977)
(209.1557 -1.8753443e-16 -6.195451)
(208.71456 5.8440769e-17 -5.7777234)
(208.29467 5.4463073e-17 -5.3755945)
(207.89471 0 -4.9895788)
(207.51334 0 -4.6200336)
(207.14926 0 -4.2671705)
(206.80117 0 -3.931073)
(206.46771 0 -3.6116967)
(206.1475 -7.1546487e-17 -3.3088874)
(205.83913 0 -3.0224166)
(205.54113 -5.5262761e-20 -2.7519646)
(205.25196 2.31012e-16 -2.4971384)
(204.96995 -2.1489571e-16 -2.2574972)
(204.69333 -1.0003165e-16 -2.0325676)
(204.42019 -1.8598649e-16 -1.8218701)
(204.14856 2.5924482e-16 -1.624934)
(203.87661 4.777888e-20 -1.4412398)
(203.60288 7.4661263e-17 -1.2701276)
(203.32585 0 -1.1110135)
(203.043 0 -0.96367867)
(202.75087 0 -0.82702764)
(202.44667 -1.1141095e-16 -0.69886928)
(202.12551 0 -0.58394486)
(201.77926 -9.6239801e-17 -0.48657634)
(201.4231 1.3417291e-16 -0.36820939)
(201.07443 8.3176894e-17 -0.2518629)
(200.59469 -1.9267167e-17 -0.31590879)
(220.81181 0 -30.678506)
(259.91694 0 -11.652888)
(242.13785 3.2230374e-16 -30.395385)
(251.99268 1.9336128e-17 -13.690539)
(245.30886 -2.6971372e-16 -28.124181)
(248.4754 0 -16.611588)
(245.67354 1.6160208e-17 -25.338588)
(246.36816 -3.063314e-17 -19.378359)
(244.98627 0 -23.15127)
(244.59991 1.930969e-16 -21.115544)
(243.78959 -4.1805247e-16 -22.110888)
(243.10717 1.9795497e-16 -21.739692)
(242.34595 2.3495703e-17 -21.86828)
(241.57177 0 -21.8271)
(240.76659 2.1082507e-17 -21.815274)
(239.9351 -3.40076e-16 -21.780786)
(239.07681 7.4974209e-17 -21.733319)
(238.19262 2.506226e-16 -21.669221)
(237.28343 2.3800991e-16 -21.587462)
(236.35044 -2.5672673e-16 -21.486475)
(235.39511 0 -21.364825)
(234.41919 -2.8805501e-16 -21.221106)
(233.42472 2.4457766e-16 -21.053978)
(232.414 -2.0614593e-16 -20.86222)
(231.38966 1.9429727e-16 -20.64475)
(230.35455 -1.8413168e-16 -20.400649)
(229.31178 3.4735615e-16 -20.12922)
(228.26467 -1.6391695e-16 -19.829992)
(227.2167 1.5502283e-16 -19.502771)
(226.17148 -2.922651e-16 -19.147644)
(225.13265 1.375577e-16 -18.765014)
(224.10388 1.2991093e-16 -18.355603)
(223.08876 -2.4510603e-16 -17.920451)
(222.09076 5.6907492e-17 -17.460913)
(221.11316 -5.7185251e-19 -16.978653)
(220.15898 2.5499977e-16 -16.475599)
(219.23095 0 -15.953933)
(218.33146 1.9312373e-19 -15.416042)
(217.46252 0 -14.864474)
(216.62573 -7.9593008e-17 -14.301895)
(215.82231 -1.4957917e-16 -13.731042)
(215.05306 7.0228974e-17 -13.15467)
(214.31837 0 -12.575508)
(213.61829 -6.1884298e-17 -11.996217)
(212.95251 2.8964849e-16 -11.419348)
(212.32041 -3.2518215e-16 -10.847312)
(211.72111 -3.0468623e-16 -10.282352)
(211.15351 2.8448023e-16 -9.7265253)
(210.61633 -1.7753125e-16 -9.1816836)
(210.10815 0 -8.6494708)
(209.62743 0 -8.1313171)
(209.17259 7.245363e-17 -7.6284409)
(208.74201 6.7615494e-17 -7.1418553)
(208.33406 1.2601e-16 -6.6723749)
(207.94714 -5.8759432e-17 -6.2206278)
(207.5797 -1.0945308e-16 -5.7870678)
(207.23023 -2.0410415e-16 -5.3719883)
(206.89729 -9.5217023e-17 -4.9755349)
(206.57948 1.7677658e-16 -4.5977192)
(206.27545 0 -4.2384385)
(205.98385 -7.6565856e-17 -3.8974755)
(205.70329 -1.4231573e-16 -3.5745193)
(205.43241 1.3222523e-16 -3.2691969)
(205.16977 6.1328033e-17 -2.9810605)
(204.9139 5.7038709e-17 -2.7095995)
(204.66321 0 -2.4542638)
(204.41604 1.9662614e-16 -2.2144817)
(204.17056 1.8244659e-16 -1.9896922)
(203.92486 -2.5386872e-16 -1.7793566)
(203.67713 7.8516261e-17 -1.5828868)
(203.42587 -7.2770177e-17 -1.399592)
(203.16961 -4.1540969e-20 -1.228945)
(202.90608 2.5009758e-16 -1.0705915)
(202.63258 -2.3177538e-16 -0.92285368)
(202.34624 5.3659105e-17 -0.78401628)
(202.03989 1.492447e-16 -0.66097225)
(201.70683 -4.6099895e-17 -0.55387096)
(201.36967 -4.2698798e-17 -0.41613743)
(201.03212 0 -0.29676828)
(200.53851 3.6554957e-17 -0.39568801)
(220.82756 3.919591e-16 -34.538032)
(260.2778 5.4131335e-19 -14.51226)
(241.95823 -3.592524e-16 -34.170685)
(252.13057 0 -16.773149)
(245.08601 0 -31.688537)
(248.24589 -2.6803657e-16 -19.882042)
(245.34821 2.7115404e-16 -28.661251)
(245.8725 6.4311025e-17 -22.775208)
(244.57222 -2.4409547e-16 -26.366286)
(244.10656 2.3088278e-16 -24.506358)
(243.23442 -2.4676031e-16 -25.341689)
(242.47002 2.0740436e-16 -25.033874)
(241.63335 -4.9203413e-17 -25.103264)
(240.77875 -4.6658807e-17 -25.047386)
(239.89255 -1.768066e-16 -25.001855)
(238.97858 1.6699842e-16 -24.933328)
(238.03704 -3.5662913e-16 -24.846648)
(237.06924 5.9947252e-16 -24.738859)
(236.07662 -2.832434e-16 -24.608543)
(235.06096 -2.6874862e-16 -24.453994)
(234.02439 2.534344e-16 -24.273645)
(232.96935 -3.0180292e-17 -24.066022)
(231.89863 -2.2718263e-16 -23.829783)
(230.81532 2.1400904e-16 -23.563782)
(229.72282 2.5351391e-16 -23.267085)
(228.62477 -1.4295e-16 -22.939016)
(227.52507 0 -22.579204)
(226.42773 2.5564287e-16 -22.187597)
(225.33689 -3.2109479e-16 -21.764501)
(224.25671 1.1298106e-16 -21.310587)
(223.19129 -2.8563999e-16 -20.826907)
(222.14463 2.0124701e-16 -20.314882)
(221.1205 -6.3410811e-17 -19.776294)
(220.12243 2.3829412e-16 -19.213252)
(219.15357 -2.2352506e-16 -18.628175)
(218.21673 -2.106647e-16 -18.023725)
(217.31424 1.9745102e-16 -17.402778)
(216.44798 -4.6310192e-17 -16.76836)
(215.61935 0 -16.123586)
(214.82927 8.1947812e-17 -15.47161)
(214.07817 -7.6486361e-17 -14.815564)
(213.36605 0 -14.158506)
(212.69249 1.3467753e-16 -13.503373)
(212.05672 -6.2999999e-17 -12.852943)
(211.45764 -1.7664543e-16 -12.209798)
(210.89388 5.5099532e-16 -11.576305)
(210.36388 -2.0629723e-16 -10.954593)
(209.86588 9.6217484e-17 -10.346551)
(209.39805 -2.6979047e-16 -9.7538188)
(208.95846 -1.829552e-19 -9.177793)
(208.54516 1.5642439e-16 -8.6196347)
(208.15621 -1.4592382e-16 -8.0802791)
(207.78969 -6.7908884e-17 -7.5604499)
(207.44373 -6.3255471e-17 -7.0606747)
(207.11655 -1.181098e-16 -6.5813011)
(206.80646 2.1933744e-16 -6.1225141)
(206.51186 0 -5.6843526)
(206.23125 9.4781835e-17 -5.2667251)
(205.96321 -3.5268153e-16 -4.8694249)
(205.7064 2.4545297e-16 -4.492151)
(205.4595 7.5959902e-17 -4.134505)
(205.22119 1.4111072e-16 -3.7960165)
(204.99018 1.3110983e-16 -3.4761698)
(204.76511 -1.2131107e-16 -3.1743903)
(204.5446 -1.1241335e-16 -2.8900556)
(204.32719 -3.126965e-16 -2.6225138)
(204.11133 -3.9841321e-20 -2.371104)
(203.89532 -8.9357645e-17 -2.1351905)
(203.67733 0 -1.9141632)
(203.45562 -2.2969911e-16 -1.7073682)
(203.22864 7.0829702e-17 -1.5141217)
(202.99484 0 -1.3339641)
(202.75235 1.2116768e-16 -1.166286)
(202.49931 0 -1.0088759)
(202.23241 1.0349983e-16 -0.8609739)
(201.94232 -1.434234e-16 -0.73107636)
(201.62513 1.3253026e-16 -0.61359479)
(201.30914 -8.1611026e-17 -0.45734018)
(200.98147 7.5375809e-17 -0.33990285)
(200.4795 0 -0.47113304)
(220.63205 -4.1177658e-16 -38.590679)
(260.4321 3.6380916e-16 -17.504966)
(241.52876 -3.3329326e-16 -38.123331)
(252.01417 3.3143411e-16 -20.032013)
(244.57994 3.1738016e-16 -35.3116)
(247.79041 -1.8043011e-17 -23.337793)
(244.78118 -2.8418139e-16 -32.06674)
(245.25014 -2.6976868e-16 -26.364049)
(243.86351 2.8713553e-16 -29.70076)
(243.29046 0 -28.043995)
(242.3461 2.8650441e-17 -28.703911)
(241.48721 0 -28.447275)
(240.56249 -1.2886172e-16 -28.456993)
(239.61525 2.4330985e-16 -28.374782)
(238.63589 0 -28.287747)
(237.62782 0 -28.174907)
(236.59202 0 -28.03807)
(235.53043 3.9184842e-17 -27.874557)
(234.44521 0 -27.68266)
(233.33897 -2.4507399e-16 -27.460577)
(232.21468 3.3019906e-16 -27.206678)
(231.07571 1.2494125e-16 -26.919534)
(229.92578 1.771602e-16 -26.597927)
(228.76893 -2.7827117e-16 -26.240943)
(227.6095 -5.2438671e-17 -25.84799)
(226.45204 -2.4816204e-16 -25.418847)
(225.30124 1.8677454e-16 -24.953699)
(224.16186 -2.2059826e-16 -24.453165)
(223.03863 8.253722e-17 -23.918299)
(221.93616 7.8033082e-17 -23.3506)
(220.85886 0 -22.751999)
(219.81082 2.7760057e-16 -22.124821)
(218.79577 -2.6072462e-16 -21.471765)
(217.81698 0 -20.795834)
(216.8772 -2.3049046e-16 -20.100298)
(215.97863 2.1588927e-16 -19.388611)
(215.1229 -1.0173798e-16 -18.664349)
(214.31106 1.9047579e-16 -17.931145)
(213.54357 -2.6763444e-16 -17.192608)
(212.82039 1.2732925e-19 -16.452269)
(212.14095 -1.5637093e-16 -15.713516)
(211.50426 -7.3180677e-17 -14.97955)
(210.90895 -1.3734789e-16 -14.253342)
(210.35331 2.5604337e-16 -13.537607)
(209.83543 -1.1948287e-16 -12.834779)
(209.35316 0 -12.147006)
(208.90426 -3.8064134e-19 -11.476144)
(208.48642 9.7198498e-17 -10.823768)
(208.09728 0 -10.191175)
(207.73451 8.4541316e-17 -9.5794023)
(207.39583 7.9047282e-17 -8.9892478)
(207.07903 -7.3394423e-17 -8.4212857)
(206.782 2.7325093e-16 -7.8758887)
(206.50275 -2.5402106e-16 -7.3532492)
(206.23938 -1.1813995e-16 -6.8533983)
(205.99016 -1.0974978e-16 -6.3762269)
(205.75347 1.0190557e-16 -5.9215026)
(205.52782 1.8903e-16 -5.4888868)
(205.31186 -3.5063672e-16 -5.0779508)
(205.10429 4.0635623e-16 -4.6881956)
(204.90388 -1.5056429e-16 -4.3190449)
(204.70944 1.3955973e-16 -3.9698751)
(204.51976 -1.291855e-16 -3.6400368)
(204.33363 2.3924889e-16 -3.3288372)
(204.14977 -3.3211805e-16 -3.035553)
(203.96685 2.047293e-16 -2.7594423)
(203.78348 -8.2200005e-20 -2.4997693)
(203.59811 8.7504477e-17 -2.2558309)
(203.40906 0 -2.0269445)
(203.21464 0 -1.8124032)
(203.01324 0 -1.6115729)
(202.80323 -1.2714536e-16 -1.4240384)
(202.58316 1.7578632e-20 -1.2488243)
(202.35198 0 -1.0833758)
(202.10567 0 -0.9282782)
(201.83322 9.1933784e-17 -0.79263712)
(201.53478 -1.6940588e-16 -0.66418342)
(201.24183 0 -0.4913385)
(200.922 0 -0.38033528)
(200.41741 -1.319074e-16 -0.5400373)
(220.19179 2.7792532e-17 -42.845992)
(260.34302 -7.8769961e-16 -20.653425)
(240.82186 3.4869958e-16 -42.216543)
(251.37489 -2.1786062e-17 -23.472225)
(243.7603 3.740938e-16 -39.055962)
(247.00133 -3.527876e-16 -27.016976)
(243.90528 0 -35.588617)
(244.24254 -3.1778028e-16 -30.144841)
(242.80469 2.3361384e-16 -33.149948)
(242.10768 2.2188471e-16 -31.720682)
(241.07762 -2.3950832e-16 -32.199997)
(240.1102 0 -31.975626)
(239.08302 1.9042845e-19 -31.923545)
(238.02957 0 -31.801147)
(236.94391 3.8578758e-16 -31.661203)
(235.82941 -7.287875e-16 -31.490371)
(234.68806 3.4406495e-16 -31.288638)
(233.52265 -4.0643457e-17 -31.053429)
(232.33639 -3.8620028e-17 -30.782859)
(231.13292 3.670481e-17 -30.475121)
(229.91637 -6.8544303e-17 -30.128682)
(228.69125 -3.2470528e-16 -29.742311)
(227.46243 3.0560541e-16 -29.315151)
(226.23509 5.7610435e-17 -28.846777)
(225.0146 -2.7301472e-16 -28.337219)
(223.80644 -6.9574469e-19 -27.787027)
(222.6161 2.8996754e-16 -27.197264)
(221.44896 -1.8199513e-16 -26.569523)
(220.31019 -6.1143606e-19 -25.905913)
(219.20459 0 -25.209032)
(218.13657 0 -24.481919)
(217.10999 -7.1611497e-17 -23.728002)
(216.1281 1.3406701e-16 -22.95103)
(215.19349 0 -22.154987)
(214.30806 -1.1849361e-16 -21.344015)
(213.47301 2.2171825e-16 -20.522327)
(212.68883 -1.0387339e-16 -19.694113)
(211.95539 -1.946603e-16 -18.86347)