/*--------------------------------*- C++ -*----------------------------------*\
  =========                 |
  \\      /  F ield         | OpenFOAM: The Open Source CFD Toolbox
   \\    /   O peration     | Website:  https://openfoam.org
    \\  /    A nd           | Version:  12
     \\/     M anipulation  |
\*---------------------------------------------------------------------------*/
FoamFile
{
    format      ascii;
    class       volScalarField;
    location    "0.043";
    object      alphat;
}
// * * * * * * * * * * * * * * * * * * * * * * * * * * * * * * * * * * * * * //

dimensions      [1 -1 -1 0 0 0 0];

internalField   nonuniform List<scalar> 
16000
(
5.207173e-07
1.1008281e-05
1.9699896e-05
2.6722436e-05
2.0391331e-05
2.7969693e-05
1.9811164e-05
2.7046063e-05
2.1201759e-05
2.9043533e-05
2.4572693e-05
2.8713117e-05
2.6271208e-05
2.6936699e-05
2.6069691e-05
2.5935989e-05
2.5693952e-05
2.5646646e-05
2.568926e-05
2.584281e-05
2.6100077e-05
2.6460024e-05
2.6920516e-05
2.7482264e-05
2.814805e-05
2.8925261e-05
2.9823567e-05
3.0858127e-05
3.2047299e-05
3.341095e-05
3.4971197e-05
3.6757342e-05
3.880712e-05
4.1167095e-05
4.3894605e-05
4.705834e-05
5.0740503e-05
5.5039746e-05
6.0078665e-05
6.6009605e-05
7.3012883e-05
8.1303346e-05
9.1153091e-05
0.00010289759
0.00011694062
0.00013377292
0.00015400887
0.00017840755
0.00020790896
0.00024368096
0.00028718131
0.00034023421
0.0004051219
0.00048471665
0.0005826474
0.0007035197
0.00085320856
0.0010392786
0.0011914844
0.0011914405
0.0011910277
0.0011903977
0.0011895408
0.001188602
0.0011877905
0.0011873479
0.0011874607
0.0011882085
0.0011896538
0.0011919444
0.0011943437
0.0011958676
0.0011952577
0.0011911341
0.0011828921
0.0011754446
0.0011701397
0.0011679159
0.0011685576
0.0011744167
4.6205909e-07
1.0428207e-05
2.1811551e-05
2.3933358e-05
1.8370103e-05
2.5118381e-05
1.7571079e-05
2.3722096e-05
1.8707514e-05
2.5665572e-05
2.2225464e-05
2.5889086e-05
2.4013441e-05
2.4408771e-05
2.3735582e-05
2.3549382e-05
2.335173e-05
2.3299948e-05
2.3343502e-05
2.3485722e-05
2.3724898e-05
2.4059651e-05
2.4488433e-05
2.5012138e-05
2.5632977e-05
2.6357916e-05
2.7195426e-05
2.8159259e-05
2.9266846e-05
3.0537549e-05
3.1991965e-05
3.3656944e-05
3.5567475e-05
3.776677e-05
4.0308569e-05
4.3257582e-05
4.6691727e-05
5.0703897e-05
5.5408697e-05
6.0950818e-05
6.7503869e-05
7.5270973e-05
8.4509749e-05
9.5541747e-05
0.00010875673
0.00012462469
0.00014373678
0.00016682668
0.00019480623
0.00022881165
0.00027026587
0.00032095878
0.0003831383
0.00045964565
0.0005540869
0.00067106122
0.0008164506
0.00099782108
0.0011913997
0.0011913691
0.0011909029
0.0011902306
0.0011893452
0.0011883904
0.0011875701
0.0011871333
0.0011872989
0.0011881661
0.0011896544
0.001191805
0.0011939553
0.0011951112
0.0011939681
0.001189176
0.0011812365
0.0011743124
0.001169682
0.0011679487
0.0011686189
0.0011749041
4.1521569e-07
9.9773826e-06
2.0594699e-05
2.1858313e-05
1.643798e-05
2.2114178e-05
1.5637358e-05
2.0607748e-05
1.6814175e-05
2.2517753e-05
2.0260032e-05
2.3058633e-05
2.1752631e-05
2.1868565e-05
2.1355623e-05
2.1147948e-05
2.0985345e-05
2.0939415e-05
2.098586e-05
2.1121386e-05
2.1345836e-05
2.165829e-05
2.2057462e-05
2.2544609e-05
2.3121499e-05
2.3794866e-05
2.4572331e-05
2.5466407e-05
2.6493405e-05
2.7672198e-05
2.9022356e-05
3.0568784e-05
3.23442e-05
3.438894e-05
3.6753574e-05
3.9499181e-05
4.2699939e-05
4.6444244e-05
5.0839964e-05
5.6024145e-05
6.2164904e-05
6.9456198e-05
7.8142992e-05
8.8533529e-05
0.00010100605
0.00011601304
0.0001341251
0.00015605315
0.00018268323
0.00021512218
0.00025475835
0.00030334529
0.0003630911
0.00043679441
0.00052801531
0.00064130633
0.00078249915
0.00095907933
0.001180639
0.0011913812
0.0011908396
0.001190104
0.0011891775
0.0011882046
0.0011873858
0.0011869739
0.0011872014
0.0011881694
0.001189703
0.0011917038
0.001193576
0.0011943144
0.0011926003
0.0011870994
0.0011795796
0.0011732489
0.0011693112
0.0011680935
0.0011687132
0.0011747729
3.7384353e-07
9.6397552e-06
1.9519668e-05
2.0096093e-05
1.4756138e-05
1.9520511e-05
1.3926766e-05
1.8007002e-05
1.5127225e-05
1.9848614e-05
1.84902e-05
2.0555973e-05
1.9669399e-05
1.9582353e-05
1.9187696e-05
1.8979914e-05
1.8847559e-05
1.8812531e-05
1.886466e-05
1.8997356e-05
1.9211145e-05
1.9505619e-05
1.9879746e-05
2.0335237e-05
2.0873554e-05
2.1501323e-05
2.2225591e-05
2.3057873e-05
2.4013415e-05
2.5110691e-05
2.6368587e-05
2.7810358e-05
2.9466872e-05
3.1375996e-05
3.358561e-05
3.6153658e-05
3.9151072e-05
4.2662702e-05
4.6790992e-05
5.1665789e-05
5.7450902e-05
6.4333181e-05
7.2547168e-05
8.238898e-05
9.4228144e-05
0.00010850307
0.0001257672
0.00014671248
0.00017220322
0.00020332191
0.00024142646
0.00028823819
0.00034592816
0.00041725323
0.00050572311
0.00061583031
0.00075333266
0.00092560257
0.0011420344
0.0011915463
0.0011909152
0.0011901044
0.0011891286
0.0011881332
0.0011873153
0.0011869253
0.0011871948
0.0011881927
0.0011897218
0.0011915499
0.0011931069
0.0011933976
0.0011910756
0.0011851245
0.0011780924
0.0011723865
0.0011691163
0.001168337
0.0011688577
0.0011743739
3.3051616e-07
9.3810106e-06
1.8581885e-05
2.0058161e-05
1.4535727e-05
1.7251462e-05
1.242419e-05
1.5773013e-05
1.367817e-05
1.7539603e-05
1.6914694e-05
1.829852e-05
1.7723676e-05
1.7500227e-05
1.7193268e-05
1.7000944e-05
1.6894286e-05
1.6871509e-05
1.6928791e-05
1.7058747e-05
1.7262156e-05
1.7539303e-05
1.7889481e-05
1.8314917e-05
1.8817001e-05
1.9402293e-05
2.0077471e-05
2.0853258e-05
2.1743846e-05
2.2767285e-05
2.3942012e-05
2.5289917e-05
2.6840342e-05
2.8629025e-05
3.0701541e-05
3.3113098e-05
3.5931733e-05
3.9239415e-05
4.3134479e-05
4.773989e-05
5.3215792e-05
5.974362e-05
6.7549588e-05
7.6918246e-05
8.8212238e-05
0.00010185851
0.0001183956
0.00013849884
0.00016301286
0.00019299862
0.00022978491
0.00027506125
0.0003309597
0.00040019012
0.00048620034
0.00059340035
0.00072743766
0.00089551462
0.0011067429
0.0011918358
0.0011911009
0.0011902026
0.0011891693
0.0011881486
0.0011873344
0.0011869648
0.0011872495
0.001188231
0.0011897063
0.0011913456
0.001192554
0.0011923486
0.0011894549
0.0011832624
0.0011767316
0.0011717024
0.0011690879
0.0011686716
0.0011690169
0.0011736726
3.0589103e-07
9.2206566e-06
1.7840772e-05
1.9825626e-05
1.4338308e-05
1.5272368e-05
1.1546528e-05
1.3922835e-05
1.2459364e-05
1.5576909e-05
1.5529878e-05
1.6313941e-05
1.5946226e-05
1.5644796e-05
1.53943e-05
1.522042e-05
1.5131185e-05
1.5116611e-05
1.5175452e-05
1.5300521e-05
1.5492593e-05
1.5752575e-05
1.6080051e-05
1.6477438e-05
1.6946466e-05
1.749338e-05
1.8124688e-05
1.8850466e-05
1.9683889e-05
2.0642547e-05
2.174464e-05
2.3010954e-05
2.4469627e-05
2.6154628e-05
2.8109643e-05
3.0387615e-05
3.3054131e-05
3.6188867e-05
3.9887496e-05
4.4267007e-05
4.9484207e-05
5.5716906e-05
6.3185766e-05
7.216472e-05
8.3011633e-05
9.6145312e-05
0.00011209246
0.00013151541
0.00015524252
0.00018431811
0.00022004585
0.00026408732
0.00031853816
0.00038606087
0.00047003962
0.00057478782
0.00070581811
0.00087012274
0.0010764736
0.0011922414
0.0011913908
0.0011903952
0.0011892976
0.0011882482
0.0011874354
0.0011870783
0.0011873537
0.0011882813
0.0011896522
0.001191069
0.0011918947
0.0011911555
0.0011877111
0.0011815244
0.0011755219
0.0011712426
0.0011692137
0.0011690739
0.0011692103
0.0011732657
2.7969016e-07
9.1296677e-06
1.7262661e-05
1.8834916e-05
1.4208096e-05
1.3498788e-05
1.1700309e-05
1.2750422e-05
1.2204767e-05
1.3923302e-05
1.4293012e-05
1.4565996e-05
1.430698e-05
1.3972732e-05
1.375431e-05
1.3598248e-05
1.3521535e-05
1.351326e-05
1.3572745e-05
1.3693382e-05
1.3875583e-05
1.4120714e-05
1.4428831e-05
1.4715989e-05
1.5145925e-05
1.5650519e-05
1.6235461e-05
1.6910049e-05
1.768622e-05
1.8580728e-05
1.9611494e-05
2.0798235e-05
2.216797e-05
2.3752968e-05
2.5595152e-05
2.7745368e-05
3.0266883e-05
3.3237105e-05
3.6749915e-05
4.1224414e-05
4.6231618e-05
5.2226124e-05
5.9425931e-05
6.8095725e-05
7.8589823e-05
9.1322277e-05
0.00010681114
0.00012570928
0.00014883182
0.00017721159
0.00021213122
0.00025522858
0.00030856584
0.00037476067
0.00045713039
0.00055988359
0.0006883788
0.00084936728
0.0010512335
0.0011927472
0.0011917711
0.0011906705
0.001189503
0.0011884197
0.0011876014
0.0011872449
0.0011874928
0.001188337
0.0011895543
0.0011907031
0.0011911145
0.001189837
0.0011858912
0.0011799473
0.0011744993
0.0011709604
0.0011694787
0.0011694944
0.0011695192
0.0011732287
2.4986473e-07
9.0811729e-06
1.6778048e-05
1.7201169e-05
1.3294137e-05
1.1767084e-05
1.0329325e-05
1.1449587e-05
1.0917465e-05
1.2494341e-05
1.3063625e-05
1.2971121e-05
1.2752631e-05
1.2428181e-05
1.2234876e-05
1.2100351e-05
1.2037986e-05
1.2038548e-05
1.2029137e-05
1.2130706e-05
1.2293698e-05
1.2518128e-05
1.2803157e-05
1.3148482e-05
1.3559449e-05
1.4040253e-05
1.4596655e-05
1.523785e-05
1.5975141e-05
1.6824798e-05
1.7804955e-05
1.8934753e-05
2.024067e-05
2.1753896e-05
2.3515318e-05
2.557446e-05
2.7993185e-05
3.0847503e-05
3.423062e-05
3.8256725e-05
4.3065962e-05
4.8836531e-05
5.5785889e-05
6.4710526e-05
7.4948021e-05
8.7393129e-05
0.00010255899
0.00012109261
0.0001437994
0.00017170654
0.00020608063
0.0002485414
0.00030112285
0.00036640128
0.000447628
0.00054891025
0.00067543525
0.00083369747
0.0010316671
0.0011933356
0.001192227
0.0011910161
0.001189774
0.0011886508
0.0011878173
0.0011874466
0.0011876486
0.0011883826
0.0011894004
0.0011902359
0.0011902126
0.0011884362
0.0011841309
0.0011785474
0.0011737012
0.0011708351
0.0011699151
0.0011701991
0.001170041
0.0011727113
2.2961619e-07
9.0396285e-06
1.629715e-05
1.5081242e-05
1.0950279e-05
1.0454354e-05
8.4894873e-06
9.7475837e-06
9.9786677e-06
1.1266506e-05
1.1816829e-05
1.1490699e-05
1.1288618e-05
1.099949e-05
1.083172e-05
1.0647203e-05
1.0573581e-05
1.0568312e-05
1.0624419e-05
1.0738628e-05
1.0905958e-05
1.1130581e-05
1.1409706e-05
1.1744659e-05
1.214053e-05
1.260231e-05
1.3135852e-05
1.3750376e-05
1.4456746e-05
1.5270733e-05
1.6210802e-05
1.7295789e-05
1.8551971e-05
2.0009789e-05
2.1709497e-05
2.3699824e-05
2.6041794e-05
2.8810651e-05
3.2098805e-05
3.6019386e-05
4.0712734e-05
4.635442e-05
5.3164694e-05
6.1402799e-05
7.1402969e-05
8.3584926e-05
9.9328599e-05
0.00011765847
0.00014013933
0.00016779851
0.00020189245
0.00024402886
0.00029621966
0.00036100513
0.00044157794
0.00054194195
0.00066711509
0.00082332571
0.0010181252
0.0011939862
0.0011927412
0.0011914171
0.0011900968
0.0011889279
0.001188069
0.001187668
0.0011878023
0.0011883975
0.0011891772
0.0011896641
0.0011892024
0.0011869986
0.0011825039
0.001177376
0.0011731791
0.001170896
0.0011705351
0.001170968
0.0011708403
0.0011723874
2.1132954e-07
8.9967852e-06
1.5055663e-05
1.3144269e-05
8.8642315e-06
9.2719113e-06
7.4671542e-06
8.8042425e-06
9.2505501e-06
1.0085806e-05
1.0580463e-05
1.0138647e-05
9.9406823e-06
9.6002523e-06
9.4215741e-06
9.3139783e-06
9.2755398e-06
9.2965669e-06
9.3699209e-06
9.4964663e-06
9.6704042e-06
9.8940813e-06
1.0169384e-05
1.0496666e-05
1.0881334e-05
1.1328844e-05
1.1845206e-05
1.243981e-05
1.3123248e-05
1.3910826e-05
1.4821413e-05
1.5873895e-05
1.709462e-05
1.8513607e-05
2.0170863e-05
2.2114802e-05
2.4406133e-05
2.7119976e-05
3.0349043e-05
3.4206848e-05
3.8833683e-05
4.4404425e-05
5.1142658e-05
5.9307112e-05
6.9233833e-05
8.134368e-05
9.6161145e-05
0.00011431342
0.00013785165
0.00016549018
0.00019957362
0.00024170401
0.00029387863
0.00035860889
0.00043903619
0.00053906949
0.00066356217
0.00081848261
0.00101098
0.0011946769
0.0011932948
0.001191857
0.0011904565
0.0011892366
0.001188342
0.0011878944
0.0011879371
0.0011883636
0.0011888753
0.001188994
0.0011881086
0.0011855624
0.0011810877
0.0011764893
0.0011729674
0.001171172
0.001171214
0.0011717426
0.0011716958
0.0011721806
1.9478164e-07
8.9521782e-06
1.1959728e-05
1.1054059e-05
7.2497354e-06
8.2591275e-06
6.8062401e-06
7.9155934e-06
8.6575948e-06
9.016754e-06
9.3669651e-06
8.8133475e-06
8.5618257e-06
8.3290498e-06
8.2003985e-06
8.1341226e-06
8.1250467e-06
8.1695446e-06
8.2598143e-06
8.3953923e-06
8.5749798e-06
8.8005226e-06
9.0742172e-06
9.3971061e-06
9.7746803e-06
1.0212876e-05
1.0717999e-05
1.1299684e-05
1.1968475e-05
1.2739296e-05
1.3562563e-05
1.4583379e-05
1.5770218e-05
1.7152646e-05
1.8770413e-05
2.0671651e-05
2.2916826e-05
2.5580977e-05
2.8757245e-05
3.2559825e-05
3.7130117e-05
4.2977502e-05
4.9711517e-05
5.7884044e-05
6.7833102e-05
7.998206e-05
9.4866383e-05
0.00011312248
0.00013556035
0.00016320079
0.0001991169
0.00024156237
0.00029409993
0.00035922042
0.00044002416
0.00054033793
0.00066486408
0.00081932973
0.0010105205
0.0011953843
0.0011938676
0.0011923181
0.0011908367
0.0011895607
0.0011886197
0.0011881082
0.0011880359
0.0011882676
0.001188492
0.0011882441
0.0011869716
0.0011841666
0.0011799563
0.0011759273
0.0011730455
0.0011717168
0.0011719459
0.0011725028
0.0011727966
0.0011724401
1.8035754e-07
8.910049e-06
9.430368e-06
9.2796701e-06
6.3134117e-06
7.32256e-06
6.2537707e-06
7.1393894e-06
8.0578157e-06
8.0192438e-06
8.0527641e-06
7.5848972e-06
7.380811e-06
7.2131106e-06
7.1269423e-06
7.0951494e-06
7.1129996e-06
7.1757802e-06
7.2802875e-06
7.426381e-06
7.6127461e-06
7.8417614e-06
8.1165785e-06
8.4387164e-06
8.8137703e-06
9.2090679e-06
9.701037e-06
1.0268827e-05
1.092283e-05
1.1677482e-05
1.2550219e-05
1.3563658e-05
1.4743464e-05
1.6119319e-05
1.7731378e-05
1.96283e-05
2.1871302e-05
2.4536413e-05
2.7718568e-05
3.1534237e-05
3.6127902e-05
4.1680898e-05
4.8416825e-05
5.6606291e-05
6.6591353e-05
7.948437e-05
9.4569727e-05
0.00011308701
0.00013585258
0.00016390458
0.00019852543
0.00024358439
0.00029686592
0.00036282647
0.00044453768
0.00054576225
0.00067107417
0.00082599151
0.0010169963
0.0011960844
0.0011944382
0.0011927811
0.0011912192
0.0011898818
0.0011888823
0.0011882885
0.0011880794
0.0011880979
0.0011880313
0.0011874441
0.0011858589
0.0011829297
0.001179138
0.001175683
0.0011733783
0.0011724813
0.0011728058
0.0011732016
0.0011740901
0.001173095
1.6751709e-07
8.8624409e-06
7.4851713e-06
8.1548078e-06
5.624142e-06
6.4819638e-06
5.7826201e-06
6.4539622e-06
7.3450029e-06
6.8879271e-06
6.8682551e-06
6.5110828e-06
6.3508087e-06
6.2354546e-06
6.185575e-06
6.1831945e-06
6.223854e-06
6.305036e-06
6.4236986e-06
6.5806332e-06
6.7754223e-06
7.0105399e-06
7.2594538e-06
7.5780293e-06
7.9491491e-06
8.3780784e-06
8.8734363e-06
9.4445264e-06
1.0102003e-05
1.0860558e-05
1.1737833e-05
1.2756242e-05
1.3942937e-05
1.5328057e-05
1.6952461e-05
1.8865761e-05
2.1130552e-05
2.3824433e-05
2.7044962e-05
3.0912062e-05
3.5573512e-05
4.1214249e-05
4.8068139e-05
5.6411371e-05
6.6594667e-05
7.9057194e-05
9.4348363e-05
0.00011313878
0.00013746035
0.00016614358
0.00020153108
0.00024524046
0.0003021309
0.00036938117
0.00045253456
0.00055531385
0.00068219813
0.00083854277
0.0010306074
0.0011967532
0.0011949844
0.0011932251
0.0011915834
0.0011901787
0.0011891076
0.0011884128
0.001188049
0.0011878461
0.0011875013
0.0011866264
0.0011848394
0.0011819368
0.0011786133
0.0011757132
0.0011739093
0.0011733373
0.0011736818
0.0011739133
0.0011754664
0.0011741389
1.5611845e-07
8.8013467e-06
5.9946034e-06
7.1284251e-06
5.0186021e-06
5.7382063e-06
5.3832191e-06
5.7580903e-06
6.4459319e-06
5.9059663e-06
5.8292585e-06
5.5714853e-06
5.4526974e-06
5.3809432e-06
5.3632775e-06
5.3875035e-06
5.4497479e-06
5.5485777e-06
5.6819501e-06
5.8296704e-06
6.0281831e-06
6.2669594e-06
6.5489111e-06
6.8777929e-06
7.2589031e-06
7.6979447e-06
8.2034755e-06
8.7855411e-06
9.4550708e-06
1.0226976e-05
1.1119072e-05
1.2154082e-05
1.3299946e-05
1.4695295e-05
1.6332824e-05
1.8263042e-05
2.0550126e-05
2.3273268e-05
2.6532637e-05
3.0452136e-05
3.5183926e-05
4.122744e-05
4.8260499e-05
5.6831289e-05
6.7300222e-05
8.0115775e-05
9.5847906e-05
0.0001151887
0.00013899126
0.00016986368
0.00020627271
0.00025120795
0.0003066874
0.00037879686
0.00046392555
0.00056891109
0.00069818468
0.0008570008
0.0010514977
0.0011973675
0.0011954841
0.0011936281
0.0011919064
0.0011904275
0.0011892713
0.0011884598
0.00118793
0.0011875077
0.0011869113
0.0011858119
0.0011839329
0.0011812027
0.0011783347
0.001175947
0.0011745673
0.001174216
0.0011744775
0.001174775
0.0011766489
0.0011753076
1.4603011e-07
8.699879e-06
4.8561369e-06
6.2174852e-06
4.4777591e-06
5.0767298e-06
5.0368847e-06
5.0009257e-06
5.5375518e-06
5.0295372e-06
4.9285136e-06
4.7523902e-06
4.6733584e-06
4.639346e-06
4.6511196e-06
4.7001209e-06
4.7832251e-06
4.8808392e-06
5.0234533e-06
5.2017803e-06
5.417076e-06
5.6713843e-06
5.9684062e-06
6.3121367e-06
6.708535e-06
7.1636122e-06
7.6860216e-06
8.2617815e-06
8.9443819e-06
9.7303979e-06
1.0637711e-05
1.1689091e-05
1.2912424e-05
1.4342767e-05
1.6022084e-05
1.8002467e-05
2.035086e-05
2.3149248e-05
2.6501501e-05
3.0537321e-05
3.5415196e-05
4.1335336e-05
4.8541084e-05
5.7333542e-05
6.8085449e-05
8.193906e-05
9.8231084e-05
0.00011826071
0.00014290942
0.00017326733
0.00021265806
0.00025910618
0.0003163887
0.00038700974
0.00047855871
0.00058640195
0.00071890406
0.00088129921
0.0010797221
0.0011979058
0.0011959153
0.0011939673
0.0011921643
0.0011906033
0.0011893498
0.0011884101
0.0011877098
0.0011870792
0.0011862674
0.0011850065
0.0011831048
0.0011806808
0.0011782348
0.0011763039
0.0011752628
0.0011750689
0.0011752104
0.001175635
0.0011772305
0.0011765198
1.3715506e-07
8.4041159e-06
4.0507345e-06
5.4090315e-06
3.9984693e-06
4.4921213e-06
4.4869833e-06
4.3169742e-06
4.6605886e-06
4.2537289e-06
4.1562474e-06
4.0451732e-06
4.0037537e-06
4.0032393e-06
4.0421958e-06
4.0998045e-06
4.1961797e-06
4.3267869e-06
4.4909703e-06
4.6892718e-06
4.9236605e-06
5.1967718e-06
5.5127949e-06
5.8760548e-06
6.278914e-06
6.7511269e-06
7.2913763e-06
7.9097022e-06
8.6187084e-06
9.4334316e-06
1.0372211e-05
1.1458723e-05
1.2721972e-05
1.4198326e-05
1.5932528e-05
1.7978498e-05
2.0406588e-05
2.3302401e-05
2.6773754e-05
3.0957481e-05
3.6017691e-05
4.2163554e-05
4.96524e-05
5.8796473e-05
6.9985888e-05
8.3700992e-05
0.00010142684
0.00012227678
0.00014792265
0.00017949929
0.00021837347
0.00026878116
0.00032818453
0.00040132665
0.00049129942
0.00060753882
0.00074411547
0.0009112431
0.0011151848
0.0011983495
0.001196258
0.0011942212
0.001192334
0.0011906829
0.0011893221
0.0011882462
0.0011873755
0.0011865527
0.0011855665
0.00118421
0.0011823657
0.0011802801
0.0011782353
0.0011767048
0.0011759471
0.001175855
0.0011758815
0.0011763732
0.0011782625
0.0011778655
1.2955839e-07
7.966974e-06
3.568273e-06
4.6942965e-06
3.5730491e-06
3.8091076e-06
4.001425e-06
3.6901836e-06
3.8663209e-06
3.5789608e-06
3.50259e-06
3.4429855e-06
3.4360572e-06
3.465708e-06
3.512608e-06
3.6024683e-06
3.7252151e-06
3.8797293e-06
4.0663766e-06
4.286521e-06
4.5427493e-06
4.8380104e-06
5.167138e-06
5.5508784e-06
5.9885332e-06
6.4871428e-06
7.0551689e-06
7.702992e-06
8.4434668e-06
9.2925493e-06
1.026914e-05
1.1397893e-05
1.2709087e-05
1.4240843e-05
1.5972092e-05
1.8079207e-05
2.0581621e-05
2.3569075e-05
2.7316573e-05
3.1676558e-05
3.6953873e-05
4.3366279e-05
5.1186054e-05
6.073924e-05
7.2431651e-05
8.6766453e-05
0.00010436191
0.00012597758
0.00015390832
0.00018686082
0.00022739878
0.00027727201
0.00034182438
0.00041783991
0.00051123238
0.00063194529
0.00077341916
0.0009464401
0.001157544
0.001198684
0.0011964958
0.0011943714
0.0011923962
0.001190647
0.0011891693
0.0011879503
0.0011869115
0.0011859172
0.0011847974
0.0011833988
0.0011817353
0.0011799409
0.0011782883
0.0011770866
0.0011765679
0.001176535
0.0011764843
0.0011769578
0.0011790707
0.001179236
1.2356105e-07
7.1253344e-06
3.1577238e-06
4.0463261e-06
3.2063198e-06
3.1787467e-06
3.5170286e-06
3.1220635e-06
3.1841791e-06
3.0022436e-06
2.9553435e-06
2.9375767e-06
2.9533902e-06
3.0024281e-06
3.0882094e-06
3.2063005e-06
3.3547725e-06
3.5336488e-06
3.7441381e-06
3.9880921e-06
4.2624075e-06
4.5803382e-06
4.9422018e-06
5.3530195e-06
5.8187823e-06
6.3467494e-06
6.9457452e-06
7.6265319e-06
8.4023475e-06
9.2694952e-06
1.0281882e-05
1.1449983e-05
1.2805246e-05
1.4387081e-05
1.6244787e-05
1.8440019e-05
2.1049051e-05
2.4167404e-05
2.7913678e-05
3.2434519e-05
3.7912136e-05
4.489159e-05
5.3082421e-05
6.3093633e-05
7.5347059e-05
9.0367028e-05
0.00010879824
0.00013143357
0.00016070691
0.00019516225
0.00023751618
0.00028957268
0.00035697343
0.000436154
0.00053335831
0.00065258138
0.00080620206
0.00098621422
0.0012012045
0.0011988994
0.0011966169
0.0011944048
0.0011923369
0.0011904808
0.0011888758
0.0011875076
0.0011863071
0.0011851664
0.0011839563
0.0011826002
0.0011811626
0.0011796773
0.0011783318
0.0011774187
0.0011770866
0.0011770814
0.0011769942
0.0011773778
0.0011794734
0.0011802781
1.1884928e-07
4.9285505e-06
2.7917755e-06
3.444315e-06
2.7427855e-06
2.6512385e-06
3.0060032e-06
2.615967e-06
2.6165811e-06
2.5164929e-06
2.5029463e-06
2.5132614e-06
2.5604394e-06
2.6440198e-06
2.7595944e-06
2.9046694e-06
3.0786662e-06
3.2823599e-06
3.5142616e-06
3.7817172e-06
4.0860738e-06
4.4308658e-06
4.8203775e-06
5.2598072e-06
5.7554167e-06
6.3147494e-06
6.9469607e-06
7.6517346e-06
8.4613016e-06
9.3847509e-06
1.0443276e-05
1.1663202e-05
1.3077703e-05
1.4728429e-05
1.6667584e-05
1.896022e-05
2.168718e-05
2.4949032e-05
2.8870876e-05
3.3607908e-05
3.9352383e-05
4.6341259e-05
5.5275086e-05
6.578109e-05
7.8639263e-05
9.4395704e-05
0.00011372134
0.0001374415
0.00016657033
0.00020416679
0.00024844091
0.00030281043
0.00036957053
0.00045575759
0.00055706095
0.00068129679
0.00084158414
0.0010295195
0.0012013854
0.0011989919
0.001196617
0.001194315
0.0011921492
0.001190177
0.0011884353
0.0011869173
0.0011855681
0.0011843072
0.0011830632
0.0011818545
0.0011806124
0.001179383
0.0011783251
0.0011776575
0.0011774607
0.0011774749
0.0011774195
0.0011778387
0.0011798073
0.0011809691
1.137777e-07
4.0900912e-06
2.4042867e-06
2.8903705e-06
2.366467e-06
2.2115041e-06
2.4761946e-06
2.171365e-06
2.1551055e-06
2.1173772e-06
2.1330059e-06
2.1783503e-06
2.2618886e-06
2.3764897e-06
2.5195796e-06
2.6902835e-06
2.8890231e-06
3.1148763e-06
3.3736803e-06
3.6668598e-06
3.9975388e-06
4.3694923e-06
4.7872286e-06
5.2561283e-06
5.7826517e-06
6.3745971e-06
7.0336232e-06
7.7835598e-06
8.6334207e-06
9.6009192e-06
1.0708328e-05
1.1983442e-05
1.34612e-05
1.5185501e-05
1.7211556e-05
1.9608436e-05
2.2461819e-05
2.587779e-05
2.9988153e-05
3.4955617e-05
4.0981884e-05
4.8665209e-05
5.7687711e-05
6.8711312e-05
8.2200461e-05
9.8722874e-05
0.0001189754
0.00014381379
0.0001759023
0.00021359171
0.00025982864
0.00031656215
0.00038617486
0.00047601845
0.00058157285
0.00071106814
0.00087837446
0.0010748764
0.0012014448
0.0011989661
0.0011964997
0.0011941043
0.0011918352
0.001189741
0.0011878588
0.0011861953
0.0011847104
0.0011833657
0.0011822105
0.0011811256
0.0011800667
0.0011790649
0.001178245
0.0011777692
0.0011776666
0.001177708
0.0011777057
0.0011782983
0.00118012
0.0011808635
1.1034382e-07
3.2944753e-06
2.0722423e-06
2.334452e-06
2.0566711e-06
1.8348062e-06
1.9833273e-06
1.7937292e-06
1.7923744e-06
1.8044991e-06
1.8505265e-06
1.9342538e-06
2.0490096e-06
2.1908043e-06
2.3586743e-06
2.5529659e-06
2.7736566e-06
3.0245903e-06
3.307708e-06
3.6258608e-06
3.9824518e-06
4.3814584e-06
4.8275401e-06
5.326211e-06
5.8840834e-06
6.5047138e-06
7.204533e-06
7.9926528e-06
8.8838355e-06
9.8965969e-06
1.1054425e-05
1.2386642e-05
1.3930125e-05
1.5731123e-05
1.7847725e-05
2.0352878e-05
2.3337622e-05
2.6913506e-05
3.1219555e-05
3.6426517e-05
4.3026479e-05
5.0779239e-05
6.0232851e-05
7.1781872e-05
8.5907887e-05
0.00010320123
0.00012438417
0.00015034292
0.00018380421
0.00022310644
0.00027128194
0.00033034564
0.00040277343
0.00049617615
0.00060595391
0.00074072119
0.00091506051
0.0011203443
0.0012013949
0.001198835
0.0011962776
0.001193784
0.0011914062
0.0011891878
0.0011871633
0.001185353
0.0011837486
0.0011824621
0.0011813741
0.0011804034
0.0011795053
0.0011786974
0.0011780705
0.0011777369
0.001177699
0.001177772
0.0011778721
0.0011785032
0.0011800245
0.0011807712
1.0883443e-07
2.593824e-06
1.7848563e-06
1.8008534e-06
1.7711721e-06
1.5125063e-06
1.5806953e-06
1.4923235e-06
1.5217954e-06
1.5696449e-06
1.6548215e-06
1.7694056e-06
1.909925e-06
2.0748369e-06
2.2644963e-06
2.4801528e-06
2.7228378e-06
2.9962201e-06
3.3025222e-06
3.6448521e-06
4.0267758e-06
4.4524023e-06
4.9265018e-06
5.4546927e-06
6.0436976e-06
6.7016929e-06
7.4387607e-06
8.2674318e-06
9.1927427e-06
1.0250974e-05
1.1459528e-05
1.2849337e-05
1.4459328e-05
1.633829e-05
1.8547177e-05
2.1248315e-05
2.4389066e-05
2.8153925e-05
3.2689642e-05
3.8176607e-05
4.4836106e-05
5.2939036e-05
6.2818434e-05
7.4882005e-05
8.9628897e-05
0.0001076704
0.00012975351
0.0001581613
0.00019151471
0.00023235035
0.00028235979
0.00034362121
0.00042265802
0.00051537863
0.0006291368
0.00076890239
0.00094986278
0.0011635954
0.0012012554
0.0011986189
0.0011959729
0.0011933767
0.0011908824
0.0011885355
0.0011863651
0.0011844088
0.0011828353
0.0011815761
0.0011805485
0.0011796765
0.0011789159
0.0011782701
0.0011777985
0.0011775744
0.0011775783
0.0011776853
0.0011778768
0.001178494
0.0011797731
0.0011805049
1.103375e-07
1.995195e-06
1.5452314e-06
1.3921012e-06
1.4793183e-06
1.2421928e-06
1.2857413e-06
1.271038e-06
1.3335277e-06
1.4163431e-06
1.5304564e-06
1.6688406e-06
1.8302225e-06
2.0147698e-06
2.2237671e-06
2.4590361e-06
2.7224157e-06
3.0170602e-06
3.3456038e-06
3.7112799e-06
4.117747e-06
4.5691952e-06
5.0704825e-06
5.6273305e-06
6.2465935e-06
6.9366236e-06
7.7077554e-06
8.5729118e-06
9.5483536e-06
1.0654628e-05
1.1917674e-05
1.3370296e-05
1.5053754e-05
1.7019813e-05
1.9333111e-05
2.207405e-05
2.5342346e-05
2.9261608e-05
3.3984149e-05
3.9697626e-05
4.6632582e-05
5.5070893e-05
6.5354893e-05
7.7905778e-05
9.3236874e-05
0.00011290249
0.00013598884
0.00016421443
0.0001987326
0.00024095659
0.000292618
0.0003591861
0.00043717748
0.00053274199
0.00065000667
0.00080189162
0.00098087214
0.001202107
0.001201051
0.0011983432
0.0011956153
0.0011929189
0.0011903027
0.0011878223
0.0011855345
0.0011835196
0.001181951
0.0011807127
0.0011797326
0.0011789418
0.0011782951
0.0011777826
0.0011774337
0.0011772895
0.0011773364
0.0011774968
0.0011777576
0.0011783723
0.0011793871
0.0011797165
1.16039e-07
1.5039876e-06
1.3504156e-06
1.0935801e-06
1.3201373e-06
1.0181011e-06
1.085297e-06
1.1241033e-06
1.2138336e-06
1.3247129e-06
1.4601599e-06
1.6170657e-06
1.7958648e-06
1.9977423e-06
2.2244767e-06
2.4781504e-06
2.7611307e-06
3.0758678e-06
3.4255727e-06
3.813435e-06
4.2431778e-06
4.7190628e-06
5.2460363e-06
5.8299315e-06
6.4777488e-06
7.1980328e-06
8.0013793e-06
8.9011256e-06
9.9141053e-06
1.1061678e-05
1.2370831e-05
1.3875767e-05
1.5619521e-05
1.7656092e-05
2.0052878e-05
2.2893677e-05
2.6282225e-05
3.0346511e-05
3.5243987e-05
4.1167911e-05
4.8685208e-05
5.7496623e-05
6.8226157e-05
8.1307912e-05
9.7270391e-05
0.00011675822
0.00014055814
0.00016963049
0.0002051447
0.00025086097
0.00030429173
0.00036959984
0.00044949137
0.00054734307
0.00067391296
0.00082265254
0.0010061161
0.0012035505
0.0012008119
0.0011980381
0.001195237
0.0011924532
0.0011897281
0.0011871136
0.0011846934
0.0011826921
0.0011811118
0.001179882
0.0011789349
0.0011782066
0.00117765
0.001177244
0.0011769944
0.0011769139
0.0011769829
0.0011771412
0.0011773902
0.0011779203
0.0011786684
0.0011788983
1.2657852e-07
1.1805438e-06
1.182636e-06
9.4981331e-07
9.633294e-07
8.8943562e-07
9.5345866e-07
1.0351465e-06
1.1459911e-06
1.276771e-06
1.4283921e-06
1.6006542e-06
1.7948282e-06
2.012497e-06
2.2555859e-06
2.5262421e-06
2.8268633e-06
3.1601185e-06
3.5289943e-06
3.9368503e-06
4.3874978e-06
4.8853085e-06
5.4353657e-06
6.0436808e-06
6.7174917e-06
7.4629664e-06
8.2949674e-06
9.2255168e-06
1.0281287e-05
1.1469879e-05
1.2825749e-05
1.4384624e-05
1.6191397e-05
1.830229e-05
2.0787373e-05
2.3733582e-05
2.7248356e-05
3.1464025e-05
3.6543089e-05
4.2684647e-05
5.013219e-05
5.9183054e-05
7.0199667e-05
8.362131e-05
9.9985184e-05
0.00011994453
0.00014557926
0.00017552
0.000212043
0.00025660657
0.00031099843
0.00037742493
0.00045862256
0.0005633175
0.00068610049
0.00083707987
0.0010234268
0.0012033625
0.0012005744
0.0011977418
0.0011948729
0.0011920095
0.001189191
0.0011864711
0.0011839518
0.0011819387
0.0011803371
0.0011791035
0.0011781751
0.0011774915
0.0011770022
0.0011766741
0.0011764894
0.0011764314
0.0011764727
0.0011765826
0.0011767821
0.0011772294
0.0011777739
0.0011777586
1.4836287e-07
1.2286582e-06
1.0169052e-06
7.2382999e-07
7.858594e-07
7.9420514e-07
8.8028044e-07
9.8521577e-07
1.1127819e-06
1.2586609e-06
1.4240585e-06
1.6099322e-06
1.8178375e-06
2.0494685e-06
2.3067739e-06
2.5919227e-06
2.9073392e-06
3.2557334e-06
3.6401444e-06
4.0639937e-06
4.5311584e-06
5.0460768e-06
5.6138979e-06
6.2406977e-06
6.9337848e-06
7.702119e-06
8.5568633e-06
9.5120879e-06
1.0585659e-05
1.180029e-05
1.3184793e-05
1.4775645e-05
1.6618728e-05
1.8771488e-05
2.1305458e-05
2.430929e-05
2.7892398e-05
3.2189306e-05
3.7364895e-05
4.3620743e-05
5.1202904e-05
6.0844205e-05
7.2131532e-05
8.5868612e-05
0.00010259934
0.00012298369
0.0001478251
0.00017810194
0.00021500731
0.00025999723
0.00031486236
0.00038533409
0.00046768756
0.00056839781
0.0006918421
0.00084362642
0.0010310108
0.0012032135
0.0012003839
0.0011975002
0.0011945692
0.0011916298
0.0011887204
0.0011859039
0.0011833269
0.0011812823
0.0011796496
0.0011783997
0.0011774754
0.0011768186
0.0011763751
0.0011760992
0.0011759515
0.00117589
0.0011758762
0.0011759039
0.0011760301
0.0011763427
0.0011767319
0.0011767303
1.4137864e-07
8.1742678e-07
8.3220532e-07
6.1663708e-07
6.7583218e-07
7.3805091e-07
8.4293181e-07
9.6499182e-07
1.1059176e-06
1.2646979e-06
1.4426262e-06
1.6409469e-06
1.8612413e-06
2.1052674e-06
2.3750102e-06
2.6726921e-06
3.0008004e-06
3.3620742e-06
3.7596868e-06
4.1971093e-06
4.6782925e-06
5.2077458e-06
5.7906885e-06
6.433266e-06
7.1428609e-06
7.9285173e-06
8.8015028e-06
9.7760317e-06
1.0879155e-05
1.2119903e-05
1.3533749e-05
1.515794e-05
1.703924e-05
1.923613e-05
2.1821319e-05
2.4884814e-05
2.8537562e-05
3.2915828e-05
3.8186488e-05
4.4553368e-05
5.2264868e-05
6.1623053e-05
7.2994585e-05
8.6826172e-05
0.00010365955
0.00012415317
0.00014910734
0.00018107054
0.00021834762
0.00026373343
0.00031901333
0.00038638594
0.00046858444
0.00056903794
0.0006920953
0.00084333875
0.0010300121
0.0012031505
0.0012002879
0.0011973627
0.001194377
0.001191367
0.0011883717
0.0011854671
0.001182845
0.0011807494
0.0011790751
0.0011777969
0.0011768624
0.0011762145
0.0011757956
0.0011755505
0.0011754216
0.0011753532
0.0011753057
0.0011752758