/*--------------------------------*- C++ -*----------------------------------*\
  =========                 |
  \\      /  F ield         | OpenFOAM: The Open Source CFD Toolbox
   \\    /   O peration     | Website:  https://openfoam.org
    \\  /    A nd           | Version:  12
     \\/     M anipulation  |
\*---------------------------------------------------------------------------*/
FoamFile
{
    format      ascii;
    class       volScalarField;
    location    "0.043";
    object      Ma;
}
// * * * * * * * * * * * * * * * * * * * * * * * * * * * * * * * * * * * * * //

dimensions      [];

internalField   nonuniform List<scalar> 
16000
(
0.61611474
0.73155547
0.68791181
0.71166373
0.69704329
0.70375227
0.69821594
0.6996707
0.69709679
0.69665328
0.6950692
0.69395635
0.69257196
0.69122027
0.68978802
0.68831033
0.68677624
0.68518745
0.6835429
0.68184226
0.68008533
0.67827213
0.67640295
0.67447836
0.67249922
0.67046676
0.66838255
0.66624853
0.66406707
0.66184093
0.65957333
0.6572679
0.6549287
0.65256022
0.65016737
0.64775542
0.64533001
0.64289708
0.64046284
0.6380337
0.63561623
0.63321707
0.6308429
0.62850035
0.62619594
0.62393604
0.62172676
0.61957399
0.61748326
0.61545976
0.61350833
0.61163343
0.60983909
0.60812897
0.60650631
0.6049739
0.6035341
0.60218868
0.60093855
0.59978332
0.59872103
0.59774747
0.59685478
0.59603
0.5952534
0.59449656
0.59372092
0.59287823
0.59191491
0.5907828
0.58945756
0.58796292
0.58638984
0.58488614
0.5836102
0.58270388
0.58219882
0.58201412
0.58220607
0.58158975
0.62054232
0.73672494
0.69118873
0.71628778
0.7008463
0.70801738
0.70203519
0.70361175
0.70085391
0.70034191
0.69867037
0.69744471
0.69597041
0.69450698
0.69296841
0.69137676
0.68972625
0.68801694
0.68624836
0.68442024
0.68253261
0.68058577
0.67858034
0.67651726
0.67439786
0.67222384
0.66999733
0.66772089
0.66539752
0.66303068
0.66062429
0.65818275
0.65571086
0.65321389
0.6506975
0.64816769
0.6456308
0.6430934
0.64056227
0.63804432
0.6355465
0.63307576
0.63063896
0.62824279
0.62589371
0.62359792
0.62136126
0.61918921
0.61708685
0.61505882
0.61310935
0.61124223
0.60946079
0.60776795
0.60616618
0.60465746
0.60324331
0.60192462
0.60070144
0.59957242
0.59853457
0.59758266
0.59670784
0.59589636
0.59512794
0.59437406
0.59359667
0.59274863
0.59177817
0.59063965
0.58931229
0.58782479
0.58627273
0.5848048
0.58358861
0.5827431
0.58230768
0.58215682
0.58234669
0.58135014
0.62469331
0.74147985
0.69469693
0.72033348
0.70443328
0.71170856
0.70556775
0.70703745
0.70422426
0.70355944
0.70182077
0.7004606
0.69888434
0.69729718
0.69563717
0.69391779
0.69213581
0.690291
0.68838314
0.68641227
0.68437874
0.68228326
0.68012688
0.67791107
0.67563771
0.67330915
0.67092818
0.6684981
0.6660227
0.66350627
0.66095362
0.65837001
0.65576117
0.65313327
0.65049283
0.6478467
0.64520198
0.64256594
0.63994598
0.63734946
0.6347837
0.63225586
0.62977287
0.62734135
0.62496753
0.62265725
0.62041587
0.61824828
0.61615885
0.61415146
0.61222951
0.61039592
0.60865313
0.60700313
0.60544744
0.60398713
0.60262274
0.60135417
0.60018042
0.59909908
0.59810603
0.59719477
0.59635523
0.59557251
0.59482544
0.59408507
0.59331374
0.59246585
0.59149262
0.59035298
0.58903226
0.5875659
0.58605347
0.58464397
0.58350909
0.58274256
0.58238516
0.58225882
0.58244803
0.58109029
0.62849463
0.74583306
0.69775529
0.72390677
0.70757934
0.71496321
0.70865805
0.71000265
0.70712651
0.70629014
0.70447065
0.70296066
0.70126515
0.69953865
0.69774021
0.6958767
0.69394686
0.69195043
0.68988753
0.68775859
0.68556437
0.68330606
0.68098524
0.67860401
0.67616492
0.67367107
0.6711261
0.66853419
0.6659001
0.66322913
0.6605271
0.65780034
0.65505563
0.65230015
0.64954138
0.64678706
0.64404509
0.64132339
0.63862988
0.63597231
0.63335818
0.63079467
0.62828856
0.62584614
0.62347316
0.62117483
0.61895573
0.61681989
0.61477073
0.61281111
0.61094338
0.60916937
0.60749044
0.60590751
0.60442104
0.60303107
0.60173708
0.60053795
0.59943164
0.5984147
0.59748188
0.59662555
0.59583451
0.59509284
0.59437861
0.59366265
0.59290794
0.59207085
0.59110625
0.58997837
0.58867901
0.58724939
0.5857907
0.58445087
0.583399
0.58271117
0.58242645
0.58232702
0.58249818
0.58082714
0.63195025
0.7497292
0.70055041
0.72683907
0.71015546
0.71768697
0.71126556
0.71242318
0.70950468
0.70846007
0.70654896
0.70487115
0.70303767
0.70115584
0.69920162
0.69717758
0.69508351
0.69291933
0.69068549
0.68838279
0.68601251
0.68357639
0.68107671
0.67851635
0.67589875
0.67322799
0.67050877
0.66774643
0.66494692
0.66211678
0.6592631
0.65639343
0.65351577
0.6506384
0.64776985
0.64491877
0.64209378
0.6393034
0.63655589
0.63385918
0.63122073
0.62864747
0.62614572
0.62372111
0.6213786
0.61912242
0.61695609
0.61488245
0.61290371
0.61102147
0.6092368
0.60755025
0.60596197
0.60447168
0.6030787
0.60178194
0.60057984
0.59947021
0.59844998
0.59751467
0.59665801
0.59587127
0.59514224
0.59445405
0.59378411
0.59310306
0.59237462
0.59155737
0.59061028
0.5895038
0.58823721
0.58685778
0.58546743
0.58421148
0.58325093
0.58264881
0.58242841
0.58235326
0.58250198
0.5805557
0.63501296
0.75308449
0.7029256
0.72934561
0.71237465
0.71980035
0.71326251
0.71421921
0.71127545
0.70999636
0.70798048
0.70612296
0.70413492
0.7020842
0.69995862
0.69775837
0.69548372
0.69313498
0.69071304
0.6882193
0.68565576
0.68302503
0.68033038
0.67757577
0.67476587
0.67190608
0.66900251
0.66606193
0.66309181
0.66010016
0.65709556
0.65408697
0.65108368
0.64809517
0.64513098
0.64220056
0.63931313
0.63647754
0.63370216
0.63099477
0.62836241
0.62581136
0.62334708
0.62097416
0.61869635
0.61651653
0.61443681
0.61245857
0.61058251
0.60880874
0.60713687
0.60556607
0.60409514
0.60272255
0.60144643
0.60026459
0.5991744
0.59817267
0.59725535
0.59641702
0.59565048
0.59494607
0.59429071
0.59366683
0.59305134
0.59241492
0.59172223
0.59093424
0.59001434
0.58893958
0.5877172
0.58640026
0.5850911
0.58393343
0.5830674
0.58256999
0.58238583
0.58233379
0.58245591
0.58026938
0.63764037
0.75587499
0.70486764
0.7313741
0.71416406
0.72127522
0.71472704
0.71533723
0.71239967
0.71086827
0.70873332
0.70668524
0.7045235
0.70228632
0.69996905
0.69757135
0.69509403
0.69253814
0.68990541
0.68719823
0.68441969
0.68157366
0.67866479
0.67569854
0.6726812
0.66961986
0.66652236
0.6633973
0.66025388
0.65710188
0.65395149
0.65081319
0.64769759
0.64461528
0.64157665
0.63859173
0.63567001
0.63282033
0.63005071
0.62736829
0.62477923
0.62228864
0.61990064
0.61761828
0.61544366
0.61337795
0.61142151
0.60957393
0.6078342
0.60620078
0.60467171
0.60324469
0.60191716
0.60068633
0.59954921
0.59850252
0.59754268
0.59666555
0.59586621
0.59513843
0.5944742
0.59386308
0.59329134
0.5927409
0.59218847
0.59160503
0.59095647
0.59020645
0.58932298
0.58828994
0.58712237
0.58587866
0.58466204
0.58361465
0.58284947
0.58245524
0.58230088
0.58227692
0.58236104
0.57997118
0.63986195
0.75812249
0.70640716
0.73294677
0.715557
0.72226354
0.71577122
0.71620262
0.71291508
0.7110916
0.70880497
0.70654241
0.704175
0.7017216
0.69918177
0.69655581
0.6938453
0.69105237
0.68817993
0.68523171
0.68221232
0.6791273
0.67598309
0.67278709
0.66954762
0.66627384
0.66297574
0.65966398
0.6563498
0.65304485
0.64976102
0.64651027
0.6433044
0.64015484
0.63707251
0.63406755
0.63114925
0.62832582
0.62560436
0.62299073
0.62048955
0.6181042
0.61583686
0.61368855
0.61165928
0.60974812
0.60795338
0.60627269
0.60470317
0.60324155
0.60188428
0.60062762
0.59946772
0.59840064
0.59742234
0.59652862
0.59571504
0.59497668
0.59430788
0.59370172
0.59314955
0.59264036
0.59215993
0.59168992
0.59120712
0.59068322
0.59008572
0.58938136
0.58854305
0.58756142
0.58645861
0.58529732
0.58418151
0.58324556
0.58258916
0.5822908
0.58217118
0.58217577
0.58220961
0.57965329
0.64174054
0.75985412
0.70751499
0.7340678
0.71633829
0.72244771
0.71600041
0.71569394
0.71270342
0.7106242
0.70813846
0.70562687
0.70301324
0.70030566
0.69750555
0.6946144
0.69163486
0.68857048
0.68542574
0.6822062
0.67891845
0.6755702
0.67217021
0.66872833
0.66525535
0.66176296
0.6582636
0.6547703
0.65129644
0.6478556
0.64446126
0.64112659
0.6378642
0.63468591
0.63160252
0.62862364
0.62575756
0.62301111
0.62038963
0.61789695
0.61553542
0.613306
0.61120836
0.60924101
0.60740148
0.60568648
0.60409209
0.60261388
0.6012471
0.5999868
0.59882796
0.59776555
0.59679457
0.59591011
0.59510729
0.59438116
0.59372661
0.59313811
0.59260943
0.59213313
0.59170009
0.59129887
0.59091499
0.59053007
0.59012132
0.58966146
0.58912015
0.58846762
0.587682
0.58676049
0.58573118
0.58465941
0.58364817
0.58282398
0.58228873
0.58207167
0.58198858
0.58202646
0.58198512
0.57931118
0.64328719
0.76105473
0.70811892
0.73460032
0.71642267
0.72204263
0.71561524
0.71495602
0.71178182
0.70935534
0.7066216
0.70382365
0.70092088
0.69791733
0.69481552
0.69161871
0.68833121
0.68495852
0.68150737
0.67798573
0.67440287
0.6707693
0.66709678
0.66339815
0.65968721
0.6559786
0.65228747
0.64862933
0.64501968
0.64147379
0.63800635
0.6346312
0.63136106
0.62820728
0.62517964
0.62228622
0.61953329
0.61692529
0.61446484
0.61215286
0.60998867
0.60797017
0.60609402
0.60435586
0.60275055
0.60127231
0.59991499
0.5986722
0.59753748
0.59650441
0.59556673
0.59471837
0.59395347
0.5932664
0.59265167
0.59210383
0.59161731
0.59118619
0.59080383
0.59046246
0.59015263
0.58986267
0.58957802
0.58928049
0.58894798
0.58855469
0.58807284
0.58747663
0.58674967
0.58589534
0.58494642
0.58396951
0.58306593
0.58235176
0.58193675
0.58178804
0.58174476
0.58181762
0.58166772
0.57895732
0.64445508
0.7616444
0.70815337
0.73373756
0.71575513
0.7208505
0.71451224
0.7132665
0.70996206
0.70716895
0.70413033
0.70100091
0.69776065
0.6944138
0.69096423
0.68741748
0.68378028
0.68006087
0.67626901
0.67241598
0.66851456
0.66457892
0.66062451
0.65666781
0.6527261
0.64881719
0.64495905
0.64116949
0.63746576
0.63386419
0.63037989
0.62702635
0.62381526
0.62075623
0.61785671
0.61512192
0.61255486
0.6101564
0.60792547
0.60585921
0.60395329
0.60220206
0.60059893
0.59913655
0.59780709
0.59660247
0.59551453
0.59453523
0.5936567
0.59287145
0.5921723
0.59155252
0.59100573
0.59052587
0.59010715
0.58974387
0.58943023
0.5891601
0.58892667
0.58872198
0.58853641
0.58835824
0.58817298
0.58796288
0.58770682
0.58738083
0.58696008
0.58642306
0.58575885
0.58497648
0.58411217
0.5832327
0.58243543
0.58182677
0.58151387
0.58142525
0.58143302
0.58154795
0.58128
0.57857945
0.64515306
0.7614519
0.70750771
0.73199808
0.71444797
0.71876352
0.71249631
0.71065839
0.70712652
0.70392575
0.70051992
0.69700549
0.69337313
0.68962966
0.68578118
0.6818364
0.67780552
0.67370067
0.66953581
0.66532667
0.6610906
0.65684631
0.65261365
0.64841322
0.64426601
0.64019294
0.63621442
0.63234992
0.62861746
0.62503327
0.62161136
0.61836329
0.61529799
0.6124216
0.60973757
0.60724672
0.60494746
0.602836
0.6009067
0.59915239
0.5975647
0.59613436
0.59485157
0.59370622
0.59268816
0.59178739
0.59099422
0.59029943
0.58969428
0.58917062
0.58872087
0.588338
0.58801549
0.58774722
0.58752735
0.5873502
0.58720997
0.58710053
0.58701504
0.5869455
0.58688231
0.58681381
0.5867258
0.58660118
0.5864201
0.58616073
0.58580141
0.585325
0.58472576
0.58401735
0.58323809
0.58245334
0.5817544
0.58124529
0.58101093
0.58096751
0.58104828
0.58123023
0.58078323
0.57816851
0.64530754
0.76039026
0.70603711
0.72968996
0.71234224
0.71568338
0.70945039
0.70696597
0.7031259
0.69946827
0.69562492
0.69166094
0.68757289
0.68337164
0.6790672
0.67467286
0.67020392
0.66567792
0.66111449
0.65653507
0.65196259
0.64742108
0.64293524
0.63852987
0.63422934
0.630057
0.62603459
0.62218173
0.61851539
0.61504954
0.61179488
0.60875872
0.60594497
0.60335432
0.60098442
0.59883026
0.59688455
0.59513813
0.59358041
0.59219979
0.59098403
0.58992059
0.58899696
0.58820086
0.58752046
0.5869445
0.58646246
0.58606452
0.58574167
0.58548566
0.58528894
0.58514466
0.58504649
0.58498857
0.58496531
0.58497123
0.58500077
0.58504794
0.58510602
0.58516713
0.58522179
0.58525856
0.58526371
0.58522103
0.5851122
0.58491771
0.5846192
0.58420364
0.58366976
0.58303438
0.58233651
0.58163889
0.58102671
0.58060606
0.58042742
0.58041974
0.58058681
0.58084005
0.58017068
0.57763879
0.64489698
0.75836788
0.70366346
0.7262835
0.70924253
0.71150126
0.70522761
0.7020469
0.69779051
0.69360623
0.68924217
0.6847501
0.68013186
0.6754041
0.67058302
0.66568852
0.66074291
0.65577093
0.65079928
0.64585623
0.64097108
0.63617349
0.63149282
0.62695736
0.62259357
0.61842537
0.61447346
0.61075483
0.60728236
0.60406469
0.60110623
0.59840728
0.59596443
0.59377097
0.59181741
0.590092
0.58858135
0.58727089
0.58614538
0.58518934
0.58438741
0.5837246
0.58318658
0.5827598
0.58243163
0.5821904
0.58202545
0.58192712
0.58188668
0.58189632
0.581949
0.58203839
0.58215871
0.58230459
0.58247093
0.58265266
0.58284457
0.58304096
0.58323534
0.58342004
0.58358585
0.58372169
0.58381446
0.58384907
0.58380892
0.58367694
0.58343794
0.58308257
0.58261282
0.5820472
0.58142479
0.58080618
0.58026925
0.57991815
0.57977462
0.5798011
0.58004961
0.58032764
0.5794768
0.57705223
0.64386913
0.75522106
0.70032777
0.72174474
0.70500786
0.70605197
0.69963232
0.6956885
0.69089101
0.68608719
0.68110453
0.67599324
0.67076298
0.66543852
0.66004487
0.65461084
0.64916773
0.64374907
0.6383899
0.63312606
0.62799328
0.62302621
0.61825737
0.61371623
0.60942824
0.60541417
0.6016896
0.59826469
0.59514422
0.59232781
0.58981043
0.58758296
0.58563293
0.58394519
0.58250266
0.58128702
0.58027929
0.57946036
0.5788114
0.57831426
0.57795166
0.57770739
0.57756646
0.57751511
0.57754088
0.57763253
0.57778004
0.5779745
0.57820805
0.57847376
0.57876545
0.57907763
0.5794053
0.57974382
0.58008869
0.5804354
0.58077918
0.58111472
0.58143585
0.5817352
0.58200391
0.58223141
0.58240541
0.58251207
0.58253664
0.5824645
0.58228335
0.58198684
0.58157901
0.5810791
0.5805258
0.57997527
0.57950251
0.57920108
0.57907405
0.57913417
0.5794558
0.57971151
0.57869977
0.57649618
0.64216557
0.75071446
0.69605331
0.71587089
0.69943031
0.69911428
0.69240029
0.68759931
0.6821145
0.67657546
0.67086499
0.66503878
0.65911792
0.65313785
0.64713508
0.64114967
0.63522396
0.62940169
0.62372687
0.61824245
0.61298895
0.60800306
0.60331638
0.59895451
0.5949363
0.59127363
0.58797142
0.58502806
0.58243606
0.5801829
0.57825198
0.57662358
0.57527581
0.57418551
0.57332898
0.57268261
0.57222341
0.5719294
0.57177986
0.57175557
0.57183885
0.57201365
0.57226552
0.57258157
0.57295039
0.57336194
0.57380747
0.57427935
0.57477099
0.57527666
0.57579132
0.57631052
0.5768302
0.57734653
0.57785574
0.57835392
0.57883682
0.57929958
0.57973638
0.58014025
0.58050277
0.58081398
0.58106251
0.58123591
0.58132128
0.58130628
0.58118119
0.58094185
0.58059367
0.58015613
0.57966492
0.57917099
0.57875409
0.57848308
0.57836115
0.57844955
0.57882443
0.57903924
0.57790183
0.57596808
0.6397311
0.7444784
0.69080808
0.70841185
0.69221103
0.69035068
0.68315116
0.67737221
0.67104279
0.66464302
0.65809737
0.65147097
0.64480063
0.63813592
0.63152818
0.62503156
0.61870103
0.61259066
0.60675162
0.60123024
0.59606626
0.59129144
0.58692871
0.58299176
0.57948526
0.57640547
0.57374118
0.57147498
0.56958456
0.568044
0.56682507
0.56589835
0.56523414
0.56480325
0.56457762
0.56453071
0.56463782
0.56487623
0.56522531
0.56566649
0.56618322
0.56676088
0.56738664
0.56804935
0.56873936
0.56944842
0.57016947
0.57089653
0.57162451
0.57234907
0.57306646
0.57377336
0.5744667
0.57514352
0.5758008
0.57643527
0.57704321
0.5776202
0.57816088
0.57865868
0.57910573
0.57949276
0.57980941
0.5800446
0.58018718
0.5802269
0.58015612
0.57997249
0.5796824
0.57930458
0.57886786
0.57842461
0.57805722
0.57780112
0.57767954
0.57778377
0.57818621
0.57836505
0.57717876
0.57551311
0.63644347
0.73584224
0.68393863
0.69892211
0.68289798
0.67928897
0.67138323
0.66449449
0.65716571
0.64978351
0.64231081
0.63482732
0.62739181
0.62007321
0.61294119
0.60606507
0.5995106
0.59333723
0.58759556
0.58232546
0.57755485
0.57329932
0.56956251
0.5663371
0.56360634
0.56134574
0.55952501
0.55810984
0.55706353
0.55634853
0.55592752
0.5557644
0.55582492
0.55607713
0.5564917
0.55704199
0.55770408
0.55845672
0.55928118
0.56016109
0.56108224
0.56203244
0.56300126
0.56397988
0.56496088
0.5659381
0.56690642
0.56786165
0.56880031
0.56971951
0.5706168
0.57148999
0.57233698
0.57315568
0.57394378
0.57469864
0.57541706
0.5760951
0.57672785
0.57730923
0.57783195
0.57828751
0.57866654
0.57895929
0.57915619
0.57924878
0.57923124
0.57910269
0.57886876
0.57854478
0.57816527
0.57777724
0.57744202
0.57719451
0.57707179
0.57717975
0.57757855
0.57773349
0.57662853
0.57519121
0.63202139
0.72466804
0.67502323
0.6868368
0.67091251
0.66537096
0.65650111
0.6483541
0.63987673
0.63140733
0.62295552
0.61462409
0.60650022
0.59867513
0.59123479
0.58425688
0.57780686
0.57193531
0.56667639
0.56204743
0.55804974
0.55467023
0.55188373
0.54965556
0.5479442
0.54670382
0.5458865
0.54544404
0.54532946
0.54549805
0.54590807
0.54652122
0.54730283
0.54822187
0.5492509
0.55036585
0.55154579
0.55277267
0.55403105
0.55530784
0.55659198
0.55787429
0.55914716
0.56040437
0.56164092
0.56285282
0.56403695
0.56519085
0.56631266
0.56740086
0.56845421
0.56947159
0.57045184
0.57139363
0.57229534
0.5731549
0.57396962
0.57473603
0.57544968
0.57610505
0.57669548
0.57721324
0.57764996
0.57799705
0.57824641
0.57839112
0.57842677
0.57835293
0.57817515
0.57790813
0.57758197
0.5772407
0.57693474
0.57669789
0.57657383
0.57667694
0.57704146
0.57716461
0.57621071
0.57500384
0.62608972
0.71220286
0.66350028
0.67158264
0.65555007
0.64788841
0.63775007
0.62817681
0.61843453
0.60884422
0.59947402
0.59045521
0.58190069
0.57391431
0.5665821
0.55996915
0.55411743
0.54904556
0.54475032
0.54120939
0.53838488
0.53622724
0.53467911
0.53367882
0.53316333
0.53307061
0.53334135
0.53392018
0.53475638
0.5358042
0.53702293
0.53837679
0.53983459
0.54136945
0.54295834
0.54458172
0.54622315
0.54786888
0.54950754
0.55112981
0.55272815
0.55429655
0.55583029
0.55732577
0.55878033
0.56019207
0.5615597
0.56288242
0.56415979
0.56539156
0.56657757
0.56771765
0.56881146
0.56985837
0.57085736
0.57180689
0.57270474
0.5735479
0.57433244
0.57505338
0.57570473
0.57627958
0.57677042
0.57716975
0.57747066
0.57766755
0.5777569
0.57773844
0.57761749
0.57740836
0.57713719
0.57684173
0.57656152
0.57633209
0.57621053
0.57630135
0.57661045
0.57668757
0.57589538
0.57498824
0.61832863
0.69578002
0.64856198
0.65229041
0.63578804
0.62579944
0.61411183
0.60300833
0.59202744
0.58148438
0.57150244
0.56222876
0.55377736
0.54623379
0.53964987
0.53404459
0.52940659
0.52569882
0.52286409
0.52083102
0.51951964
0.51884629
0.51872756
0.51908326
0.51983843
0.52092456
0.52228019
0.52385102
0.5255897
0.52745535
0.52941309
0.53143334
0.53349129
0.53556626
0.53764116
0.53970203
0.54173753
0.5437386
0.54569813
0.5476106
0.54947189
0.55127901
0.55302997
0.55472354
0.55635918
0.55793684
0.55945687
0.56091989
0.56232668
0.56367809
0.56497489
0.56621771
0.56740692
0.56854251
0.56962398
0.57065026
0.57161957
0.57252935
0.57337614
0.57415559
0.57486237
0.57549035
0.57603284
0.57648319
0.5768354
0.57708478
0.57722861
0.57726695
0.57720454
0.57705417
0.57683896
0.5765888
0.57633351
0.57611196
0.57599349
0.57605987
0.57630721
0.57633303
0.5756866
0.57512618
0.60811842
0.674485
0.62884289
0.62755704
0.61016672
0.59772843
0.5844181
0.57194056
0.56007981
0.54912826
0.53922405
0.53048553
0.52297676
0.51671558
0.51167658
0.50779922
0.50499668
0.50316508
0.50219176
0.50196219
0.50236525
0.50329682
0.50466203
0.50637629
0.50836554
0.51056584
0.51292273
0.51539027
0.51793009
0.52051043
0.52310521
0.5256932
0.5282573
0.53078386
0.53326216
0.53568391
0.53804283
0.54033434
0.54255526
0.54470356
0.54677815
0.54877872
0.55070562
0.55255968
0.55434212
0.55605446
0.55769841
0.55927577
0.56078834
0.56223785
0.56362586
0.56495366
0.56622221
0.56743202
0.56858306
0.56967469
0.57070551
0.57167338
0.57257534
0.57340759
0.5741655
0.57484367
0.57543618
0.57593707
0.57634103
0.576644
0.57684365
0.57694001
0.57693717
0.57684618
0.57668658
0.57648186
0.57625346
0.57603821
0.57593456
0.57596851
0.57613895
0.57612075
0.57562194
0.57536996
0.59431055
0.64622268
0.60243704
0.59563892
0.57707743
0.56229577
0.54776428
0.53459148
0.52273923
0.51242113
0.50370788
0.49661599
0.49109571
0.48704892
0.48434244
0.48282296
0.48232955
0.4827036
0.48379577
0.48547025
0.48760685
0.49010147
0.49286552
0.49582465
0.49891723
0.5020927
0.50530998
0.50853599
0.51174434
0.51491419
0.51802929
0.52107718
0.52404846
0.52693626
0.52973576
0.53244383
0.53505865
0.53757953
0.54000665
0.54234088
0.54458369
0.54673695
0.5488029
0.55078404
0.55268302
0.55450261
0.55624558
0.55791467
0.55951249
0.56104149
0.56250384
0.56390139
0.56523558
0.56650737
0.56771713
0.56886458
0.56994872
0.57096777
0.57191923
0.57279985
0.57360559
0.57433178
0.57497319
0.57552448
0.57598078
0.57633833
0.5765949
0.57675027
0.57680763
0.57677574
0.5766697
0.57650811
0.57631168
0.57611538
0.57599472
0.57599922
0.57609535
0.57605305
0.57569077
0.57567511
0.57496306
0.60865688
0.5671459
0.55472327
0.53545644
0.51877053
0.50414173
0.49166889
0.48131678
0.47312793
0.46700563
0.46279209
0.46027885
0.45923503
0.45942609
0.46062878
0.46264006
0.46528169
0.46840137
0.47187174
0.47558807
0.47946548
0.48343596
0.4874456
0.49145214
0.49542274
0.49933225
0.50316166
0.50689687
0.51052772
0.51404715
0.5174506
0.52073545
0.52390064
0.5269463
0.52987355
0.5326842
0.53538066
0.53796579
0.54044276
0.54281498
0.54508604
0.54725965
0.54933956
0.55132952
0.55323323
0.55505431
0.55679619
0.55846212
0.56005509
0.56157776
0.56303243
0.56442095
0.56574464
0.56700424
0.5681998
0.56933066
0.5703954
0.57139194
0.57231748
0.57316855
0.57394108
0.57463049
0.57523199
0.57574105
0.57615393
0.5764681
0.57668283
0.57680029
0.57682683
0.57677305
0.57665285
0.57648726
0.576315
0.57619351
0.57616564
0.57619024
0.57610211
0.57586269
0.57600849
0.54746656
0.55928483
0.52154881
0.50343344
0.48308837
0.46784132
0.45505881
0.44533359
0.43840226
0.43402476
0.4318587
0.43154519
0.43273119
0.43509471
0.43835516
0.44227684
0.44666712
0.45137187
0.45626987
0.4612671
0.46629157
0.47128883
0.47621823
0.48104989
0.48576231
0.49034045
0.49477422
0.49905737
0.50318656
0.50716066
0.51098023
0.5146471
0.51816403
0.52153449
0.52476246
0.52785227
0.5308085
0.53363588
0.53633924
0.53892344
0.54139336
0.54375382
0.54600959
0.54816535
0.55022564
0.55219486
0.55407721
0.55587666
0.55759692
0.55924141
0.56081317
0.56231487
0.56374868
0.56511626
0.56641865
0.5676562
0.56882857
0.5699347
0.57097286
0.57194066
0.57283508
0.57365255
0.57438905
0.57504027
0.57560197
0.57607027
0.57644213
0.57671604
0.57689298
0.57697713
0.5769755
0.57689846
0.57676642
0.57661855
0.57650243
0.57643968
0.5763968
0.57628013
0.57611458
0.57631307
0.50772764
0.49545571
0.45870442
0.44106
0.42386532
0.41184175
0.40365918
0.39910812
0.39754106
0.39837891
0.40105967
0.40510241
0.41011017
0.41576891
0.42183672
0.42813136
0.43451792
0.44089812
0.44720154
0.45337864
0.45939543
0.46522941
0.47086653
0.47629891
0.4815232
0.48653926
0.4913493
0.49595717
0.50036784
0.50458708
0.50862114
0.51247657
0.51616007
0.51967839
0.52303825
0.52624628
0.52930899
0.53223276
0.5350238
0.53768815
0.54023168
0.54266008
0.54497886
0.54719331
0.54930855
0.55132945
0.55326062
0.55510641
0.55687089
0.55855778
0.56017043
0.56171179
0.56318432
0.56458996
0.56593
0.5672051
0.5684152
0.56955955
0.57063676
0.57164479
0.57258101
0.57344222
0.57422481
0.57492488
0.57553837
0.57606123
0.57648987
0.57682182
0.57705666
0.57719658
0.57724635
0.57721471
0.57712053
0.57699905
0.57689051
0.57680716
0.57671353
0.57655713
0.57640039
0.57658696
0.44692694
0.41476358
0.38539039
0.3707483
0.36005551
0.35533215
0.35479307
0.35753012
0.36256251
0.36913936
0.37668223
0.38477193
0.39311198
0.40149822
0.40979313
0.41790649
0.4257811
0.43338264
0.44069249
0.44770275
0.45441268
0.46082633
0.46695086
0.47279535
0.47837002
0.48368569
0.48875339
0.49358412
0.49818868
0.5025776
0.506761
0.51074867
0.51454993
0.51817375
0.52162865
0.52492279
0.52806397
0.53105963
0.53391687
0.53664251
0.53924306
0.54172477
0.54409363
0.54635534
0.54851537
0.5505789
0.55255083
0.55443577
0.55623802
0.55796155
0.55960993
0.56118634
0.56269347
0.56413348
0.5655079
0.56681764
0.56806288
0.56924316
0.5703574
0.57140388
0.57238027
0.57328373
0.57411095
0.57485825
0.57552165
0.57609694
0.57657999
0.57696747
0.5772576
0.5774507
0.57754979
0.57756284
0.57750754
0.57741447
0.57731682
0.57722192
0.57709525
0.57690537
0.57672139
0.57679073
0.35237691
0.3192324
0.30180875
0.29740186
0.29878832
0.3050042
0.31408896
0.32479091
0.33624603
0.34790955
0.35945002
0.37067423
0.38147627
0.39180427
0.40163936
0.41098238
0.41984571
0.42824807
0.43621137
0.44375878
0.45091353
0.45769827
0.46413463
0.47024306
0.47604277
0.48155169
0.48678654
0.4917629
0.49649526
0.50099712
0.50528105
0.50935882
0.51324139
0.51693907
0.52046152
0.5238178
0.52701649
0.53006568
0.532973
0.53574574
0.53839079
0.54091473
0.54332382
0.54562402
0.54782099
0.54992011
0.55192646
0.5538448
0.5556796
0.55743496
0.55911465
0.560722
0.56225988
0.56373062
0.56513596
0.566477
0.56775414
0.56896716
0.57011524
0.57119693
0.57221021
0.57315253
0.57402084
0.57481163
0.57552091
0.57614421
0.5766769
0.57711491
0.57745543
0.57769738
0.57784245
0.57789791
0.57788009
0.57781511
0.5777292
0.57762606
0.57747637
0.5772538
0.57701577
0.57694451
0.21466061
0.21341007
0.21876073
0.23204628
0.24919315
0.26740253
0.28548289
0.30279154
0.31910283
0.3343544
0.348572
0.36181612
0.37416039
0.38567989
0.39644613
0.40652494
0.41597586
0.42485222
0.43320164
0.44106657
0.44848484
0.45549025
0.46211305
0.46838039
0.47431672
0.47994412
0.48528261
0.49035037
0.49516403
0.49973878
0.50408859
0.50822635
0.51216397
0.51591248
0.51948219
0.52288269
0.52612296
0.52921146
0.53215615
0.53496452
0.53764371
0.54020046
0.54264119
0.54497199
0.54719865
0.54932665
0.55136117
0.55330708
0.55516893
0.55695097
0.55865707
0.56029068
0.56185483
0.563352
0.56478409
0.56615235
0.56745739
0.56869915
0.56987702
0.57098979
0.57203566
0.57301232
0.5739169
0.57474601
0.57549562
0.57616089
0.5767364
0.57721712
0.57759992
0.57788419
0.57807136
0.57816645
0.57818328
0.57814408
0.57806979
0.57796319
0.5777934
0.57753312
0.57723613
0.57705137
0.091157098
0.12080153
0.15790042
0.19124651
0.22110064
0.24737465
0.27068502
0.29149464
0.31021693
0.32717594
0.34263288
0.35679705
0.36983831
0.38189571
0.3930843
0.40350011
0.41322409
0.42232499
0.43086169
0.43888496
0.44643889
0.45356202
0.46028822
0.46664744
0.4726663
0.4783686
0.48377569
0.48890683
0.49377948
0.49840953
0.5028115
0.50699871
0.51098343
0.514777
0.51838995
0.52183207
0.52511251
0.52823985
0.53122217
0.53406706
0.53678174
0.53937304
0.54184743
0.54421108
0.54646985
0.54862928
0.55069462
0.55267084
0.55456258
0.55637418
0.5581096
0.55977246
0.56136587
0.56289247
0.5643543
0.56575272
0.56708845
0.56836154
0.56957146
0.57071709
0.57179671
0.57280805
0.57374824
0.57461386
0.57540071
0.57610336
0.57671499
0.57722932
0.57764481
0.5779647
0.57818634
0.57829844
0.57833
0.57833222
0.57827327
0.57815868
0.57797821
0.57769074
0.57735953
0.57711597
0.0095795404
0.2875918
0.46271087
0.51249312
0.52307973
0.52396492
0.52370485
0.52478475
0.52622709
0.5276851
0.52912141
0.53054671
0.53194062
0.53330489
0.53466726
0.5360371
0.53741366
0.53879788
0.54019004
0.54158947
0.54299484
0.54440442
0.54581631
0.54722844
0.54863865
0.55004472
0.55144442
0.55283554
0.55421589
0.55558332
0.55693573
0.55827106
0.5595873
0.56088246
0.56215464
0.56340194
0.56462251
0.56581455
0.56697627
0.56810591
0.56920173
0.57026202
0.57128507
0.57226919
0.5732127
0.57411398
0.57497141
0.57578349
0.57654877
0.57726591
0.57793373
0.57855119
0.57911748
0.57963201
0.58009452
0.58050512
0.58086433
0.58117318
0.58143335
0.58164739
0.5818184
0.58195089
0.58205102
0.58213032
0.58219902
0.58228558
0.58239341
0.58258885
0.582801
0.58317852
0.58337136
0.58380676
0.58344338
0.5835062
0.58178966
0.58157381
0.57866275
0.57979476
0.57632462
0.58044604
0.061680497
0.37625273
0.51441229
0.54010018
0.54144682
0.53989473
0.5390737
0.53917121
0.53932947
0.53961282
0.53997771
0.54050013
0.54113705
0.54187053
0.5426681
0.54352499
0.54443307
0.54538925
0.54638829
0.54742508
0.54849481
0.54959299
0.55071538
0.55185794
0.55301682
0.55418834
0.55536896
0.5565553
0.5577441
0.55893222
0.56011664
0.56129444
0.56246281
0.563619
0.5647604
0.56588444
0.56698865
0.56807065
0.56912811
0.57015878
0.57116045
0.57213099
0.57306832
0.57397041
0.57483529
0.57566107
0.57644592
0.57718814
0.57788611
0.57853838
0.57914363
0.57970077
0.58020893
0.58066752
0.58107627
0.58143532
0.58174524
0.58200715
0.58222279
0.58239479
0.58252636
0.58262217
0.58268891
0.58273817
0.58278143
0.5828455
0.58293675
0.5831129
0.58331181
0.58365632
0.58382695
0.58418631
0.58378352
0.5837249
0.58199474
0.58166008
0.57879215
0.57990979
0.57649615
0.58073815
0.14527493
0.45790446
0.53432684
0.54721234
0.54624932
0.54546595
0.54537174
0.54591796
0.54630262
0.54681741
0.54730057
0.54785367
0.54842178
0.5490319
0.54967631
0.55035863
0.55107383
0.55182357
0.55260587
0.55341899
0.55426109
0.55513015
0.55602401
0.55694037
0.55787682
0.55883083
0.55979979
0.56078101
0.56177174
0.5627692
0.56377056
0.564773
0.56577368
0.56676977
0.56775845
0.56873696
0.56970254
0.57065251
0.57158422
0.57249508
0.57338254
0.57424414
0.57507746
0.57588017
0.57665001
0.57738481
0.57808252
0.57874118
0.57935899
0.57993433
0.58046573
0.58095199
0.58139217
0.58178561
0.58213202
0.58243151
0.58268471
0.58289274
0.58305744
0.58318147
0.58326818
0.58332246
0.58335146
0.58336692
0.58338122
0.5834199
0.583491
0.58364516
0.5838258
0.5841345
0.58427594
0.58455686
0.5841237
0.58393137
0.58216378
0.58174626
0.57891181
0.58001693
0.57667405
0.58100142
0.23244227
0.50689064
0.54718404
0.55513705
0.55271392
0.55301566
0.55301516
0.5536603
0.55392117
0.55439882
0.55477472
0.55524121
0.5556997
0.55619208
0.55670209
0.55723439
0.55778675
0.55836324
0.55896316
0.55958636
0.56023266
0.56090166
0.56159262
0.5623046
0.56303646
0.56378678
0.564554
0.5653363
0.56613172
0.56693813
0.56775326
0.56857471
0.56939998
0.57022648
0.57105155
0.57187249
0.57268657
0.57349104
0.57428314
0.57506013
0.5758193
0.57655798
0.57727355
0.57796345
0.5786252
0.57925641
0.57985484
0.58041832
0.58094489
0.58143275
0.58188032
0.58228629
0.58264963
0.58296965
0.58324601
0.58347878