/*--------------------------------*- C++ -*----------------------------------*\
  =========                 |
  \\      /  F ield         | OpenFOAM: The Open Source CFD Toolbox
   \\    /   O peration     | Website:  https://openfoam.org
    \\  /    A nd           | Version:  12
     \\/     M anipulation  |
\*---------------------------------------------------------------------------*/
FoamFile
{
    format      ascii;
    class       volScalarField;
    location    "0.043";
    object      omega;
}
// * * * * * * * * * * * * * * * * * * * * * * * * * * * * * * * * * * * * * //

dimensions      [0 0 -1 0 0 0 0];

internalField   nonuniform List<scalar> 
16000
(
1085.0088
2181.503
1075.7114
648.01421
456.67053
317.37784
240.66157
181.67078
146.23169
118.45737
100.57851
86.110419
75.341337
66.367611
59.038136
52.867433
47.658514
43.216933
39.401165
36.098774
33.225217
30.709115
28.491908
26.526943
24.776568
23.211523
21.807596
20.546054
19.410973
18.387813
17.463493
16.627713
15.872258
15.190172
14.575495
14.022691
13.526551
13.082179
12.685487
12.333008
12.020851
11.744975
11.502428
11.29049
11.10607
10.946058
10.808019
10.689641
10.588732
10.503232
10.431271
10.371133
10.321152
10.279838
10.245882
10.218204
10.196048
10.179358
10.168836
10.163209
10.156395
10.147702
10.138218
10.1286
10.120245
10.11494
10.113423
10.114913
10.125198
10.141564
10.15837
10.169841
10.168676
10.144494
10.09063
10.042134
10.00725
9.9894065
9.9918748
10.036748
1126.4253
2172.4087
1063.7958
648.54556
456.95238
320.50184
241.80667
183.61115
147.11037
119.52717
101.15066
86.694674
75.721269
66.695538
59.278156
53.055023
47.797775
43.320076
39.475979
36.151031
33.259925
30.73095
28.504539
26.533325
24.778604
23.21072
21.804755
20.541629
19.40551
18.382085
17.457991
16.622566
15.867449
15.185576
14.571022
14.018319
13.522364
13.078193
12.681536
12.329047
12.017122
11.741494
11.499069
11.287255
11.103135
10.943449
10.805723
10.687662
10.587084
10.501925
10.430295
10.370499
10.32086
10.27986
10.246155
10.218643
10.19648
10.179335
10.167708
10.16136
10.154382
10.145519
10.13596
10.126452
10.118404
10.113444
10.112265
10.114567
10.125034
10.14065
10.156176
10.165617
10.160443
10.131102
10.07948
10.034557
10.003079
9.9881294
9.9917285
10.037929
1166.2525
2173.4324
1052.4892
645.05901
453.69405
320.8955
240.78132
183.85562
146.70867
119.71893
101.02507
86.725428
75.636608
66.612105
59.160224
52.923714
47.654431
43.17053
39.324428
35.999875
33.111171
30.586712
28.366316
26.402376
24.655395
23.095612
21.697637
20.442115
19.313252
18.297086
17.380171
16.551574
15.802858
15.126867
14.517722
13.970007
13.478753
13.039036
12.646404
12.2975
11.989088
11.716779
11.477304
11.268109
11.086525
10.929184
10.793573
10.677413
10.578548
10.494935
10.424663
10.366077
10.317504
10.27742
10.244455
10.217496
10.195692
10.17858
10.166377
10.159182
10.151897
10.142797
10.133137
10.123755
10.11606
10.111548
10.110903
10.114383
10.124984
10.139755
10.153782
10.160607
10.151474
10.116881
10.06808
10.027014
9.9992269
9.9873253
9.9916997
10.035749
1204.3153
2180.9006
1042.6007
641.65001
449.9909
321.03559
239.44439
183.94605
146.1586
119.80523
100.84492
86.691409
75.508538
66.479658
59.00046
52.752561
47.474683
42.987158
39.141638
35.819902
32.93572
30.417749
28.205159
26.250228
24.512597
22.962449
21.573952
20.327453
19.207104
18.199344
17.290732
16.470039
15.728759
15.059626
14.456806
13.914918
13.429118
12.994586
12.606713
12.261991
11.957626
11.689167
11.453156
11.246978
11.068284
10.913617
10.780407
10.666386
10.569428
10.487525
10.418736
10.361448
10.314001
10.274874
10.242671
10.216263
10.19479
10.177712
10.165073
10.156992
10.149369
10.140032
10.130283
10.121023
10.113624
10.109486
10.109425
10.114001
10.124399
10.138082
10.150294
10.154283
10.141381
10.103092
10.057492
10.020345
9.9962016
9.9869754
9.9919614
10.030462
1240.4475
2198.3597
1034.1026
637.83691
445.4834
320.42723
237.40854
183.53766
145.2227
119.60813
100.47376
86.478422
75.23946
66.213503
58.724363
52.476266
47.200868
42.718882
38.882117
35.570503
32.697189
30.191332
27.9915
26.050049
24.32583
22.789045
21.413489
20.179254
19.070344
18.073632
17.175812
16.36536
15.633733
14.973534
14.378985
13.844723
13.366019
12.938199
12.556589
12.217367
11.918214
11.654696
11.423204
11.220918
11.045885
10.894592
10.764397
10.653051
10.558441
10.47863
10.411636
10.355895
10.309766
10.271745
10.240421
10.214642
10.193555
10.176581
10.163601
10.154713
10.146705
10.137124
10.127292
10.118158
10.111047
10.107307
10.107869
10.113213
10.123302
10.135741
10.14586
10.146692
10.129647
10.089773
10.047453
10.014351
9.9939418
9.986899
9.9922134
10.025602
1274.4987
2223.3768
1030.3982
634.80897
441.38584
319.17769
234.86549
182.71283
143.99796
119.16508
99.95586
86.108508
74.848603
65.830667
58.346274
52.107919
46.844434
42.375917
38.554864
35.25968
32.402721
29.913872
27.731132
25.806966
24.099736
22.579618
21.220081
20.001029
18.906212
17.922938
17.038174
16.240087
15.520136
14.870764
14.286263
13.761278
13.291167
12.871424
12.497439
12.164956
11.872054
11.614423
11.388395
11.190784
11.020074
10.872752
10.746097
10.637877
10.545979
10.468572
10.403622
10.349625
10.304957
10.268148
10.237785
10.212691
10.19202
10.175185
10.161951
10.152345
10.143926
10.134107
10.124208
10.115214
10.108408
10.105082
10.106169
10.111915
10.121544
10.132551
10.140254
10.137579
10.116543
10.076858
10.038028
10.009118
9.9926234
9.9873007
9.9928459
10.022022
1306.4222
2253.6932
1030.7275
631.98317
437.42866
317.27641
232.14039
181.50247
142.54977
118.47709
99.299368
85.580076
74.331937
65.328918
57.863002
51.644632
46.402443
41.955468
38.156975
34.884642
32.049678
29.582896
27.42185
25.518469
23.831989
22.332049
20.991805
19.791054
18.713205
17.745949
16.876684
16.09325
15.387152
14.750645
14.178095
13.664158
13.204257
12.794029
12.429077
12.104803
11.819247
11.568444
11.348842
11.156733
10.991002
10.848238
10.725635
10.620985
10.532141
10.457434
10.394761
10.342685
10.299608
10.264102
10.234767
10.210407
10.19018
10.173516
10.160102
10.149879
10.141036
10.130991
10.121045
10.112213
10.105729
10.102804
10.104254
10.110065
10.11902
10.12838
10.133399
10.127125
10.102623
10.064525
10.029344
10.00462
9.9923426
9.9891487
9.9939398
10.017989
1336.318
2286.8403
1032.9052
628.90043
433.57022
314.72244
229.52854
180.03753
141.07963
117.57042
98.521627
84.901936
73.691125
64.710802
57.275143
51.086294
45.874194
41.456693
37.686683
34.443491
31.636203
29.19659
27.062164
25.181173
23.519327
22.043291
20.725846
19.546778
18.48906
17.540661
16.689586
15.923322
15.233477
14.612075
14.053566
13.552613
13.104699
12.70556
12.351069
12.037209
11.760137
11.517077
11.30483
11.119158
10.959026
10.821358
10.703288
10.602618
10.517129
10.445375
10.385175
10.335169
10.293787
10.259648
10.231388
10.207799
10.188037
10.171567
10.15804
10.147309
10.138039
10.127787
10.117819
10.109161
10.102993
10.100406
10.102033
10.107609
10.115616
10.123073
10.125246
10.115644
10.088724
10.053003
10.021687
10.001073
9.9927056
9.9917594
9.9956911
10.01346
1364.2889
2320.6174
1032.849
625.07869
428.99338
311.45042
226.11018
178.19205
139.30559
116.47045
97.620151
84.074468
72.920075
63.972328
56.578243
50.427639
45.254377
40.874806
37.13626
33.928415
31.154814
28.747803
26.6458
24.795998
23.163232
21.715248
20.424378
19.270539
18.236238
17.309582
16.479378
15.732764
15.061521
14.457393
13.914925
13.428788
12.994528
12.607974
12.265062
11.961761
11.694473
11.460147
11.256173
11.078394
10.924468
10.792378
10.679356
10.583038
10.501168
10.432577
10.375008
10.327184
10.28757
10.254837
10.227676
10.204879
10.185597
10.169338
10.155756
10.144627
10.134938
10.124502
10.114528
10.10604
10.100144
10.097788
10.099398
10.104464
10.111228
10.11655
10.115854
10.103419
10.075277
10.042602
10.015379
9.9987978
9.9933056
9.994539
9.9982357
10.008494
1390.4516
2353.3321
1025.0483
620.17403
422.66544
307.70932
221.79426
175.85013
137.40473
115.19189
96.584768
83.092968
72.011
63.10573
55.764467
49.656014
44.529336
40.19671
36.504298
33.340438
30.608224
28.240235
26.176317
24.362174
22.76319
21.347537
20.087164
18.962255
17.954843
17.052975
16.246378
15.521992
14.871799
14.287196
13.762833
13.293386
12.874459
12.501978
12.17204
11.880675
11.624207
11.39945
11.204307
11.034325
10.887298
10.761236
10.654098
10.562468
10.4845
10.419231
10.364413
10.318847
10.281042
10.249725
10.223661
10.201663
10.18287
10.166833
10.153245
10.141822
10.131732
10.121129
10.111157
10.102812
10.097112
10.094844
10.096229
10.100527
10.105789
10.108827
10.105368
10.090665
10.062736
10.033593
10.010545
9.9978907
9.9945302
9.9972808
10.000547
10.003385
1414.9302
2384.0506
1016.5753
614.20784
414.67079
303.54384
217.15131
173.31387
135.4216
113.7276
95.402419
81.95014
70.952162
62.090493
54.811418
48.766695
43.700612
39.426574
35.789075
32.677826
29.994654
27.672413
25.652701
23.879943
22.319682
20.940782
19.715023
18.622916
17.646045
16.772194
15.99171
15.292173
14.665531
14.102738
13.598555
13.14766
12.745721
12.388738
12.072982
11.794578
11.549935
11.335664
11.150046
10.988581
10.848915
10.72903
10.62744
10.540836
10.46732
10.405482
10.353543
10.310277
10.274294
10.244376
10.219382
10.198172
10.179871
10.164063
10.150506
10.138884
10.128412
10.117656
10.107676
10.099429
10.093822
10.091481
10.092426
10.095724
10.099308
10.100048
10.094065
10.077649
10.051543
10.026138
10.007051
9.9978372
9.9961364
9.9994978
10.004092
10.000342
1437.8396
2413.7389
1003.6364
606.80831
405.18877
298.97637
212.34399
170.51468
133.40655
112.08599
94.045745
80.615695
69.706022
60.920426
53.722915
47.756615
42.764745
38.56121
34.989114
31.939841
29.314035
27.044564
25.075325
23.349797
21.833584
20.495667
19.308831
18.253576
17.311059
16.468784
15.715644
15.043594
14.443052
13.904409
13.42252
12.992057
12.608766
12.268698
11.968338
11.703921
11.471986
11.269707
11.094097
10.941555
10.80968
10.696335
10.6005
10.518938
10.449544
10.391243
10.342494
10.301584
10.267415
10.238856
10.214881
10.194431
10.17662
10.161044
10.147543
10.135799
10.124968
10.114062
10.104051
10.095836
10.090208
10.087626
10.087927
10.090044
10.091877
10.090467
10.082439
10.065201
10.04189
10.020185
10.004646
9.998105
9.9975466
10.001011
10.008783
9.9992266
1459.478
2442.1821
986.71869
598.25969
395.05727
293.98797
207.45856
167.51083
131.33946
110.24453
92.449992
79.073417
68.278147
59.589935
52.492874
46.622358
41.719119
37.599185
34.103589
31.125852
28.566304
26.357261
24.444564
22.772449
21.306179
20.011815
18.868324
17.854152
16.949891
16.143292
15.423215
14.781214
14.209155
13.69683
13.239133
12.830707
12.467431
12.145369
11.861263
11.611548
11.392677
11.20175
11.036649
10.893408
10.769673
10.663567
10.573468
10.497049
10.431979
10.377084
10.331129
10.292816
10.260478
10.233234
10.210206
10.190469
10.173139
10.157794
10.14436
10.132551
10.121383
10.110324
10.100247
10.091985
10.08621
10.083224
10.082717
10.08354
10.083652
10.080386
10.071003
10.053907
10.033679
10.015482
10.003023
9.9982488
9.9981636
10.001856
10.013474
9.9998744
1480.0959
2465.7936
965.56809
589.21331
384.48294
288.62939
202.58802
164.30997
129.14859
108.10926
90.600106
77.313159
66.656368
58.091297
51.115625
45.359548
40.560966
36.538414
33.131614
30.235137
27.751421
25.611384
23.759077
22.146639
20.737014
19.495546
18.400407
17.43187
16.569941
15.802458
15.118105
14.508638
13.966844
13.4827
13.050826
12.66576
12.323615
12.020421
11.75316
11.518621
11.313344
11.134303
10.979748
10.845874
10.730215
10.630717
10.546353
10.475017
10.414646
10.363249
10.319943
10.28381
10.253498
10.227567
10.205409
10.186316
10.169452
10.154336
10.140965
10.129125
10.117643
10.106418
10.096228
10.08783
10.081782
10.07825
10.076817
10.076308
10.074815
10.070049
10.059972
10.043923
10.026645
10.011619
10.001767
9.9981295
9.9981508
10.001834
10.014537
10.0007
1499.9471
2480.1168
940.19275
579.48768
373.52035
282.93989
197.80817
160.8346
126.71382
105.68843
88.469402
75.317745
64.828775
56.414865
49.584202
43.96341
39.287554
35.376776
32.072644
29.264663
26.86659
24.805349
23.027178
21.482042
20.13565
18.952479
17.910771
16.991822
16.176004
15.451007
14.805315
14.230623
13.719115
13.264488
12.85968
12.49893
12.178721
11.895026
11.644973
11.425842
11.23429
11.068013
10.923922
10.799316
10.691828
10.599116
10.520266
10.453621
10.397328
10.349791
10.309125
10.274958
10.246298
10.221863
10.200545
10.182008
10.165585
10.150699
10.137378
10.125508
10.113732
10.10232
10.09196
10.083332
10.076893
10.072703
10.070271
10.068452
10.065536
10.059625
10.049247
10.035079
10.020458
10.008171
10.000454
9.9975452
9.9974757
10.001044
10.013057
10.001849
1519.2493
2476.1441
910.90897
569.1523
362.21661
276.92196
193.11506
156.9574
123.95793
102.93792
86.028889
73.065051
62.779874
54.549963
47.891547
42.428676
37.896333
34.108483
30.922338
28.223029
25.924004
23.95227
22.256636
20.786634
19.509743
18.39091
17.407576
16.540074
15.773395
15.093522
14.488589
13.95089
13.472859
13.048279
12.671135
12.335061
12.037021
11.773009
11.540083
11.33624
11.157866
11.003003
10.869275
10.75371
10.654239
10.568821
10.495408
10.433256
10.38063
10.336421
10.298705
10.266416
10.239169
10.215959
10.19564
10.177595
10.161567
10.146923
10.133631
10.121693
10.109637
10.098009
10.087415
10.078462
10.071528
10.066589
10.063115
10.060045
10.055928
10.049264
10.039107
10.027044
10.014817
10.004842
9.9988679
9.9966783
9.996534
10.000073
10.011463
10.004496
1538.1805
2433.4395
878.99533
558.22842
350.63416
270.4901
188.19972
152.65348
120.76739
99.810615
83.245586
70.530963
60.494284
52.487342
46.031327
40.746069
36.379937
32.744932
29.69661
27.120961
24.934751
23.063784
21.459705
20.072536
18.868653
17.818868
16.898574
16.088347
15.372919
14.740002
14.177066
13.676948
13.232416
12.837745
12.487943
12.176348
11.900188
11.655737
11.439706
11.250812
11.085412
10.94156
10.81764
10.710653
10.618496
10.539484
10.471894
10.414067
10.364828
10.323577
10.288398
10.258225
10.232236
10.210073
10.190579
10.173129
10.157434
10.143046
10.129774
10.11768
10.105351
10.093468
10.082574
10.073203
10.065673
10.059905
10.055371
10.051154
10.046066
10.038969
10.029866
10.019623
10.009578
10.001597
9.9970798
9.9955985
9.995552
9.9993259
10.00886
10.006773
1556.6278
2395.1144
846.80533
546.67485
338.77844
263.10023
183.1371
147.82065
117.0284
96.249063
80.085214
67.692017
57.957129
50.218988
43.991269
38.926931
34.759318
31.300974
28.411465
25.976356
23.916039
22.156808
20.649309
19.352012
18.229277
17.252161
16.397349
15.645841
14.982453
14.396705
13.87595
13.413333
13.002074
12.636542
12.311933
12.024094
11.769021
11.543593
11.344942
11.17034
11.017487
10.884087
10.76929
10.670406
10.585147
10.511946
10.449285
10.395753
10.35005
10.311434
10.278521
10.250166
10.225571
10.204287
10.185541
10.168636
10.15322
10.13909
10.12586
10.113488
10.100878
10.088697
10.077433
10.06755
10.059323
10.05266
10.047092
10.041873
10.036079
10.029117
10.021318
10.012811
10.004698
9.998529
9.9952652
9.9945191
9.9948742
9.9991618
10.006805
10.006793
1574.1271
2356.0939
813.72305
534.14727
326.55002
254.51566
177.73288
142.34468
112.63358
92.193315
76.515301
64.528015
55.150052
47.730489
41.795977
36.992885
33.057594
29.80214
27.091379
24.812676
22.886198
21.248579
19.848348
18.645021
17.605664
16.702827
15.914142
15.221553
14.609687
14.068626
13.589032
13.162776
12.783696
12.446706
12.147463
11.882017
11.646816
11.438821
11.255457
11.094423
10.953635
10.831031
10.724657
10.633223
10.554365
10.486571
10.428438
10.378721
10.336282
10.300066
10.269171
10.242479
10.219192
10.19866
10.180537
10.164065
10.148973
10.135066
10.121935
10.109158
10.096243
10.083716
10.072013
10.061528
10.052518
10.044938
10.038409
10.032348
10.026209
10.020108
10.013505
10.006605
10.000264
9.9956681
9.9935622
9.9935471
9.994485
9.9988523
10.00511
10.005563
1589.99
2288.3226
778.96997
520.11501
313.20098
244.59054
171.67213
136.08869
107.48455
87.58578
72.51063
61.01974
52.089658
45.068296
39.480488
34.981381
31.311656
28.282409
25.763367
23.654281
21.875447
20.365118
19.075173
17.967582
17.011755
16.182315
15.457984
14.821092
14.259773
13.763084
13.322562
12.930829
12.582075
12.271629
11.995723
11.751037
11.534351
11.342714
11.173711
11.025083
10.894967
10.781734
10.683963
10.59926
10.526226
10.463361
10.409333
10.362971
10.323249
10.289533
10.260385
10.235114
10.21295
10.193269
10.175692
10.159599
10.144751
10.131001
10.117911
10.104753
10.091497
10.07857
10.066368
10.055222
10.045388
10.036903
10.029482
10.022815
10.017236
10.011894
10.006442
10.001009
9.9962537
9.9930719
9.9919709
9.9925936
9.9943223
9.9982933
10.002961
10.002765
1603.1706
2220.714
741.61905
504.03217
299.04483
233.13758
164.48286
128.88793
101.50573
82.396422
68.064621
57.206451
48.83571
42.289464
37.102675
32.943984
29.566709
26.778106
24.46746
22.535346
20.907623
19.526579
18.347047
17.333712
16.458723
15.699403
15.035188
14.452581
13.938512
13.482966
13.078751
12.71905
12.398491
12.112681
11.858154
11.63218
11.432267
11.255431
11.09956
10.962458
10.842249
10.737961
10.64718
10.568606
10.50077
10.442339
10.392043
10.348796
10.311669
10.279838
10.252262
10.228224
10.207046
10.188135
10.171049
10.155296
10.140641
10.126975
10.113872
10.100353
10.086723
10.07334
10.060582
10.048746
10.038065
10.028661
10.020466
10.014204
10.009067
10.004479
10.000104
9.996002
9.9926531
9.9907184
9.9905326
9.9917384
9.9938373
9.997354
10.001141
10.002016
1610.9162
2138.3014
701.46322
484.18665
283.85647
219.83477
155.68794
120.60484
94.695898
76.670427
63.258393
53.193251
45.482602
39.478591
34.735365
30.941168
27.867829
25.335375
23.236718
21.482661
20.004547
18.749735
17.676983
16.753916
15.955022
15.260084
14.652769
14.119379
13.648814
13.230822
12.85948
12.528753
12.233789
11.970527
11.73558
11.52631
11.341325
11.177587
11.033302
10.906613
10.795695
10.698792
10.614455
10.541297
10.478031
10.423484
10.376509
10.335925
10.301195
10.271071
10.244854
10.221861
10.201516
10.183322
10.166668
10.151224
10.13674
10.123085
10.109908
10.09606
10.082042
10.068153
10.054774
10.042208
10.030655
10.020361
10.012414
10.006382
10.001692
9.9978137
9.9944335
9.991538
9.9894361
9.9885764
9.9891565
9.9908478
9.993368
9.9968442
10.000406
10.002041
1608.1299
2037.3487
657.98107
458.24937
267.45463
204.33668
145.04315
111.26177
87.202876
70.532105
58.274181
49.125207
42.148252
36.730311
32.45562
29.036936
26.26861
23.991498
22.10091
20.518599
19.182862
18.046806
17.073728
16.234715
15.506853
14.87196
14.315527
13.82567
13.392548
13.008187
12.665997
12.360845
12.088435
11.845231
11.628238
11.434886
11.262967
11.110648
10.976171
10.857965
10.754537
10.66435
10.585696
10.517368
10.45811
10.406859
10.36291
10.324834
10.291855
10.263244
10.23825
10.216168
10.196618
10.178896
10.16262
10.14744
10.133142
10.119451
10.10612
10.091984
10.077596
10.0632
10.049154
10.035831
10.023605
10.012989
10.005167
9.9993592
9.9950758
9.991851
9.9893751
9.9875559
9.9865367
9.9865887
9.9878536
9.990127
9.9931429
9.9968381
10.000147
10.001386
1588.6016
1907.9258
611.39656
425.54303
249.83508
186.43945
132.76518
101.17939
79.372191
64.303012
53.331087
45.167081
38.956073
34.13829
30.33564
27.288114
24.813242
22.779165
21.084069
19.660797
18.455374
17.42688
16.54336
15.779522
15.115093
14.53377
14.022608
13.571617
13.172054
12.816896
12.500081
12.217072
11.964021
11.737783
11.535706
11.355517
11.195216
11.053003
10.927234
10.816396
10.719163
10.6347
10.56096
10.496849
10.441226
10.393044
10.351345
10.315244
10.283806
10.256396
10.232518
10.211312
10.192284
10.174985
10.159023
10.144119
10.129918
10.116226
10.102633
10.088242
10.073523
10.058693
10.044054
10.029955
10.016959
10.006551
9.9987631
9.9931297
9.9892014
9.9865563
9.9848777
9.9840006
9.9839292
9.9847763
9.986593
9.9892337
9.9925558
9.9964339
9.9997138
10.001116
1543.564
1749.61
562.88923
386.85428
232.01297
166.42678
119.53524
90.97629
71.658453
58.306798
48.65453
41.480283
36.024259
31.788421
28.437646
25.742396
23.542476
21.724138
20.20483
18.922804
17.832066
16.897377
16.091308
15.39215
14.78241
14.247668
13.775325
13.357349
12.985965
12.655668
12.3604
12.09619
11.859586
11.647762
11.45833
11.28924
11.138685
11.005037
10.8868
10.782578
10.691063
10.611013
10.541227
10.480388
10.427493
10.381539
10.341671
10.307294
10.277269
10.250984
10.227814
10.207214
10.188663
10.171698
10.156048
10.141265
10.127134
10.113409
10.099609
10.084982
10.069955
10.054733
10.039601
10.024924
10.011388
10.001028
9.9932275
9.9877111
9.9840746
9.9819251
9.9809263
9.980841
9.9815498
9.9830186
9.9852032
9.9879829
9.9913384
9.9953106
9.9986554
10.000492
1464.6485
1587.3261
513.42884
347.09689
207.93169
147.02414
106.29697
81.339494
64.519799
52.860478
44.463148
38.222511
33.465399
29.758047
26.811165
24.427941
22.471338
20.844011
19.475604
18.314518
17.321222
16.465622
15.724138
15.07807
14.51235
14.0147
13.575008
13.184902
12.837588
12.527411
12.249683
12.000717
11.777413
11.577214
11.397949
11.237743
11.094932
10.968002
10.85554
10.756217
10.668789
10.592159
10.525606
10.467483
10.416903
10.372917
10.334673
10.301383
10.272322
10.246769
10.224164
10.203989
10.185875
10.169225
10.153712
10.139033
10.124934
10.111165
10.097211
10.082383
10.067077
10.051479
10.03587
10.020679
10.006901
9.9964619
9.9885919
9.9831212
9.9796943
9.9779427
9.9775073
9.9780754
9.9794129
9.9813601
9.9838049
9.9866794
9.9900229
9.9937816
9.9971802
9.9997347
1353.4724
1503.7968
467.00147
299.31806
183.98064
128.79649
94.315058
72.797192
58.335935
48.262362
40.978526
35.547716
31.385134
28.118963
25.504177
23.37478
21.615185
20.14273
18.896075
17.832543
16.918057
16.126653
15.437831
14.835197
14.305457
13.837746
13.423076
13.05405
12.724667
12.430412
12.16631
11.92914
11.716062
11.524746
11.35321
11.199736
11.062801
10.941014
10.833077
10.737758
10.653868
10.580238
10.515721
10.459364
10.410189
10.367319
10.329941
10.297346
10.26902
10.244042
10.221903
10.202077
10.184107
10.167591
10.152171
10.137548
10.123466
10.109663
10.095622
10.080644
10.065104
10.049168
10.033125
10.017492
10.003564
9.992927
9.984916
9.9794019
9.9760779
9.9746021
9.9746061
9.9756988
9.9775454
9.979918
9.982677
9.9857321
9.9890065
9.9924055
9.9958213
9.9988493
1221.4581
1262.9641
426.57643
256.72913
161.68606
113.58417
84.39063
65.893519
53.445187
44.716373
38.357026
33.572194
29.87083
26.940331
24.57419
22.631896
21.015141
19.653461
18.495215
17.501737
16.643643
15.898057
15.24686
14.675419
14.171715
13.725756
13.32942
12.97589
12.659543
12.375735
12.120663
11.891154
11.6846
11.498812
11.331934
11.182353
11.048631
10.929455
10.823601
10.729923
10.647386
10.575252
10.511925
10.456549
10.408178
10.365957
10.329091
10.29685
10.268566
10.243638
10.221507
10.201671
10.183676
10.167124
10.151664
10.137002
10.122882
10.109043
10.094992
10.079939
10.064259
10.048111
10.031775
10.015772
10.001507
9.9905663
9.9823255
9.9766649
9.9733173
9.9719579
9.9722249
9.9737037
9.9759546
9.978661
9.9816265
9.9847409
9.9879754
9.9913497
9.9948639
9.9983875
1102.5168
1122.4877
393.68236
225.79075
144.99422
102.38703
77.035873
60.862937
49.947567
42.227304
36.5455
32.229364
28.859562
26.168777
23.979175
22.168941
20.652254
19.367203
18.268161
17.320828
16.498916
15.781892
15.15342
14.600379
14.112524
13.679404
13.293687
12.948928
12.639835
12.362009
12.111822
11.886282
11.682913
11.499649
11.334733
11.186643
11.05402
10.93562
10.830275
10.736874
10.654344
10.581656
10.517828
10.461905
10.41299
10.370239
10.332871
10.30016
10.271444
10.246114
10.223617
10.203449
10.185158
10.168338
10.152636
10.137749
10.123422
10.109419
10.095394
10.080336
10.064598
10.048373
10.031955
10.01577
10.000934
9.9895497
9.9809933
9.9751047
9.9716507
9.9702939
9.9703956
9.9719778
9.9745995
9.977647
9.9807989
9.9839854
9.9872405
9.9906248
9.9942508
9.9981217
1047.8887
1082.1398
369.24758
208.59832
134.04761
94.780278
71.548548
56.858839
46.962216
39.952628
34.777917
30.828928
27.7325
25.249703
23.221535
21.538687
20.123915
18.921329
17.889645
16.997789
16.221932
15.543448
14.947482
14.421942
13.956816
13.543721
13.175556
12.846347
12.551071
12.285542
12.046286
11.830437
11.635622
11.459866
11.301502
11.159092
11.03136
10.917143
10.815355
10.724958
10.644953
10.57437
10.512276
10.457777
10.410022
10.368209
10.331594
10.299485
10.271246
10.246293
10.224093
10.20416
10.186056
10.169384
10.153797
10.138992
10.124712
10.110719
10.096669
10.081593
10.065751
10.049342
10.032654
10.016155
10.001105
9.9895147
9.9808189
9.9748567
9.971331
9.9698582
9.9695308
9.9702606
9.9734651
9.976923
9.9802126
9.9833933
9.9866688
9.9900882
9.9938462
9.9979708
31984.605
78019.616
37606.959
11371.855
1547.3172
602.29999
426.32641
343.33526
284.06473
230.85715
188.69451
156.46689
132.48535
114.32968
100.25765
88.991594
79.614537
71.570442
64.613671
58.598379
53.375788
48.809481
44.791425
41.236404
38.080142
35.259305
32.729517
30.451707
28.394874
26.534464
24.849299
23.320436
21.931509
20.668282
19.519693
18.476268
17.529379
16.671328
15.895071
15.194281
14.563425
13.996867
13.489544
13.036973
12.634701
12.278455
11.964375
11.688474
11.447153
11.237105
11.05512
10.898171
10.763361
10.648212
10.550267
10.46802
10.400584
10.346697
10.305571
10.277511
10.263225
10.2558
10.247875
10.237918
10.226665
10.214741
10.202535
10.190123
10.17777
10.166253
10.158068
10.154728
10.159246
10.171218
10.170427
10.200925
10.116472
10.149591
10.041245
10.080182
19572.898
59787.284
25152.65
5334.0748
959.25329
519.524
390.41625
314.63442
258.34265
208.02463
171.45426
143.27956
122.65709
106.7889
94.348625
84.206132
75.617826
68.183326
61.747409
56.173322
51.312863
47.044158
43.274036
39.927671
36.944216
34.271576
31.869213
29.70058
27.738309
25.960242
24.346772
22.880349
21.54594
20.330465
19.224018
18.21778
17.303686
16.474576
15.723848
15.045595
14.434631
13.885545
13.393599
12.95455
12.564109
12.218196
11.91313
11.645033
11.410476
11.206272
11.029311
10.876665
10.745529
10.633521
10.538277
10.457807
10.391689
10.338881
10.298718
10.271708
10.258208
10.250921
10.242876
10.232923
10.221831
10.210148
10.198161
10.185898
10.173669
10.16246
10.154851
10.152845
10.159103
10.172795
10.178202
10.205106
10.116822
10.146409
10.040992
10.072443
27769.993
35900.59
13776.649
2634.9501
832.05726
490.29702
380.62278
299.54555
245.41511
196.88147
164.117
137.28467
118.23418
103.16273
91.38688
81.68836
73.431983
66.281624
60.103781
54.748314
50.069649
45.955609
42.318705
39.087291
36.201465
33.614851
31.288159
29.18575
27.28222
25.556263
23.988936
22.563377
21.265244
20.082026
19.004465
18.024018
17.132941
16.32438
15.591975
14.93007
14.333681
13.79752
13.317066
12.888215
12.506778
12.168804
11.870728
11.60874
11.379528
11.179986
11.007073
10.857929
10.72983
10.620475
10.527422
10.448633
10.38351
10.331516
10.292101
10.26599
10.25315
10.245976
10.237881
10.228004
10.217107
10.205656
10.193853
10.181704
10.169605
10.158748
10.151739
10.151531
10.159042
10.171407
10.185285
10.208752
10.116759
10.144527
10.04016
10.062676
35918.638
23578.859
8276.4557
1540.6027
742.78823
466.82385
368.44342
283.71454
234.7897
186.65715
157.45702
131.44324
114.06774
99.668796
88.573774
79.288041
71.353163
64.477048
58.54261
53.390682
48.882336
44.913611
41.401626
38.277951
35.485912
32.978573
30.722753
28.682909
26.835144
25.1588
23.635583
22.249256
20.986103
19.834131
18.784689
17.829442
16.960956
16.172649
15.458378
14.812716
14.230863
13.707634
13.238723
12.820148
12.447807
12.117878
11.826902
11.571133
11.347378
11.152605
10.98384
10.838295
10.713385
10.606676
10.515898
10.439071
10.375006
10.323864
10.285241
10.260115
10.247988
10.240957
10.232855
10.22309
10.2124
10.201167
10.189519
10.177466
10.165518
10.155079
10.148691
10.150236
10.158552
10.171497
10.192185
10.211666
10.116492
10.140228
10.0389
10.055586
40577.816
20337.166
5814.065
1202.1145
709.19241
450.01011
359.26397
271.40219
227.1827
178.80642
152.75635
126.89666
110.96299
96.898689
86.347362
77.33912
69.650318
62.988338
57.244022
52.25056
47.876442
44.02358
40.612103
37.575878
34.860158
32.420567
30.221985
28.234643
26.434109
24.800099
23.314809
21.962476
20.729866
19.605381
18.580867
17.648092
16.79989
16.029885
15.332102
14.701302
14.132822
13.621557
13.163389
12.754423
12.390629
12.068299
11.784062
11.53422
11.31569
11.125503
10.960747
10.818708
10.696871
10.592758
10.504208
10.42929
10.366479
10.316158
10.278317
10.25421
10.242802
10.235926
10.227854
10.218233
10.207754
10.196717
10.185193
10.173224
10.161457
10.1515
10.145735
10.148477
10.158037
10.174882
10.197197
10.213549
10.115719
10.132403
10.037465
10.050427
43349.581
18971.793
4421.8341
1131.9879
689.65048
431.39415
352.12802
261.84835
221.42479
172.5839
149.08769
123.07887
108.42408
94.52882
84.453799
75.648189
68.169324
61.687476
56.101936
51.241335
46.981071
43.22712
39.901866
36.941045
34.291618
31.910538
29.762706
27.821595
26.062795
24.466445
23.015087
21.693334
20.488358
19.388879
18.387176
17.475057
16.645604
15.892606
15.210221
14.593372
14.037508
13.537579
13.089644
12.689867
12.334283
12.019283
11.741572
11.49749
11.284061
11.09837
10.937572
10.79905
10.680168
10.578625
10.492293
10.419277
10.357922
10.308405
10.271359
10.248313
10.237635
10.230924
10.222914
10.213453
10.203177
10.19231
10.180883
10.168991
10.157441
10.148037
10.142895
10.146522
10.157957
10.177647
10.200118
10.214269
10.114455
10.125394
10.035846
10.0434
45478.821
16948.901
3535.6644
1082.706
675.31436
419.15344
346.63702
254.31788
217.07019
167.67487
146.18324
119.90584
106.33491
92.521734
82.843788
74.181147
66.88134
60.549889
55.096304
50.346946
46.183033
42.51333
39.261961
36.366146
33.774187
31.444244
29.342465
27.440881
25.718818
24.155963
22.734973
21.440744
20.260776
19.184047
18.203216
17.310076
16.497949
15.760742
15.092727
14.488964
13.944986
13.455789
13.01759
12.626591
12.278882
11.970945
11.699544
11.461055
11.252604
11.071331
10.914492
10.779309
10.663359
10.564363
10.480234
10.409114
10.349373
10.300666
10.264428
10.242483
10.232535
10.225993
10.218065
10.208773
10.198686
10.18796
10.176603
10.164789
10.153494
10.144716
10.140246
10.144923
10.158104
10.178582
10.201612
10.213698
10.11282
10.119652
10.033923
10.034548
47017.571
14268.449
2973.5042
1053.4127
664.58347