/*--------------------------------*- C++ -*----------------------------------*\
  =========                 |
  \\      /  F ield         | OpenFOAM: The Open Source CFD Toolbox
   \\    /   O peration     | Website:  https://openfoam.org
    \\  /    A nd           | Version:  12
     \\/     M anipulation  |
\*---------------------------------------------------------------------------*/
FoamFile
{
    format      ascii;
    class       volScalarField;
    location    "0.043";
    object      rho;
}
// * * * * * * * * * * * * * * * * * * * * * * * * * * * * * * * * * * * * * //

dimensions      [1 -3 0 0 0 0 0];

internalField   nonuniform List<scalar> 
16000
(
1.0625073
1.0942776
1.08252
1.0904972
1.086791
1.0901085
1.0891701
1.0909263
1.091076
1.0922446
1.0928786
1.0938609
1.0947124
1.0956781
1.0966431
1.0976581
1.0987039
1.0997878
1.100908
1.1020654
1.1032598
1.1044911
1.1057592
1.1070635
1.1084033
1.1097776
1.1111852
1.1126246
1.1140942
1.1155917
1.1171149
1.1186611
1.1202273
1.1218104
1.1234069
1.1250131
1.1266249
1.1282384
1.1298492
1.1314531
1.1330456
1.1346225
1.1361793
1.1377119
1.1392162
1.1406885
1.142125
1.1435226
1.1448782
1.1461894
1.1474539
1.14867
1.1498364
1.1509523
1.1520174
1.1530319
1.1539965
1.1549123
1.1557808
1.1566037
1.1573825
1.1581182
1.1588111
1.1594594
1.1600598
1.1606059
1.1610883
1.1614939
1.1618055
1.1620044
1.16208
1.162044
1.1619472
1.1618876
1.162001
1.1623521
1.1630759
1.1647516
1.1658876
1.1670444
1.0592842
1.0915783
1.0792604
1.0877429
1.0838137
1.0873963
1.0863589
1.0882847
1.0884273
1.0896972
1.0903817
1.0914383
1.0923623
1.0934011
1.094445
1.0955392
1.0966683
1.0978376
1.099046
1.100294
1.1015814
1.1029079
1.104273
1.1056759
1.1071156
1.1085907
1.1100996
1.1116405
1.1132112
1.114809
1.1164312
1.1180745
1.1197356
1.1214107
1.1230959
1.1247868
1.1264792
1.1281685
1.12985
1.1315193
1.1331715
1.1348022
1.136407
1.1379815
1.139522
1.1410246
1.1424859
1.1439031
1.1452735
1.1465949
1.1478656
1.1490843
1.1502502
1.1513628
1.1524222
1.153429
1.1543842
1.1552892
1.1561457
1.1569555
1.1577201
1.1584403
1.1591161
1.1597453
1.1603238
1.1608449
1.1612989
1.1616735
1.161954
1.1621265
1.1621862
1.1621507
1.1620738
1.1620527
1.1622146
1.1625734
1.163461
1.1651061
1.1660989
1.1672628
1.0563688
1.0891221
1.0763678
1.0852223
1.081151
1.0849312
1.0838647
1.0859077
1.0860904
1.0874415
1.0881981
1.0893296
1.090337
1.0914568
1.0925888
1.0937721
1.094994
1.0962587
1.0975652
1.0989135
1.1003033
1.1017339
1.1032044
1.1047138
1.1062606
1.1078431
1.1094591
1.1111064
1.112782
1.1144831
1.1162061
1.1179474
1.1197029
1.1214682
1.1232389
1.1250103
1.1267774
1.1285354
1.1302792
1.132004
1.1337049
1.1353773
1.1370169
1.1386194
1.1401812
1.1416989
1.1431694
1.1445902
1.1459593
1.1472751
1.1485362
1.1497421
1.1508924
1.1519873
1.1530272
1.1540133
1.1549467
1.1558293
1.1566627
1.1574488
1.1581891
1.1588843
1.1595337
1.1601348
1.1606829
1.1611704
1.1615875
1.1619223
1.1621622
1.1622981
1.1623325
1.162291
1.1622332
1.1622548
1.162473
1.1628649
1.1638928
1.165503
1.1663192
1.1675386
1.0537593
1.0868953
1.0737653
1.0829491
1.0787396
1.0827475
1.0816574
1.0838356
1.0840677
1.0855129
1.0863549
1.0875729
1.0886778
1.0898912
1.0911244
1.0924094
1.0937366
1.0951086
1.0965244
1.097984
1.0994864
1.101031
1.1026163
1.1042409
1.1059029
1.1076
1.1093297
1.111089
1.1128744
1.1146823
1.1165085
1.1183487
1.1201981
1.1220517
1.1239044
1.125751
1.127586
1.1294041
1.1312001
1.1329688
1.1347054
1.1364052
1.1380641
1.1396782
1.1412441
1.1427589
1.1442202
1.1456262
1.1469753
1.1482668
1.1495
1.150675
1.1517922
1.1528524
1.1538565
1.1548061
1.1557028
1.1565485
1.1573452
1.1580948
1.1587986
1.159457
1.1600692
1.1606322
1.1611409
1.1615876
1.1619623
1.1622537
1.162451
1.1625491
1.1625567
1.1625067
1.1624649
1.1625241
1.1627813
1.1632206
1.1643662
1.1659176
1.1665582
1.1678626
1.0514874
1.0850142
1.0714997
1.0809674
1.0766297
1.0809039
1.0798048
1.0821233
1.0824261
1.0839716
1.0849173
1.0862313
1.0874474
1.0887655
1.0901107
1.0915078
1.0929501
1.0944389
1.0959736
1.0975536
1.099178
1.1008453
1.102554
1.104302
1.1060868
1.1079055
1.1097548
1.1116309
1.1135297
1.1154465
1.1173765
1.1193144
1.1212547
1.1231918
1.1251198
1.1270328
1.1289251
1.1307911
1.1326252
1.1344222
1.1361775
1.1378866
1.1395457
1.1411515
1.1427012
1.1441926
1.1456241
1.1469946
1.1483036
1.149551
1.1507371
1.1518629
1.1529294
1.153938
1.1548904
1.1557886
1.1566346
1.1574304
1.1581782
1.1588798
1.1595362
1.1601477
1.1607131
1.161229
1.1616902
1.1620889
1.1624154
1.1626593
1.1628119
1.1628712
1.1628516
1.1627927
1.1627656
1.1628571
1.1631362
1.1636486
1.1648842
1.1663463
1.1668404
1.1682223
1.0496075
1.0835079
1.069648
1.0794213
1.074977
1.0794724
1.0783636
1.0808393
1.081233
1.082883
1.0839458
1.0853607
1.0866955
1.0881255
1.0895903
1.0911082
1.0926746
1.0942903
1.0959543
1.0976655
1.0994225
1.1012234
1.1030657
1.1049467
1.1068631
1.108811
1.1107861
1.1127838
1.1147987
1.1168255
1.118858
1.1208903
1.122916
1.1249285
1.1269215
1.1288887
1.1308238
1.1327211
1.1345752
1.1363809
1.1381339
1.1398304
1.1414672
1.1430416
1.1445519
1.1459967
1.1473756
1.1486883
1.1499354
1.1511179
1.1522371
1.1532946
1.1542925
1.1552328
1.1561179
1.15695
1.1577317
1.158465
1.1591523
1.159795
1.1603941
1.1609494
1.1614593
1.1619203
1.1623267
1.1626712
1.1629449
1.1631384
1.1632452
1.1632668
1.1632219
1.163156
1.1631429
1.1632626
1.1635482
1.16418
1.1654389
1.1667963
1.1671842
1.1686255
1.0481233
1.0823877
1.0682199
1.078324
1.0737987
1.078487
1.0774081
1.0800237
1.0805191
1.0822616
1.0834479
1.0849669
1.0864299
1.0879832
1.0895802
1.0912333
1.0929389
1.0946967
1.0965053
1.0983629
1.1002671
1.1022152
1.1042039
1.1062292
1.1082868
1.1103717
1.1124785
1.1146011
1.1167332
1.1188682
1.120999
1.1231185
1.1252195
1.1272949
1.1293378
1.1313414
1.1332996
1.1352065
1.1370571
1.1388469
1.1405722
1.1422299
1.1438178
1.1453346
1.1467794
1.1481523
1.1494538
1.1506852
1.151848
1.1529444
1.1539766
1.1549473
1.1558593
1.1567153
1.1575183
1.1582709
1.1589758
1.1596354
1.1602518
1.1608263
1.1613596
1.161851
1.1622984
1.162698
1.1630443
1.1633301
1.1635475
1.1636888
1.1637496
1.1637348
1.1636673
1.1635969
1.1635978
1.1637456
1.1640367
1.1647739
1.1660301
1.1672717
1.1675959
1.1690772
1.0469812
1.081607
1.0671563
1.0776332
1.0730145
1.0779137
1.0768935
1.0796819
1.0802097
1.0820574
1.0833981
1.0850449
1.0866601
1.0883609
1.0901127
1.0919231
1.0937893
1.0957099
1.0976828
1.0997052
1.1017739
1.1038848
1.1060335
1.1082147
1.1104227
1.112651
1.1148929
1.117141
1.1193876
1.1216247
1.1238442
1.1260382
1.1281987
1.1303181
1.1323891
1.134405
1.13636
1.1382487
1.1400668
1.1418107
1.1434778
1.1450664
1.1465755
1.1480053
1.1493564
1.1506303
1.1518289
1.1529548
1.1540109
1.1550003
1.1559264
1.1567927
1.1576028
1.1583599
1.1590675
1.1597286
1.1603461
1.1609223
1.1614591
1.1619577
1.1624183
1.1628397
1.1632194
1.1635534
1.1638362
1.1640609
1.1642207
1.1643094
1.1643251
1.1642759
1.1641884
1.1641156
1.1641297
1.164289
1.1646058
1.1654076
1.1666549
1.1677728
1.1680794
1.1695861
1.0461702
1.0811481
1.066438
1.0773613
1.0725761
1.0776524
1.0766978
1.0795273
1.0803426
1.082335
1.0838597
1.0856588
1.0874508
1.0893245
1.0912555
1.0932477
1.095298
1.097404
1.0995625
1.1017695
1.1040202
1.1063093
1.1086307
1.1109776
1.1133424
1.1157171
1.1180933
1.120462
1.1228141
1.1251405
1.1274321
1.1296801
1.1318761
1.1340123
1.1360817
1.1380781
1.1399963
1.141832
1.1435822
1.1452448
1.1468187
1.148304
1.1497015
1.151013
1.1522408
1.1533881
1.1544584
1.1554554
1.1563833
1.1572464
1.158049
1.1587953
1.1594894
1.1601352
1.1607364
1.1612963
1.1618176
1.1623028
1.1627535
1.1631704
1.1635533
1.1639007
1.1642097
1.1644759
1.1646939
1.1648575
1.1649606
1.1649985
1.1649717
1.164891
1.1647864
1.1647123
1.164734
1.1648995
1.1652694
1.1661028
1.1673157
1.1683058
1.1686397
1.1701589
1.0457092
1.0810292
1.0660846
1.0774488
1.0725094
1.0778183
1.0770059
1.0800473
1.0810328
1.0831681
1.0849063
1.0868853
1.0888808
1.0909559
1.0930933
1.0952938
1.0975536
1.0998689
1.1022348
1.1046457
1.1070952
1.109576
1.1120799
1.1145981
1.1171211
1.119639
1.1221414
1.1246178
1.1270578
1.1294511
1.1317881
1.1340594
1.1362568
1.1383729
1.1404015
1.1423376
1.1441774
1.1459184
1.1475594
1.1491004
1.1505426
1.1518879
1.1531394
1.1543007
1.1553762
1.1563704
1.1572883
1.158135
1.1589159
1.159636
1.1603003
1.1609138
1.1614808
1.1620057
1.1624922
1.1629436
1.1633628
1.1637518
1.1641119
1.1644436
1.1647462
1.1650177
1.1652548
1.1654533
1.1656077
1.1657124
1.165762
1.1657533
1.1656885
1.165581
1.1654634
1.1653903
1.1654208
1.1655909
1.1660232
1.1668636
1.1680175
1.1688776
1.1692799
1.1708173
1.0456605
1.0813174
1.0661482
1.0777296
1.0728968
1.0784961
1.0778822
1.0810697
1.082328
1.0846354
1.0866216
1.0888143
1.0910438
1.0933515
1.095725
1.0981622
1.1006579
1.1032065
1.1058012
1.108434
1.1110962
1.113778
1.1164688
1.1191572
1.1218316
1.1244798
1.1270898
1.1296495
1.1321475
1.1345728
1.1369157
1.1391671
1.1413198
1.1433676
1.145306
1.147132
1.1488442
1.1504426
1.1519286
1.1533049
1.154575
1.1557434
1.1568153
1.1577963
1.1586924
1.1595099
1.1602549
1.1609337
1.1615522
1.1621163
1.1626315
1.1631029
1.1635353
1.1639329
1.1642995
1.1646383
1.164952
1.1652422
1.1655099
1.1657552
1.1659769
1.1661727
1.1663392
1.1664719
1.1665659
1.1666159
1.1666174
1.1665684
1.1664724
1.166345
1.1662211
1.1661544
1.1661978
1.166376
1.1668475
1.1677025
1.1687704
1.1694861
1.1700043
1.1715918
1.046114
1.0820923
1.0667295
1.0785703
1.0739216
1.0797685
1.0794061
1.0827705
1.0843313
1.0868375
1.0891045
1.0915478
1.0940443
1.0966187
1.0992604
1.1019646
1.1047238
1.1075298
1.1103729
1.1132421
1.1161256
1.1190105
1.1218833
1.1247299
1.1275363
1.1302882
1.1329721
1.1355751
1.1380851
1.1404915
1.1427854
1.1449594
1.1470079
1.1489276
1.1507166
1.1523752
1.1539052
1.1553097
1.1565933
1.1577616
1.1588208
1.1597779
1.16064
1.1614146
1.1621093
1.1627313
1.1632879
1.1637858
1.1642317
1.1646316
1.1649911
1.1653155
1.1656095
1.1658771
1.1661221
1.1663472
1.1665548
1.1667464
1.1669223
1.1670823
1.1672247
1.1673472
1.167446
1.167517
1.1675555
1.1675567
1.1675171
1.1674355
1.1673171
1.167179
1.1670579
1.1670046
1.1670607
1.167258
1.1677625
1.1686306
1.1695901
1.1701386
1.1707624
1.1724836
1.0470726
1.0833695
1.0678417
1.0801017
1.0755992
1.0816814
1.0816456
1.0851978
1.0871232
1.0898692
1.0924566
1.0951952
1.0979988
1.1008793
1.1038256
1.1068293
1.1098798
1.1129649
1.116071
1.1191834
1.1222865
1.1253639
1.1283989
1.1313748
1.1342753
1.1370847
1.1397887
1.1423743
1.1448305
1.1471485
1.1493215
1.1513455
1.1532185
1.1549408
1.1565149
1.1579449
1.1592365
1.1603966
1.161433
1.1623542
1.1631689
1.1638861
1.1645148
1.1650637
1.1655413
1.1659557
1.1663145
1.1666248
1.1668933
1.1671259
1.1673281
1.167505
1.1676608
1.1677995
1.1679243
1.1680377
1.1681416
1.168237
1.168324
1.1684019
1.1684688
1.168522
1.168558
1.1685727
1.1685618
1.1685214
1.1684486
1.1683435
1.1682123
1.1680739
1.1679658
1.1679324
1.1680016
1.1682319
1.1687677
1.1696292
1.1704803
1.170886
1.1716726
1.1735094
1.0485796
1.0851894
1.0695278
1.0822221
1.0779871
1.0843176
1.0846982
1.0884636
1.0908138
1.0938533
1.0968079
1.0998943
1.1030524
1.106283
1.1095723
1.1129071
1.1162716
1.1196491
1.1230211
1.1263686
1.1296717
1.1329105
1.1360651
1.1391166
1.1420475
1.1448419
1.1474863
1.1499699
1.1522846
1.1544256
1.1563908
1.1581809
1.1597992
1.1612511
1.1625439
1.1636863
1.1646881
1.1655595
1.1663115
1.1669547
1.1675001
1.167958
1.1683384
1.1686507
1.1689039
1.1691061
1.1692649
1.1693872
1.1694793
1.1695468
1.1695948
1.1696278
1.1696497
1.1696639
1.1696731
1.1696794
1.1696843
1.1696883
1.1696913
1.1696921
1.1696888
1.1696784
1.1696576
1.1696225
1.1695694
1.169495
1.1693975
1.1692779
1.1691435
1.1690149
1.1689294
1.1689232
1.1690102
1.1692825
1.1698472
1.1706836
1.1714233
1.1717533
1.1727366
1.1746813
1.0506981
1.0876151
1.071898
1.0850769
1.0811907
1.0877807
1.0886791
1.092698
1.0955421
1.0989471
1.1023277
1.1058232
1.1093879
1.1130129
1.1166788
1.1203665
1.1240545
1.12772
1.1313396
1.1348889
1.138344
1.1416815
1.1448799
1.1479195
1.1507836
1.153459
1.155936
1.1582089
1.1602756
1.1621376
1.1637993
1.1652681
1.1665535
1.1676664
1.168619
1.1694244
1.1700956
1.170646
1.1710883
1.171435
1.1716979
1.171888
1.1720155
1.1720899
1.1721197
1.1721129
1.1720763
1.1720164
1.1719388
1.1718483
1.1717495
1.1716462
1.1715416
1.1714386
1.1713393
1.1712455
1.1711581
1.1710773
1.1710026
1.1709327
1.1708655
1.1707982
1.1707274
1.1706497
1.1705617
1.1704611
1.1703471
1.1702214
1.1700927
1.1699827
1.1699266
1.1699526
1.1700658
1.1703856
1.1709686
1.1717656
1.1724042
1.1727303
1.1739218
1.1758928
1.053487
1.0906817
1.0750765
1.0887339
1.0853275
1.0922008
1.0937465
1.0980914
1.1015106
1.1053686
1.1092411
1.1132064
1.1172245
1.1212768
1.1253375
1.1293798
1.1333753
1.1372944
1.1411076
1.1447859
1.1483022
1.151632
1.1547546
1.1576536
1.1603174
1.1627395
1.1649179
1.1668554
1.1685586
1.1700371
1.1713034
1.1723718
1.1732576
1.1739769
1.1745462
1.1749813
1.1752978
1.1755104
1.1756331
1.1756785
1.1756585
1.1755839
1.1754643
1.1753085
1.1751244
1.1749187
1.1746977
1.1744668
1.1742306
1.1739933
1.1737585
1.1735293
1.1733082
1.1730976
1.1728989
1.1727135
1.1725419
1.172384
1.1722391
1.1721058
1.1719819
1.1718646
1.171751
1.1716376
1.1715219
1.1714024
1.171279
1.1711546
1.1710388
1.1709534
1.1709276
1.1709789
1.1711338
1.1715003
1.1720909
1.1728408
1.1733936
1.173768
1.1751524
1.1770327
1.0570101
1.0943947
1.0791974
1.0933307
1.0905921
1.097814
1.1001549
1.1049193
1.1089934
1.1133901
1.1178136
1.1222968
1.1267986
1.1312897
1.135735
1.1400982
1.1443421
1.1484302
1.152328
1.1560045
1.1594336
1.1625951
1.1654751
1.1680663
1.1703677
1.1723837
1.174124
1.1756019
1.1768339
1.1778384
1.1786352
1.1792443
1.179686
1.1799796
1.1801438
1.1801961
1.1801528
1.1800286
1.179837
1.1795903
1.1792993
1.1789737
1.178622
1.1782517
1.1778695
1.177481
1.1770912
1.1767045
1.1763245
1.1759544
1.1755969
1.1752544
1.1749287
1.1746214
1.1743337
1.1740663
1.1738194
1.1735928
1.1733855
1.1731962
1.1730228
1.1728626
1.1727127
1.1725703
1.1724332
1.1723004
1.1721732
1.1720555
1.1719575
1.1718995
1.1718997
1.1719718
1.1721861
1.1725709
1.1731647
1.1738608
1.1743447
1.1747992
1.1763322
1.1780437
1.0614433
1.0988743
1.0844653
1.099191
1.097315
1.1049484
1.108225
1.1135021
1.1182975
1.123309
1.1283312
1.1333615
1.1383495
1.1432513
1.148019
1.1526056
1.1569663
1.1610614
1.1648578
1.1683301
1.171462
1.1742458
1.1766818
1.178778
1.1805482
1.182011
1.1831884
1.1841045
1.1847845
1.1852538
1.1855371
1.1856582
1.1856393
1.1855013
1.1852628
1.1849411
1.1845515
1.1841076
1.1836214
1.1831037
1.1825635
1.1820091
1.1814472
1.1808839
1.1803244
1.179773
1.1792335
1.1787088
1.1782018
1.1777147
1.1772492
1.176807
1.1763894
1.1759972
1.1756312
1.1752918
1.1749788
1.1746919
1.1744302
1.1741922
1.173976
1.1737792
1.1735991
1.1734331
1.1732795
1.1731377
1.1730099
1.1729016
1.1728227
1.1727874
1.1728226
1.1729427
1.1731681
1.1735579
1.1741416
1.1747735
1.1752056
1.1757371
1.1773518
1.1788484
1.0670751
1.1046663
1.0912954
1.1066616
1.105844
1.1139246
1.1182795
1.124184
1.1297683
1.135463
1.1411108
1.1466748
1.152088
1.1572892
1.1622195
1.1668268
1.1710684
1.1749128
1.1783407
1.1813447
1.1839283
1.1861043
1.1878932
1.1893208
1.1904169
1.1912132
1.1917419
1.1920351
1.1921232
1.1920351
1.1917975
1.1914346
1.1909682
1.190418
1.189801
1.1891326
1.1884259
1.1876923
1.1869417
1.1861825
1.1854221
1.1846665
1.1839209
1.1831896
1.1824763
1.1817839
1.181115
1.1804716
1.1798552
1.1792673
1.178709
1.178181
1.1776841
1.1772188
1.1767853
1.1763836
1.1760135
1.1756744
1.1753656
1.1750856
1.1748326
1.1746046
1.174399
1.1742138
1.1740473
1.1738995
1.1737728
1.1736738
1.1736118
1.1735995
1.173652
1.1737858
1.1740274
1.1744221
1.1749746
1.1755369
1.1759274
1.1765062
1.1781235
1.1794521
1.0741098
1.1123879
1.0998882
1.1159435
1.1165285
1.1251441
1.1307417
1.1374207
1.1438497
1.1502469
1.1564664
1.1624382
1.1680803
1.1733237
1.1781129
1.1824085
1.186188
1.1894458
1.1921906
1.1944433
1.196234
1.1975992
1.1985791
1.1992155
1.19955
1.1996228
1.1994716
1.1991313
1.1986334
1.1980063
1.1972751
1.1964618
1.1955856
1.194663
1.1937083
1.1927337
1.1917495
1.1907644
1.1897859
1.1888198
1.1878715
1.186945
1.1860438
1.1851707
1.1843277
1.1835167
1.182739
1.1819956
1.1812872
1.1806145
1.1799778
1.1793774
1.1788135
1.1782861
1.1777951
1.1773404
1.1769214
1.1765377
1.1761883
1.1758721
1.1755875
1.1753326
1.1751052
1.1749035
1.1747264
1.1745741
1.1744489
1.1743557
1.1743033
1.1743032
1.1743665
1.1745059
1.174747
1.1751272
1.1756317
1.1761205
1.1764806
1.1770808
1.1786258
1.1798305
1.0826481
1.1218357
1.1108062
1.1275821
1.1299966
1.1392811
1.1462428
1.1537943
1.1610181
1.1679774
1.1745242
1.1805723
1.1860464
1.1908974
1.1951003
1.1986532
1.2015741
1.2038964
1.2056646
1.2069303
1.2077482
1.2081738
1.2082606
1.2080591
1.2076157
1.2069723
1.2061663
1.2052302
1.2041926
1.203078
1.2019074
1.2006987
1.1994669
1.1982247
1.1969826
1.1957495
1.1945326
1.1933377
1.1921698
1.1910326
1.1899293
1.1888622
1.1878332
1.1868435
1.1858941
1.1849857
1.1841186
1.1832929
1.1825087
1.1817658
1.1810642
1.1804036
1.1797838
1.1792043
1.178665
1.1781654
1.177705
1.1772831
1.176899
1.1765515
1.1762393
1.1759607
1.1757138
1.175497
1.1753094
1.1751511
1.1750241
1.1749328
1.1748839
1.1748862
1.1749481
1.175081
1.1753084
1.1756559
1.1760968
1.1765104
1.1768453
1.1774444
1.17885
1.1798871
1.0934035
1.1339122
1.1249362
1.1424925
1.1471744
1.1572089
1.1654705
1.1737779
1.1814878
1.1885777
1.1949265
1.2004753
1.2051971
1.2090983
1.212212
1.2145913
1.2163025
1.2174186
1.2180149
1.2181646
1.217937
1.2173954
1.2165965
1.2155905
1.2144208
1.2131248
1.2117343
1.2102762
1.2087731
1.2072437
1.2057037
1.2041658
1.2026405
1.2011364
1.1996603
1.1982177
1.196813
1.1954495
1.1941297
1.1928555
1.1916282
1.1904487
1.1893174
1.1882345
1.1871999
1.1862132
1.1852741
1.1843819
1.1835362
1.1827363
1.1819816
1.1812715
1.1806054
1.1799828
1.1794031
1.1788656
1.17837
1.1779156
1.1775015
1.1771268
1.1767901
1.1764901
1.176225
1.1759935
1.1757946
1.1756282
1.1754958
1.1754005
1.1753475
1.1753428
1.1753927
1.1755073
1.1757071
1.1760078
1.1763661
1.1766984
1.1770045
1.1775832
1.1787885
1.1796117
1.1078915
1.1496922
1.1435255
1.1617242
1.1690133
1.1796911
1.1887888
1.1973022
1.2047949
1.2112459
1.2166206
1.2209429
1.2242707
1.2266884
1.2282947
1.2291943
1.2294908
1.2292819
1.2286568
1.2276947
1.2264647
1.2250261
1.2234289
1.2217153
1.2199201
1.2180721
1.216195
1.214308
1.2124267
1.2105636
1.2087286
1.2069298
1.2051732
1.2034636
1.2018046
1.2001987
1.1986479
1.1971533
1.1957155
1.1943349
1.1930112
1.1917441
1.190533
1.1893771
1.1882755
1.1872271
1.1862309
1.1852858
1.1843909
1.183545
1.1827473
1.1819967
1.1812926
1.1806341
1.1800205
1.1794512
1.1789256
1.1784431
1.1780029
1.1776041
1.1772454
1.1769255
1.1766429
1.1763962
1.1761844
1.176007
1.1758649
1.17576
1.1756954
1.175675
1.1757036
1.17579
1.1759481
1.1761823
1.1764555
1.176712
1.1769704
1.1774875
1.1784639
1.1790666
1.1276117
1.17046
1.1679926
1.186299
1.1959122
1.2067123
1.2156504
1.2233121
1.2295357
1.2343874
1.2379608
1.2403908
1.2418264
1.2424191
1.242313
1.2416389
1.2405119
1.2390309
1.2372792
1.2353259
1.2332279
1.2310315
1.228774
1.2264854
1.2241896
1.2219056
1.2196482
1.217429
1.2152569
1.2131389
1.2110798
1.2090834
1.2071523
1.2052879
1.2034913
1.2017627
1.2001021
1.1985088
1.1969822
1.1955211
1.1941244
1.1927907
1.1915187
1.1903068
1.1891534
1.1880571
1.1870163
1.1860296
1.1850955
1.1842128
1.1833802
1.1825967
1.1818613
1.1811729
1.1805309
1.1799345
1.1793832
1.1788763
1.1784131
1.1779926
1.1776137
1.177275
1.176975
1.1767124
1.1764858
1.1762945
1.1761384
1.1760183
1.1759356
1.1758922
1.1758916
1.1759411
1.1760488
1.17621
1.1763947
1.176565
1.1767531
1.1771763
1.1779218
1.1783142
1.1550798
1.197007
1.1994547
1.2171106
1.227109
1.2367293
1.2441326
1.2497097
1.253585
1.2559921
1.2571617
1.2573198
1.25667
1.255389
1.2536255
1.251502
1.2491176
1.2465518
1.2438674
1.2411137
1.2383293
1.2355441
1.2327811
1.2300577
1.2273872
1.2247795
1.2222418
1.2197791
1.217395
1.2150915
1.2128699
1.2107305
1.208673
1.2066966
1.2048004
1.2029827
1.2012422
1.199577
1.1979853
1.1964651
1.1950144
1.1936312
1.1923136
1.1910594
1.1898667
1.1887336
1.1876582
1.1866389
1.1856739
1.1847618
1.1839011
1.1830907
1.1823293
1.1816159
1.1809498
1.1803302
1.1797565
1.1792281
1.1787442
1.178304
1.1779062
1.1775494
1.177232
1.1769526
1.1767095
1.1765015
1.1763279
1.1761885
1.176083
1.1760116
1.1759764
1.1759818
1.1760295
1.1761076
1.1761939
1.1762782
1.1763927
1.1766944
1.1772159
1.177432
1.1929196
1.2311221
1.2367449
1.2517086
1.2606144
1.2673566
1.2716285
1.2739679
1.2747272
1.2742636
1.2728696
1.2707871
1.2682081
1.2652827
1.2621267
1.2588286
1.2554553
1.2520569
1.2486711
1.2453254
1.2420402
1.2388302
1.2357055
1.2326734
1.2297384
1.2269032
1.224169
1.221536
1.2190036
1.2165706
1.2142353
1.2119956
1.2098493
1.207794
1.2058271
1.2039462
1.2021485
1.2004315
1.1987925
1.197229
1.1957384
1.1943184
1.1929663
1.1916799
1.1904569
1.1892951
1.1881924
1.187147
1.186157
1.1852207
1.1843366
1.1835034
1.1827198
1.1819849
1.1812976
1.1806573
1.1800633
1.1795152
1.179012
1.178553
1.1781368
1.1777621
1.177427
1.1771298
1.1768686
1.1766419
1.1764483
1.1762866
1.1761555
1.1760535
1.1759806
1.1759379
1.1759227
1.1759201
1.1759095
1.1758943
1.1759252
1.176097
1.1764217
1.1765168
1.2393667
1.2712294
1.2782144
1.2877995
1.2925871
1.2948672
1.2950195
1.2936799
1.2912722
1.2881342
1.2845128
1.2805894
1.2764954
1.272325
1.2681452
1.2640034
1.2599328
1.255956
1.2520884
1.2483396
1.2447156
1.2412193
1.2378518
1.2346124
1.2314997
1.2285114
1.2256446
1.2228962
1.2202628
1.2177409
1.2153269
1.2130173
1.2108084
1.2086969
1.2066792
1.2047519
1.202912
1.201156
1.1994811
1.1978842
1.1963623
1.1949128
1.1935329
1.1922201
1.1909717
1.1897857
1.1886596
1.1875914
1.1865793
1.1856215
1.1847163
1.1838622
1.1830582
1.1823029
1.1815956
1.1809355
1.1803221
1.1797546
1.1792325
1.1787547
1.17832
1.1779269
1.1775734
1.1772576
1.1769774
1.1767308
1.1765161
1.1763312
1.1761736
1.1760407
1.1759302
1.1758394
1.1757616
1.1756823
1.1755848
1.1754776
1.175416
1.175468
1.1756277
1.1756505
1.292234
1.3124819
1.316932
1.319252
1.3184753
1.3158851
1.3120819
1.3075451
1.302589
1.2974262
1.2921976
1.2869957
1.2818806
1.2768907
1.2720495
1.2673707
1.2628612
1.2585236
1.2543572
1.2503597
1.2465271
1.2428549
1.2393381
1.2359711
1.2327488
1.2296655
1.226716
1.2238951
1.2211977
1.2186189
1.2161541
1.2137987
1.2115484
1.2093991
1.2073468
1.2053876
1.203518
1.2017344
1.2000334
1.1984119
1.1968668
1.1953951
1.1939939
1.1926605
1.1913924
1.190187
1.1890422
1.1879556
1.1869255
1.1859499
1.1850271
1.1841557
1.1833344
1.1825619
1.1818375
1.1811604
1.1805299
1.1799455
1.1794064
1.1789118
1.1784603
1.1780504
1.1776801
1.1773472
1.1770492
1.1767838
1.1765489
1.1763419
1.1761595
1.1759983
1.1758543
1.1757211
1.1755872
1.175438
1.1752629
1.1750755
1.1749274
1.1748839
1.1749333
1.1749138
1.3439815
1.3472401
1.3460538
1.3416902
1.3359854
1.3295525
1.3228465
1.316104
1.3094682
1.3030163
1.2967904
1.2908098
1.2850814
1.2796041
1.2743723
1.2693779
1.2646115
1.2600631
1.2557228
1.2515805
1.2476268
1.2438526
1.2402491
1.2368083
1.2335224
1.2303842
1.2273868
1.224524
1.2217895
1.2191779
1.2166836
1.2143017
1.2120274
1.2098562
1.2077837
1.2058059
1.2039189
1.2021191
1.2004029
1.1987671
1.1972083
1.1957235
1.1943098
1.1929643
1.1916845
1.1904679
1.189312
1.1882146
1.1871738
1.1861877
1.1852544
1.1843725
1.1835406
1.1827575
1.1820222
1.1813339
1.180692
1.1800957
1.1795445
1.1790373
1.178573
1.17815
1.1777664
1.1774197
1.177107
1.1768254
1.1765724
1.1763452
1.1761401
1.1759529
1.1757795
1.1756142
1.1754429
1.1752443
1.1750068
1.1747501
1.1745387
1.1744291
1.1744135
1.1743763
1.3773516
1.3699346
1.3625679
1.35448
1.3460777
1.3377661
1.3297084
1.3219775
1.3146012
1.3075825
1.300913
1.2945782
1.2885611
1.2828439
1.2774091
1.27224
1.2673208
1.2626368
1.2581743
1.2539207
1.2498645
1.2459949
1.2423021
1.2387769
1.2354109
1.2321962
1.2291257
1.2261924
1.2233901
1.2207129
1.2181552
1.2157119
1.213378
1.211149
1.2090204
1.2069881
1.2050482
1.2031971
1.201431
1.1997467
1.1981408
1.1966104
1.1951523
1.1937638
1.1924423
1.191185
1.1899897
1.188854
1.1877759
1.1867534
1.1857848
1.1848683
1.1840026
1.1831864
1.1824186
1.1816985
1.1810252
1.1803982
1.1798167
1.1792801
1.1787871
1.1783366
1.1779266
1.1775547
1.1772174
1.1769113
1.1766334
1.1763812
1.1761494
1.1759302
1.1757233
1.1755358
1.1753477
1.1751389
1.1748937
1.174563
1.1743179
1.1741781
1.1741263
1.1740746
1.1695935
1.1742744
1.1873036
1.1986507
1.2040011
1.2052722
1.2053364
1.2050214
1.2049895
1.2047111
1.2043852
1.2039059
1.203351
1.2026907
1.2020026
1.2012819
1.2005266
1.1997418
1.1989323
1.1981019
1.1972544
1.196393
1.1955207
1.1946402
1.193754
1.1928643
1.191973
1.1910819
1.1901927
1.1893069
1.1884257
1.1875505
1.1866823
1.1858222
1.1849712
1.1841301
1.1832999
1.1824813
1.1816752
1.1808823
1.1801033
1.1793389
1.1785899
1.1778567
1.17714
1.1764405
1.1757586
1.1750948
1.1744498
1.1738241
1.1732182
1.1726327
1.1720684
1.1715257
1.1710053
1.1705079
1.1700343
1.1695852
1.1691616
1.1687648
1.168396
1.1680566
1.1677487
1.1674739
1.1672374
1.1670371
1.1668885
1.1667725
1.166732
1.1666846
1.1667421
1.1666432
1.1666889
1.16631
1.1660062
1.1647683
1.1642211
1.1625021
1.163097
1.162952
1.1669485
1.1755906
1.1906856
1.1985596
1.2007403
1.2006502
1.2002094
1.1999689
1.1996605
1.1993641
1.1989911
1.1985954
1.1981491
1.1976817
1.1971734
1.1966319
1.1960579
1.1954556
1.1948272
1.1941751
1.1935014
1.1928085
1.1920985
1.1913738
1.1906363
1.189888
1.1891311
1.1883673
1.1875984
1.1868262
1.1860524
1.1852785
1.184506
1.1837363
1.1829707
1.1822107
1.1814574
1.180712
1.1799756
1.1792495
1.1785344
1.1778316
1.1771419
1.1764661
1.1758052
1.1751598
1.1745308
1.1739188
1.1733245
1.1727486
1.1721916
1.1716543
1.1711373
1.1706412
1.1701665
1.1697138
1.169284
1.1688777
1.1684959
1.1681397
1.1678105
1.1675096
1.1672394
1.1670016
1.1668011
1.1666371
1.1665228
1.1664425
1.1664316
1.1664167
1.1664893
1.1664146
1.1664448
1.166047
1.1657366
1.1645355
1.1639982
1.1623659
1.1630525
1.1631489
1.1664437
1.1782571
1.1891565
1.1951716
1.1961445
1.1957422
1.1951942
1.194911
1.194598
1.1943101
1.193966
1.1936278
1.1932522
1.1928644
1.1924478
1.1920143
1.1915574
1.1910804
1.190583
1.190066
1.1895304
1.1889769
1.1884068
1.1878211
1.1872212
1.1866082
1.1859836
1.1853487
1.184705
1.1840538
1.1833967
1.182735
1.1820703
1.181404
1.1807376
1.1800725
1.17941
1.1787516
1.1780986
1.1774523
1.176814
1.1761849
1.1755661
1.1749588
1.174364
1.1737827
1.1732158
1.1726641
1.1721285
1.1716097
1.1711086
1.1706257
1.1701618
1.1697174
1.1692932
1.1688896
1.1685075
1.1681475
1.1678107
1.1674982
1.1672112
1.1669515
1.1667211
1.1665223
1.1663597
1.1662333
1.1661548
1.1661107
1.1661304
1.1661473
1.1662365
1.1661816
1.1662055
1.1657733
1.1654763
1.164309
1.1637773
1.1622426
1.1630322
1.163332
1.1642776
1.1772001
1.1868747
1.1913441
1.1911288
1.1907172
1.1902358
1.1900182
1.1896681
1.1894003
1.1890655
1.1887689
1.1884353
1.1881115
1.187766
1.1874153
1.1870489
1.1866709
1.1862791
1.1858738
1.1854547
1.1850215
1.1845743
1.1841135
1.1836392
1.1831521
1.1826529
1.1821421
1.1816209
1.18109
1.1805507
1.180004
1.1794512
1.1788936
1.1783325
1.1777691
1.1772051
1.1766416
1.1760802
1.1755223
1.1749691
1.1744222
1.1738827
1.173352
1.1728311
1.1723214
1.1718237
1.1713392
1.1708688
1.1704134
1.1699738
1.1695508
1.169145
1.1687571
1.1683876
1.1680371
1.1677063
1.1673961
1.1671073
1.1668413
1.1665993
1.166383
1.1661949
1.1660371
1.1659143
1.1658272
1.1657858
1.1657788
1.1658301
1.1658782
1.165985
1.1659471
1.165971
1.1655333
1.1652256
1.164085
1.1635655
1.1621339
1.1630213
1.1635108
1.1583689
1.1733298
1.1823885
1.1857479
1.1851201
1.1850339
1.1846235
1.1845449
1.1842631
1.1841139
1.1838649
1.1836765
1.1834371
1.1832171
1.1829718
1.1827266
1.1824667
1.1821979
1.1819167
1.1816238
1.1813186
1.1810008
1.1806702
1.1803268
1.1799707
1.179602
1.1792211
1.1788284
1.1784244
1.1780098
1.1775853
1.1771517
1.1767101
1.1762614
1.1758068
1.1753475
1.1748848
1.17442
1.1739544
1.1734894
1.1730266
1.1725671
1.1721124
1.1716638
1.1712227
1.1707901
1.1703674
1.1699556
1.1695557
1.1691688
1.1687956
1.1684371
1.1680937
1.1677663
1.1674553
1.1671614
1.1668854
1.1666279
1.1663901
1.1661731
1.1659785
1.165808
1.165664
1.1655491
1.1654677
1.1654211
1.1654181
1.1654485
1.1655318
1.1656105
1.1657352
1.1657139
1.1657352
1.165319
1.1649799
1.1638649
1.1633664
1.1620439
1.1630051
1.1636685
1.1521687
1.169499
1.1772884
1.1800751
1.1792983
1.1794818
1.1791139
1.1791836
1.1789674
1.1789366
1.1787701
1.1786878
1.1785381
1.1784184
1.1782689
1.1781219
1.1779601
1.1777912
1.1776105
1.1774191
1.1772167
1.1770029
1.1767776
1.1765407
1.176292
1.1760317
1.1757596
1.1754761
1.1751813
1.1748756
1.1745596
1.1742338
1.173899
1.1735558
1.1732053
1.1728485
1.1724865
1.1721204
1.1717516
1.1713813
1.1710108
1.1706415
1.1702747
1.1699117
1.1695539
1.1692025
1.1688587
1.1685236
1.1681983
1.1678839
1.1675811
1.1672908
1.1670137
1.1667502
1.1665011
1.166267
1.1660486
1.1658467
1.1656623
1.1654969
1.1653518
1.165229
1.1651311
1.1650607
1.1650221
1.1650171
1.1650533
1.1651214
1.1652368
1.1653451
1.1654898
1.1654848
1.1654974
1.165099
1.1647365
1.1636499
1.163177
1.1619737
1.1629962
1.1637921
1.1467437
1.1658467
1.1722866
1.1748128
1.1739259
1.1743222
1.1739619
1.1741504
1.1739744
1.1740377
1.1739341
1.1739398
1.1738631
1.1738285
1.1737607
1.1736938
1.1736114
1.1735255
1.17343
1.1733259
1.1732128
1.17309
1.1729574
1.1728146
1.1726614
1.1724976
1.1723232
1.1721381
1.1719425
1.1717366
1.1715205
1.1712947
1.1710597
1.1708162
1.1705648
1.1703064
1.1700419
1.1697723
1.1694987
1.1692222
1.1689441
1.1686655
1.1683878
1.1681121
1.1678397
1.1675718
1.1673095
1.167054
1.1668064
1.1665675
1.1663383
1.1661193
1.1659112
1.1657147
1.1655304
1.1653587
1.1652005
1.1650566
1.1649281
1.1648162
1.1647227
1.1646493
1.164599
1.1645745
1.1645799
1.1646174
1.1646934
1.1647992
1.1649464
1.1650835
1.1652421
1.1652645
1.165263
1.164872
1.1644891
1.1634415
1.162994
1.1619247
1.1630016
1.1639045
1.1417039
1.1626989
1.1676408
1.1700646
1.1690626
1.1696274