/*--------------------------------*- C++ -*----------------------------------*\
  =========                 |
  \\      /  F ield         | OpenFOAM: The Open Source CFD Toolbox
   \\    /   O peration     | Website:  https://openfoam.org
    \\  /    A nd           | Version:  12
     \\/     M anipulation  |
\*---------------------------------------------------------------------------*/
FoamFile
{
    format      ascii;
    class       volScalarField;
    location    "0.128";
    object      Ma;
}
// * * * * * * * * * * * * * * * * * * * * * * * * * * * * * * * * * * * * * //

dimensions      [];

internalField   nonuniform List<scalar> 
16000
(
0.62427831
0.74139266
0.69680556
0.72116209
0.70622407
0.71309546
0.70742821
0.70892835
0.7062949
0.70584677
0.70422867
0.70309534
0.70168422
0.7003069
0.69884769
0.69734225
0.69577937
0.69416068
0.69248493
0.6907517
0.6889606
0.68711151
0.68520454
0.68324009
0.68121886
0.67914189
0.6770106
0.67482675
0.67259254
0.67031056
0.66798385
0.66561586
0.66321047
0.66077196
0.65830504
0.65581475
0.65330649
0.65078593
0.64825899
0.64573176
0.64321043
0.64070122
0.63821033
0.63574384
0.63330764
0.63090734
0.62854826
0.62623532
0.623973
0.62176533
0.61961581
0.61752746
0.61550275
0.61354363
0.61165156
0.60982745
0.60807174
0.60638436
0.60476472
0.6032115
0.6017227
0.60029582
0.59892777
0.59761463
0.59635172
0.59513381
0.59395537
0.59281093
0.59169535
0.59060347
0.5895291
0.5884638
0.58739687
0.58631779
0.58522001
0.58410328
0.58292276
0.58190856
0.58017967
0.57996931
0.62875029
0.74660026
0.70016325
0.72580471
0.71004906
0.71737704
0.71126828
0.71288308
0.71006918
0.70954779
0.70784236
0.7065933
0.70509077
0.70359933
0.70203158
0.7004097
0.69872782
0.6969859
0.6951833
0.69331966
0.69139483
0.68940898
0.68736254
0.68525632
0.68309147
0.68086954
0.67859248
0.67626268
0.67388299
0.67145668
0.66898752
0.66647972
0.66393792
0.66136719
0.658773
0.65616115
0.65353775
0.65090913
0.6482818
0.64566236
0.64305742
0.64047351
0.637917
0.63539406
0.6329105
0.63047177
0.6280829
0.62574838
0.62347222
0.62125784
0.61910811
0.61702533
0.61501125
0.61306707
0.61119351
0.60939076
0.60765858
0.60599626
0.60440265
0.60287599
0.60141388
0.60001345
0.59867137
0.59738354
0.59614512
0.59495074
0.59379463
0.5926711
0.59157476
0.59050043
0.58944212
0.58839164
0.58733821
0.58627043
0.58517965
0.58406109
0.58292294
0.58177393
0.58036705
0.57967484
0.63292834
0.75137902
0.70376988
0.7298509
0.71364099
0.72107274
0.71480568
0.71631096
0.71344212
0.71276515
0.71099186
0.70960567
0.70799928
0.70638156
0.70468976
0.70293735
0.70112105
0.69924053
0.69729545
0.69528575
0.69321163
0.69107367
0.68887277
0.68661024
0.68428779
0.6819076
0.67947231
0.67698506
0.67444945
0.67186963
0.66925023
0.66659636
0.66391359
0.66120791
0.65848568
0.65575357
0.65301847
0.65028744
0.64756762
0.64486609
0.64218984
0.63954563
0.63693992
0.63437878
0.63186781
0.62941211
0.62701618
0.62468391
0.62241857
0.6202228
0.61809859
0.61604734
0.61406987
0.61216647
0.61033695
0.60858064
0.60689649
0.60528305
0.60373849
0.60226051
0.60084622
0.59949236
0.59819529
0.59695066
0.59575352
0.59459835
0.59347927
0.5923904
0.5913262
0.59028149
0.58925051
0.58822555
0.58719609
0.58614977
0.58507663
0.58397576
0.58285443
0.58166576
0.58040291
0.57947996
0.63674696
0.75573999
0.70680032
0.73339666
0.71678228
0.72432061
0.71788982
0.71926492
0.71633293
0.7154804
0.71362496
0.71208536
0.71035705
0.70859684
0.70676347
0.70486372
0.70289628
0.70086082
0.69875733
0.69658613
0.69434783
0.69204347
0.68967448
0.68724279
0.68475078
0.68220139
0.67959809
0.67694491
0.67424644
0.67150784
0.66873479
0.66593349
0.66311055
0.66027303
0.65742827
0.65458386
0.65174751
0.64892698
0.64612994
0.64336388
0.64063599
0.63795308
0.63532146
0.63274688
0.63023447
0.62778866
0.62541319
0.62311106
0.62088458
0.61873533
0.61666423
0.6146716
0.61275715
0.61092014
0.60915936
0.60747321
0.60585977
0.60431679
0.60284176
0.60143183
0.60008364
0.59879354
0.59755759
0.59637126
0.5952295
0.59412668
0.59305686
0.592014
0.59099246
0.58998703
0.5889923
0.58800122
0.58700357
0.58598626
0.58493928
0.58386378
0.58275578
0.58157425
0.580401
0.57930076
0.64019607
0.75962297
0.70958488
0.73632058
0.71931602
0.7270129
0.72046497
0.7216513
0.71867339
0.71761131
0.71566288
0.7139521
0.71208332
0.71016497
0.70817303
0.70610989
0.70397525
0.70176898
0.69949134
0.69714304
0.69472516
0.69223933
0.68968765
0.68707283
0.68439817
0.68166758
0.67888564
0.67605753
0.67318908
0.6702867
0.66735735
0.66440851
0.66144805
0.65848415
0.65552524
0.65257984
0.64965644
0.6467634
0.64390879
0.64110028
0.63834505
0.63564966
0.63301997
0.63046109
0.62797731
0.62557212
0.62324816
0.62100724
0.61885042
0.616778
0.61478963
0.61288435
0.61106067
0.60931668
0.6076501
0.60605834
0.60453859
0.60308783
0.60170287
0.60038031
0.59911637
0.59790705
0.59674816
0.59563504
0.59456254
0.59352506
0.59251661
0.59153111
0.59056281
0.58960648
0.58865707
0.58770829
0.58675036
0.58577009
0.58475824
0.58371439
0.58262498
0.58147255
0.58035486
0.57913454
0.64322403
0.76294324
0.71192248
0.7387928
0.72151478
0.72906906
0.72239199
0.7233912
0.72036984
0.71908505
0.71703149
0.71513869
0.7131135
0.71102408
0.70885831
0.70661627
0.70429808
0.70190399
0.69943473
0.69689161
0.69427646
0.69159178
0.68884067
0.68602699
0.68315527
0.68023077
0.67725948
0.67424809
0.67120394
0.66813498
0.6650497
0.661957
0.6588661
0.65578642
0.65272744
0.6496985
0.64670874
0.64376689
0.64088113
0.63805901
0.63530729
0.63263191
0.63003785
0.62752917
0.62510895
0.62277931
0.62054146
0.61839572
0.61634162
0.61437799
0.61250301
0.61071433
0.60900918
0.60738443
0.60583673
0.60436253
0.60295816
0.60161988
0.6003439
0.59912633
0.59796306
0.59684983
0.59578225
0.59475562
0.59376479
0.59280422
0.59186798
0.59095
0.59004447
0.58914615
0.58825034
0.58735147
0.58644036
0.5855045
0.58453545
0.5835286
0.58246527
0.58135507
0.58028307
0.57897346
0.64580265
0.76568382
0.71381203
0.74077568
0.72325099
0.7304715
0.72382856
0.72445192
0.7214449
0.71988117
0.71770817
0.71562231
0.71342091
0.71114202
0.70878117
0.70633794
0.70381302
0.70120745
0.69852281
0.69576143
0.69292626
0.69002108
0.68705043
0.68401965
0.68093493
0.67780327
0.67463244
0.67143094
0.66820793
0.66497315
0.66173676
0.6585092
0.65530108
0.65212298
0.64898523
0.64589784
0.64287022
0.6399111
0.63702835
0.63422889
0.63151859
0.62890221
0.62638338
0.6239646
0.62164728
0.6194318
0.61731757
0.61530313
0.61338629
0.6115642
0.6098335
0.6081904
0.60663082
0.60515049
0.603745
0.60240995
0.60114091
0.59993354
0.59878356
0.59768672
0.59663866
0.59563498
0.59467122
0.59374271
0.59284438
0.59197085
0.59111635
0.59027492
0.58944069
0.58860846
0.58777382
0.58693179
0.58607403
0.58518944
0.58427002
0.58330528
0.58227554
0.58121686
0.58018619
0.57881132
0.64797334
0.76787508
0.71529638
0.74229765
0.7245829
0.73144163
0.72477667
0.7252691
0.72186176
0.7200216
0.71769361
0.71538867
0.71297695
0.71047701
0.70788853
0.70521179
0.70244827
0.69960008
0.69667
0.69366171
0.69057972
0.68742946
0.68421729
0.68095055
0.67763746
0.67428714
0.67090952
0.66751526
0.66411558
0.66072215
0.65734688
0.65400175
0.65069859
0.64744888
0.64426351
0.64115264
0.6381255
0.6351902
0.63235368
0.62962159
0.62699824
0.62448662
0.6220884
0.61980401
0.61763273
0.61557281
0.61362157
0.61177557
0.61003074
0.60838251
0.60682595
0.60535591
0.60396708
0.60265414
0.60141183
0.60023499
0.59911864
0.59805799
0.59704842
0.59608547
0.59516469
0.59428166
0.59343198
0.59261109
0.59181414
0.59103597
0.59027108
0.58951368
0.58875798
0.58799879
0.5872319
0.58645277
0.58565412
0.58482692
0.58396296
0.58304499
0.58205602
0.58105589
0.58006419
0.57864463
0.64980194
0.76954404
0.71633291
0.74335622
0.72526606
0.73147912
0.72490725
0.72460913
0.72157624
0.71945315
0.71692133
0.71436158
0.71169789
0.70893795
0.70608323
0.70313524
0.70009649
0.69697049
0.69376165
0.69047546
0.6871184
0.68369815
0.68022339
0.67670394
0.67315056
0.66957495
0.66598956
0.66240746
0.65884209
0.6553071
0.65181605
0.6483822
0.64501824
0.64173604
0.63854646
0.6354591
0.63248222
0.62962254
0.62688522
0.62427384
0.62179041
0.61943542
0.61720801
0.61510602
0.61312623
0.61126446
0.60951578
0.60787468
0.6063352
0.60489114
0.60353612
0.60226377
0.60106777
0.59994197
0.59888045
0.59787756
0.59692794
0.59602657
0.59516869
0.59434981
0.59356553
0.59281156
0.59208369
0.59137758
0.59068868
0.59001218
0.5893429
0.58867535
0.58800389
0.5873234
0.58662972
0.58591854
0.58518393
0.58441939
0.58361561
0.58274863
0.58180783
0.58087185
0.57991546
0.57847038
0.65128685
0.77066499
0.71684908
0.74375576
0.72523441
0.73098079
0.72444125
0.72376204
0.72052957
0.7180568
0.71527185
0.71242011
0.70946139
0.70639944
0.70323676
0.69997661
0.69662318
0.69318199
0.68965965
0.68606414
0.68240465
0.67869172
0.67493706
0.67115357
0.6673551
0.66355634
0.65977256
0.65601936
0.65231241
0.64866708
0.64509824
0.64161985
0.63824475
0.6349844
0.63184861
0.62884546
0.62598116
0.62325999
0.62068436
0.61825486
0.6159704
0.61382835
0.61182475
0.60995454
0.60821172
0.60658961
0.60508103
0.60367849
0.60237435
0.60116095
0.60003077
0.5989765
0.5979911
0.59706788
0.59620054
0.59538321
0.59461043
0.59387713
0.59317865
0.59251062
0.59186889
0.59124942
0.59064832
0.59006159
0.58948506
0.58891433
0.58834466
0.58777092
0.58718775
0.58659016
0.58597385
0.58533458
0.58466802
0.58397027
0.58323009
0.58241798
0.58153352
0.58066658
0.57973932
0.57828699
0.65236769
0.77113821
0.71676933
0.74264656
0.7244364
0.72964287
0.72319689
0.72192566
0.7185632
0.71571654
0.71262134
0.7094323
0.70612981
0.702718
0.69920066
0.69558339
0.69187282
0.68807724
0.68420637
0.68027153
0.67628552
0.67226258
0.66821824
0.66416909
0.66013258
0.65612665
0.65216949
0.64827909
0.64447293
0.64076755
0.63717825
0.63371871
0.63040074
0.62723404
0.6242261
0.62138206
0.6187048
0.61619497
0.61385116
0.61167013
0.609647
0.60777554
0.60604844
0.60445758
0.60299423
0.60164937
0.6004138
0.59927837
0.59823411
0.59727231
0.59638469
0.59556336
0.59480094
0.59409056
0.59342588
0.59280106
0.59221079
0.59165025
0.59111502
0.59060107
0.59010459
0.58962198
0.58914976
0.58868436
0.58822207
0.58775897
0.58729081
0.58681293
0.58632037
0.58580828
0.5852721
0.58470757
0.58411207
0.58348393
0.58280926
0.58205573
0.58123644
0.58044195
0.57953417
0.57809877
0.65295499
0.77079946
0.71598211
0.74085942
0.72302137
0.72739454
0.72102454
0.71914959
0.71555609
0.71229542
0.70882653
0.70524564
0.70154377
0.6977277
0.69380351
0.68977997
0.68566728
0.68147766
0.67722512
0.67292553
0.66859632
0.66425642
0.65992584
0.65562543
0.65137641
0.64719999
0.64311688
0.63914682
0.63530814
0.63161731
0.62808858
0.62473368
0.62156163
0.61857861
0.615788
0.61319047
0.61078418
0.60856499
0.60652683
0.60466199
0.60296148
0.60141534
0.60001299
0.59874346
0.5975957
0.59655872
0.59562184
0.59477475
0.59400766
0.59331132
0.59267714
0.59209714
0.591564
0.59107101
0.5906121
0.59018179
0.58977516
0.5893878
0.58901578
0.5886555
0.58830368
0.58795722
0.58761315
0.58726842
0.58691983
0.586564
0.58619719
0.58581529
0.58541386
0.58498824
0.58453353
0.58404545
0.58352302
0.58296581
0.5823571
0.58166581
0.58092004
0.58019887
0.57930218
0.5779065
0.65298579
0.76957389
0.7143503
0.73835499
0.72074584
0.72413493
0.71780042
0.71526816
0.71136106
0.70763559
0.70372116
0.69968245
0.69551621
0.6912334
0.68684403
0.68236155
0.67780131
0.67318107
0.6685206
0.66384158
0.65916719
0.65452177
0.64993032
0.64541803
0.64100964
0.63672889
0.63259791
0.62863667
0.62486246
0.62128951
0.61792871
0.61478747
0.61186969
0.60917594
0.60670369
0.60444762
0.60240003
0.60055128
0.59889021
0.59740455
0.59608136
0.59490732
0.59386907
0.59295346
0.59214772
0.59143966
0.59081774
0.59027118
0.58978996
0.58936489
0.58898755
0.58865032
0.58834634
0.58806941
0.58781403
0.58757531
0.58734895
0.58713113
0.58691851
0.58670809
0.58649718
0.58628328
0.58606398
0.5858368
0.58559912
0.58534808
0.58508051
0.5847929
0.5844814
0.58414155
0.58376821
0.58335727
0.58290891
0.58242248
0.581879
0.58125351
0.58058799
0.57993738
0.579048
0.57771173
0.65244046
0.76736459
0.7118025
0.73476458
0.71746623
0.71975133
0.7133762
0.71013573
0.70580491
0.70154374
0.69709909
0.69252255
0.68781604
0.68299645
0.67808005
0.67308701
0.66803984
0.66296357
0.65788521
0.65283344
0.64783793
0.64292883
0.63813598
0.63348818
0.6290124
0.62473302
0.62067117
0.6168442
0.61326526
0.60994317
0.60688234
0.60408305
0.6015417
0.59925129
0.59720192
0.59538138
0.5937757
0.59236969
0.59114739
0.5900926
0.58918913
0.58842119
0.58777358
0.58723186
0.58678249
0.58641288
0.58611147
0.58586768
0.58567193
0.58551559
0.58539092
0.58529107
0.58520994
0.58514217
0.58508305
0.58502848
0.58497491
0.58491927
0.58485891
0.58479149
0.58471495
0.58462744
0.58452717
0.58441226
0.58428067
0.58413008
0.58395788
0.58376121
0.5835368
0.58328045
0.58298704
0.58265292
0.58227867
0.58186165
0.58138171
0.58082516
0.58024527
0.57966032
0.57877751
0.57752186
0.65126138
0.76400243
0.70828405
0.73001017
0.71302555
0.71407595
0.70755285
0.70353665
0.69865525
0.69376391
0.68868959
0.68348262
0.67815275
0.67272509
0.66722487
0.66168127
0.65612596
0.65059295
0.64511777
0.63973687
0.63448658
0.6294022
0.62451692
0.61986079
0.61545985
0.61133532
0.60750313
0.6039737
0.60075187
0.59783725
0.59522463
0.59290459
0.59086424
0.58908794
0.58755802
0.5862555
0.5851607
0.58425373
0.58351502
0.58292557
0.58246727
0.58212309
0.58187717
0.58171491
0.58162296
0.58158926
0.58160296
0.58165435
0.58173484
0.58183685
0.58195371
0.58207962
0.58220955
0.58233915
0.58246468
0.58258295
0.58269126
0.58278734
0.58286928
0.58293546
0.58298446
0.58301509
0.58302617
0.58301642
0.58298439
0.58292832
0.58284616
0.58273567
0.58259409
0.58241757
0.5822014
0.58194277
0.58164172
0.58129193
0.58087339
0.58038788
0.57989795
0.57937753
0.57850379
0.57733791
0.64939341
0.75925055
0.70383425
0.72389979
0.7072173
0.70688493
0.70006272
0.69517533
0.68959499
0.68395633
0.67814183
0.67220755
0.66617478
0.6600794
0.65395832
0.64785221
0.64180401
0.63585819
0.63005955
0.62445186
0.61907647
0.61397084
0.6091673
0.60469203
0.60056437
0.59679647
0.59339341
0.59035353
0.58766918
0.5853275
0.58331144
0.58160072
0.58017284
0.5790039
0.57806947
0.57734516
0.57680716
0.57643267
0.57620015
0.57608954
0.57608234
0.5761617
0.57631233
0.57652056
0.57677418
0.57706241
0.57737576
0.57770594
0.57804577
0.57838905
0.57873046
0.57906546
0.57939021
0.57970152
0.57999668
0.58027348
0.58053011
0.58076512
0.58097732
0.58116581
0.58132981
0.58146874
0.58158202
0.58166896
0.58172868
0.58175997
0.58176138
0.58173117
0.58166702
0.58156549
0.58142282
0.58123724
0.58100744
0.58072248
0.58036386
0.57995037
0.57955084
0.57909556
0.57824222
0.57713199
0.64677955
0.75272571
0.69835442
0.71617292
0.69973581
0.69783465
0.69052034
0.68464032
0.67820225
0.67168953
0.66502637
0.65827854
0.65148325
0.64469078
0.63795322
0.63132564
0.62486398
0.61862337
0.61265601
0.60700924
0.60172367
0.59683183
0.59235721
0.58831388
0.58470668
0.58153182
0.5787779
0.57642712
0.57445665
0.57283994
0.57154806
0.57055081
0.56981765
0.56931858
0.56902467
0.56890854
0.56894464
0.56910941
0.56938142
0.56974128
0.57017167
0.57065719
0.57118429
0.57174107
0.57231721
0.57290378
0.57349312
0.5740787
0.574655
0.5752174
0.57576204
0.57628575
0.57678596
0.57726061
0.57770807
0.5781271
0.57851674
0.57887633
0.57920541
0.5795037
0.57977106
0.58000745
0.58021284
0.58038709
0.58052987
0.58064054
0.58071819
0.58076155
0.58076861
0.58073646
0.5806626
0.58054639
0.58038469
0.58016238
0.57986404
0.57952277
0.57920658
0.57880833
0.57798187
0.57694681
0.64328826
0.74376058
0.69122464
0.70637987
0.69012626
0.68645108
0.67842173
0.67141634
0.66396391
0.65645378
0.64884881
0.64122971
0.6336561
0.6261981
0.61892659
0.6119122
0.605222
0.59891667
0.59304793
0.58765657
0.58277119
0.57840783
0.5745703
0.57125124
0.56843361
0.56609248
0.56419693
0.56271192
0.56159995
0.56082258
0.5603416
0.56011999
0.56012258
0.56031654
0.56067165
0.56116042
0.56175811
0.56244268
0.56319462
0.56399682
0.56483437
0.56569436
0.56656572
0.56743898
0.56830613
0.56916044
0.56999629
0.57080907
0.57159503
0.57235114
0.57307505
0.57376492
0.57441941
0.57503757
0.57561877
0.57616268
0.57666917
0.57713828
0.57757021
0.57796526
0.57832384
0.5786464
0.57893339
0.57918515
0.57940185
0.57958342
0.5797295
0.5798392
0.57991075
0.5799419
0.57993149
0.5798797
0.57978148
0.57961948
0.57938338
0.57911531
0.57887188
0.57851573
0.57771868
0.57678701
0.63863369
0.73233062
0.68201806
0.69395943
0.67781005
0.67217435
0.66316751
0.65488612
0.64626782
0.63765393
0.62905458
0.62057407
0.61230109
0.60432852
0.59674395
0.58962661
0.5830433
0.57704574
0.57166885
0.56693048
0.56283211
0.55936054
0.55649023
0.55418592
0.55240535
0.55110182
0.55022647
0.5497301
0.54956472
0.54968463
0.55004709
0.55061286
0.55134635
0.55221566
0.55319251
0.55425203
0.55537254
0.55653526
0.55772406
0.55892517
0.56012692
0.56131949
0.56249471
0.5636458
0.56476724
0.56585457
0.56690428
0.56791362
0.56888055
0.5698036
0.57068178
0.57151454
0.57230165
0.57304316
0.57373936
0.57439072
0.57499785
0.57556144
0.57608224
0.57656108
0.57699883
0.57739636
0.57775449
0.57807398
0.57835547
0.57859939
0.57880589
0.57897443
0.57910359
0.57919184
0.57923916
0.57924581
0.57920505
0.57910004
0.57892803
0.57873512
0.57855566
0.57822453
0.57745711
0.57666686
0.63245314
0.71949571
0.67017595
0.67832744
0.66207264
0.65428653
0.64399318
0.63426602
0.62436487
0.61461428
0.60508384
0.59590693
0.58719846
0.57906417
0.57159171
0.56484751
0.55887442
0.55369162
0.549296
0.54566503
0.54276031
0.54053155
0.53892047
0.53786434
0.53729902
0.53716135
0.53739087
0.53793112
0.53873031
0.53974168
0.54092358
0.5422393
0.54365684
0.5451485
0.54669051
0.54826264
0.54984775
0.55143147
0.55300181
0.55454886
0.55606454
0.55754229
0.55897688
0.56036425
0.56170127
0.56298567
0.56421585
0.56539083
0.56651009
0.56757357
0.56858151
0.56953444
0.57043314
0.57127853
0.57207168
0.57281376
0.57350601
0.57414967
0.574746
0.57529625
0.57580168
0.57626349
0.57668282
0.57706075
0.57739827
0.57769628
0.57795533
0.57817526
0.57835517
0.57849442
0.57859367
0.57865244
0.57866248
0.57860986
0.57850126
0.57838357
0.57826446
0.57795548
0.57722434
0.57657151
0.62442178
0.70267477
0.65487047
0.65860161
0.64187548
0.63173338
0.61987055
0.60859446
0.59744011
0.58672653
0.57657938
0.56714808
0.55854861
0.55086803
0.54415921
0.53844164
0.53370401
0.5299089
0.5269984
0.52490014
0.52353299
0.52281203
0.52265253
0.52297298
0.52369713
0.52475527
0.52608478
0.52763031
0.52934348
0.53118255
0.53311175
0.53510074
0.53712397
0.53916007
0.54119132
0.54320314
0.54518362
0.54712315
0.54901406
0.55085035
0.5526274
0.55434175
0.55599094
0.55757336
0.55908805
0.56053466
0.56191329
0.56322446
0.564469
0.565648
0.56676276
0.56781473
0.56880551
0.56973675
0.57061019
0.57142758
0.57219065
0.57290112
0.57356068
0.57417095
0.57473348
0.57524976
0.57572117
0.57614902
0.57653459
0.57687905
0.57718327
0.57744748
0.57767151
0.57785574
0.57800118
0.57810602
0.57816091
0.57815599
0.57810654
0.5780577
0.57799522
0.57772393
0.57706054
0.57650374
0.61389976
0.68090549
0.63471411
0.6333697
0.61574816
0.60313036
0.58962812
0.57696569
0.56492635
0.55380577
0.54374445
0.53486247
0.527225
0.52085038
0.51571308
0.51175194
0.50887914
0.50698949
0.50596885
0.50570112
0.5060736
0.50698064
0.50832591
0.51002349
0.51199805
0.51418456
0.51652753
0.51898008
0.52150303
0.52406385
0.52663574
0.52919685
0.53172946
0.53421936
0.53665529
0.53902843
0.54133202
0.54356101
0.54571173
0.5477817
0.54976941
0.55167413
0.55349579
0.55523483
0.55689216
0.55846902
0.55996692
0.5613876
0.562733
0.56400515
0.56520619
0.56633832
0.5674038
0.56840487
0.56934378
0.57022275
0.57104395
0.57180944
0.57252128
0.57318139
0.57379159
0.57435359
0.57486898
0.57533923
0.57576581
0.57615002
0.57649288
0.576795
0.577057
0.57728025
0.57746593
0.57761106
0.57770611
0.57774557
0.57775025
0.57775964
0.57774376
0.57751763
0.57694387
0.57647131
0.59973586
0.65208732
0.60779281
0.60087785
0.58208128
0.56709916
0.55237155
0.53901577
0.52699547
0.51652619
0.50767984
0.50047334
0.49485661
0.49073058
0.48796063
0.48639172
0.485861
0.48620789
0.48728115
0.48894315
0.49107205
0.49356226
0.49632385
0.49928129
0.50237192
0.50554426
0.50875641
0.51197457
0.51517169
0.51832635
0.52142173
0.52444486
0.52738586
0.53023738
0.53299417
0.53565263
0.53821055
0.54066679
0.54302113
0.54527404
0.54742657
0.54948022
0.55143684
0.55329858
0.55506778
0.55674695
0.55833873
0.55984582
0.56127098
0.56261701
0.56388669
0.5650828
0.56620809
0.56726526
0.56825697
0.56918579
0.5700542
0.57086459
0.57161927
0.57232044
0.57297013
0.57357026
0.57412258
0.57462876
0.57509034
0.57550866
0.57588478
0.57621955
0.57651429
0.57677102
0.57699086
0.5771703
0.57730122
0.57738287
0.57743837
0.57749724
0.57751562
0.57732739
0.57684864
0.57650668
0.57996583
0.61387694
0.57191366
0.55932197
0.53984361
0.52293085
0.50812033
0.49548615
0.48499507
0.47668982
0.47047311
0.46618573
0.46361722
0.46253431
0.46269997
0.46388842
0.46589428
0.46853715
0.47166285
0.47514233
0.47886946
0.48275812
0.48673925
0.49075806
0.4947715
0.49874607
0.50265602
0.50648179
0.51020882
0.51382648
0.51732731
0.52070631
0.5239605
0.52708841
0.53008981
0.53296541
0.53571668
0.53834565
0.54085478
0.54324687
0.54552497
0.54769229
0.54975217
0.55170802
0.55356329
0.55532146
0.55698598
0.55856029
0.56004777
0.56145176
0.56277553
0.56402228
0.56519513
0.56629711
0.56733118
0.56830016
0.5692068
0.5700537
0.57084339
0.57157826
0.57226056
0.57289236
0.57347564
0.57401219
0.57450367
0.57495143
0.57535656
0.5757201
0.5760437
0.57632948
0.5765781
0.57678612
0.57694819
0.57706867
0.5771708
0.57727208
0.57731819
0.57716806
0.57678896
0.57657464
0.55197772
0.56376928
0.52570085
0.50734421
0.48677407
0.47135519
0.4584239
0.44857818
0.4415537
0.43710823
0.43489652
0.43455629
0.43573109
0.43809567
0.44136646
0.44530518
0.44971702
0.45444599
0.45936936
0.46439187
0.46944048
0.4744599
0.47940876
0.48425658
0.48898133
0.49356751
0.49800465
0.5022861
0.50640817
0.51036939
0.51417
0.51781149
0.52129631
0.5246276
0.52780901
0.53084454
0.53373842
0.53649505
0.5391189
0.54161448
0.5439863
0.54623882
0.54837645
0.55040352
0.55232429
0.55414291
0.55586342
0.55748978
0.55902581
0.56047524
0.56184167
0.56312861
0.56433943
0.56547739
0.56654566
0.56754725
0.56848506
0.56936187
0.57018037
0.57094309
0.57165243
0.57231065
0.57291988
0.57348209
0.57399906
0.57447225
0.57490289
0.57529224
0.57564203
0.57595399
0.57622805
0.57646107
0.57665063
0.57680462
0.57694405
0.57707636
0.57714599
0.57704334
0.5767732
0.57666915
0.51166214
0.49919091
0.46209157
0.44426024
0.42689762
0.41474199
0.40646445
0.40185098
0.40024936
0.40107544
0.40376227
0.40782448
0.41286128
0.41855549
0.42466268
0.43099858
0.43742672
0.44384758
0.45018976
0.45640294
0.46245252
0.46831548
0.47397735
0.47942989
0.4846694
0.48969547
0.49451002
0.49911663
0.50352002
0.5077257
0.51173964
0.51556813
0.51921759
0.52269449
0.52600525
0.5291562
0.53215355
0.53500333
0.53771143
0.54028355
0.54272519
0.54504168
0.54723818
0.54931964
0.55129085
0.55315643
0.55492083
0.55658834
0.55816308
0.55964905
0.56105007
0.56236984
0.5636119
0.56477969
0.56587648
0.56690541
0.56786949
0.56877162
0.56961458
0.570401
0.5711334
0.57181416
0.57244554
0.57302966
0.57356843
0.57406352
0.5745164
0.57492866
0.57530205
0.5756379
0.57593577
0.57619327
0.57640992
0.57659388
0.57676053
0.57690989
0.57699537
0.57694563
0.57679737
0.57677674
0.45012547
0.41766975
0.38805933
0.37326922
0.36247199
0.35769103
0.35713047
0.35987448
0.36493467
0.37155381
0.37914844
0.38729549
0.39569562
0.40414254
0.41249719
0.42066818
0.42859748
0.43625015
0.44360709
0.45066
0.45740784
0.46385441
0.47000663
0.47587338
0.48146468
0.48679115
0.49186363
0.49669292
0.50128962
0.50566402
0.50982605
0.51378522
0.51755064
0.52113098
0.52453452
0.52776911
0.53084227
0.53376111
0.53653242
0.53916267
0.54165803
0.54402437
0.54626731
0.54839223
0.55040424
0.55230826
0.55410899
0.55581095
0.55741844
0.55893561
0.56036644
0.56171473
0.56298416
0.56417823
0.56530031
0.56635362
0.56734122
0.56826608
0.56913105
0.5699388
0.57069193
0.57139288
0.57204399
0.57264746
0.57320531
0.57371939
0.57419143
0.57462326
0.57501668
0.57537293
0.5756919
0.57597257
0.57621585
0.57642807
0.57661832
0.57678372
0.57689254
0.57690078
0.57683064
0.57684807
0.35471335
0.32132773
0.30376882
0.2993084
0.30069039
0.30693895
0.3160814
0.32685605
0.33839206
0.35013995
0.3617652
0.37307253
0.38395477
0.39435916
0.40426628
0.41367659
0.42260222
0.43106168
0.43907675
0.44667048
0.45386599
0.46068581
0.46715147
0.47328331
0.47910039
0.48462051
0.48986026
0.49483501
0.49955909
0.50404581
0.50830752
0.51235576
0.51620128
0.5198541
0.52332361
0.52661864
0.52974743
0.53271777
0.53553698
0.538212
0.54074938
0.54315531
0.54543569
0.54759612
0.54964193
0.55157819
0.55340976
0.55514127
0.55677713
0.55832159
0.55977871
0.56115235
0.56244626
0.56366398
0.56480895
0.56588441
0.56689347
0.56783915
0.5687243
0.56955166
0.57032384
0.57104332
0.57171246
0.5723335
0.57290849
0.5734394
0.5739281
0.57437645
0.57478619
0.57515856
0.57549405
0.57579298
0.5760571
0.57629079
0.57649833
0.57667583
0.576805
0.57686667
0.57688319
0.57695197
0.21601039
0.21473673
0.22010886
0.23347006
0.25072444
0.26905337
0.28725643
0.30468556
0.3211127
0.33647429
0.35079559
0.36413695
0.37657202
0.38817594
0.39902036
0.40917119
0.41868806
0.42762439
0.43602782
0.44394083
0.45140125
0.45844284
0.46509581
0.47138724
0.47734147
0.48298048
0.48832415
0.49339051
0.49819601
0.50275565
0.50708322
0.51119135
0.51509172
0.51879513
0.52231159
0.52565043
0.52882034
0.53182945
0.53468539
0.53739533
0.53996603
0.54240386
0.54471486
0.54690475
0.54897895
0.55094265
0.55280075
0.55455796
0.55621874
0.55778738
0.55926797
0.56066444
0.56198053
0.56321985
0.56438582
0.56548173
0.56651071
0.56747579
0.56837986
0.56922568
0.57001587
0.57075295
0.57143929
0.57207713
0.57266859
0.57321569
0.57372034
0.57418437
0.57460936
0.57499661
0.57534717
0.57566221
0.57594346
0.57619305
0.57641202
0.57659822
0.57674635
0.5768537
0.57693117
0.57700858
0.091704768
0.12152437
0.1588448
0.19239674
0.22244019
0.24888547
0.27235157
0.29330332
0.31215592
0.32923479
0.34480226
0.35906844
0.37220387
0.38434812
0.39561663
0.40610577
0.4158967
0.42505835
0.43364972
0.44172168
0.44931834
0.45647825
0.46323526
0.46961926
0.4756568
0.48137157
0.48678479
0.49191559
0.49678126
0.50139748
0.50577858
0.50993766
0.51388673
0.51763689
0.52119838
0.52458071
0.52779273
0.53084269
0.53373832
0.53648687
0.53909516
0.54156961
0.54391631
0.54614101
0.54824915
0.55024594
0.55213631
0.55392495
0.55561637
0.55721485
0.5587245
0.56014924
0.56149283
0.56275887
0.56395081
0.56507194
0.5661254
0.56711423
0.56804134
0.56890948
0.56972131
0.57047936
0.57118601
0.57184352
0.57245406
0.57301968
0.57354231
0.57402371
0.5744654
0.57486875
0.57523517
0.57556623
0.57586329
0.57612667
0.57635566
0.5765503
0.57671392
0.57685187
0.57696367
0.5770368
0.010770599
0.2969135
0.47056208
0.51807087
0.52771029
0.52822876
0.52791699
0.52904339
0.53052883
0.53200988
0.53348598
0.53492254
0.53633756
0.5377383
0.53913609
0.54054041
0.54195265
0.54337328
0.54480207
0.54623802
0.54767967
0.54912523
0.5505727
0.55201997
0.55346486
0.55490518
0.55633874
0.55776342
0.55917711
0.56057779
0.56196345
0.56333215
0.56468199
0.56601111
0.56731764
0.56859978
0.5698557
0.57108361
0.57228171
0.57344819
0.57458125
0.57567909
0.57673989
0.57776186
0.57874317
0.57968206
0.58057677
0.58142555
0.58222675
0.58297874
0.58367997
0.584329
0.58492448
0.58546518
0.58595003
0.58637813
0.58674885
0.58706178
0.58731688
0.58751411
0.58765331
0.58773466
0.5877585
0.58772515
0.58763386
0.58748536
0.58727621
0.58701415
0.58668352
0.5863213
0.58585385
0.58542289
0.584753
0.58431059
0.58329665
0.58300528
0.58142599
0.5814813
0.57933849
0.57970749
0.064867167
0.38441872
0.52065422
0.54544458
0.54628507
0.54448263
0.54363729
0.5437825
0.54398545
0.54428948
0.54468018
0.54523627
0.54591197
0.5466778
0.54750563
0.54839229
0.54933117
0.55031776
0.55134669
0.55241279
0.55351133
0.55463786
0.55578819
0.55695833
0.5581445
0.55934311
0.5605507
0.56176397
0.56297977
0.56419505
0.56540686
0.56661237
0.56780881
0.56899352
0.5701639
0.57131739
0.57245152
0.57356386
0.57465202
0.57571364
0.57674642
0.5777481
0.57871643
0.57964923
0.58054434
0.58139969
0.58221323
0.58298302
0.58370716
0.58438389
0.58501153
0.58558852
0.58611347
0.5865851
0.58700236
0.58736436
0.58767055
0.5879206
0.58811457
0.58825252
0.58833438
0.58836047
0.58833127
0.58824716
0.58810761
0.58791321
0.58766126
0.58735823
0.58699118
0.58659179
0.58609602
0.58562804
0.58494069
0.58445886
0.58344871
0.58310724
0.58153925
0.58155623
0.57939264
0.57978885
0.15014483
0.46500002
0.54012514
0.5527933
0.55144501
0.55052578
0.55051996
0.55107566
0.5514907
0.55201319
0.55251627
0.55308032
0.55366507
0.55429153
0.55495121
0.55564867
0.55638005
0.55714562
0.55794386
0.55877306
0.55963143
0.56051699
0.56142765
0.56236114
0.56331507
0.56428696
0.56527423
0.56627422
0.56728421
0.56830146
0.56932316
0.57034651
0.57136867
0.57238681
0.57339811
0.57439974
0.57538891
0.57636282
0.57731874
0.57825391
0.57916567
0.58005134
0.58090834
0.58173411
0.58252618
0.58328213
0.58399965
0.58467652
0.58531064
0.58590001
0.58644281
0.58693735
0.58738211
0.58777579
0.58811727
0.58840568
0.58864047
0.5888214
0.58894859
0.58902217
0.58904214
0.58900891
0.58892308
0.58878507
0.58859451
0.5883519
0.58805503
0.58770952
0.5873042
0.58686711
0.58634075
0.58583651
0.58512902
0.5846119
0.58359319
0.58321133
0.58164538
0.58163024
0.57944594
0.57986384
0.23228377
0.51176199
0.55372181
0.5611522
0.55851401
0.55874747
0.55880823
0.55940148
0.55967364
0.56012353
0.56049743
0.56095059
0.56140718
0.5618954
0.56240091
0.56293169
0.5634851
0.56406323
0.56466595
0.56529319
0.56594464
0.56661978
0.56731786
0.56803788
0.56877864
0.56953871
0.57031646
0.5711101
0.57191762
0.57273688
0.57356558
0.57440132
0.57524156
0.57608366
0.57692492
0.57776254
0.57859371
0.57941555
0.58022516
0.58101964
0.58179607
0.58255158
0.58328331
0.58398846
0.58466428
0.58530811
0.58591741
0.58648971
0.58702271
0.58751423
0.58796229
0.58836507
0.58872095