/*--------------------------------*- C++ -*----------------------------------*\
  =========                 |
  \\      /  F ield         | OpenFOAM: The Open Source CFD Toolbox
   \\    /   O peration     | Website:  https://openfoam.org
    \\  /    A nd           | Version:  12
     \\/     M anipulation  |
\*---------------------------------------------------------------------------*/
FoamFile
{
    format      ascii;
    class       surfaceScalarField;
    location    "0.128";
    object      phi;
}
// * * * * * * * * * * * * * * * * * * * * * * * * * * * * * * * * * * * * * //

dimensions      [1 0 -1 0 0 0 0];

internalField   nonuniform List<scalar> 
31760
(
-0.00063763652
-0.050817999
0.051455786
-0.0015981553
-0.06421129
0.065172071
-0.0025949132
-0.062859937
0.063860106
-0.0036105284
-0.068513672
0.069529278
-0.0046816599
-0.070189038
0.071260129
-0.0057811812
-0.074444781
0.075544293
-0.0069506086
-0.077370286
0.078539657
-0.0081592235
-0.081369521
0.082578097
-0.009428014
-0.084987801
0.086256534
-0.010755653
-0.089098767
0.090426352
-0.012138836
-0.093226739
0.094609859
-0.013589353
-0.097631564
0.099082018
-0.015101819
-0.10220045
0.10371285
-0.016684487
-0.10699536
0.10857796
-0.018336931
-0.11200509
0.11365746
-0.020063889
-0.11724626
0.11897314
-0.02186802
-0.12272691
0.12453095
-0.023752513
-0.12845845
0.13034284
-0.025720603
-0.13445185
0.13641983
-0.027775676
-0.14071838
0.14277333
-0.02992116
-0.1472704
0.14941574
-0.032160802
-0.15411986
0.15635934
-0.034498189
-0.16128031
0.16361751
-0.036937213
-0.16876545
0.17120427
-0.039480837
-0.17658977
0.17913316
-0.042133624
-0.18476737
0.18741989
-0.044899453
-0.19331445
0.19607998
-0.047781731
-0.2022476
0.20512954
-0.050783932
-0.21158372
0.21458555
-0.053910077
-0.22134086
0.22446659
-0.057163446
-0.23153794
0.23479084
-0.060547338
-0.24219476
0.24557813
-0.064064533
-0.25333279
0.25684941
-0.067718035
-0.26497315
0.26862603
-0.071509795
-0.27713993
0.280931
-0.075441426
-0.28985741
0.29378828
-0.079514206
-0.30315133
0.30722327
-0.083728556
-0.31704942
0.32126285
-0.088084227
-0.3315797
0.33593437
-0.092579838
-0.34677369
0.3512682
-0.097213316
-0.3626632
0.36729547
-0.10198116
-0.37928209
0.38404861
-0.10687867
-0.3966665
0.40156258
-0.11189996
-0.41485441
0.41987414
-0.11703721
-0.43388631
0.43902186
-0.12228118
-0.45380396
0.45904611
-0.12762024
-0.47465243
0.47998953
-0.13304137
-0.49647827
0.50189731
-0.13852901
-0.51933173
0.52481712
-0.14406477
-0.54326477
0.54879816
-0.14962758
-0.56833202
0.57389229
-0.15519387
-0.5945917
0.60015531
-0.16073626
-0.6221044
0.62764395
-0.16622378
-0.65093399
0.65641851
-0.17162196
-0.68114734
0.68654235
-0.17689094
-0.71281549
0.71808111
-0.18198669
-0.74601212
0.75110434
-0.18685989
-0.78081468
0.78568415
-0.19145424
-0.81730475
0.82189517
-0.19570762
-0.85556715
0.85981641
-0.19954997
-0.89569044
0.89952846
-0.2029034
-0.93776669
0.94111557
-0.20568048
-0.98189224
0.98466449
-0.20778377
-1.028167
1.0302652
-0.2091045
-1.0766935
1.0780086
-0.20952203
-1.127579
1.1279901
-0.2089008
-1.1809337
1.1803051
-0.2070963
-1.2368715
1.2350584
-0.20394273
-1.2955165
1.2923527
-0.19925376
-1.3569958
1.3522947
-0.19282683
-1.4214387
1.4149976
-0.18444067
-1.4889722
1.4805701
-0.17384004
-1.5597251
1.5491071
-0.16075649
-1.6338218
1.62072
-0.14487874
-1.7114085
1.6955119
-0.12593192
-1.7926297
1.7736639
-0.10331555
-1.8776663
1.8550318
-0.077329469
-1.9668507
1.9408366
-0.046053801
-2.0593084
2.0280185
-2.1584433
2.1235173
-0.00063357778
-0.05018454
-0.0015000441
-0.063345036
-0.0023934415
-0.061965694
-0.0033509587
-0.067556386
-0.004319371
-0.069220779
-0.0053650424
-0.07339928
-0.006425862
-0.076309597
-0.0075666757
-0.080228839
-0.0087333099
-0.083821278
-0.0099742786
-0.087857906
-0.011258226
-0.091942889
-0.012609593
-0.096280292
-0.014018402
-0.10079174
-0.01549373
-0.10552013
-0.017035771
-0.11046315
-0.018648679
-0.11563346
-0.020334651
-0.12104105
-0.022097459
-0.12669576
-0.02394033
-0.13260912
-0.025866849
-0.13879202
-0.02788068
-0.14525674
-0.029985078
-0.15201565
-0.032184153
-0.15908145
-0.034481594
-0.16646825
-0.036882198
-0.17418943
-0.039388775
-0.18226109
-0.042006017
-0.19069754
-0.044737653
-0.19951633
-0.04758796
-0.20873383
-0.050560502
-0.21836878
-0.053659346
-0.22843961
-0.056887812
-0.23896686
-0.060249189
-0.24997204
-0.063746445
-0.26147659
-0.067381987
-0.27350515
-0.071158116
-0.28608212
-0.075075977
-0.29923438
-0.079137048
-0.31298936
-0.083340647
-0.32737721
-0.087686338
-0.34242922
-0.092172485
-0.35817839
-0.096795951
-0.37466009
-0.10155233
-0.39191171
-0.10643651
-0.40997196
-0.11144138
-0.42888332
-0.11655831
-0.44868905
-0.12177704
-0.46943589
-0.12708489
-0.49117277
-0.13246753
-0.5139516
-0.13790835
-0.53782665
-0.14338794
-0.56285531
-0.14888421
-0.5890985
-0.15437193
-0.61661996
-0.15982278
-0.64548664
-0.16520467
-0.67576918
-0.17048133
-0.70754281
-0.17561233
-0.74088534
-0.1805522
-0.7758793
-0.18524968
-0.81261202
-0.18964796
-0.85117388
-0.19368302
-0.89166063
-0.19728346
-0.93417175
-0.20036906
-0.97881239
-0.2028515
-1.0256906
-0.20463105
-1.0749204
-0.20559847
-1.1266184
-0.20562849
-1.1809113
-0.20458667
-1.237922
-0.2023233
-1.2977899
-0.19867062
-1.3606601
-0.19344466
-1.4266782
-0.18643775
-1.4959947
-0.17742156
-1.5687589
-0.16614201
-1.6451209
-0.15233136
-1.7252402
-0.13568031
-1.8093021
-0.11582208
-1.8975471
-0.092613717
-1.9900867
-0.064955888
-2.0869806
-2.1897129
-0.00057270342
-0.049611759
-0.0013812311
-0.062536545
-0.0021866927
-0.061161183
-0.0030882906
-0.066654763
-0.00397903
-0.068330014
-0.0049559008
-0.072422401
-0.005934231
-0.075331266
-0.006995908
-0.079167173
-0.0080767318
-0.082740475
-0.0092302534
-0.086704414
-0.010423527
-0.090749658
-0.011680663
-0.095023206
-0.012992665
-0.099479798
-0.014367806
-0.10414506
-0.01580677
-0.10902427
-0.017313147
-0.11412718
-0.018890291
-0.11946402
-0.020541151
-0.12504503
-0.022270002
-0.13088042
-0.024079666
-0.13698252
-0.025974631
-0.14336196
-0.027958417
-0.15003207
-0.030034901
-0.1570052
-0.032208862
-0.16429455
-0.034483566
-0.17191503
-0.036864214
-0.17988077
-0.039354248
-0.18820788
-0.041958722
-0.19691227
-0.044681179
-0.20601183
-0.047526748
-0.21552372
-0.050498523
-0.22546839
-0.053600807
-0.23586519
-0.056837381
-0.24673615
-0.060210904
-0.25810382
-0.063724936
-0.26999195
-0.067381612
-0.28242636
-0.071183137
-0.29543387
-0.075129993
-0.30904361
-0.079223158
-0.32328527
-0.083462084
-0.33819163
-0.087844947
-0.35379699
-0.092369597
-0.37013704
-0.097032624
-0.38725043
-0.10182854
-0.40517795
-0.10675132
-0.4239626
-0.11179298
-0.44364963
-0.11694427
-0.46428701
-0.12219327
-0.48592636
-0.12752745
-0.50862022
-0.13293117
-0.53242594
-0.13838628
-0.55740343
-0.14387342
-0.58361484
-0.14936932
-0.61112779
-0.15484815
-0.64001181
-0.16028081
-0.67034081
-0.16563448
-0.70219374
-0.17087269
-0.73565206
-0.17595341
-0.77080384
-0.1808313
-0.80773974
-0.18545398
-0.84655714
-0.18976406
-0.88735682
-0.1936965
-0.93024589
-0.19717956
-0.97533618
-0.20013222
-1.0227451
-0.20246438
-1.0725957
-0.20407488
-1.1250158
-0.20485579
-1.1801388
-0.20468172
-1.2381052
-0.20341418
-1.2990676
-0.20090625
-1.3631796
-0.19698529
-1.4306124
-0.191469
-1.5015263
-0.18414439
-1.5761011
-0.174785
-1.6545005
-0.16313943
-1.7369083
-0.14892412
-1.8235415
-0.13185347
-1.9146445
-0.11163253
-2.0103371
-0.087616331
-2.1110166
-2.2172181
-0.00051641626
-0.049095282
-0.0012645192
-0.061788437
-0.001998516
-0.060426966
-0.0028472796
-0.065806007
-0.0036720727
-0.06750524
-0.0045823395
-0.07151216
-0.0054839786
-0.07442966
-0.0064724679
-0.078178723
-0.0074734624
-0.081739529
-0.0085464496
-0.085631481
-0.0096560834
-0.089640089
-0.010826713
-0.093852648
-0.012050347
-0.098256248
-0.013334272
-0.10286123
-0.014680175
-0.10767848
-0.016091825
-0.11271565
-0.01757253
-0.11798346
-0.019125671
-0.12349204
-0.020754729
-0.12925153
-0.022464055
-0.13527338
-0.024256825
-0.14156941
-0.026138102
-0.14815104
-0.0281118
-0.15503177
-0.030181906
-0.16222475
-0.032353576
-0.16974369
-0.034630759
-0.17760396
-0.03701849
-0.18582055
-0.039521102
-0.19441011
-0.042144035
-0.20338939
-0.044890633
-0.21277767
-0.047766006
-0.22259363
-0.050774492
-0.23285738
-0.053919758
-0.24359163
-0.05720565
-0.25481875
-0.060635538
-0.26656297
-0.064211836
-0.27885106
-0.067936715
-0.29171009
-0.071812041
-0.3051695
-0.075838119
-0.31926052
-0.080014945
-0.33401626
-0.084341873
-0.34947167
-0.088816186
-0.36566447
-0.093435045
-0.38263348
-0.098194055
-0.40042101
-0.10308727
-0.41907164
-0.10810818
-0.43863116
-0.1132471
-0.45915074
-0.1184951
-0.48068122
-0.12383942
-0.50327899
-0.12926645
-0.52700224
-0.13476057
-0.5519129
-0.14030322
-0.57807606
-0.14587421
-0.60556097
-0.15145074
-0.63443978
-0.15700582
-0.66479059
-0.16251116
-0.69669364
-0.1679334
-0.73023546
-0.17323578
-0.76550752
-0.17837724
-0.80260477
-0.18331142
-0.84162987
-0.18798669
-0.88268888
-0.19234514
-0.92589515
-0.19632246
-0.97136694
-0.19984615
-1.0192299
-0.20283557
-1.069615
-0.20520273
-1.1226578
-0.20684246
-1.1785087
-0.20764944
-1.2373085
-0.20749633
-1.2992318
-0.20625216
-1.364436
-0.20376506
-1.4331131
-0.19985903
-1.5054477
-0.19435559
-1.5816222
-0.18704063
-1.6618359
-0.17769085
-1.7462816
-0.1660551
-1.8352034
-0.1518726
-1.928857
-0.13482737
-2.0274137
-0.11449007
-2.1313766
-2.240804
-0.00046117725
-0.048634071
-0.0011621462
-0.061087502
-0.0018187655
-0.059770342
-0.0026113052
-0.0650135
-0.0033622341
-0.066754346
-0.0042148591
-0.070659579
-0.0050500345
-0.07359453
-0.0059731872
-0.077255624
-0.0069032581
-0.080809519
-0.0079034506
-0.084631356
-0.0089391013
-0.088604516
-0.010033267
-0.092758568
-0.011180102
-0.097109511
-0.012385789
-0.10165565
-0.013652728
-0.10641166
-0.014984021
-0.1113845
-0.016383435
-0.1165842
-0.017854748
-0.1220209
-0.019401665
-0.12770481
-0.021028218
-0.13364704
-0.022739129
-0.13985873
-0.024537751
-0.14635268
-0.026429604
-0.15314021
-0.028419275
-0.1602354
-0.030511291
-0.16765204
-0.032710927
-0.17540472
-0.035023394
-0.18350853
-0.037453626
-0.19198037
-0.040006546
-0.20083702
-0.042687351
-0.21009747
-0.045500908
-0.21978074
-0.04845168
-0.22990734
-0.051544016
-0.2405001
-0.054782254
-0.2515814
-0.058169544
-0.26317667
-0.061708953
-0.27531274
-0.065402968
-0.28801727
-0.069253476
-0.30132031
-0.073261211
-0.31525423
-0.077426546
-0.32985252
-0.081748419
-0.34515153
-0.086225639
-0.36118915
-0.090854905
-0.37800629
-0.095632518
-0.39564566
-0.100554
-0.41415261
-0.10561237
-0.43357546
-0.11080038
-0.45396562
-0.1161089
-0.47537583
-0.12152721
-0.49786407
-0.12704375
-0.52148937
-0.13264403
-0.54631659
-0.13831259
-0.57241179
-0.14403138
-0.59984682
-0.14978006
-0.62869612
-0.15553626
-0.65903983
-0.16127419
-0.69096159
-0.16696464
-0.72455137
-0.17257626
-0.75990277
-0.17807239
-0.797116
-0.18341305
-0.8362971
-0.18855242
-0.87755792
-0.1934399
-0.92101658
-0.19801837
-0.96679784
-0.20222446
-1.0150336
-0.20598704
-1.0658627
-0.2092254
-1.1194301
-0.21185439
-1.1758909
-0.21376871
-1.2354059
-0.21486883
-1.2981442
-0.21502299
-1.3642953
-0.21410473
-1.4340461
-0.21196106
-1.5076076
-0.20842423
-1.5851773
-0.2033084
-1.6669729
-0.19640795
-1.7532064
-0.18750063
-1.8441384
-0.17636092
-1.9400291
-0.16268121
-2.0411267
-0.14613569
-2.1479482
-2.2602957
-0.0004114623
-0.04822258
-0.0010716047
-0.060427394
-0.0016656937
-0.059176285
-0.0024004447
-0.064278788
-0.003075543
-0.066079282
-0.0038768759
-0.069858293
-0.0046453664
-0.072826091
-0.0055090962
-0.076391954
-0.0063758017
-0.079942882
-0.007314475
-0.083692759
-0.0082900281
-0.087629051
-0.0093220623
-0.09172663
-0.010407
-0.096024684
-0.011549502
-0.10051327
-0.012752408
-0.10520889
-0.014019574
-0.11011748
-0.015354512
-0.11524943
-0.016761094
-0.12061451
-0.018243825
-0.12622229
-0.019806695
-0.13208441
-0.021454801
-0.13821089
-0.023192952
-0.14461481
-0.025026289
-0.1513072
-0.026959909
-0.15830214
-0.028999418
-0.16561292
-0.031150616
-0.17325396
-0.033418224
-0.18124141
-0.035808529
-0.1895906
-0.038326809
-0.19831933
-0.040978418
-0.20744651
-0.043768918
-0.21699096
-0.046702857
-0.2269742
-0.049785595
-0.23741825
-0.053020399
-0.24834757
-0.056411743
-0.2597864
-0.059962929
-0.27176273
-0.063676133
-0.28430537
-0.067553315
-0.29744455
-0.071596007
-0.31121311
-0.075804264
-0.32564598
-0.080177975
-0.3407797
-0.08471514
-0.35665404
-0.089414037
-0.37330963
-0.094271432
-0.39079071
-0.09928228
-0.40914442
-0.10444152
-0.42841912
-0.10974341
-0.44866686
-0.11517914
-0.4699435
-0.12074078
-0.49230613
-0.12641695
-0.5158172
-0.13219705
-0.54054083
-0.13806712
-0.56654643
-0.14401214
-0.59390692
-0.15001502
-0.62269879
-0.15605646
-0.65300442
-0.16211472
-0.68490987
-0.1681661
-0.71850708
-0.17418258
-0.75389396
-0.18013374
-0.79117313
-0.18598457
-0.83045517
-0.19169691
-0.87185509
-0.19722677
-0.91549684
-0.20252532
-0.96151
-0.20753741
-1.0100328
-0.21220126
-1.0612107
-0.21644756
-1.1151962
-0.22019905
-1.1721524
-0.22337196
-1.2322467
-0.22586526
-1.2956654
-0.22757964
-1.3625963
-0.22839261
-1.4332496
-0.22817416
-1.5078439
-0.22677673
-1.5865945
-0.22403315
-1.6697388
-0.21976096
-1.7575041
-0.21376892
-1.8501599
-0.2058479
-1.9479847
-0.19573234
-2.0512775
-0.18315117
-2.1605583
-2.275487
-0.00036899231
-0.047853568
-0.00099837621
-0.059798049
-0.0015378332
-0.058636848
-0.0022254295
-0.063591235
-0.0028413758
-0.065463379
-0.0035949251
-0.069104798
-0.0043075137
-0.072113565
-0.0051101503
-0.075589386
-0.0059351328
-0.079117979
-0.0068277098
-0.082800268
-0.0077573093
-0.086699551
-0.0087398366
-0.090744211
-0.0097749467
-0.094989697
-0.010866669
-0.099421683
-0.012019072
-0.10405664
-0.01323564
-0.10890108
-0.014521239
-0.11396402
-0.015879961
-0.11925599
-0.017316613
-0.12478587
-0.018836585
-0.13056469
-0.020444482
-0.13660328
-0.022146503
-0.14291311
-0.023947859
-0.14950619
-0.02585423
-0.15639615
-0.027871963
-0.16359562
-0.03000668
-0.17111972
-0.032265253
-0.17898336
-0.034653219
-0.18720322
-0.037176289
-0.19579691
-0.039841041
-0.20478248
-0.042652454
-0.21418034
-0.045616087
-0.22401144
-0.048736588
-0.23429871
-0.052019044
-0.24506617
-0.055466483
-0.25634012
-0.059082547
-0.26814795
-0.062870322
-0.280519
-0.06683147
-0.29348495
-0.070967092
-0.30707918
-0.075277816
-0.32133711
-0.079763586
-0.33629596
-0.084423134
-0.35199672
-0.089254895
-0.3684803
-0.094255705
-0.38579254
-0.099422645
-0.40398036
-0.10475117
-0.42309372
-0.11023583
-0.44318561
-0.11587112
-0.46431191
-0.12164906
-0.4865322
-0.12756226
-0.50990837
-0.13360066
-0.53450716
-0.13975392
-0.56039832
-0.14601034
-0.58765609
-0.15235578
-0.61635943
-0.15877511
-0.64659171
-0.1652505
-0.6784417
-0.17176268
-0.71200274
-0.17828923
-0.7473759
-0.18480485
-0.78466669
-0.19128158
-0.82398835
-0.19768677
-0.86546052
-0.20398463
-0.90921035
-0.21013393
-0.95537278
-0.21608876
-1.0040908
-0.22179724
-1.0555157
-0.22720032
-1.1098074
-0.23223251
-1.1671352
-0.23682137
-1.2276737
-0.24088244
-1.2916211
-0.24432502
-1.3591716
-0.24705192
-1.4305417
-0.24894667
-1.5059694
-0.24987951
-1.5856837
-0.24971155
-1.6699313
-0.2482766
-1.7589667
-0.24540795
-1.8530602
-0.24093085
-1.9524987
-0.23460615
-2.0576393
-0.22620533
-2.1689908
-2.2861448
-0.00032583517
-0.04752772
-0.00092970997
-0.059194218
-0.0014199379
-0.058146651
-0.0020617606
-0.062949462
-0.0026334526
-0.064891738
-0.0033589984
-0.068379315
-0.0040386328
-0.071433999
-0.0048261995
-0.074801896
-0.0056118657
-0.0783324
-0.0064583856
-0.081953843
-0.0073458018
-0.085812244
-0.0082855267
-0.089804604
-0.0092801054
-0.093995253
-0.010332954
-0.098368982
-0.011448528
-0.10294124
-0.012631398
-0.10771839
-0.013885531
-0.11271009
-0.015216898
-0.11792485
-0.016630331
-0.12337269
-0.018131496
-0.12906381
-0.019726229
-0.13500885
-0.021420522
-0.14121916
-0.023220673
-0.14770642
-0.025133903
-0.15448334
-0.027165671
-0.16156432
-0.029323435
-0.16896247
-0.031613311
-0.17669406
-0.034042097
-0.18477507
-0.036616268
-0.19322344
-0.039341846
-0.20205767
-0.042224519
-0.21129852
-0.045269985
-0.22096692
-0.048483324
-0.23108641
-0.051868545
-0.2416821
-0.05542984
-0.25278009
-0.059170672
-0.2644085
-0.063093186
-0.27659801
-0.067199611
-0.2893802
-0.071491265
-0.30278936
-0.075968708
-0.31686167
-0.08063178
-0.33163508
-0.085480481
-0.34715041
-0.090512747
-0.36345065
-0.095727035
-0.3805811
-0.10112088
-0.39858961
-0.10669099
-0.41752699
-0.11243379
-0.43744648
-0.118345
-0.4584047
-0.12441946
-0.48046209
-0.13065136
-0.5036812
-0.13703434
-0.52812932
-0.14356027
-0.55387798
-0.15022075
-0.58100171
-0.15700566
-0.60958117
-0.16390387
-0.63970073
-0.17090259
-0.67145086
-0.17798659
-0.70492733
-0.18513915
-0.74023266
-0.19234115
-0.7774748
-0.19957051
-0.81676992
-0.20680215
-0.85824065
-0.21400751
-0.90201761
-0.22115378
-0.94824
-0.22820434
-0.99705458
-0.23511654
-1.0486188
-0.2418433
-1.1030968
-0.24833025
-1.1606655
-0.25451536
-1.2215068
-0.2603322
-1.2858237
-0.26570809
-1.3538164
-0.27054971
-1.4257221
-0.27477076
-1.5017719
-0.27825701
-1.5822228
-0.28088866
-1.6673273
-0.28252771
-1.7573581
-0.28303301
-1.8525895
-0.28225064
-1.953321
-0.27997886
-2.0599507
-0.27603467
-2.1729701
-2.2919962
-0.00028384186
-0.047243873
-0.00086856376
-0.058609542
-0.0013178247
-0.057697425
-0.0019362847
-0.062331057
-0.0024851714
-0.064342908
-0.0031893342
-0.067675219
-0.0038414827
-0.070781925
-0.00460477
-0.074038694
-0.005360403
-0.077576863
-0.006174713
-0.081139638
-0.0070352851
-0.084951791
-0.0079487821
-0.088891237
-0.00892011
-0.093024073
-0.0099526696
-0.097336584
-0.011051542
-0.10184255
-0.012221547
-0.10654859
-0.013468352
-0.11146351
-0.014797359
-0.11659609
-0.016214575
-0.12195575
-0.01772676
-0.12755193
-0.019339942
-0.13339601
-0.021061628
-0.13949785
-0.022898176
-0.14587029
-0.024856947
-0.15252503
-0.026945492
-0.15947629
-0.029170554
-0.16673797
-0.031539624
-0.17432561
-0.034059516
-0.18225586
-0.036736619
-0.19054709
-0.039577675
-0.19921746
-0.042588684
-0.20828844
-0.045774638
-0.21778199
-0.049140352
-0.22772182
-0.05269057
-0.23813312
-0.056428908
-0.24904311
-0.060358083
-0.26048083
-0.064480943
-0.27247679
-0.068799334
-0.28506361
-0.073314289
-0.29827638
-0.078026887
-0.31215123
-0.082937142
-0.32672719
-0.088044747
-0.34204538
-0.093349453
-0.35814875
-0.098850633
-0.37508298
-0.10454664
-0.39289695
-0.11043607
-0.41164119
-0.1165169
-0.43136961
-0.12278695
-0.45213894
-0.12924375
-0.47400997
-0.1358838
-0.49704624
-0.14270381
-0.52131487
-0.14969949
-0.54688834
-0.15686562
-0.57384219
-0.16419667
-0.60225732
-0.17168545
-0.63221981
-0.179324
-0.66382087
-0.1871022
-0.69715848
-0.19500958
-0.73233544
-0.20303254
-0.76946288
-0.21115567
-0.80865875
-0.2193615
-0.85004774
-0.22762923
-0.89376378
-0.23593499
-0.93994918
-0.24425052
-0.98875503
-0.25254482
-1.0403415
-0.26078069
-1.0948792
-0.2689173
-1.1525483
-0.27690452
-1.2135404
-0.28469058
-1.2780599
-0.29221134
-1.3463195
-0.29940337
-1.4185556
-0.30618911
-1.4950134
-0.31248188
-1.5759593
-0.3181767
-1.6616642
-0.32316148
-1.7524079
-0.32731939
-1.8484705
-0.33051922
-1.9501652
-0.33260862
-2.057904
-0.33342677
-2.1721909
-2.2927245
-0.00024580569
-0.046998069
-0.00081958187
-0.058035817
-0.001239113
-0.057277936
-0.0018822369
-0.061687993
-0.0024164325
-0.063808776
-0.0030956695
-0.066996057
-0.0037251635
-0.070152516
-0.0044467997
-0.073317149
-0.0051892747
-0.076834494
-0.0059882089
-0.080340819
-0.0068391869
-0.084100944
-0.0077449713
-0.087985595
-0.0087127297
-0.092056476
-0.0097463757
-0.096303114
-0.010851675
-0.10073745
-0.012034377
-0.1053661
-0.013300723
-0.11019741
-0.014657386
-0.1152397
-0.01611115
-0.12050228
-0.01766871
-0.1259947
-0.019338667
-0.13172642
-0.021127446
-0.13770948
-0.023043879
-0.14395431
-0.025095203
-0.15047421
-0.0272892
-0.15728285
-0.029633902
-0.16439389
-0.032136643
-0.17182355
-0.034804322
-0.17958893
-0.037644257
-0.18770799
-0.040662344
-0.19620028
-0.043864086
-0.2050877
-0.047255051
-0.21439213
-0.050839585
-0.2241385
-0.054621806
-0.23435224
-0.05860493
-0.24506146
-0.062791708
-0.25629566
-0.067184324
-0.26808595
-0.07178444
-0.28046542
-0.076593767
-0.29346917
-0.081612955
-0.30713436
-0.08684289
-0.32149978
-0.092284318
-0.33660671
-0.097937687
-0.35249839
-0.10380297
-0.36922097
-0.10988099
-0.38682251
-0.11617219
-0.40535387
-0.12267652
-0.42486951
-0.12939437
-0.44542571
-0.13632589
-0.46708347
-0.14347127
-0.48990635
-0.15082971
-0.5139624
-0.1584014
-0.53932316
-0.16618486
-0.56606584
-0.17417858
-0.59427138
-0.18238054
-0.62402635
-0.19078748
-0.6554232
-0.19939561
-0.68856048
-0.20819934
-0.72354273
-0.2171923
-0.76048193
-0.22636625
-0.79949782
-0.2357104
-0.8407177
-0.24521271
-0.88427671
-0.254858
-0.93032031
-0.26462858
-0.97900213
-0.2745027
-1.0304864
-0.28445523
-1.084947
-0.29445631
-1.1425691
-0.3044725
-1.2035477
-0.31446224
-1.2680954
-0.32438173
-1.3364272
-0.33418307
-1.4087836
-0.34380215
-1.4854259
-0.35317762
-1.5666178
-0.36222933
-1.652649
-0.37086898
-1.7438078
-0.37899584
-1.8403877
-0.38651178
-1.9426983
-0.39329568
-2.0511671
-0.39923884
-2.1662925
-2.2879699
-0.00021198792
-0.046786089
-0.00078645909
-0.057461402
-0.0011832144
-0.056881229
-0.0018435644
-0.061027709
-0.0023560569
-0.063296355
-0.0030265154
-0.06632568
-0.0036495752
-0.069529548
-0.004366513
-0.072600313
-0.005111785
-0.076089337
-0.0059112129
-0.079541516
-0.0067700986
-0.083242201
-0.0076885077
-0.087067341
-0.0086749485
-0.091070211
-0.0097342219
-0.095244033
-0.010873002
-0.099598883
-0.01209799
-0.10414135
-0.013416358
-0.10887931
-0.014835419
-0.11382093
-0.016363584
-0.11897445
-0.018008745
-0.1243499
-0.019779138
-0.12995643
-0.021683629
-0.13580543
-0.023730311
-0.14190813
-0.025927831
-0.14827724
-0.028284842
-0.15492644
-0.030808671
-0.16187073
-0.03350708
-0.16912588
-0.036387281
-0.17670955
-0.03945595
-0.18464022
-0.04271824
-0.19293898
-0.046180498
-0.20162653
-0.049846501
-0.21072732
-0.053720952
-0.22026537
-0.057806556
-0.23026808
-0.062106066
-0.24076353
-0.066622355
-0.25178111
-0.071357288
-0.26335291
-0.076312348
-0.27551244
-0.081489223
-0.28829456
-0.086889678
-0.30173638
-0.092515183
-0.31587697
-0.098367493
-0.33075734
-0.10444823
-0.34642086
-0.11075995
-0.36291275
-0.11730495
-0.38028132
-0.12408555
-0.39857742
-0.13110535
-0.41785424
-0.13836679
-0.43816921
-0.1458738
-0.45958183
-0.15362967
-0.48215635
-0.16163816
-0.5059603
-0.16990213
-0.53106619
-0.17842535
-0.55755026
-0.1872111
-0.58549398
-0.19626189
-0.61498469
-0.20558013
-0.64611495
-0.2151679
-0.67898361
-0.22502596
-0.71369657
-0.23515442
-0.75036644
-0.24555203
-0.78911432
-0.25621727
-0.83006778
-0.26714546
-0.87336514
-0.27833106
-0.9191527
-0.2897662
-0.96758641
-0.30144037
-1.0188332
-0.31334023
-1.0730697
-0.32544931
-1.1304844
-0.33774524
-1.1912781
-0.3502062
-1.255663
-0.36280186
-1.3238625
-0.375495
-1.3961239
-0.38825603
-1.4727011
-0.4010325
-1.5538805
-0.41376987
-1.6399537
-0.42640159
-1.7312216
-0.43886332
-1.8279765
-0.45106546
-1.9305512
-0.46292978
-2.0393557
-0.47439645
-2.1548785
-2.2773055
-0.0001907297
-0.046595376
-0.00078453586
-0.056867656
-0.0011774741
-0.056488346
-0.0018301345
-0.060375122
-0.0023355828
-0.062790986
-0.0030118895
-0.065649463
-0.0036500483
-0.068891491
-0.0043737205
-0.071876751
-0.005140785
-0.075322399
-0.005961699
-0.078720739
-0.0068502066
-0.08235385
-0.0078054592
-0.086112258
-0.0088370447
-0.090038818
-0.0099510127
-0.094130275
-0.011155079
-0.098395053
-0.012457109
-0.10283958
-0.013865536
-0.10747117
-0.015389158
-0.11229763
-0.017036578
-0.11732738
-0.018817696
-0.12256918
-0.02074127
-0.1280333
-0.022816902
-0.13373028
-0.02505335
-0.13967222
-0.027459632
-0.14587155
-0.030044184
-0.15234255
-0.032814974
-0.15910066
-0.035778919
-0.16616273
-0.038943049
-0.1735463
-0.042312722
-0.18127151
-0.045893833
-0.18935894
-0.049690093
-0.19783144
-0.053705558
-0.20671315
-0.057943453
-0.21602889
-0.06240628
-0.2258068
-0.067096441
-0.23607507
-0.072016105
-0.2468633
-0.077166904
-0.25820414
-0.082551246
-0.27013031
-0.088171021
-0.2826772
-0.094028909
-0.29588113
-0.10012776
-0.309781
-0.1064709
-0.32441734
-0.11306245
-0.33983272
-0.11990662
-0.3560723
-0.12700823
-0.37318377
-0.13437316
-0.39121691
-0.1420072
-0.41022502
-0.14991693
-0.43026472
-0.15810904
-0.45139545
-0.16659098
-0.47368067
-0.17537022
-0.4971879
-0.18445518
-0.5219887
-0.19385353
-0.54816008
-0.20357357
-0.57578287
-0.21362307
-0.60494499
-0.22401081
-0.63573791
-0.23474405
-0.66826209
-0.24583055
-0.70262288
-0.25727765
-0.73893332
-0.26909221
-0.77731501
-0.28127986
-0.81789674
-0.29384584
-0.86081722
-0.30679403
-0.90622412
-0.32012689
-0.95427484
-0.33384552
-1.0051376
-0.34794869
-1.0589916
-0.36243263
-1.1160276
-0.37729059
-1.1764496
-0.39251656
-1.240469
-0.40809206
-1.3083218
-0.42400699
-1.3802469
-0.4402376
-1.4565118
-0.45676399
-1.5373989
-0.47355792
-1.6232082
-0.49057515
-1.714257
-0.50776868
-1.8108409
-0.52507861
-1.9133036
-0.54246129
-2.0220339
-0.55989571
-2.1375073
-2.2602429
-0.00017227273
-0.046423125
-0.00079475222
-0.056245241
-0.0011943816
-0.056088778
-0.001858314
-0.059711267
-0.0023765085
-0.062272877
-0.0030674502
-0.064958618
-0.003736143
-0.068222908
-0.0044834928
-0.071129521
-0.0052907354
-0.074515293
-0.0061556542
-0.077855968
-0.0070979648
-0.081411708
-0.0081175699
-0.085092837
-0.0092248021
-0.088931794
-0.010427356
-0.092927949
-0.011734274
-0.097088393
-0.013154856
-0.10141928
-0.014698833
-0.10592751
-0.016376275
-0.11062054
-0.018197422
-0.11550663
-0.02017216
-0.12059487
-0.022310854
-0.12589508
-0.024623045
-0.13141862
-0.027117869
-0.13717798
-0.02980444
-0.14318562
-0.032690462
-0.14945724
-0.035783144
-0.15600876
-0.039089609
-0.16285714
-0.042614635
-0.17002222
-0.046363365
-0.17752383
-0.05033964
-0.18538382
-0.054546805
-0.19362554
-0.058987834
-0.2022735
-0.06366404
-0.21135419
-0.068578615
-0.22089388
-0.073732961
-0.23092253
-0.079129011
-0.24146922
-0.084769646
-0.25256566
-0.090657142
-0.26424517
-0.096795689
-0.27654122
-0.10318907
-0.28949054
-0.10984196
-0.30313117
-0.11675989
-0.31750273
-0.1239496
-0.33264664
-0.131418
-0.34860785
-0.13917317
-0.3654329
-0.14722407
-0.38317069
-0.15558004
-0.40187417
-0.16425123
-0.4215991
-0.17324883
-0.44240394
-0.18258403
-0.46435211
-0.19226923
-0.48750997
-0.2023163
-0.51194959
-0.21273915
-0.53774595
-0.22355063
-0.56498093
-0.23476514
-0.59374094
-0.24639615
-0.62411836
-0.25845865
-0.65621214
-0.27096691
-0.69012836
-0.28393543
-0.72597983
-0.29737963
-0.76388724
-0.31131344
-0.80398088
-0.32575152
-0.84639871
-0.34070811
-0.89128887
-0.35619664
-0.93880956
-0.37222941
-0.98913016
-0.38881845
-1.0424301
-0.40597434
-1.0989017
-0.42370675
-1.1587499
-0.44201968
-1.2221918
-0.4609194
-1.2894611
-0.48040792
-1.3608011
-0.50048823
-1.4364783
-0.5211586
-1.5167796
-0.54241038
-1.6020118
-0.5642388
-1.6924892
-0.58661288
-1.7885333
-0.6095093
-1.8904779
-0.63289557
-1.998719
-0.65679585
-2.113684
-2.2362299
-0.00015830709
-0.046264847
-0.00082271165
-0.055580907
-0.0012361367
-0.055675421
-0.0019301324
-0.059017356
-0.0024786259
-0.061724478
-0.003198312
-0.064239038
-0.0039179297
-0.067503411
-0.0047100535
-0.070337527
-0.0055803808
-0.073645115
-0.0065164196
-0.07692009
-0.0075418202
-0.080386492
-0.008658677
-0.08397618
-0.0098783827
-0.087712316
-0.011210698
-0.091595882
-0.012666192
-0.09563318
-0.014255909
-0.099829873
-0.015990963
-0.1041928
-0.017882547
-0.10872933
-0.019941743
-0.11344785
-0.022179295
-0.11835779
-0.02460525
-0.12346965
-0.027229462
-0.12879498
-0.030061038
-0.13434704
-0.033107416
-0.14013994
-0.036376033
-0.14618939
-0.039872767
-0.15251288
-0.043602405
-0.15912843
-0.047569207
-0.16605645
-0.051776252
-0.17331791
-0.056225841
-0.18093546
-0.060919702
-0.18893303
-0.06585991
-0.19733477
-0.071047909
-0.20616781
-0.076485463
-0.21545809
-0.082175067
-0.22523485
-0.088119407
-0.23552698
-0.094321973
-0.24636538
-0.10078788
-0.25778176
-0.10752152
-0.26981029
-0.11453001
-0.28248501
-0.12182025
-0.29584415
-0.12940161
-0.30992487
-0.13728255
-0.32476951
-0.14547393
-0.34042064
-0.15398774
-0.35692363
-0.16283567
-0.37432771
-0.17203143
-0.39268381
-0.1815895
-0.41204693
-0.19152464
-0.43247525
-0.20185322
-0.45403059
-0.21259155
-0.47677935
-0.223758
-0.5007916
-0.23537008
-0.52614314
-0.24744702
-0.55291415
-0.26000905
-0.58119006
-0.27307645
-0.61106319
-0.28667016
-0.64263185
-0.30081282
-0.67600042
-0.31552675
-0.71128203
-0.33083468
-0.74859698
-0.34676066
-0.78807424
-0.36332926
-0.82985129
-0.380565
-0.87407629
-0.39849231
-0.92090758
-0.41713726
-0.9705129
-0.43652462
-1.023073
-0.45667915
-1.0787803
-0.47762529
-1.13784
-0.49938548
-1.2004713
-0.52198524
-1.2669049
-0.54544488
-1.3373893
-0.56978442
-1.4121913
-0.59502677
-1.4915948
-0.62119672
-1.575905
-0.64830595
-1.6654494
-0.67635986
-1.7605557
-0.70535711
-1.8615609
-0.73530791
-1.9688512
-0.76622332
-2.0828624
-2.2046448
-0.00015035336
-0.046114528
-0.00087552981
-0.054855803
-0.0013080677
-0.055242956
-0.0020458925
-0.058279621
-0.002645381
-0.061125091
-0.0034117805
-0.063472751
-0.0042053546
-0.066709965
-0.0050671012
-0.069475921
-0.0060261855
-0.072686191
-0.0070646833
-0.075881767
-0.0082083175
-0.079243056
-0.0094627503
-0.082721965
-0.010840869
-0.086334443
-0.012354471
-0.09008255
-0.01401592
-0.093972036
-0.015837522
-0.098008606
-0.017831555
-0.10219914
-0.020009849
-0.10655145
-0.022383862
-0.1110743
-0.024964264
-0.11577789
-0.027761022
-0.12067345
-0.030782725
-0.1257739
-0.034036902
-0.13109355
-0.037530262
-0.13664734
-0.041267433
-0.14245305
-0.045252697
-0.14852853
-0.049488204
-0.15489393
-0.053976088
-0.16156966
-0.058717747
-0.16857746
-0.063713881
-0.17594064
-0.068965752
-0.18368259
-0.07447422
-0.19182787
-0.080241457
-0.20040228
-0.08626967
-0.20943174
-0.092562723
-0.21894383
-0.099124568
-0.22896735
-0.10596145
-0.23953091
-0.11307958
-0.25066625
-0.12048797
-0.26240476
-0.1281951
-0.274781
-0.13621267
-0.28782996
-0.14455131
-0.30158992
-0.15322476
-0.31610009
-0.16224744
-0.33140233
-0.17163421
-0.34754165
-0.18140164
-0.3645655
-0.19156734
-0.38252381
-0.20214984
-0.40147065
-0.21316908
-0.42146283
-0.22464533