/*--------------------------------*- C++ -*----------------------------------*\
  =========                 |
  \\      /  F ield         | OpenFOAM: The Open Source CFD Toolbox
   \\    /   O peration     | Website:  https://openfoam.org
    \\  /    A nd           | Version:  12
     \\/     M anipulation  |
\*---------------------------------------------------------------------------*/
FoamFile
{
    format      ascii;
    class       volScalarField;
    location    "0.128";
    object      rho;
}
// * * * * * * * * * * * * * * * * * * * * * * * * * * * * * * * * * * * * * //

dimensions      [1 -3 0 0 0 0 0];

internalField   nonuniform List<scalar> 
16000
(
1.0584455
1.0909871
1.0789578
1.0871372
1.0833192
1.0867402
1.0857683
1.0875812
1.0877295
1.0889328
1.0895816
1.0905918
1.091466
1.0924588
1.0934508
1.0944947
1.0955707
1.0966865
1.0978401
1.0990327
1.100264
1.1015341
1.1028428
1.1041897
1.105574
1.1069951
1.1084516
1.1099422
1.1114653
1.1130188
1.1146006
1.1162081
1.1178385
1.1194888
1.1211555
1.1228351
1.1245238
1.1262176
1.1279125
1.1296042
1.1312883
1.1329606
1.1346169
1.1362529
1.1378646
1.1394482
1.1409999
1.1425163
1.1439943
1.1454312
1.1468243
1.1481715
1.1494711
1.1507215
1.1519216
1.1530704
1.1541675
1.1552124
1.1562052
1.1571457
1.1580343
1.1588712
1.1596569
1.1603921
1.1610771
1.1617126
1.1622992
1.1628376
1.163329
1.1637748
1.1641761
1.1645336
1.1648468
1.1651142
1.1653342
1.165511
1.1656593
1.1656526
1.1660168
1.1652875
1.055213
1.0882684
1.0755765
1.0843638
1.0803195
1.0840066
1.0829339
1.0849166
1.0850582
1.0863628
1.0870631
1.0881482
1.0890961
1.090163
1.0912353
1.0923601
1.093521
1.094724
1.0959679
1.0972532
1.0985798
1.0999473
1.1013554
1.1028034
1.1042901
1.1058145
1.1073749
1.1089695
1.1105961
1.1122524
1.1139356
1.1156425
1.11737
1.1191142
1.1208714
1.1226374
1.124408
1.1261787
1.127945
1.1297023
1.1314459
1.1331715
1.1348747
1.1365511
1.1381968
1.139808
1.1413813
1.1429137
1.1444022
1.1458445
1.1472387
1.1485829
1.149876
1.1511169
1.1523051
1.1534401
1.1545219
1.1555506
1.1565265
1.15745
1.1583217
1.159142
1.1599118
1.1606317
1.1613023
1.1619243
1.1624982
1.1630246
1.1635044
1.163939
1.1643296
1.164677
1.1649811
1.1652402
1.1654535
1.1656249
1.1657426
1.1658118
1.1659913
1.1654322
1.052279
1.0857893
1.0727411
1.0818115
1.0776258
1.0815147
1.0804131
1.0825156
1.0826988
1.0840868
1.084861
1.0860228
1.0870564
1.0882063
1.0893692
1.0905852
1.0918416
1.0931425
1.094487
1.0958752
1.0973067
1.098781
1.1002973
1.1018544
1.1034509
1.1050853
1.1067554
1.1084589
1.1101932
1.1119553
1.1137417
1.1155489
1.1173729
1.1192094
1.121054
1.122902
1.1247485
1.1265887
1.1284177
1.1302305
1.1320224
1.1337888
1.1355252
1.1372274
1.1388918
1.1405147
1.1420932
1.1436245
1.1451065
1.1465372
1.1479153
1.1492397
1.1505098
1.1517252
1.1528858
1.153992
1.1550441
1.1560428
1.1569887
1.1578827
1.1587257
1.1595185
1.1602619
1.1609569
1.1616042
1.1622044
1.162758
1.1632655
1.1637277
1.1641456
1.1645203
1.1648528
1.1651431
1.16539
1.1655928
1.1657504
1.1658565
1.1659444
1.1660029
1.1656146
1.0496626
1.0835468
1.0700965
1.0795145
1.0751951
1.0793161
1.0781917
1.0804321
1.0806664
1.0821508
1.0830129
1.0842634
1.0853973
1.0866433
1.08791
1.0892304
1.0905945
1.0920052
1.0934617
1.0949637
1.0965105
1.0981013
1.0997349
1.1014099
1.1031244
1.1048761
1.1066627
1.108481
1.1103278
1.1121993
1.1140916
1.1160002
1.1179203
1.1198472
1.1217756
1.1237003
1.1256159
1.1275171
1.1293985
1.1312551
1.133082
1.1348744
1.1366283
1.1383395
1.1400048
1.1416211
1.1431859
1.1446971
1.1461533
1.1475532
1.1488962
1.150182
1.1514107
1.1525827
1.1536987
1.1547594
1.1557659
1.1567194
1.1576209
1.1584718
1.1592731
1.1600261
1.1607318
1.1613913
1.1620053
1.1625745
1.1630995
1.1635805
1.164018
1.1644128
1.1647659
1.165078
1.1653493
1.1655793
1.1657659
1.1659053
1.1660027
1.1660792
1.1660653
1.1658014
1.0474076
1.0816768
1.0678284
1.077545
1.0730848
1.0774781
1.0763438
1.0787275
1.0790335
1.0806217
1.0815905
1.0829391
1.0841865
1.0855392
1.08692
1.0883546
1.089836
1.0913658
1.0929433
1.0945681
1.0962393
1.0979556
1.0997153
1.1015165
1.1033567
1.105233
1.1071422
1.1090804
1.1110435
1.1130269
1.1150257
1.1170346
1.1190481
1.1210605
1.123066
1.1250586
1.1270325
1.128982
1.1309015
1.1327859
1.1346303
1.1364303
1.1381819
1.1398818
1.1415271
1.1431154
1.1446451
1.146115
1.1475243
1.1488728
1.1501607
1.1513886
1.1525575
1.1536684
1.1547227
1.155722
1.1566678
1.1575618
1.1584056
1.1592007
1.1599487
1.160651
1.1613087
1.161923
1.1624949
1.163025
1.1635137
1.1639613
1.164368
1.1647342
1.1650605
1.1653476
1.1655958
1.1658048
1.1659706
1.1660899
1.1661762
1.1662271
1.1661605
1.166
1.0455572
1.0801958
1.0660043
1.0760247
1.0714703
1.0760734
1.0749274
1.0774752
1.0778686
1.0795662
1.0806535
1.0821035
1.0834711
1.084937
1.0864389
1.0879962
1.0896038
1.0912628
1.0929722
1.0947311
1.096538
1.0983909
1.1002876
1.1022253
1.1042005
1.1062095
1.108248
1.1103111
1.1123937
1.1144902
1.1165945
1.1187006
1.1208018
1.1228918
1.1249639
1.1270118
1.1290292
1.1310102
1.1329492
1.1348412
1.1366816
1.1384665
1.1401926
1.1418573
1.1434586
1.1449951
1.1464662
1.1478715
1.1492115
1.150487
1.1516992
1.1528495
1.1539398
1.154972
1.1559483
1.1568706
1.1577413
1.1585624
1.1593358
1.1600636
1.1607474
1.1613887
1.161989
1.1625495
1.1630711
1.1635546
1.1640002
1.1644081
1.1647782
1.1651106
1.1654055
1.1656633
1.1658847
1.1660689
1.1662101
1.1663078
1.1663791
1.1663953
1.166288
1.1662188
1.044109
1.0791115
1.0646072
1.0749658
1.0703209
1.0751275
1.0740274
1.0767047
1.0772022
1.0789851
1.0801978
1.0817532
1.0832513
1.084843
1.0864801
1.0881756
1.0899258
1.0917305
1.0935883
1.0954973
1.0974553
1.0994596
1.1015066
1.1035927
1.1057132
1.1078632
1.1100372
1.1122291
1.1144324
1.1166405
1.1188461
1.1210421
1.123221
1.1253757
1.127499
1.1295841
1.1316247
1.1336149
1.1355494
1.1374236
1.1392337
1.1409766
1.1426499
1.1442522
1.1457826
1.147241
1.1486278
1.1499442
1.1511917
1.1523722
1.1534879
1.1545414
1.1555352
1.1564721
1.1573548
1.1581861
1.1589686
1.1597046
1.1603967
1.1610468
1.1616569
1.1622287
1.1627635
1.1632627
1.1637272
1.1641575
1.164554
1.1649167
1.1652453
1.1655395
1.1657989
1.1660238
1.1662151
1.1663712
1.1664852
1.1665605
1.1666132
1.166588
1.1664479
1.1664646
1.0430024
1.0783666
1.0635752
1.0743159
1.0695731
1.0746043
1.0735337
1.0764048
1.0769278
1.0788256
1.0801975
1.0818847
1.0835397
1.0852832
1.0870795
1.0889369
1.0908521
1.0928243
1.0948509
1.0969295
1.0990566
1.1012284
1.1034401
1.1056866
1.1079621
1.11026
1.1125734
1.1148947
1.1172163
1.1195299
1.1218272
1.1241002
1.1263406
1.1285406
1.1306928
1.1327904
1.1348272
1.1367979
1.1386978
1.1405233
1.1422717
1.1439411
1.1455307
1.1470403
1.1484705
1.1498228
1.1510991
1.1523017
1.1534334
1.1544974
1.155497
1.1564354
1.1573162
1.1581427
1.1589182
1.159646
1.160329
1.1609699
1.1615713
1.1621353
1.162664
1.1631591
1.163622
1.1640538
1.1644554
1.1648275
1.1651702
1.1654832
1.1657662
1.1660184
1.1662391
1.1664282
1.1665867
1.1667118
1.1667967
1.1668492
1.1668801
1.166809
1.1666447
1.166743
1.0422327
1.0779476
1.0628921
1.0740949
1.0691683
1.0743652
1.0733838
1.0762944
1.0771263
1.0791671
1.0807286
1.0825724
1.0844092
1.0863304
1.0883109
1.090355
1.0924595
1.0946221
1.0968396
1.0991079
1.1014223
1.1037774
1.1061671
1.1085843
1.1110214
1.1134704
1.1159225
1.1183685
1.1207993
1.1232053
1.1255773
1.1279063
1.1301835
1.132401
1.1345516
1.1366288
1.1386271
1.1405424
1.1423711
1.1441113
1.1457618
1.1473226
1.1487943
1.1501788
1.1514785
1.1526962
1.1538356
1.1549003
1.1558943
1.156822
1.1576875
1.1584949
1.1592484
1.1599518
1.1606089
1.1612232
1.1617978
1.1623356
1.1628391
1.1633107
1.1637523
1.1641655
1.1645516
1.1649117
1.1652465
1.1655566
1.1658418
1.166102
1.1663363
1.1665438
1.1667233
1.1668746
1.1669981
1.16709
1.1671446
1.1671748
1.1671808
1.1670603
1.1668809
1.1670602
1.0418334
1.0778896
1.0625967
1.0742237
1.0691587
1.0746126
1.0737763
1.0768855
1.0778989
1.0800876
1.0818682
1.0838963
1.0859417
1.0880693
1.0902615
1.0925193
1.0948388
1.0972163
1.0996468
1.1021248
1.1046437
1.1071962
1.1097739
1.1123678
1.1149682
1.1175651
1.1201477
1.1227053
1.1252271
1.1277027
1.130122
1.1324754
1.1347545
1.1369514
1.1390598
1.1410745
1.1429914
1.1448081
1.1465231
1.1481364
1.149649
1.1510631
1.1523817
1.1536083
1.1547472
1.1558031
1.156781
1.1576859
1.158523
1.1592973
1.1600139
1.1606774
1.1612924
1.1618632
1.1623935
1.1628871
1.1633472
1.1637765
1.1641777
1.1645528
1.1649037
1.1652318
1.1655383
1.165824
1.1660896
1.1663354
1.1665611
1.1667663
1.1669502
1.1671113
1.1672481
1.1673604
1.1674476
1.1675048
1.167529
1.1675375
1.1675151
1.1673433
1.1671593
1.1674215
1.0418707
1.0782617
1.0627403
1.0745618
1.0696369
1.075378
1.074749
1.0780159
1.0793018
1.0816653
1.0836996
1.0859462
1.088231
1.090597
1.0930311
1.0955316
1.0980932
1.1007104
1.103376
1.1060823
1.1088201
1.1115797
1.11435
1.1171197
1.1198766
1.1226083
1.1253024
1.1279465
1.1305288
1.133038
1.1354639
1.1377973
1.1400305
1.142157
1.1441722
1.1460729
1.1478575
1.1495261
1.1510799
1.1525217
1.1538549
1.1550843
1.1562149
1.1572526
1.1582033
1.1590733
1.1598688
1.1605959
1.1612606
1.1618686
1.1624255
1.1629361
1.1634053
1.1638373
1.1642361
1.1646051
1.1649475
1.1652659
1.1655626
1.1658396
1.1660985
1.1663405
1.1665664
1.1667771
1.1669727
1.1671534
1.1673189
1.1674686
1.1676014
1.1677154
1.1678093
1.1678823
1.1679327
1.1679545
1.1679495
1.1679369
1.1678823
1.1676604
1.1674844
1.167827
1.0424261
1.0791369
1.0634223
1.0755394
1.0707807
1.0767627
1.0763903
1.0798346
1.081432
1.0839985
1.0863205
1.0888237
1.0913821
1.0940214
1.0967307
1.0995052
1.1023375
1.1052192
1.1081403
1.1110899
1.1140557
1.1170247
1.1199829
1.1229161
1.1258095
1.1286488
1.1314199
1.1341093
1.1367047
1.139195
1.1415709
1.1438246
1.1459505
1.1479448
1.1498056
1.151533
1.1531289
1.1545964
1.1559401
1.1571657
1.1582796
1.1592889
1.1602008
1.161023
1.1617629
1.162428
1.1630254
1.163562
1.1640442
1.164478
1.1648691
1.1652224
1.1655425
1.1658338
1.1660997
1.1663436
1.1665682
1.1667761
1.166969
1.1671488
1.1673166
1.1674734
1.1676199
1.1677564
1.1678829
1.1679995
1.1681055
1.1682002
1.1682824
1.16835
1.1684016
1.168436
1.1684498
1.1684371
1.1684051
1.1683716
1.1682815
1.168016
1.1678607
1.1682728
1.0434952
1.0805218
1.0646407
1.0771767
1.0725775
1.0788008
1.078765
1.0824013
1.0843723
1.0871842
1.0898345
1.0926403
1.0955136
1.0984669
1.1014888
1.1045711
1.1077026
1.1108712
1.114063
1.1172631
1.1204552
1.1236228
1.1267487
1.1298157
1.1328069
1.1357062
1.1384986
1.1411708
1.1437113
1.1461109
1.1483624
1.1504616
1.1524063
1.1541967
1.1558354
1.1573263
1.1586755
1.1598898
1.1609773
1.1619467
1.1628068
1.1635669
1.164236
1.1648231
1.1653367
1.1657849
1.1661754
1.1665151
1.1668106
1.1670679
1.1672922
1.1674884
1.1676607
1.1678129
1.1679484
1.1680699
1.1681798
1.1682801
1.1683725
1.1684581
1.1685379
1.1686125
1.1686822
1.1687472
1.1688071
1.1688617
1.1689103
1.1689519
1.1689851
1.1690079
1.169019
1.1690164
1.1689948
1.1689497
1.1688935
1.1688388
1.1687113
1.1684153
1.1682933
1.1687509
1.0451306
1.0824672
1.0664553
1.0794354
1.0751099
1.0815849
1.0819758
1.0858293
1.0882355
1.0913478
1.0943743
1.0975368
1.1007737
1.1040863
1.1074604
1.1108825
1.1143369
1.1178061
1.1212717
1.1247139
1.1281124
1.1314466
1.1346963
1.1378419
1.1408651
1.1437495
1.1464812
1.1490487
1.1514437
1.1536609
1.1556982
1.1575561
1.1592378
1.160749
1.1620971
1.1632909
1.1643403
1.1652561
1.1660493
1.1667311
1.1673123
1.1678036
1.1682153
1.1685568
1.1688371
1.1690644
1.1692463
1.1693896
1.1695004
1.1695842
1.1696459
1.1696898
1.1697195
1.1697383
1.1697489
1.1697537
1.1697545
1.1697529
1.1697499
1.1697465
1.1697432
1.1697402
1.1697375
1.1697349
1.169732
1.1697282
1.1697226
1.169714
1.169701
1.1696817
1.1696548
1.1696174
1.1695626
1.1694886
1.169412
1.1693351
1.1691687
1.1688586
1.1687844
1.1692537
1.047393
1.0850323
1.0689761
1.082444
1.0784779
1.0852161
1.0861381
1.0902509
1.0931632
1.09665
1.1001132
1.103695
1.1073489
1.1110659
1.1148265
1.1186111
1.1223978
1.1261634
1.1298837
1.133534
1.1370894
1.140526
1.1438213
1.146955
1.14991
1.1526722
1.1552316
1.1575821
1.1597214
1.161651
1.1633753
1.1649017
1.16624
1.1674013
1.1683983
1.1692442
1.1699526
1.1705369
1.1710104
1.1713859
1.1716752
1.1718898
1.1720399
1.1721352
1.1721842
1.1721947
1.1721737
1.1721275
1.1720613
1.17198
1.1718878
1.1717881
1.171684
1.171578
1.1714723
1.1713685
1.171268
1.1711719
1.1710807
1.170995
1.1709149
1.1708403
1.1707708
1.170706
1.1706451
1.1705874
1.1705318
1.1704769
1.1704212
1.1703633
1.1703017
1.1702323
1.1701477
1.1700494
1.1699564
1.1698569
1.1696499
1.1693356
1.169327
1.1697766
1.0503402
1.0882498
1.0723291
1.0862738
1.0828028
1.0898298
1.0914155
1.0958618
1.0993631
1.1033135
1.1072802
1.1113432
1.1154616
1.1196169
1.1237824
1.1279312
1.1320338
1.1360604
1.1399802
1.1437635
1.1473823
1.1508112
1.1540287
1.1570179
1.1597666
1.1622678
1.1645196
1.1665245
1.1682891
1.1698234
1.1711401
1.1722538
1.1731802
1.1739361
1.174538
1.1750024
1.1753452
1.1755816
1.1757258
1.1757908
1.1757887
1.1757305
1.1756259
1.1754838
1.1753119
1.1751171
1.1749054
1.174682
1.1744515
1.1742176
1.1739837
1.1737523
1.1735259
1.1733062
1.1730946
1.1728923
1.1727001
1.1725184
1.1723475
1.1721874
1.1720379
1.1718986
1.1717688
1.1716478
1.1715347
1.1714284
1.1713278
1.1712312
1.1711373
1.1710448
1.1709521
1.170854
1.1707437
1.1706267
1.1705213
1.1703993
1.1701531
1.1698408
1.169905
1.1703282
1.0540412
1.0921277
1.0766418
1.0910729
1.0882876
1.095669
1.0980677
1.102942
1.1071127
1.1116138
1.1161441
1.1207373
1.1253514
1.1299566
1.1345169
1.1389953
1.1433534
1.1475537
1.1515606
1.155342
1.158871
1.1621266
1.1650942
1.1677663
1.1701415
1.1722245
1.1740249
1.1755563
1.1768357
1.177882
1.1787153
1.1793563
1.1798257
1.1801435
1.1803288
1.1803995
1.1803724
1.1802626
1.1800839
1.1798488
1.1795683
1.1792522
1.1789091
1.1785466
1.1781711
1.1777884
1.1774031
1.1770194
1.1766406
1.1762697
1.1759089
1.17556
1.1752247
1.1749038
1.1745983
1.1743087
1.1740351
1.1737777
1.1735362
1.1733104
1.1730996
1.1729032
1.1727202
1.1725497
1.1723905
1.1722415
1.1721012
1.1719681
1.1718407
1.1717182
1.1715984
1.1714753
1.1713441
1.1712141
1.1710996
1.1709569
1.1706793
1.1703719
1.1705057
1.1709214
1.0586832
1.0968088
1.0821422
1.0971675
1.0952637
1.1030623
1.1064164
1.1118137
1.1167218
1.1218518
1.1269951
1.1321487
1.1372612
1.1422877
1.1471788
1.1518863
1.1563641
1.1605711
1.1644732
1.1680441
1.1712668
1.1741332
1.1766436
1.178806
1.1806345
1.182148
1.1833692
1.1843227
1.1850344
1.1855302
1.1858357
1.1859752
1.1859716
1.1858461
1.1856181
1.1853051
1.1849229
1.1844853
1.1840048
1.183492
1.1829564
1.1824061
1.181848
1.1812881
1.1807313
1.180182
1.1796436
1.1791189
1.1786103
1.1781196
1.1776482
1.1771971
1.176767
1.1763584
1.1759715
1.1756062
1.1752622
1.1749393
1.1746368
1.1743541
1.1740904
1.1738446
1.1736157
1.1734025
1.1732037
1.173018
1.1728438
1.1726795
1.1725239
1.1723761
1.1722331
1.1720891
1.1719421
1.1718041
1.1716828
1.1715216
1.1712264
1.1709387
1.1711294
1.1715331
1.0645484
1.1028632
1.0892291
1.1048964
1.1040767
1.1123323
1.116789
1.1228277
1.1285427
1.1343722
1.1401561
1.1458564
1.1514043
1.1567372
1.1617942
1.1665219
1.170876
1.1748243
1.1783466
1.1814352
1.1840934
1.1863345
1.1881792
1.1896541
1.1907895
1.1916181
1.1921728
1.1924864
1.1925904
1.1925142
1.1922852
1.1919283
1.191466
1.1909182
1.1903026
1.1896348
1.1889282
1.1881945
1.1874439
1.1866847
1.1859245
1.1851692
1.184424
1.1836931
1.1829801
1.1822876
1.181618
1.1809729
1.1803535
1.1797609
1.1791955
1.1786576
1.1781472
1.1776643
1.1772084
1.176779
1.1763754
1.1759971
1.175643
1.1753122
1.1750036
1.1747162
1.1744485
1.1741994
1.1739673
1.1737509
1.1735484
1.1733584
1.1731798
1.1730114
1.1728495
1.1726891
1.1725313
1.1723896
1.1722629
1.1720863
1.1717868
1.1715389
1.1717758
1.1721343
1.0718273
1.1108375
1.0981028
1.1144819
1.1150918
1.1238933
1.12962
1.1364504
1.143029
1.149577
1.1559452
1.1620618
1.1678425
1.1732166
1.1781267
1.1825323
1.1864104
1.1897548
1.1925744
1.1948906
1.1967341
1.1981421
1.1991561
1.1998186
1.2001724
1.2002587
1.200116
1.1997802
1.1992836
1.1986552
1.1979209
1.1971031
1.1962215
1.1952932
1.1943327
1.1933524
1.1923629
1.1913731
1.1903904
1.1894211
1.1884701
1.1875416
1.1866389
1.1857647
1.1849209
1.184109
1.1833302
1.1825849
1.1818736
1.1811964
1.180553
1.1799432
1.1793663
1.1788217
1.1783086
1.1778262
1.1773733
1.176949
1.1765521
1.1761815
1.1758359
1.175514
1.1752144
1.1749357
1.1746764
1.1744349
1.1742096
1.1739991
1.1738025
1.1736179
1.1734413
1.173269
1.1731053
1.1729627
1.1728314
1.1726438
1.172354
1.1721598
1.1724283
1.1727084
1.0806465
1.1205877
1.1093594
1.1264692
1.1289485
1.1384316
1.1455518
1.1532732
1.1606626
1.1677832
1.1744834
1.1806747
1.1862798
1.1912484
1.1955546
1.1991964
1.2021921
1.2045758
1.2063929
1.2076963
1.2085419
1.2089865
1.2090849
1.2088888
1.2084457
1.2077985
1.2069855
1.20604
1.2049914
1.2038646
1.2026814
1.2014599
1.2002156
1.1989615
1.1977083
1.1964651
1.1952392
1.1940366
1.1928622
1.1917197
1.1906124
1.1895423
1.1885112
1.1875203
1.1865703
1.1856615
1.184794
1.1839675
1.1831818
1.182436
1.1817295
1.1810613
1.1804305
1.179836
1.1792765
1.178751
1.1782581
1.1777965
1.1773649
1.1769621
1.1765865
1.1762367
1.1759113
1.1756089
1.1753278
1.1750665
1.1748233
1.1745972
1.1743868
1.17419
1.1740028
1.1738231
1.1736575
1.1735158
1.1733802
1.1731869
1.172917
1.1727761
1.173054
1.1732512
1.0917418
1.1330217
1.1238969
1.141797
1.1465901
1.1568356
1.1652799
1.1737701
1.1816515
1.1889003
1.1953927
1.2010683
1.2058992
1.2098919
1.2130802
1.2155183
1.2172738
1.2184214
1.2190379
1.2191984
1.2189736
1.2184282
1.2176203
1.2166013
1.2154154
1.2141011
1.2126909
1.2112124
1.2096886
1.2081388
1.206579
1.2050223
1.2034795
1.2019592
1.2004686
1.1990132
1.1975974
1.1962246
1.1948972
1.1936172
1.1923857
1.1912034
1.1900706
1.1889874
1.1879533
1.1869679
1.1860303
1.1851397
1.1842949
1.1834948
1.1827383
1.1820238
1.1813502
1.1807159
1.1801196
1.1795598
1.179035
1.1785437
1.1780846
1.1776561
1.1772566
1.1768848
1.1765391
1.176218
1.1759199
1.1756433
1.1753867
1.1751489
1.1749287
1.1747232
1.174529
1.1743459
1.1741816
1.1740416
1.1739025
1.1737082
1.1734636
1.1733674
1.1736394
1.1737791
1.1066665
1.1492319
1.1429826
1.1615282
1.1689777
1.1798718
1.1891609
1.1978541
1.2055062
1.2120954
1.2175865
1.2220036
1.2254058
1.2278791
1.2295242
1.230448
1.2307562
1.2305485
1.2299162
1.2289401
1.2276908
1.2262289
1.2246057
1.2228641
1.2210398
1.2191624
1.217256
1.2153404
1.2134314
1.2115421
1.2096825
1.2078609
1.2060836
1.2043553
1.2026798
1.2010598
1.199497
1.1979927
1.1965474
1.1951613
1.1938342
1.1925655
1.1913545
1.1902001
1.1891012
1.1880566
1.1870648
1.1861244
1.1852339
1.1843916
1.1835961
1.1828455
1.1821384
1.1814731
1.1808479
1.1802612
1.1797114
1.179197
1.1787162
1.1782676
1.1778496
1.1774606
1.1770991
1.1767636
1.1764526
1.1761645
1.175898
1.175652
1.1754248
1.1752136
1.1750157
1.1748326
1.1746715
1.1745334
1.1743915
1.1742008
1.1739862
1.1739306
1.1741869
1.1742762
1.1269011
1.1705112
1.1680416
1.1866808
1.1964935
1.2075028
1.2166178
1.2244324
1.2307818
1.2357328
1.2393807
1.2418626
1.2433304
1.2439387
1.2438343
1.2431506
1.2420052
1.2404988
1.2387164
1.2367288
1.234594
1.2323592
1.2300627
1.2277351
1.2254009
1.2230795
1.2207862
1.2185328
1.2163286
1.2141806
1.212094
1.2100725
1.2081189
1.2062347
1.2044209
1.2026778
1.2010053
1.1994029
1.1978695
1.1964042
1.1950055
1.1936721
1.1924022
1.1911943
1.1900466
1.1889572
1.1879243
1.1869461
1.1860207
1.1851462
1.1843207
1.1835424
1.1828096
1.1821202
1.1814727
1.1808652
1.180296
1.1797635
1.179266
1.1788019
1.1783695
1.1779673
1.1775938
1.1772475
1.1769267
1.1766301
1.1763566
1.1761049
1.1758731
1.1756585
1.1754596
1.1752788
1.1751218
1.174985
1.1748413
1.1746595
1.1744796
1.1744586
1.1746832
1.1747163
1.1550337
1.1976535
1.2001745
1.2181468
1.2283311
1.2381312
1.2456756
1.2513594
1.25531
1.2577649
1.258959
1.2591225
1.2584626
1.2571595
1.2553647
1.253203
1.2507756
1.2481635
1.2454307
1.2426277
1.2397938
1.2369596
1.2341486
1.2313788
1.2286638
1.2260136
1.2234358
1.2209356
1.2185167
1.2161812
1.2139305
1.2117649
1.2096842
1.2076877
1.2057744
1.2039427
1.2021911
1.2005177
1.1989206
1.1973977
1.195947
1.1945662
1.1932533
1.192006
1.1908221
1.1896994
1.1886359
1.1876293
1.1866776
1.1857786
1.1849304
1.184131
1.1833784
1.1826706
1.1820058
1.1813823
1.1807981
1.1802516
1.1797412
1.179265
1.1788216
1.1784093
1.1780267
1.177672
1.177344
1.1770413
1.1767627
1.176507
1.1762721
1.1760559
1.1758576
1.1756801
1.1755267
1.1753906
1.1752476
1.1750798
1.1749341
1.1749361
1.175122
1.1751085
1.1936445
1.2324593
1.2381858
1.2534065
1.262474
1.2693357
1.273685
1.2760673
1.2768413
1.2763703
1.2749521
1.2728326
1.2702074
1.2672295
1.2640167
1.2606591
1.2572251
1.2537657
1.2503193
1.2469143
1.2435713
1.2403055
1.2371274
1.2340443
1.231061
1.2281804
1.2254038
1.2227314
1.2201629
1.2176969
1.2153318
1.2130657
1.2108962
1.2088211
1.2068377
1.2049434
1.2031356
1.2014116
1.1997688
1.1982043
1.1967157
1.1953003
1.1939555
1.1926788
1.1914678
1.19032
1.1892331
1.1882047
1.1872326
1.1863146
1.1854486
1.1846324
1.183864
1.1831415
1.1824629
1.1818264
1.1812301
1.1806723
1.1801513
1.1796654
1.179213
1.1787925
1.1784025
1.1780413
1.1777076
1.1774001
1.1771176
1.1768587
1.1766217
1.1764047
1.1762078
1.1760331
1.1758818
1.1757464
1.1756086
1.1754608
1.1753454
1.1753499
1.1754761
1.1754507
1.2409313
1.2732941
1.2804004
1.2901389
1.295007
1.2973248
1.2974793
1.2961163
1.2936668
1.290474
1.2867891
1.2827967
1.2786304
1.2743861
1.2701321
1.2659169
1.2617741
1.2577271
1.2537914
1.2499772
1.2462905
1.2427344
1.2393102
1.2360174
1.2328544
1.2298191
1.2269087
1.2241201
1.2214499
1.2188947
1.2164508
1.2141149
1.2118831
1.2097522
1.2077185
1.2057788
1.2039297
1.202168
1.2004905
1.1988942
1.1973761
1.1959333
1.194563
1.1932626
1.1920292
1.1908605
1.1897539
1.1887069
1.1877173
1.1867827
1.185901
1.1850699
1.1842876
1.1835518
1.1828606
1.1822123
1.1816049
1.1810367
1.180506
1.1800112
1.1795505
1.1791225
1.1787256
1.1783583
1.1780194
1.1777074
1.1774213
1.1771596
1.1769206
1.1767032
1.1765073
1.1763341
1.1761833
1.1760487
1.1759192
1.1757927
1.1756979
1.175688
1.1757623
1.175747
1.2946852
1.3152333
1.3197554
1.3221078
1.3213165
1.3186818
1.3148143
1.3102007
1.3051603
1.2999093
1.2945909
1.2892991
1.2840954
1.2790187
1.2740932
1.2693328
1.2647447
1.2603317
1.2560934
1.2520272
1.2481295
1.2443956
1.2408206
1.2373991
1.2341256
1.2309949
1.2280015
1.2251402
1.2224061
1.2197942
1.2172998
1.2149185
1.2126459
1.2104778
1.2084103
1.2064394
1.2045616
1.2027733
1.201071
1.1994515
1.1979117
1.1964485
1.1950589
1.1937401
1.1924895
1.1913043
1.190182
1.1891201
1.1881162
1.1871681
1.1862734
1.1854301
1.184636
1.183889
1.1831873
1.182529
1.1819122
1.1813351
1.1807962
1.1802936
1.1798258
1.1793912
1.1789884
1.1786159
1.1782724
1.1779565
1.1776671
1.1774028
1.1771622
1.1769444
1.1767491
1.1765764
1.1764251
1.1762912
1.176169
1.1760601
1.1759814
1.1759577
1.1759793
1.1759515
1.347253
1.3505426
1.3493286
1.3448921
1.3390935
1.3325552
1.3257391
1.3188851
1.3121388
1.3055789
1.299248
1.293166
1.2873401
1.2817691
1.2764477
1.2713677
1.2665197
1.2618937
1.2574797
1.2532676
1.2492479
1.2454116
1.2417498
1.2382543
1.2349176
1.2317322
1.2286914
1.2257888
1.2230182
1.2203741
1.2178511
1.2154441
1.2131483
1.2109591
1.2088723
1.2068837
1.2049895
1.2031859
1.2014693
1.1998364
1.1982839
1.1968087
1.1954076
1.194078
1.1928169
1.1916217
1.1904897
1.1894186
1.1884058
1.1874491
1.1865462
1.1856949
1.1848931
1.1841389
1.1834301
1.182765
1.1821418
1.1815586
1.1810138
1.1805058
1.1800329
1.1795935
1.1791864
1.1788099
1.1784629
1.1781439
1.1778517
1.1775852
1.1773431
1.1771246
1.1769291
1.1767558
1.1766034
1.1764701
1.1763546
1.1762585
1.1761871
1.1761449
1.1761258
1.1761028
1.3811136
1.3735798
1.3660865
1.3578693
1.3493319
1.3408863
1.3326978
1.3248403
1.3173423
1.3102068
1.3034254
1.2969836
1.2908642
1.2850494
1.2795216
1.2742638
1.2692602
1.264496
1.2599573
1.2556316
1.2515072
1.2475733
1.2438199
1.240238
1.236819
1.2335551
1.2304389
1.2274638
1.2246233
1.2219117
1.2193232
1.2168527
1.2144953
1.2122464
1.2101016
1.2080568
1.2061079
1.2042513
1.2024833
1.2008005
1.1991996
1.1976776
1.1962313
1.1948579
1.1935546
1.1923186
1.1911474
1.1900385
1.1889894
1.1879978
1.1870614
1.1861782
1.1853458
1.1845624
1.1838258
1.1831343
1.182486
1.1818791
1.1813119
1.1807828
1.1802901
1.1798323
1.1794079
1.1790155
1.1786537
1.1783212
1.1780167
1.177739
1.1774872
1.1772603
1.1770574
1.1768771
1.1767186
1.1765815
1.1764671
1.1763756
1.1763039
1.1762463
1.1762028
1.1761869
1.163484
1.1680773
1.1825887
1.1943906
1.1998571
1.2011167
1.2011867
1.2008583
1.2008911
1.2006029
1.2003474
1.1997928
1.1992024
1.1985597
1.1978739
1.1971481
1.1963867
1.1955953
1.1947787
1.1939413
1.1930867
1.1922186
1.1913401
1.1904542
1.1895634
1.18867
1.1877764
1.1868843
1.1859957
1.1851123
1.1842355
1.183367
1.1825081
1.1816601
1.1808243
1.180002
1.1791944
1.1784026
1.1776278
1.1768711
1.1761336
1.1754166
1.174721
1.1740479
1.1733984
1.1727735
1.1721743
1.1716017
1.1710565
1.1705397
1.1700519
1.169594
1.1691663
1.1687693
1.1684032
1.1680682
1.1677641
1.1674906
1.1672472
1.1670332
1.1668472
1.166688
1.1665538
1.1664427
1.1663528
1.1662806
1.1662258
1.1661803
1.1661542
1.166119
1.1661262
1.1660686
1.1661336
1.1659888
1.1661684
1.1657998
1.1661823
1.1654747
1.1661842
1.1649919
1.1592719
1.1701771
1.1863797
1.1946603
1.1969124
1.1968225
1.196295
1.1960459
1.1957281
1.1954249
1.1950313
1.1946362
1.1941935
1.1937149
1.1931972
1.1926479
1.1920678
1.1914598
1.1908263
1.1901694
1.1894917
1.1887953
1.1880824
1.1873554
1.1866163
1.1858674
1.1851107
1.1843483
1.1835822
1.1828143
1.1820465
1.1812806
1.1805185
1.1797618
1.1790123
1.1782715
1.177541
1.1768224
1.1761173
1.175427
1.1747531
1.1740969
1.1734598
1.1728432
1.1722483
1.1716763
1.1711285
1.1706059
1.1701097
1.1696407
1.1691997
1.1687876
1.1684049
1.168052
1.1677291
1.1674364
1.1671738
1.1669407
1.1667368
1.1665612
1.1664124
1.1662891
1.1661895
1.1661116
1.1660533
1.1660112
1.1659846
1.1659661
1.1659641
1.1659536
1.1659793
1.1659466
1.1660219
1.1659034
1.1660821
1.1657497
1.1661235
1.1654398
1.166159
1.1649567
1.1598413
1.1732194
1.1848634
1.1912164
1.1921846
1.1917072
1.1912012
1.1909404
1.1906472
1.1903648
1.190033
1.1896977
1.1893275
1.1889447
1.188535
1.1881057
1.1876534
1.1871803
1.1866865
1.1861728
1.1856402
1.1850897
1.1845226
1.1839399
1.1833432
1.1827339
1.1821134
1.1814834
1.1808455
1.1802014
1.1795528
1.1789015
1.1782492
1.1775976
1.1769486
1.1763039
1.1756653
1.1750346
1.1744133
1.1738034
1.1732064
1.1726239
1.1720577
1.1715092
1.1709799
1.1704713
1.1699848
1.1695216
1.1690828
1.1686697
1.1682831
1.1679239
1.1675926
1.1672898
1.1670157
1.1667704
1.1665538
1.1663655
1.1662049
1.166071
1.1659626
1.165878
1.1658155
1.1657729
1.1657481
1.1657377
1.1657407
1.1657503
1.1657735
1.1657881
1.1658335
1.1658249
1.1659127
1.1658176
1.165998
1.165698
1.166066
1.1654048
1.166134
1.1649238
1.1575945
1.1718868
1.1825336
1.1872287
1.1870634
1.1866775
1.1862361
1.1860372
1.1857216
1.1854708
1.1851594
1.184877
1.1845632
1.1842527
1.1839219
1.1835825
1.1832279
1.1828605
1.1824787
1.1820825
1.1816718
1.1812466
1.1808072
1.1803537
1.1798868
1.1794072
1.1789157
1.1784133
1.1779011
1.1773803
1.1768523
1.1763184
1.1757803
1.1752396
1.1746978
1.1741567
1.173618
1.1730836
1.1725551
1.1720345
1.1715234
1.1710238
1.1705373
1.1700656
1.1696104
1.1691734
1.168756
1.1683596
1.1679856
1.1676351
1.1673092
1.1670089
1.1667347
1.1664872
1.1662667
1.1660733
1.1659069
1.165767
1.1656531
1.1655642
1.1654989
1.1654554
1.1654322
1.1654269
1.1654373
1.16546
1.1654938
1.1655324
1.1655817
1.1656218
1.165688
1.165703
1.1658044
1.1657313
1.1659175
1.1656449
1.1660112
1.1653712
1.1661085
1.1648937
1.151997
1.1683067
1.1781433
1.181673
1.1811336
1.181048
1.1806893
1.1806287
1.1803878
1.1802544
1.1800336
1.1798595
1.1796428
1.1794389
1.1792129
1.1789822
1.178737
1.1784814
1.1782131
1.1779322
1.1776383
1.1773314
1.1770113
1.1766783
1.1763324
1.1759741
1.1756039
1.1752223
1.1748301
1.1744282
1.1740175
1.1735993
1.1731747
1.1727452
1.1723121
1.1718769
1.1714415
1.1710073
1.1705762
1.17015
1.1697305
1.1693194
1.1689186
1.16853
1.1681552
1.1677959
1.1674537
1.1671302
1.1668268
1.1665447
1.166285
1.1660487
1.1658366
1.1656491
1.1654866
1.1653492
1.1652367
1.1651488
1.1650847
1.1650435
1.1650238
1.1650238
1.1650418
1.1650755
1.1651226
1.1651798
1.1652454
1.1653139
1.1653901
1.165456
1.1655437
1.165582
1.1656981
1.1656459
1.1658394
1.1655916
1.165959
1.1653396
1.1660833
1.1648666
1.1460329
1.1647738
1.1732484
1.1761418
1.1754499
1.1756199
1.175306
1.175383
1.1752069
1.1751853
1.1750457
1.1749732
1.1748458
1.1747398
1.1746084
1.1744757
1.1743281
1.1741717
1.1740039
1.1738251
1.173635
1.1734335
1.1732203
1.1729954
1.1727589
1.1725109
1.1722517
1.1719814
1.1717007
1.17141
1.1711102
1.170802
1.1704865
1.1701647
1.1698378
1.1695073
1.1691745
1.168841
1.1685084
1.1681785
1.1678529
1.1675335
1.167222
1.1669203
1.16663
1.1663528
1.1660905
1.1658445
1.1656162
1.165407
1.1652181
1.1650502
1.1649043
1.1647808
1.16468
1.1646021
1.1645469
1.1645139
1.1645025
1.1645115
1.1645397
1.1645852
1.1646461
1.1647204
1.1648054
1.1648981
1.1649965
1.1650956
1.1651992
1.1652913
1.1654009
1.1654625
1.1655942
1.1655621
1.1657635
1.1655385
1.1659107
1.1653096
1.1660601
1.1648423
1.1408527
1.1614218
1.1684146
1.1710057
1.1702116
1.1705831
1.1702773
1.1704643
1.1703274
1.1703939
1.1703166
1.1703308
1.1702781
1.1702495
1.1701914
1.1701374
1.1700702
1.1699971
1.1699149
1.169824
1.1697238
1.169614
1.1694945
1.1693649
1.1692251
1.1690752
1.1689152
1.1687452
1.1685655
1.1683764
1.1681785
1.1679724
1.1677589
1.1675387
1.1673131
1.167083
1.1668497
1.1666147
1.1663793
1.1661451
1.1659138
1.1656869
1.1654662
1.1652533
1.16505
1.1648578
1.1646783
1.1645131
1.1643635
1.1642308
1.1641161
1.1640202
1.163944
1.1638878
1.163852
1.1638367
1.1638415
1.1638661
1.1639097
1.1639712
1.1640491
1.1641418
1.1642472
1.1643632
1.1644873
1.1646164
1.1647484
1.1648786
1.1650101
1.1651287
1.1652602
1.165345
1.1654921
1.1654804
1.1656899
1.1654865
1.1658647
1.1652812
1.1660393
1.1648207
1.1360351
1.1584143
1.1638833