/*--------------------------------*- C++ -*----------------------------------*\
  =========                 |
  \\      /  F ield         | OpenFOAM: The Open Source CFD Toolbox
   \\    /   O peration     | Website:  https://openfoam.org
    \\  /    A nd           | Version:  12
     \\/     M anipulation  |
\*---------------------------------------------------------------------------*/
FoamFile
{
    format      ascii;
    class       volVectorField;
    location    "0.128";
    object      U;
}
// * * * * * * * * * * * * * * * * * * * * * * * * * * * * * * * * * * * * * //

dimensions      [0 1 -1 0 0 0 0];

internalField   nonuniform List<vector> 
16000
(
(215.08963 -3.1432796e-17 -8.3545388)
(251.9105 0 5.3632531)
(238.02644 0 -7.5478197)
(245.69536 4.9753087e-17 3.778419)
(241.02005 -4.910887e-17 -5.936816)
(243.22028 0 1.7508599)
(241.43022 0 -4.3157952)
(241.93476 8.4059931e-17 -0.026953659)
(241.09694 -7.986372e-17 -3.1529272)
(240.97528 0 -1.2641263)
(240.46249 7.2162618e-17 -2.5603838)
(240.11589 -2.0559175e-16 -1.9801546)
(239.67325 1.3012721e-16 -2.4185372)
(239.24553 -1.2377992e-16 -2.3553043)
(238.78984 1.1744348e-16 -2.5159601)
(238.32036 -3.48387e-18 -2.5873294)
(237.83235 -3.3095234e-18 -2.6901478)
(237.32671 -9.7655825e-17 -2.7821678)
(236.8029 1.9132895e-16 -2.8758798)
(236.26079 -9.0778266e-17 -2.967317)
(235.70023 1.7267005e-16 -3.0568639)
(235.12115 -1.636777e-16 -3.1438244)
(234.52357 0 -3.2277014)
(233.90757 1.5235471e-16 -3.3079146)
(233.27335 -4.1252176e-18 -3.3838757)
(232.62121 -2.6590459e-16 -3.4549645)
(231.95157 1.2602949e-16 -3.5205546)
(231.26496 0 -3.5800066)
(230.56204 0 -3.6326853)
(229.84361 2.1886357e-16 -3.6779641)
(229.1106 -2.0392374e-16 -3.7152392)
(228.36408 0 -3.7439378)
(227.60524 0 -3.7635298)
(226.83544 0 -3.7735414)
(226.05612 5.1445959e-18 -3.7735651)
(225.26889 1.5612281e-16 -3.7632717)
(224.47541 -1.4291843e-16 -3.7424214)
(223.6775 -1.3997368e-16 -3.7108713)
(222.877 1.2393911e-16 -3.6685854)
(222.07584 0 -3.6156415)
(221.27598 -1.1861568e-16 -3.5522323)
(220.4794 1.1196091e-16 -3.47867)
(219.68806 -2.1218001e-16 -3.395383)
(218.9039 2.0018818e-16 -3.3029129)
(218.1288 -1.9550701e-16 -3.201907)
(217.36455 3.579416e-16 -3.0931079)
(216.61286 5.6044024e-18 -2.9773419)
(215.87531 2.9416149e-19 -2.8555044)
(215.15335 -1.5065807e-16 -2.7285432)
(214.44829 1.4248433e-16 -2.5974428)
(213.76126 -1.2585869e-16 -2.4632066)
(213.09325 0 -2.326839)
(212.44508 7.4800574e-18 -2.1893294)
(211.8174 0 -2.0516352)
(211.21071 6.6561354e-18 -1.9146673)
(210.62533 2.0725263e-16 -1.779279)
(210.06144 -3.7880483e-16 -1.6462542)
(209.51905 1.0941874e-17 -1.5162973)
(208.99801 1.6832454e-16 -1.3900229)
(208.49792 -1.4898499e-16 -1.2679645)
(208.01818 1.4033537e-16 -1.1505482)
(207.55802 -8.830374e-18 -1.0381404)
(207.11647 0 -0.93100487)
(206.69229 0 -0.82931148)
(206.284 -1.1126841e-16 -0.73315372)
(205.88993 1.1194783e-16 -0.64254191)
(205.50835 -9.9190958e-17 -0.55740841)
(205.13751 1.9361287e-16 -0.47760479)
(204.77578 -1.889441e-16 -0.40290845)
(204.42148 8.3760369e-17 -0.33305262)
(204.07258 5.2890209e-18 -0.26778765)
(203.72629 0 -0.20696022)
(203.37912 4.7547612e-18 -0.15053038)
(203.02768 -4.516192e-18 -0.098383887)
(202.66994 0 -0.049982767)
(202.3058 -3.3768211e-17 -0.006518272)
(201.92071 6.2498416e-17 0.031959024)
(201.58926 -3.1757103e-17 0.094347538)
(201.02615 0 0.021804526)
(200.96366 0 0.34185121)
(216.39512 0 -11.16945)
(253.53925 -3.7312086e-18 3.3233011)
(238.97213 -1.1990776e-16 -10.468971)
(247.14986 1.1055508e-16 1.6933386)
(242.12006 0 -8.7967957)
(244.55067 1.0171557e-16 -0.4047228)
(242.55677 -1.8782875e-16 -7.0584091)
(243.14923 -1.0180413e-19 -2.3046932)
(242.2203 8.464753e-17 -5.7399863)
(242.09916 0 -3.6587811)
(241.54555 -1.5290222e-16 -5.0324163)
(241.16997 1.4956781e-16 -4.4195181)
(240.69533 1.4225222e-16 -4.8440882)
(240.23327 -2.6186666e-16 -4.7814889)
(239.74313 1.2038165e-16 -4.9219081)
(239.23736 1.1067218e-17 -4.9858465)
(238.7121 1.1572727e-16 -5.0729975)
(238.16793 -1.0306875e-16 -5.1512059)
(237.60448 0 -5.2287907)
(237.02163 0 -5.3030596)
(236.41932 5.6874274e-18 -5.3738936)
(235.79756 -1.7841554e-16 -5.4405865)
(235.15647 3.3830955e-16 -5.5025072)
(234.49629 -3.1612334e-16 -5.5589756)
(233.81734 1.4288496e-16 -5.6092978)
(233.1201 0 -5.652766)
(232.40515 1.2461815e-16 -5.6886645)
(231.67322 -1.3362925e-16 -5.716285)
(230.92519 0 -5.7349335)
(230.16206 3.5314282e-18 -5.7439426)
(229.38501 -1.3394428e-17 -5.7426827)
(228.59534 0 -5.7305772)
(227.79449 0 -5.7071106)
(226.98406 -1.7090967e-16 -5.6718485)
(226.16574 3.3936881e-16 -5.6244456)
(225.34136 -1.6296204e-16 -5.564659)
(224.51283 -1.5935577e-16 -5.4923616)
(223.68215 1.4585319e-16 -5.4075475)
(222.85135 -1.1233616e-16 -5.3103426)
(222.02252 -2.8367965e-19 -5.2010077)
(221.19774 -2.6531209e-19 -5.0799411)
(220.37908 2.3316327e-16 -4.9476767)
(219.56855 -1.1000942e-16 -4.8048794)
(218.76811 0 -4.6523367)
(217.9796 2.0269129e-16 -4.4909484)
(217.20475 1.1951871e-17 -4.321712)
(216.44518 -5.1293109e-18 -4.1457055)
(215.70232 -1.6479197e-16 -3.9640699)
(214.97745 0 -3.7779892)
(214.2717 -1.467759e-16 -3.5886699)
(213.58598 -8.8694007e-18 -3.3973222)
(212.92105 2.6049915e-16 -3.2051379)
(212.2775 -1.3028088e-16 -3.013274)
(211.65573 0 -2.8228344)
(211.05601 -2.0412109e-17 -2.6348553)
(210.47843 -2.1150606e-16 -2.450294)
(209.92296 3.6177915e-16 -2.2700174)
(209.38939 -2.1557266e-16 -2.0947937)
(208.8774 0 -1.9252841)
(208.38647 -1.710223e-16 -1.7620517)
(207.91586 1.7971708e-16 -1.6055346)
(207.46469 2.6719743e-17 -1.4560912)
(207.03191 0 -1.3139797)
(206.61624 -1.4205746e-16 -1.1793452)
(206.21614 7.332666e-18 -1.0522522)
(205.82991 1.1183399e-16 -0.93267707)
(205.45573 -1.9757823e-17 -0.82051337)
(205.09179 9.3093866e-17 -0.71556567)
(204.73639 -1.0522696e-16 -0.61754753)
(204.38785 5.5135674e-18 -0.52610612)
(204.04421 -5.2021229e-18 -0.44088628)
(203.70277 0 -0.36161571)
(203.35999 -4.6410537e-18 -0.28814494)
(203.01221 4.3894546e-18 -0.22032614)
(202.65669 8.3129272e-18 -0.15800704)
(202.29191 9.8492512e-19 -0.10182797)
(201.92052 0 -0.04685518)
(201.54537 3.023445e-17 0.0040578972)
(201.0874 -5.7587088e-17 -0.010890272)
(200.86662 2.585939e-17 0.24429521)
(217.56329 0 -14.056612)
(255.01604 -1.2272813e-16 1.0836158)
(239.94241 2.5025541e-16 -13.47372)
(248.39994 -2.2350849e-16 -0.55625049)
(243.10962 1.1038294e-16 -11.729324)
(245.67684 -3.2685208e-18 -2.7488506)
(243.5556 9.9484897e-17 -9.8469177)
(244.17395 -9.4222123e-17 -4.7771394)
(243.18834 -5.5933527e-18 -8.3900636)
(243.04406 -5.3108693e-18 -6.217501)
(242.45525 -1.0088729e-17 -7.602017)
(242.04382 1.3918767e-16 -6.9945705)
(241.53385 -1.4108723e-16 -7.3877794)
(241.03343 1.3846747e-16 -7.3320535)
(240.50433 -1.1895201e-16 -7.4510042)
(239.95795 -1.559021e-17 -7.5067716)
(239.39081 0 -7.5782026)
(238.80351 -1.2139535e-20 -7.6414437)
(238.19574 -2.2675125e-16 -7.7018321)
(237.56749 -3.6517578e-19 -7.7573432)
(236.91882 1.737989e-16 -7.8075434)
(236.24988 1.7071704e-17 -7.851641)
(235.56092 -2.1593181e-17 -7.8888838)
(234.85236 0 -7.9184871)
(234.1247 7.0528047e-21 -7.9396609)
(233.37861 -1.6575618e-16 -7.951612)
(232.6149 1.4808518e-16 -7.9535566)
(231.83455 8.2647837e-18 -7.9447277)
(231.03866 0 -7.9243945)
(230.22853 -7.4144866e-18 -7.8918684)
(229.40559 -1.5458401e-21 -7.8465239)
(228.57144 -1.9958252e-16 -7.7878105)
(227.72782 2.0100627e-16 -7.7152678)
(226.87659 1.1910803e-17 -7.6285443)
(226.01974 -1.8030591e-16 -7.527406)
(225.15936 1.4880828e-16 -7.4117536)
(224.29761 -1.8131673e-16 -7.2816309)
(223.4367 1.5197667e-16 -7.1372339)
(222.57886 -1.4389344e-16 -6.9789136)
(221.72632 1.3561388e-16 -6.8071805)
(220.88126 1.6034579e-17 -6.6227013)
(220.04581 0 -6.4262909)
(219.222 2.0001016e-16 -6.2189052)
(218.41175 -2.4209327e-16 -6.0016256)
(217.61682 0 -5.7756432)
(216.83882 1.7967112e-16 -5.5422401)
(216.07918 -1.5766688e-16 -5.3027658)
(215.33913 1.7010861e-16 -5.0586163)
(214.61972 -1.7992927e-16 -4.8112098)
(213.9218 0 -4.5619644)
(213.24603 1.7741537e-16 -4.3122759)
(212.59285 -1.3333387e-16 -4.0634956)
(211.96257 0 -3.8169126)
(211.35529 0 -3.5737377)
(210.77099 1.249199e-16 -3.3350876)
(210.20949 -2.0862068e-16 -3.1019774)
(209.67049 1.224625e-16 -2.8753102)
(209.15358 1.842943e-16 -2.6558711)
(208.6582 1.9576744e-19 -2.4443217)
(208.18368 1.7395706e-19 -2.2412095)
(207.72912 -3.2436376e-16 -2.0469474)
(207.29352 8.9515718e-17 -1.8618475)
(206.87574 0 -1.6861271)
(206.47443 1.4225896e-16 -1.5198781)
(206.08801 -1.6318151e-16 -1.363107)
(205.71474 1.1152776e-16 -1.2157342)
(205.35276 1.3160554e-17 -1.0775977)
(205.00021 -8.6053098e-17 -0.94844854)
(204.65534 1.1555046e-17 -0.8279436)
(204.31649 2.1729732e-17 -0.71566369)
(203.98178 -1.0217906e-16 -0.61116272)
(203.64867 9.6095104e-17 -0.51404093)
(203.3137 -7.2396216e-17 -0.42405819)
(202.97286 1.3636323e-16 -0.34114695)
(202.62302 -5.6227827e-17 -0.26514813)
(202.26393 -6.0659148e-17 -0.19544728)
(201.89793 5.0115744e-17 -0.1297232)
(201.50976 0 -0.077932559)
(201.09842 3.2063144e-18 -0.047283937)
(200.80253 -1.2156451e-17 0.14225996)
(218.57315 0 -17.012824)
(256.34274 0 -1.2921774)
(240.68896 0 -16.611596)
(249.47282 1.0681524e-16 -2.9097316)
(243.91637 -1.2402425e-16 -14.788734)
(246.63886 -2.2089186e-16 -5.2096369)
(244.37578 2.1008612e-16 -12.751592)
(245.02252 -1.2443341e-17 -7.3758064)
(243.97278 5.9250358e-18 -11.149344)
(243.80123 -1.7423667e-16 -8.9067907)
(243.17258 1.7057649e-16 -10.282068)
(242.71973 1.0137215e-17 -9.6942524)
(242.16953 -1.5393499e-16 -10.04812)
(241.62541 1.3674499e-16 -10.000891)
(241.05223 -1.3546242e-20 -10.097107)
(240.46009 -8.2011738e-18 -10.142738)
(239.8461 0 -10.196835)
(239.21079 -7.4030101e-18 -10.242646)
(238.554 -2.1073107e-16 -10.283175)
(237.87584 2.1278188e-16 -10.316844)
(237.1765 1.2630194e-17 -10.342993)
(236.45628 -1.1974454e-17 -10.360743)
(235.71562 2.1578041e-16 -10.369243)
(234.95512 -1.7188107e-16 -10.367617)
(234.17551 1.0192794e-17 -10.354985)
(233.37769 1.9327026e-16 -10.330484)
(232.56276 -1.2784921e-16 -10.293265)
(231.73195 0 -10.242524)
(230.88671 1.4772364e-16 -10.177505)
(230.02863 -1.2399687e-16 -10.097529)
(229.15949 2.4989365e-16 -10.002002)
(228.28123 -1.335171e-17 -9.8904404)
(227.3959 -2.099046e-16 -9.7624848)
(226.5057 1.7409325e-16 -9.6179184)
(225.61293 -1.8754397e-16 -9.4566781)
(224.71995 -2.994598e-20 -9.27887)
(223.82916 2.0964918e-16 -9.0847757)
(222.94299 -3.1639335e-16 -8.8748565)
(222.06381 9.3120482e-17 -8.6497557)
(221.19397 3.525454e-17 -8.410293)
(220.3357 -4.9850495e-17 -8.1574594)
(219.49113 0 -7.8924004)
(218.66222 -8.8699202e-17 -7.616403)
(217.85076 1.3892024e-16 -7.3308724)
(217.05835 -2.0975072e-16 -7.0373109)
(216.28639 1.9708165e-16 -6.7372937)
(215.53604 -2.0902874e-16 -6.4324399)
(214.80824 3.9304005e-16 -6.1243877)
(214.10374 -3.0801031e-16 -5.8147683)
(213.42303 3.0885984e-16 -5.5051805)
(212.76642 -1.4496694e-16 -5.1971685)
(212.13402 1.3645514e-16 -4.8922009)
(211.52578 -9.59252e-17 -4.5916524)
(210.94148 3.0078513e-17 -4.2967919)
(210.38077 0 -4.0087674)
(209.84318 0 -3.7286026)
(209.32814 0 -3.4571887)
(208.83499 2.3280893e-17 -3.1952827)
(208.36296 0 -2.9435046)
(207.9112 -1.6384744e-16 -2.7023472)
(207.47868 1.9180605e-16 -2.4721661)
(207.06429 -1.0795452e-16 -2.2531975)
(206.66679 -1.1476854e-19 -2.0455891)
(206.28478 2.5255244e-16 -1.8493592)
(205.91665 2.9658441e-17 -1.6644383)
(205.56064 -1.3850913e-16 -1.490675)
(205.21486 5.1938208e-17 -1.3278413)
(204.87741 -1.4591157e-16 -1.1756279)
(204.54652 -4.559062e-17 -1.0336377)
(204.22052 -6.4083556e-17 -0.90139499)
(203.89765 -6.0089999e-17 -0.77836707)
(203.5756 5.6310545e-17 -0.66403811)
(203.25098 0 -0.55814065)
(202.91956 0 -0.46066171)
(202.57816 -1.5517533e-17 -0.37100902)
(202.22724 0 -0.28823375)
(201.8655 6.8537023e-18 -0.21396319)
(201.4796 5.1603314e-17 -0.1521187)
(201.09734 -7.289236e-17 -0.090958562)
(200.74336 -9.3915504e-21 0.038269029)
(219.40727 0 -20.166541)
(257.4988 -8.8308481e-18 -3.7443123)
(241.30862 2.6707404e-16 -19.885645)
(250.32806 -2.4947624e-16 -5.3893504)
(244.48829 2.5456288e-16 -17.963714)
(247.39954 -2.3290601e-16 -7.8236558)
(244.99714 -2.2201698e-16 -15.762367)
(245.66132 2.1016895e-16 -10.132616)
(244.5497 0 -14.011806)
(244.34057 0 -11.746001)
(243.66983 1.8011605e-16 -13.076308)
(243.16882 -1.7063592e-16 -12.526545)
(242.57366 -1.0136823e-17 -12.831263)
(241.98067 2.8832589e-17 -12.791734)
(241.3585 -9.1242709e-18 -12.863119)
(240.71581 3.4606197e-17 -12.894836)
(240.05024 0 -12.92863)
(239.36229 0 -12.953243)
(238.65193 -2.3633284e-16 -12.970072)
(237.9194 2.0959505e-16 -12.977765)
(237.16503 0 -12.975476)
(236.38931 0 -12.962221)
(235.59292 -1.9069855e-16 -12.937021)
(234.7767 3.6089241e-16 -12.898892)
(233.94167 -1.7068983e-16 -12.846858)
(233.08907 -2.0221293e-17 -12.77997)
(232.22032 -3.8298701e-17 -12.69733)
(231.33704 -1.4511718e-16 -12.598104)
(230.44106 1.1981723e-16 -12.481546)
(229.53437 0 -12.347018)
(228.61914 -3.0686464e-17 -12.194012)
(227.6977 0 -12.022173)
(226.77251 0 -11.83131)
(225.8461 2.0714824e-16 -11.621418)
(224.92109 -2.1956177e-16 -11.392687)
(224.00012 2.3031744e-17 -11.145512)
(223.08583 -2.1731534e-17 -10.880498)
(222.18079 -4.1083522e-17 -10.598454)
(221.2875 -8.5137359e-20 -10.300393)
(220.40832 8.0858038e-20 -9.9875141)
(219.54548 -7.6298545e-20 -9.6611934)
(218.70097 0 -9.3229547)
(217.87661 -1.2195012e-16 -8.9744525)
(217.07397 1.1451703e-16 -8.6174385)
(216.29436 0 -8.2537341)
(215.53886 -5.075483e-17 -7.8852035)
(214.80827 1.9075928e-16 -7.5137169)
(214.10316 -2.2362396e-16 -7.1411261)
(213.42384 -2.1038184e-16 -6.7692357)
(212.77043 1.5773141e-16 -6.3997784)
(212.14281 1.1124188e-16 -6.034393)
(211.5407 -1.3885608e-16 -5.6746077)
(210.96365 -3.2554114e-17 -5.3218231)
(210.4111 -2.1385697e-16 -4.977305)
(209.88234 1.1437775e-16 -4.6421733)
(209.3766 -1.0727165e-16 -4.3174021)
(208.89305 1.0033542e-16 -4.0038172)
(208.43076 2.3508156e-16 -3.7020961)
(207.98879 -1.7581868e-16 -3.4127712)
(207.5661 0 -3.1362403)
(207.16155 -3.8472837e-17 -2.8727632)
(206.77391 -7.2013069e-17 -2.6224742)
(206.40188 1.3455932e-16 -2.38542)
(206.04403 1.2588817e-16 -2.1615251)
(205.69872 -2.3524891e-16 -1.9506249)
(205.3642 8.2388496e-17 -1.7524813)
(205.03858 5.1356046e-17 -1.5667866)
(204.71993 9.6008509e-17 -1.3931646)
(204.40645 1.3458983e-16 -1.2311651)
(204.0965 2.3281902e-20 -1.0802606)
(203.78844 0 -0.93983335)
(203.48018 0 -0.80928033)
(203.16851 -3.4246304e-17 -0.68835463)
(202.84912 9.6077349e-17 -0.57695768)
(202.51908 -8.9855329e-17 -0.47394859)
(202.17837 -8.4105252e-17 -0.37920591)
(201.82259 5.2480841e-17 -0.29694041)
(201.44608 0 -0.22023143)
(201.08181 4.6090779e-17 -0.13551855)
(200.68826 1.5896057e-20 -0.063920001)
(220.04399 0 -23.492099)
(258.45719 1.8806142e-20 -6.2726844)
(241.73537 9.0884014e-18 -23.255492)
(251.01668 2.8895316e-16 -8.007087)
(244.90665 3.3224237e-19 -21.241834)
(247.93003 -5.0682293e-16 -10.587791)
(245.37406 -3.2248235e-19 -18.867745)
(246.06101 4.5711419e-16 -13.051358)
(244.88713 -2.1031756e-16 -16.974712)
(244.6348 -1.2475456e-17 -14.734235)
(243.92058 1.1848558e-17 -15.983344)
(243.36638 -1.7991455e-16 -15.484359)
(242.72258 1.9167823e-16 -15.731941)
(242.07654 -1.8212375e-16 -15.696062)
(241.40105 3.067916e-16 -15.740327)
(240.70327 -3.0910169e-16 -15.753644)
(239.98139 1.3776349e-16 -15.763719)
(239.2359 0 -15.763116)
(238.46696 0 -15.752102)
(237.67501 1.4674324e-17 -15.729333)
(236.86063 -2.7824248e-17 -15.693748)
(236.02461 0 -15.644204)
(235.16793 1.9980107e-16 -15.579567)
(234.29182 4.7011847e-19 -15.498731)
(233.39769 -3.57576e-16 -15.400623)
(232.48721 1.6895611e-16 -15.284233)
(231.56224 1.9990473e-17 -15.148642)
(230.6249 0 -14.993036)
(229.67746 -1.7907308e-16 -14.816736)
(228.72241 1.350325e-16 -14.619225)
(227.76239 -2.239151e-16 -14.400163)
(226.80015 2.1076138e-16 -14.159415)
(225.83857 -2.2809441e-16 -13.897059)
(224.88054 2.1470174e-16 -13.613409)
(223.92898 7.6108735e-17 -13.309012)
(222.98678 0 -12.984657)
(222.05672 0 -12.641371)
(221.14149 4.2417723e-17 -12.280405)
(220.24357 3.9951492e-17 -11.903219)
(219.36525 -3.7613076e-17 -11.511461)
(218.5086 3.5396656e-17 -11.106942)
(217.6754 6.6779542e-17 -10.691599)
(216.86714 -6.2721262e-17 -10.267472)
(216.08505 3.5362586e-16 -9.8366589)
(215.33003 -2.7661615e-16 -9.4012866)
(214.60272 5.191781e-17 -8.9634758)
(213.90345 -4.8850515e-17 -8.5253059)
(213.23231 0 -8.0887882)
(212.58914 2.1470487e-16 -7.6558379)
(211.97356 -1.6081664e-16 -7.2282536)
(211.38502 0 -6.807697)
(210.82279 0 -6.3956828)
(210.28603 1.3231826e-16 -5.9935654)
(209.77378 -6.1845213e-17 -5.6025373)
(209.28503 0 -5.2236247)
(208.81869 -1.6248897e-16 -4.8576904)
(208.37367 1.0114467e-16 -4.5054383)
(207.94884 1.4196585e-16 -4.1674171)
(207.54307 -1.7659145e-16 -3.8440267)
(207.15517 1.6505605e-16 -3.535533)
(206.78391 -1.5395998e-16 -3.2420653)
(206.428 6.6983996e-20 -2.9636315)
(206.08608 0 -2.7001542)
(205.75669 6.2573421e-17 -2.4514462)
(205.43823 -2.9173953e-16 -2.2172345)
(205.12896 1.6315716e-16 -1.9971818)
(204.82701 0 -1.7908925)
(204.53047 -1.4184767e-16 -1.5979176)
(204.23752 8.8111783e-17 -1.4177538)
(203.94651 1.2325935e-16 -1.24982)
(203.65593 3.2163599e-20 -1.09342)
(203.36396 -7.1333043e-17 -0.94790636)
(203.06755 9.9753247e-17 -0.81305978)
(202.7626 -1.5495396e-16 -0.68852271)
(202.44642 8.6664247e-17 -0.57275049)
(202.11764 2.6922142e-17 -0.46725407)
(201.77025 5.0244688e-17 -0.37687282)
(201.40741 0 -0.28304241)
(201.0579 -4.3758835e-17 -0.18334177)
(200.63473 2.037553e-17 -0.1628737)
(220.46756 0 -26.985988)
(259.21051 9.826842e-18 -8.9065813)
(241.96297 -3.0641555e-16 -26.749633)
(251.52147 2.502083e-16 -10.766412)
(245.12892 2.5699907e-16 -24.61883)
(248.22013 -5.0126039e-16 -13.506324)
(245.553 2.3056543e-16 -22.05565)
(246.20601 2.3342935e-16 -16.132006)
(244.98977 -2.2122465e-16 -20.022889)
(244.67321 3.937755e-17 -17.858269)
(243.91474 0 -18.991087)
(243.3019 0 -18.552107)
(242.60454 -2.2395434e-17 -18.738965)
(241.89963 -1.7002891e-16 -18.702541)
(241.16452 1.4071269e-16 -18.719012)
(240.40501 1.908811e-17 -18.710422)
(239.61996 -3.618319e-17 -18.693805)
(238.80999 3.0870858e-16 -18.6641)
(237.97559 -2.2685924e-16 -18.620777)
(237.11752 2.462275e-16 -18.562381)
(236.23673 -2.034754e-16 -18.487644)
(235.33443 2.7587306e-17 -18.395268)
(234.41207 1.5672961e-16 -18.283991)
(233.47135 -1.9712737e-16 -18.152618)
(232.51421 0 -18.000028)
(231.54287 0 -17.825213)
(230.55975 0 -17.627306)
(229.56753 -1.9742479e-16 -17.405604)
(228.56905 1.8597602e-16 -17.1596)
(227.56733 -3.5238271e-17 -16.889003)
(226.56551 0 -16.593766)
(225.56683 -2.8247653e-16 -16.274102)
(224.57454 2.3609248e-16 -15.930491)
(223.59186 -5.5840105e-17 -15.563691)
(222.62197 1.5791446e-16 -15.174742)
(221.66788 -4.9074124e-17 -14.764941)
(220.73245 -1.8613453e-16 -14.335844)
(219.8183 2.1957401e-16 -13.889233)
(218.92778 -1.6484361e-16 -13.427089)
(218.06294 7.7753972e-17 -12.951558)
(217.22553 -7.2959776e-17 -12.464918)
(216.41692 1.3714748e-16 -11.969529)
(215.63815 -6.4264182e-17 -11.467803)
(214.88994 -2.4186411e-16 -10.962155)
(214.17265 5.1000019e-16 -10.454968)
(213.48634 -2.1240711e-16 -9.9485559)
(212.83078 -1.496778e-16 -9.4451356)
(212.2055 9.3061036e-17 -8.9467944)
(211.60979 8.7536419e-17 -8.4554719)
(211.04275 -1.6375577e-16 -7.9729425)
(210.50335 1.5300007e-16 -7.5008033)
(209.99041 0 -7.0404685)
(209.5027 1.3391328e-16 -6.5931659)
(209.03889 -1.8756749e-16 -6.1599392)
(208.59768 5.845086e-17 -5.7416522)
(208.17771 5.4473121e-17 -5.338996)
(207.77766 0 -4.9524987)
(207.39623 0 -4.5825336)
(207.03213 0 -4.2293293)
(206.6841 0 -3.892987)
(206.35082 0 -3.5734787)
(206.03096 -7.1559424e-17 -3.270665)
(205.72318 0 -2.9843289)
(205.42601 -5.4824363e-20 -2.7141582)
(205.1379 2.3105165e-16 -2.4597633)
(204.85715 -2.1493222e-16 -2.2207007)
(204.58196 -1.0004813e-16 -1.9964813)
(204.31045 -1.8601707e-16 -1.7865818)
(204.04079 2.592875e-16 -1.5904445)
(203.77134 4.765159e-20 -1.407432)
(203.50071 7.4673289e-17 -1.2367853)
(203.22727 0 -1.0778573)
(202.94825 0 -0.93041581)
(202.65998 0 -0.79369063)
(202.35989 -1.1142714e-16 -0.66604781)
(202.04473 0 -0.55103834)
(201.70815 -9.6252748e-17 -0.45210141)
(201.36201 1.3418844e-16 -0.33988677)
(201.02581 8.3181635e-17 -0.23094451)
(200.58077 -1.9270512e-17 -0.25682345)
(220.68231 0 -30.656561)
(259.76529 0 -11.648866)
(241.99813 3.223901e-16 -30.375365)
(251.84621 1.9340932e-17 -13.683692)
(245.16712 -2.6978766e-16 -28.105614)
(248.33121 0 -16.602065)
(245.53157 1.6164659e-17 -25.321905)
(246.22538 -3.0641422e-17 -19.366228)
(244.84474 0 -23.135894)
(244.45851 1.9314859e-16 -21.101502)
(243.64873 -4.1816433e-16 -22.095801)
(242.96677 1.9800787e-16 -21.724555)
(242.20607 2.3501814e-17 -21.85274)
(241.43244 0 -21.811225)
(240.62783 2.1088036e-17 -21.799037)
(239.79694 -3.4016287e-16 -21.764173)
(238.93928 7.4994314e-17 -21.716316)
(238.05576 2.5068611e-16 -21.651812)
(237.14727 2.3806859e-16 -21.569634)
(236.215 -2.5679052e-16 -21.468215)
(235.26043 0 -21.346121)
(234.28529 -2.8812392e-16 -21.201946)
(233.29163 2.4463646e-16 -21.034351)
(232.28175 -2.0619397e-16 -20.842118)
(231.25827 1.943428e-16 -20.624165)
(230.22404 -1.8417349e-16 -20.379576)
(229.18218 3.4743473e-16 -20.107654)
(228.13599 -1.6395341e-16 -19.807932)
(227.08896 1.5505663e-16 -19.480215)
(226.04467 -2.9232815e-16 -19.124595)
(225.00679 1.3758749e-16 -18.741473)
(223.97896 1.2993833e-16 -18.331575)
(222.96477 -2.4515667e-16 -17.895941)
(221.9677 5.6920518e-17 -17.435929)
(220.99099 -5.7110146e-19 -16.953201)
(220.03769 2.5505166e-16 -16.449685)
(219.11051 0 -15.927565)
(218.21183 1.9252974e-19 -15.389226)
(217.34365 0 -14.837216)
(216.50758 -7.9608759e-17 -14.2742)
(215.70483 -1.4960832e-16 -13.702913)
(214.93618 7.0241862e-17 -13.126109)
(214.20205 0 -12.546515)
(213.50245 -6.1895249e-17 -11.96679)
(212.83709 2.8970079e-16 -11.389484)
(212.20535 -3.2524056e-16 -10.817005)
(211.60635 -3.0474036e-16 -10.251596)
(211.03898 2.84532e-16 -9.6953122)
(210.50197 -1.7756296e-16 -9.1500055)
(209.99389 0 -8.6173199)
(209.51322 0 -8.098687)
(209.05839 7.2466055e-17 -7.5953277)
(208.62778 6.7627095e-17 -7.1082595)
(208.21976 1.2603242e-16 -6.6383032)
(207.83277 -5.8769461e-17 -6.1860954)
(207.46524 -1.0947255e-16 -5.7521007)
(207.11569 -2.0414072e-16 -5.3366254)
(206.78269 -9.5233732e-17 -4.9398297)
(206.46486 1.7680794e-16 -4.5617404)
(206.16088 0 -4.2022705)
(205.86943 -7.6578986e-17 -3.8612163)
(205.58918 -1.4234093e-16 -3.5382785)
(205.3188 1.3224745e-16 -3.2330928)
(205.0569 6.1338758e-17 -2.9452153)
(204.80198 5.7048216e-17 -2.6741379)
(204.55243 0 -2.4193091)
(204.30653 1.9665913e-16 -2.1801468)
(204.06246 1.8247693e-16 -1.9560548)
(203.81842 -2.5391084e-16 -1.7464189)
(203.57278 7.8528788e-17 -1.5505446)
(203.32422 -7.2781978e-17 -1.3676368)
(203.07127 -4.1220046e-20 -1.1970876)
(202.81151 2.5013625e-16 -1.0385676)
(202.54192 -2.318103e-16 -0.89080093)
(202.25984 5.3667358e-17 -0.75247465)
(201.95979 1.4926599e-16 -0.62919042)
(201.63637 -4.6105922e-17 -0.52111492)
(201.30922 -4.2703831e-17 -0.39026026)
(200.98554 0 -0.27649249)
(200.52528 3.6558034e-17 -0.34117924)
(220.69852 3.9205556e-16 -34.513617)
(260.12635 5.4075906e-19 -14.506765)
(241.81899 -3.5935157e-16 -34.148454)
(251.98447 0 -16.764411)
(244.94497 0 -31.668203)
(248.10266 -2.6811196e-16 -19.87053)
(245.20702 2.712298e-16 -28.642871)
(245.73085 6.4328893e-17 -22.761058)
(244.43136 -2.4416246e-16 -26.349168)
(243.96604 2.3094645e-16 -24.490342)
(243.09449 -2.4682697e-16 -25.324785)
(242.33063 2.0746066e-16 -25.016842)
(241.49456 -4.9216547e-17 -25.085863)
(240.64057 -4.6670959e-17 -25.02965)
(239.75503 -1.7685267e-16 -24.983766)
(238.84174 1.6704212e-16 -24.914872)
(237.90092 -3.5672033e-16 -24.827814)
(236.93388 5.996249e-16 -24.719634)
(235.94204 -2.8331516e-16 -24.588918)
(234.9272 -2.6881477e-16 -24.433958)
(233.89148 2.5349711e-16 -24.25319)
(232.83733 -3.0187064e-17 -24.045141)
(231.76752 -2.2723641e-16 -23.80847)
(230.68515 2.1406e-16 -23.542034)
(229.59361 2.5357205e-16 -23.244901)
(228.49655 -1.4298359e-16 -22.916397)
(227.39785 0 -22.556153)
(226.30152 2.5569941e-16 -22.164118)
(225.21171 -3.2116536e-16 -21.740602)
(224.13255 1.1300673e-16 -21.286276)
(223.06815 -2.8570035e-16 -20.802194)
(222.0225 2.0128955e-16 -20.289779)
(220.99936 -6.3423471e-17 -19.750812)
(220.00226 2.3834243e-16 -19.187405)
(219.03435 -2.2357071e-16 -18.601973)
(218.09841 -2.1070632e-16 -17.997183)
(217.19679 1.9749029e-16 -17.375905)
(216.33135 -4.6319534e-17 -16.741165)
(215.50349 0 -16.096079)
(214.71411 8.1962764e-17 -15.443795)
(213.96367 -7.6501297e-17 -14.787447)
(213.25213 0 -14.130087)
(212.5791 1.3470226e-16 -13.474653)
(211.94379 -6.3011239e-17 -12.823918)
(211.3451 -1.7667862e-16 -12.180462)
(210.78166 5.5109563e-16 -11.546651)
(210.25191 -2.0633301e-16 -10.924613)
(209.75411 9.6235283e-17 -10.316234)
(209.28641 -2.6983797e-16 -9.7231544)
(208.8469 -1.8294475e-19 -9.1467705)
(208.43363 1.5645215e-16 -8.5882449)
(208.04467 -1.4594967e-16 -8.048515)
(207.6781 -6.7921349e-17 -7.5283089)
(207.33207 -6.3267082e-17 -7.0281603)
(207.00482 -1.1813015e-16 -6.5484249)
(206.69466 2.1937622e-16 -6.0892981)
(206.4 0 -5.650831)
(206.11935 9.4799214e-17 -5.2329453)
(205.85132 -3.5274428e-16 -4.8354483)
(205.59458 2.4549648e-16 -4.4580525)
(205.34785 7.5973701e-17 -4.1003701)
(205.10984 1.4113555e-16 -3.7619391)
(204.8793 1.311315e-16 -3.4422482)
(204.65492 -1.2133078e-16 -3.1407235)
(204.4353 -1.1243224e-16 -2.8567416)
(204.21895 -3.1274944e-16 -2.5896481)
(204.00426 -3.9870642e-20 -2.3387731)
(203.78949 -8.9372847e-17 -2.1034517)
(203.5729 0 -1.8830111)
(203.35288 -2.2973698e-16 -1.6767034)
(203.12814 7.0841089e-17 -1.483735)
(202.89731 0 -1.3035548)
(202.6584 1.2118622e-16 -1.1356251)
(202.40922 0 -0.97816835)
(202.1467 1.0351484e-16 -0.83064047)
(201.86315 -1.4344405e-16 -0.70030668)
(201.55529 1.3254762e-16 -0.5824841)
(201.24894 -8.1620714e-17 -0.4336713)
(200.93657 7.5382156e-17 -0.31944407)
(200.4673 0 -0.4173608)
(220.50376 -4.1188065e-16 -38.563794)
(260.28113 3.6392166e-16 -17.49793)
(241.3904 -3.3338645e-16 -38.098634)
(251.86912 3.3153211e-16 -20.021143)
(244.43996 3.1747002e-16 -35.289618)
(247.64812 -1.8049208e-17 -23.324189)
(244.64085 -2.8426232e-16 -32.046578)
(245.10955 -2.6984457e-16 -26.347772)
(243.72386 2.8721615e-16 -29.681812)
(243.15123 0 -28.025922)
(242.20751 2.8658438e-17 -28.685105)
(241.34925 0 -28.428282)
(240.4252 -1.2889631e-16 -28.437659)
(239.47866 2.4337553e-16 -28.35512)
(238.50005 0 -28.267744)
(237.49276 0 -28.154551)
(236.45778 0 -28.017352)
(235.39704 3.9194603e-17 -27.853468)
(234.31271 0 -27.661194)
(233.2074 -2.4513458e-16 -27.438728)
(232.08407 3.3028032e-16 -27.184444)
(230.94609 1.2497143e-16 -26.896913)
(229.79718 1.7720237e-16 -26.57492)
(228.64138 -2.7833677e-16 -26.217553)
(227.48302 -5.2451177e-17 -25.824224)
(226.32665 -2.4821856e-16 -25.394713)
(225.17694 1.8681705e-16 -24.929209)
(224.03867 -2.2064703e-16 -24.428331)
(222.91654 8.2556369e-17 -23.893135)
(221.81517 7.8050442e-17 -23.325124)
(220.73895 0 -22.726227)
(219.69197 2.7765791e-16 -22.098772)
(218.67796 -2.6077782e-16 -21.445456)
(217.70017 0 -20.769283)
(216.76135 -2.3053617e-16 -20.07352)
(215.86369 2.1593238e-16 -19.361622)
(215.00882 -1.0175699e-16 -18.637163)
(214.19777 1.9051222e-16 -17.903771)
(213.43103 -2.6768505e-16 -17.165055)
(212.70852 1.2717247e-19 -16.424541)
(212.02968 -1.5640035e-16 -15.685616)
(211.39353 -7.3194626e-17 -14.951477)
(210.79869 -1.3737269e-16 -14.225094)
(210.24346 2.5609023e-16 -13.509176)
(209.72591 -1.1950531e-16 -12.806158)
(209.24391 0 -12.118184)
(208.79522 -3.7927523e-19 -11.447111)
(208.37752 9.721645e-17 -10.794509)
(207.98847 0 -10.161676)
(207.62574 8.4556833e-17 -9.5496518)
(207.28705 7.9060749e-17 -8.9592334)
(206.97022 -7.3406875e-17 -8.3909983)
(206.67313 2.7329828e-16 -7.8453237)
(206.39381 -2.5406497e-16 -7.322408)
(206.13037 -1.1816001e-16 -6.8222906)
(205.8811 -1.0976842e-16 -6.3448722)
(205.64438 1.0192286e-16 -5.8899322)
(205.41875 1.8906339e-16 -5.4571444)
(205.20285 -3.506982e-16 -5.0460926)
(204.9954 4.0642774e-16 -4.6562892)
(204.79521 -1.5059148e-16 -4.287166)
(204.6011 1.3958372e-16 -3.9381047)
(204.41192 -1.2920849e-16 -3.6084566)
(204.22647 2.3929051e-16 -3.2975253)
(204.04348 -3.3217424e-16 -3.0045827)
(203.8616 2.0476334e-16 -2.7288815)
(203.67936 -8.1093876e-20 -2.4696748)
(203.49515 8.7518341e-17 -2.2262341)
(203.30729 0 -1.9978263)
(203.11423 0 -1.7836612)
(202.91465 0 -1.5829883)
(202.70719 -1.271656e-16 -1.3952998)
(202.49043 1.727784e-20 -1.2197358)
(202.263 0 -1.0541527)
(202.02116 0 -0.89917732)
(201.75538 9.1946452e-17 -0.7629333)
(201.46574 -1.6942849e-16 -0.63477494)
(201.18179 0 -0.46963288)
(200.8787 0 -0.36002587)
(200.40635 -1.3191507e-16 -0.48765572)
(220.06467 2.7798533e-17 -42.816603)
(260.19298 -7.8794627e-16 -20.644694)
(240.68476 3.4880007e-16 -42.189783)
(251.232 -2.179244e-17 -23.459374)
(243.62174 3.7420113e-16 -39.031987)
(246.86049 -3.5289073e-16 -27.001162)
(243.76644 0 -35.566594)
(244.10354 -3.1787073e-16 -30.126354)
(242.66663 2.3368026e-16 -33.129137)
(241.97014 2.2194665e-16 -31.700504)
(240.94081 -2.3957535e-16 -32.179231)
(239.9741 0 -31.954632)
(238.94769 1.8989458e-19 -31.902234)
(237.89505 0 -31.779518)
(236.81022 3.8588926e-16 -31.639247)
(235.69661 -7.2897885e-16 -31.46808)
(234.55619 3.4415495e-16 -31.266007)
(233.39175 -4.0654094e-17 -31.030454)
(232.20649 -3.8629467e-17 -30.759538)
(231.00408 3.6713115e-17 -30.451456)
(229.7886 -6.8561545e-17 -30.104675)
(228.56459 -3.2478333e-16 -29.717969)
(227.33691 3.0567906e-16 -29.290484)
(226.11073 5.7624325e-17 -28.821797)
(224.89142 -2.7307644e-16 -28.31194)
(223.68444 -6.9479338e-19 -27.761468)
(222.49529 2.9003306e-16 -27.171442)
(221.32934 -1.8203552e-16 -26.543461)
(220.19173 -6.1006279e-19 -25.879634)
(219.08729 0 -25.182558)
(218.02039 0 -24.455275)
(216.9949 -7.1625604e-17 -23.70121)
(216.01405 1.3409421e-16 -22.924112)
(215.08044 0 -22.127963)
(214.19595 -1.18516e-16 -21.316904)
(213.36177 2.2176119e-16 -20.495143)
(212.57841 -1.0389298e-16 -19.666868)