/*--------------------------------*- C++ -*----------------------------------*\
  =========                 |
  \\      /  F ield         | OpenFOAM: The Open Source CFD Toolbox
   \\    /   O peration     | Website:  https://openfoam.org
    \\  /    A nd           | Version:  12
     \\/     M anipulation  |
\*---------------------------------------------------------------------------*/
FoamFile
{
    format      ascii;
    class       volScalarField;
    location    "0.005";
    object      k;
}
// * * * * * * * * * * * * * * * * * * * * * * * * * * * * * * * * * * * * * //

dimensions      [0 2 -2 0 0 0 0];

internalField   nonuniform List<scalar> 
16000
(
0.048480599
0.018957676
0.01946206
0.015871782
0.01365232
0.012358804
0.011582701
0.011127406
0.010813889
0.010605549
0.010452068
0.01033736
0.010247957
0.010177085
0.010119955
0.010073503
0.0100355
0.010004311
0.0099786754
0.0099576338
0.0099404316
0.0099264532
0.009915326
0.0099066618
0.0098996862
0.009894543
0.0098912417
0.0098892444
0.0098882752
0.0098886092
0.0098890656
0.0098909694
0.0098937017
0.0098971495
0.0099012537
0.0099059537
0.0099111781
0.0099168615
0.0099229471
0.0099293835
0.0099361158
0.0099430863
0.0099502451
0.0099575449
0.0099649355
0.009972369
0.0099798118
0.0099872365
0.0099946152
0.010001919
0.010009125
0.010016223
0.010023206
0.010030061
0.01003677
0.010043326
0.010049729
0.010055977
0.010062066
0.010067995
0.010073781
0.010079453
0.010085061
0.010090681
0.01009643
0.010102382
0.010108408
0.010114118
0.01011951
0.010126648
0.010140361
0.010164712
0.010193867
0.010209599
0.010188517
0.010132845
0.010068519
0.010019187
0.009990661
0.0099867173
0.045116205
0.01877889
0.018863994
0.015391013
0.01334539
0.012167812
0.01144606
0.011028724
0.010734775
0.010542329
0.010398543
0.01029221
0.010208952
0.010143386
0.010090643
0.010047971
0.010013232
0.0099849058
0.0099618052
0.0099430331
0.009927889
0.009915762
0.0099062728
0.0098992644
0.0098939169
0.0098900948
0.0098879516
0.0098870362
0.0098867381
0.0098885303
0.0098907575
0.009893707
0.0098974012
0.009901757
0.0099067086
0.0099121905
0.0099181392
0.0099244904
0.0099311859
0.0099381744
0.0099454034
0.0099528153
0.0099603601
0.0099679936
0.0099756692
0.0099833389
0.0099909681
0.0099985313
0.010006004
0.010013358
0.010020571
0.010027635
0.010034544
0.010041292
0.010047863
0.010054253
0.010060464
0.0100665
0.010072365
0.010078067
0.010083625
0.010089079
0.010094488
0.010099943
0.010105563
0.010111375
0.010117161
0.010122531
0.010127803
0.010135516
0.01015059
0.010175939
0.010203914
0.01021434
0.010185309
0.01012385
0.010059034
0.010012573
0.0099864327
0.0099871656
0.041876309
0.018757397
0.018563244
0.014946082
0.01302855
0.011973866
0.011303203
0.010926367
0.01065328
0.010477893
0.01034464
0.010247132
0.010170486
0.010110496
0.01006242
0.010023749
0.0099924807
0.0099672008
0.0099468037
0.0099304523
0.0099175074
0.0099073976
0.0098996737
0.0098943133
0.0098906894
0.0098883763
0.0098870933
0.0098881514
0.0098897385
0.0098920426
0.0098953163
0.0098993452
0.0099040238
0.0099092908
0.0099150808
0.0099213292
0.0099279734
0.0099349511
0.0099422038
0.0099496792
0.0099573261
0.0099650882
0.0099729161
0.0099807679
0.0099886025
0.0099963742
0.010004049
0.010011605
0.010019021
0.010026274
0.010033346
0.010040228
0.010046923
0.01005343
0.010059742
0.010065855
0.010071777
0.010077519
0.010083095
0.010088517
0.01009381
0.010099014
0.010104199
0.010109461
0.010114904
0.010120507
0.010126
0.010131076
0.010136409
0.010144957
0.01016156
0.010187657
0.010213695
0.010217225
0.010178761
0.010112209
0.010048486
0.01000589
0.0099830501
0.0099878596
0.038801744
0.018850866
0.01818012
0.01454876
0.012739635
0.011794322
0.01117238
0.010832155
0.010579058
0.010419261
0.010296117
0.010206791
0.010136468
0.010081758
0.010038146
0.010003312
0.0099753885
0.0099530568
0.0099352873
0.0099212966
0.0099104956
0.0099023798
0.0098964453
0.0098926055
0.0098905514
0.0098899908
0.0098906879
0.0098922687
0.0098949852
0.0098986079
0.0099029705
0.0099079959
0.0099136059
0.0099197221
0.0099262799
0.0099332154
0.0099404679
0.0099479771
0.0099556843
0.0099635365
0.009971484
0.0099794731
0.009987456
0.0099953943
0.010003253
0.010010993
0.010018581
0.010025998
0.01003323
0.010040262
0.010047078
0.010053674
0.010060057
0.010066234
0.010072208
0.010077978
0.010083555
0.010088957
0.010094206
0.01009932
0.010104323
0.01010926
0.010114207
0.010119264
0.010124506
0.010129851
0.010134994
0.010139768
0.010145281
0.010154949
0.010173412
0.010200184
0.010223272
0.010217588
0.010169125
0.010098643
0.010037509
0.0099992278
0.0099807566
0.0099885908
0.035369722
0.019031554
0.017784594
0.014160139
0.012467843
0.011624487
0.011048343
0.010743006
0.010509304
0.010364449
0.010251297
0.010169819
0.010105718
0.010056162
0.010016945
0.0099858969
0.0099612879
0.0099418898
0.0099267454
0.009915124
0.0099064727
0.0099003536
0.0098962914
0.0098937878
0.0098936772
0.0098944641
0.0098964553
0.0098995222
0.0099034581
0.009908186
0.0099136031
0.0099196027
0.009926095
0.0099330043
0.009940264
0.0099478109
0.0099555859
0.0099635306
0.0099715882
0.0099797053
0.0099878347
0.0099959267
0.010003937
0.010011832
0.010019584
0.01002716
0.010034534
0.01004169
0.01004862
0.010055318
0.010061775
0.010067991
0.010073975
0.010079743
0.010085307
0.010090673
0.010095852
0.010100867
0.010105747
0.010110516
0.0101152
0.010119843
0.010124529
0.010129357
0.010134363
0.010139397
0.010144143
0.010148657
0.010154578
0.010165756
0.010186289
0.010213134
0.010231367
0.010214271
0.010156017
0.010083522
0.010026505
0.009992735
0.0099796207
0.0099893564
0.033019286
0.019267313
0.017320691
0.013766747
0.012214506
0.011465171
0.010932539
0.010659769
0.010444955
0.010314038
0.010210621
0.010136602
0.010078572
0.010034023
0.0099991084
0.0099717808
0.0099504449
0.0099339571
0.0099214274
0.0099121778
0.0099056848
0.0099015464
0.0098994381
0.0098990685
0.0098999793
0.009902285
0.009905672
0.0099099882
0.0099151198
0.0099209512
0.0099273739
0.0099342835
0.0099415896
0.0099492115
0.0099570824
0.0099651394
0.009973325
0.0099815844
0.0099898634
0.0099981113
0.010006284
0.010014337
0.010022234
0.010029945
0.010037451
0.01004473
0.01005176
0.010058534
0.010065048
0.010071306
0.010077306
0.010083055
0.010088563
0.010093854
0.010098945
0.010103853
0.010108589
0.010113177
0.010117651
0.010122042
0.010126378
0.010130708
0.010135118
0.010139696
0.010144426
0.010149084
0.010153402
0.010157785
0.010164503
0.010177703
0.010200296
0.01022601
0.010236764
0.010206747
0.010139547
0.010067433
0.010015818
0.0099866577
0.0099793679
0.0099901333
0.031100303
0.019525798
0.016669139
0.013402824
0.011979211
0.011316459
0.010825588
0.010582674
0.010386129
0.010268073
0.010174155
0.010107261
0.010055163
0.010015506
0.0099848212
0.0099611691
0.0099430825
0.0099294976
0.0099195855
0.0099127194
0.009908407
0.0099062689
0.0099059623
0.0099072182
0.009909865
0.009913632
0.0099183835
0.0099239677
0.009930251
0.0099371265
0.0099444869
0.0099522266
0.0099602517
0.00996848
0.0099768438
0.0099852818
0.0099937394
0.010002166
0.010010513
0.010018734
0.010026791
0.010034648
0.010042276
0.010049651
0.010056765
0.010063606
0.010070162
0.01007643
0.010082417
0.010088131
0.010093582
0.010098779
0.01010374
0.01010849
0.010113053
0.010117452
0.010121705
0.010125832
0.010129866
0.010133846
0.01013781
0.010141812
0.010145938
0.010150246
0.010154647
0.010158864
0.010162774
0.010167277
0.010175312
0.010191004
0.010215123
0.010238149
0.0102384
0.010194136
0.010120181
0.010051042
0.010005746
0.0099808193
0.0099797979
0.0099909015
0.028654425
0.019755608
0.015884697
0.013066194
0.011762189
0.011178593
0.010727761
0.010511746
0.010332987
0.010226817
0.010142142
0.010082091
0.01003579
0.010000935
0.0099744188
0.0099544098
0.0099395584
0.0099288769
0.009921592
0.0099171242
0.0099150079
0.0099148914
0.0099164639
0.0099194537
0.0099236475
0.0099288733
0.0099349564
0.0099417493
0.0099491198
0.0099569572
0.0099651552
0.0099736084
0.0099822222
0.009990913
0.0099996144
0.010008268
0.010016824
0.010025237
0.010033468
0.01004148
0.01004924
0.010056724
0.010063912
0.010070791
0.01007736
0.01008362
0.010089569
0.010095212
0.010100562
0.010105635
0.010110449
0.01011502
0.010119369
0.010123523
0.010127512
0.010131363
0.010135097
0.010138735
0.010142306
0.010145853
0.01014943
0.010153103
0.010156941
0.010160951
0.01016496
0.010168689
0.010172303
0.010177356
0.010187323
0.010205756
0.01023023
0.010247998
0.010233965
0.010176244
0.010098747
0.010034988
0.0099964075
0.0099773692
0.0099806351
0.0099916453
0.02677392
0.019962764
0.015205837
0.012755029
0.011563366
0.011051319
0.010638968
0.01044732
0.010285762
0.010190595
0.010114882
0.010061438
0.010020807
0.0099906773
0.0099682845
0.0099518994
0.0099402808
0.0099325129
0.0099278723
0.0099258215
0.0099259194
0.0099278321
0.0099312654
0.009935962
0.0099417214
0.0099483572
0.0099557091
0.0099636295
0.0099719836
0.0099806595
0.0099895518
0.0099985578
0.010007584
0.010016548
0.010025388
0.01003405
0.010042492
0.010050679
0.010058582
0.010066174
0.010073437
0.010080356
0.010086925
0.010093139
0.010099009
0.010104545
0.01010976
0.010114664
0.010119278
0.010123624
0.010127725
0.010131605
0.010135288
0.010138804
0.010142185
0.01014546
0.010148651
0.01015178
0.010154875
0.010157984
0.010161176
0.010164524
0.01016807
0.010171738
0.010175283
0.010178527
0.010182103
0.010188313
0.010200812
0.010221728
0.010244627
0.010253845
0.010223301
0.010153562
0.01007632
0.010019883
0.0099879999
0.0099760356
0.0099816104
0.0099923532
0.025150168
0.020170107
0.014597932
0.012469436
0.011382766
0.010934719
0.010559206
0.010389652
0.01024469
0.010159728
0.01009269
0.010045671
0.0100106
0.0099851467
0.0099668516
0.0099540904
0.0099457168
0.0099408816
0.0099389084
0.0099392918
0.0099416137
0.0099455548
0.0099508353
0.0099572038
0.0099644606
0.0099724257
0.0099809393
0.0099898552
0.0099990379
0.010008375
0.010017762
0.010027104
0.010036311
0.010045307
0.010054037
0.010062456
0.010070535
0.01007825
0.010085586
0.010092532
0.010099083
0.010105238
0.010111004
0.010116388
0.01012141
0.010126091
0.010130456
0.010134523
0.010138316
0.010141864
0.010145194
0.010148334
0.010151314
0.010154164
0.010156916
0.010159601
0.010162238
0.01016485
0.010167469
0.010170152
0.010172978
0.010176015
0.010179248
0.010182506
0.010185528
0.010188401
0.010192393
0.010200497
0.010215965
0.010238278
0.01025748
0.010253071
0.010205131
0.010127096
0.010054085
0.010006245
0.0099803793
0.0099760526
0.0099826958
0.0099930171
0.023631532
0.020337546
0.014076388
0.012208296
0.011219849
0.010828684
0.010488591
0.010338938
0.010209957
0.010134552
0.010075918
0.010035208
0.010005619
0.0099848246
0.009970626
0.0099615078
0.0099564026
0.0099545231
0.0099552334
0.0099580569
0.0099625936
0.0099685329
0.0099756052
0.0099835651
0.0099922127
0.010001368
0.010010874
0.010020587
0.010030374
0.010040124
0.010049739
0.010059134
0.010068228
0.010076959
0.010085281
0.010093165
0.010100597
0.010107569
0.010114085
0.010120148
0.010125771
0.010130968
0.010135757
0.010140158
0.010144201
0.010147915
0.010151335
0.010154486
0.010157397
0.010160097
0.010162619
0.010164993
0.01016725
0.010169424
0.010171544
0.010173638
0.010175724
0.010177826
0.010179986
0.010182273
0.010184766
0.010187496
0.010190367
0.010193133
0.01019563
0.010198427
0.010203529
0.010214245
0.010232646
0.0102541
0.010265715
0.010243896
0.010179816
0.010098515
0.010033172
0.0099944604
0.0099755002
0.0099769031
0.0099838208
0.0099936321
0.022272796
0.020431403
0.013610623
0.011970439
0.011073929
0.010733295
0.010427227
0.010295487
0.010181858
0.010115512
0.010065036
0.010030575
0.010006419
0.009990292
0.0099802063
0.0099747547
0.0099729422
0.0099740339
0.009977429
0.0099826714
0.0099893759
0.0099972362
0.010005988
0.010015392
0.010025246
0.010035371
0.010045616
0.010055842
0.010065922
0.010075754
0.010085251
0.010094342
0.010102968
0.010111081
0.010118656
0.010125682
0.010132164
0.010138114
0.010143554
0.010148507
0.010153
0.010157063
0.010160725
0.010164018
0.010166977
0.010169643
0.010172052
0.010174238
0.01017623
0.01017806
0.010179761
0.010181365
0.010182903
0.010184408
0.010185907
0.010187425
0.010188979
0.010190598
0.010192336
0.01019427
0.010196458
0.010198861
0.010201286
0.010203494
0.01020561
0.010208868
0.010215957
0.010229764
0.0102501
0.010268306
0.010267172
0.010225339
0.010148725
0.010069827
0.010014567
0.0099847363
0.009973952
0.0099779882
0.0099849391
0.0099941964
0.021044475
0.020435173
0.013183321
0.011754831
0.010944394
0.010648724
0.010375296
0.010259715
0.010160799
0.010103163
0.010060632
0.010032403
0.010013667
0.010002226
0.00999628
0.0099945213
0.009996015
0.010000069
0.010006111
0.010013699
0.010022457
0.010032082
0.010042312
0.010052913
0.010063685
0.010074452
0.010085073
0.010095419
0.010105381
0.010114871
0.010123823
0.010132189
0.010139936
0.010147042
0.010153506
0.010159341
0.010164572
0.010169234
0.010173366
0.010177008
0.010180203
0.010182991
0.010185414
0.01018751
0.010189321
0.010190891
0.01019226
0.010193463
0.010194532
0.010195497
0.01019639
0.010197244
0.010198088
0.01019895
0.010199855
0.010200825
0.010201883
0.010203065
0.010204435
0.010206061
0.010207949
0.010209964
0.010211852
0.010213527
0.01021565
0.010220176
0.010230102
0.010247016
0.010266673
0.010277361
0.01025797
0.010197216
0.010114247
0.010042997
0.0099990503
0.0099764211
0.0099742386
0.0099792177
0.0099860208
0.0099947106
0.019937863
0.020287133
0.012796692
0.011560679
0.0108309
0.010575136
0.010333012
0.01023209
0.010147266
0.010098154
0.010063423
0.010041446
0.010028145
0.010021428
0.010019649
0.01002159
0.010026365
0.010033314
0.01004189
0.010051655
0.010062246
0.010073359
0.010084735
0.01009615
0.010107412
0.010118358
0.010128862
0.010138818
0.010148145
0.010156783
0.010164696
0.010171869
0.0101783
0.010184002
0.010188999
0.010193331
0.010197044
0.01020019
0.010202827
0.010205008
0.010206785
0.010208211
0.010209331
0.01021019
0.010210832
0.0102113
0.010211635
0.010211873
0.010212044
0.010212177
0.0102123
0.010212445
0.010212638
0.0102129
0.010213253
0.01021372
0.010214332
0.010215137
0.010216198
0.010217546
0.0102191
0.010220632
0.010221953
0.010223324
0.010226127
0.010232928
0.010246102
0.010264771
0.01028087
0.010278355
0.010237548
0.010161514
0.010079486
0.010019612
0.0099868321
0.0099729684
0.009975295
0.0099804907
0.0099870481
0.0099951768
0.018936611
0.019711262
0.012447682
0.011387114
0.010733383
0.010512745
0.01030066
0.01021323
0.01014195
0.010101351
0.010074328
0.010058657
0.010050822
0.010048851
0.010051226
0.010056808
0.010064751
0.010074419
0.010085284
0.010096914
0.010108953
0.010121104
0.01013312
0.01014479
0.010155946
0.010166453
0.010176214
0.010185161
0.010193254
0.010200475
0.010206827
0.010212333
0.01021703
0.010220964
0.010224187
0.01022676
0.010228749
0.010230221
0.010231243
0.010231877
0.010232183
0.010232216
0.010232026
0.010231658
0.010231155
0.010230557
0.010229901
0.010229222
0.010228548
0.010227906
0.01022732
0.010226815
0.010226413
0.010226131
0.010225987
0.010226009
0.010226241
0.010226737
0.010227535
0.010228597
0.010229741
0.010230713
0.010231572
0.010233172
0.01023758
0.010247464
0.010263703
0.010281536
0.010289247
0.010267052
0.010205695
0.010121616
0.010047468
0.010000707
0.0099770687
0.0099726778
0.0099765495
0.009981747
0.0099880119
0.009995598
0.018029266
0.018522236
0.012135576
0.01123346
0.010652107
0.010462012
0.010278803
0.010204099
0.01014589
0.010113888
0.010094525
0.010085196
0.010082819
0.010085544
0.01009196
0.010100995
0.010111838
0.010123869
0.010136577
0.010149542
0.01016242
0.010174933
0.010186861
0.010198031
0.010208314
0.010217625
0.010225916
0.010233172
0.010239405
0.010244648
0.010248948
0.01025237
0.010254985
0.010256868
0.010258096
0.010258745
0.010258894
0.010258616
0.010257983
0.010257061
0.010255909
0.010254582
0.010253128
0.01025159
0.010250006
0.010248413
0.010246841
0.010245322
0.010243881
0.010242541
0.01024132
0.010240236
0.010239306
0.010238543
0.010237967
0.010237617
0.010237547
0.010237796
0.010238345
0.010239057
0.0102397
0.01024014
0.010240888
0.010243566
0.010250666
0.010263953
0.010281202
0.010294075
0.010286791
0.010242751
0.010165177
0.010081835
0.010020369
0.0099867586
0.009972173
0.0099736908
0.0099778838
0.0099829538
0.0099889086
0.0099959777
0.017209407
0.017261952
0.011863621
0.011099799
0.01058622
0.010423906
0.010268485
0.010206069
0.010160472
0.010137159
0.010125384
0.010122351
0.010125317
0.010132544
0.010142708
0.010154796
0.010168022
0.010181786
0.0101956
0.010209071
0.010221893
0.010233833
0.010244726
0.010254464
0.010262985
0.010270272
0.010276343
0.010281245
0.010285049
0.010287837
0.010289699
0.010290733
0.010291037
0.010290708
0.010289835
0.010288504
0.010286796
0.010284785
0.01028254
0.010280123
0.010277591
0.010274991
0.010272368
0.010269757
0.010267191
0.0102647
0.010262311
0.010260048
0.010257933
0.010255983
0.010254211
0.010252627
0.01025124
0.010250067
0.010249136
0.010248496
0.010248197
0.010248237
0.010248502
0.010248766
0.010248852
0.010249008
0.010250388
0.01025519
0.010265554
0.010281339
0.010296781
0.010299707
0.010271419
0.010205997
0.010120644
0.010046185
0.0099993317
0.0099763266
0.0099716746
0.0099749653
0.0099792067
0.0099840948
0.0099897373
0.0099963193
0.016471092
0.016325289
0.011631166
0.010986468
0.010536676
0.010399737
0.010271109
0.010220721
0.010187286
0.010172697
0.010168359
0.010171434
0.010179433
0.010190719
0.010204035
0.010218425
0.010233135
0.01024761
0.010261414
0.010274223
0.010285806
0.010296017
0.010304779
0.010312077
0.010317935
0.010322416
0.010325608
0.010327621
0.010328573
0.010328589
0.010327788
0.01032629
0.010324206
0.010321641
0.010318688
0.010315432
0.010311948
0.010308305
0.010304562
0.010300775
0.01029699
0.010293248
0.010289584
0.010286027
0.010282602
0.010279331
0.010276237
0.010273338
0.01027065
0.010268184
0.010265947
0.010263941
0.010262174
0.010260668
0.010259465
0.010258616
0.010258141
0.010257959
0.01025786
0.01025761
0.010257271
0.010257665
0.01026062
0.010268452
0.010282063
0.010297897
0.010307014
0.01029209
0.010241536
0.010160898
0.010077617
0.01001721
0.0099848823
0.009971214
0.0099727277
0.0099763181
0.0099804748
0.0099851626
0.0099904989
0.0099966259
0.015806481
0.015366152
0.011432589
0.010893858
0.010504328
0.010391103
0.010288201
0.010249854
0.010228141
0.010222186
0.010224957
0.01023366
0.010246007
0.010260451
0.010275819
0.01029123
0.01030602
0.010319725
0.010332029
0.010342726
0.010351709
0.010358958
0.010364507
0.010368444
0.010370883
0.010371963
0.010371829
0.010370635
0.010368533
0.010365667
0.010362171
0.01035817
0.010353775
0.010349086
0.010344189
0.010339159
0.01033406
0.010328951
0.010323878
0.010318887
0.010314012
0.010309285
0.010304731
0.01030037
0.010296219
0.010292295
0.010288613
0.010285187
0.010282027
0.010279137
0.010276518
0.010274169
0.010272099
0.010270343
0.010268953
0.010267962
0.010267322
0.010266851
0.010266291
0.010265556
0.010265174
0.010266653
0.010272215
0.010283393
0.010298653
0.010310994
0.010306871
0.010270967
0.010199821
0.010113401
0.010040652
0.0099958108
0.009974426
0.0099710274
0.0099740187
0.0099776435
0.0099816697
0.0099861533
0.0099911947
0.0099969005
0.015209733
0.014662278
0.011269007
0.010822742
0.010490273
0.010400147
0.010321861
0.010295725
0.010285178
0.0102874
0.010296473
0.010309714
0.010325032
0.010341015
0.010356633
0.010371173
0.010384138
0.010395242
0.010404345
0.010411414
0.010416495
0.0104197
0.010421177
0.010421102
0.010419661
0.010417039
0.010413417
0.010408967
0.010403848
0.010398206
0.010392169
0.010385851
0.010379351
0.010372755
0.010366135
0.010359551
0.010353054
0.010346686
0.010340484
0.010334476
0.01032869
0.010323146
0.010317858
0.010312838
0.010308097
0.010303644
0.010299489
0.010295641
0.010292104
0.010288876
0.010285952
0.010283333
0.010281041
0.01027912
0.010277616
0.010276511
0.01027566
0.010274799
0.010273738
0.010272753
0.010273006
0.010276552
0.010285393
0.010299327
0.010313252
0.010317394
0.01029432
0.010235635
0.010151712
0.010069636
0.010011941
0.0099822189
0.0099702808
0.0099721457
0.0099753468
0.0099788996
0.0099827824
0.0099870651
0.0099918266
0.0099971455
0.014675505
0.013913695
0.011137967
0.010775669
0.010496474
0.010430083
0.01037501
0.010360946
0.010360438
0.010369512
0.010383118
0.010398802
0.010414752
0.010429811
0.010443224
0.010454549
0.010463553
0.010470185
0.010474516
0.010476691
0.010476902
0.010475367
0.010472316
0.010467976
0.010462563
0.010456278
0.010449303
0.010441802
0.010433919
0.010425781
0.010417499
0.010409164
0.010400856
0.010392641
0.010384571
0.010376691
0.010369037
0.010361635
0.01035451
0.010347681
0.010341161
0.010334961
0.010329089
0.010323549
0.010318345
0.01031348
0.010308959
0.010304784
0.010300954
0.010297461
0.010294302
0.010291488
0.010289052
0.010287042
0.010285468
0.010284225
0.010283067
0.010281729
0.010280274
0.010279542
0.010281342
0.010287831
0.010299759
0.010314153
0.010323578
0.010311793
0.010267407
0.010190739
0.010103867
0.010033803
0.0099918559
0.0099724438
0.009970595
0.0099734127
0.0099766196
0.0099800688
0.0099838072
0.009987897
0.0099923964
0.0099973631
0.014203374
0.013321271
0.011043497
0.010757056
0.010526892
0.010484819
0.01045068
0.010447376
0.010454496
0.010467659
0.010482695
0.010497572
0.010510937
0.010522052
0.010530551
0.010536341
0.010539489
0.01054018
0.010538668
0.010535232
0.010530154
0.010523708
0.010516148
0.010507706
0.010498588
0.010488974
0.010479023
0.010468867
0.010458622
0.010448385
0.010438239
0.01042825
0.010418474
0.010408955
0.010399727
0.010390818
0.010382249
0.010374035
0.010366189
0.010358719
0.01035163
0.010344925
0.010338605
0.010332668
0.010327113
0.010321939
0.010317145
0.010312726
0.010308674
0.010304981
0.01030165
0.010298709
0.010296203
0.010294159
0.010292513
0.010291053
0.010289478
0.010287671
0.010286148
0.010286392
0.010290565
0.01030025
0.010314327
0.010326545
0.010324839
0.010294634
0.010229027
0.010142626
0.010062091
0.010007084
0.0099798943
0.0099695856
0.0099717288
0.0099746632
0.0099778013
0.0099811398
0.0099847404
0.0099886482
0.0099929056
0.0099975549
0.013798394
0.01285243
0.010988286
0.010771826
0.010602165
0.010567407
0.010550079
0.010554098
0.010564587
0.010577476
0.01058967
0.010599782
0.010607091
0.01061137
0.010612676
0.010611239
0.010607372
0.010601422
0.01059374
0.010584659
0.010574476
0.010563456
0.010551825
0.01053978
0.010527485
0.010515076
0.01050267
0.010490362
0.010478229
0.010466336
0.010454736
0.010443469
0.010432567
0.010422056
0.010411954
0.010402271
0.010393016
0.010384194
0.010375809
0.010367861
0.010360349
0.010353271
0.01034662
0.010340392
0.010334582
0.010329184
0.010324192
0.010319593
0.010315376
0.010311537
0.010308094
0.010305091
0.010302569
0.010300504
0.01029873
0.010296942
0.010294885
0.010292762
0.01029168
0.010293689
0.010300896
0.010313416
0.010326822
0.010333682
0.01031636
0.01026524
0.010184704
0.010097626
0.010029414
0.0099893475
0.0099711908
0.0099702153
0.0099729031
0.009975824
0.0099788721
0.0099821066
0.0099855784
0.0099893175
0.0099933551
0.0099977224
0.013469034
0.012470706
0.010976443
0.010820723
0.01069836
0.01067738
0.010669986
0.010675493
0.01068349
0.010690841
0.010695664
0.010697358
0.010695839
0.010691342
0.010684237
0.010674953
0.010663913
0.010651507
0.01063808
0.01062393
0.010609307
0.010594414
0.010579421
0.010564461
0.010549642
0.010535052
0.01052076
0.01050682
0.010493275
0.010480157
0.010467493
0.010455299
0.01044359
0.010432372
0.010421649
0.010411421
0.010401685
0.010392438
0.010383676
0.010375393
0.010367585
0.010360244
0.010353362
0.01034693
0.010340942
0.010335387
0.010330252
0.01032552
0.01032118
0.010317239
0.010313733
0.010310716
0.010308199
0.010306077
0.010304077
0.010301862
0.010299365
0.010297268
0.010297287
0.010301696
0.01031172
0.010325738
0.010337316
0.010332074
0.010297731
0.0102285
0.010140664
0.010060276
0.01000571
0.0099791437
0.0099690686
0.0099712538
0.0099740082
0.0099768622
0.0099798225
0.009982964
0.0099863175
0.0099899036
0.0099937456
0.0099978665
0.013231565
0.012189707
0.011011052
0.010909891
0.010823163
0.010807008
0.010801024
0.010801014
0.010800453
0.010797541
0.010791556
0.01078258
0.010770979
0.010757237
0.010741833
0.010725213
0.010707761
0.010689798
0.010671582
0.010653322
0.01063518
0.010617281
0.010599722
0.010582573
0.010565889
0.010549707
0.010534057
0.010518956
0.010504419
0.010490454
0.010477062
0.010464244
0.010451997
0.010440315
0.01042919
0.010418612
0.01040857
0.010399055
0.010390055
0.010381562
0.010373566
0.010366057
0.010359027
0.010352466
0.010346361
0.010340699
0.010335461
0.010330629
0.010326197
0.01032219
0.010318661
0.010315656
0.010313129
0.010310873
0.010308543
0.010305868
0.010303101
0.010301455
0.010303057
0.010310193
0.010322906
0.010335839
0.010342301
0.010323971
0.010271574
0.01019008
0.010101915
0.010032186
0.0099902557
0.0099713159
0.0099696458
0.0099722423
0.0099749861
0.0099777587
0.0099806464
0.0099837054
0.0099869532
0.0099904047
0.0099940773
0.009997988
0.013091539
0.012008345
0.01109123
0.011029224
0.010962814
0.010943616
0.010929667
0.010917726
0.010904111
0.010888251
0.010870194
0.010850349
0.010829195
0.010807188
0.010784712
0.010762084
0.010739548
0.010717295
0.010695464
0.010674158
0.010653448
0.010633385
0.010613999
0.010595308
0.010577322
0.010560041
0.010543462
0.010527578
0.010512379
0.010497856
0.010483995
0.010470782
0.010458204
0.010446244
0.010434885
0.010424109
0.010413901
0.010404243
0.01039512
0.010386519
0.010378427
0.010370833
0.010363727
0.010357099
0.010350935
0.010345216
0.01033992
0.010335026
0.010330542
0.01032651
0.010322995
0.01032002
0.010317454
0.010314983
0.010312237
0.010309137
0.010306372
0.010305711
0.010309306
0.01031845
0.010332606
0.010344854
0.010341176
0.010309877
0.010243042
0.010155226
0.010071413
0.01001228
0.0099816787
0.0099687228
0.0099704617
0.0099731129
0.0099758007
0.0099785051
0.0099813345
0.0099843225
0.00998748
0.0099908179
0.0099943493
0.009998087
0.013009902
0.011927199
0.011232703
0.011162829
0.011101664
0.011069398
0.011040829
0.011013508
0.010985644
0.010957165
0.010928269
0.010899278
0.010870485
0.010842131
0.010814397
0.010787415
0.01076127
0.010736018
0.01071169
0.010688299
0.010665845
0.010644316
0.010623697
0.010603967
0.010585104
0.010567083
0.010549879
0.010533469
0.010517829
0.010502936
0.010488768
0.010475303
0.010462519
0.010450394
0.010438905
0.010428029
0.010417745
0.01040803
0.010398864
0.01039023
0.010382111
0.010374496
0.010367376
0.010360741
0.010354578
0.010348868
0.010343582
0.010338704
0.010334244
0.010330254
0.010326806
0.010323893
0.010321308
0.010318631
0.0103155
0.010312077
0.010309465
0.010309902
0.010315688
0.010326557
0.010339729
0.010349977
0.010337161
0.010293503
0.010217153
0.01012754
0.01004993
0.0099990034
0.0099762039
0.0099685607
0.0099711304
0.0099738083
0.0099764338
0.0099790897
0.0099818737
0.0099848051
0.0099878906
0.0099911387
0.0099945596
0.0099981632
0.013000939
0.011879392
0.01138093
0.011287973
0.011217054
0.011167565
0.011122932
0.011081406
0.011041635
0.011003376
0.010966539
0.010931127
0.010897143
0.010864583
0.010833429
0.010803649
0.010775205
0.010748053
0.010722144
0.01069743
0.010673862
0.010651391
0.010629972
0.010609558
0.010590108
0.010571582
0.010553944
0.01053716
0.010521198
0.010506029
0.010491627
0.010477966
0.010465021
0.010452767
0.010441179
0.01043023
0.010419894
0.010410145
0.010400959
0.010392314
0.010384194
0.010376586
0.010369483
0.010362877
0.010356757
0.010351104
0.010345891
0.010341103
0.010336749
0.010332873
0.010329541
0.010326719
0.010324152
0.010321368
0.010318044
0.010314567
0.010312262
0.010313438
0.010320712
0.010333244
0.010344641
0.010350882
0.010331924
0.010279506
0.010198155
0.010109138
0.010036923
0.0099916074
0.0099720341
0.0099689302
0.0099716078
0.00997429
0.0099768689
0.0099794941
0.009982247
0.0099851392
0.0099881748
0.0099913606
0.0099947048
0.0099982158
0.013075045
0.011895695
0.011490481
0.011379768
0.011294638
0.011230251
0.011173465
0.011122177
0.011074739
0.011030471
0.010988921
0.010949793
0.010912857
0.010877933
0.010844867
0.010813526
0.010783795
0.010755569
0.010728756
0.010703271
0.01067904
0.010655992
0.010634064
0.010613198
0.010593342
0.010574449
0.010556475
0.010539382
0.010523134
0.010507702
0.010493056
0.01047917
0.010466021
0.010453581
0.010441826
0.010430727
0.010420254
0.010410377
0.01040107
0.01039231
0.010384081
0.010376375
0.01036919
0.010362518
0.010356346
0.010350651
0.010345405
0.010340594
0.010336224
0.010332354
0.01032904
0.010326205
0.010323571
0.010320694
0.010317335
0.010313938
0.010311954
0.010313902
0.010322116
0.010336047
0.010347279
0.010351135
0.010328612
0.010272987
0.010190101
0.010101773
0.010031864
0.0099888696
0.0099704981
0.009969097
0.0099718463
0.0099745325
0.0099770876
0.009979697
0.0099824344
0.0099853074
0.0099883185
0.0099914734
0.0099947792
0.009998243
0.013191704
0.011950146
0.011546651
0.011426577
0.011331717
0.011259593
0.011197085
0.011141564
0.011090979
0.011044344
0.01100099
0.010960464
0.01092243
0.010886627
0.010852844
0.010820906
0.010790665
0.010761994
0.010734784
0.010708935
0.010684363
0.01066099
0.010638747
0.01061757
0.010597405
0.010578201
0.010559912
0.010542498
0.010525923
0.010510157
0.01049517
0.010480938
0.010467437
0.010454642
0.010442527
0.010431062
0.010420216
0.010409957
0.010400257
0.010391094
0.010382457
0.010374345
0.010366758
0.010359689
0.010353116
0.010347007
0.010341342
0.01033611
0.010331295
0.010327005
0.010323332
0.010320128
0.010317113
0.010313961
0.01031042
0.010306286
0.010303292
0.010305638
0.010314315
0.010327832
0.010342706
0.010352158
0.010335141
0.010280169
0.010196742
0.010106757
0.0100346
0.0099897316
0.0099707254
0.0099689791
0.0099718417
0.0099745479
0.0099771016
0.0099797051
0.0099824392
0.0099853099
0.0099883193
0.0099914731
0.0099947786
0.009998243
75.672079
7.0078407
0.25400485
0.038813333
0.035625867
0.024053633
0.02205649
0.018161239
0.01702546
0.015333753
0.014627904
0.013865094
0.013398301
0.013093459
0.012815026
0.012562964
0.012332874
0.012120724
0.011932837
0.011770891
0.011630725
0.01150776
0.011398775
0.011301461
0.011214035
0.011135108
0.011063599
0.01099861