/*--------------------------------*- C++ -*----------------------------------*\
  =========                 |
  \\      /  F ield         | OpenFOAM: The Open Source CFD Toolbox
   \\    /   O peration     | Website:  https://openfoam.org
    \\  /    A nd           | Version:  12
     \\/     M anipulation  |
\*---------------------------------------------------------------------------*/
FoamFile
{
    format      ascii;
    class       volScalarField;
    location    "0.005";
    object      Ma;
}
// * * * * * * * * * * * * * * * * * * * * * * * * * * * * * * * * * * * * * //

dimensions      [];

internalField   nonuniform List<scalar> 
16000
(
0.64872936
0.75577936
0.71373237
0.73590098
0.72199264
0.72837935
0.7228507
0.72413668
0.72149269
0.72090289
0.71919128
0.717972
0.71648587
0.71504371
0.71352811
0.71197288
0.71036394
0.70869971
0.70697565
0.7051883
0.70333471
0.70141304
0.69942251
0.69736354
0.69523753
0.6930467
0.69079369
0.68848131
0.68611225
0.68368903
0.68121403
0.67868976
0.67611905
0.67350535
0.6708527
0.66816559
0.66544878
0.66270711
0.65994554
0.65716919
0.65438325
0.65159282
0.64880275
0.64601765
0.64324187
0.6404793
0.6377332
0.63500618
0.63230057
0.62961842
0.62696131
0.62433027
0.62172566
0.61914688
0.61659217
0.61405948
0.61154774
0.60905688
0.60658615
0.60413346
0.60169619
0.5992711
0.59685306
0.59443354
0.59199989
0.58954335
0.58708054
0.58465843
0.58228327
0.57976227
0.57668586
0.57281113
0.56876456
0.5659969
0.56601038
0.56862964
0.57210423
0.57477346
0.57621867
0.57680854
0.65015229
0.75862901
0.71486122
0.73793088
0.72312996
0.73012468
0.72407686
0.72552273
0.72269414
0.72201129
0.72022521
0.71888277
0.7172954
0.71572935
0.71409556
0.71241494
0.71067926
0.70888569
0.70703051
0.70511034
0.70312234
0.70106458
0.69893613
0.69673728
0.69446946
0.69213504
0.68973714
0.68727926
0.68476499
0.68219787
0.67958133
0.67691886
0.6742142
0.67147155
0.66869564
0.66589161
0.66306483
0.66022075
0.65736494
0.6545031
0.65164092
0.64878385
0.64593696
0.64310492
0.64029218
0.63750281
0.63474015
0.63200666
0.6293041
0.62663389
0.62399726
0.62139519
0.61882813
0.6162955
0.6137952
0.61132415
0.60887969
0.60646006
0.60406313
0.6016857
0.59932407
0.59697361
0.59462709
0.59227378
0.58990157
0.58750846
0.58511961
0.58277323
0.58043081
0.57785499
0.57465941
0.57074247
0.56687174
0.56458245
0.5653625
0.56866028
0.57241678
0.57505398
0.57637606
0.57687631
0.65114664
0.76093965
0.71571881
0.73948817
0.72411813
0.73120628
0.72495486
0.72630126
0.72338242
0.72259615
0.72071854
0.71923685
0.71754198
0.71584553
0.71408364
0.71226871
0.71039552
0.70846125
0.70646271
0.70439694
0.70226139
0.70005436
0.69777508
0.69542401
0.69300274
0.69051401
0.68796142
0.68534921
0.68268194
0.67996426
0.67720084
0.6743964
0.67155584
0.66868439
0.66578767
0.66287157
0.65994217
0.65700561
0.6540681
0.65113591
0.64821521
0.64531173
0.64243061
0.63957645
0.6367535
0.63396566
0.63121611
0.62850696
0.62583928
0.62321343
0.62062958
0.61808791
0.61558835
0.61312981
0.61070965
0.60832391
0.60596853
0.60363988
0.60133409
0.59904669
0.5967733
0.59450882
0.59224504
0.58997005
0.58767285
0.58535728
0.58305393
0.58079148
0.57849509
0.5758886
0.57259314
0.56862193
0.56490965
0.56320246
0.56485509
0.56883404
0.57280375
0.57534696
0.57651934
0.57692672
0.65177896
0.76283926
0.7162291
0.74069908
0.72475438
0.73185992
0.72550326
0.72670556
0.72371207
0.72270331
0.72074756
0.71911567
0.71730068
0.71546253
0.71355929
0.71159691
0.7095725
0.70748357
0.70532755
0.70310204
0.70080497
0.69843509
0.69599202
0.69347656
0.69089073
0.68823775
0.68552191
0.68274829
0.67992253
0.67705055
0.6741384
0.6711922
0.66821819
0.66522279
0.6622126
0.65919435
0.65617479
0.65316071
0.65015887
0.64717597
0.6442184
0.64129194
0.63840159
0.63555156
0.63274559
0.62998697
0.62727828
0.62462099
0.62201527
0.61946028
0.6169548
0.61449773
0.6120879
0.60972339
0.60740077
0.60511537
0.60286209
0.60063593
0.59843148
0.59624291
0.5940649
0.59189191
0.58971517
0.58752242
0.58530514
0.58307371
0.58086218
0.57868351
0.57641803
0.57374572
0.57031022
0.56629473
0.56286968
0.56198586
0.56466199
0.56926592
0.57330328
0.57565569
0.57664782
0.57696559
0.65217941
0.76435804
0.71645219
0.74160261
0.7250498
0.73226632
0.72562118
0.72668698
0.72354866
0.72238871
0.72034165
0.71854182
0.71658807
0.71459204
0.71252943
0.71040216
0.70820872
0.70594722
0.70361575
0.70121261
0.69873647
0.6961867
0.69356361
0.69086864
0.6881045
0.68527516
0.68238576
0.67944243
0.67645201
0.67342185
0.67035948
0.66727261
0.66416895
0.66105618
0.65794199
0.65483393
0.65173944
0.64866577
0.64562006
0.64260912
0.6396393
0.63671609
0.63384397
0.63102649
0.62826647
0.62556617
0.62292713
0.62034977
0.61783315
0.61537513
0.61297296
0.61062393
0.60832546
0.60607441
0.60386653
0.60169644
0.59955831
0.59744624
0.59535385
0.5932743
0.59120112
0.58912763
0.58704432
0.58493952
0.58280916
0.58067133
0.57856093
0.57646646
0.57421136
0.57142883
0.56781956
0.56381013
0.56085033
0.56106001
0.5648109
0.56991046
0.57386196
0.57595209
0.57675708
0.57699526
0.65241246
0.76549143
0.71639179
0.74216913
0.72496049
0.73199077
0.72528238
0.72608524
0.7230005
0.7216295
0.71947626
0.71749167
0.71537756
0.71320518
0.71096277
0.70865031
0.7062672
0.70381238
0.70128478
0.69868365
0.69600858
0.69325996
0.69043906
0.68754831
0.68459143
0.68157344
0.67850065
0.67538044
0.67222108
0.66903142
0.66582067
0.66259814
0.65937307
0.65615447
0.65295106
0.64977117
0.64662271
0.64351323
0.64044982
0.63743908
0.63448681
0.63159777
0.62877555
0.62602257
0.62334037
0.62072976
0.61819076
0.61572238
0.6133223
0.61098699
0.60871216
0.60649344
0.6043266
0.60220718
0.60012997
0.598089
0.59607789
0.59409006
0.59211871
0.59015662
0.58819621
0.58622882
0.5842436
0.5822308
0.58019363
0.57815879
0.57615527
0.57413128
0.57184139
0.56888833
0.56509964
0.56122333
0.55899591
0.56050647
0.56534309
0.57073857
0.57444666
0.57622266
0.57684687
0.57701757
0.65247668
0.76623908
0.71603576
0.74232985
0.72450327
0.73139712
0.72460355
0.72515817
0.72202328
0.72038874
0.71810696
0.71591928
0.71361939
0.7112481
0.70880161
0.70627971
0.70368262
0.70101033
0.69826289
0.69544071
0.69254469
0.68957651
0.68653883
0.68343545
0.68027148
0.6770534
0.67378897
0.67048712
0.66715775
0.6638114
0.66045895
0.65711136
0.65377933
0.65047309
0.64720225
0.64397567
0.64080148
0.63768706
0.63463906
0.63166323
0.62876433
0.62594584
0.6232099
0.62055738
0.61798812
0.61550106
0.61309436
0.61076524
0.6085098
0.606323
0.60419909
0.60213212
0.60011626
0.59814563
0.5962141
0.5943152
0.59244216
0.59058794
0.58874547
0.58690753
0.58506575
0.5832092
0.58132555
0.57940881
0.57747213
0.57554945
0.57365198
0.57166819
0.56927964
0.56609846
0.56217928
0.55863237
0.55750466
0.56047639
0.56625162
0.57169419
0.57502023
0.57645583
0.57691745
0.57703375
0.65237106
0.76658867
0.71540089
0.74182203
0.72363572
0.73030046
0.72356203
0.72370612
0.7205383
0.71861691
0.71617369
0.7137595
0.71124312
0.70864518
0.70596616
0.70320665
0.70036779
0.69745082
0.69445718
0.69138884
0.68824834
0.68503912
0.68176565
0.67843358
0.67504989
0.67162292
0.66816228
0.66467875
0.66118404
0.65769044
0.65421052
0.65075672
0.64734099
0.6439745
0.64066737
0.6374286
0.63426601
0.63118625
0.62819484
0.62529609
0.62249299
0.61978712
0.61717862
0.61466632
0.61224792
0.6099202
0.60767916
0.60552
0.60343707
0.60142383
0.59947317
0.59757776
0.59573036
0.59392383
0.59215111
0.59040529
0.58867949
0.58696652
0.58525901
0.58354945
0.58182869
0.58008421
0.57830377
0.57648777
0.57466044
0.57285611
0.57105006
0.56905305
0.56648819
0.56304592
0.55912528
0.55617197
0.55649116
0.5610357
0.56749328
0.57271295
0.57554918
0.57664762
0.57697017
0.5770449
0.65207867
0.766476
0.71446582
0.74048399
0.72233838
0.72867309
0.7220021
0.72169782
0.71847094
0.71623546
0.71359188
0.71092467
0.70815816
0.70530189
0.7023583
0.6993294
0.69621758
0.69302574
0.68975716
0.68641584
0.68300653
0.67953497
0.67600801
0.67243371
0.66882145
0.66518185
0.66152678
0.6578691
0.65422242
0.65060075
0.64701813
0.64348815
0.64002354
0.63663585
0.63333512
0.63012976
0.62702656
0.62403067
0.62114568
0.61837365
0.61571509
0.61316901
0.61073298
0.6084033
0.60617524
0.60404318
0.60200084
0.60004134
0.59815726
0.59634066
0.5945832
0.59287647
0.5912122
0.58958222
0.58797868
0.58639427
0.58482219
0.58325551
0.58168664
0.58010697
0.57850602
0.57687121
0.57519442
0.57348561
0.57177772
0.57009092
0.56834129
0.5662525
0.56343252
0.55975274
0.55604716
0.55408403
0.55619604
0.56220333
0.56898338
0.57372361
0.57600482
0.57679581
0.57700721
0.57705211
0.65153333
0.76582392
0.71313766
0.7385461
0.72067138
0.72642801
0.71985285
0.71904812
0.71573188
0.71315942
0.71027044
0.70731788
0.70426279
0.70111064
0.69786508
0.69453007
0.69110992
0.68760974
0.6840353
0.68039328
0.67669132
0.67293811
0.66914357
0.66531877
0.66147598
0.65762858
0.65379093
0.64997804
0.64620537
0.64248833
0.63884194
0.63528028
0.63181609
0.62846038
0.62522214
0.62210824
0.61912341
0.61627033
0.61354974
0.61096061
0.60850027
0.60616453
0.60394792
0.60184392
0.59984515
0.59794356
0.59613064
0.59439761
0.59273545
0.59113499
0.58958695
0.58808218
0.58661172
0.58516684
0.58373916
0.58232107
0.5809059
0.57948721
0.57805719
0.57660562
0.57512014
0.57359037
0.572018
0.57042511
0.56884453
0.5672595
0.56550355
0.56322414
0.56009103
0.55629912
0.55311903
0.55266213
0.55675078
0.56393041
0.57060341
0.57465522
0.57636911
0.57690254
0.57703147
0.57705645
0.65068667
0.76458274
0.71132131
0.7362682
0.71848331
0.72352164
0.71704794
0.71569338
0.71223502
0.70929641
0.70610727
0.70282655
0.69943665
0.69594349
0.69235219
0.6886692
0.68490148
0.68105712
0.67714518
0.67317583
0.66916043
0.66511145
0.66104255
0.65696841
0.65290466
0.64886767
0.64487427
0.6409415
0.63708614
0.63332435
0.62967119
0.62614016
0.62274274
0.61948811
0.61638288
0.61343106
0.61063412
0.60799116
0.60549918
0.6031533
0.60094706
0.59887272
0.59692152
0.595084
0.59335021
0.59170986
0.59015252
0.58866783
0.58724555
0.58587562
0.58454819
0.58325367
0.58198287
0.58072691
0.57947736
0.5782266
0.576968
0.57569519
0.57439999
0.57307075
0.57169431
0.57026592
0.56880127
0.56733364
0.56587837
0.5643529
0.56249539
0.55992433
0.55647776
0.55282377
0.55056804
0.55213733
0.55821796
0.56608137
0.57221562
0.57544678
0.57664124
0.5769737
0.57704613
0.57705884
0.6495242
0.76270766
0.70895334
0.73324755
0.71569355
0.71988448
0.71349185
0.71153829
0.70786534
0.70452235
0.70097024
0.6973084
0.69353012
0.68964409
0.68565778
0.6815809
0.6774241
0.67319948
0.66892048
0.6646019
0.66025974
0.65591112
0.65157409
0.64726738
0.64301012
0.63882154
0.6347206
0.63072554
0.62685351
0.62312012
0.61953894
0.61612119
0.61287539
0.60980709
0.60691889
0.60421046
0.60167874
0.59931829
0.59712159
0.59507946
0.59318142
0.59141609
0.58977158
0.58823573
0.58679636
0.58544137
0.58415894
0.58293764
0.58176652
0.5806351
0.57953335
0.57845166
0.57738092
0.57631261
0.57523876
0.5741521
0.57304589
0.57191298
0.57074416
0.5695275
0.56825331
0.56692707
0.56557736
0.56423905
0.56288457
0.56133848
0.55925782
0.55632745
0.55270195
0.54956199
0.54887193
0.55278837
0.56052345
0.56844762
0.57368541
0.57605815
0.57682746
0.57701721
0.57705421
0.57706003
0.64800815
0.76011838
0.70595692
0.72947535
0.71216991
0.71540428
0.70905047
0.70645099
0.70247548
0.69867939
0.69469502
0.69058934
0.68636135
0.68202388
0.67758835
0.67306911
0.66848201
0.66384467
0.65917631
0.65449749
0.64982986
0.64519581
0.64061818
0.6361197
0.63172267
0.62744839
0.62331676
0.61934571
0.61555089
0.61194517
0.60853845
0.60533735
0.60234519
0.59956194
0.59698447
0.59460672
0.59242014
0.5904141
0.5885763
0.58689326
0.58535074
0.58393417
0.58262901
0.58142102
0.58029643
0.579242
0.57824516
0.57729406
0.57637763
0.5754855
0.57460786
0.57373548
0.57285973
0.57197281
0.57106763
0.57013752
0.56917531
0.56817228
0.56711777
0.56600205
0.56482537
0.56360724
0.56238206
0.56116212
0.55984635
0.55815876
0.55573592
0.55245057
0.54894171
0.54680579
0.54835558
0.55469147
0.56344945
0.57078501
0.57490218
0.57649226
0.57694342
0.57704133
0.57705822
0.57706056
0.64607555
0.7566824
0.70225476
0.724805
0.7077952
0.70994742
0.70356503
0.70027214
0.69589085
0.69157633
0.68708002
0.6824555
0.67770693
0.672853
0.66791137
0.66290305
0.65785095
0.65277986
0.6477161
0.64268702
0.63772053
0.63284453
0.62808632
0.62347184
0.61902517
0.61476781
0.61071819
0.60689122
0.60329805
0.59994587
0.59683791
0.5939736
0.59134878
0.58895607
0.58678526
0.58482379
0.58305726
0.58146988
0.58004497
0.57876539
0.57761394
0.57657375
0.57562856
0.57476293
0.57396235
0.57321324
0.572503
0.57182002
0.57115369
0.57049424
0.56983253
0.56916006
0.56846909
0.56775283
0.56700518
0.56621982
0.56538876
0.56450158
0.56354763
0.56252364
0.56144453
0.56034305
0.55924444
0.55810274
0.5567175
0.55474178
0.55190445
0.54843883
0.54552071
0.54507548
0.54935427
0.55771421
0.56665349
0.57286715
0.57580201
0.57677092
0.5770084
0.57705328
0.57705998
0.57706076
0.64366112
0.75223433
0.69782916
0.71910934
0.70241484
0.70336171
0.69684752
0.69279911
0.68788894
0.6829667
0.67786421
0.67263371
0.6672871
0.66185105
0.65635202
0.65081978
0.64528614
0.63978455
0.63434948
0.62901563
0.62381715
0.6187866
0.61395418
0.60934669
0.6049869
0.60089285
0.59707755
0.59354884
0.59030949
0.58735747
0.58468644
0.58228629
0.58014379
0.57824319
0.57656687
0.57509592
0.57381064
0.572691
0.57171705
0.57086919
0.57012857
0.56947722
0.56889835
0.5683764
0.56789702
0.5674471
0.56701471
0.5665891
0.56616059
0.56572039
0.56526043
0.56477332
0.56425253
0.56369243
0.56308762
0.5624314
0.56171455
0.56092637
0.56006051
0.55912544
0.5581506
0.55717081
0.55617386
0.55502351
0.55342291
0.55103773
0.54783734
0.54455691
0.54285407
0.5449539
0.55192205
0.56150516
0.56974963
0.57452598
0.57640183
0.57693045
0.57704072
0.57705844
0.57706063
0.57706083
0.64072354
0.74655947
0.69277172
0.71223034
0.69583361
0.69542994
0.68863657
0.68374235
0.67816062
0.67252009
0.66670772
0.66078119
0.65476359
0.64869199
0.64260409
0.63654065
0.63054422
0.62465811
0.61892544
0.61338763
0.60808326
0.60304663
0.59830674
0.59388632
0.58980139
0.58606099
0.58266745
0.5796168
0.57689953
0.57450146
0.5724047
0.57058856
0.56903046
0.56770675
0.56659332
0.5656662
0.56490192
0.56427786
0.56377242
0.56336522
0.56303723
0.56277083
0.56254989
0.56235974
0.56218713
0.5620201
0.56184799
0.56166134
0.56145175
0.56121173
0.56093452
0.56061419
0.56024563
0.55982422
0.55934452
0.55879867
0.55817662
0.55747067
0.55668487
0.55584318
0.55498191
0.5541123
0.55315052
0.55185713
0.54988744
0.54704731
0.5437257
0.54117934
0.54148958
0.54662518
0.55581257
0.56554962
0.57240913
0.57568489
0.57675817
0.57701079
0.57705466
0.57706034
0.57706083
0.57706084
0.63720268
0.73926768
0.68656232
0.70389138
0.6877439
0.68580916
0.67855267
0.67270076
0.66629732
0.65982028
0.65319756
0.64649609
0.63975437
0.63302318
0.6263547
0.61980322
0.61342345
0.60726848
0.60138809
0.59582668
0.59062176
0.58580254
0.58138926
0.57739285
0.57381529
0.57065024
0.56788413
0.56549744
0.56346604
0.56176252
0.56035749
0.55922061
0.55832156
0.55763073
0.55711974
0.5567618
0.55653187
0.55640678
0.55636522
0.5563877
0.5564565
0.55655563
0.5566707
0.55678884
0.55689857
0.55698966
0.55705312
0.55708103
0.55706649
0.55700345
0.55688674
0.55671202
0.55647551
0.55617297
0.55579808
0.55534172
0.55479521
0.55415891
0.55345219
0.55271209
0.55196404
0.55116068
0.55011768
0.54851457
0.54607196
0.54291757
0.53998652
0.53891372
0.54210905
0.55010207
0.5604883
0.56931009
0.57442092
0.57640385
0.57694278
0.57704569
0.57705975
0.57706088
0.57706086
0.57706084
0.63293857
0.72979863
0.6789186
0.69364683
0.67770135
0.67404498
0.66611239
0.65918049
0.65180756
0.64437868
0.63685951
0.62933123
0.62185378
0.61449662
0.60732952
0.60042119
0.5938364
0.58763306
0.58186001
0.57655499
0.5717437
0.56743937
0.56364331
0.56034591
0.5575282
0.55516366
0.55322009
0.55166148
0.55044966
0.54954579
0.54891153
0.54850991
0.54830606
0.54826758
0.54836479
0.54857075
0.54886125
0.54921462
0.54961155
0.55003491
0.55046951
0.55090193
0.55132032
0.55171423
0.55207442
0.55239276
0.5526621
0.5528762
0.55302973
0.55311822
0.55313815
0.55308668
0.55296074
0.55275551
0.55246328
0.55207526
0.55158869
0.5510176
0.55039684
0.54976274
0.54909924
0.54826763
0.54698429
0.54493042
0.54204535
0.53891829
0.5369899
0.53842534
0.54476709
0.55493261
0.56524387
0.57238402
0.57573256
0.57679439
0.57702461
0.57705846
0.57706113
0.57706094
0.57706085
0.57706084
0.62764956
0.71844688
0.66936508
0.68098444
0.66516014
0.65960725
0.65074322
0.6425881
0.63410145
0.62562063
0.61715697
0.60881373
0.60067825
0.59284116
0.5853876
0.57839385
0.57192391
0.5660266
0.56073433
0.55606264
0.55201112
0.54856498
0.54569746
0.54337234
0.54154666
0.54017319
0.5392027
0.53858573
0.53827413
0.5382221
0.53838692
0.53872942
0.53921419
0.5398096
0.54048769
0.54122393
0.54199697
0.54278826
0.54358179
0.54436372
0.54512215
0.54584678
0.54652873
0.54716026
0.54773464
0.54824591
0.54868886
0.54905894
0.54935241
0.54956646
0.5496991
0.54974842
0.54971103
0.54958058
0.54934869
0.54901071
0.54857596
0.5480751
0.54754943
0.54700761
0.54635609
0.5453525
0.54366616
0.54111007
0.5380061
0.53549018
0.53540926
0.54002446
0.54925814
0.5603578
0.56943576
0.57456634
0.57648658
0.57697504
0.57705519
0.5770619
0.57706122
0.57706089
0.57706084
0.57706084
0.6210324
0.70543858
0.65739349
0.66533997
0.64942787
0.64179537
0.63170074
0.62216023
0.6124486
0.60288538
0.59353875
0.584539
0.57599798
0.56801794
0.56068348
0.55405807
0.54818231
0.54307351
0.53872741
0.53512071
0.53221477
0.52995931
0.52829634
0.52716348
0.52649703
0.52623419
0.52631481
0.52668263
0.52728595
0.52807803
0.52901715
0.53006653
0.53119407
0.53237201
0.53357657
0.53478746
0.53598754
0.5371624
0.53829993
0.53939004
0.54042431
0.54139573
0.54229841
0.54312737
0.54387833
0.54454749
0.54513149
0.54562749
0.5460334
0.54634798
0.54657035
0.54669854
0.54672764
0.54664972
0.54645846
0.54615903
0.54577773
0.5453577
0.54492572
0.54442805
0.54366929
0.54232955
0.54013759
0.53720787
0.53439615
0.53311945
0.53597691
0.54375595
0.55488353
0.5655404
0.57266971
0.57588958
0.57685938
0.57704537
0.57706369
0.57706205
0.57706102
0.57706084
0.57706083
0.57706084
0.61276653
0.68877788
0.64217359
0.6458363
0.62948611
0.61957736
0.60797878
0.59695353
0.58604428
0.57556383
0.56563389
0.55639946
0.54797286
0.54043786
0.53384514
0.52821267
0.52352867
0.51975584
0.51683712
0.51470132
0.51326881
0.51245618
0.51218023
0.5123608
0.5129228
0.51379741
0.51492264
0.51624349
0.51771171
0.51928543
0.52092864
0.52261063
0.52430542
0.5259912
0.52764977
0.52926609
0.53082784
0.53232495
0.53374935
0.53509455
0.53635547
0.5375281
0.53860934
0.5395967
0.5404881
0.54128171
0.54197595
0.5425697
0.54306252
0.54345448
0.54374497
0.54393076
0.54400486
0.54395951
0.54379526
0.54353281
0.54321517
0.54288336
0.54251876
0.5419745
0.54095792
0.53914655
0.53647465
0.533467
0.53145074
0.53262371
0.53863006
0.54907242
0.56072839
0.56984654
0.57481901
0.57659905
0.57701466
0.57706641
0.57706421
0.57706147
0.57706086
0.57706083
0.57706083
0.57706084
0.60221135
0.66739364
0.62235996
0.62109602
0.60389705
0.5915953
0.57841939
0.56606079
0.55430323
0.54343595
0.5335948
0.52489594
0.51740224
0.51113071
0.506056
0.50211801
0.49923092
0.497292
0.49618992
0.49581142
0.49604656
0.49679217
0.4979541
0.4994482
0.50120055
0.50314712
0.50523302
0.50741165
0.50964377
0.51189654
0.51414268
0.51635966
0.51852901
0.5206357
0.52266759
0.524615
0.52647031
0.5282276
0.52988238
0.5314314
0.53287238
0.53420387
0.53542505
0.53653547
0.53753486
0.53842307
0.53920018
0.53986676
0.54042392
0.54087242
0.54121085
0.54143384
0.54153325
0.54150545
0.54136385
0.54114717
0.54090613
0.54065442
0.54029543
0.53957711
0.53815651
0.53582515
0.53284875
0.53034306
0.52984437
0.53404817
0.54316071
0.55508903
0.56595498
0.57298803
0.576049
0.57692373
0.57706669
0.57706917
0.57706281
0.57706098
0.57706081
0.57706083
0.57706084
0.57706084
0.5882512
0.63927122
0.59607644
0.58939488
0.57106241
0.55646778
0.54210409
0.52907321
0.51733434
0.50709818
0.49843395
0.49135739
0.48581925
0.48172251
0.47893591
0.47730825
0.47668101
0.47689785
0.47781157
0.47928822
0.48120914
0.48347141
0.48598727
0.48868288
0.49149679
0.4943783
0.49728591
0.50018586
0.50305085
0.50585894
0.50859264
0.51123808
0.51378439
0.51622314
0.51854791
0.5207539
0.52283765
0.52479681
0.5266299
0.52833627
0.52991587
0.53136921
0.53269715
0.53390071
0.53498095
0.53593905
0.53677656
0.53749562
0.53809839
0.53858543
0.53895349
0.53919526
0.53930432
0.53928682
0.53917362
0.53901763
0.53885829
0.53865154
0.53820202
0.53717515
0.53525806
0.53250507
0.52964617
0.52796393
0.53020471
0.53738671
0.54877408
0.56087651
0.57007075
0.57497258
0.57667913
0.57704935
0.57707832
0.57706637
0.57706154
0.57706078
0.57706081
0.57706083
0.57706084
0.57706084
0.5689326
0.60208033
0.56113236
0.54891502
0.52990137
0.51343097
0.49897854
0.4866417
0.47638325
0.46824479
0.4621306
0.45788477
0.45530186
0.45415427
0.45421108
0.45525238
0.45707828
0.4595132
0.46240711
0.46563443
0.46909181
0.47269533
0.47637762
0.48008509
0.48377548
0.48741574
0.49098022
0.49444919
0.49780765
0.50104437
0.50415105
0.50712178
0.50995243
0.51264036
0.51518402
0.51758272
0.51983645
0.52194573
0.5239115
0.52573508
0.52741811
0.52896248
0.53037016
0.53164311
0.53278323
0.53379271
0.53467429
0.53543119
0.53606581
0.53657738
0.53696037
0.53720704
0.53731704
0.53731152
0.53723944
0.53715659
0.53706673
0.5368433
0.53619077
0.53474686
0.53234975
0.52932674
0.52696545
0.52710748
0.53206216
0.54202912
0.55455702
0.56575319
0.57295811
0.5760822
0.57696148
0.57708766
0.57707487
0.57706361
0.57706085
0.57706075
0.57706082
0.57706084
0.57706084
0.57706084
0.54167969
0.55331322
0.5160737
0.49824187
0.47815928
0.46311334
0.45048074
0.44085047
0.4339608
0.42957463
0.42735424
0.42694567
0.42800113
0.43020336
0.433276
0.43698689
0.44114628
0.44560226
0.45023532
0.45495265
0.45968311
0.46437278
0.46898125
0.47347866
0.47784334
0.48205984
0.48611754
0.49000945
0.49373136
0.49728114
0.50065824
0.5038632
0.50689742
0.50976286
0.51246186
0.51499701
0.51737099
0.51958658
0.52164658
0.52355383
0.52531122
0.5269216
0.52838767
0.52971194
0.5308969
0.53194541
0.53286101
0.53364725
0.53430563
0.53483314
0.53522234
0.53546772
0.53557921
0.53559524
0.53557758
0.53556848
0.53551183
0.53518837
0.53423669
0.53232328
0.52956081
0.52674754
0.52505795
0.5276561
0.53524896
0.54711474
0.55973119
0.56944131
0.57475779
0.57665684
0.5770732
0.57709208
0.57706983
0.57706168
0.57706062
0.57706077
0.57706083
0.57706084
0.57706084
0.57706084
0.50239705
0.49027744
0.45399799
0.43661523
0.41964343
0.40777071
0.39967086
0.39513904
0.39353507
0.39428763
0.39684256
0.4007257
0.40554583
0.4109934
0.41682999
0.42287588
0.42899801
0.43509933
0.44111023
0.4469816
0.45267969
0.45818198
0.46347429
0.46854845
0.47340069
0.47803036
0.48243902
0.48662978
0.49060681
0.49437494
0.49793943
0.50130572
0.50447928
0.50746551
0.51026966
0.51289674
0.51535148
0.51763838
0.51976168
0.52172542
0.52353344
0.52518935
0.52669642
0.52805766
0.52927608
0.53035513
0.53129864
0.53210957
0.53278751
0.53332688
0.53371968
0.53396575
0.53408756
0.53413785
0.53418015
0.53422792
0.53415642
0.53365893
0.53235667
0.53003172
0.52697852
0.52461407
0.5243763
0.52910453
0.53898396
0.55184929
0.56383955
0.57198247
0.57578156
0.57693178
0.57711061
0.57708588
0.57706588
0.5770607
0.57706061
0.5770608
0.57706084
0.57706084
0.57706084
0.57706084
0.44230021
0.41054459
0.38153024
0.36710193
0.35654234
0.35186829
0.35130745
0.35396447
0.35887089
0.36528596
0.37263923
0.38051721
0.38862751
0.39676866
0.4048049
0.41264702
0.42023836
0.42754477
0.43454756
0.44123858
0.44761672
0.4536856
0.45945186
0.46492401
0.47011165
0.47502488
0.47967402
0.48406926
0.48822058
0.49213762
0.49582958
0.4993052
0.50257275
0.50563994
0.50851397
0.51120152
0.51370876
0.5160414
0.51820474
0.52020375
0.52204306
0.52372692
0.52525922
0.52664365
0.52788399
0.52898433
0.52994846
0.530778
0.53146999
0.53201659
0.5324115
0.53266298
0.5328068
0.53290434
0.53300752
0.5330875
0.53295874
0.53225883
0.53061629
0.52802485
0.52497799
0.52292997
0.52460301
0.53107973
0.54247692
0.5556523
0.56675466
0.57356277
0.57634108
0.57706075
0.57711842
0.57708004
0.57706319
0.57706029
0.57706065
0.57706082
0.57706084
0.57706084
0.57706084
0.57706084
0.34883072
0.31605864
0.29884047
0.294506
0.29587114
0.301994
0.31093404
0.32145604
0.332707
0.34414927
0.35545577
0.3664357
0.37698443
0.38705056
0.39661519
0.40567886
0.4142534
0.42235687
0.43001046
0.43723657
0.44405766
0.45049556
0.4565711
0.46230391
0.46771234
0.47281346
0.47762309
0.48215589
0.48642542
0.49044424
0.49422394
0.49777524
0.501108
0.50423133
0.50715355
0.50988231
0.51242459
0.51478684
0.51697504
0.51899478
0.52085128
0.52254938
0.52409363
0.52548857
0.52673899
0.52784982
0.52882479
0.52966421
0.53036236
0.53090984
0.53130356
0.53156155
0.53173238
0.53188324
0.53205046
0.53216089
0.53197648
0.53111691
0.52923721
0.52650307
0.52375154
0.52208943
0.52505797
0.53288425
0.54507913
0.55818239
0.56852944
0.57443221
0.57662466
0.577123
0.57711617
0.57707605
0.57706159
0.57706015
0.57706068
0.57706084
0.57706084
0.57706084
0.57706084
0.57706084
0.21255658
0.21130579
0.2165968
0.22972747
0.24665923
0.26462744
0.28245461
0.29950594
0.31555866
0.33055121
0.344509
0.35749165
0.36957172
0.3808231
0.39131612
0.4011154
0.4102793
0.41886003
0.4269041
0.43445287
0.44154314
0.4482077
0.45447579
0.46037357
0.46592446
0.47114951
0.4760677
0.48069617
0.48505046
0.4891447
0.49299176
0.49660337
0.49999022
0.50316205
0.50612773
0.50889531
0.51147212
0.51386488
0.51607984
0.51812287
0.51999951
0.52171504
0.52327458
0.52468344
0.5259472
0.5270712
0.5280588
0.52891061
0.5296166
0.53016831
0.5305644
0.53083121
0.5310264
0.53122164
0.53144516
0.53159307
0.53138563
0.53042992
0.52842928
0.52557975
0.52288404
0.52190644
0.52526142
0.53366938
0.54612954
0.55915466
0.56919713
0.57475713
0.57673816
0.5771526
0.57711649
0.5770742
0.57706071
0.5770601
0.5770607
0.57706085
0.57706084
0.57706084
0.57706084
0.57706084
0.090249194
0.11955705
0.1562396
0.18919718
0.21868851
0.24462702
0.26762308
0.28813485
0.30657132
0.32325294
0.33843793
0.35233301
0.3651059
0.37689376
0.38780995
0.397949
0.40739044
0.41620172
0.42444051
0.43215641
0.43939244
0.44618605
0.4525701
0.45857348
0.46422177
0.4695377
0.47454154
0.47925144
0.48368375
0.4878532
0.49177313
0.49545563
0.49891166
0.50215114
0.50518306
0.50801547
0.51065567
0.51311026
0.51538529
0.51748641
0.51941902
0.52118838
0.52279988
0.52425915
0.52557142
0.52674071
0.5277701
0.52865987
0.52939728
0.52997271
0.53038636
0.53066827
0.53087537
0.53109504
0.5313603
0.53149527
0.53126829
0.53021542
0.52806304
0.52505163
0.52234221
0.5206733
0.52409466
0.53240966
0.54500917
0.55834964
0.56876961
0.57462144
0.5767279
0.57716443
0.57712178
0.57707485
0.57706047
0.57706
0.5770607
0.57706085
0.57706084
0.57706084
0.57706084
0.57706084
0.35529537
0.51314363
0.50250496
0.50385288
0.50330588
0.50676303
0.50881464
0.51163415
0.51386443
0.51618526
0.51830919
0.52042983
0.52247682
0.52451238
0.52650523
0.52847191
0.53042199
0.53235195
0.53426097
0.53614922
0.5380165
0.5398614
0.54168268
0.54347962
0.54525171
0.54699822
0.548718
0.55040993
0.55207297
0.55370619
0.55530892
0.55688052
0.55842012
0.55992679
0.56139975
0.56283821
0.5642411
0.56560726
0.56693563
0.56822533
0.56947546
0.57068524
0.57185391
0.57298058
0.57406422
0.57510397
0.57609893
0.57704787
0.57794956
0.57880316
0.57960803
0.58036342
0.58106916
0.58172553
0.58233254
0.58289128
0.58340545
0.58388249
0.58433485
0.58478068
0.5852364
0.5857076
0.58617553
0.58658088
0.58683443
0.58690968
0.58700296
0.58756427
0.5889651
0.59097011
0.59271008
0.59330612
0.59226586
0.58955211
0.58583324
0.5822205
0.57938904
0.57771802
0.5770497
0.57688606
0.41476542
0.54960188
0.524579
0.5317864
0.52764156
0.52987273
0.52933966
0.53057698
0.53100941
0.53206795
0.53291483
0.53393845
0.53496077
0.5360808
0.53725116
0.53846949
0.53972449
0.54101559
0.54233875
0.54368896
0.54506155
0.54645124
0.5478535
0.5492651
0.55068299
0.5521037
0.5535236
0.55493948
0.55634836
0.55774748
0.55913439
0.56050663
0.56186158
0.56319687
0.56451066
0.56580103
0.56706565
0.56830212
0.5695085
0.57068317
0.57182456
0.57293125
0.57400196
0.57503528
0.57602964
0.57698374
0.57789639
0.57876605
0.57959101
0.58036991
0.58110151
0.58178469
0.58241905
0.58300491
0.58354337
0.5840373
0.58449343
0.58492245
0.58533861
0.58575906
0.58619387
0.58663439
0.58704241
0.58734785
0.5874852
0.58750566
0.58770151
0.58852288
0.59016025
0.59214565
0.59356507
0.59368857
0.5922683
0.58928828
0.58549243
0.58180947
0.57901711
0.57745471
0.57690185
0.57682603
0.43802766
0.56761516
0.53650654
0.54765632
0.54201349
0.54503427
0.54381678
0.54499352
0.54485001
0.54552039
0.54582329
0.54634055
0.54683511
0.54742685
0.54806975
0.54876009
0.54950051
0.55028979
0.55112777
0.55201014
0.55293323
0.55389284
0.55488508
0.55590742
0.55695686
0.55802938
0.55912078
0.56022741
0.5613458
0.5624725
0.56360411
0.56473704
0.56586747
0.56699221
0.56810888
0.56921481
0.57030651
0.57138047
0.57243391
0.57346453
0.57446997
0.57544807
0.57639687
0.57731435
0.57819825
0.57904668
0.57985816
0.58063096
0.58136309
0.58205284
0.58269866
0.58329948
0.58385493
0.58436567
0.58483405
0.58526456
0.58566598
0.5860503
0.58643047
0.58681821
0.58721396
0.58759483
0.58791007
0.58809634
0.58813605
0.58816816
0.58854885
0.58966012
0.591466
0.59330785
0.59432302
0.59399748
0.59216469
0.58896225
0.58507315
0.58135402
0.57862956
0.57719183
0.57676116
0.57676592
0.45522555
0.58179369
0.54754074
0.5607707
0.5542662
0.55762701
0.55588736
0.55701245
0.55653573
0.55701748
0.55702169
0.55724702
0.55743686
0.55770449
0.5580208
0.55837071
0.55876675
0.55920529
0.55969287
0.56022654
0.56080352
0.56142142
0.56207797
0.56277223
0.56350223
0.56426443
0.56505525
0.56587186
0.56671153
0.56757121
0.5684476
0.56933674
0.57023435
0.57113729
0.57204348
0.57295008
0.5738529
0.57474766
0.57563116
0.57650063
0.57735312
0.57818584
0.57899632
0.57978197
0.58053981
0.58126742
0.58196311
0.58262518
0.58325157
0.58384056
0.5843907
0.5849015
0.58537314
0.58580689
0.58620621
0.58657643