/*--------------------------------*- C++ -*----------------------------------*\
  =========                 |
  \\      /  F ield         | OpenFOAM: The Open Source CFD Toolbox
   \\    /   O peration     | Website:  https://openfoam.org
    \\  /    A nd           | Version:  12
     \\/     M anipulation  |
\*---------------------------------------------------------------------------*/
FoamFile
{
    format      ascii;
    class       volScalarField;
    location    "0.005";
    object      omega;
}
// * * * * * * * * * * * * * * * * * * * * * * * * * * * * * * * * * * * * * //

dimensions      [0 0 -1 0 0 0 0];

internalField   nonuniform List<scalar> 
16000
(
1112.7542
2052.1014
1011.261
620.82593
444.13647
311.30914
236.07253
178.77141
144.15701
117.17756
99.863041
85.581355
75.031779
66.197386
58.996362
52.927426
47.803811
43.432033
39.672742
36.415369
33.577415
31.089397
28.894091
26.945909
25.208005
23.65184
22.25372
20.995422
19.861471
18.837722
17.911228
17.071857
16.3115
15.623237
15.001134
14.439639
13.933502
13.477747
13.068252
12.701597
12.373883
12.080967
11.819951
11.588268
11.382962
11.201017
11.040235
10.898598
10.774161
10.665
10.569382
10.485879
10.413164
10.349934
10.294884
10.246941
10.205313
10.169343
10.138455
10.112172
10.090069
10.071746
10.05713
10.046989
10.04173
10.037509
10.034746
10.033298
10.032898
10.03432
10.03981
10.050541
10.063201
10.07002
10.060853
10.036642
10.008947
9.989139
9.9805945
9.9862274
1152.7279
2085.8178
1021.0161
623.30263
445.5942
314.14129
237.47863
180.64186
145.07563
118.25367
100.47261
86.200983
75.44639
66.558517
59.266862
53.142812
47.967586
43.556327
39.765264
36.48183
33.622812
31.118541
28.910919
26.953751
25.209178
23.648271
22.24659
20.985514
19.849566
18.824783
17.897874
17.058271
16.297725
15.609223
14.986912
14.425347
13.919417
13.464074
13.054964
12.68878
12.361934
12.070021
11.809953
11.579276
11.375223
11.194592
11.035099
10.894696
10.771439
10.663401
10.568812
10.486251
10.414403
10.352006
10.297747
10.250506
10.209463
10.173962
10.143425
10.117376
10.095418
10.07718
10.06253
10.052161
10.046758
10.042407
10.039423
10.037683
10.037036
10.038444
10.044303
10.055448
10.067555
10.072039
10.059396
10.032717
10.005032
9.9869195
9.9795811
9.9871171
1190.8548
2122.0717
1032.1576
624.32613
445.263
314.77183
236.92875
181.0454
144.79949
118.51061
100.38507
86.26392
75.391706
66.504067
59.1755
53.035815
47.845731
43.425289
39.629121
36.34286
33.48294
30.979896
28.775145
26.822364
25.082985
23.528034
22.132599
20.87776
19.74801
18.729653
17.809277
16.975957
16.221343
15.538329
14.921132
14.364385
13.863139
13.412403
13.007612
12.64542
12.322652
12.034758
11.778432
11.551225
11.350646
11.173362
11.01701
10.879508
10.758906
10.6533
10.560894
10.480302
10.410212
10.349404
10.296584
10.25062
10.210679
10.176116
10.146359
10.120929
10.099446
10.081579
10.067196
10.056872
10.051419
10.047006
10.043886
10.041963
10.041214
10.042787
10.0491
10.060531
10.071795
10.073288
10.056565
10.027746
10.000814
9.9848087
9.978938
9.9880781
1227.0319
2161.2346
1043.3684
625.75116
444.80783
315.07555
236.50236
181.2826
144.67331
118.6563
100.22908
86.252742
75.283759
66.391405
59.033524
52.880751
47.679838
43.253396
39.455319
36.169239
33.311074
30.81169
28.611966
26.665574
24.933157
23.385795
21.998154
20.750991
19.628735
18.61805
17.705454
16.879656
16.13221
15.455871
14.844912
14.294007
13.798354
13.353082
12.953461
12.595958
12.277895
11.994644
11.742671
11.51942
11.322753
11.149223
10.996378
10.862103
10.744436
10.641517
10.551519
10.4731
10.404948
10.345875
10.294609
10.250018
10.211271
10.177737
10.148852
10.124138
10.10322
10.085796
10.071761
10.061616
10.056119
10.05164
10.048377
10.046285
10.045506
10.047398
10.054317
10.065955
10.075936
10.07343
10.052393
10.021998
9.996543
9.9827464
9.9787217
9.988995
1261.2343
2201.0038
1052.3687
626.14781
443.71385
314.57775
235.52248
181.12295
144.01814
118.46938
99.878811
86.057843
75.028365
66.1386
58.768581
52.613965
47.41349
42.990479
39.199018
35.920817
33.071174
30.581471
28.392078
26.456845
24.735663
23.199757
21.823452
20.587292
19.475509
18.475199
17.572981
16.757189
16.019309
15.35192
14.74934
14.20625
13.717968
13.279798
12.886952
12.535535
12.223405
11.945945
11.699444
11.481077
11.289137
11.120098
10.971412
10.840943
10.726708
10.626927
10.539735
10.463845
10.397941
10.340862
10.291364
10.248325
10.210926
10.178562
10.150688
10.126823
10.106593
10.089721
10.076135
10.066272
10.060784
10.056246
10.052851
10.050638
10.049949
10.052366
10.060002
10.07155
10.079431
10.071987
10.046749
10.015682
9.9924224
9.9806203
9.9790278
9.9898821
1293.3871
2239.8154
1056.3115
624.97245
441.20495
313.3409
233.49682
180.41686
142.88585
118.06994
99.374062
85.70124
74.644141
65.761893
58.394084
52.24754
47.057113
42.645752
38.868272
35.604735
32.769625
30.295027
28.120785
26.20095
24.494933
22.974068
21.61238
20.390278
19.291737
18.304296
17.414846
16.611335
15.885223
15.228875
14.636647
14.103207
13.623954
13.194383
12.809796
12.465805
12.160723
11.89006
11.650042
11.437393
11.250882
11.086964
10.942985
10.816807
10.706407
10.610138
10.526078
10.453003
10.389594
10.334713
10.287152
10.245807
10.209877
10.178789
10.152023
10.129106
10.10966
10.093427
10.08038
10.070895
10.065428
10.060823
10.057305
10.055048
10.054637
10.057821
10.066186
10.077104
10.08176
10.068731
10.039701
10.009074
9.9885469
9.9785944
9.9797768
9.9907225
1323.4685
2278.1956
1054.1502
622.80484
437.35156
311.56261
230.61958
179.26955
141.47454
117.42685
98.7207
85.178
74.124583
65.256817
57.905099
51.777198
46.606714
42.215627
38.459587
35.21777
32.403487
29.949688
27.795792
25.895303
24.208675
22.706719
21.363196
20.158482
19.076216
18.104357
17.230252
16.441456
15.729455
15.086361
14.50657
13.984727
13.516281
13.096881
12.722084
12.387121
12.090251
11.827374
11.594853
11.388793
11.208395
11.050206
10.91146
10.79004
10.683853
10.591443
10.510812
10.440811
10.38011
10.3276
10.282123
10.242601
10.208252
10.178533
10.152956
10.131063
10.112474
10.096949
10.084521
10.075516
10.070049
10.065362
10.061742
10.059571
10.059678
10.063849
10.072722
10.082335
10.082459
10.063297
10.031489
10.002475
9.98494
9.976868
9.9807122
9.9915129
1351.5509
2315.2728
1046.4021
619.84096
432.02678
309.20669
227.13261
177.76057
139.84593
116.55686
97.929435
84.492454
73.468916
64.624206
57.30133
51.202384
46.061452
41.699305
37.97128
34.758141
31.971019
29.543751
27.415752
25.536498
23.873578
22.394644
21.073105
19.889411
18.826784
17.873507
17.017593
16.246176
15.550842
14.923407
14.358314
13.850178
13.394485
12.986977
12.623517
12.300036
12.012587
11.758447
11.534394
11.335913
11.162266
11.010359
10.877345
10.761116
10.659472
10.571226
10.494277
10.427558
10.369734
10.319729
10.276453
10.238864
10.206192
10.17792
10.153593
10.132776
10.115099
10.100333
10.088579
10.08016
10.074636
10.069858
10.066194
10.064306
10.06521
10.070493
10.079374
10.08655
10.080544
10.055629
10.022512
9.9961531
9.98166
9.9761622
9.9817495
9.99225
1377.6692
2351.4281
1039.1758
615.92564
425.19189
306.30395
223.2337
175.88687
138.04875
115.47102
97.000102
83.644407
72.672711
63.861598
56.579905
50.519222
45.417204
41.093001
37.396221
34.21843
31.464946
29.070144
26.974374
25.126024
23.491735
22.040396
20.744968
19.586129
18.546659
17.615024
16.780127
16.028698
15.352503
14.743018
14.194752
13.702286
13.261144
12.867147
12.516213
12.20425
11.927607
11.683234
11.468593
11.279298
11.113024
10.967891
10.841155
10.730516
10.633713
10.549881
10.476815
10.413535
10.358713
10.311309
10.270317
10.234744
10.203825
10.177062
10.154032
10.134325
10.117592
10.103624
10.092572
10.084771
10.079175
10.074315
10.07072
10.069384
10.071355
10.077654
10.085722
10.089052
10.075962
10.045982
10.013256
9.9903436
9.9786914
9.9764311
9.982849
9.9929325
1401.9121
2386.9764
1029.1341
610.5293
417.05989
302.85702
218.96415
173.67874
136.12851
114.18072
95.929611
82.634434
71.732008
62.964205
55.735248
49.716583
44.661314
40.384282
36.734027
33.600699
30.888965
28.533592
26.476194
24.663618
23.063104
21.644042
20.379001
19.249015
18.236417
17.329643
16.518633
15.789882
15.135375
14.546186
14.016907
13.542088
13.117279
12.738376
12.401457
12.102491
11.837735
11.603984
11.399292
11.218942
11.06076
10.922861
10.803353
10.698668
10.60703
10.527801
10.458772
10.399037
10.347298
10.302552
10.263892
10.230387
10.201273
10.17606
10.154357
10.135782
10.120016
10.106875
10.09653
10.089323
10.083641
10.078758
10.075432
10.074963
10.078198
10.085054
10.091388
10.088657
10.0682
10.034832
10.004208
9.985201
9.9760728
9.9773249
9.9839636
9.9935605
1424.5028
2420.7136
1015.6382
603.84609
408.29323
298.89822
214.42156
171.17517
134.13181
112.7007
94.70765
81.457665
70.636811
61.912663
54.745647
48.790897
43.796553
39.578656
35.98383
32.904
30.242123
27.933207
25.920744
24.150129
22.588752
21.206774
19.976586
18.879625
17.897797
17.019295
16.234758
15.531395
14.90115
14.334604
13.826448
13.371203
12.964453
12.602136
12.280493
11.995585
11.743764
11.521593
11.327555
11.156902
11.007277
10.876733
10.763989
10.665622
10.579807
10.505312
10.440479
10.384351
10.335734
10.293668
10.257352
10.225935
10.198648
10.175004
10.154644
10.137213
10.12243
10.110142
10.100499
10.093777
10.088021
10.083253
10.080501
10.081195
10.085683
10.092124
10.09505
10.084816
10.057454
10.022911
9.9958185
9.9808544
9.9747142
9.9784013
9.9850616
9.994135
1445.6668
2450.9754
998.69096
596.55886
398.93699
294.48345
209.69219
168.42088
132.08237
111.03494
93.308732
80.084541
69.349628
60.701672
53.616131
47.740035
42.820244
38.673725
35.145196
32.128359
29.524988
27.269958
25.30908
23.586684
22.070173
20.729826
19.539133
18.479538
17.53253
16.686043
15.929095
15.253818
14.650434
14.108905
13.62402
13.190265
12.803277
12.459011
12.153907
11.884125
11.646158
11.437212
11.254311
11.093748
10.95312
10.830312
10.724554
10.632498
10.55207
10.482424
10.422182
10.369739
10.324256
10.284858
10.250861
10.221517
10.196057
10.17398
10.154963
10.138682
10.124886
10.113474
10.104536
10.098094
10.092339
10.087922
10.086134
10.08818
10.093497
10.098516
10.095737
10.076942
10.044344
10.011055
9.9884895
9.9772954
9.9749429
9.9795913
9.9861216
9.9946583
1465.6622
2475.5978
978.16964
588.51001
389.07712
289.65435
204.8658
165.44836
129.97379
109.16389
91.66729
78.499076
67.876895
59.326367
52.341344
46.561478
41.730998
37.668926
34.217981
31.274017
28.738356
26.545189
24.642252
22.974626
21.509259
20.213176
19.066681
18.048937
17.140855
16.330688
15.607468
14.962877
14.388748
13.874402
13.414673
13.003998
12.638133
12.313009
12.025305
11.771383
11.547615
11.351108
11.179864
11.029776
10.898495
10.784203
10.685385
10.599744
10.524935
10.459975
10.403819
10.355377
10.313071
10.276316
10.244574
10.217252
10.193597
10.173071
10.155385
10.140244
10.127422
10.116873
10.108668
10.102271
10.096688
10.092967
10.092523
10.09591
10.10093
10.102569
10.092303
10.065084
10.029896
10.000069
9.9824904
9.9743973
9.9759219
9.9808167
9.9871307
9.9951329
1484.7215
2491.6258
954.00562
579.76505
378.7412
284.43561
200.02959
162.26304
127.73183
106.9913
89.769044
76.692103
66.20739
57.78018
50.916807
45.251938
40.526888
36.563298
33.202423
30.34117
27.883023
25.760577
23.919383
22.313037
20.905858
19.66408
18.567071
17.595977
16.731087
15.960794
15.273981
14.662574
14.119429
13.634091
13.201105
12.814787
12.471124
12.165981
11.896257
11.658668
11.449662
11.266181
11.106623
10.967062
10.845029
10.738496
10.646601
10.567285
10.498528
10.438357
10.386121
10.341157
10.302294
10.268205
10.238642
10.213248
10.191352
10.172347
10.155967
10.141945
10.130064
10.120295
10.112753
10.106376
10.101249
10.098641
10.099729
10.103867
10.107384
10.103241
10.083901
10.050108
10.015416
9.9906116
9.9779497
9.9736912
9.9771016
9.982029
9.9880814
9.9955624
1503.1311
2493.809
926.3687
570.33812
367.99058
278.85945
195.26228
158.78908
125.24306
104.52921
87.589197
74.648446
64.330934
56.055101
49.337093
43.808147
39.206676
35.355936
32.099086
29.327556
26.956776
24.915009
23.149972
21.612785
20.270617
19.088714
18.046477
17.126124
16.308343
15.581397
14.933999
14.358026
13.845671
13.390617
12.985558
12.624487
12.303778
12.01921
11.767803
11.54677
11.352658
11.183179
11.035218
10.906074
10.793388
10.694812
10.609587
10.53614
10.472684
10.417722
10.369403
10.327673
10.291784
10.260609
10.233198
10.209611
10.189397
10.171872
10.156757
10.143813
10.13283
10.123756
10.116665
10.110558
10.106276
10.105097
10.107644
10.111478
10.111062
10.09912
10.070711
10.033304
10.002164
9.9831436
9.9743527
9.9744815
9.9783683
9.9832004
9.98897
9.99595
1521.1402
2468.402
895.96202
560.26403
356.88354
272.93986
190.56073
154.90368
122.43397
101.73584
85.100562
72.348117
62.234069
54.142454
47.597024
42.226509
37.769312
34.042142
30.904503
28.243257
25.973338
24.02302
22.342546
20.882453
19.611656
18.49583
17.513454
16.645631
15.878074
15.197182
14.591331
14.053073
13.574897
13.150572
12.77396
12.438406
12.140797
11.87692
11.643686
11.439048
11.259228
11.102269
10.965808
10.846841
10.743334
10.653275
10.574632
10.506833
10.448208
10.397812
10.353774
10.315187
10.281988
10.253371
10.228319
10.206441
10.187801
10.171696
10.157788
10.145857
10.135714
10.127346
10.120517
10.115046
10.112066
10.112445
10.11551
10.117237
10.110724
10.089255
10.053322
10.016647
9.991062
9.9778343
9.9729454
9.9756572
9.9796379
9.9843157
9.9897954
9.9962994
1538.9044
2417.6997
865.09849
549.60997
345.47067
266.58908
185.61797
150.58334
119.19553
98.567841
82.273224
69.770103
59.90418
52.035479
45.692423
40.499394
36.208722
32.635168
29.636402
27.100154
24.944696
23.096958
21.509982
20.13466
18.938567
17.893549
16.975825
16.166708
15.451567
14.818647
14.255632
13.755673
13.311636
12.917837
12.56925
12.258922
11.984021
11.740626
11.525262
11.336616
11.170856
11.025998
10.900454
10.79118
10.696094
10.613565
10.541932
10.479592
10.425489
10.37923
10.338969
10.3038
10.273102
10.24681
10.223871
10.203828
10.186629
10.171862
10.159078
10.148066
10.138661
10.130948
10.124549
10.120141
10.118693
10.120249
10.122803
10.119733
10.104858
10.073512
10.033883
10.001833
9.9826282
9.9739203
9.9736556
9.9769339
9.9808677
9.9853667
9.990558
9.9966137
1556.2753
2383.7615
833.64091
538.26168
333.75652
259.25979
180.52103
145.73391
115.4198
94.973306
79.077103
66.894634
57.329459
49.728727
43.612918
38.640303
34.54797
31.151254
28.311867
25.917071
23.888764
22.154278
20.66544
19.381824
18.268745
17.298161
16.447563
15.698636
15.036779
14.452104
13.932176
13.47048
13.060377
12.696291
12.373401
12.087486
11.834386
11.610836
11.413802
11.240395
11.088202
10.954836
10.839479
10.739397
10.652301
10.576671
10.511059
10.454144
10.404727
10.362239
10.325425
10.293292
10.265232
10.241037
10.220087
10.201793
10.185929
10.17239
10.160624
10.150438
10.141716
10.134577
10.129013
10.126032
10.125911
10.127895
10.127361
10.117647
10.092369
10.053408
10.015195
9.9898998
9.9770739
9.9723907
9.9748331
9.9782099
9.982037
9.9863491
9.9912586
9.9968958
1572.8806
2338.5809
801.17827
525.9031
321.66101
250.73743
175.09216
140.25296
111.00512
90.897841
75.483893
63.705009
54.494259
47.209846
41.38539
36.67247
32.811346
29.616888
26.956087
24.717986
22.824149
21.212414
19.832313
18.644294
17.616317
16.721744
15.938936
15.250471
14.641464
14.102536
13.624749
13.200228
12.823
12.488076
12.191134
11.928176
11.695551
11.49009
11.309079
11.150078
11.01088
10.889325
10.783394
10.691803
10.612167
10.543011
10.483002
10.430988
10.385948
10.346959
10.31329
10.283975
10.258401
10.23611
10.21695
10.200224
10.185721
10.173278
10.162408
10.152967
10.144986
10.138497
10.134188
10.132508
10.133209
10.134183
10.128152
10.109268
10.07355
10.031987
9.999667
9.9812621
9.9730901
9.9731952
9.9760938
9.9794353
9.983136
9.9872604
9.9918988
9.9971484
1588.1153
2274.4039
766.94977
512.08841
308.44275
240.89328
169.02907
134.01103
105.85792
86.28866
71.472074
60.184928
51.417543
44.527298
39.046035
34.63417
31.0363
28.066413
25.596294
23.52743
21.781448
20.297699
19.028996
17.938134
16.995283
16.175772
15.458961
14.82771
14.270701
13.777418
13.339775
12.950679
12.604524
12.296772
12.023713
11.78203
11.568439
11.379888
11.213853
11.067948
10.940196
10.828871
10.732492
10.648599
10.575792
10.512596
10.457737
10.41013
10.368865
10.333458
10.302603
10.275787
10.25243
10.232095
10.214568
10.199277
10.185977
10.1745
10.164416
10.155669
10.148428
10.142987
10.139913
10.139396
10.140439
10.137165
10.123978
10.09339
10.051282
10.012375
9.9878309
9.9760291
9.9719936
9.9743639
9.9773306
9.9805898
9.984159
9.9880992
9.9924802
9.9973738
1600.8194
2206.9146
730.2282
496.24465
294.41982
229.53854
161.87407
126.85164
99.908138
81.120232
67.038089
56.375574
48.16008
41.738494
36.652828
32.576917
29.267937
26.53609
24.272593
22.379676
20.784472
19.430291
18.27279
17.277362
16.416786
15.668967
15.013873
14.438512
13.930248
13.479459
13.079305
12.723249
12.406133
12.123713
11.872614
11.650141
11.45379
11.280505
11.128097
10.994275
10.877065
10.775411
10.686811
10.609916
10.543232
10.485438
10.435312
10.39184
10.354195
10.321686
10.293424
10.268863
10.247512
10.228962
10.212912
10.198909
10.186667
10.176017
10.166651
10.158671
10.152295
10.147999
10.146142
10.146124
10.145304
10.136334
10.112261
10.072195
10.02904
9.9968797
9.9797291
9.9722549
9.9729236
9.9755672
9.9784989
9.9816631
9.9851016
9.9888647
9.9930045
9.997574
1608.2647
2125.7602
690.7061
476.66905
279.38654
216.37214
153.16372
118.64733
93.159093
75.439986
62.263681
52.381572
44.815389
38.927107
34.277751
30.560526
27.550908
25.07176
23.017815
21.301399
19.855026
18.626969
17.576706
16.672455
15.889212
15.207218
14.610577
14.086001
13.622773
13.210966
12.844971
12.519015
12.228455
11.969388
11.738532
11.533308
11.352358
11.192601
11.052199
10.929232
10.821806
10.728096
10.646588
10.57584
10.514535
10.461498
10.415608
10.375754
10.341467
10.311635
10.285705
10.263161
10.243602
10.226699
10.211952
10.199069
10.187747
10.177808
10.16915
10.161981
10.156611
10.153422
10.152451
10.152533
10.146884
10.129741
10.094032
10.049124
10.009778
9.9858937
9.9751024
9.971725
9.9740387
9.9767154
9.97958
9.9826473
9.9859602
9.9895559
9.9934729
9.9977505
1605.3911
2025.5127
647.92422
451.09423
263.18951
201.07094
142.65987
109.42379
85.757855
69.370646
57.328061
48.345304
41.499199
36.186093
31.99663
28.648119
25.938221
23.710349
21.861548
20.314903
19.009747
17.899975
16.949498
16.129893
15.418654
14.797954
14.253613
13.774068
13.349783
12.97307
12.637597
12.338458
12.071548
11.833484
11.621381
11.432741
11.265393
11.117515
10.987331
10.873238
10.773699
10.687136
10.611807
10.546465
10.489831
10.440832
10.398755
10.362247
10.330597
10.30318
10.27939
10.258686
10.240828
10.225248
10.211642
10.19969
10.189171
10.179877
10.171969
10.165689
10.161323
10.159229
10.158698
10.156135
10.145136
10.115975
10.072283
10.027582
9.9951799
9.9787735
9.9717136
9.972677
9.9751281
9.9777712
9.9805613
9.9835366
9.9867313
9.9901717
9.9938865
9.9979046
1586.2202
1896.8442
602.11428
418.86736
245.83955
183.44315
130.57575
99.495629
78.042716
63.226926
52.445356
44.427984
38.332478
33.607461
29.880561
26.895811
24.473646
22.484352
20.827757
19.43783
18.261475
17.258432
16.397253
15.653041
15.005851
14.439659
13.941773
13.502431
13.113123
12.76705
12.458359
12.182697
11.936373
11.716372
11.520145
11.34549
11.190454
11.053262
10.932279
10.825987
10.733046
10.652579
10.582561
10.521877
10.469379
10.424014
10.38484
10.351005
10.321657
10.296252
10.27441
10.255436
10.238944
10.224563
10.21194
10.200816
10.190902
10.182264
10.17514
10.169736
10.166285
10.164779
10.16422
10.157192
10.137034
10.097809
10.050458
10.00988
9.9853332
9.9747982
9.9714339
9.9736574
9.976128
9.978716
9.9814346
9.9843256
9.9874114
9.9907109
9.9942458
9.9980372
1541.8923
1738.498
554.44691
380.79819
228.33217
163.76269
117.57844
89.467146
70.457282
57.324854
47.836166
40.788025
35.431578
31.276032
27.991208
25.351047
23.197845
21.419664
19.935279
18.683939
17.620381
16.709908
15.9255
15.24576
14.653447
14.134361
13.676121
13.270842
12.910922
12.591004
12.305208
12.049692
11.821124
11.616776
11.434335
11.271807
11.127423
10.999579
10.886793
10.78768
10.700935
10.625325
10.559661
10.502654
10.453309
10.410638
10.373803
10.342217
10.314865
10.291235
10.27083
10.253213
10.23793
10.224547
10.212788
10.202259
10.192918
10.18495
10.178565
10.173952
10.171459
10.170289
10.167178
10.155685
10.124332
10.078362
10.031331
9.9968067
9.9791567
9.9716842
9.9722521
9.9745594
9.9770069
9.979536
9.9821925
9.9850078
9.9879963
9.991172
9.994551
9.9981489
1464.0044
1575.0152
505.84862
341.81555
204.6986
144.70984
104.58798
80.00929
63.449421
51.975241
43.715604
37.581126
32.908091
29.268867
26.378331
24.042574
22.126623
20.534628
19.197328
18.063923
17.095494
16.262396
15.541389
14.914022
14.365428
13.883487
13.458232
13.081425
12.746393
12.447602
12.180476
11.941417
11.727404
11.53594
11.364897
11.212428
11.076888
10.956769
10.850667
10.757265
10.675331
10.603779
10.541873
10.48805
10.441442
10.401133
10.36631
10.336244
10.310306
10.287915
10.268633
10.252026
10.237722
10.225134
10.213917
10.203869
10.195073
10.187814
10.182119
10.17808
10.17611
10.175358
10.168644
10.149508
10.109902
10.060575
10.016452
9.9879776
9.975841
9.9709759
9.9730057
9.9753357
9.9777424
9.9802212
9.9828258
9.9855758
9.9884811
9.9915521
9.9948012
9.99824
1353.9019
1489.3012
460.23996
294.83325
181.21595
126.82401
92.842488
71.638264
57.391635
47.471302
40.301753
34.959093
30.866549
27.65745
25.0902
23.001165
21.276427
19.834537
18.615076
17.575985
16.683694
15.912614
15.242531
14.657268
14.1437
13.691098
13.290588
12.934877
12.618051
12.335658
12.082832
11.856404
11.653581
11.472059
11.309866
11.165283
11.036768
10.922914
10.822403
10.733991
10.65649
10.58875
10.529658
10.478283
10.433689
10.395039
10.361572
10.332646
10.307826
10.286395
10.267973
10.252104
10.238317
10.226151
10.215247
10.20551
10.197165
10.190509
10.18549
10.182081
10.180107
10.178525
10.169283
10.141677
10.096581
10.046444
10.006096
9.982589
9.9735726
9.9713792
9.973615
9.9759508
9.9783176
9.9807588
9.9833221
9.9860198
9.9888589
9.9918474
9.9949947
9.9983101
1222.8614
1243.9402
420.59068
253.0062
159.35723
111.91075
83.126567
64.886845
52.614373
44.011161
37.745807
33.033861
29.390773
26.508083
24.182042
22.274033
20.687087
19.351711
18.21698
17.244772
16.406113
15.678444
15.043892
14.488017
13.998959
13.566856
13.183694
12.842752
12.538489
12.266335
12.022544
11.803989
11.608088
11.432664
11.275851
11.136014
11.011678
10.901488
10.804177
10.718561
10.643572
10.578419
10.521574
10.472182
10.429322
10.392173
10.359987
10.332108
10.30799
10.28719
10.269284
10.253812
10.240284
10.228251
10.217404
10.207762
10.199676
10.193249
10.18856
10.185615
10.183588
10.180003
10.168047
10.134896
10.086828
10.037131
9.9998717
9.9797551
9.9718248
9.9717942
9.9740459
9.9763766
9.9787143
9.9811309
9.9836658
9.9863273
9.9891203
9.9920515
9.9951284
9.9983585
1104.6294
1109.3859
388.48381
222.62409
143.01101
100.95411
75.944732
59.984
49.213635
41.597188
35.993514
31.738294
28.417468
25.767068
23.611501
21.830498
20.339332
19.076889
17.99813
17.069201
16.264154
15.562716
14.948759
14.409321
13.934273
13.513332
13.139267
12.805737
12.507543
12.240365
12.000642
11.785434
11.592296
11.419172
11.264299
11.126124
11.003245
10.894365
10.79826
10.713766
10.639771
10.575217
10.519103
10.470461
10.428383
10.392023
10.360615
10.333486
10.310076
10.289924
10.272568
10.257492
10.24419
10.232206
10.221235
10.211355
10.202985
10.196329
10.191404
10.188461
10.186567
10.182029
10.167616
10.132212
10.083021
10.033593
9.9975446
9.9787278
9.9712115
9.9719954
9.9742624
9.9765909
9.9789136
9.9813175
9.9838384
9.9864821
9.9892525
9.9921553
9.9951968
9.9983836
1050.4028
1067.0393
364.66986
205.78859
132.33805
93.561898
70.63008
56.120173
46.345813
39.423476
34.31444
30.416666
27.361424
24.91259
22.913046
21.254783
19.861485
18.677935
17.663349
16.787021
16.025403
15.360075
14.776339
14.262226
13.807824
13.404842
13.046268
12.726215
12.439746
12.182756
11.951847
11.744211
11.557521
11.389828
11.239471
11.104998
10.985107
10.8786
10.784348
10.701279
10.628371
10.564645
10.509168
10.461034
10.419369
10.383357
10.352259
10.325429
10.302323
10.282524
10.265597
10.251031
10.238351
10.227037
10.216697
10.207359
10.199265
10.19308
10.188843
10.186572
10.1857
10.183839
10.172165
10.137051
10.087258
10.036567
9.9990674
9.9790844
9.9713066
9.9719668
9.9742692
9.9766048
9.9789251
9.9813249
9.9838429
9.9864844
9.9892533
9.992155
9.9951962
9.9983836
32266.783
11497.585
2930.2405
808.28666
665.35195
438.12052
352.28954
266.5353
223.40298
179.37395
152.71958
128.47519
110.72543
96.581983
85.696995
76.738227
69.252453
62.805343
57.200023
52.310285
48.021327
44.235711
40.873719
37.871354
35.184483
32.764795
30.581939
28.607363
26.81851
25.196669
23.724253
22.384452
21.161964
20.043126
19.01794
18.078455
17.217745
16.430069
15.710557
15.054876
14.459443
13.920554
13.434803
12.998836
12.608975
12.261704
11.95391
11.682112
11.442935
11.23321
11.050008
10.890575
10.752178
10.632595
10.529529
10.440897
10.365243
10.302417
10.250685
10.207164
10.170255
10.138791
10.112081
10.090333
10.073433
10.060128
10.048958
10.038572
10.027155
10.013484
9.9985362
9.9860252
9.9837305
9.9916097
10.00768
10.020979
10.022382
10.01102
9.9927376
9.978067
34260.168
6530.2521
2239.8387
830.93164
653.99053
390.20469
337.31286
244.47738
214.11374
167.7511
147.6321
123.40395
108.15163
94.850695
84.676232
75.877906
68.572137
62.254713
56.762883
51.960992
47.736205
43.998841
40.673359
37.699836
35.032694
32.632458
30.468117
28.509565
26.734824
25.125004
23.662195
22.329712
21.112694
19.998022
18.976503
18.040583
17.183582
16.399788
15.684133
15.032163
14.440273
13.904675
13.421955
12.988687
12.601152
12.255857
11.949715
11.679264
11.441201
11.232379
11.049875
10.890976
10.752992
10.633745
10.530924
10.442338
10.366314
10.302821
10.250567
10.206543
10.16922
10.137477
10.110686
10.08899
10.072307
10.059039
10.04722
10.035582
10.023116
10.009462
9.9959314
9.9860021
9.9844962
9.9936207
10.010002
10.023278
10.024154
10.012123
9.9934001
9.9786442
34636.115
5197.8602
2365.3362
889.29504
660.49244
379.27851
340.70797
240.42978
216.1376
165.01535
148.46254
122.4542
108.47193
94.894711
84.868846
75.925298
68.635102
62.295189
56.795332
51.984416
47.750654
44.006537
40.675446
37.69768
35.026157
32.625288
30.461893
28.504043
26.729937
25.120205
23.65679
22.323197
21.104817
19.988684
18.966051
18.02959
17.172783
16.389779
15.675208
15.024472
14.433928
13.899693
13.418319
12.986281
12.599794
12.255348
11.949863
11.679897
11.442216
11.233692
11.051393
10.892618
10.754732
10.6356
10.532739
10.444049
10.367701
10.303414
10.250539
10.205936
10.168179
10.136205
10.109423
10.087814
10.07126
10.057795
10.045082
10.032087
10.018838
10.005656
9.9937523
9.9861489
9.9855433
9.9956687
10.012407
10.025585
10.025873
10.013153
9.9939805
9.979116
33727.724
4301.3983
2341.3872
927.76804
662.17637
376.70102
342.91427
238.11528
216.47851
162.7468
148.44166
121.28942
108.18083
94.34239
84.553698
75.593203
68.370511
62.045311
56.573936
51.786297
47.572571
43.847103
40.532697
37.570307
34.91437
32.525389
30.374422
28.427186
26.662055
25.059541
23.601906
22.273068
21.058651
19.945772
18.926172
17.992832
17.139474
16.360124
15.649139
15.001842
14.414601
13.88347
13.404996
12.975557
12.591316
12.248763
11.944842
11.676136
11.439501
11.23185
11.050243
10.89199
10.754585
10.635709
10.533016
10.444405
10.368071
10.303208
10.249856
10.204789
10.166718
10.134653
10.108019
10.08655
10.070028
10.05612
10.042328
10.028018
10.014345
10.002069
9.9918829
9.9860117
9.9868672
9.9978191
10.014911
10.027887
10.02748
10.014028
9.9943924
9.9795061
30800.866
3775.293
2366.322
954.12383
662.53286
377.5718
345.27879
238.11207
217.1927
161.56969
148.20374
120.36032
107.68088
93.620538
84.053513
75.13408
67.975275
61.68111
56.249274
51.495544
47.312858
43.615956
40.327431
37.388832
34.755052
32.387164
30.251345
28.318497
26.565407
24.972786
23.523547
22.202108
20.9942
19.886889
18.872385
17.943983
17.095666
16.32132
15.61507
14.972213
14.389151
13.861887
13.38697
12.960698
12.579205
12.239008
11.937072
11.669992
11.434729
11.228247
11.047594
10.890083
10.753263
10.634742
10.532271
10.443798
10.36754
10.302433
10.24873
10.203316
10.165043
10.132979
10.106545
10.085171
10.068487
10.053877
10.038905
10.023492
10.009848
9.9988597
9.9908207
9.986337
9.988455
10.000104
10.017495
10.030164
10.029011
10.014766
9.9946644
9.9798441
26393.871
3441.291
2365.8765
963.41217
657.52481
379.65447
346.56663
238.73235
217.54739
160.80708
147.49804
119.12164
106.85171
92.715788
83.360532
74.513896
67.425253
61.189272
55.81202
51.105732
46.966713
43.308965
40.055706
37.149186
34.544644
32.202654
30.087682
28.173147
26.435409
24.855822
23.418088
22.10711
20.908597
19.809498
18.802493
17.88115
17.039702
16.27191
15.571744
14.934525
14.356692
13.834188
13.36357
12.941088
12.562901
12.225577
11.926093
11.661047
11.427527
11.222556
11.043181
10.886748
10.750631
10.632606
10.530463
10.442222
10.366151
10.301096
10.247192
10.201586
10.163229
10.13121
10.10493
10.083522
10.066443
10.050909
10.034802
10.018668
10.00555
9.9961533
9.9899484
9.9870169
9.9902306
10.002526
10.020138
10.032412
10.030423
10.01536
9.9948268
9.9801431
19678.078
3232.3082
2347.8925
957.1984
652.80084
381.79726
345.54622
239.16005
216.11421
159.96594
146.22972
117.64293
105.97989
91.763989
82.550816
73.782118
66.775646
60.614903
55.301207
50.650517
46.562161
42.949332
39.736552
36.866759
34.295171
31.982194
29.892597
27.997495
26.277232
24.713019
23.289227
21.991123
20.804311
19.715635
18.718223
17.8058
16.972809
16.212921
15.520044
14.889562
14.317925
13.800977
13.3353
12.917142
12.542742
12.20874
11.912108
11.649442
11.417982
11.214823
11.037077
10.881846
10.746683
10.629348
10.527695
10.439831
10.364086
10.299311
10.245353
10.199702
10.16135
10.129349
10.103063
10.081393
10.063698
10.047136
10.030101
10.013767
10.001641
9.9940508
9.9895934
9.9880434
9.992175
10.005072
10.022819
10.034593
10.031707
10.015793
9.9948844
9.9804056
14009.28
3100.2278
2312.381
939.34054
647.32895
383.30949
343.2128