/*--------------------------------*- C++ -*----------------------------------*\
  =========                 |
  \\      /  F ield         | OpenFOAM: The Open Source CFD Toolbox
   \\    /   O peration     | Website:  https://openfoam.org
    \\  /    A nd           | Version:  12
     \\/     M anipulation  |
\*---------------------------------------------------------------------------*/
FoamFile
{
    format      ascii;
    class       surfaceScalarField;
    location    "0.005";
    object      phi;
}
// * * * * * * * * * * * * * * * * * * * * * * * * * * * * * * * * * * * * * //

dimensions      [1 0 -1 0 0 0 0];

internalField   nonuniform List<scalar> 
31760
(
-0.00071947331
-0.051383764
0.052157842
-0.0016580028
-0.063671887
0.064663056
-0.0026217037
-0.062649999
0.063670479
-0.0036428271
-0.06799491
0.069073732
-0.0047272115
-0.069790931
0.07093696
-0.0058261068
-0.073966982
0.075129323
-0.0070027431
-0.076899213
0.078143169
-0.0082132743
-0.080852076
0.082132776
-0.0094846306
-0.084456728
0.085801716
-0.010815424
-0.088528346
0.08993676
-0.012200663
-0.092627896
0.094094757
-0.013653481
-0.097001295
0.098540011
-0.015169308
-0.10153996
0.10314617
-0.0167564
-0.10630528
0.10798754
-0.018414668
-0.1112863
0.11304475
-0.020148946
-0.11649959
0.11833933
-0.021961983
-0.12195291
0.12387693
-0.023856943
-0.12765728
0.12966902
-0.025836995
-0.13362315
0.13572601
-0.027905391
-0.13986117
0.14205869
-0.030065429
-0.14638307
0.14867883
-0.032320737
-0.15320024
0.15559822
-0.034674852
-0.16032579
0.16282988
-0.037131686
-0.16777315
0.17038771
-0.039694328
-0.17555674
0.17828532
-0.042367526
-0.18369076
0.18653864
-0.045155398
-0.19219161
0.19516348
-0.048061579
-0.20107611
0.20417621
-0.051089737
-0.2103613
0.21359394
-0.054243998
-0.2200652
0.22343517
-0.057527669
-0.23020648
0.23371779
-0.06094399
-0.24080453
0.24446117
-0.064495619
-0.25188029
0.25568573
-0.068185396
-0.26345434
0.2674123
-0.072015069
-0.27555022
0.27966341
-0.075986022
-0.28819166
0.29246256
-0.080099266
-0.3014038
0.3058346
-0.084354888
-0.31521363
0.31980576
-0.08875221
-0.32964832
0.33440257
-0.093289272
-0.34473847
0.34965451
-0.097963245
-0.36051496
0.36559174
-0.10276968
-0.37701053
0.38224556
-0.10770275
-0.39426005
0.39964967
-0.11275522
-0.41230004
0.4178394
-0.11791763
-0.43116949
0.43685176
-0.12317868
-0.45090856
0.4567253
-0.12852417
-0.47156043
0.47750056
-0.13393812
-0.49316943
0.49922032
-0.13940173
-0.51578348
0.52192995
-0.14489321
-0.53945228
0.54567637
-0.1503875
-0.5642283
0.57050907
-0.15585626
-0.59016777
0.59648113
-0.16126622
-0.61732925
0.62364639
-0.16657944
-0.64577413
0.65206181
-0.17175358
-0.6755658
0.68178665
-0.17674048
-0.70677138
0.71288251
-0.18148769
-0.73946193
0.74541668
-0.18593713
-0.77371437
0.77946116
-0.1900226
-0.80961049
0.81509075
-0.19367036
-0.84723545
0.85238464
-0.19679679
-0.88667939
0.89142518
-0.19930806
-0.92803743
0.93230031
-0.20109696
-0.97141029
0.97510273
-0.20203939
-1.0169061
1.0199327
-0.20199292
-1.0646413
1.0668953
-0.2008099
-1.1147454
1.1161035
-0.1983642
-1.1673596
1.1676761
-0.19455083
-1.2226233
1.2217504
-0.18908859
-1.2806661
1.2784668
-0.18118984
-1.3416663
1.3379908
-0.16953856
-1.4060229
1.4006539
-0.15359056
-1.4744014
1.4670664
-0.13542732
-1.5471553
1.5377041
-0.11995304
-1.6234429
1.6119005
-0.11044079
-1.7016943
1.6877337
-0.10311966
-1.7817639
1.7646779
-0.091404721
-1.865534
1.8445137
-0.071740458
-1.954732
1.929249
-0.044165067
-2.0498676
2.0196111
-2.1507154
2.1153587
-0.00070375726
-0.050624539
-0.0015423992
-0.062779069
-0.0024270303
-0.061706929
-0.0033699768
-0.066991924
-0.0043387089
-0.068758426
-0.005374927
-0.072864903
-0.0064340106
-0.075770292
-0.0075672326
-0.079644962
-0.0087305837
-0.083216763
-0.0099650556
-0.087213482
-0.011243494
-0.09126498
-0.012589442
-0.09556646
-0.013993729
-0.10004214
-0.015465431
-0.1047351
-0.017004971
-0.10964308
-0.018616589
-0.11477878
-0.02030254
-0.12015199
-0.022066543
-0.12577225
-0.023911734
-0.13165059
-0.025841527
-0.13779736
-0.027859414
-0.14422421
-0.029968468
-0.1509429
-0.032172672
-0.15796562
-0.034475649
-0.16530609
-0.03688223
-0.17297748
-0.039395341
-0.18099583
-0.042019857
-0.18937557
-0.044759708
-0.1981344
-0.047619356
-0.2072888
-0.050602479
-0.21685753
-0.053713177
-0.22685883
-0.056954695
-0.23731288
-0.06033017
-0.24824071
-0.063842353
-0.2596632
-0.067493397
-0.27160443
-0.071285316
-0.28408816
-0.075218938
-0.29714062
-0.079295345
-0.31078839
-0.083513367
-0.32506081
-0.087871931
-0.33998826
-0.092368599
-0.35560283
-0.096999253
-0.37193882
-0.10175834
-0.38903236
-0.1066394
-0.40692068
-0.11163375
-0.42564481
-0.11673083
-0.44524659
-0.12191794
-0.46577115
-0.12717948
-0.48726547
-0.13249795
-0.50977915
-0.1378534
-0.53336406
-0.14322282
-0.55807549
-0.14857997
-0.58397267
-0.15389453
-0.61111791
-0.15913199
-0.6395764
-0.16425286
-0.66941599
-0.16921258
-0.70070828
-0.17396193
-0.73352818
-0.17844618
-0.76795697
-0.18260391
-0.80408165
-0.18636666
-0.8419927
-0.18965665
-0.88178751
-0.19238533
-0.92356876
-0.19444983
-0.96744578
-0.19573127
-1.0135344
-0.19609578
-1.0619623
-0.19541702
-1.1128694
-0.19359605
-1.1664098
-0.19052592
-1.2227236
-0.18585172
-1.2819545
-0.17868345
-1.3443295
-0.16774063
-1.4103053
-0.15288853
-1.4804924
-0.13662636
-1.5550746
-0.12426706
-1.633206
-0.11846486
-1.713632
-0.11438745
-1.7966588
-0.10523228
-1.8841003
-0.088076262
-1.977389
-0.06346169
-2.0768483
-2.1823101
-0.00064124226
-0.049929452
-0.0014209265
-0.061946439
-0.0022245794
-0.060846307
-0.0030912644
-0.066066274
-0.0039670435
-0.067820287
-0.0049292641
-0.071837312
-0.0058946422
-0.074736357
-0.0069430601
-0.07852639
-0.00801407
-0.082070494
-0.0091567718
-0.085991681
-0.010341081
-0.089997529
-0.011589065
-0.094230976
-0.012892292
-0.098646816
-0.014259085
-0.10327131
-0.015690302
-0.1081097
-0.017189617
-0.11317184
-0.018760426
-0.11846782
-0.020405642
-0.12400763
-0.022129439
-0.12980106
-0.023934488
-0.13585993
-0.025825089
-0.14219428
-0.027804567
-0.14881678
-0.029876643
-0.15573923
-0.032045975
-0.16297433
-0.034315811
-0.17053665
-0.036691392
-0.17844016
-0.039176298
-0.18670093
-0.041775743
-0.19533494
-0.044493448
-0.20436015
-0.047334661
-0.21379375
-0.050302521
-0.22365605
-0.053401261
-0.23396612
-0.05663449
-0.24474555
-0.060004614
-0.2560164
-0.063514879
-0.26780182
-0.067167075
-0.28012695
-0.070963014
-0.29301787
-0.074902727
-0.30650287
-0.078986632
-0.32061077
-0.08321349
-0.33537349
-0.087580638
-0.35082446
-0.092084907
-0.36699834
-0.096721691
-0.38393253
-0.10148414
-0.40166634
-0.10636467
-0.42024136
-0.11135342
-0.43970151
-0.11643887
-0.4600934
-0.12160632
-0.48146696
-0.12684004
-0.50387256
-0.13212097
-0.52736509
-0.13742738
-0.55200221
-0.14273594
-0.57784442
-0.14801876
-0.60495819
-0.15324434
-0.63341174
-0.15837668
-0.66327674
-0.16337473
-0.69462906
-0.16819277
-0.72754737
-0.1727786
-0.76211807
-0.17707579
-0.79843071
-0.18101986
-0.83658207
-0.18453944
-0.87667437
-0.18755162
-0.9188184
-0.18995997
-0.9631309
-0.19165094
-1.0097373
-0.19250232
-1.0587746
-0.19240428
-1.1103932
-0.19127857
-1.1647497
-0.18899318
-1.2219964
-0.18511384
-1.2822978
-0.17869092
-1.3459158
-0.1685469
-1.4133409
-0.15497201
-1.4850895
-0.1409731
-1.5612814
-0.13234022
-1.6410847
-0.1305613
-1.7235691
-0.12961194
-1.8093602
-0.12282474
-1.90016
-0.10811678
-1.9971191
-0.086515047
-2.100446
-2.2100455
-0.0005830318
-0.049295189
-0.0013059377
-0.061172981
-0.002038648
-0.06005924
-0.0028384102
-0.065210127
-0.003638687
-0.066960497
-0.0045270315
-0.070886858
-0.0054162626
-0.073781718
-0.0063879048
-0.077485656
-0.0073794115
-0.081006803
-0.0084409184
-0.08485431
-0.0095389664
-0.088819673
-0.010697418
-0.092988507
-0.011908686
-0.09734709
-0.01318017
-0.10190664
-0.014513671
-0.10667803
-0.015913023
-0.11166903
-0.017381566
-0.11689026
-0.018922651
-0.12235166
-0.020539698
-0.12806298
-0.02223693
-0.13403521
-0.024017395
-0.14027955
-0.025885983
-0.14680681
-0.027846465
-0.15362988
-0.029902715
-0.16076133
-0.032059826
-0.16821446
-0.034321759
-0.17600433
-0.036693618
-0.18414579
-0.039179853
-0.19265546
-0.041786028
-0.20155013
-0.044515587
-0.21084905
-0.047373656
-0.22057083
-0.050364482
-0.23073538
-0.053491534
-0.24136506
-0.056758361
-0.25248176
-0.060167966
-0.26410914
-0.063722349
-0.27627325
-0.06742321
-0.28900037
-0.071271874
-0.30231906
-0.075268013
-0.31625971
-0.079410868
-0.33085456
-0.083698893
-0.3461377
-0.088128321
-0.36214588
-0.092695071
-0.37891665
-0.09739332
-0.39649091
-0.10221551
-0.41491178
-0.10715329
-0.4342238
-0.11219478
-0.4544769
-0.1173284
-0.47572046
-0.12253824
-0.49800888
-0.12780719
-0.52139794
-0.13311585
-0.54594718
-0.13844161
-0.57171992
-0.14375974
-0.59878425
-0.14904202
-0.62721119
-0.1542549
-0.657077
-0.15936206
-0.68845943
-0.16432065
-0.72144268
-0.16908303
-0.75611652
-0.17359599
-0.79257437
-0.17779997
-0.83091758
-0.18162858
-0.87125305
-0.18500522
-0.91369794
-0.1878395
-0.95837631
-0.19002584
-1.0054226
-0.19145538
-1.0549821
-0.19204011
-1.1072113
-0.19170213
-1.162281
-0.19028233
-1.2203432
-0.1872556
-1.2815952
-0.18160875
-1.3463161
-0.17233364
-1.4150005
-0.16020732
-1.4880988
-0.14896326
-1.5656897
-0.14461292
-1.6470213
-0.14703212
-1.7313976
-0.14905545
-1.8197296
-0.14450242
-1.9135607
-0.13225856
-2.0137745
-0.11379642
-2.120522
-2.2338005
-0.00051963628
-0.048727181
-0.0011961939
-0.060448638
-0.0018588121
-0.059345195
-0.0025978381
-0.064417762
-0.0033301132
-0.066171883
-0.0041641114
-0.069993992
-0.0049883953
-0.072895457
-0.0058994938
-0.076509692
-0.0068182679
-0.080019587
-0.0078026614
-0.083797921
-0.0088224345
-0.08772416
-0.0099000768
-0.091831121
-0.011029786
-0.096133408
-0.012217806
-0.10063015
-0.013466615
-0.10533599
-0.014779411
-0.11025796
-0.016160047
-0.11540604
-0.017612343
-0.12079017
-0.019140015
-0.12642022
-0.020747047
-0.13230688
-0.022438066
-0.13846072
-0.024216303
-0.14489392
-0.026087125
-0.15161721
-0.028054977
-0.15864404
-0.030124279
-0.16598772
-0.032300238
-0.17366244
-0.034588046
-0.18168306
-0.036992669
-0.19006635
-0.039519079
-0.19882903
-0.042172496
-0.20799008
-0.044957751
-0.21756846
-0.047879181
-0.22758453
-0.050940895
-0.23806084
-0.054146891
-0.24901936
-0.057499895
-0.26048495
-0.061002484
-0.27248372
-0.064656585
-0.28504253
-0.068463445
-0.29819052
-0.072423074
-0.31195919
-0.076535006
-0.32638117
-0.080797224
-0.34149197
-0.085207419
-0.35732847
-0.089760997
-0.37393035
-0.094452754
-0.39133895
-0.099276509
-0.40959817
-0.10422338
-0.42875506
-0.10928396
-0.44885983
-0.11444653
-0.46996391
-0.11969727
-0.49212349
-0.12502102
-0.5153953
-0.1303993
-0.53984177
-0.13581234
-0.56552704
-0.14123734
-0.59252159
-0.14664857
-0.62089875
-0.15201718
-0.65073704
-0.15730945
-0.6821182
-0.16248659
-0.71513035
-0.16750601
-0.74986565
-0.1723182
-0.7864228
-0.17686866
-0.82490631
-0.18109525
-0.86542832
-0.18492705
-0.90811025
-0.18827973
-0.95308291
-0.1910577
-1.000488
-0.19316736
-1.0504794
-0.19453618
-1.103222
-0.19509568
-1.1588884
-0.19462296
-1.2176516
-0.19250638
-1.2797135
-0.18766483
-1.3453905
-0.17937526
-1.4151461
-0.16903909
-1.4893947
-0.16127081
-1.5681855
-0.16176149
-1.6508818
-0.16836393
-1.7369931
-0.17308808
-1.827622
-0.17066134
-1.9241253
-0.16096745
-2.0271824
-0.14582642
-2.136911
-2.2534066
-0.00045921694
-0.048222512
-0.0010951243
-0.059767803
-0.0016955256
-0.058696373
-0.0023868938
-0.063676259
-0.0030597738
-0.065445904
-0.0038481226
-0.0691501
-0.0046091209
-0.072075989
-0.0054607205
-0.075596732
-0.0063130136
-0.079102719
-0.0072327855
-0.082810222
-0.0081877616
-0.086697716
-0.0091978375
-0.090745791
-0.01025969
-0.094992301
-0.011378306
-0.099428015
-0.012556772
-0.10406949
-0.013799135
-0.10892278
-0.015109054
-0.11399825
-0.016490478
-0.11930554
-0.017947922
-0.12485394
-0.019485324
-0.13065472
-0.021107665
-0.13671739
-0.022819591
-0.14305445
-0.024626052
-0.14967631
-0.026531944
-0.15659645
-0.028542687
-0.1638276
-0.03066392
-0.17138372
-0.032900265
-0.17928062
-0.035257927
-0.18753342
-0.037742138
-0.19615979
-0.040358195
-0.20517858
-0.043111553
-0.21460855
-0.046006581
-0.22447112
-0.049048351
-0.23478807
-0.052239757
-0.24558353
-0.055584785
-0.25688118
-0.059086172
-0.26870834
-0.062745443
-0.28109295
-0.06656382
-0.29406438
-0.070541998
-0.30765455
-0.074679108
-0.32189752
-0.078973996
-0.33682896
-0.083423491
-0.3524876
-0.08802449
-0.36891289
-0.09277217
-0.38614768
-0.097659693
-0.40423772
-0.10268
-0.42323005
-0.10782511
-0.44317552
-0.11308365
-0.46412873
-0.11844458
-0.48614511
-0.12389286
-0.50928501
-0.12941367
-0.53361018
-0.1349884
-0.55918796
-0.14059696
-0.58608971
-0.14621667
-0.61439063
-0.15182163
-0.6441717
-0.15738208
-0.6755175
-0.16286456
-0.70851866
-0.16822962
-0.74327181
-0.17343364
-0.77987828
-0.17842623
-0.81844755
-0.18315076
-0.85909497
-0.18754024
-0.901947
-0.19151714
-0.94713861
-0.19499683
-0.99481834
-0.19790343
-1.0451479
-0.20018236
-1.0982992
-0.20174938
-1.1544503
-0.20231384
-1.2137809
-0.20113949
-1.2765176
-0.19715135
-1.3429811
-0.19007733
-1.4136228
-0.18200654
-1.4888638
-0.17853709
-1.5687123
-0.18433343
-1.6525059
-0.19497837
-1.7401941
-0.2020975
-1.8328462
-0.20174572
-1.9316613
-0.19477384
-2.0371339
-0.18319559
-2.149407
-2.2686643
-0.00040574328
-0.047774158
-0.0010098558
-0.059121562
-0.0015557914
-0.058104964
-0.0022249186
-0.062960105
-0.0028492171
-0.064771716
-0.0035909854
-0.068356159
-0.0042925372
-0.071319488
-0.0050899383
-0.074741597
-0.0058896467
-0.078242283
-0.0067549967
-0.081880973
-0.0076568946
-0.085728569
-0.0086115491
-0.089720307
-0.0096185582
-0.093910675
-0.010682044
-0.098285878
-0.01180613
-0.10286248
-0.012994342
-0.10764711
-0.014251561
-0.11264877
-0.015581866
-0.11787789
-0.016990003
-0.12334311
-0.018481251
-0.12905512
-0.020060067
-0.13502428
-0.021732441
-0.14126151
-0.023503359
-0.14777824
-0.025378258
-0.15458744
-0.027363234
-0.16170118
-0.02946369
-0.16913405
-0.031686293
-0.17690055
-0.034036423
-0.18501706
-0.036519648
-0.19350098
-0.039142393
-0.20237027
-0.041909463
-0.21164525
-0.044826171
-0.22134678
-0.047896837
-0.23149761
-0.051126114
-0.24212147
-0.054516503
-0.25324413
-0.058071004
-0.26489233
-0.061791956
-0.27709461
-0.065680182
-0.28988172
-0.069735846
-0.30328615
-0.073958549
-0.31734239
-0.0783471
-0.33208674
-0.082898975
-0.34755911
-0.08761115
-0.36379925
-0.09247879
-0.38085164
-0.09749706
-0.39876181
-0.1026593
-0.4175784
-0.10795773
-0.43735313
-0.11338417
-0.45814062
-0.11892752
-0.47999889
-0.12457659
-0.50298792
-0.13031694
-0.5271722
-0.13613322
-0.55261939
-0.14200828
-0.579402
-0.14792201
-0.6075975
-0.1538524
-0.63728792
-0.15977336
-0.66856096
-0.16565553
-0.7015091
-0.17146473
-0.73623231
-0.17716225
-0.77283487
-0.18270415
-0.81142956
-0.18803735
-0.85213708
-0.19309959
-0.89508692
-0.19781935
-0.94041837
-0.20212597
-0.98828441
-0.20596404
-1.0388533
-0.2092907
-1.0923032
-0.21198954
-1.1488165
-0.21366211
-1.2085808
-0.21347335
-1.2718395
-0.21042183
-1.3389301
-0.20490722
-1.4102745
-0.19979204
-1.4863373
-0.20156455
-1.5670346
-0.21296966
-1.6517771
-0.22727249
-1.7408015
-0.23648994
-1.8351871
-0.2382735
-1.9359266
-0.23427954
-2.0433924
-0.22655321
-2.1577726
-2.2793346
-0.00035355774
-0.047380696
-0.00093248205
-0.05850318
-0.0014268285
-0.057567958
-0.0020890362
-0.062253788
-0.0026670345
-0.064146891
-0.0033714312
-0.067602784
-0.0040250727
-0.070614248
-0.0047798506
-0.073932587
-0.005537912
-0.077427156
-0.0063586674
-0.081000154
-0.0072195719
-0.084804433
-0.008132364
-0.088740898
-0.0090995222
-0.092873319
-0.010124532
-0.097186851
-0.011211906
-0.10169705
-0.012366253
-0.1064104
-0.013591573
-0.11133653
-0.014893815
-0.1164839
-0.016277764
-0.12186232
-0.017748984
-0.12748167
-0.019313161
-0.13335219
-0.020976084
-0.13948469
-0.022743812
-0.1458903
-0.024623284
-0.1525811
-0.026619687
-0.15957088
-0.028740183
-0.16687221
-0.030990622
-0.17450088
-0.033377545
-0.1824725
-0.035907186
-0.19080473
-0.038585326
-0.19951594
-0.041417393
-0.20862673
-0.044408767
-0.21815798
-0.04756414
-0.22813305
-0.050887044
-0.23857677
-0.054381078
-0.2495148
-0.058048995
-0.26097464
-0.061892121
-0.27298617
-0.065911743
-0.28558007
-0.070108139
-0.29878973
-0.074480741
-0.31265034
-0.079028165
-0.32719885
-0.083749045
-0.34247498
-0.088639786
-0.35852052
-0.093697071
-0.37537946
-0.098916422
-0.39309828
-0.10429229
-0.41172644
-0.10981864
-0.43131587
-0.11548836
-0.45192188
-0.12129303
-0.47360342
-0.12722295
-0.49642126
-0.13326712
-0.52044066
-0.13941215
-0.54573109
-0.14564375
-0.57236529
-0.15194532
-0.60042229
-0.15829844
-0.62998513
-0.16468164
-0.66114339
-0.17106926
-0.69399233
-0.17743234
-0.72863366
-0.18373773
-0.76517424
-0.18994659
-0.80373012
-0.19601157
-0.84442583
-0.20187487
-0.88739495
-0.2074729
-0.93278076
-0.21275136
-0.98073921
-0.21767435
-1.0314437
-0.22219943
-1.085075
-0.22614993
-1.1418204
-0.22899327
-1.2018789
-0.22983411
-1.2655043
-0.22792907
-1.3330487
-0.22451125
-1.4049473
-0.22343751
-1.4815831
-0.23135254
-1.5629522
-0.24819636
-1.6484632
-0.26561526
-1.7385847
-0.27672748
-1.8343829
-0.28082294
-1.9366491
-0.28014937
-2.0456848
-0.27661608
-2.1617242
-2.2851349
-0.00030608523
-0.047037251
-0.00086952177
-0.0579028
-0.0013188538
-0.057078624
-0.0019700473
-0.061561194
-0.0025036104
-0.063569394
-0.0031797972
-0.066880633
-0.003803584
-0.069941988
-0.0045267386
-0.073158494
-0.0052583383
-0.076641938
-0.0060493059
-0.08015273
-0.0068853981
-0.083908888
-0.0077736108
-0.087790031
-0.0087188706
-0.091862014
-0.0097246636
-0.096111397
-0.010796141
-0.10055208
-0.01193817
-0.10519079
-0.013156441
-0.11003637
-0.014456351
-0.11509751
-0.015843858
-0.12038347
-0.017325616
-0.12590344
-0.018907505
-0.13166841
-0.020596814
-0.13768777
-0.022399643
-0.14397382
-0.024323046
-0.15053767
-0.02637423
-0.15739294
-0.028559594
-0.16455296
-0.030886264
-0.17203275
-0.033360708
-0.17984852
-0.03598897
-0.18801833
-0.038777447
-0.19656011
-0.041731777
-0.20549517
-0.044856563
-0.21484534
-0.048156166
-0.22463419
-0.051634782
-0.23488665
-0.055295384
-0.24562952
-0.059139924
-0.25689125
-0.063170351
-0.26870162
-0.067387495
-0.28109234
-0.071791263
-0.29409758
-0.076381509
-0.30775245
-0.081156925
-0.32209489
-0.086115749
-0.3371649
-0.09125609
-0.35300417
-0.096575449
-0.36965712
-0.10207006
-0.38717124
-0.10773613
-0.40559573
-0.11356898
-0.42498316
-0.11956344
-0.44538891
-0.12571356
-0.46687228
-0.13201174
-0.48949519
-0.13844985
-0.51332289
-0.14501807
-0.53842597
-0.15170484
-0.56487819
-0.15849762
-0.59275882
-0.16538124
-0.62215255
-0.17233858
-0.65314967
-0.17934869
-0.68584781
-0.18638837
-0.72034939
-0.19342894
-0.75676493
-0.20043642
-0.7952125
-0.20736905
-0.83581885
-0.21417606
-0.8787215
-0.22080556
-0.92406823
-0.22722103
-0.97201863
-0.2334035
-1.0227465
-0.23928478
-1.0764365
-0.24459674
-1.1332768
-0.24867253
-1.1934799
-0.25062151
-1.257315
-0.25025532
-1.3251355
-0.24954411
-1.3974585
-0.2537096
-1.4745712
-0.2685293
-1.5562624
-0.29045862
-1.6423135
-0.31039696
-1.733272
-0.32333738
-1.8301362
-0.33006234
-1.9335116
-0.33314071
-2.0436837
-0.33417004
-2.1609493
-2.2857368
-0.00026856175
-0.046733705
-0.00082855813
-0.057308209
-0.0012465974
-0.056623067
-0.0018743066
-0.060894687
-0.0023772026
-0.063025289
-0.0030379637
-0.066176728
-0.0036463495
-0.06928809
-0.0043509041
-0.072406084
-0.0050716927
-0.07587076
-0.0058481001
-0.079323247
-0.0066755381
-0.083025539
-0.0075569396
-0.086849687
-0.0084994496
-0.090857353
-0.009507017
-0.095038253
-0.010585457
-0.09940443
-0.01174056
-0.10396262
-0.012978583
-0.10872117
-0.014306183
-0.11368837
-0.015730082
-0.11887342
-0.017256864
-0.12428562
-0.018894934
-0.12993413
-0.020650488
-0.13583054
-0.022532035
-0.14198483
-0.02454646
-0.1484097
-0.026701139
-0.15511826
-0.029003663
-0.16212359
-0.031460918
-0.16944138
-0.034079348
-0.17708823
-0.03686581
-0.18508173
-0.039825749
-0.19344114
-0.042964211
-0.20218814
-0.046286274
-0.21134444
-0.049795758
-0.2209348
-0.053496181
-0.23098437
-0.057390064
-0.24152088
-0.061479347
-0.25257327
-0.065765274
-0.26417193
-0.070248435
-0.27634912
-0.074929343
-0.28913894
-0.079807348
-0.30257752
-0.084881917
-0.31670253
-0.090152231
-0.33155403
-0.095616992
-0.34717401
-0.1012742
-0.36360734
-0.10712241
-0.38090072
-0.11315954
-0.39910372
-0.11938267
-0.41826938
-0.12578898
-0.43845262
-0.13237489
-0.45971303
-0.1391362
-0.48211264
-0.14606705
-0.50571779
-0.15316173
-0.5305983
-0.16041209
-0.5568297
-0.16780898
-0.58449142
-0.17534164
-0.61366865
-0.18299691
-0.64445276
-0.19075963
-0.67694183
-0.19861099
-0.71124048
-0.20652814
-0.74746094
-0.21448149
-0.78572362
-0.22243367
-0.82615723
-0.23034443
-0.86890046
-0.23817884
-0.91410658
-0.2459208
-0.96193812
-0.25355245
-1.01257
-0.26094896
-1.0661875
-0.26771191
-1.122982
-0.27309195
-1.1831707
-0.27632132
-1.2470584
-0.27813515
-1.3149868
-0.28127754
-1.3874403
-0.29198305
-1.4648307
-0.31382465
-1.546701
-0.3400774
-1.6330375
-0.36202494
-1.7245428
-0.37691835
-1.8221019
-0.38674394
-1.9261592
-0.39405896
-2.0370338
-0.40007602
-2.1550748
-2.2807731
-0.00023645389
-0.046464488
-0.00080257381
-0.056709685
-0.0012023452
-0.056188108
-0.0018195879
-0.060241042
-0.0023070554
-0.062499143
-0.002960631
-0.065482641
-0.0035662743
-0.068639696
-0.0042632243
-0.071664165
-0.0049876172
-0.075099003
-0.0057652883
-0.078495669
-0.0066011478
-0.082137089
-0.007495492
-0.085899885
-0.0084569181
-0.089837433
-0.0094903003
-0.093943137
-0.010602369
-0.098227188
-0.011799854
-0.10269629
-0.01308992
-0.10735837
-0.014479828
-0.1122216
-0.015977878
-0.11729413
-0.017591797
-0.1225858
-0.019329586
-0.12810552
-0.021199803
-0.13386429
-0.023210171
-0.13987291
-0.025368902
-0.14614358
-0.027684153
-0.15268944
-0.030162733
-0.15952488
-0.032811845
-0.16666514
-0.035638134
-0.17412737
-0.038647701
-0.1819296
-0.041845147
-0.19009256
-0.045236243
-0.19863667
-0.048824208
-0.20758612
-0.052613141
-0.21696472
-0.056605115
-0.22679955
-0.060802162
-0.23711831
-0.065206315
-0.24794985
-0.069818484
-0.25932557
-0.074639053
-0.27127815
-0.079668476
-0.28384149
-0.084907139
-0.29705163
-0.090355005
-0.31094649
-0.096012152
-0.32556582
-0.10187833
-0.34095172
-0.10795396
-0.35714813
-0.11423895
-0.37420205
-0.12073288
-0.39216299
-0.12743628
-0.41108278
-0.13434809
-0.43101749
-0.14146822
-0.45202526
-0.14879527
-0.47416889
-0.15632757
-0.49751438
-0.16406174
-0.52213263
-0.17199446
-0.54809843
-0.1801208
-0.57549187
-0.18843379
-0.60439902
-0.19692497
-0.63491126
-0.20558421
-0.66712682
-0.2143981
-0.70115184
-0.22334866
-0.73710015
-0.23241048
-0.77509436
-0.24155367
-0.8152628
-0.25075007
-0.85774675
-0.25998809
-0.90270153
-0.26926652
-0.95029442
-0.27854373
-1.0007012
-0.2876038
-1.0541041
-0.29589945
-1.1107005
-0.30268662
-1.1707171
-0.30759671
-1.2344506
-0.3122058
-1.3023801
-0.32062832
-1.3749055
-0.33929246
-1.4521696
-0.36772207
-1.5339393
-0.39732212
-1.6203
-0.42097702
-1.7120382
-0.43819324
-1.8098736
-0.4517151
-1.9141983
-0.46379263
-2.025332
-0.47524577
-2.143694
-2.2698165
-0.0002090731
-0.046224744
-0.00079097202
-0.056097444
-0.001181552
-0.055764535
-0.0018078186
-0.05958064
-0.002294625
-0.061976054
-0.0029506882
-0.064788551
-0.0035685832
-0.06798166
-0.0042715767
-0.070918927
-0.0050165484
-0.074309524
-0.0058148192
-0.077650486
-0.0066798605
-0.081222598
-0.0076108714
-0.084916713
-0.0086174515
-0.088775822
-0.0097056413
-0.092796849
-0.010883136
-0.096988345
-0.012157759
-0.10135685
-0.013537867
-0.10590977
-0.015032138
-0.11065491
-0.016649009
-0.11560068
-0.018398133
-0.12075568
-0.020287968
-0.12613001
-0.022327735
-0.13173388
-0.024525741
-0.137579
-0.026890487
-0.14367735
-0.029429821
-0.15004269
-0.032151086
-0.15668989
-0.035060541
-0.16363525
-0.038164538
-0.17089574
-0.041467768
-0.17849102
-0.044975457
-0.18644121
-0.048690686
-0.1947688
-0.052616876
-0.20349756
-0.056756623
-0.21265203
-0.061111774
-0.22225997
-0.065684003
-0.23234914
-0.070474658
-0.24294862
-0.075484423
-0.25409038
-0.080714593
-0.26580636
-0.086165795
-0.27813101
-0.091839273
-0.29109958
-0.097736266
-0.30474983
-0.1038583
-0.31912101
-0.11020744
-0.33425444
-0.11678561
-0.35019397
-0.12359502
-0.36698602
-0.1306386
-0.38467907
-0.1379188
-0.40332507
-0.14543842
-0.42297931
-0.15319978
-0.44369993
-0.16120528
-0.46554906
-0.16945656
-0.48859283
-0.17795534
-0.51290136
-0.1867017
-0.53855032
-0.19569528
-0.56561938
-0.20493367
-0.59419538
-0.21441381
-0.62436877
-0.22412931
-0.65623926
-0.23407205
-0.68991245
-0.24422934
-0.72550312
-0.25458226
-0.76313504
-0.26510882
-0.80293826
-0.27579926
-0.84505411
-0.28666592
-0.88963718
-0.29770751
-0.9368614
-0.3088206
-0.98690266
-0.31966771
-1.0399386
-0.32959556
-1.0961684
-0.33796701
-1.1558532
-0.34532612
-1.2192823
-0.35404489
-1.2869121
-0.36928454
-1.3592413
-0.39630556
-1.4362493
-0.43044028
-1.5176199
-0.46245855
-1.6037119
-0.48784583
-1.6953317
-0.50798415
-1.7930271
-0.52589321
-1.897183
-0.54328846
-2.0081283
-0.56066676
-2.1263485
-2.2523908
-0.00018653213
-0.046009512
-0.00079625328
-0.055459322
-0.0011872726
-0.055342592
-0.0018307336
-0.058905183
-0.0023315208
-0.061441211
-0.00300242
-0.064081974
-0.0036507519
-0.067295657
-0.0043776615
-0.070152356
-0.0051633968
-0.073481991
-0.0060062543
-0.076763559
-0.0069257265
-0.080256661
-0.0079216705
-0.083871743
-0.0090043953
-0.087641364
-0.010181557
-0.091565061
-0.011462136
-0.095650073
-0.012855342
-0.099902678
-0.014370771
-0.10432989
-0.016018309
-0.10893923
-0.017807945
-0.11373896
-0.019749254
-0.11873811
-0.021852206
-0.12394634
-0.02412588
-0.12937477
-0.026578867
-0.13503556
-0.02921966
-0.14094077
-0.03205529
-0.14710558
-0.035092246
-0.1535454
-0.038336888
-0.16027658
-0.041793258
-0.16731839
-0.045465748
-0.17469006
-0.049357493
-0.1824129
-0.053471157
-0.19050979
-0.057809067
-0.19900476
-0.062371915
-0.20792388
-0.067162228
-0.21729299
-0.072180714
-0.22714156
-0.077428507
-0.23749816
-0.08290754
-0.24839383
-0.088618987
-0.25986115
-0.094565721
-0.27193273
-0.10075003
-0.28464426
-0.10717484
-0.29803265
-0.11384375
-0.3121363
-0.12076123
-0.3269954
-0.1279317
-0.34265361
-0.13536038
-0.35915622
-0.14305298
-0.37655087
-0.15101523
-0.39488917
-0.15925316
-0.41422563
-0.16777322
-0.43461747
-0.17658118
-0.45612691
-0.18568311
-0.47881905
-0.19508365
-0.5027647
-0.20478857
-0.52803763
-0.21480156
-0.55471871
-0.22512631
-0.58289355
-0.23576343
-0.61265378
-0.24671231
-0.64409781
-0.25796866
-0.67733194
-0.2695251
-0.71247051
-0.28137202
-0.74963664
-0.29350129
-0.78896397
-0.30592397
-0.83059314
-0.31866685
-0.8746756
-0.33170083
-0.92139028
-0.34482417
-0.97091169
-0.35755973
-1.0234185
-0.36928221
-1.0791207
-0.37973276
-1.1382496
-0.39025874
-1.2012132
-0.40452923
-1.2684515
-0.42856819
-1.3403293
-0.4635513
-1.4166575
-0.50202961
-1.4973231
-0.53585227
-1.5828461
-0.56335921
-1.673949
-0.58723783
-1.7710947
-0.6102589
-1.8746223
-0.63354172
-1.9849318
-0.65737859
-2.1025245
-2.2279643
-0.0001713449
-0.045811342
-0.00082375377
-0.054780361
-0.0012214856
-0.054915919
-0.0018949942
-0.05820172
-0.0024266872
-0.060877628
-0.0031280242
-0.063347204
-0.0038284028
-0.066559971
-0.0046010749
-0.069342493
-0.0054507681
-0.072593096
-0.006365351
-0.075807633
-0.0073684196
-0.079209994
-0.0084620153
-0.08273214
-0.0096574835
-0.086397342
-0.010964502
-0.090206769
-0.012393513
-0.094166904
-0.013955391
-0.098283564
-0.015661023
-0.10256375
-0.017521323
-0.10701493
-0.019547022
-0.11164555
-0.021748452
-0.11646501
-0.024135163
-0.12148376
-0.026716438
-0.12671313
-0.029500734
-0.13216612
-0.032494795
-0.13785645
-0.035705297
-0.14379936
-0.039137344
-0.15001179
-0.042794937
-0.15651113
-0.046681565
-0.16331713
-0.050799562
-0.17045011
-0.055150529
-0.17793204
-0.059735536
-0.18578624
-0.064556021
-0.19403629
-0.069612816
-0.20270878
-0.074907054
-0.21182913
-0.080440532
-0.22142605
-0.086215142
-0.23152791
-0.092233423
-0.24216498
-0.098499333
-0.2533683
-0.10501594
-0.26517121
-0.11178871
-0.27760684
-0.11882272
-0.29071232
-0.12612515
-0.3045237
-0.13370202
-0.3190821
-0.14156139
-0.33442887
-0.1497121
-0.35060819
-0.15816232
-0.36766801
-0.16692177
-0.385658
-0.17600046
-0.40463195
-0.18540803
-0.42464688
-0.19515496
-0.44576356
-0.20525075
-0.4680473
-0.21570593
-0.49156705
-0.2265293
-0.51639755
-0.23773036
-0.54261811
-0.24931805
-0.57031359
-0.26129858
-0.59957594
-0.27367491
-0.63050335
-0.28644812
-0.66320061
-0.29961778
-0.69778188
-0.31318644
-0.73436975
-0.3271672
-0.77309833
-0.34158912
-0.81410909
-0.3564686
-0.85755455
-0.37171074
-0.90360788
-0.3869928
-0.95243955
-0.40175034
-1.0042292
-0.41549668
-1.0591943
-0.42875806
-1.1176378
-0.44405649
-1.1799453
-0.46574067
-1.2464623
-0.49917704
-1.3176277
-0.54107157
-1.3929439
-0.58251979
-1.4725933
-0.61803938
-1.5572125
-0.6484325
-1.6473881
-0.67699888
-1.7435443
-0.70583228
-1.8459967
-0.73560418
-1.9551931
-0.76647542
-2.0716573
-2.1959374
-0.00016294198
-0.045623353
-0.00087684154
-0.054041659
-0.0012862632
-0.05447945
-0.0020065844
-0.057453384
-0.0025902983
-0.060264079
-0.003338993
-0.062567218
-0.0041136086
-0.065752311
-0.0049559918
-0.068465293
-0.0058946859
-0.0716177
-0.0069119412
-0.074751669
-0.0080334446
-0.078047671
-0.0092647328
-0.081457776
-0.010618532
-0.084998083
-0.012106445
-0.088670853
-0.013740589
-0.092482055
-0.015532987
-0.096437579
-0.017495569
-0.10054452
-0.019639769
-0.1048108
-0.021976569
-0.10924533
-0.024516103
-0.11385833
-0.027267725
-0.118661
-0.030239365
-0.12366609
-0.03343784
-0.12888767
-0.036869117
-0.1343403
-0.040537076
-0.14004126
-0.044445244
-0.14600779
-0.048595047
-0.15225937
-0.05298791
-0.15881567
-0.057624548
-0.16569765
-0.06250502
-0.17292789
-0.067629957
-0.18052903
-0.072999617
-0.18852495
-0.078615545
-0.19694083
-0.084479304
-0.205802
-0.090594024
-0.21513549
-0.096962823
-0.22496955
-0.10359093
-0.23533224
-0.11048335
-0.24625465
-0.11764763
-0.25776746
-0.12509054
-0.26990439
-0.13282172
-0.28269949
-0.14084947
-0.29618996
-0.14918479
-0.31041394
-0.15783902
-0.32541215
-0.16682355
-0.3412284
-0.17615108
-0.35790894
-0.18583485
-0.37550248
-0.19588851
-0.39406193