/*--------------------------------*- C++ -*----------------------------------*\
  =========                 |
  \\      /  F ield         | OpenFOAM: The Open Source CFD Toolbox
   \\    /   O peration     | Website:  https://openfoam.org
    \\  /    A nd           | Version:  12
     \\/     M anipulation  |
\*---------------------------------------------------------------------------*/
FoamFile
{
    format      ascii;
    class       volScalarField;
    location    "0.005";
    object      T;
}
// * * * * * * * * * * * * * * * * * * * * * * * * * * * * * * * * * * * * * //

dimensions      [0 0 0 1 0 0 0];

internalField   nonuniform List<scalar> 
16000
(
292.11457
284.53102
287.59341
286.01697
287.0384
286.56972
286.98579
286.89286
287.09077
287.13702
287.26606
287.35759
287.46841
287.57519
287.68696
287.80125
287.91937
288.04155
288.16837
288.30016
288.43725
288.57977
288.72773
288.88098
289.03927
289.20228
289.36968
289.54113
289.7164
289.89529
290.07763
290.26331
290.45215
290.64392
290.83834
291.03509
291.23383
291.43421
291.6359
291.83855
292.04184
292.24546
292.44915
292.65266
292.8558
293.05838
293.26031
293.46154
293.66208
293.86204
294.06156
294.26084
294.46013
294.65967
294.85984
295.06109
295.26385
295.46852
295.67564
295.88593
296.10022
296.31947
296.54496
296.7787
297.02354
297.28177
297.5518
297.8275
298.11029
298.43951
298.90282
299.56889
300.32318
300.83287
300.6945
299.97098
299.11441
298.49625
298.1768
298.04947
292.08926
284.37368
287.57322
285.91622
287.00805
286.50295
286.96194
286.85972
287.06883
287.12388
287.2592
287.36054
287.4796
287.59631
287.71752
287.84171
287.96972
288.10188
288.23866
288.38043
288.52753
288.68012
288.83826
289.00183
289.17064
289.34433
289.52254
289.70488
289.89101
290.08061
290.27346
290.46932
290.66797
290.86913
291.0725
291.2777
291.48438
291.69216
291.90066
292.10952
292.31838
292.52689
292.73478
292.94183
293.14783
293.3526
293.55603
293.75807
293.95876
294.1582
294.35656
294.55405
294.75089
294.94739
295.14393
295.34101
295.53915
295.73885
295.94074
296.14563
296.35449
296.56846
296.78903
297.01843
297.25944
297.51354
297.7777
298.04618
298.32656
298.66651
299.15416
299.83504
300.56286
300.97688
300.69392
299.86914
298.99903
298.41851
298.13897
298.03564
292.10299
284.25784
287.58332
285.85423
287.00324
286.48332
286.95724
286.86286
287.08568
287.15076
287.29355
287.40584
287.53353
287.66056
287.7919
287.92663
288.06534
288.20832
288.35602
288.50875
288.66684
288.83046
288.99969
289.17444
289.35449
289.53951
289.72909
289.92279
290.12016
290.32082
290.52439
290.73055
290.93899
291.14936
291.3613
291.5744
291.78827
292.00249
292.21667
292.4304
292.64329
292.855
293.06524
293.27379
293.48048
293.68516
293.88773
294.08817
294.28655
294.48304
294.67785
294.87122
295.06345
295.2549
295.44604
295.63742
295.82965
296.02339
296.21934
296.41839
296.62156
296.8301
297.04571
297.2707
297.50757
297.75685
298.01468
298.27692
298.55771
298.91208
299.42611
300.11776
300.80588
301.08984
300.64584
299.73091
298.86998
298.34123
298.10565
298.02508
292.14127
284.17274
287.61856
285.81852
287.0238
286.50382
286.98649
286.90415
287.13419
287.21188
287.36107
287.48508
287.62228
287.76043
287.90284
288.04903
288.1994
288.35421
288.51383
288.67853
288.8486
289.0242
289.20539
289.39207
289.58404
289.78095
289.98234
290.18771
290.39654
290.60831
290.82255
291.03881
291.25666
291.47569
291.69547
291.91554
292.13549
292.35487
292.57326
292.79025
293.00543
293.21846
293.42908
293.6371
293.8424
294.04488
294.24448
294.44124
294.6353
294.82692
295.01637
295.20396
295.39005
295.57512
295.75971
295.94447
296.13005
296.31723
296.50682
296.69976
296.89709
297.10015
297.31079
297.5314
297.76397
298.00793
298.25887
298.51528
298.7992
299.17321
299.71846
300.41804
301.0475
301.16723
300.54674
299.56054
298.73343
298.26808
298.0775
298.01714
292.19356
284.11483
287.67377
285.80548
287.07099
286.53634
287.05391
286.98236
287.21174
287.30196
287.45838
287.5954
287.74342
287.89383
288.04856
288.20745
288.37075
288.53865
288.71145
288.88937
289.07265
289.26138
289.45561
289.65521
289.85994
290.06942
290.28316
290.50057
290.72106
290.94399
291.16877
291.39482
291.62161
291.84862
292.07534
292.30131
292.52604
292.74912
292.97009
293.18855
293.40412
293.61649
293.82544
294.03086
294.23267
294.43087
294.62547
294.8166
295.00448
295.18947
295.37195
295.55231
295.73098
295.90853
296.08562
296.26295
296.44124
296.62132
296.80412
296.99063
297.18188
297.37929
297.58489
297.80103
298.029
298.26702
298.5106
298.76229
299.05363
299.45442
300.03442
300.73061
301.27102
301.18693
300.39167
299.36467
298.59669
298.2025
298.05464
298.01128
292.25391
284.08411
287.74762
285.82131
287.14611
286.62766
287.14897
287.07885
287.31628
287.42225
287.58695
287.73816
287.89852
288.06245
288.23093
288.40391
288.58155
288.76397
288.95138
289.14391
289.34173
289.54487
289.75329
289.96682
290.18516
290.40788
290.63442
290.86413
291.09631
291.33021
291.56513
291.80036
292.03524
292.26917
292.50158
292.73194
292.9598
293.1847
293.40625
293.62406
293.83782
294.04728
294.25231
294.45286
294.64898
294.84076
295.02832
295.21189
295.3918
295.56852
295.74253
295.91434
296.08445
296.25349
296.42222
296.59143
296.76188
296.93443
297.11008
297.28983
297.4748
297.6665
297.8671
298.07869
298.30162
298.53292
298.76904
299.01875
299.32457
299.76079
300.37465
301.04489
301.44817
301.13138
300.18103
299.15247
298.46626
298.14656
298.03683
298.0071
292.32175
284.08068
287.83875
285.88388
287.24611
286.73048
287.25809
287.20979
287.4494
287.57545
287.74999
287.91664
288.09112
288.27013
288.45402
288.64275
288.83638
289.03494
289.23855
289.44723
289.66103
289.87989
290.10368
290.33214
290.56489
290.8014
291.04103
291.28306
291.52667
291.77103
292.01529
292.25864
292.50031
292.73961
292.97593
293.20872
293.43753
293.66194
293.88161
294.09626
294.30564
294.50964
294.70822
294.90146
295.08952
295.27263
295.45106
295.62513
295.79532
295.96217
296.12631
296.28833
296.44882
296.60847
296.7681
296.92857
297.0907
297.25536
297.42355
297.59632
297.77489
297.96094
298.15664
298.36361
298.58089
298.80465
299.03404
299.28677
299.6165
300.09593
300.73285
301.34726
301.55745
300.99313
299.92175
298.93525
298.34793
298.10116
298.02358
298.00423
292.39686
284.10641
287.94512
286.01203
287.37355
286.87064
287.38507
287.37514
287.61756
287.76524
287.95196
288.13567
288.3264
288.52238
288.72361
288.92998
289.14145
289.35796
289.57947
289.8059
290.03716
290.27305
290.51332
290.75757
291.0053
291.25589
291.50859
291.76256
292.0169
292.27065
292.52287
292.77266
293.01917
293.26165
293.49945
293.73206
293.95905
294.18009
294.39495
294.60345
294.80552
295.00117
295.19053
295.37383
295.55136
295.72351
295.8907
296.05338
296.21215
296.36766
296.52063
296.67175
296.8217
296.97122
297.12116
297.27241
297.42586
297.58238
297.74295
297.90867
298.08092
298.26156
298.45261
298.65472
298.86556
299.0813
299.30634
299.56997
299.9345
300.4609
301.09849
301.61983
301.57767
300.76638
299.62706
298.72467
298.24626
298.06597
298.01422
298.00236
292.47985
284.16644
288.06991
286.16732
287.52772
287.04638
287.55228
287.57955
287.82623
287.9975
288.19913
288.4017
288.61098
288.82606
289.04677
289.27286
289.5042
289.74057
289.98178
290.2276
290.47775
290.73186
290.98951
291.25014
291.51309
291.7776
292.04279
292.30773
292.57139
292.83275
293.09079
293.34454
293.59312
293.83577
294.07188
294.30096
294.5227
294.73691
294.94349
295.14246
295.33393
295.51811
295.69531
295.86593
296.03043
296.18936
296.34328
296.49282
296.63865
296.78152
296.92222
297.06154
297.20022
297.33906
297.47891
297.62068
297.76526
297.91355
298.06651
298.22533
298.39161
298.5673
298.75387
298.95063
299.15408
299.36229
299.58793
299.87332
300.28276
300.85061
301.45517
301.80932
301.47506
300.45773
299.3151
298.53181
298.16446
298.04036
298.00801
298.00123
292.57557
284.26555
288.22257
286.34779
287.70473
287.26578
287.76485
287.82896
288.08209
288.27845
288.49816
288.72174
288.95217
289.18883
289.43144
289.67961
289.93304
290.19132
290.45408
290.72085
290.99116
291.26441
291.53996
291.81705
292.09484
292.37241
292.64875
292.9228
293.19347
293.45968
293.72039
293.97463
294.22154
294.46044
294.69079
294.91225
295.12466
295.32801
295.52242
295.70814
295.88551
296.05497
296.21703
296.3723
296.52139
296.66502
296.80389
296.93875
297.07038
297.19959
297.32723
297.45413
297.5811
297.70896
297.83858
297.97085
298.10662
298.24676
298.39232
298.54469
298.70565
298.87693
299.05896
299.24947
299.44481
299.64793
299.88265
300.20267
300.66371
301.25166
301.78058
301.90957
301.25023
300.08358
299.00692
298.36626
298.10276
298.02297
298.00417
298.00058
292.6882
284.40789
288.40993
286.56522
287.91413
287.53205
288.02261
288.12809
288.39135
288.61472
288.85629
289.10373
289.35836
289.61953
289.88683
290.15968
290.43755
290.71981
291.00584
291.29491
291.58626
291.87905
292.17235
292.4652
292.75653
293.04526
293.33026
293.61039
293.88452
294.1516
294.41062
294.66071
294.90115
295.13138
295.35107
295.5601
295.75851
295.94657
296.12465
296.29326
296.45303
296.60461
296.74875
296.88623
297.01785
297.14444
297.26683
297.38588
297.50244
297.61735
297.73148
297.8457
297.96083
298.07773
298.19726
298.32025
298.44749
298.57986
298.71854
298.86522
299.02167
299.18888
299.36578
299.54891
299.73655
299.94021
300.19649
300.56335
301.07481
301.64366
302.03265
301.83855
300.90229
299.67233
298.72328
298.23458
298.05934
298.01202
298.00198
298.00025
292.81901
284.59707
288.63542
286.83905
288.15752
287.85021
288.33366
288.48369
288.76221
289.01504
289.28274
289.5575
289.83977
290.12871
290.42371
290.72393
291.02857
291.33671
291.64738
291.95955
292.27211
292.58391
292.89375
293.20041
293.50262
293.79917
294.08884
294.37048
294.64302
294.90552
295.15713
295.39719
295.62523
295.84099
296.0444
296.23565
296.41508
296.58327
296.74087
296.8887
297.02762
297.15853
297.28239
297.40013
297.51269
297.62101
297.72602
297.82861
297.92968
298.03009
298.1307
298.23236
298.33591
298.4422
298.55204
298.66622
298.78548
298.91076
299.04346
299.18541
299.33805
299.50106
299.67164
299.84664
300.02961
300.24354
300.53652
300.95734
301.49892
301.99983
302.17719
301.61104
300.4533
299.25934
298.48165
298.13903
298.03138
298.0057
298.00084
298.00009
292.97042
284.83957
288.90434
287.1658
288.46495
288.22821
288.7073
288.90502
289.20492
289.4903
289.78868
290.09474
290.40845
290.72868
291.05449
291.38473
291.7182
292.05358
292.38951
292.72455
293.05724
293.38609
293.7096
294.02634
294.3349
294.63399
294.92242
295.19915
295.4633
295.71418
295.95128
296.17429
296.38315
296.57797
296.7591
296.92708
297.08263
297.22661
297.36
297.48386
297.59929
297.70739
297.80926
297.90598
297.99858
298.08804
298.17534
298.26139
298.34708
298.43326
298.52076
298.6104
298.70298
298.7993
298.90013
299.00621
299.11832
299.23755
299.36543
299.50364
299.65272
299.81066
299.97365
300.14139
300.32696
300.56549
300.90949
301.38431
301.90984
302.26597
302.11175
301.21907
299.94492
298.88007
298.29376
298.07484
298.01496
298.0024
298.00031
298.00003
293.14691
285.14589
289.22198
287.55745
288.83046
288.67547
289.1547
289.403
289.73132
290.05333
290.38745
290.7294
291.07874
291.43393
291.79354
292.15597
292.51951
292.88238
293.24272
293.5987
293.94845
294.29018
294.62217
294.94284
295.25077
295.54476
295.82381
296.08718
296.33437
296.56516
296.77954
296.97774
297.16019
297.32752
297.48053
297.62016
297.74747
297.86364
297.96989
298.06748
298.15766
298.24169
298.32075
298.39599
298.46846
298.53917
298.60908
298.67908
298.75002
298.82271
298.89793
298.97643
299.05895
299.14623
299.23897
299.33791
299.44398
299.55843
299.68274
299.81789
299.96294
300.11435
300.26967
300.43469
300.63495
300.91565
301.31667
301.81909
302.27752
302.42182
301.85404
300.69362
299.43158
298.56258
298.16331
298.03613
298.00629
298.00087
298.00009
298.00001
293.35346
285.52898
289.58917
288.02264
289.26726
289.20225
289.68864
289.99121
290.35615
290.72028
291.09585
291.47877
291.86798
292.26138
292.65693
293.05245
293.44562
293.83415
294.21568
294.58795
294.94877
295.29616
295.62831
295.94372
296.24117
296.5198
296.77908
297.01882
297.23916
297.44051
297.62355
297.78914
297.93831
298.07222
298.19211
298.29931
298.39517
298.48108
298.55842
298.62857
298.69286
298.75259
298.80897
298.86312
298.91609
298.96885
299.02229
299.07727
299.13457
299.19492
299.25903
299.32757
299.40121
299.48057
299.56635
299.65936
299.76072
299.87174
299.99345
300.12557
300.26547
300.40935
300.55931
300.73135
300.96215
301.29781
301.75082
302.23211
302.52444
302.31054
301.39962
300.09405
298.96665
298.32407
298.0808
298.01529
298.00224
298.00025
298.00002
298
293.59355
286.00565
289.9994
288.5722
289.78827
289.82315
290.32664
290.6888
291.09947
291.51224
291.93512
292.36369
292.79606
293.22949
293.66115
294.0882
294.50767
294.91673
295.31255
295.69259
296.05452
296.39642
296.7167
297.01429
297.28854
297.53929
297.76676
297.97162
298.1548
298.31754
298.46123
298.58741
298.69767
298.79365
298.87697
298.9492
299.01189
299.06654
299.11459
299.15742
299.19635
299.2326
299.26734
299.30162
299.33643
299.37265
299.41109
299.45253
299.49765
299.54712
299.60155
299.66153
299.7276
299.80035
299.88048
299.96898
300.06711
300.17593
300.29542
300.4236
300.55705
300.69426
300.84518
301.03902
301.31924
301.71491
302.18247
302.56897
302.62559
301.98951
300.79206
299.49624
298.58872
298.16734
298.03488
298.00544
298.00061
298.00004
298
298
293.87217
286.60413
290.48748
289.22507
290.41451
290.561
291.09368
291.52165
291.98695
292.45465
292.92963
293.40694
293.8836
294.35605
294.82059
295.27362
295.71154
296.13107
296.52918
296.90337
297.2516
297.57249
297.8652
298.12956
298.36591
298.57514
298.75852
298.91767
299.05445
299.17088
299.26902
299.35099
299.4188
299.47442
299.51967
299.55626
299.5858
299.60977
299.62953
299.64638
299.66151
299.67604
299.691
299.70732
299.72588
299.74744
299.77273
299.80242
299.8371
299.87736
299.92369
299.97659
300.03653
300.10407
300.18004
300.26558
300.36185
300.46919
300.58597
300.7087
300.835
300.97023
301.13542
301.3693
301.70751
302.14399
302.57635
302.79255
302.43921
301.45021
300.11314
298.97039
298.31816
298.07497
298.01261
298.00146
298.00007
297.99999
298
298
294.20314
287.35439
291.06792
290.01159
291.17566
291.44521
292.02036
292.52012
293.04768
293.5753
294.10507
294.63123
295.14948
295.6552
296.14376
296.61093
297.05275
297.46599
297.84799
298.19701
298.51199
298.79278
299.03986
299.25443
299.43816
299.59316
299.72181
299.82668
299.91039
299.97558
300.0248
300.06048
300.08488
300.10006
300.1079
300.11008
300.10812
300.10337
300.09704
300.09026
300.08403
300.07929
300.07691
300.07766
300.08227
300.09138
300.10562
300.12553
300.15164
300.18442
300.22428
300.27162
300.32688
300.39072
300.4641
300.54817
300.64354
300.74918
300.86193
300.97831
301.10023
301.24295
301.43874
301.72724
302.12187
302.55632
302.85469
302.7646
302.02144
300.76249
299.45918
298.5606
298.15158
298.02818
298.00341
298.00012
297.99994
297.99999
298
298
294.61187
288.21334
291.78343
290.96489
292.10657
292.50798
293.14054
293.71812
294.31374
294.90368
295.48686
296.05641
296.60649
297.13155
297.62642
298.08689
298.50954
298.89218
299.23355
299.53357
299.79302
300.01353
300.19736
300.34725
300.46623
300.55755
300.62447
300.67023
300.69793
300.71052
300.71072
300.70101
300.68364
300.66059
300.6336
300.6042
300.57372
300.5433
300.51395
300.48657
300.46195
300.44083
300.42388
300.41169
300.40484
300.40385
300.40921
300.42139
300.4408
300.46782
300.50277
300.54601
300.59804
300.65969
300.73203
300.8158
300.91048
301.01336
301.12058
301.23142
301.35591
301.52092
301.76484
302.11223
302.53086
302.89575
303.00238
302.48901
301.39326
300.03011
298.90868
298.28457
298.06075
298.00807
298.00027
297.99981
297.99995
298
298
298
295.13413
289.21616
292.66535
292.11884
293.24913
293.78954
294.49531
295.15585
295.82089
296.46877
297.09495
297.69147
298.25159
298.76979
299.24168
299.66453
300.03694
300.35906
300.63214
300.85855
301.04137
301.18426
301.29115
301.36614
301.41328
301.43652
301.43959
301.42595
301.39881
301.36104
301.31524
301.26368
301.2084
301.15111
301.09332
301.03631
300.98116
300.92877
300.87993
300.83531
300.79549
300.76099
300.73229
300.70983
300.69401
300.68523
300.68386
300.69026
300.70475
300.72761
300.7591
300.79961
300.84985
300.91079
300.98333
301.06732
301.16055
301.25906
301.36034
301.47002
301.60896
301.81278
302.11443
302.50714
302.90136
303.12531
302.85289
301.97197
300.64941
299.36003
298.50094
298.12548
298.01921
298.00086
297.99951
297.99985
297.99998
298
298
298
295.82
290.46744
293.76116
293.52446
294.66193
295.34603
296.13547
296.87666
297.60033
298.28675
298.92882
299.5189
300.05135
300.52288
300.93199
301.27934
301.56701
301.79851
301.97814
302.11087
302.20188
302.25642
302.27957
302.27617
302.25066
302.20712
302.14921
302.08021
302.00298
301.92008
301.83371
301.74577
301.65791
301.57154
301.48783
301.40776
301.33218
301.26176
301.19705
301.13853
301.0866
301.04158
301.0038
300.97352
300.95103
300.93659
300.93047
300.9329
300.94409
300.96422
300.99357
301.0327
301.0825
301.14398
301.21742
301.30117
301.39138
301.48423
301.58169
301.69906
301.86793
302.12498
302.48106
302.88198
303.17368
303.13124
302.48034
301.28262
299.90551
298.82329
298.24342
298.04505
298.00315
297.99896
297.99959
297.99994
298
298
298
298
296.72071
292.03997
295.15236
295.25819
296.42103
297.24283
298.10811
298.90731
299.6557
300.33741
300.94621
301.47794
301.93124
302.30771
302.61079
302.84576
303.01876
303.13666
303.20634
303.23465
303.22799
303.19231
303.13295
303.0547
302.96174
302.8577
302.74576
302.62861
302.50859
302.38769
302.26761
302.14978
302.03542
301.92557
301.82107
301.72264
301.63086
301.54621
301.46907
301.39974
301.33847
301.28547
301.2409
301.20494
301.17773
301.15946
301.15026
301.15025
301.15952
301.1782
301.20666
301.24566
301.29625
301.3591
301.43329
301.51545
301.6009
301.68848
301.788
301.92553
302.13793
302.45084
302.83888
303.18942
303.33359
302.9072
301.90156
300.53078
299.26278
298.44551
298.102
298.01102
297.99842
297.99899
297.9998
297.99999
298
298
298
298
297.81723
294.04957
296.94099
297.40144
298.59251
299.52497
300.42386
301.22452
301.93307
302.54154
303.04974
303.46074
303.78028
304.01638
304.17795
304.27457
304.31558
304.30992
304.26574
304.19041
304.09035
303.97114
303.83755
303.69363
303.54278
303.38786
303.23124
303.07493
302.92058
302.76957
302.62307
302.48204
302.34729
302.21947
302.09916
301.9868
301.88278
301.78739
301.70088
301.62344
301.55522
301.49631
301.44681
301.40682
301.37642
301.35569
301.34468
301.34338
301.35178
301.37006
301.39874
301.43877
301.49109
301.55549
301.62946
301.7082
301.78795
301.87304
301.98324
302.15391
302.41995
302.77885
303.1594
303.40941
303.24044
302.48143
301.21242
299.82707
298.77028
298.21764
298.03407
297.99914
297.99773
297.99939
297.99995
298.00001
298
298
298
298
299.30144
296.60811
299.22268
300.00984
301.1779
302.16811
303.01604
303.7255
304.30508
304.75889
305.0968
305.33103
305.47476
305.54157
305.54422
305.49457
305.40303
305.27871
305.12931
304.96135
304.78019
304.59029
304.39526
304.19804
304.00103
303.80615
303.61497
303.42875
303.24849
303.07504
302.90904
302.75106
302.60152
302.46079
302.32916
302.20687
302.09413
301.99109
301.8979
301.81465
301.74142
301.67826
301.62523
301.58239
301.5498
301.52748
301.51538
301.5134
301.52154
301.54008
301.5698
301.61171
301.66616
301.73157
301.80368
301.8774
301.95229
302.04085
302.17299
302.38652
302.70234
303.08718
303.40779
303.49213
302.99039
301.91886
300.51939
299.24958
298.43539
298.09422
298.00593
297.99596
297.99838
297.99976
298.00002
298.00001
298
298
298
298
301.20629
299.78749
302.0015
303.06539
304.20414
305.03654
305.71805
306.22832
306.58877
306.81754
306.93488
306.9604
306.91191
306.80524
306.65378
306.4688
306.25947
306.03328
305.79618
305.55295
305.30733
305.06229
304.82012
304.58263
304.35121
304.12692
303.9106
303.70288
303.50423
303.31502
303.13552
302.96593
302.8064
302.65706
302.51796
302.38919
302.27078
302.16277
302.06521
301.97811
301.90152
301.83544
301.77993
301.73504
301.70082
301.67727
301.66426
301.66166
301.66956
301.68851
301.71954
301.76351
301.81978
301.88502
301.95368
302.022
302.09526
302.19432
302.35599
302.61778
302.97176
303.34193
303.58839
303.38678
302.605
301.31784
299.9104
298.82108
298.23416
298.03382
297.99586
297.9963
297.99907
297.99996
298.00003
298.00001
298
298
298
298
303.56472
303.58556
305.5149
306.44993
307.31135
307.90089
308.29502
308.51441
308.59392
308.56238
308.44545
308.26461
308.03715
307.77694
307.49476
307.19901
306.89613
306.59102
306.28739
305.98806
305.69511
305.41009
305.13413
304.86806
304.61244
304.36767
304.13402
303.91162
303.70058
303.50089
303.31255
303.13552
302.96973
302.81512
302.67159
302.53906
302.41746
302.3067
302.20672
302.11749
302.03897
301.97117
301.91411
301.86783
301.83237
301.80772
301.79375
301.79034
301.79773
301.81678
301.84877
301.89423
301.95127
302.01474
302.07846
302.14161
302.21763
302.33661
302.53368
302.834
303.21303
303.53388
303.65478
303.19706
302.16654
300.76668
299.43582
298.53211
298.12215
298.00692
297.99306
297.99717
297.99957
298.00005
298.00003
298
298
298
298
298
306.51674
307.84859
309.12797
309.80252
310.26397
310.4683
310.4949
310.38433
310.17558
309.89807
309.57424
309.22099
308.85066
308.47235
308.0926
307.71619
307.34647
306.98585
306.63601
306.29806
305.97277
305.66059
305.36178
305.07644
304.80456
304.54607
304.30084
304.06871
303.84948
303.64297
303.44897
303.26728
303.09769
302.94002
302.79406
302.65964
302.53657
302.42467
302.32378
302.2338
302.15463
302.08626
302.02869
301.98195
301.94602
301.92082
301.90623
301.90225
301.90924
301.92827
301.96063
302.00648
302.06287
302.1235
302.18229
302.24129
302.3207
302.46108
302.69655
303.02257
303.40244
303.68221
303.60319
302.95929
301.76202
300.32767
299.10321
298.35654
298.06275
297.99481
297.99309
297.99799
297.99987
298.00008
298.00002
298
298
298
298
298
310.31776
312.04016
312.56205
312.74221
312.6915
312.46897
312.1347
311.72974
311.28301
310.81458
310.33791
309.86219
309.39346
308.93575
308.49162
308.06269
307.64991
307.25377
306.87445
306.51193
306.16603
305.83649
305.52299
305.22519
304.94271
304.67519
304.42227
304.1836
303.95885
303.74769
303.54982
303.36496
303.19282
303.03315
302.88569
302.7502
302.62643
302.51414
302.41312
302.32316
302.24416
302.17606
302.11891
302.07276
302.03755
302.01308
301.99915
301.9956
302.00319
302.02291
302.05567
302.10104
302.15544
302.21244
302.26721
302.32429
302.40683
302.56004
302.82101
303.16059
303.50792
303.75636
303.52855
302.74664
301.46251
300.03725
298.90132
298.26157
298.03372
297.98952
297.99355
297.99853
298.00004
298.00008
298.00001
298
298
298
298
298
315.1102
315.46709
315.20748
314.85303
314.35102
313.7822
313.18077
312.57153
311.96808
311.37878
310.80822
310.25891
309.732
309.22785
308.74633
308.28702
307.84932
307.43256
307.03604
306.65903
306.30083
305.96075
305.63816
305.33243
305.04301
304.76937
304.51103
304.26755
304.03852
303.82356
303.62232
303.43447
303.2597
303.09771
302.94823
302.81099
302.68573
302.57221
302.4702
302.37951
302.29997
302.23147
302.17402
302.12771
302.09263
302.06874
302.05598
302.05278
302.0624
302.08282
302.11605
302.16099
302.21376
302.26777
302.31919
302.3754
302.46182
302.62212
302.89044
303.24267
303.586
303.76194
303.48704
302.64799
301.33672
299.92288
298.82373
298.22597
298.02209
297.98683
297.99359
297.9988
298.00014
298.00008
298.00001
298
298
298
298
298
317.04196
317.20303
316.65035
315.9166
315.16749
314.41843
313.68901
312.98659
312.31449
311.67369
311.06389
310.4842
309.93342
309.41023
308.91328
308.44127
307.99295
307.56716
307.16282
306.77892
306.41454
306.06882
305.74098
305.43032
305.13618
304.85799
304.59521
304.34736
304.11402
303.89478
303.68928
303.49718
303.31815
303.15186
302.99801
302.85635
302.72665
302.60874
302.50251
302.40784
302.32461
302.25261
302.19159
302.14136
302.10207
302.07423
302.05804
302.05234
302.06028
302.0781
302.10959
302.15386
302.20721
302.26049
302.3105
302.36793
302.45364
302.61238
302.90531
303.28065
303.62256
303.86036
303.59219
302.76452
301.44625
300.00433
298.8675
298.23915
298.02204
297.98519
297.9931
297.99876
298.00017
298.00009
298.00001
298
298
298
298
298
317.99796
303.27741
301.05153
300.6988
300.953
300.95765
300.9766
300.91012
300.879
300.83071
300.77337
300.71515
300.65116
300.58207
300.51014
300.43548
300.35792
300.27783
300.19542
300.1112
300.02577
299.93936
299.85205
299.76423
299.67615
299.58785
299.49943
299.41123
299.32358
299.23652
299.14994
299.0639
298.97863
298.89441
298.81143
298.72972
298.64927
298.5702
298.49277
298.41712
298.34334
298.27142
298.20135
298.13331
298.06754
298.00413
297.94302
297.88428
297.82815
297.77462
297.72361
297.67519
297.62935
297.58607
297.54528
297.50686
297.47059
297.43564
297.40034
297.3622
297.31863
297.26831
297.21359
297.16288
297.12971
297.11995
297.10546
297.01936
296.80564
296.4857
296.15637
295.96204
296.11102
296.76201
297.744
298.60435
298.98724
298.88933
298.56812
298.30327
313.5329
300.01565
299.5976
299.35775
299.79225
299.80146
299.91639
299.93017
299.97558
299.97852
299.9847
299.97398
299.95906
299.93468
299.90342
299.86598
299.8237
299.7763
299.72412
299.66803
299.60884
299.54672
299.48192
299.41493
299.34614
299.27565
299.20372
299.1308
299.0573
298.98328
298.90875
298.83393
298.75916
298.68476
298.61094
298.5378
298.4654
298.39395
298.32372
298.25489
298.18757
298.12175
298.05744
297.99487
297.93434
297.87594
297.81964
297.76553
297.71394
297.66489
297.61838
297.57452
297.53329
297.4947
297.45852
297.42428
297.39134
297.35843
297.32361
297.28454
297.23961
297.18939
297.13887
297.09818
297.07786
297.07228
297.03866
296.90969
296.65678
296.33781
296.05879
295.93802
296.15256
296.84893
297.84087
298.69848
299.05819
298.93105
298.58719
298.30889
311.44336
298.43324
299.04235
298.63654
299.09834
299.02042
299.16411
299.15956
299.22695
299.23886
299.26788
299.27745
299.28733
299.28696
299.28141
299.27003
299.25379
299.23198
299.20493
299.17354
299.13841
299.0995
299.05695
299.01126
298.96278
298.91161
298.858
298.80244
298.7453
298.68668
298.62667
298.56557
298.50378
298.44162
298.3793
298.31696
298.25478
298.19299
298.13189
298.07169
298.01254
297.95445
297.89745
297.84183
297.78794
297.73589
297.68565
297.63734
297.59131
297.54763
297.50634
297.46752
297.43121
297.39733
297.36551
297.33494
297.30464
297.27312
297.23852
297.1992
297.15497
297.10837
297.06611
297.03764
297.02701
297.01608
296.95218
296.7775
296.49723
296.19807
295.97896
295.92547
296.20751
296.94094
297.94453
298.79484
299.128
298.96996
298.60363
298.31306
308.09518
297.32887
298.58899
298.04207
298.53487
298.39814
298.55446
298.53065
298.6058
298.61294
298.651
298.66712
298.68832
298.69989
298.7084
298.71213
298.71201
298.70694
298.69715
298.68347
298.66626
298.64528
298.62056
298.59251
298.56141
298.5273
298.49037
298.45103
298.40956
298.36602
298.32055
298.27349
298.22522
298.17598
298.12597
298.07535
298.02434
297.97324
297.92231
297.87178
297.82187
297.77258
297.72398
297.6764
297.63022
297.58556
297.5424
297.50085
297.46123
297.42365
297.3881
297.35464
297.32323
297.29375
297.26569
297.23802
297.20962
297.17912
297.1452
297.10733
297.06686
297.02786
296.99708
296.98061
296.97367
296.94615
296.84277
296.62495
296.33284
296.07094
295.91801
295.93547
296.27479
297.0386
298.05417
298.8927
299.19617
299.00587
298.61738
298.31575
305.43075
296.57691
298.28627
297.58694
298.0904
297.9047
298.06566
298.01975
298.0921
298.08907
298.12705
298.14187
298.16552
298.18108
298.19528
298.20617
298.21441
298.21879
298.21954
298.21729
298.21219
298.20387
298.19225
298.17766
298.16029
298.1401
298.11719
298.09183
298.06417
298.03423
298.00217
297.96833
297.93302
297.89639
297.85853
297.81965
297.78
297.73985
297.69946
297.65907
297.61892
297.57903
297.53948
297.50062
297.46283
297.42625
297.39083
297.35666
297.32402
297.29299
297.2635
297.23548
297.20881
297.18329
297.15834
297.13291
297.10605
297.07687
297.04499
297.01116
296.97802
296.9501
296.93216
296.92403
296.91151
296.85621
296.70805
296.45578
296.17074
295.96158
295.88394
295.96746
296.35287
297.1437
298.16886
298.99109
299.26207
299.03853
298.62802
298.31722
303.51725
296.02332
298.03367
297.18008
297.68816
297.46863
297.63594
297.57024
297.63969
297.62662
297.66211
297.67381
297.69761
297.71459
297.73097
297.7453
297.7577
297.76736
297.77449
297.77956
297.78251
297.78292
297.7807
297.77606
297.76914
297.75987
297.74826
297.73444
297.71841
297.70015
297.67984
297.65782
297.63431
297.60933
297.58289
297.55519
297.5265
297.49706
297.46708
297.43682
297.40652
297.37621
297.34594
297.31607
297.28696
297.25874
297.23134
297.20481
297.17937
297.15505
297.1317
297.10909
297.08703
297.06524
297.04318
297.01999
296.99516
296.96858
296.94091
296.91407
296.89121
296.87591
296.86897
296.86265
296.83334
296.74056
296.54876
296.27687
296.01936
295.87519
295.86774
296.01529
296.44045
297.25637
298.28771
299.08948
299.32476
299.0672
298.63624
298.31732
302.6665
295.59477
297.73017
296.79594
297.30914
297.07092
297.24265
297.16419
297.23051
297.2097
297.24196
297.24885
297.27129
297.28597
297.30369
297.31976
297.33434
297.34719
297.35841
297.36829
297.37669
297.3832
297.38771
297.3904
297.39138
297.39059
297.38796
297.38348
297.37704
297.36858
297.35831
297.34655
297.33345
297.31893
297.3029
297.28552
297.26707
297.24776
297.22774
297.20729
297.18661
297.16571
297.14464
297.1237
297.10324
297.08334
297.06392
297.04499
297.02671
297.00905
296.99179
296.97462
296.95728
296.9395
296.92088
296.90093
296.87969
296.85786
296.83695
296.81946
296.808
296.80378
296.80217
296.78793
296.73143
296.59651
296.36931
296.09728
295.8854
295.81656
295.87842
296.07759
296.53733
297.37598
298.40999
299.18746
299.38433
299.09129
298.64172
298.31557
302.20535
295.23136
297.37977
296.41304
296.93707
296.68571
296.86616
296.77845
296.84494
296.81855
296.84847
296.85337
296.87309
296.88746
296.90409
296.92067
296.93664
296.95168
296.96573
296.97894
296.99115
297.00201
297.01143
297.01959
297.02661
297.03244
297.03697
297.04005
297.04148
297.04121
297.03943
297.03648
297.03245
297.02715
297.02042
297.01241
297.00337