/*--------------------------------*- C++ -*----------------------------------*\
  =========                 |
  \\      /  F ield         | OpenFOAM: The Open Source CFD Toolbox
   \\    /   O peration     | Website:  https://openfoam.org
    \\  /    A nd           | Version:  12
     \\/     M anipulation  |
\*---------------------------------------------------------------------------*/
FoamFile
{
    format      ascii;
    class       volVectorField;
    location    "0.005";
    object      U;
}
// * * * * * * * * * * * * * * * * * * * * * * * * * * * * * * * * * * * * * //

dimensions      [0 1 -1 0 0 0 0];

internalField   nonuniform List<vector> 
16000
(
(222.44807 -3.0944196e-17 -8.4319664)
(255.89566 0 5.4139288)
(242.89337 0 -7.5455372)
(249.84291 4.9232172e-17 3.7343031)
(245.51516 -4.856796e-17 -5.8845714)
(247.54995 0 1.696105)
(245.81813 0 -4.258293)
(246.25251 8.3154345e-17 -0.059738635)
(245.41826 -7.899754e-17 -3.1129295)
(245.25385 0 -1.2671443)
(244.71667 7.1390689e-17 -2.5341464)
(244.34591 -2.0339409e-16 -1.9637657)
(243.88328 1.2873289e-16 -2.3942692)
(243.43818 -1.2246538e-16 -2.3288254)
(242.9678 1.1618824e-16 -2.4854652)
(242.48562 -3.452501e-18 -2.5523406)
(241.98618 -3.2797619e-18 -2.650239)
(241.46945 -9.6619132e-17 -2.7367184)
(240.93397 1.8930092e-16 -2.824307)
(240.37871 -8.9812872e-17 -2.9090357)
(239.80277 1.7085845e-16 -2.9912903)
(239.20556 -1.6194674e-16 -3.0703882)
(238.58677 0 -3.1458288)
(237.94648 1.5078609e-16 -3.2170287)
(237.28502 -4.0693022e-18 -3.2833713)
(236.603 -2.6317118e-16 -3.3442021)
(235.90115 1.2473327e-16 -3.3988409)
(235.18029 0 -3.4466003)
(234.44121 0 -3.4867964)
(233.68467 2.1671176e-16 -3.5187664)
(232.91141 -2.0189373e-16 -3.5418879)
(232.1222 0 -3.5555835)
(231.31794 0 -3.5593436)
(230.49969 0 -3.5527355)
(229.6687 5.1045176e-18 -3.5354095)
(228.82636 1.5469311e-16 -3.5071127)
(227.97413 -1.4158308e-16 -3.4676824)
(227.11353 -1.387333e-16 -3.4170598)
(226.2461 1.2280854e-16 -3.3553126)
(225.37343 0 -3.2826565)
(224.49717 -1.1762591e-16 -3.1994727)
(223.61892 1.1100776e-16 -3.1063103)
(222.74022 -2.1049473e-16 -3.0038734)
(221.86253 1.9855978e-16 -2.8930207)
(220.98726 -1.9405142e-16 -2.7747689)
(220.11567 3.5526741e-16 -2.6503146)
(219.2488 5.6577759e-18 -2.5210482)
(218.38753 3.7888672e-19 -2.3885286)
(217.53265 -1.4960992e-16 -2.254427)
(216.68489 1.4162332e-16 -2.1204694)
(215.84486 -1.2504109e-16 -1.988458)
(215.01296 0 -1.8603435)
(214.18941 7.4517516e-18 -1.7382793)
(213.37411 0 -1.6245888)
(212.56657 6.6362668e-18 -1.5216971)
(211.76625 2.0653125e-16 -1.4320644)
(210.97295 -3.774713e-16 -1.3581341)
(210.18678 1.0715441e-17 -1.3023291)
(209.40766 1.6780746e-16 -1.2671135)
(208.63514 -1.4880441e-16 -1.2550979)
(207.86855 1.4003932e-16 -1.2691131)
(207.10709 -8.8370688e-18 -1.3123439)
(206.34936 0 -1.3888497)
(205.59299 0 -1.5046011)
(204.83442 -1.1157632e-16 -1.6672702)
(204.07119 1.1210969e-16 -1.8815534)
(203.30833 -9.966318e-17 -2.1404597)
(202.56001 1.9447611e-16 -2.4271758)
(201.82856 -1.9000264e-16 -2.754605)
(201.0583 8.4168786e-17 -3.2394679)
(200.13023 5.34126e-18 -4.1169658)
(198.97219 0 -5.530072)
(197.76225 4.8286855e-18 -7.1521482)
(196.92935 -4.5928298e-18 -8.0938486)
(196.91422 0 -7.4466761)
(197.65408 -3.3993171e-17 -5.4260524)
(198.62811 6.3008049e-17 -3.1144831)
(199.36795 -3.2000984e-17 -1.4234176)
(199.76666 0 -0.52714537)
(199.92908 0 -0.16948184)
(222.80032 0 -11.294818)
(256.82544 -3.7034194e-18 3.3239814)
(243.15997 -1.1866581e-16 -10.495065)
(250.51072 1.0954323e-16 1.6148379)
(245.80274 0 -8.7810274)
(248.11953 1.0076902e-16 -0.50218317)
(246.16093 -1.8606348e-16 -7.048096)
(246.69809 -1.0635968e-19 -2.3839037)
(245.77 8.3856345e-17 -5.7531678)
(245.60051 0 -3.7134684)
(245.02638 -1.5150245e-16 -5.0631671)
(244.62438 1.4820174e-16 -4.4599)
(244.12658 1.4096935e-16 -4.8800939)
(243.6441 -2.594898e-16 -4.8164259)
(243.13617 1.1928015e-16 -4.9550936)
(242.61482 1.0973885e-17 -5.0164527)
(242.07555 1.1468466e-16 -5.1006778)
(241.51818 -1.0212034e-16 -5.1753762)
(240.94144 0 -5.2488973)
(240.34436 0 -5.3185621)
(239.72608 5.6461727e-18 -5.3842623)
(239.08598 -1.7685181e-16 -5.4453145)
(238.42376 3.3533977e-16 -5.5011004)
(237.73946 -3.1334245e-16 -5.5509482)
(237.03343 1.4160733e-16 -5.5941519)
(236.30634 0 -5.6299793)
(235.55908 1.2354818e-16 -5.6576735)
(234.79266 -1.3249832e-16 -5.6764789)
(234.00818 0 -5.6856522)
(233.20668 3.5192105e-18 -5.6844838)
(232.38925 -1.3306412e-17 -5.672323)
(231.55696 0 -5.6485888)
(230.71098 0 -5.6127925)
(229.85262 -1.6956297e-16 -5.5645543)
(228.98337 3.3673851e-16 -5.5035974)
(228.1048 -1.6169463e-16 -5.4297647)
(227.21859 -1.5817113e-16 -5.343016)
(226.32644 1.4475667e-16 -5.2434406)
(225.43008 -1.1153079e-16 -5.1312829)
(224.53129 -3.2311852e-19 -5.0069642)
(223.63186 -3.0501642e-19 -4.8710884)
(222.73349 2.3159619e-16 -4.7244413)
(221.83778 -1.0926997e-16 -4.5679714)
(220.94622 0 -4.4027832)
(220.06024 2.0148481e-16 -4.2301402)
(219.18113 1.1985225e-17 -4.051481)
(218.30997 -5.0052991e-18 -3.8684276)
(217.44756 -1.6386054e-16 -3.6827681)
(216.59451 0 -3.4964)
(215.75133 -1.461142e-16 -3.3112549)
(214.91849 -8.9079949e-18 -3.1292903)
(214.09639 2.5941393e-16 -2.9525327)
(213.28529 -1.2972602e-16 -2.7831469)
(212.48508 0 -2.6234363)
(211.69519 -2.0359984e-17 -2.4758155)
(210.91473 -2.1104905e-16 -2.3427866)
(210.14298 3.6097766e-16 -2.2269042)
(209.37951 -2.1513442e-16 -2.1307301)
(208.6238 0 -2.0568065)
(207.87505 -1.7102237e-16 -2.0077044)
(207.13228 1.7962907e-16 -1.9861487)
(206.39424 2.6749159e-17 -1.9953709)
(205.6589 0 -2.0398673)
(204.92318 -1.4249276e-16 -2.1262393)
(204.18366 7.1345821e-18 -2.2619409)
(203.43997 1.1212407e-16 -2.4491588)
(202.69971 -1.9857445e-17 -2.6769309)
(201.97423 9.3714424e-17 -2.9292237)
(201.2522 -1.0580299e-16 -3.2336589)
(200.46439 5.5492615e-18 -3.7300136)
(199.49871 -5.2447577e-18 -4.655324)
(198.32465 0 -6.0942934)
(197.16424 -4.7056357e-18 -7.6256939)
(196.4748 4.4597911e-18 -8.301891)
(196.69277 8.4372294e-18 -7.3278794)
(197.64007 9.965797e-19 -5.0912299)
(198.70332 0 -2.7763105)
(199.44075 3.029103e-17 -1.2001217)
(199.8088 -5.7726959e-17 -0.41768795)
(199.94796 2.5897463e-17 -0.12441475)
(222.98111 0 -14.201127)
(257.57464 -1.2178557e-16 1.0481189)
(243.3083 2.480019e-16 -13.501361)
(251.01651 -2.2176782e-16 -0.66419647)
(246.01387 1.0948735e-16 -11.734582)
(248.46238 -3.2376667e-18 -2.8814562)
(246.36085 9.8707478e-17 -9.8683458)
(246.92718 -9.3490339e-17 -4.8951087)
(245.93385 -5.559541e-18 -8.4414625)
(245.758 -5.2791701e-18 -6.3127123)
(245.14113 -1.0029076e-17 -7.6744587)
(244.70255 1.3814062e-16 -7.0760262)
(244.16807 -1.4000657e-16 -7.4663844)
(243.64583 1.3744531e-16 -7.4100188)
(243.0975 -1.1806017e-16 -7.5281653)
(242.53416 -1.5475739e-17 -7.5824932)
(241.95181 0 -7.6522015)
(241.35036 1.042689e-20 -7.7133179)
(240.72868 -2.2513009e-16 -7.7711526)
(240.08595 -3.8501204e-19 -7.8236962)
(239.4214 1.7252015e-16 -7.8705153)
(238.73452 1.6958188e-17 -7.910833)
(238.02506 -2.1439108e-17 -7.9439088)
(237.29311 0 -7.9689633)
(236.53913 -2.3841122e-20 -7.9852052)
(235.7639 -1.6464197e-16 -7.9918198)
(234.96846 1.4704004e-16 -7.9879905)
(234.15409 8.1955303e-18 -7.9729063)
(233.32213 0 -7.9457864)
(232.47403 -7.3536711e-18 -7.9058955)
(231.61122 -4.5766869e-20 -7.8525821)
(230.73515 -1.9829633e-16 -7.7852923)
(229.84738 1.9970969e-16 -7.7035962)
(228.94954 1.1892461e-17 -7.6072088)
(228.04337 -1.7922274e-16 -7.4959798)
(227.13071 1.4786051e-16 -7.369909)
(226.21344 -1.8030308e-16 -7.229142)
(225.29349 1.5108282e-16 -7.0739871)
(224.37278 -1.4305279e-16 -6.9049326)
(223.45327 1.3485375e-16 -6.7226707)
(222.53688 1.5974153e-17 -6.5280916)
(221.62539 0 -6.322274)
(220.72041 1.9902038e-16 -6.1064647)
(219.8234 -2.4094098e-16 -5.8820689)
(218.93572 0 -5.6506451)
(218.05858 1.7895338e-16 -5.4139076)
(217.19303 -1.5694364e-16 -5.1737217)
(216.33974 1.6949592e-16 -4.932096)
(215.49907 -1.7926674e-16 -4.6911387)
(214.6712 0 -4.4529921)
(213.85625 1.7697501e-16 -4.2197971)
(213.05436 -1.3292717e-16 -3.9937021)
(212.2656 0 -3.7769162)
(211.48975 0 -3.5717221)
(210.72606 1.2474549e-16 -3.3804757)
(209.97338 -2.0836744e-16 -3.2056446)
(209.23053 1.2228385e-16 -3.0498291)
(208.49649 1.8427664e-16 -2.9157179)
(207.77017 4.018896e-19 -2.8059731)
(207.05034 3.8431521e-19 -2.7231778)
(206.33583 -3.2475757e-16 -2.6699551)
(205.62527 8.955321e-17 -2.6495263)
(204.91633 0 -2.6666651)
(204.20554 1.4281965e-16 -2.7281422)
(203.48978 -1.6373443e-16 -2.8403477)
(202.7704 1.1219319e-16 -3.0025351)
(202.05672 1.3465837e-17 -3.2016893)
(201.35731 -8.6515845e-17 -3.4277454)
(200.65 1.1628313e-17 -3.7271235)
(199.85358 2.195198e-17 -4.2578588)
(198.85679 -1.0362528e-16 -5.2412757)
(197.66121 9.7132804e-17 -6.6854204)
(196.54232 -7.3695276e-17 -8.0761607)
(196.02561 1.3843584e-16 -8.4176177)
(196.51 -5.726387e-17 -7.0617974)
(197.66572 -6.0983133e-17 -4.6520937)
(198.79967 5.0738154e-17 -2.3983181)
(199.51774 0 -0.97694864)
(199.84749 3.2120165e-18 -0.3191005)
(199.96191 -1.2158902e-17 -0.088539002)
(223.00477 0 -17.1663)
(258.17765 0 -1.3419532)
(243.30369 0 -16.628883)
(251.39441 1.0613561e-16 -3.0341436)
(246.07426 -1.2321385e-16 -14.798098)
(248.65233 -2.1950634e-16 -5.3608373)
(246.42608 2.0876116e-16 -12.784749)
(247.01678 -1.2386056e-17 -7.511376)
(245.95611 5.8796754e-18 -11.21387)
(245.73637 -1.7320288e-16 -9.0152387)
(245.08068 1.6952153e-16 -10.368887)
(244.60153 1.0061646e-17 -9.7888127)
(244.02709 -1.5301003e-16 -10.141555)
(243.46118 1.3593084e-16 -10.094271)
(242.86857 1.3241106e-20 -10.190732)
(242.25915 -8.1920466e-18 -10.236233)
(241.62959 0 -10.290047)
(240.97984 -7.3495484e-18 -10.335374)
(240.309 -2.095721e-16 -10.375152)
(239.61642 2.1157307e-16 -10.407797)
(238.9015 1.2540169e-17 -10.432621)
(238.16386 -1.1889583e-17 -10.448735)
(237.40341 2.1462011e-16 -10.455275)
(236.62037 -1.709317e-16 -10.451357)
(235.81535 1.0122212e-17 -10.436091)
(234.98928 1.9225138e-16 -10.408592)
(234.14345 -1.2713826e-16 -10.367988)
(233.27939 0 -10.313438)
(232.39881 1.4700684e-16 -10.244149)
(231.50351 -1.233649e-16 -10.159409)
(230.59537 2.4866394e-16 -10.058609)
(229.67629 -1.3223244e-17 -9.9412752)
(228.74822 -2.0889067e-16 -9.8070949)
(227.81315 1.7334619e-16 -9.6559305)
(226.87315 -1.8667502e-16 -9.4878198)
(225.9303 -9.5671056e-20 -9.3029838)
(224.98671 2.0876982e-16 -9.101824)
(224.04448 -3.1507525e-16 -8.8849354)
(223.1057 9.2697695e-17 -8.6531234)
(222.17246 3.516813e-17 -8.4074093)
(221.24672 -4.968712e-17 -8.1490246)
(220.33027 0 -7.8793843)
(219.42467 -8.8459823e-17 -7.6000712)
(218.53122 1.3840902e-16 -7.3128196)
(217.65111 -2.0915325e-16 -7.0195057)
(216.78536 1.9647832e-16 -6.7221366)
(215.9348 -2.0848851e-16 -6.4228245)
(215.09991 3.9215652e-16 -6.1237781)
(214.28076 -3.0737543e-16 -5.8272749)
(213.47712 3.0827499e-16 -5.5356221)
(212.68866 -1.4458857e-16 -5.2511169)
(211.91512 1.3632128e-16 -4.9760357)
(211.15621 -9.5740974e-17 -4.7126435)
(210.41145 3.0098526e-17 -4.4632069)
(209.67988 0 -4.2300052)
(208.96011 0 -4.0154147)
(208.25064 0 -3.8219765)
(207.55002 2.3272312e-17 -3.6523777)
(206.85668 0 -3.5093235)
(206.16892 -1.6427242e-16 -3.3954416)
(205.48526 1.9222779e-16 -3.3133722)
(204.80421 -1.0844406e-16 -3.2663888)
(204.12328 -3.41178e-19 -3.2593939)
(203.43891 2.5366606e-16 -3.2989087)
(202.74866 3.0015129e-17 -3.3896817)
(202.05586 -1.3924633e-16 -3.5278283)
(201.37093 5.2345736e-17 -3.6993515)
(200.69777 -1.4697023e-16 -3.9030375)
(200.00069 -4.6042354e-17 -4.2066153)
(199.1846 -6.4756519e-17 -4.7856049)
(198.14355 -6.1156299e-17 -5.8348314)
(196.92914 5.6880475e-17 -7.2708571)
(195.89334 0 -8.4738308)
(195.6267 0 -8.4145291)
(196.42369 -1.5753239e-17 -6.6794932)
(197.77083 0 -4.1483524)
(198.93189 6.8966759e-18 -2.011112)
(199.60124 5.1680998e-17 -0.76833497)
(199.8827 -7.304892e-17 -0.23522137)
(199.97273 1.0690931e-20 -0.06077793)
(222.89819 0 -20.313995)
(258.64091 -8.8004052e-18 -3.7989014)
(243.15905 2.6545917e-16 -19.883691)
(251.65315 -2.481968e-16 -5.5188114)
(245.98495 2.5323637e-16 -17.957817)
(248.73469 -2.3176127e-16 -7.9697327)
(246.32203 -2.2096144e-16 -15.774154)
(246.94555 2.091426e-16 -10.253432)
(245.78772 0 -14.0551)
(245.54816 0 -11.83462)
(244.85055 1.7928366e-16 -13.147572)
(244.32397 -1.6987837e-16 -12.604957)
(243.7047 -1.0077935e-17 -12.911185)
(243.08966 2.8722268e-17 -12.873362)
(242.44743 -9.0722269e-18 -12.946933)
(241.78657 3.4460347e-17 -12.980716)
(241.10441 0 -13.016489)
(240.40098 0 -13.042964)
(239.67563 -2.3537716e-16 -13.061432)
(238.92792 2.0871238e-16 -13.070492)
(238.15748 0 -13.069245)
(237.36417 0 -13.056671)
(236.54811 -1.8989105e-16 -13.03177)
(235.70975 3.5949098e-16 -12.993549)
(234.84992 -1.7002545e-16 -12.941025)
(233.96982 -2.0115951e-17 -12.873252)
(233.07102 -3.8156923e-17 -12.789325)
(232.15537 -1.4460389e-16 -12.688405)
(231.22498 1.1940729e-16 -12.569736)
(230.28208 0 -12.432677)
(229.32901 -3.0626145e-17 -12.276731)
(228.36817 0 -12.101578)
(227.40193 0 -11.907094)
(226.43269 2.0652794e-16 -11.693372)
(225.46283 -2.1891657e-16 -11.46072)
(224.49469 2.2932501e-17 -11.209663)
(223.53057 -2.1640371e-17 -10.940947)
(222.57271 -4.1029493e-17 -10.655542)
(221.6233 -1.9117743e-19 -10.354646)
(220.68443 1.8032269e-19 -10.03968)
(219.75805 -1.695553e-19 -9.7122752)
(218.84581 0 -9.3742265)
(217.94911 -1.2172939e-16 -9.0274873)
(217.06902 1.1428885e-16 -8.6741413)
(216.2064 0 -8.3163893)
(215.36196 -5.0747368e-17 -7.9565292)
(214.53618 1.9056485e-16 -7.5969094)
(213.72918 -2.2329149e-16 -7.2399166)
(212.94071 -2.1031202e-16 -6.8879558)
(212.17011 1.5760095e-16 -6.5434382)
(211.41656 1.1130426e-16 -6.208758)
(210.67928 -1.3881092e-16 -5.8862745)
(209.95752 -3.2521279e-17 -5.5782846)
(209.25044 -2.1407544e-16 -5.2870182)
(208.55681 1.1444216e-16 -5.0146574)
(207.87506 -1.0746504e-16 -4.7634533)
(207.20344 1.0046211e-16 -4.5358225)
(206.54024 2.357537e-16 -4.3343206)
(205.88357 -1.7618192e-16 -4.1615318)
(205.23143 0 -4.0200434)
(204.58192 -3.8564692e-17 -3.9126252)
(203.9332 -7.233885e-17 -3.8427931)
(203.28255 1.3510102e-16 -3.8155274)
(202.62661 1.2670247e-16 -3.8366311)
(201.96429 -2.3672364e-16 -3.9085216)
(201.30126 8.2745269e-17 -4.0241516)
(200.64829 5.1695243e-17 -4.1704732)
(200.00187 9.6842896e-17 -4.3592459)
(199.30894 1.3601633e-16 -4.6819181)
(198.45927 2.0455136e-19 -5.3267669)
(197.36259 0 -6.4431705)
(196.14424 0 -7.8371943)
(195.24858 -3.490691e-17 -8.7737885)
(195.31737 9.7464087e-17 -8.2467384)
(196.44156 -9.1345923e-17 -6.1669196)
(197.94098 -8.4534882e-17 -3.5909096)
(199.08368 5.2979984e-17 -1.6287537)
(199.68269 0 -0.58108191)
(199.91298 4.6133712e-17 -0.16638218)
(199.98105 -1.4074717e-20 -0.040018042)
(222.67587 0 -23.619578)
(258.96118 -6.2015763e-21 -6.3227736)
(242.87292 9.0349141e-18 -23.230826)
(251.78169 2.8785182e-16 -8.1304237)
(245.72893 3.4296776e-19 -21.196603)
(248.57789 -5.0506966e-16 -10.705862)
(246.03243 -3.3290168e-19 -18.833083)
(246.64584 4.5557228e-16 -13.131842)
(245.46101 -2.0962614e-16 -16.978616)
(245.18102 -1.2452124e-17 -14.782065)
(244.43907 1.1795845e-17 -16.020133)
(243.85808 -1.7937821e-16 -15.52821)
(243.18841 1.9113746e-16 -15.780417)
(242.51817 -1.8158054e-16 -15.748889)
(241.82023 3.0593201e-16 -15.797863)
(241.10178 -3.082286e-16 -15.815797)
(240.36085 1.3738614e-16 -15.830265)
(239.59756 0 -15.833807)
(238.81161 0 -15.826582)
(238.00283 1.4616656e-17 -15.807194)
(237.17118 -2.7791254e-17 -15.774545)
(236.31683 0 -15.727463)
(235.44022 1.993936e-16 -15.664813)
(234.54214 4.9268762e-19 -15.5855)
(233.62375 -3.5674253e-16 -15.48847)
(232.68661 1.6856101e-16 -15.37274)
(231.73264 1.9919268e-17 -15.237418)
(230.76412 0 -15.081718)
(229.78359 -1.7876157e-16 -14.904988)
(228.79376 1.3475351e-16 -14.706741)
(227.79747 -2.2355207e-16 -14.48668)
(226.7976 2.1031644e-16 -14.244737)
(225.797 -2.2771739e-16 -13.981075)
(224.79844 2.143253e-16 -13.696124)
(223.80462 7.6020214e-17 -13.390564)
(222.81808 0 -13.065329)
(221.84126 0 -12.721607)
(220.87644 4.2308324e-17 -12.360828)
(219.92579 3.9853125e-17 -11.984665)
(218.9913 -3.752514e-17 -11.595002)
(218.07472 3.5318579e-17 -11.19391)
(217.17745 6.6809129e-17 -10.783601)
(216.30057 -6.262551e-17 -10.36641)
(215.44478 3.5347718e-16 -9.9447645)
(214.61052 -2.765552e-16 -9.5211726)
(213.79803 5.1845031e-17 -9.098186)
(213.00729 -4.8912001e-17 -8.6783519)
(212.23799 0 -8.2641889)
(211.48942 2.1479826e-16 -7.8581727)
(210.7605 -1.608878e-16 -7.4627464)
(210.04993 0 -7.0803163)
(209.35639 0 -6.7132438)
(208.6786 1.3256797e-16 -6.3637972)
(208.0153 -6.1989738e-17 -6.0341253)
(207.36499 0 -5.7262837)
(206.72592 -1.6301681e-16 -5.4423674)
(206.09619 1.0139229e-16 -5.1846249)
(205.47386 1.4260261e-16 -4.9554069)
(204.85694 -1.7716126e-16 -4.7570469)
(204.24331 1.6586969e-16 -4.5919546)
(203.63072 -1.5459426e-16 -4.4630337)
(203.01664 2.4641441e-19 -4.3742236)
(202.39795 0 -4.3305969)
(201.77187 6.3028822e-17 -4.3366985)
(201.13957 -2.9395939e-16 -4.3918436)
(200.50945 1.6429538e-16 -4.4861094)
(199.89048 0 -4.6104923)
(199.26682 -1.4330685e-16 -4.7949921)
(198.56407 8.8926982e-17 -5.1562181)
(197.66161 1.2527226e-16 -5.8845674)
(196.50651 5.8700176e-19 -7.0582642)
(195.32366 -7.2304762e-17 -8.3529969)
(194.65145 1.0150034e-16 -8.940171)
(195.12019 -1.5742907e-16 -7.9112529)
(196.57666 8.8400512e-17 -5.5340151)
(198.16816 2.7733306e-17 -3.0044994)
(199.24563 5.0661208e-17 -1.2683154)
(199.75816 0 -0.42061144)
(199.93817 -4.3795433e-17 -0.11234758)
(199.98738 2.0401418e-17 -0.025112841)
(222.33017 0 -27.078294)
(259.13563 9.793522e-18 -8.9397051)
(242.43401 -3.0548917e-16 -26.690043)
(251.76067 2.4953772e-16 -10.866234)
(245.30723 2.5636174e-16 -24.511609)
(248.27992 -5.0015683e-16 -13.58192)
(245.58778 2.3005279e-16 -21.96504)
(246.20641 2.329577e-16 -16.158291)
(244.95824 -2.2077629e-16 -19.981711)
(244.61835 3.9319664e-17 -17.856664)
(243.82836 0 -18.987581)
(243.1851 0 -18.556813)
(242.45824 -2.2332044e-17 -18.750932)
(241.72559 -1.6978416e-16 -18.720904)
(240.96465 1.4048285e-16 -18.74358)
(240.18133 1.9086534e-17 -18.740894)
(239.37438 -3.6182283e-17 -18.72976)
(238.54415 3.0838636e-16 -18.705149)
(237.6907 -2.2653806e-16 -18.666481)
(236.81426 2.4596018e-16 -18.61228)
(235.91521 -2.0327664e-16 -18.541263)
(234.99414 2.7592256e-17 -18.452132)
(234.05194 1.5658348e-16 -18.343632)
(233.08984 -1.9692431e-16 -18.214598)
(232.10947 0 -18.063946)
(231.11283 0 -17.890713)
(230.10234 0 -17.694087)
(229.08075 -1.973353e-16 -17.473418)
(228.05111 1.8579163e-16 -17.228258)
(227.01664 -3.5258471e-17 -16.95838)
(225.98069 0 -16.663813)
(224.94662 -2.8247551e-16 -16.344861)
(223.9177 2.3597813e-16 -16.002111)
(222.89706 -5.588692e-17 -15.63645)
(221.88762 1.5795996e-16 -15.249061)
(220.89206 -4.9083864e-17 -14.841396)
(219.91283 -1.861019e-16 -14.415189)
(218.95214 2.1964905e-16 -13.972417)
(218.01197 -1.648447e-16 -13.515287)
(217.094 7.7859746e-17 -13.046193)
(216.19962 -7.2923554e-17 -12.567672)
(215.32982 1.3735095e-16 -12.082354)
(214.48517 -6.4227396e-17 -11.592938)
(213.66588 -2.4208921e-16 -11.102164)
(212.87184 5.1040111e-16 -10.612787)
(212.10268 -2.1259551e-16 -10.127545)
(211.35779 -1.4996974e-16 -9.649111)
(210.63629 9.3049603e-17 -9.1800584)
(209.93697 8.7781039e-17 -8.7228602)
(209.25831 -1.6411308e-16 -8.2799044)
(208.59853 1.5328341e-16 -7.8535146)
(207.95584 0 -7.44595)
(207.32846 1.3432222e-16 -7.0593639)
(206.71465 -1.8815471e-16 -6.6957659)
(206.11265 5.8712736e-17 -6.3570485)
(205.52058 5.4608683e-17 -6.0451137)
(204.93643 0 -5.7619894)
(204.35812 0 -5.5097761)
(203.78359 0 -5.2905282)
(203.21074 0 -5.1064323)
(202.63707 0 -4.9604677)
(202.05931 -7.1932919e-17 -4.8569944)
(201.47383 0 -4.8010264)
(200.87902 -2.1085219e-19 -4.7952179)
(200.27916 2.3311429e-16 -4.8352623)
(199.68496 -2.1690079e-16 -4.9096615)
(199.09996 -1.0139223e-16 -5.0180133)
(198.48983 -1.8856163e-16 -5.2139304)
(197.75725 2.6222479e-16 -5.6370624)
(196.78335 2.0786764e-19 -6.4607264)
(195.58362 7.5618672e-17 -7.6625142)
(194.49886 0 -8.7886753)
(194.16666 0 -8.9329216)
(195.08543 0 -7.3860488)
(196.82691 -1.1268139e-16 -4.802437)
(198.43597 0 -2.4170673)
(199.40683 -9.641958e-17 -0.94408832)
(199.82401 1.3454995e-16 -0.2901508)
(199.9582 8.3243502e-17 -0.071942049)
(199.99203 -1.9303887e-17 -0.014906042)
(221.85232 0 -30.694183)
(259.15762 0 -11.660962)
(241.84114 3.2187039e-16 -30.265125)
(251.50451 1.9310731e-17 -13.731927)
(244.70132 -2.6950945e-16 -27.913366)
(247.78247 0 -16.616097)
(244.97817 1.6132034e-17 -25.172668)
(245.55253 -3.0657894e-17 -19.33867)
(244.25138 0 -23.066314)
(243.83876 1.9308935e-16 -21.062055)
(242.99463 -4.1799529e-16 -22.057717)
(242.2796 1.9794092e-16 -21.692519)
(241.48701 2.3524694e-17 -21.826815)
(240.6834 0 -21.790866)
(239.85094 2.1062137e-17 -21.784037)
(238.99443 -3.4016334e-16 -21.754396)
(238.11333 7.4972397e-17 -21.711478)
(237.20831 2.5074981e-16 -21.651646)
(236.27992 2.3816475e-16 -21.573827)
(235.32886 -2.5683402e-16 -21.476426)
(234.35605 0 -21.357992)
(233.36267 -2.8821742e-16 -21.217117)
(232.35017 2.4467159e-16 -21.052471)
(231.32039 -2.0627915e-16 -20.862867)
(230.27554 1.9440899e-16 -20.647266)
(229.21823 -1.8426544e-16 -20.404814)
(228.15143 3.4760422e-16 -20.134889)
(227.07849 -1.6412332e-16 -19.837098)
(226.00298 1.5515877e-16 -19.511338)
(224.92867 -2.9259933e-16 -19.157792)
(223.85938 1.3767555e-16 -18.776969)
(222.79889 1.3003453e-16 -18.369708)
(221.75081 -2.4538155e-16 -17.937175)
(220.7185 5.6869382e-17 -17.480865)
(219.70499 -6.099651e-19 -17.002593)
(218.71293 2.5524407e-16 -16.504448)
(217.74462 0 -15.988794)
(216.802 2.8869983e-19 -15.458224)
(215.88663 0 -14.915512)
(214.99971 -7.9633841e-17 -14.36357)
(214.14202 -1.4969775e-16 -13.805387)
(213.31394 7.041291e-17 -13.243974)
(212.51539 0 -12.682335)
(211.74591 -6.2076132e-17 -12.123441)
(211.0047 2.9039856e-16 -11.570199)
(210.29073 -3.2603028e-16 -11.025427)
(209.60269 -3.0562004e-16 -10.49181)
(208.9391 2.851195e-16 -9.9718752)
(208.29819 -1.7805413e-16 -9.4679906)
(207.67799 0 -8.9823953)
(207.07631 0 -8.517228)
(206.49094 7.279835e-17 -8.0745389)
(205.91967 6.7956824e-17 -7.6562704)
(205.36038 1.2654648e-16 -7.2642275)
(204.811 -5.9041178e-17 -6.9001033)
(204.26953 -1.0994542e-16 -6.5655709)
(203.73398 -2.0529729e-16 -6.2623725)
(203.20222 -9.6080065e-17 -5.9923071)
(202.6721 1.7776491e-16 -5.7571962)
(202.14143 0 -5.5591282)
(201.6075 -7.7204137e-17 -5.4011763)
(201.06655 -1.4352779e-16 -5.2878485)
(200.51491 1.3325391e-16 -5.2234806)
(199.95293 6.1567858e-17 -5.2081547)
(199.38841 5.7545681e-17 -5.2340425)
(198.8322 0 -5.2911874)
(198.27674 1.9881165e-16 -5.3937427)
(197.66353 1.8464533e-16 -5.6224388)
(196.87647 -2.5760857e-16 -6.1315825)
(195.81991 7.9713854e-17 -7.0491882)
(194.61486 -7.4373425e-17 -8.2268191)
(193.71493 -4.314808e-19 -9.0766701)
(193.83178 2.5442848e-16 -8.6611828)
(195.23237 -2.3519212e-16 -6.6735576)
(197.17952 5.5640658e-17 -4.0080677)
(198.72561 1.5055386e-16 -1.8582077)
(199.55737 -4.6199333e-17 -0.66727232)
(199.87882 -4.2780903e-17 -0.18934229)
(199.97335 0 -0.043357759)
(199.99527 3.656784e-17 -0.0082959605)
(221.22641 3.9086332e-16 -34.478007)
(259.00398 5.64283e-19 -14.492227)
(241.08228 -3.5927127e-16 -33.954952)
(250.935 0 -16.744274)
(243.89851 0 -31.409095)
(247.06669 -2.681797e-16 -19.833365)
(244.15503 2.7133083e-16 -28.464108)
(244.66685 6.4364755e-17 -22.689775)
(243.31166 -2.4434658e-16 -26.24395)
(242.81082 2.3112956e-16 -24.40342)
(241.9053 -2.4709506e-16 -25.239516)
(241.10849 2.0766649e-16 -24.935679)
(240.2406 -4.9270874e-17 -25.009188)
(239.35662 -4.6777162e-17 -24.957321)
(238.44318 -1.770842e-16 -24.915623)
(237.50428 1.6725763e-16 -24.850923)
(236.54013 -3.5718278e-16 -24.767926)
(235.55188 6.0047944e-16 -24.663676)
(234.54068 -2.8371691e-16 -24.536717)
(233.50791 -2.6922743e-16 -24.385316)
(232.45518 2.538704e-16 -24.207894)
(231.38441 -3.0327313e-17 -24.002977)
(230.29783 -2.2760291e-16 -23.769241)
(229.19801 2.1439008e-16 -23.505584)
(228.08792 2.5404301e-16 -23.211131)
(226.97088 -1.4316219e-16 -22.885285)
(225.85055 0 -22.527772)
(224.73087 2.5614629e-16 -22.138644)
(223.616 -3.2173207e-16 -21.718329)
(222.51018 1.1309092e-16 -21.267621)
(221.41762 -2.8625009e-16 -20.7877)
(220.3424 2.0172436e-16 -20.280129)
(219.28828 -6.3607247e-17 -19.746827)
(218.25866 2.3884363e-16 -19.190049)
(217.25645 -2.2401874e-16 -18.612363)
(216.28406 -2.1117895e-16 -18.016593)
(215.34339 1.9791064e-16 -17.405789)
(214.43583 -4.6380175e-17 -16.783176)
(213.56229 0 -16.152087)
(212.72322 8.2241079e-17 -15.515905)
(211.91859 -7.6623246e-17 -14.877999)
(211.14795 0 -14.241667)
(210.4104 1.3510429e-16 -13.610105)
(209.70469 -6.3238823e-17 -12.986382)
(209.02926 -1.771033e-16 -12.373422)
(208.38231 5.5278721e-16 -11.773977)
(207.76186 -2.072006e-16 -11.190604)
(207.16578 9.6539903e-17 -10.625651)
(206.59178 -2.7096769e-16 -10.081269)
(206.03745 -2.8072413e-19 -9.5594443)
(205.50027 1.5707666e-16 -9.0620315)
(204.9777 -1.4661207e-16 -8.5907783)
(204.46723 -6.8177538e-17 -8.1473276)
(203.96643 -6.352406e-17 -7.733216)
(203.47299 -1.1900992e-16 -7.3498983)
(202.98481 2.2054999e-16 -6.9987921)
(202.49992 0 -6.6813123)
(202.01633 9.5317682e-17 -6.3989172)
(201.53181 -3.5544865e-16 -6.1532612)
(201.04382 2.4703387e-16 -5.9465567)
(200.54924 7.64935e-17 -5.7820906)
(200.04433 1.4246335e-16 -5.6639953)
(199.5267 1.3300565e-16 -5.5948309)
(198.99968 -1.222095e-16 -5.5715374)
(198.47378 -1.132778e-16 -5.5839741)
(197.95543 -3.1637162e-16 -5.6289678)
(197.41858 -2.628575e-19 -5.7418019)
(196.77755 -9.0405901e-17 -6.0292949)
(195.91053 0 -6.6437817)
(194.7775 -2.3397017e-16 -7.6321155)
(193.63542 7.1826468e-17 -8.7053731)
(193.04143 0 -9.1910491)
(193.7176 1.2327493e-16 -8.1579909)
(195.5665 0 -5.800088)
(197.60929 1.0388827e-16 -3.196159)
(199.0161 -1.4458652e-16 -1.3551792)
(199.68859 1.3281611e-16 -0.44431846)
(199.92165 -8.1708382e-17 -0.11582413)
(199.9841 7.5460054e-17 -0.024389385)
(199.99739 0 -0.0042865554)
(220.41999 -4.1119639e-16 -38.437634)
(258.64651 3.6450681e-16 -17.437011)
(240.11911 -3.3375296e-16 -37.78284)
(250.1205 3.3213925e-16 -19.938386)
(242.91258 3.1801033e-16 -34.996518)
(246.09727 -1.804251e-17 -23.240657)
(243.09204 -2.8476272e-16 -31.83322)
(243.51379 -2.7029628e-16 -26.21401)
(242.1058 2.878133e-16 -29.515354)
(241.50118 0 -27.874193)
(240.52516 2.8691578e-17 -28.535324)
(239.6354 0 -28.281532)
(238.68093 -1.2918328e-16 -28.294192)
(237.70566 2.4391123e-16 -28.215049)
(236.70039 0 -28.130941)
(235.6687 0 -28.021085)
(234.61169 0 -27.887195)
(233.5312 3.933428e-17 -27.72659)
(232.42918 0 -27.537538)
(231.30789 -2.4576686e-16 -27.318228)
(230.16986 3.3121748e-16 -27.067034)
(229.01793 1.2530429e-16 -26.782546)
(227.85528 1.7763868e-16 -26.463584)
(226.68543 -2.7913397e-16 -26.109297)
(225.51222 -5.2544609e-17 -25.719177)
(224.33979 -2.4886306e-16 -25.293102)
(223.17252 1.8732606e-16 -24.831378)
(222.01497 -2.2123138e-16 -24.334755)
(220.87179 8.2711471e-17 -23.804428)
(219.74756 7.8202048e-17 -23.242045)
(218.64671 0 -22.649686)
(217.57334 2.7849113e-16 -22.029825)
(216.53113 -2.6165009e-16 -21.385304)
(215.52319 0 -20.719269)
(214.552 -2.3126685e-16 -20.035127)
(213.61939 2.1659371e-16 -19.336476)
(212.72653 -1.0216595e-16 -18.627052)
(211.87397 1.9115889e-16 -17.910662)
(211.06169 -2.6863936e-16 -17.191109)
(210.28913 1.5507637e-19 -16.472127)
(209.55526 -1.5693613e-16 -15.75732)
(208.85859 -7.3425228e-17 -15.050107)
(208.1973 -1.379626e-16 -14.353701)
(207.56925 2.5705163e-16 -13.671095)
(206.97209 -1.1988309e-16 -13.005047)
(206.40327 0 -12.358077)
(205.86017 -5.7089658e-19 -11.732455)
(205.34007 9.7572465e-17 -11.130211)
(204.84023 0 -10.553158)
(204.35788 8.4956798e-17 -10.002925)
(203.89024 7.9656304e-17 -9.4810019)
(203.43457 -7.3836247e-17 -8.9887621)
(202.98819 2.7507899e-16 -8.5274871)
(202.54852 -2.5569818e-16 -8.0983894)
(202.11307 -1.1904373e-16 -7.7026407)
(201.67967 -1.1063043e-16 -7.3413828)
(201.2464 1.0276417e-16 -7.015717)
(200.81144 1.9061399e-16 -6.726803)
(200.37252 -3.5352676e-16 -6.4762142)
(199.9266 4.0980734e-16 -6.2664481)
(199.46997 -1.5178593e-16 -6.1009876)
(198.99956 1.4081037e-16 -5.9828601)
(198.51617 -1.3037068e-16 -5.9117437)
(198.02688 2.4185483e-16 -5.8811676)
(197.54216 -3.3610908e-16 -5.8819877)
(197.05683 2.0704979e-16 -5.9244081)
(196.51884 -3.3632844e-19 -6.0701237)
(195.81853 8.8909658e-17 -6.443821)
(194.85234 0 -7.1692872)
(193.68092 0 -8.1750726)
(192.7026 0 -9.0358947)
(192.58606 -1.2933442e-16 -8.9985805)
(193.86901 3.0087183e-19 -7.4030365)
(196.07216 0 -4.8159836)
(198.08105 0 -2.4167729)
(199.28644 9.2103553e-17 -0.92939207)
(199.79451 -1.6991494e-16 -0.27722369)
(199.95283 0 -0.065796737)
(199.99122 0 -0.01267253)
(199.99867 -1.3198478e-16 -0.0020308798)
(219.4041 2.7829533e-17 -42.584717)
(258.06413 -7.9024933e-16 -20.514711)
(238.91052 3.4956175e-16 -41.762611)
(249.14577 -2.1875973e-17 -23.322467)
(241.69032 3.7530631e-16 -38.671059)
(244.85068 -3.5396004e-16 -26.839514)
(241.76128 0 -35.277417)
(242.06363 -3.188276e-16 -29.911068)
(240.59964 2.3444938e-16 -32.887394)
(239.87329 2.2265188e-16 -31.468451)
(238.814 -2.4037411e-16 -31.949128)
(237.81787 0 -31.727011)
(236.7631 2.8744812e-19 -31.67708)
(235.68373 0 -31.557095)
(234.57426 3.8729829e-16 -31.419455)
(233.43836 -7.3165194e-16 -31.250996)
(232.27814 3.4541867e-16 -31.051662)
(231.09638 -4.0769001e-17 -30.818895)
(229.89611 -3.8805185e-17 -30.550825)
(228.68069 3.6940978e-17 -30.245672)
(227.4538 -6.875863e-17 -29.901938)
(226.21948 -3.25951e-16 -29.518447)
(224.98203 3.0676294e-16 -29.094412)
(223.74605 5.7791007e-17 -28.629496)
(222.51636 -2.7414453e-16 -28.123836)
(221.29793 -7.1165693e-19 -27.578105)
(220.09583 2.9104835e-16 -26.993505)
(218.91512 -1.8271171e-16 -26.37178)
(217.76073 -7.4228744e-19 -25.715194)
(216.63733 0 -25.026501)
(215.54921 0 -24.308895)
(214.50016 -7.1951324e-17 -23.565949)
(213.4933 1.3461023e-16 -22.801543)
(212.53105 0 -22.019782)
(211.61503 -1.190706e-16 -21.224919)
(210.74608 2.2267753e-16 -20.421282)
(209.92428 -1.0438094e-16 -19.613182)
(209.14901 -1.9553218e-16 -18.80486)
(208.41903 9.0751598e-17 -18.000402)