/*--------------------------------*- C++ -*----------------------------------*\
  =========                 |
  \\      /  F ield         | OpenFOAM: The Open Source CFD Toolbox
   \\    /   O peration     | Website:  https://openfoam.org
    \\  /    A nd           | Version:  12
     \\/     M anipulation  |
\*---------------------------------------------------------------------------*/
FoamFile
{
    format      ascii;
    class       volScalarField;
    location    "0.028";
    object      rho;
}
// * * * * * * * * * * * * * * * * * * * * * * * * * * * * * * * * * * * * * //

dimensions      [1 -3 0 0 0 0 0];

internalField   nonuniform List<scalar> 
16000
(
1.0429672
1.0739223
1.0620031
1.069872
1.0661966
1.0694238
1.0684988
1.0702075
1.070367
1.0715196
1.0721606
1.0731472
1.0740115
1.0749933
1.0759796
1.0770205
1.0780971
1.0792169
1.0803783
1.0815822
1.0828289
1.0841186
1.0854512
1.0868265
1.0882442
1.0897036
1.0912039
1.0927439
1.0943222
1.095937
1.0975865
1.0992682
1.1009796
1.1027177
1.1044792
1.1062608
1.1080584
1.1098682
1.1116858
1.1135067
1.1153264
1.1171401
1.1189428
1.1207298
1.1224961
1.1242371
1.125948
1.1276248
1.1292633
1.1308601
1.1324122
1.1339175
1.1353747
1.1367839
1.1381464
1.1394656
1.1407468
1.141998
1.1432299
1.144457
1.1456978
1.1469758
1.1483201
1.1497629
1.1513353
1.1530567
1.1549375
1.1569517
1.1590283
1.1610436
1.1628182
1.1642037
1.1651103
1.1654389
1.1648651
1.1632684
1.1617175
1.1568172
1.1610198
1.1542519
1.0393825
1.0709113
1.0584412
1.0667761
1.062853
1.0663672
1.0653331
1.0672161
1.067361
1.068619
1.0693058
1.0703669
1.0713018
1.0723557
1.0734196
1.0745388
1.0756975
1.0769016
1.0781498
1.0794429
1.0807808
1.0821634
1.0835905
1.0850616
1.0865758
1.0881322
1.0897296
1.0913664
1.0930406
1.0947502
1.0964927
1.0982652
1.1000646
1.1018874
1.1037301
1.1055885
1.1074585
1.1093357
1.1112154
1.113093
1.1149638
1.1168228
1.1186654
1.1204868
1.1222824
1.1240478
1.1257791
1.1274723
1.1291242
1.130732
1.1322934
1.1338072
1.1352729
1.1366914
1.1380649
1.1393977
1.1406959
1.1419683
1.1432264
1.144485
1.1457628
1.1470827
1.1484717
1.1499592
1.1515745
1.1533365
1.1552415
1.1572624
1.1593259
1.1613064
1.163022
1.1643566
1.1652124
1.1654351
1.1647499
1.1633004
1.161164
1.1573112
1.1603329
1.155185
1.0361349
1.0681811
1.055284
1.0639331
1.0598427
1.0635983
1.0625391
1.0645379
1.0647274
1.0660667
1.0668265
1.0679629
1.0689819
1.0701173
1.0712696
1.0724777
1.0737289
1.0750273
1.0763721
1.0777636
1.0792013
1.080685
1.082214
1.0837875
1.0854044
1.0870632
1.0887622
1.0904994
1.0922724
1.0940784
1.0959144
1.097777
1.0996624
1.1015667
1.1034856
1.1054146
1.107349
1.109284
1.1112147
1.1131364
1.115044
1.1169329
1.1187985
1.1206364
1.1224423
1.1242127
1.1259439
1.127633
1.1292776
1.1308758
1.1324264
1.1339291
1.1353845
1.1367946
1.1381627
1.1394941
1.1407959
1.1420777
1.1433519
1.1446338
1.1459424
1.1473003
1.1487328
1.1502669
1.1519281
1.1537276
1.1556566
1.1576807
1.1597202
1.1616465
1.1632907
1.1645611
1.1653215
1.165412
1.1646434
1.1631818
1.160791
1.1576111
1.1598674
1.1560709
1.0332941
1.0657746
1.0524757
1.0614172
1.0571755
1.0612033
1.0601128
1.0622501
1.0624913
1.0639262
1.0647719
1.0659953
1.0671115
1.0683398
1.0695919
1.0708995
1.0722532
1.0736556
1.0751061
1.0766047
1.0781507
1.0797437
1.0813825
1.0830661
1.0847928
1.0865606
1.0883673
1.0902101
1.0920861
1.0939917
1.0959232
1.0978765
1.0998471
1.1018303
1.1038212
1.1058147
1.1078057
1.109789
1.1117595
1.1137122
1.1156422
1.1175449
1.1194162
1.1212521
1.123049
1.1248041
1.1265146
1.1281787
1.1297949
1.1313626
1.1328817
1.1343531
1.1357788
1.1371617
1.1385065
1.1398193
1.1411084
1.1423841
1.1436592
1.1449496
1.1462741
1.1476547
1.149115
1.1506798
1.1523691
1.1541875
1.1561228
1.1581325
1.160134
1.1619984
1.1635858
1.1647805
1.165432
1.1654053
1.1645702
1.163049
1.1605701
1.1579034
1.159668
1.1568726
1.030876
1.0638074
1.0501032
1.0593947
1.0549827
1.0592419
1.0581064
1.0604068
1.0607203
1.0622575
1.063205
1.064521
1.0657434
1.0670712
1.0684296
1.0698438
1.071307
1.0728209
1.0743851
1.075999
1.0776619
1.0793728
1.0811301
1.0829319
1.0847762
1.0866601
1.0885805
1.090534
1.0925166
1.094524
1.0965515
1.0985941
1.1006465
1.1027033
1.1047588
1.1068074
1.1088435
1.1108616
1.1128565
1.1148231
1.1167569
1.1186536
1.1205095
1.1223214
1.1240867
1.1258034
1.12747
1.1290857
1.1306505
1.132165
1.1336306
1.1350496
1.1364251
1.1377615
1.1390648
1.140342
1.1416025
1.1428572
1.1441196
1.1454057
1.1467342
1.1481258
1.149603
1.1511872
1.1528923
1.1547189
1.1566507
1.1586329
1.1605849
1.1623816
1.1639079
1.1649947
1.1655401
1.1654077
1.1645167
1.1629342
1.1604568
1.1582507
1.1596524
1.1576212
1.0288947
1.062268
1.0481905
1.0578553
1.0533222
1.0577672
1.0566022
1.0590865
1.0594566
1.0610934
1.0621464
1.063554
1.0648875
1.0663209
1.0677936
1.0693241
1.0709076
1.0725448
1.0742348
1.0759767
1.077769
1.0796099
1.0814972
1.0834283
1.0853998
1.0874082
1.0894494
1.0915187
1.0936113
1.0957216
1.097844
1.0999725
1.1021009
1.1042229
1.1063324
1.1084231
1.1104891
1.1125248
1.1145248
1.1164846
1.1184
1.1202673
1.1220837
1.123847
1.1255557
1.127209
1.1288068
1.1303498
1.1318393
1.1332775
1.1346673
1.1360123
1.1373174
1.1385882
1.1398318
1.1410565
1.1422723
1.1434912
1.1447269
1.1459955
1.1473151
1.1487055
1.150187
1.1517773
1.1534859
1.1553085
1.1572207
1.1591655
1.1610599
1.162784
1.1642163
1.1652063
1.1656549
1.1654326
1.1644981
1.162864
1.1604491
1.1586478
1.1597363
1.1583202
1.0273086
1.0611096
1.0466974
1.0567629
1.0521173
1.0567687
1.0556697
1.0583267
1.058656
1.0603726
1.0615508
1.0630647
1.0645277
1.0660855
1.067691
1.0693569
1.0710793
1.0728582
1.074692
1.0765789
1.0785168
1.080503
1.0825342
1.0846066
1.0867159
1.0888573
1.0910254
1.0932143
1.095418
1.0976296
1.0998425
1.1020496
1.1042439
1.1064182
1.108566
1.1106806
1.1127559
1.1147866
1.1167678
1.1186952
1.1205655
1.1223763
1.1241256
1.1258127
1.1274374
1.1290004
1.1305033
1.1319483
1.1333384
1.1346771
1.1359692
1.1372196
1.1384346
1.1396213
1.1407878
1.1419437
1.1430998
1.1442685
1.145464
1.1467022
1.1480007
1.1493777
1.1508511
1.152435
1.1541344
1.1559401
1.1578206
1.1597204
1.1615507
1.1631961
1.164531
1.1654332
1.1657884
1.1654915
1.1645252
1.1628507
1.1605373
1.1591186
1.1599135
1.1589757
1.0260626
1.0602842
1.0455562
1.0560706
1.051265
1.0562542
1.0550062
1.0575593
1.058252
1.0601017
1.0614376
1.0630826
1.0647001
1.0664071
1.0681688
1.0699929
1.0718765
1.0738183
1.0758161
1.0778672
1.0799684
1.0821158
1.0843048
1.0865304
1.0887869
1.0910679
1.0933665
1.0956757
1.0979876
1.1002944
1.1025881
1.1048608
1.1071046
1.1093119
1.1114756
1.1135894
1.1156474
1.1176446
1.119577
1.1214414
1.1232356
1.1249587
1.1266102
1.128191
1.1297027
1.1311477
1.1325292
1.1338512
1.1351182
1.1363355
1.1375091
1.1386456
1.1397526
1.1408382
1.1419119
1.1429841
1.1440663
1.1451714
1.1463139
1.1475094
1.1487744
1.1501256
1.1515782
1.1531425
1.1548194
1.1565949
1.1584342
1.1602783
1.1620384
1.163604
1.1648572
1.1656716
1.1659421
1.1655878
1.1645982
1.1628904
1.1607059
1.1596921
1.1601755
1.1595845
1.0251637
1.0597902
1.0447632
1.0557875
1.0507135
1.0557127
1.0547233
1.0575773
1.0583833
1.0603615
1.0618821
1.0636808
1.0654762
1.0673572
1.0692989
1.0713053
1.0733732
1.0755002
1.0776831
1.0799178
1.0821997
1.0845235
1.086883
1.0892714
1.0916813
1.0941046
1.0965328
1.098957
1.101368
1.1037568
1.1061142
1.1084314
1.1107002
1.1129128
1.1150624
1.1171428
1.1191491
1.1210775
1.1229253
1.1246908
1.1263736
1.1279746
1.1294952
1.1309383
1.1323074
1.1336066
1.134841
1.1360162
1.1371384
1.1382144
1.1392513
1.1402572
1.1412406
1.1422108
1.1431782
1.1441538
1.1451498
1.1461794
1.147257
1.1483978
1.1496173
1.1509302
1.1523489
1.15388
1.1555204
1.1572523
1.159038
1.1608163
1.1625006
1.1639853
1.165159
1.1659
1.1661008
1.1657075
1.1646989
1.1629627
1.1609346
1.1603541
1.1605136
1.160143
1.0246702
1.0596787
1.0443642
1.0555502
1.050591
1.0559483
1.0550708
1.0581089
1.059089
1.0612175
1.0629534
1.0649334
1.066933
1.0690156
1.0711636
1.073378
1.0756548
1.0779902
1.0803794
1.0828168
1.0852958
1.0878091
1.0903486
1.0929053
1.0954697
1.0980318
1.100581
1.1031069
1.1055988
1.1080466
1.1104403
1.1127709
1.1150299
1.1172102
1.1193056
1.1213114
1.123224
1.1250415
1.1267631
1.1283894
1.1299223
1.1313646
1.1327205
1.1339945
1.1351922
1.1363197
1.1373838
1.1383915
1.1393503
1.1402684
1.1411539
1.1420159
1.1428636
1.1437074
1.1445578
1.1454267
1.1463264
1.1472704
1.1482728
1.149348
1.1505102
1.1517722
1.1531433
1.1546268
1.1562159
1.1578896
1.1596082
1.1613103
1.1629121
1.164314
1.1654112
1.1660854
1.166232
1.1658176
1.164794
1.1630409
1.1611995
1.1610231
1.1608927
1.1606511
1.0246717
1.0600273
1.0444828
1.0559307
1.0510523
1.0566888
1.056038
1.059209
1.0604524
1.0627503
1.0647318
1.0669242
1.0691565
1.0714708
1.073854
1.0763043
1.0788161
1.081384
1.0840007
1.0866585
1.0893484
1.0920606
1.0947841
1.0975077
1.1002194
1.1029069
1.1055579
1.1081604
1.1107026
1.1131736
1.1155634
1.1178632
1.1200656
1.1221645
1.1241557
1.1260366
1.127806
1.1294646
1.1310144
1.1324587
1.1338019
1.1350496
1.136208
1.1372839
1.1382848
1.1392184
1.1400929
1.1409166
1.1416981
1.1424462
1.1431701
1.1438792
1.1445834
1.1452933
1.14602
1.1467752
1.1475715
1.148422
1.1493404
1.1503403
1.1514343
1.1526329
1.1539427
1.1553637
1.156886
1.1584861
1.1601233
1.1617373
1.1632473
1.1645601
1.1655773
1.1661879
1.1662927
1.1658727
1.1648418
1.1631007
1.1614678
1.1615793
1.1612437
1.1610671
1.0251893
1.060871
1.0451337
1.0569904
1.0521842
1.0580491
1.0576425
1.0609908
1.0625381
1.0650354
1.0672978
1.0697408
1.0722403
1.0748212
1.0774725
1.0801895
1.0829644
1.0857889
1.0886531
1.0915458
1.0944551
1.0973678
1.1002702
1.103148
1.1059868
1.1087724
1.1114907
1.1141286
1.1166741
1.1191164
1.1214464
1.1236567
1.1257421
1.1276992
1.1295267
1.1312251
1.1327967
1.1342455
1.1355767
1.1367967
1.1379127
1.1389328
1.1398653
1.140719
1.1415028
1.1422259
1.1428973
1.1435262
1.1441219
1.1446936
1.1452507
1.145803
1.1463605
1.1469336
1.1475334
1.1481715
1.1488602
1.1496121
1.1504401
1.1513565
1.1523723
1.1534958
1.1547309
1.1560746
1.1575146
1.1590254
1.1605662
1.1620787
1.1634856
1.1646984
1.1656274
1.1661726
1.1662412
1.1658238
1.1647991
1.1631191
1.1617015
1.1619352
1.1615054
1.1613025
1.0262068
1.0622099
1.0463046
1.0585876
1.0539682
1.0600545
1.0599809
1.0635182
1.0654306
1.068169
1.0707524
1.0734912
1.0762984
1.0791858
1.0821419
1.0851585
1.0882244
1.0913272
1.0944532
1.0975873
1.1007137
1.1038158
1.1068763
1.1098785
1.1128056
1.1156416
1.118372
1.1209835
1.1234651
1.1258078
1.1280049
1.1300523
1.1319486
1.1336943
1.1352922
1.1367472
1.1380656
1.1392551
1.1403242
1.1412824
1.1421395
1.1429056
1.1435909
1.1442055
1.1447594
1.1452624
1.1457243
1.1461544
1.1465621
1.1469567
1.1473475
1.1477441
1.1481562
1.1485939
1.1490679
1.1495893
1.1501695
1.1508205
1.151554
1.1523807
1.1533099
1.1543479
1.1554958
1.1567484
1.1580913
1.1594978
1.1609276
1.1623247
1.1636152
1.1647157
1.1655463
1.1660187
1.1660494
1.1656321
1.1646239
1.1630613
1.1618815
1.1620813
1.1616243
1.161282
1.0277977
1.0641093
1.048087
1.0608271
1.0564803
1.0628059
1.0631493
1.0669004
1.069238
1.0722711
1.0752229
1.0783108
1.0814734
1.0847117
1.0880113
1.0913587
1.094738
1.098132
1.101522
1.1048886
1.1082115
1.1114705
1.1146453
1.1177167
1.1206666
1.123479
1.1261401
1.1286389
1.1309674
1.1331207
1.1350968
1.1368969
1.1385246
1.1399859
1.1412887
1.1424422
1.1434571
1.1443447
1.1451165
1.1457845
1.1463604
1.1468559
1.147282
1.1476498
1.1479695
1.1482511
1.1485043
1.1487384
1.1489624
1.1491851
1.1494154
1.1496624
1.1499351
1.150243
1.150596
1.1510043
1.1514785
1.1520292
1.1526666
1.1533999
1.1542365
1.1551803
1.1562306
1.1573801
1.158613
1.1599021
1.161208
1.1624771
1.1636386
1.164618
1.1653399
1.1657297
1.1657176
1.1652879
1.1642915
1.1628632
1.1619554
1.1621652
1.1615734
1.1609769
1.0300116
1.0666124
1.0505812
1.0638036
1.0598083
1.0663929
1.0672577
1.0712645
1.074098
1.0774989
1.0808786
1.0843768
1.0879468
1.0915796
1.0952555
1.0989549
1.102656
1.1063357
1.10997
1.1135344
1.1170043
1.1203559
1.1235672
1.1266181
1.1294917
1.1321745
1.1346567
1.1369326
1.1390001
1.140861
1.1425203
1.1439856
1.1452671
1.1463763
1.1473262
1.1481306
1.1488036
1.1493591
1.1498112
1.1501731
1.1504577
1.1506772
1.150843
1.1509659
1.151056
1.151123
1.1511759
1.1512234
1.1512737
1.151335
1.1514155
1.1515232
1.1516664
1.1518537
1.1520938
1.1523959
1.1527692
1.1532229
1.1537656
1.1544043
1.1551448
1.1559888
1.1569337
1.1579711
1.1590841
1.1602459
1.1614187
1.162551
1.1635752
1.1644305
1.1650426
1.1653419
1.1652843
1.1648305
1.1638378
1.1625302
1.1618626
1.1621453
1.1613058
1.1604728
1.0329007
1.0697399
1.0539045
1.0675874
1.0640833
1.0709526
1.0724694
1.076805
1.0802157
1.0840705
1.0879427
1.0919106
1.0959335
1.0999926
1.1040616
1.1081134
1.112119
1.1160485
1.1198716
1.1235589
1.1270827
1.1304181
1.1335438
1.1364433
1.1391049
1.1415218
1.1436924
1.1456195
1.14731
1.1487743
1.1500252
1.1510775
1.1519475
1.152652
1.1532081
1.1536327
1.1539421
1.154152
1.1542772
1.1543316
1.1543279
1.1542779
1.1541926
1.1540821
1.1539556
1.1538219
1.1536891
1.1535649
1.1534566
1.1533713
1.1533163
1.1532985
1.1533252
1.1534038
1.1535418
1.1537471
1.1540273
1.1543899
1.1548415
1.1553872
1.1560309
1.1567729
1.1576086
1.1585286
1.1595161
1.1605453
1.1615809
1.1625744
1.1634619
1.1641944
1.1647063
1.164918
1.1648188
1.164342
1.1633681
1.1621967
1.1617193
1.1619653
1.1609639
1.1599239
1.0365426
1.0735057
1.0581608
1.0723389
1.0695101
1.0767271
1.0790406
1.0837945
1.0878596
1.092252
1.096674
1.1011584
1.1056634
1.1101592
1.11461
1.118979
1.1232283
1.1273206
1.1312209
1.1348976
1.1383241
1.1414798
1.1443508
1.1469295
1.149215
1.1512123
1.1529311
1.1543853
1.1555919
1.15657
1.15734
1.1579227
1.1583389
1.1586091
1.1587525
1.1587876
1.1587315
1.1585999
1.1584071
1.1581664
1.1578895
1.1575872
1.1572693
1.1569446
1.1566212
1.1563065
1.1560075
1.1557307
1.1554824
1.1552684
1.1550949
1.1549677
1.1548929
1.1548766
1.1549251
1.1550447
1.1552415
1.1555211
1.1558879
1.1563448
1.1568942
1.1575356
1.1582625
1.1590649
1.1599267
1.160824
1.1617244
1.1625845
1.1633475
1.1639646
1.1643875
1.164538
1.1644113
1.1639273
1.1630024
1.1620024
1.1616952
1.1618548
1.1607264
1.1595337
1.0411295
1.0781369
1.0636234
1.0783735
1.076408
1.0840287
1.0872773
1.0925412
1.0973266
1.1023324
1.1073518
1.1123815
1.1173703
1.1222733
1.1270418
1.131628
1.1359864
1.1400765
1.1438646
1.1473251
1.1504413
1.1532056
1.1556184
1.1576879
1.1594284
1.160859
1.1620021
1.1628826
1.1635263
1.1639592
1.1642069
1.1642938
1.1642429
1.1640758
1.1638122
1.1634699
1.163065
1.1626122
1.1621243
1.1616128
1.161088
1.1605589
1.1600337
1.1595197
1.1590236
1.1585514
1.1581089
1.1577012
1.1573333
1.1570102
1.1567366
1.1565173
1.156357
1.1562605
1.1562328
1.1562786
1.1564025
1.1566083
1.1568986
1.1572748
1.1577365
1.1582818
1.158905
1.1595954
1.1603382
1.1611114
1.1618864
1.1626271
1.1632852
1.1638105
1.1641672
1.1642829
1.1641684
1.1637061
1.1628746
1.1620813
1.1619227
1.1619669
1.1606537
1.1594435
1.0469052
1.0843013
1.0706477
1.0859998
1.0851015
1.0931652
1.0974945
1.103385
1.1089591
1.114647
1.12029
1.1258502
1.1312594
1.1364554
1.1413783
1.1459752
1.1502027
1.1540291
1.1574348
1.1604123
1.1629653
1.165107
1.1668582
1.1682456
1.1692992
1.1700515
1.1705354
1.1707835
1.1708272
1.1706958
1.1704169
1.1700152
1.1695134
1.1689318
1.1682884
1.167599
1.1668778
1.1661368
1.1653869
1.1646373
1.1638963
1.1631711
1.1624681
1.161793
1.1611509
1.1605466
1.1599843
1.1594682
1.159002
1.1585896
1.1582344
1.1579402
1.1577105
1.1575487
1.1574583
1.1574426
1.1575044
1.1576458
1.157869
1.1581737
1.1585572
1.1590162
1.1595454
1.1601355
1.1607731
1.1614387
1.162109
1.162757
1.1633364
1.1638053
1.1641293
1.1642677
1.1641928
1.1637869
1.163105
1.1625324
1.1624734
1.1623504
1.1608977
1.1597233
1.0540412
1.0921176
1.079396
1.0954395
1.0959513
1.1045469
1.1101205
1.1167839
1.1232007
1.1295878
1.1357974
1.1417583
1.1473872
1.1526143
1.1573832
1.1616541
1.1654044
1.1686284
1.1713352
1.1735459
1.1752913
1.1766083
1.1775379
1.1781225
1.1784044
1.1784245
1.178221
1.1778296
1.1772824
1.1766084
1.1758334
1.1749799
1.1740679
1.1731147
1.1721351
1.1711421
1.1701467
1.1691585
1.1681856
1.1672351
1.166313
1.1654247
1.1645747
1.1637674
1.1630063
1.162295
1.1616366
1.161034
1.1604899
1.1600072
1.1595882
1.1592354
1.1589514
1.1587384
1.1585985
1.1585335
1.1585449
1.1586332
1.1587985
1.1590402
1.1593561
1.1597417
1.1601913
1.1606974
1.161249
1.1618307
1.1624279
1.1630248
1.1635598
1.1640051
1.1643538
1.1645604
1.1645482
1.1642596
1.163769
1.1634103
1.1634095
1.1631168
1.1615882
1.160513
1.062698
1.1017353
1.0904899
1.1072414
1.1095886
1.1188472
1.1257839
1.1333154
1.1405208
1.1474617
1.153988
1.1600124
1.1654589
1.1702777
1.1744437
1.1779551
1.1808301
1.1831026
1.1848178
1.1860277
1.1867879
1.1871543
1.1871814
1.1869201
1.1864175
1.1857162
1.1848539
1.183864
1.1827755
1.1816134
1.1803995
1.179152
1.1778868
1.176617
1.1753541
1.1741074
1.172885
1.1716935
1.1705385
1.169425
1.1683569
1.1673378
1.166371
1.1654591
1.1646047
1.1638101
1.1630774
1.1624085
1.1618053
1.1612694
1.1608025
1.1604059
1.1600812
1.1598295
1.1596517
1.1595486
1.1595202
1.159566
1.1596853
1.1598761
1.1601359
1.1604612
1.1608474
1.1612887
1.1617777
1.1623038
1.1628551
1.1634231
1.1639701
1.1644585
1.1648788
1.1651771
1.1652854
1.1651613
1.164888
1.1647272
1.1647495
1.1643185
1.1628297
1.1618863
1.0736273
1.1139735
1.1048021
1.1223173
1.1269345
1.1369325
1.1451619
1.1534394
1.1611183
1.1681747
1.1744864
1.179994
1.18467
1.188521
1.1915804
1.193902
1.1955523
1.1966053
1.1971366
1.1972205
1.1969265
1.1963188
1.1954547
1.1943847
1.1931528
1.1917971
1.1903496
1.188838
1.1872851
1.1857103
1.1841297
1.1825567
1.1810024
1.179476
1.177985
1.1765355
1.1751327
1.1737807
1.1724828
1.1712421
1.1700607
1.168941
1.1678847
1.1668934
1.1659686
1.1651118
1.1643241
1.1636066
1.1629604
1.1623863
1.161885
1.1614572
1.1611034
1.1608237
1.1606181
1.1604863
1.1604275
1.1604405
1.1605236
1.1606748
1.1608918
1.161172
1.1615126
1.1619106
1.1623629
1.1628653
1.1634109
1.1639892
1.1645829
1.1651545
1.1656812
1.1661152
1.1663948
1.1664738
1.1664317
1.1664428
1.166463
1.165958
1.164622
1.1637972
1.088391
1.1299146
1.1235717
1.1417055
1.1489275
1.1595511
1.1686
1.1770656
1.1845082
1.1909059
1.1962238
1.2004859
1.2037502
1.2061015
1.2076392
1.2084684
1.2086933
1.2084123
1.2077151
1.2066814
1.2053809
1.2038732
1.202209
1.2004306
1.1985734
1.1966667
1.1947345
1.1927965
1.1908686
1.188964
1.1870931
1.1852644
1.1834848
1.1817594
1.1800927
1.1784879
1.1769477
1.1754739
1.1740683
1.1727321
1.1714663
1.170272
1.1691499
1.1681007
1.1671252
1.1662239
1.1653974
1.164646
1.1639702
1.16337
1.1628455
1.1623965
1.1620227
1.1617236
1.1614983
1.1613457
1.1612644
1.1612528
1.1613091
1.1614313
1.1616178
1.1618673
1.1621794
1.1625548
1.1629951
1.1635017
1.1640744
1.1647069
1.1653829
1.1660761
1.1667495
1.1673522
1.1678246
1.1681379
1.1683286
1.1684914
1.1685164
1.1680064
1.1668992
1.1661815
1.1082789
1.1508192
1.1481927
1.1664001
1.1759373
1.1866617
1.1955273
1.203118
1.2092702
1.2140492
1.2175485
1.2199028
1.2212616
1.2217769
1.2215931
1.2208414
1.2196374
1.2180803
1.2162538
1.2142275
1.2120585
1.2097934
1.20747
1.2051185
1.2027633
1.2004236
1.1981147
1.1958485
1.1936346
1.1914802
1.189391
1.187371
1.1854236
1.1835509
1.1817547
1.1800358
1.1783951
1.1768327
1.1753491
1.1739442
1.1726181
1.1713708
1.1702024
1.169113
1.1681026
1.1671711
1.1663186
1.165545
1.1648499
1.164233
1.1636936
1.1632311
1.1628443
1.1625322
1.1622932
1.1621257
1.1620282
1.1619988
1.1620358
1.162138
1.1623045
1.162536
1.1628348
1.1632052
1.1636538
1.1641874
1.1648106
1.1655217
1.1663085
1.1671453
1.1679917
1.1687913
1.1694833
1.1700417
1.1704714
1.1707769
1.1708455
1.1704649
1.169666
1.1690479
1.1359406
1.1774643
1.1797432
1.1972779
1.2071651
1.216689
1.2240014
1.2294895
1.2332775
1.2355984
1.2366826
1.2367564
1.2360232
1.2346599
1.2328154
1.2306124
1.2281504
1.2255087
1.2227506
1.2199256
1.2170726
1.2142215
1.2113958
1.2086131
1.2058872
1.2032281
1.2006436
1.1981391
1.1957185
1.1933845
1.1911389
1.1889827
1.1869161
1.1849392
1.1830516
1.1812525
1.1795414
1.1779174
1.1763796
1.1749274
1.1735599
1.1722768
1.1710774
1.1699612
1.168928
1.1679772
1.1671083
1.1663209
1.1656142
1.1649872
1.1644391
1.1639683
1.1635735
1.1632528
1.1630043
1.1628261
1.1627166
1.1626741
1.1626975
1.1627863
1.1629411
1.1631644
1.1634612
1.1638397
1.1643106
1.1648859
1.1655746
1.1663787
1.1672881
1.1682766
1.1693014
1.1703068
1.1712367
1.1720493
1.1727202
1.1732064
1.1734209
1.1732841
1.1728668
1.1724137
1.1738726
1.2116218
1.2170394
1.2318524
1.2406334
1.2472599
1.2514256
1.2536646
1.2543282
1.2537726
1.2522897
1.2501209
1.2474579
1.2444509
1.2412154
1.23784
1.2343916
1.2309204
1.2274642
1.2240509
1.2207009
1.2174291
1.2142461
1.2111592
1.2081733
1.2052916
1.2025157
1.1998462
1.1972829
1.1948254
1.1924723
1.1902224
1.1880741
1.1860257
1.1840754
1.1822215
1.1804623
1.178796
1.1772214
1.1757369
1.1743416
1.1730342
1.1718141
1.1706802
1.169632
1.1686686
1.1677893
1.1669932
1.1662793
1.1656462
1.1650926
1.1646166
1.1642163
1.1638895
1.1636339
1.1634474
1.1633283
1.1632753
1.1632879
1.1633669
1.1635143
1.1637349
1.1640363
1.1644299
1.1649301
1.1655526
1.1663104
1.1672089
1.1682401
1.1693779
1.170578
1.1717848
1.1729443
1.1740129
1.1749431
1.1756721
1.1761559
1.1763933
1.1764293
1.1761733
1.2203071
1.2516766
1.2584411
1.2678539
1.2725
1.274657
1.2746985
1.273257
1.2707539
1.2675255
1.2638176
1.259811
1.2556365
1.251388
1.2471325
1.2429174
1.2387757
1.2347302
1.2307963
1.226984
1.2232994
1.2197456
1.2163239
1.2130342
1.2098751
1.2068449
1.2039411
1.201161
1.1985018
1.1959606
1.1935344
1.1912204
1.1890158
1.1869177
1.1849235
1.1830307
1.181237
1.1795403
1.1779388
1.1764306
1.1750144
1.1736888
1.1724527
1.171305
1.1702449
1.1692714
1.1683834
1.1675799
1.1668597
1.1662211
1.1656625
1.1651818
1.1647766
1.1644444
1.1641825
1.1639885
1.1638605
1.1637977
1.1638
1.1638692
1.1640094
1.1642276
1.1645343
1.1649436
1.1654727
1.1661398
1.166961
1.1679447
1.1690854
1.1703583
1.1717184
1.1731104
1.1744891
1.1758216
1.1770336
1.1780758
1.1789407
1.1796358
1.1801459
1.1801296
1.2730599
1.2928029
1.2970115
1.2991642
1.2982477
1.2955395
1.291631
1.2869982
1.2819525
1.2767049
1.2713951
1.266115
1.2609243
1.255861
1.2509486
1.2462007
1.2416243
1.2372221
1.2329937
1.2289366
1.2250475
1.2213218
1.2177549
1.2143417
1.2110771
1.2079561
1.204974
1.2021259
1.1994073
1.1968141
1.1943422
1.1919878
1.1897472
1.1876171
1.1855944
1.1836762
1.1818597
1.1801427
1.1785229
1.1769984
1.1755677
1.1742292
1.1729816
1.1718237
1.1707545
1.1697729
1.1688777
1.1680679
1.1673421
1.1666987
1.1661358
1.1656513
1.1652426
1.1649067
1.1646406
1.1644416
1.1643074
1.1642365
1.1642294
1.1642886
1.1644197
1.1646325
1.1649405
1.1653609
1.1659128
1.1666161
1.1674884
1.1685408
1.1697708
1.1711555
1.1726513
1.1742061
1.1757774
1.1773464
1.1788679
1.1802857
1.1815655
1.1827307
1.1836963
1.1839634
1.3246046
1.3274301
1.3259696
1.3214611
1.3156268
1.3090874
1.3022858
1.2954556
1.2887374
1.2822072
1.2759059
1.2698525
1.2640534
1.2585074
1.2532089
1.2481498
1.2433209
1.2387123
1.2343141
1.2301166
1.2261106
1.2222873
1.2186382
1.2151556
1.2118322
1.208661
1.2056359
1.2027508
1.2000003
1.1973794
1.1948834
1.1925079
1.1902489
1.1881027
1.1860657
1.1841349
1.1823072
1.1805803
1.1789517
1.1774193
1.1759815
1.1746365
1.173383
1.1722195
1.171145
1.1701583
1.1692582
1.1684438
1.1677138
1.1670668
1.1665012
1.1660147
1.1656048
1.1652685
1.1650026
1.1648034
1.164668
1.164594
1.1645807
1.1646307
1.1647505
1.1649524
1.1652534
1.1656742
1.1662362
1.1669598
1.1678631
1.1689588
1.1702474
1.1717081
1.1732982
1.1749693
1.1766931
1.1784728
1.1802829
1.1820293
1.1836796
1.1852646
1.1866101
1.1871388
1.3576585
1.3500711
1.3423644
1.3341529
1.3256278
1.3172163
1.3090673
1.3012518
1.2937953
1.2866995
1.2799554
1.2735479
1.2674598
1.2616733
1.256171
1.250936
1.2459528
1.2412067
1.2366845
1.2323736
1.2282629
1.2243417
1.2206007
1.2170309
1.2136245
1.2103738
1.2072723
1.2043136
1.2014919
1.1988022
1.1962393
1.193799
1.1914771
1.1892697
1.1871734
1.1851849
1.1833013
1.1815201
1.1798389
1.1782556
1.1767685
1.1753759
1.1740764
1.1728685
1.1717511
1.1707231
1.1697835
1.1689315
1.168166
1.1674861
1.1668903
1.1663769
1.1659431
1.1655861
1.1653022
1.1650871
1.1649365
1.1648466
1.1648149
1.1648426
1.1649361
1.1651092
1.1653823
1.16578
1.1663266
1.1670433
1.1679481
1.1690543
1.1703641
1.1718585
1.1734972
1.1752363
1.1770539
1.1789792
1.1810216
1.1829426
1.1847827
1.186779
1.1883061
1.1890184
1.1682087
1.1732342
1.1857874
1.1978064
1.2036556
1.2050675
1.2051297
1.2047668
1.2046892
1.2043662
1.2040234
1.2034925
1.2028794
1.2021664
1.2014205
1.2006422
1.1998291
1.1989856
1.1981163
1.1972249
1.1963149
1.1953893
1.1944511
1.1935029
1.192547
1.1915856
1.1906207
1.1896539
1.1886871
1.1877216
1.186759
1.1858006
1.1848477
1.1839015
1.1829634
1.1820344
1.1811158
1.1802086
1.179314
1.1784331
1.177567
1.1767168
1.1758836
1.1750686
1.1742728
1.1734972
1.1727429
1.1720105
1.1713008
1.1706141
1.1699506
1.16931
1.1686914
1.168093
1.1675126
1.1669466
1.1663909
1.1658398
1.165287
1.1647248
1.1641443
1.163535
1.1628845
1.1621783
1.1614078
1.1605614
1.1596867
1.1587748
1.1581041
1.1574685
1.1578666
1.15793
1.1598931
1.1611642
1.1651319
1.1642157
1.1687905
1.1635668
1.167911
1.1534741
1.1659669
1.173023
1.1884894
1.1969064
1.1993539
1.1993116
1.1988692
1.1986018
1.1982838
1.1979802
1.1975938
1.1971859
1.1967287
1.1962448
1.1957185
1.1951552
1.1945561
1.1939251
1.1932647
1.1925769
1.1918643
1.191129
1.1903733
1.1895995
1.1888098
1.1880062
1.1871909
1.1863658
1.1855329
1.1846941
1.1838512
1.1830059
1.18216
1.1813152
1.1804732
1.1796355
1.1788038
1.1779795
1.1771642
1.1763593
1.1755663
1.1747866
1.1740216
1.1732728
1.1725413
1.1718284
1.1711351
1.1704625
1.1698112
1.1691817
1.1685741
1.1679882
1.1674229
1.1668766
1.1663468
1.1658301
1.165322
1.1648172
1.1643091
1.1637901
1.1632514
1.1626822
1.1620703
1.1614025
1.160672
1.159873
1.1590576
1.1582306
1.1576622
1.1571754
1.1577579
1.1579056
1.1600783
1.1612277
1.1654701
1.1641951
1.1688661
1.1633517
1.1676336
1.1532785
1.1642458
1.1748149
1.1864775
1.1928031
1.1940272
1.1936376
1.19307
1.1927807
1.1924722
1.1921867
1.1918458
1.1915047
1.191123
1.1907259
1.1902972
1.1898476
1.1893718
1.1888729
1.1883505
1.1878055
1.1872389
1.1866516
1.1860447
1.1854194
1.1847771
1.1841189
1.1834463
1.1827608
1.1820638
1.1813568
1.1806415
1.1799195
1.1791925
1.1784621
1.1777301
1.1769982
1.1762681
1.1755415
1.1748201
1.1741057
1.1733998
1.1727043
1.1720206
1.1713503
1.170695
1.170056
1.1694345
1.1688316
1.1682481
1.1676845
1.1671412
1.1666176
1.1661129
1.1656253
1.1651524
1.1646906
1.1642357
1.1637822
1.1633235
1.1628522
1.162359
1.1618335
1.1612638
1.1606382
1.1599522
1.1592066
1.1584572
1.1577202
1.1572593
1.1569291
1.1576543
1.157932
1.1603482
1.1613085
1.1657119
1.1641988
1.1689229
1.1631361
1.1673344
1.1531107
1.1614995
1.1739171
1.1837767
1.1887013
1.1886752
1.1882037
1.1876795
1.187427
1.1870532
1.1867617
1.1864044
1.1860828
1.1857254
1.1853771
1.1850069
1.1846305
1.1842378
1.1838326
1.1834127
1.1829782
1.1825285
1.1820633
1.1815827
1.1810867
1.1805757
1.1800499
1.17951
1.1789567
1.1783908
1.1778134
1.1772256
1.1766286
1.1760237
1.1754126
1.1747966
1.1741774
1.1735566
1.172936
1.1723173
1.1717023
1.1710928
1.1704905
1.1698972
1.1693146
1.1687442
1.1681875
1.1676458
1.1671204
1.1666121
1.1661215
1.1656489
1.165194
1.1647556
1.1643322
1.1639213
1.1635194
1.1631221
1.1627241
1.1623188
1.1618985
1.161454
1.160975
1.1604505
1.1598703
1.1592333
1.1585465
1.1578694
1.1572291
1.1568855
1.1567188
1.1575995
1.1580114
1.1607184
1.1614201
1.1659324
1.1642296
1.1689576
1.1629182
1.1670161
1.1529432
1.1555651
1.1697952
1.1791711
1.1827784
1.1821717
1.1819908
1.1815256
1.1813962
1.1810722
1.1808858
1.1806004
1.1803768
1.1801042
1.179853
1.179577
1.1793016
1.1790119
1.1787138
1.1784036
1.1780817
1.1777474
1.1774
1.1770394
1.1766653
1.1762775
1.1758762
1.1754614
1.1750335
1.174593
1.1741404
1.1736765
1.1732022
1.1727184
1.1722265
1.1717276
1.1712232
1.1707148
1.170204
1.1696925
1.1691821
1.1686744
1.1681713
1.1676746
1.1671858
1.1667067
1.1662387
1.1657833
1.1653415
1.1649145
1.1645029
1.1641069
1.163726
1.1633593
1.1630052
1.162661
1.1623236
1.1619883
1.1616499
1.1613015
1.1609355
1.1605429
1.1601135
1.1596372
1.1591062
1.1585226
1.1579
1.1573007
1.1567647
1.1565453
1.1565445
1.1575743
1.1581336
1.1610996
1.1615766
1.1661652
1.1642879
1.1689653
1.1626965
1.1666792
1.1528079
1.1485804
1.1652719
1.1735163
1.1764273
1.1756255
1.1757351
1.1753124
1.1753383
1.1750788
1.1750153
1.1748117
1.1746974
1.1745164
1.1743684
1.1741896
1.1740158
1.173827
1.1736318
1.1734254
1.173209
1.1729816
1.172743
1.1724928
1.1722307
1.1719564
1.1716699
1.1713711
1.1710599
1.1707367
1.1704016
1.1700552
1.1696979
1.1693307
1.1689543
1.1685699
1.1681787
1.1677819
1.1673811
1.1669779
1.1665737
1.1661704
1.1657695
1.1653728
1.1649818
1.1645981
1.1642232
1.1638586
1.1635053
1.1631644
1.1628365
1.1625216
1.1622194
1.1619289
1.1616484
1.1613753
1.1611063
1.1608369
1.1605615
1.1602734
1.1599648
1.1596269
1.1592498
1.1588248
1.1583467
1.1578213
1.1572682
1.1567539
1.1563272
1.1562357
1.1563949
1.1575318
1.158281
1.1613927
1.1617864
1.1663606
1.1643585
1.1689571
1.1624708
1.1663218
1.1526574
1.1423567
1.1609319
1.1678166
1.1703935
1.1694578
1.1698044
1.1693909
1.1695517
1.1693382
1.1693807
1.1692434
1.1692236
1.1691198
1.1690613
1.1689661
1.1688791
1.1687765
1.1686707
1.1685552
1.1684316
1.1682992
1.1681575
1.168006
1.1678444
1.1676723
1.1674895
1.1672957
1.1670908
1.1668749
1.1666479
1.1664101
1.166162
1.1659041
1.1656372
1.165362
1.1650796
1.1647912
1.1644981
1.1642016
1.1639031
1.1636042
1.1633063
1.1630109
1.1627196
1.1624337
1.1621548
1.1618841
1.1616227
1.1613715
1.161131
1.1609012
1.1606815
1.160471
1.1602679
1.1600695
1.1598725
1.1596721
1.1594629
1.159238
1.1589895
1.1587089
1.158387
1.1580165
1.157595
1.1571324
1.1566548
1.1562351
1.1559193
1.1559591
1.1562605
1.1574894
1.1584403
1.1616469
1.1620261
1.166533
1.1644128
1.168935
1.1622411
1.1659473
1.1524636
1.1365489
1.1570676
1.1623828
1.1648439
1.1637901