/*--------------------------------*- C++ -*----------------------------------*\
  =========                 |
  \\      /  F ield         | OpenFOAM: The Open Source CFD Toolbox
   \\    /   O peration     | Website:  https://openfoam.org
    \\  /    A nd           | Version:  12
     \\/     M anipulation  |
\*---------------------------------------------------------------------------*/
FoamFile
{
    format      ascii;
    class       volScalarField;
    location    "0.009";
    object      omega;
}
// * * * * * * * * * * * * * * * * * * * * * * * * * * * * * * * * * * * * * //

dimensions      [0 0 -1 0 0 0 0];

internalField   nonuniform List<scalar> 
16000
(
1095.6418
2238.7892
1076.7968
648.08579
454.81436
315.62657
239.8631
180.91653
145.81957
117.85925
100.19873
85.768332
75.082785
66.148115
58.85777
52.712537
47.524409
43.099143
39.296908
36.006077
33.142677
30.635616
28.426468
26.468688
24.724734
23.165366
21.766456
20.509423
19.378553
18.359463
17.439111
16.607208
15.855585
15.17734
14.566547
14.017667
13.525462
13.084962
12.691954
12.342819
12.033552
11.75999
11.519047
11.307941
11.123535
10.962636
10.822767
10.701647
10.597089
10.50703
10.429656
10.36336
10.306613
10.258053
10.216475
10.181009
10.151469
10.128506
10.112386
10.101549
10.093505
10.088329
10.085344
10.083333
10.081258
10.07869
10.074727
10.071664
10.070048
10.068253
10.063831
10.057845
10.050365
10.042516
10.031829
10.032739
10.025352
10.030276
10.01867
10.003468
1137.122
2227.728
1064.4527
647.10518
453.6353
318.5108
240.76478
182.72017
146.63293
118.85308
100.68789
86.282215
75.39265
66.411651
59.035926
52.841899
47.608408
43.149922
39.322109
36.011377
33.133004
30.615559
28.399604
26.437859
24.691737
23.131594
21.732571
20.475704
19.345363
18.327435
17.408636
16.578321
15.828172
15.151193
14.541511
13.993673
13.502566
13.063181
12.671138
12.322935
12.014832
11.742462
11.502574
11.292497
11.109269
10.949551
10.810799
10.690747
10.58724
10.498205
10.4218
10.356449
10.300627
10.252978
10.212281
10.177593
10.148581
10.125865
10.109914
10.098939
10.090776
10.085443
10.082323
10.080191
10.077944
10.075277
10.072011
10.069323
10.066977
10.063527
10.059017
10.053042
10.045911
10.039664
10.032758
10.030498
10.028039
10.028177
10.018601
10.00039
1176.9382
2227.6911
1049.9168
642.07276
448.83971
318.78973
239.45955
182.89781
146.14871
118.9904
100.49043
86.251666
75.245436
66.269786
58.861177
52.65636
47.413249
42.950994
39.123542
35.815547
32.94188
30.43121
28.223476
26.271125
24.534776
22.98468
21.595492
20.347937
19.226401
18.217138
17.306823
16.484554
15.741928
15.071867
14.468558
13.926611
13.441064
13.00697
12.619797
12.27603
11.972276
11.70406
11.467955
11.261305
11.081389
10.92478
10.788861
10.671377
10.57022
10.483338
10.40887
10.345279
10.291065
10.244898
10.205559
10.172077
10.144017
10.121947
10.106567
10.095527
10.08728
10.081795
10.078473
10.076079
10.073493
10.070467
10.067409
10.064495
10.06147
10.058114
10.054055
10.048994
10.043044
10.038802
10.035183
10.032249
10.032118
10.032092
10.017739
9.9970349
1215.0116
2228.1999
1034.2036
637.47118
443.99205
318.84753
237.77212
182.88525
145.50017
119.02529
100.23986
86.158668
75.056834
66.080826
58.646577
52.432782
47.183365
42.719847
38.895221
35.592277
32.725319
30.223293
28.02549
26.084203
24.359186
22.820633
21.44275
20.20593
19.094471
18.095032
17.19433
16.381186
15.647121
14.984948
14.388911
13.85367
13.374404
12.94628
12.564647
12.225858
11.92693
11.663335
11.431465
11.228585
11.052281
10.899058
10.766219
10.651503
10.552851
10.468253
10.395816
10.334047
10.281475
10.236802
10.19882
10.166532
10.139393
10.117852
10.102858
10.091643
10.083187
10.077433
10.073816
10.071097
10.068165
10.064796
10.061467
10.058498
10.055772
10.052955
10.049753
10.046321
10.042961
10.042094
10.039741
10.037706
10.037031
10.038093
10.017564
9.9944583
1251.3737
2237.6247
1023.5621
633.39283
439.20883
318.14661
235.30476
182.35637
144.44935
118.77052
99.798511
85.885875
74.727834
65.758389
58.316238
52.104675
46.859996
42.404372
38.590756
35.300193
32.446332
29.958617
27.775755
25.85007
24.140512
22.617291
21.254241
20.031467
18.933083
17.946169
17.057608
16.255958
15.532692
14.880491
14.293667
13.766911
13.295527
12.874848
12.500179
12.167604
11.874581
11.616604
11.389923
11.191602
11.019585
10.870356
10.741134
10.629645
10.533867
10.451868
10.381714
10.32196
10.271169
10.228087
10.191525
10.160473
10.134294
10.113253
10.09845
10.087021
10.07832
10.072278
10.068369
10.065358
10.062178
10.058653
10.055472
10.052751
10.050622
10.0493
10.048455
10.047354
10.047086
10.046532
10.044665
10.042748
10.042989
10.043115
10.019023
9.993063
1286.029
2253.4471
1014.0493
629.65048
434.35379
316.8078
232.26139
181.39446
143.07615
118.26317
99.209869
85.454256
74.276005
65.317874
57.882796
51.683749
46.453526
42.014007
38.218685
34.947118
32.11213
29.643858
27.480476
25.574377
23.884001
22.379527
21.034478
19.828744
18.74616
17.774213
16.900082
16.112061
15.401614
14.761266
14.185402
13.668737
13.206677
12.794731
12.428289
12.103053
11.816866
11.565337
11.344662
11.151566
10.984381
10.839625
10.714442
10.606536
10.513903
10.434729
10.367034
10.309424
10.260494
10.219045
10.183916
10.154099
10.128886
10.108318
10.093481
10.081846
10.072927
10.066664
10.062571
10.059403
10.056152
10.052711
10.050122
10.048584
10.047897
10.047759
10.048055
10.048826
10.049681
10.050182
10.049882
10.049222
10.049901
10.047211
10.020891
9.993391
1318.9134
2274.6275
1007.1544
626.02496
429.16272
314.82605
228.88817
180.03897
141.45447
117.5061
98.476201
84.858932
73.694046
64.755099
57.341945
51.166746
45.961294
41.546674
37.777116
34.531445
31.721348
29.277846
27.138736
25.255873
23.588535
22.106369
20.782618
19.597054
18.533149
17.578742
16.721452
15.949302
15.253798
14.627277
14.064203
13.559313
13.108092
12.706209
12.349271
12.032685
11.754283
11.51
11.296135
11.108938
10.947097
10.807256
10.686495
10.582496
10.493242
10.417084
10.351996
10.296633
10.249625
10.209836
10.176149
10.147563
10.123335
10.103283
10.088277
10.076501
10.067456
10.061108
10.057026
10.053947
10.050926
10.048331
10.046386
10.045155
10.045193
10.04601
10.047821
10.050231
10.052825
10.054967
10.056042
10.05653
10.057555
10.052545
10.023557
9.9958946
1350.0707
2300.3744
1002.6477
622.3611
424.38456
312.23655
225.88149
178.37133
139.90456
116.52767
97.613562
84.108129
72.985926
64.075714
56.697875
50.557088
45.385987
41.004669
37.267132
34.053819
31.274391
28.860781
26.750843
24.892823
23.252341
21.796119
20.497073
19.334952
18.292785
17.35866
16.520787
15.766901
15.088613
14.47803
13.929703
13.438386
12.999637
12.609241
12.263076
11.957105
11.68745
11.451162
11.244858
11.064307
10.908272
10.773721
10.657716
10.557907
10.472217
10.399226
10.336859
10.283826
10.238791
10.200684
10.168454
10.141116
10.117921
10.098493
10.083351
10.071544
10.062521
10.056247
10.052358
10.049603
10.046976
10.044899
10.043717
10.043351
10.044169
10.046132
10.049062
10.052728
10.056692
10.060227
10.062634
10.064289
10.065677
10.059123
10.02912
10.00034
1379.5946
2329.1698
1000.1986
618.34164
419.70022
309.02238
222.88956
176.48575
138.04775
115.33905
96.637314
83.213741
72.155764
63.284006
55.952758
49.854788
44.726539
40.386676
36.683945
33.508928
30.765915
28.38739
26.312142
24.487434
22.878002
21.45162
20.180805
19.045433
18.028069
17.11691
16.30093
15.567585
14.908663
14.316
13.784235
13.308141
12.883351
12.505754
12.17132
11.87601
11.616198
11.388712
11.190704
11.017994
10.86821
10.739272
10.628376
10.533006
10.451043
10.381338
10.321788
10.271162
10.228153
10.191763
10.161027
10.134991
10.112913
10.094319
10.079237
10.067519
10.058687
10.05268
10.049168
10.046876
10.044774
10.043345
10.042679
10.043296
10.04489
10.047597
10.051298
10.055819
10.060795
10.065505
10.069218
10.072114
10.073987
10.066798
10.03731
10.006805
1407.5641
2359.3359
997.66517
613.56059
414.80952
305.1258
219.53511
174.23874
135.97796
113.98081
95.545818
82.18096
71.200867
62.376166
55.101672
49.049677
43.971415
39.681488
36.027606
32.899048
30.199628
27.862232
25.826902
24.039572
22.465507
21.072869
19.833846
18.728582
17.739173
16.853739
16.062119
15.351631
14.714275
14.14155
13.628197
13.168997
12.759648
12.396148
12.074641
11.791166
11.542042
11.324014
11.134714
10.969696
10.826695
10.703681
10.598523
10.507829
10.429794
10.363473
10.306829
10.258691
10.217779
10.18316
10.153974
10.129323
10.108459
10.0909
10.076306
10.06486
10.056314
10.050685
10.047641
10.045884
10.044368
10.043566
10.043672
10.044747
10.046878
10.050017
10.054117
10.059113
10.064758
10.070422
10.075402
10.079643
10.082204
10.075225
10.047668
10.01449
1434.0951
2389.3349
990.07098
607.64445
408.56302
300.63151
215.08711
171.47698
133.95192
112.46552
94.319937
80.999848
70.108292
61.33151
54.122666
48.13749
43.122558
38.893649
35.296759
32.222761
29.574085
27.283892
25.294056
23.549297
22.015047
20.66011
19.456554
18.38485
17.426664
16.569852
15.804821
15.119526
14.505969
13.955231
13.462145
13.021503
12.629067
12.280915
11.97338
11.702605
11.465007
11.257185
11.077138
10.920382
10.784514
10.667508
10.567775
10.482028
10.408375
10.345536
10.291927
10.246373
10.207651
10.174877
10.147307
10.124112
10.104549
10.088156
10.074615
10.063661
10.055542
10.050358
10.047813
10.046544
10.045564
10.045305
10.04587
10.047341
10.049725
10.053004
10.057198
10.062355
10.068361
10.074735
10.080871
10.086519
10.090084
10.084165
10.059804
10.023061
1459.2723
2417.4147
980.93301
600.59247
400.54691
295.81977
210.14119
168.61902
131.90586
110.78516
92.934765
79.641541
68.842295
60.144733
53.019953
47.115401
42.176463
38.01976
34.489728
31.478716
28.888364
26.651771
24.713057
23.016105
21.526437
20.212948
19.048698
18.014175
17.090634
16.26566
15.52828
14.870562
14.283116
13.756494
13.285607
12.865235
12.491223
12.159699
11.867219
11.610053
11.384745
11.188424
11.018027
10.86987
10.741504
10.630808
10.536668
10.45591
10.386434
10.327226
10.276968
10.23414
10.197725
10.166884
10.140999
10.119351
10.101192
10.086052
10.07365
10.063752
10.056263
10.051521
10.049452
10.048559
10.04801
10.04813
10.048994
10.050643
10.053067
10.056268
10.060338
10.065423
10.07152
10.078316
10.085408
10.092417
10.097254
10.093369
10.073481
10.032077
1483.1748
2443.2111
967.58318
592.50552
390.80518
290.71949
205.23455
165.57194
129.80713
108.92758
91.32794
78.091117
67.4083
58.809844
51.786785
45.979012
41.129713
37.057031
33.603946
30.664784
28.140874
25.964823
24.082679
22.43911
20.999362
19.729547
18.608607
17.615114
16.729792
15.94044
15.236033
14.608261
14.049124
13.548629
13.101705
12.703097
12.348781
12.034898
11.758262
11.51536
11.302679
11.117309
10.957019
10.817826
10.697313
10.593584
10.505061
10.42944
10.36442
10.308856
10.261717
10.221933
10.187988
10.15919
10.135047
10.115002
10.098326
10.084511
10.073307
10.064495
10.057974
10.053825
10.052193
10.051552
10.051303
10.051652
10.052653
10.05432
10.056634
10.059626
10.063442
10.068291
10.074242
10.08114
10.08888
10.097165
10.103553
10.10228
10.087533
10.040924
1505.9171
2468.1582
949.72644
582.89039
380.17835
285.27395
200.34165
162.34841
127.61883
106.79487
89.482211
76.336316
65.79232
57.317174
50.415564
44.721778
39.976836
36.001214
32.636512
29.778102
27.329473
25.221887
23.399753
21.815338
20.431727
19.214358
18.141396
17.193188
16.349909
15.599426
14.93052
14.335059
13.805923
13.333328
12.911928
12.536356
12.202819
11.907422
11.64722
11.419062
11.219535
11.045653
10.895556
10.76545
10.652829
10.555619
10.472811
10.402365
10.342266
10.290594
10.246589
10.209595
10.178444
10.151846
10.129498
10.111075
10.095928
10.083485
10.07351
10.0658
10.060239
10.056859
10.05565
10.055155
10.055081
10.055533
10.056552
10.058133
10.060261
10.062986
10.066485
10.070981
10.076572
10.083243
10.091271
10.100691
10.108768
10.110469
10.101184
10.049327
1527.7446
2488.631
927.1845
573.01787
369.24693
279.53003
195.57886
158.88358
125.20288
104.39519
87.370014
74.358164
63.980125
55.654435
48.896134
43.336251
38.712721
34.847574
31.584335
28.813441
26.449371
24.419533
22.670514
21.152512
19.831316
18.671559
17.651454
16.752324
15.954723
15.24636
14.615796
14.054832
13.555758
13.112373
12.717726
12.366149
12.054212
11.77797
11.534621
11.321511
11.135345
10.97386
10.83398
10.712971
10.608456
10.518084
10.440937
10.375441
10.319816
10.272548
10.231847
10.19757
10.168961
10.144887
10.124426
10.107605
10.09399
10.08293
10.074183
10.067568
10.062942
10.060268
10.059475
10.059056
10.059055
10.059525
10.060491
10.06194
10.063862
10.066316
10.06947
10.073525
10.078575
10.08474
10.092708
10.1031
10.113129
10.117642
10.113656
10.057121
1548.781
2496.9177
900.03194
562.52711
358.03213
273.5112
190.92921
155.0504
122.48383
101.68026
84.95845
72.130517
61.952326
53.807366
47.218431
41.813953
37.331822
33.587922
30.440981
27.777165
25.510691
23.569053
21.901363
20.45744
19.204792
18.108552
17.146149
16.297952
15.548992
14.885332
14.29517
13.770874
13.30497
12.89134
12.524067
12.196888
11.906848
11.650026
11.423555
11.225498
11.052302
10.902068
10.772446
10.66046
10.564047
10.481169
10.40979
10.34922
10.297813
10.254572
10.217646
10.186142
10.159927
10.138176
10.119875
10.104641
10.092508
10.082811
10.075257
10.069699
10.065983
10.063977
10.063403
10.063018
10.063027
10.063467
10.064352
10.065667
10.0674
10.069602
10.072398
10.075938
10.080328
10.085834
10.09351
10.104663
10.116843
10.123512
10.123404
10.064169
1569.1846
2474.8664
869.00831
551.53756
346.57815
267.1236
186.08468
150.81491
119.34057
98.596969
82.209467
69.624528
59.689286
51.76288
45.3727
40.143038
35.824694
32.231493
29.220508
26.678698
24.523524
22.681319
21.103953
19.741782
18.561236
17.533185
16.633073
15.841509
15.14326
14.526092
13.977546
13.490508
13.057824
12.673851
12.333684
12.030779
11.762439
11.525028
11.31534
11.13215
10.971888
10.832672
10.712939
10.609698
10.520864
10.444771
10.379718
10.324079
10.27676
10.237291
10.203836
10.175473
10.151567
10.131999
10.115706
10.102224
10.091485
10.083097
10.07668
10.072107
10.069238
10.06791
10.067258
10.066883
10.066873
10.067268
10.068078
10.06928
10.070855
10.072822
10.075244
10.078224
10.081933
10.086811
10.094135
10.105776
10.120122
10.128661
10.129007
10.069008
1588.832
2430.194
836.88543
539.99691
334.89381
259.83441
181.10555
146.06629
115.65437
95.081731
79.083518
66.812145
57.172342
49.509967
43.3446
38.332914
34.210759
30.792282
27.938417
25.53567
23.505015
21.773313
20.291441
19.018055
17.917654
16.961372
16.125942
15.392404
14.745611
14.175104
13.668328
13.218461
12.818787
12.463753
12.148637
11.869373
11.622048
11.403635
11.211347
11.042536
10.894967
10.766404
10.656057
10.561271
10.479776
10.410029
10.350544
10.299948
10.257002
10.221077
10.190888
10.165414
10.144024
10.126472
10.112111
10.100336
10.090913
10.083757
10.078406
10.074743
10.072576
10.071648
10.070949
10.07056
10.070526
10.070887
10.071644
10.072764
10.074202
10.075932
10.077962
10.080389
10.083519
10.088014
10.095172
10.106946
10.122859
10.133563
10.128052
10.069552
1607.1753
2394.8789
804.16971
527.57825
322.8585
251.39441
175.7843
140.67816
111.31133
91.068407
75.543403
63.669689
54.380916
47.033006
41.157756
36.404971
32.513311
29.296227
26.619757
24.372186
22.474238
20.862964
19.487207
18.306686
17.288612
16.405631
15.635443
14.960044
14.364124
13.837777
13.371714
12.957862
12.590117
12.26346
11.973621
11.716735
11.489335
11.288469
11.111646
10.956647
10.821456
10.704069
10.602587
10.515766
10.441267
10.377602
10.323399
10.277457
10.238696
10.206141
10.179005
10.156285
10.137328
10.121642
10.10904
10.098818
10.090766
10.084754
10.080384
10.077556
10.076051
10.075128
10.074414
10.074006
10.073961
10.074311
10.075042
10.076099
10.077402
10.078875
10.080507
10.082466
10.085259
10.089771
10.097138
10.108674
10.124375
10.136288
10.127673
10.065316
1623.4545
2322.4865
769.91679
513.70858
309.70451
241.63481
169.79757
134.50451
106.20801
86.495277
71.561426
60.177027
51.331534
44.3789
38.848337
34.39796
30.770569
27.778583
25.292786
23.21369
21.462193
19.976992
18.710292
17.624299
16.688594
15.877925
15.171108
14.550561
14.004444
13.521859
13.094388
12.714704
12.377048
12.076813
11.810293
11.574244
11.365523
11.181259
11.019117
10.876911
10.752848
10.645357
10.553071
10.473628
10.405665
10.347705
10.298445
10.256751
10.221654
10.192608
10.168252
10.148019
10.131272
10.11753
10.106548
10.097763
10.090965
10.086029
10.082568
10.080431
10.079345
10.078357
10.077631
10.077215
10.077174
10.077533
10.078257
10.079253
10.080398
10.081594
10.08287
10.084544
10.087353
10.092307
10.100197
10.111191
10.124412
10.134248
10.121711
10.058178
1636.6777
2252.0326
733.07038
497.82207
295.78333
230.36105
162.66941
127.37413
100.26602
81.331419
67.131954
56.375432
48.08644
41.607259
36.476534
32.365488
29.029439
26.277089
23.998538
22.095171
20.493456
19.136162
17.978487
16.985398
16.129245
15.387501
14.739739
14.172519
13.672843
13.230747
12.839073
12.491053
12.181366
11.905675
11.660573
11.443388
11.251694
11.082579
10.933998
10.803822
10.690237
10.592325
10.507715
10.435144
10.373169
10.320481
10.275838
10.238186
10.206642
10.18046
10.158686
10.140711
10.125981
10.114029
10.104534
10.097069
10.091414
10.087461
10.084872
10.083397
10.082273
10.081323
10.080605
10.080199
10.080174
10.080551
10.081267
10.082182
10.083136
10.084053
10.085086
10.086757
10.089978
10.095735
10.104184
10.113829
10.122389
10.128427
10.107732
10.049307
1643.9681
2165.5989
693.47863
478.24335
280.80994
217.24313
153.92227
119.14595
93.485287
75.625639
62.340665
52.374459
44.743827
38.805637
34.117387
30.369691
27.336272
24.838711
22.770735
21.043922
19.590259
18.357616
17.305162
16.400844
15.619391
14.940762
14.348748
13.829743
13.372715
12.967486
12.608154
12.288733
12.004416
11.751195
11.525738
11.325458
11.149003
10.993401
10.856908
10.73772
10.634061
10.544228
10.466808
10.400441
10.343863
10.295919
10.255484
10.221416
10.193205
10.16968
10.150226
10.134263
10.121322
10.11103
10.102879
10.096615
10.092008
10.088908
10.087026
10.085899
10.084826
10.083954
10.083306
10.082949
10.08296
10.08335
10.084033
10.084828
10.085566
10.086266
10.087275
10.089317
10.093279
10.099693
10.108089
10.116809
10.122081
10.117462
10.092244
10.039781
1640.0324
2059.9592
650.5859
452.65841
264.58601
201.91789
143.31879
109.84658
86.020316
69.510034
57.375866
48.323576
41.42454
36.07052
31.849072
28.475228
25.745085
23.50104
21.639348
20.082483
18.769411
17.653772
16.699301
15.877437
15.165536
14.545615
14.003303
13.526814
13.106378
12.734071
12.403348
12.109116
11.847122
11.613874
11.406426
11.222252
11.059189
10.91544
10.789285
10.679185
10.58368
10.501267
10.43028
10.369529
10.317778
10.273978
10.237424
10.20674
10.181183
10.160074
10.142744
10.128593
10.117328
10.108369
10.10143
10.096235
10.092603
10.090249
10.088918
10.087758
10.086813
10.086071
10.085578
10.085345
10.085453
10.085874
10.086496
10.087134
10.087668
10.088282
10.089543
10.092295
10.097216
10.104169
10.111618
10.116115
10.117854
10.103828
10.075858
10.030801
1618.5059
1924.558
604.58584
420.379
247.10846
184.172
131.08926
99.808646
78.2252
63.312594
52.460258
44.389283
38.252796
33.495913
29.743842
26.738801
24.299936
22.296654
20.62832
19.22845
18.043739
17.033805
16.167143
15.418823
14.768859
14.201161
13.702933
13.26428
12.876527
12.532705
12.226796
11.954302
11.711413
11.495025
11.302525
11.131678
10.980515
10.847264
10.730307
10.628151
10.539484
10.463465
10.398101
10.342303
10.294944
10.254988
10.221493
10.193598
10.170421
10.151365
10.135984
10.123534
10.113616
10.10588
10.100023
10.095831
10.092991
10.091255
10.089958
10.088851
10.087979
10.087355
10.08703
10.087037
10.087355
10.087911
10.088524
10.089011
10.089441
10.090179
10.091988
10.095661
10.101443
10.108194
10.113955
10.117022
10.108802
10.088667
10.060159
10.023209
1570.4735
1759.4266
556.62351
382.15091
229.26937
164.27954
117.92622
89.662309
70.558577
57.35749
47.818467
40.732022
35.346044
31.167183
27.86348
25.207593
23.04093
21.250946
19.756029
18.495225
17.423179
16.505179
15.714237
15.029003
14.432268
13.909831
13.44926
13.042611
12.682179
12.36249
12.077548
11.823412
11.596668
11.394528
11.214636
11.054971
10.913752
10.789368
10.680335
10.585262
10.502844
10.431838
10.371048
10.319177
10.275225
10.2382
10.207256
10.181789
10.160745
10.143553
10.129652
10.118576
10.109897
10.103249
10.098416
10.09503
10.092858
10.09148
10.090122
10.089001
10.088132
10.087581
10.087388
10.087575
10.088093
10.088858
10.0897
10.090214
10.090904
10.091968
10.094577
10.099236
10.105574
10.112076
10.114792
10.114055
10.097913
10.073568
10.046255
10.017191
1487.783
1592.2216
507.68254
342.54531
205.34385
145.01995
104.77034
80.094642
63.474381
51.956891
43.665732
37.507234
32.815294
29.160549
26.256775
23.909346
21.982833
20.381086
19.03465
17.892611
16.916049
16.075359
15.347382
14.713759
14.159697
13.673127
13.244088
12.864312
12.527074
12.226771
11.958757
11.719379
11.50557
11.314806
11.144944
10.994133
10.860728
10.743225
10.64022
10.550383
10.472466
10.405353
10.348273
10.299625
10.258511
10.223986
10.195208
10.171412
10.151912
10.136055
10.123339
10.113325
10.105711
10.100036
10.096036
10.093423
10.091828
10.09042
10.089143
10.088009
10.087104
10.086591
10.086549
10.086865
10.087374
10.088003
10.089339
10.090891
10.092145
10.093732
10.097183
10.102696
10.108886
10.113869
10.116674
10.107575
10.086618
10.060014
10.03467
10.012496
1372.5302
1496.8165
461.6187
295.30722
181.51707
126.93072
92.876693
71.62056
57.343739
47.403005
40.219116
34.86521
30.763116
27.545377
24.969995
22.873104
21.14066
19.691167
18.464249
17.417761
16.518207
15.74008
15.063272
14.471718
13.952388
13.494619
13.089572
12.72995
12.40982
12.124698
11.86967
11.641544
11.437514
11.25528
11.092884
10.948628
10.821001
10.708617
10.610177
10.524439
10.450202
10.386286
10.331535
10.284973
10.245617
10.212584
10.185066
10.162361
10.143947
10.129014
10.117111
10.107802
10.100735
10.09561
10.092139
10.089991
10.088609
10.087279
10.086164
10.085201
10.084433
10.084088
10.084438
10.085139
10.086208
10.087832
10.089986
10.092038
10.093305
10.095533
10.099683
10.105667
10.112036
10.114591
10.116165
10.100427
10.076323
10.049065
10.025545
10.008712
1236.6245
1246.9471
421.41339
253.06902
159.36812
111.83645
83.029947
64.775332
52.499361
43.895471
37.629915
32.916973
29.271989
26.386536
24.056991
22.144848
20.553234
19.21274
18.072527
17.094568
16.249994
15.516368
14.875947
14.314417
13.82002
13.382967
12.995282
12.65025
12.342319
12.066897
11.820219
11.59915
11.401111
11.223946
11.065822
10.925146
10.800492
10.690555
10.594104
10.509982
10.437124
10.374728
10.321237
10.275757
10.237328
10.205083
10.178225
10.156033
10.137864
10.123153
10.111405
10.102206
10.095205
10.090098
10.086583
10.084303
10.082551
10.081077
10.079952
10.079187
10.079538
10.080512
10.081968
10.083731
10.085806
10.088319
10.091247
10.093824
10.094975
10.097612
10.10224
10.108009
10.113869
10.116333
10.112425
10.093894
10.068068
10.041255
10.019119
10.005346
1114.6361
1112.9359
388.76016
222.33451
142.78295
100.71346
75.727048
59.785974
49.035438
41.434097
35.841577
31.593739
28.277504
25.629533
23.474728
21.693164
20.200368
18.935417
17.853432
16.920707
16.111444
15.405524
14.786977
14.242987
13.763551
13.338467
12.960544
12.623449
12.321969
12.05176
11.809243
11.591464
11.395984
11.220769
11.064089
10.924444
10.80049
10.690988
10.594769
10.510706
10.437709
10.374717
10.320716
10.274721
10.235806
10.203109
10.175835
10.15326
10.134734
10.11968
10.1076
10.098073
10.090741
10.08527
10.081308
10.078345
10.075583
10.073617
10.072525
10.072813
10.074396
10.076429
10.078875
10.081602
10.084605
10.087986
10.091734
10.095058
10.096489
10.0996
10.105006
10.110836
10.115071
10.118049
10.109675
10.08932
10.062696
10.036524
10.015601
10.00311
1058.5729
1068.717
364.48418
205.19881
131.88709
93.134458
70.268819
55.812088
46.079815
39.187453
34.100009
30.217754
27.173709
24.732897
22.738975
21.084467
19.693424
18.510898
17.496313
16.619147
15.856022
15.1887
14.602661
14.08611
13.629284
13.224003
12.863325
12.541388
12.253255
11.9948
11.762603
11.553838
11.366175
11.197676
11.046708
10.911861
10.791885
10.685635
10.592032
10.510037
10.43864
10.376855
10.32372
10.278315
10.239763
10.207243
10.179998
10.157333
10.138622
10.123304
10.110886
10.100946
10.09313
10.087131
10.082656
10.079331
10.076298
10.073616
10.071758
10.071297
10.07229
10.074023
10.076166
10.078774
10.081708
10.085019
10.088694
10.092094
10.093478
10.09683
10.102551
10.108721
10.113776
10.117731
10.109065
10.087993
10.060827
10.034707
10.014227
10.002289
24607.364
41896.136
17137.958
3504.4521
953.32877
555.42351
425.26891
341.50078
278.03703
224.75971
185.46494
155.37958
132.81031
115.63789
102.09563
90.821474
81.242232
73.080384
66.088967
60.0461
54.778921
50.159106
46.086349
42.477683
39.269724
36.398409
33.819297
31.49296
29.388204
27.480568
25.749181
24.175443
22.743186
21.438217
20.249418
19.167316
18.183229
17.289352
16.478488
15.744096
15.080503
14.482052
13.943566
13.460407
13.028063
12.642275
12.299206
11.994888
11.72575
11.488558
11.28016
11.097577
10.937989
10.799
10.678148
10.57326
10.484105
10.409813
10.350563
10.303957
10.266319
10.235295
10.209517
10.189473
10.17578
10.164958
10.15497
10.145698
10.13723
10.125793
10.115731
10.08446
10.076582
10.070751
10.070051
10.072419
10.08817
10.044118
10.074648
10.076039
33667.625
25256.832
8996.6235
1641.5774
776.44237
492.27385
392.21049
308.188
250.78852
202.12993
169.16576
142.69881
123.26333
108.20218
96.088563
85.791751
77.023687
69.542185
63.102521
57.505656
52.605076
48.291159
44.475254
41.083392
38.055217
35.338538
32.89273
30.680825
28.675394
26.854453
25.198726
23.690996
22.316422
21.061997
19.917837
18.875203
17.926028
17.063078
16.279618
15.569545
14.927561
14.348246
13.826731
13.358631
12.939615
12.565616
12.232965
11.93779
11.676685
11.446541
11.244308
11.067105
10.912189
10.777237
10.659854
10.55776
10.470567
10.398047
10.340466
10.295353
10.259023
10.229072
10.204246
10.185162
10.17223
10.161848
10.152182
10.143163
10.134865
10.123299
10.113505
10.082922
10.076514
10.069381
10.070138
10.072694
10.08678
10.044953
10.076626
10.07593
38268.422
20502.073
6294.0182
1273.6613
742.06198
476.17852
379.67933
291.93466
240.99242
193.10655
163.06927
137.18224
119.06356
104.65503
93.057563
83.13838
74.737842
67.564528
61.378886
55.996045
51.279219
47.124302
43.446111
40.173662
37.247306
34.620895
32.254848
30.113018
28.169979
26.404579
24.79818
23.334217
21.99853
20.778711
19.665579
18.650725
17.726433
16.885807
16.122365
15.43027
14.804449
14.2396
13.731064
13.274604
12.865994
12.501297
12.176947
11.889126
11.634549
11.410188
11.213063
11.04036
10.889402
10.757924
10.643442
10.543882
10.458289
10.387223
10.331035
10.287224
10.252088
10.223132
10.199209
10.181018
10.168765
10.158787
10.149431
10.140654
10.132527
10.120792
10.111166
10.081394
10.075954
10.068131
10.070403
10.07311
10.085697
10.046581
10.078451
10.074762
41127.713
19011.417
4785.0681
1176.513
715.77729
451.72721
368.5035
278.36928
232.5376
184.55645
157.40602
131.9472
115.19189
101.32951
90.239851
80.676862
72.617708
65.722048
59.767705
54.580391
50.031239
46.021318
42.468861
39.305731
36.475311
33.930347
31.637709
29.561099
27.67655
25.96348
24.403838
22.981616
21.68324
20.496817
19.413812
18.426051
17.526146
16.707495
15.963844
15.289598
14.679883
14.129495
13.63398
13.189225
12.791101
12.435797
12.119842
11.839472
11.591521
11.373038
11.181107
11.012984
10.86612
10.738087
10.626581
10.529589
10.445809
10.37623
10.321463
10.278976
10.245062
10.217126
10.194136
10.176851
10.165266
10.155683
10.146635
10.1381
10.130151
10.118219
10.108713
10.079781
10.074893
10.067019
10.070594
10.073341
10.08476
10.048518
10.080327
10.072691
43361.882
17102.901
3820.6484
1126.0634
698.67998
436.24932
361.14718
268.37895
226.65399
178.11345
153.40684
127.9286
112.29287
98.722581
88.015793
78.708213
70.90795
64.218159
58.438164
53.400102
48.980556
45.083944
41.630756
38.554834
35.801215
33.325091
31.090918
29.06849
27.233085
25.564399
24.044789
22.658632
21.392786
20.235736
19.179461
18.2159
17.337938
16.539199
15.813598
15.155743
14.560911
14.023961
13.540616
13.106856
12.718627
12.372226
12.064263
11.791015
11.549427
11.336607
11.149698
10.986023
10.843098
10.718431
10.609834
10.515367
10.433494
10.36534
10.311955
10.270768
10.238065
10.211147
10.189099
10.172711
10.161763
10.15256
10.143815
10.135519
10.127746
10.11559
10.106209
10.078069
10.073462
10.065984
10.070769
10.073322
10.084073
10.050707
10.082309
10.070076
45037.38
14472.167
3236.0936
1098.0822
686.96897
424.1376
355.18304
260.44394
221.94866
172.76739
150.19004
124.51333
109.8737
96.479555
86.106358
77.008881
69.425834
62.905832
57.271519
52.358803
48.04858
44.247884
40.879069
37.877603
35.190027
32.772699
30.589923
28.614787
26.822469
25.193016
23.709039
22.355203
21.118711
19.988343
18.956516
18.015198
17.157532
16.37731
15.668588
15.026144
14.445375
13.921181
13.449448
13.026218
12.647503
12.309698
12.009476
11.743149
11.507769
11.300491
11.118521
10.959277
10.820136
10.698783
10.59307
10.50111
10.421266
10.354492
10.302473
10.262581
10.23108
10.205182
10.184085
10.16859
10.158252
10.149416
10.140968
10.132909
10.125297
10.112886
10.10367
10.076258
10.071814
10.06503
10.070851
10.073118
10.083539
10.053197
10.084645
10.067047
46154.48
11590.803
2911.6194
1081.6902
676.68865
414.52356
349.7986
253.91669
218.0725
168.48371
147.70876
121.64913
107.84355
94.539222
84.452173
75.529493
68.129881
61.751846
56.240469
51.433963
47.216777
43.497985
40.201486
37.264097
34.633578
32.267427
30.13115
28.196207
26.44165
24.846965
23.394788
22.069984
20.860028
19.753929
18.744481
17.823619
16.984729
16.221725
15.528778
14.900814
14.333319
13.821218
13.360549
12.947391
12.577812
12.248291
11.955556
11.695947
11.46662
11.264775
11.087713
10.93268
10.797269
10.679185
10.576326
10.486854
10.409143
10.3437
10.293036
10.254437
10.224126
10.199245
10.179107
10.164492
10.154736
10.146254
10.138099
10.130275
10.122785
10.110082
10.101097
10.074379
10.070114
10.064141
10.070807
10.072814
10.083138
10.055771
10.087117
10.063751
46595.925
8850.5597
2697.2091
1072.7767
668.13122