/*--------------------------------*- C++ -*----------------------------------*\
  =========                 |
  \\      /  F ield         | OpenFOAM: The Open Source CFD Toolbox
   \\    /   O peration     | Website:  https://openfoam.org
    \\  /    A nd           | Version:  12
     \\/     M anipulation  |
\*---------------------------------------------------------------------------*/
FoamFile
{
    format      ascii;
    class       volScalarField;
    location    "0.009";
    object      p;
}
// * * * * * * * * * * * * * * * * * * * * * * * * * * * * * * * * * * * * * //

dimensions      [1 -1 -2 0 0 0 0];

internalField   nonuniform List<scalar> 
16000
(
89381.848
89504.185
89516.465
89647.566
89673.396
89798.119
89847.251
89961.845
90033.762
90142.739
90232.715
90341.462
90445.356
90558.282
90673.054
90793.183
90917.304
91046.004
91179.157
91316.842
91459.061
91605.811
91757.066
91912.779
92072.876
92237.258
92405.795
92578.328
92754.663
92934.572
93117.795
93304.032
93492.951
93684.185
93877.334
94071.97
94267.636
94463.849
94660.107
94855.893
95050.679
95243.933
95435.131
95623.757
95809.316
95991.34
96169.395
96343.083
96512.038
96675.934
96834.486
96987.459
97134.677
97276.02
97411.423
97540.88
97664.447
97782.247
97894.469
98001.369
98103.251
98200.426
98293.128
98381.348
98464.473
98540.674
98606.33
98655.366
98677.866
98660.261
98587.787
98446.692
98234.805
97970.357
97670.501
97569.497
97092.765
97835.4
97698.49
98025.404
89060.363
89199.263
89209.179
89352.182
89379.58
89515.073
89566.422
89692.145
89767.75
89886.681
89982.895
90100.407
90212.417
90333.973
90457.726
90587.005
90720.62
90859.035
91002.159
91150.039
91302.661
91460.001
91622.008
91788.603
91959.679
92135.096
92314.681
92498.222
92685.472
92876.146
93069.918
93266.425
93465.268
93666.013
93868.193
94071.315
94274.859
94478.288
94681.054
94882.6
95082.374
95279.831
95474.441
95665.695
95853.109
96036.237
96214.674
96388.062
96556.087
96718.472
96874.987
97025.443
97169.704
97307.676
97439.302
97564.56
97683.454
97796.013
97902.276
98002.291
98096.103
98183.701
98264.955
98339.51
98406.592
98464.426
98509.462
98536.257
98537.019
98500.396
98415.488
98278.621
98093.864
97876.151
97674.189
97518.271
97303.361
97868.115
97681.846
98140.939
88775.419
88929.29
88938.929
89094.787
89122.001
89271.128
89324.061
89461.981
89542.284
89671.509
89775.211
89901.947
90023.074
90153.948
90287.494
90426.695
90570.573
90719.479
90873.345
91032.187
91195.97
91364.639
91538.106
91716.248
91898.909
92085.894
92276.968
92471.856
92670.241
92871.766
93076.03
93282.595
93490.987
93700.697
93911.185
94121.89
94332.23
94541.613
94749.446
94955.142
95158.132
95357.866
95553.818
95745.492
95932.425
96114.2
96290.447
96460.855
96625.159
96783.134
96934.595
97079.392
97217.409
97348.553
97472.744
97589.9
97699.929
97802.714
97898.097
97985.887
98065.855
98137.721
98201.104
98255.468
98300.162
98334.314
98355.933
98361.367
98346.985
98307.117
98235.786
98134.03
98010.212
97871.373
97748.244
97618.328
97552.918
97984.587
97696.182
98273.648
88517.331
88681.387
88692.092
88862.62
88889.081
89053.871
89108.497
89260.141
89345.6
89486.115
89598.173
89734.853
89866.073
90007.103
90151.393
90301.489
90456.632
90617.056
90782.698
90953.53
91129.479
91310.44
91496.269
91686.785
91881.766
92080.947
92284.019
92490.628
92700.376
92912.821
93127.479
93343.826
93561.304
93779.321
93997.261
94214.49
94430.364
94644.24
94855.487
95063.497
95267.691
95467.523
95662.483
95852.098
96035.935
96213.612
96384.809
96549.261
96706.753
96857.109
97000.183
97135.852
97264.009
97384.549
97497.351
97602.26
97699.077
97787.55
97867.365
97938.154
97999.528
98051.146
98092.757
98124.14
98145.233
98156.566
98159.342
98153.355
98138.984
98116.611
98088.118
98049.929
98006.043
97962.252
97916.768
97843.737
97855.859
98166.155
97759.559
98465.275
88270.509
88448.651
88456.824
88645.415
88670.572
88853.034
88909.213
89075.917
89167.137
89319.681
89441.329
89588.796
89731.455
89883.858
90040.213
90202.547
90370.278
90543.526
90722.201
90906.221
91095.457
91289.745
91488.877
91692.602
91900.621
92112.588
92328.107
92546.735
92767.979
92991.3
93216.115
93441.806
93667.718
93893.172
94117.471
94339.909
94559.784
94776.408
94989.126
95197.316
95400.405
95597.865
95789.215
95974.016
96151.885
96322.493
96485.576
96640.93
96788.397
96927.851
97059.188
97182.312
97297.134
97403.544
97501.401
97590.511
97670.624
97741.439
97802.623
97853.814
97894.685
97925.114
97945.414
97956.429
97959.348
97956.152
97951.244
97949.594
97954.682
97972.172
98004.904
98048.56
98095.669
98144.923
98174.495
98163.32
98217.431
98406.156
97895.706
98751.728
88027.08
88221.769
88227.148
88436.182
88459.379
88661.647
88719.01
88902.438
89000.788
89166.829
89300.203
89459.922
89615.833
89781.184
89951.113
90127.131
90308.809
90496.175
90689.111
90887.482
91091.106
91299.749
91513.132
91730.918
91952.718
92178.086
92406.521
92637.466
92870.314
93104.411
93339.059
93573.53
93807.065
94038.892
94268.232
94494.313
94716.385
94933.732
95145.687
95351.637
95551.032
95743.382
95928.256
96105.279
96274.136
96434.578
96586.421
96729.542
96863.858
96989.312
97105.86
97213.458
97312.063
97401.609
97481.996
97553.077
97614.665
97666.567
97708.623
97740.75
97763.012
97775.762
97779.973
97777.981
97773.171
97769.256
97771.595
97789.562
97830.761
97901.32
98002.306
98129.023
98269.725
98404.334
98502.661
98548.235
98627.234
98702
98133.352
99157.413
87789.861
88003.597
88005.599
88237.614
88257.986
88482.377
88541.743
88743.771
88851.492
89032.173
89179.135
89352.035
89522.453
89701.896
89886.539
90077.444
90274.299
90477.053
90685.543
90899.565
91118.856
91343.092
91571.89
91804.801
92041.312
92280.847
92522.766
92766.376
93010.928
93255.631
93499.658
93742.157
93982.265
94219.116
94451.861
94679.677
94901.786
95117.467
95326.069
95527.017
95719.815
95904.044
96079.36
96245.485
96402.213
96549.408
96687.004
96814.99
96933.393
97042.26
97141.643
97231.602
97312.195
97383.478
97445.489
97498.248
97541.767
97576.125
97601.5
97618.345
97627.47
97630.091
97627.89
97623.504
97622.976
97631.194
97656.275
97705.81
97789.909
97915.372
98083.39
98286.115
98506.127
98716.379
98878.471
98979.06
99075.99
99054.066
98487.741
99694.047
87560.858
87797.375
87794.745
88054.025
88071.58
88321.948
88385.588
88608.353
88726.291
88921.011
89082.703
89269.408
89455.534
89650.511
89851.456
90059.014
90272.897
90492.949
90718.915
90950.483
91187.272
91428.829
91674.627
91924.065
92176.471
92431.1
92687.147
92943.745
93199.987
93454.926
93707.596
93957.025
94202.247
94442.323
94676.354
94903.497
95122.98
95334.117
95536.316
95729.084
95912.03
96084.855
96247.352
96399.392
96540.925
96671.975
96792.636
96903.055
97003.414
97093.907
97174.742
97246.138
97308.332
97361.579
97406.164
97442.381
97470.573
97491.249
97504.973
97512.875
97516.389
97517.573
97519.631
97526.226
97540.787
97571.439
97625.268
97711.436
97838.594
98013.125
98235.781
98498.571
98782.939
99057.579
99281.622
99439.22
99552.521
99460.266
98970.062
100365.25
87342.025
87605.098
87596.743
87890.622
87904.674
88185.409
88252.375
88494.542
88624.996
88835.123
89014.729
89217.859
89422.525
89635.979
89856.12
90083.233
90316.999
90557.133
90803.26
91054.924
91311.587
91572.625
91837.327
92104.897
92374.461
92645.071
92915.721
93185.353
93452.881
93717.199
93977.206
94231.821
94480.006
94720.777
94953.232
95176.556
95390.042
95593.098
95785.257
95966.176
96135.634
96293.522
96439.831
96574.64
96698.109
96810.47
96912.024
97003.119
97084.135
97155.466
97217.525
97270.747
97315.606
97352.616
97382.349
97405.434
97422.707
97435.179
97444.134
97450.914
97457.374
97465.994
97480.138
97503.701
97541.596
97599.779
97685.177
97805.492
97968.313
98179.411
98440.204
98745.016
99077.868
99407.512
99692.299
99910.778
100046.72
99918.117
99572.129
101150.44
87139.417
87433.193
87419.714
87752.683
87762.372
88072.952
88145.022
88409.117
88558.649
88787.263
88989.143
89212.523
89439.47
89675.192
89918.191
90168.469
90425.616
90689.194
90958.658
91233.361
91512.557
91795.393
92080.922
92368.102
92655.814
92942.872
93228.041
93510.059
93787.658
94059.584
94324.626
94581.635
94829.546
95067.399
95294.357
95509.716
95712.919
95903.557
96081.376
96246.27
96398.27
96537.53
96664.304
96778.933
96881.831
96973.481
97054.424
97125.243
97186.547
97238.96
97283.135
97319.761
97349.574
97373.362
97392
97406.558
97418.136
97428.009
97437.8
97449.446
97465.321
97488.186
97520.614
97566.132
97629.108
97714.387
97827.523
97974.651
98162.082
98395.357
98677.657
99007.456
99373.895
99748.996
100092.36
100376.29
100547.21
100419.5
100276.86
101991.52
86960.906
87291.743
87274.613
87648.528
87654.608
87998.574
88084.717
88374.152
88547.462
88797.662
89026.234
89274.152
89527.57
89789.897
90059.99
90337.573
90622.072
90912.831
91209.065
91509.868
91814.21
92120.945
92428.824
92736.507
93042.587
93345.61
93644.105
93936.605
94221.685
94497.985
94764.242
95019.315
95262.208
95492.089
95708.301
95910.367
96097.993
96271.068
96429.654
96573.973
96704.387
96821.372
96925.496
97017.394
97097.761
97167.348
97226.948
97277.385
97319.503
97354.16
97382.249
97404.703
97422.513
97436.736
97448.494
97459.019
97469.795
97482.41
97498.619
97520.364
97549.745
97589.053
97640.855
97708.022
97793.702
97901.443
98035.298
98199.934
98400.661
98643.257
98933.288
99274.011
99660.503
100070.3
100466.49
100817.54
101041.57
100959.56
101067.75
102878.5
86818.843
87194.732
87173.261
87590.959
87601.115
87983.878
88090.183
88407.426
88611.499
88887.559
89148.049
89425.768
89710.602
90004.503
90306.464
90615.914
90932.022
91253.827
91580.21
91909.903
92241.507
92573.499
92904.263
93232.115
93555.332
93872.186
94180.983
94480.099
94768.019
95043.372
95304.964
95551.801
95783.109
95998.335
96197.158
96379.471
96545.378
96695.175
96829.333
96948.475
97053.343
97144.768
97223.64
97290.893
97347.495
97394.448
97432.781
97463.535
97487.757
97506.51
97520.883
97532.006
97541.055
97549.264
97557.937
97568.463
97582.333
97601.13
97626.521
97660.239
97704.077
97759.885
97829.558
97915.054
98018.472
98142.171
98288.954
98462.363
98667.113
98909.546
99197.593
99538.689
99933.106
100364.62
100803.69
101217.65
101512.41
101537.35
101921.52
103765.71
86730.456
87161.073
87134.064
87605.056
87625.433
88050.861
88183.653
88531.849
88773.806
89080.719
89378.543
89691.899
90013.671
90344.647
90683.706
91029.876
91381.922
91738.432
92097.824
92458.352
92818.15
93175.246
93527.611
93873.19
94209.954
94535.945
94849.328
95148.441
95431.835
95698.313
95946.951
96177.113
96388.45
96580.884
96754.591
96909.977
97047.652
97168.401
97273.155
97362.96
97438.939
97502.257
97554.098
97595.653
97628.124
97652.717
97670.642
97683.101
97691.29
97696.408
97699.67
97702.315
97705.605
97710.835
97719.334
97732.468
97751.63
97778.23
97813.666
97859.308
97916.47
97986.401
98070.289
98169.304
98284.683
98417.874
98570.794
98746.293
98948.867
99185.492
99465.785
99799.733
100191.06
100629.79
101097.03
101567.29
101951.7
102140.68
102795.95
104602.61
86710.928
87207.845
87177.023
87710.328
87743.895
88216.103
88384.431
88766.939
89054.821
89399.36
89741.105
90097.187
90462.523
90836.863
91218.683
91606.433
91998.294
92392.258
92786.146
93177.64
93564.326
93943.742
94313.435
94671.024
95014.269
95341.134
95649.849
95938.958
96207.356
96454.303
96679.425
96882.695
97064.406
97225.126
97365.662
97487.017
97590.352
97676.952
97748.193
97805.502
97850.321
97884.081
97908.188
97924.019
97932.933
97936.269
97935.34
97931.434
97925.814
97919.732
97914.436
97911.171
97911.176
97915.684
97925.921
97943.09
97968.362
98002.846
98047.57
98103.459
98171.318
98251.843
98345.642
98453.291
98575.414
98712.864
98867.051
99040.528
99237.849
99466.387
99736.204
100057.61
100435.74
100866.87
101345.94
101863.18
102346.18
102749.85
103654.8
105341.06
86768.475
87344.968
87311.645
87915.754
87971.109
88494.629
88710.831
89133.571
89477.059
89868.469
90262.406
90669.535
91085.81
91509.93
91939.71
92372.847
92806.779
93238.764
93665.912
94085.244
94493.769
94888.562
95266.858
95626.144
95964.242
96279.376
96570.217
96835.909
97076.064
97290.736
97480.38
97645.799
97788.074
97908.51
98008.578
98089.864
98154.038
98202.811
98237.909
98261.034
98273.842
98277.924
98274.804
98265.955
98252.801
98236.723
98219.053
98201.077
98184.04
98169.156
98157.612
98150.562
98149.119
98154.357
98167.294
98188.881
98219.985
98261.362
98313.644
98377.331
98452.799
98540.32
98640.106
98752.348
98877.307
99015.52
99168.218
99337.983
99529.523
99750.053
100008.5
100313.25
100669.43
101080.46
101557.9
102113.96
102704.64
103328.66
104430.97
105943.69
86914.281
87586.046
87553.457
88238.343
88326.96
88907.951
89187.102
89659.325
90069.624
90519.004
90974.303
91440.903
91914.941
92394.021
92875.076
93354.857
93829.876
94296.497
94751.024
95189.823
95609.444
96006.753
96379.047
96724.151
97040.473
97327.035
97583.459
97809.936
98007.158
98176.242
98318.646
98436.08
98530.429
98603.681
98657.878
98695.071
98717.297
98726.549
98724.752
98713.741
98695.25
98670.908
98642.252
98610.749
98577.797
98544.73
98512.813
98483.251
98457.19
98435.728
98419.909
98410.716
98409.064
98415.796
98431.667
98457.334
98493.338
98540.092
98597.878
98666.861
98747.112
98838.642
98941.436
99055.483
99180.878
99318.084
99468.424
99634.696
99821.588
100035.29
100282.05
100566.94
100895.16
101279.29
101749.74
102340.79
103036.41
103842.93
105056.23
106366.16
87156.878
87942.461
87916.741
88697.343
88837.041
89486.289
89846.425
90380.043
90868.702
91387.305
91912.512
92445.617
92982.241
93518.686
94050.663
94573.685
95083.121
95574.385
96043.108
96485.336
96897.687
97277.482
97622.822
97932.616
98206.557
98445.056
98649.157
98820.417
98960.797
99072.542
99158.076
99219.907
99260.561
99282.518
99288.187
99279.883
99259.813
99230.063
99192.589
99149.207
99101.596
99051.311
98999.807
98948.452
98898.539
98851.278
98807.798
98769.156
98736.339
98710.266
98691.782
98681.648
98680.54
98689.04
98707.624
98736.66
98776.392
98826.947
98888.348
98960.541
99043.43
99136.9
99240.835
99355.151
99479.942
99615.812
99764.368
99928.595
100112.62
100320.56
100555.04
100818.04
101117.03
101476.12
101943.51
102569.51
103349.72
104266.81
105461.25
106491.7
87514.486
88439.379
88433.746
89331.78
89542.02
90271.181
90730.381
91337.371
91914.611
92512.602
93114.705
93718.779
94319.046
94909.978
95485.642
96040.143
96567.858
97063.723
97523.459
97943.755
98322.359
98658.102
98950.841
99201.36
99411.221
99582.608
99718.164
99820.837
99893.745
99940.055
99962.896
99965.289
99950.102
99920.032
99877.596
99825.137
99764.824
99698.659
99628.471
99555.927
99482.546
99409.722
99338.752
99270.842
99207.113
99148.597
99096.239
99050.903
99013.377
98984.365
98964.482
98954.25
98954.096
98964.344
98985.216
99016.824
99059.182
99112.216
99175.793
99249.76
99333.956
99428.227
99532.431
99646.511
99770.72
99905.985
100054.25
100218.32
100400.9
100603.1
100824.29
101065.75
101340.88
101686.63
102163.31
102824.46
103654.85
104595.45
105624.8
106209.91
88023.296
89128.429
89154.77
90188.587
90487.502
91304.799
91881.942
92576.117
93251.859
93938.074
94620.935
95294.699
95951.315
96583.115
97182.711
97743.511
98260.041
98728.186
99145.303
99510.217
99823.119
100085.39
100299.36
100468.12
100595.25
100684.62
100740.25
100766.13
100766.12
100743.91
100702.91
100646.28
100576.89
100497.36
100410.07
100317.18
100220.66
100122.28
100023.62
99926.116
99831.061
99739.635
99652.927
99571.937
99497.579
99430.674
99371.958
99322.081
99281.612
99251.028
99230.713
99220.957
99221.953
99233.803
99256.515
99290.014
99334.155
99388.757
99453.63
99528.601
99613.509
99708.197
99812.548
99926.637
100051.04
100187.1
100336.89
100502.33
100683.78
100879.18
101086.44
101310.66
101574.94
101927.09
102428.49
103117.72
103938.44
104769.48
105534.47
105585.84
88717.245
90038.74
90109.209
91298.566
91719.996
92637.646
93354.768
94153.112
94935.141
95711.938
96468.986
97196.874
97885.523
98526.244
99111.933
99637.454
100099.74
100497.77
100832.32
101105.73
101321.49
101483.96
101598.03
101668.81
101701.48
101701.05
101672.29
101619.65
101547.19
101458.58
101357.11
101245.71
101126.96
101003.18
100876.42
100748.53
100621.14
100495.7
100373.53
100255.75
100143.41
100037.45
99938.73
99848.032
99766.043
99693.367
99630.522
99577.944
99535.985
99504.904
99484.872
99475.973
99478.208
99491.5
99515.705
99550.626
99596.042
99651.743
99717.548
99793.302
99878.859
99974.082
100078.95
100193.8
100319.65
100458.17
100611
100778.29
100957.5
101144.7
101339.69
101555.91
101828.74
102210.48
102745.33
103433.58
104183.81
104798.96
105136.16
104737.64
89619.785
91210.676
91363.522
92726.064
93316.675
94351.199
95225.727
96138.794
97021.335
97871.207
98672.252
99413.239
100084.73
100680.27
101196.41
101632.5
101990.38
102273.86
102488.17
102639.51
102734.56
102780.11
102782.83
102749.02
102684.55
102594.75
102484.41
102357.76
102218.54
102069.99
101914.93
101755.79
101594.71
101433.54
101273.92
101117.3
100964.95
100817.98
100677.38
100544.01
100418.66
100302.03
100194.75
100097.38
100010.4
99934.19
99869.074
99815.282
99772.966
99742.193
99722.955
99715.169
99718.69
99733.318
99758.815
99794.933
99841.438
99898.143
99964.898
100041.57
100128.02
100224.17
100330.22
100446.91
100575.69
100718.11
100874.59
101042.86
101218.06
101396.63
101584.68
101807.15
102109.48
102540.66
103110.59
103750.22
104329.37
104641.49
104465.64
103792.13
90814.649
92745.626
93026.336
94583.027
95390.533
96550.559
97577.251
98589.126
99534.423
100404.26
101184.61
101867.55
102449.21
102929.85
103313.04
103604.91
103813.33
103947.12
104015.45
104027.39
103991.53
103915.8
103807.36
103672.59
103517.05
103345.6
103162.38
102970.95
102774.33
102575.08
102375.36
102177
101981.6
101790.52
101604.98
101426.01
101254.54
101091.34
100937.11
100792.46
100657.93
100534.02
100421.16
100319.68
100229.87
100151.93
100086
100032.12
99990.271
99960.375
99942.277
99935.774
99940.625
99956.558
99983.299
100020.6
100068.25
100126.11
100194.05
100271.93
100359.64
100457.25
100565.32
100685.07
100818.08
100965.13
101124.56
101291.63
101461.03
101633.72
101826.05
102073.98
102423.32
102901.7
103478.44
104032.84
104371.64
104287.96
103685.11
102852.41
92433.264
94783.455
95247.734
96996.417
98055.555
99325.682
100451.12
101494.04
102416.37
103211.62
103875.36
104409.56
104820.71
105118.62
105315.09
105422.81
105454.47
105422.17
105337.02
105208.98
105046.77
104857.92
104648.86
104425
104190.92
103950.41
103706.64
103462.22
103219.31
102979.7
102744.85
102516.03
102294.29
102080.56
101875.64
101680.22
101494.89
101320.16
101156.46
101004.21
100863.73
100735.34
100619.27
100515.7
100424.72
100346.4
100280.69
100227.5
100186.68
100158.03
100141.28
100136.17
100142.4
100159.67
100187.71
100226.31
100275.3
100334.54
100403.92
100483.29
100572.63
100672.29
100783.3
100907.19
101045.14
101196.33
101356.7
101520.13
101683.78
101856.92
102067.62
102358.95
102766.96
103283.13
103821.01
104209.1
104264.93
103775.77
102889.28
102021.7
94664.809
97483.062
98193.173
100083.83
101355.6
102674.3
103780.5
104725.41
105495.74
106097.03
106540.19
106840.96
107017.22
107087.44
107069.33
106979.15
106831.29
106638.23
106410.49
106156.89
105884.73
105599.96
105307.45
105011.17
104714.29
104419.4
104128.58
103843.48
103565.43
103295.49
103034.56
102783.35
102542.49
102312.53
102093.93
101887.08
101692.33
101509.95
101340.19
101183.27
101039.37
100908.63
100791.14
100686.93
100595.97
100518.17
100453.37
100401.37
100361.9
100334.68
100319.38
100315.69
100323.31
100341.95
100371.37
100411.4
100461.88
100522.66
100593.59
100674.57
100765.82
100868.13
100982.93
101111.64
101254.28
101407.87
101566.38
101724.45
101885.28
102069.12
102313.71
102659.23
103119.09
103643.85
104097.74
104284.74
103997.06
103187.25
102162.02
101360.01
97759.551
100955.6
101973.06
103932.09
105244.87
106416.1
107335.66
108027.89
108510.42
108809.84
108954.11
108970.76
108884.95
108718.75
108490.86
108216.77
107909.13
107578.05
107231.62
106876.22
106516.85
106157.45
105801.08
105450.13
105106.46
104771.51
104446.37
104131.88
103828.67
103537.25
103258
102991.25
102737.3
102496.38
102268.71
102054.46
101853.76
101666.73
101493.46
101334.04
101188.53
101056.94
100939.24
100835.35
100745.13
100668.38
100604.85
100554.24
100516.22
100490.43
100476.52
100474.16
100483.07
100502.99
100533.76
100575.21
100627.16
100689.41
100761.77
100844.29
100937.61
101043.05
101162.22
101295.8
101441.88
101595.27
101749.48
101902.67
102066.3
102270.92
102560.2
102965.3
103464.13
103958.33
104269.32
104226.25
103607.9
102600.17
101561.31
100873.83
101967.69
105378.98
106599.46
108294.66
109424.18
110257.2
110792.83
111085.63
111180.24
111119.8
110940.85
110673.7
110342.7
109966.96
109561.34
109137.17
108703.1
108265.64
107829.66
107398.81
106975.8
106562.61
106160.72
105771.19
105394.76
105031.97
104683.16
104348.53
104028.21
103722.27
103430.76
103153.72
102891.19
102643.2
102409.79
102190.95
101986.68
101796.98
101621.83
101461.23
101315.14
101183.49
101066.15
100962.96
100873.7
100798.1
100735.82
100686.5
100649.73
100625.13
100612.3
100610.94
100620.78
100641.67
100673.5
100716.13
100769.35
100832.86
100906.44
100990.38
101085.82
101194.64
101318.38
101456.36
101604.14
101754.55
101902.62
102053.52
102229.03
102466.13
102802.51
103251.37
103763.92
104197.43
104357.18
104038.86
103180.9
102079.5
101105.71
100541.87
107215.13
110588.61
111712.55
112842.59
113456.38
113741.28
113761.89
113591.64
113284.65
112883.43
112419.58
111916.4
111390.82
110855.05
110317.79
109785.2
109261.61
108750
108252.41
107770.17
107304.15
106854.85
106422.54
106007.31
105609.13
105227.87
104863.37
104515.4
104183.74
103868.19
103568.55
103284.69
103016.47
102763.8
102526.58
102304.7
102098.06
101906.59
101730.21
101568.84
101422.38
101290.69
101173.61
101070.9
100982.29
100907.45
100845.99
100797.49
100761.48
100737.53
100725.24
100724.29
100734.5
100755.8
100788.2
100831.66
100885.94
100950.66
101025.55
101111.04
101208.65
101320.6
101448.26
101589.71
101738.34
101885.37
102027.65
102177.82
102368.65
102643.7
103030.53
103509.89
104003.07
104347.47
104350.69
103787.32
102780.59
101663.73
100785.54
100329.28
113451.1
115965.27
116579.43
116861.89
116768.05
116438.64
115953.15
115372.17
114736.36
114073.3
113401.3
112732.44
112074.56
111432.67
110809.85
110207.89
109627.73
109069.73
108533.88
108019.93
107527.49
107056.08
106605.19
106174.29
105762.84
105370.33
104996.26
104640.14
104301.55
103980.1
103675.48
103387.41
103115.68
102860.11
102620.5
102396.7
102188.56
101995.94
101818.74
101656.82
101510.06
101378.28
101261.27
101158.79
101070.51
100996.06
100935.03
100886.92
100851.25
100827.51
100815.28
100814.24
100824.28
100845.45
100877.93
100921.81
100976.92
101042.86
101119.33
101206.69
101306.41
101420.52
101549.89
101691.84
101839.16
101983.31
102123.24
102276.35
102481.2
102784.44
103209.05
103709.27
104169.95
104421.13
104275.09
103546.49
102458.94
101366.56
100578
100201.34
120085.34
120527.05
120310.15
119761.49
119029.82
118205.03
117343.19
116476.11
115622.35
114792.17
113991.06
113221.59
112484.66
111780.12
111107.25
110465.02
109852.23
109267.62
108709.94
108178
107670.65
107186.85
106725.61
106286.06
105867.36
105468.76
105089.57
104729.16
104386.96
104062.49
103755.36
103465.22
103191.79
102934.83
102694.11
102469.43
102260.59
102067.45
101889.85
101727.66
101580.71
101448.81
101331.75
101229.24
101140.95
101066.5
101005.43
100957.23
100921.36
100897.28
100884.53
100882.8
100892
100912.31
100944.03
100987.37
101042.22
101108.22
101185.1
101273.1
101373.38
101487.53
101615.8
101755.02
101898.15
102038.01
102175.94
102332.17
102547.39
102867.56
103311.56
103823.08
104261.2
104445.73
104194.85
103375.9
102253.75
101188.41
100458.92
100130.02
123958.6
123334.08
122419.48
121367.56
120282.69
119208.86
118168.76
117171.69
116221.15
115317.43
114459.28
113644.72
112871.44
112137.07
111439.27
110775.85
110144.75
109544.06
108972.06
108427.17
107907.97
107413.21
106941.72
106492.5
106064.61
105657.21
105269.55
104900.94
104550.77
104218.55
103903.82
103606.25
103325.54
103061.43
102813.69
102582.12
102366.53
102166.77
101982.7
101814.18
101661.07
101523.19
101400.32
101292.22
101198.55
101118.95
101052.96
101000.08
100959.76
100931.46
100914.7
100909.18
100914.82
100931.84
100960.6
101001.36
101054.06
101118.28
101193.68
101280.49
101379.86
101493.36
101621.15
101760.01
101902.98
102042.98
102181.31
102338.98
102558.88
102888.33
103351.4
103889.75
104324.52
104478.03
104195.68
103336.26
102189.64
101123.52
100409.6
100096.77
104610.87
104574.04
104578.37
104578.67
104551.59
104499.44
104429.65
104346.47
104247.82
104141.61
104029.73
103915.88
103799.1
103680.34
103559.62
103437.58
103314.53
103190.84
103066.86
102942.86
102819.13
102695.9
102573.38
102451.74
102331.16
102211.77
102093.71
101977.1
101862.04
101748.64
101637
101527.22
101419.39
101313.6
101209.92
101108.46
101009.28
100912.48
100818.14
100726.35
100637.21
100550.81
100467.24
100386.6
100308.98
100234.48
100163.21
100095.24
100030.69
99969.629
99912.118
99858.198
99807.877
99761.124
99717.866
99677.975
99641.266
99607.478
99576.249
99547.1
99519.458
99492.699
99466.151
99438.979
99409.959
99377.486
99339.448
99295.96
99244.706
99201.841
99143.202
99167.556
99101.374
99292.474
99346.22
99341.39
100040
98956.515
100246.58
99400.868
103715.92
103686.63
103655.57
103618.91
103577.84
103534.11
103479.95
103423.07
103358.94
103292.44
103220.13
103145.45
103066.53
102985.26
102900.87
102814.17
102725.15
102634.16
102541.39
102447.07
102351.42
102254.67
102157.01
102058.68
101959.88
101860.82
101761.69
101662.71
101564.07
101465.95
101368.54
101272.01
101176.54
101082.27
100989.38
100898.02
100808.32
100720.45
100634.55
100550.76
100469.22
100390.07
100313.45
100239.49
100168.32
100100.08
100034.89
99972.865
99914.116
99858.731
99806.775
99758.286
99713.268
99671.686
99633.464
99598.481
99566.56
99537.452
99510.805
99486.158
99462.969
99440.652
99418.533
99395.705
99370.791
99342.006
99307.169
99266.234
99217.01
99174.239
99116.468
99133.097
99074.824
99258.705
99303.775
99337.058
99974.258
98918.354
100283.76
99322.368
102732.4
102707.63
102682.47
102654.03
102623.51
102596.12
102561.95
102529.67
102490.91
102452.7
102408.98
102364.48
102315.5
102264.75
102210.48
102153.73
102094.12
102031.95
101967.28
101900.24
101830.99
101759.7
101686.53
101611.68
101535.34
101457.71
101379
101299.41
101219.17
101138.48
101057.55
100976.59
100895.82
100815.43
100735.63
100656.62
100578.6
100501.78
100426.33
100352.46
100280.36
100210.2
100142.16
100076.43
100013.16
99952.526
99894.677
99839.754
99787.877
99739.146
99693.635
99651.383
99612.4
99576.657
99544.09
99514.595
99488.012
99464.103
99442.531
99422.854
99404.562
99387.09
99369.74
99351.502
99330.848
99305.866
99274.379
99236.278
99189.362
99147.283
99089.49
99100.994
99045.963
99221.739
99263.124
99324.669
99911.699
98887.866
100314.59
99225.377
101837.15
101825.06
101815.61
101804.09
101788.01
101775.92
101756.18
101740.38
101717.56
101697.25
101671.07
101645.64
101615.69
101585.17
101551.32
101515.6
101477.21
101436.51
101393.39
101347.92
101300.14
101250.13
101197.98
101143.79
101087.69
101029.82
100970.33
100909.39
100847.17
100783.86
100719.64
100654.73
100589.33
100523.64
100457.89
100392.3
100327.09
100262.49
100198.71
100135.98
100074.53
100014.55
99956.28
99899.909
99845.64
99793.66
99744.143
99697.246
99653.104
99611.828
99573.497
99538.165
99505.852
99476.545
99450.202
99426.739
99406.015
99387.802
99371.771
99357.503
99344.514
99332.245
99319.946
99306.484
99290.195
99269.1
99241.099
99206.075
99161.766
99120.817
99062.85
99070.878
99015.45
99184.24
99221.5
99304.229
99854.597
98866.896
100338.75
99106.436
101054.57
101050.73
101048.66
101047.52
101040.81
101039.64
101030.09
101026.53
101015.13
101008
100994.35
100982.9
100966.67
100950.98
100932.13
100912.04
100889.56
100865.18
100838.66
100810.04
100779.33
100746.53
100711.66
100674.78
100635.93
100595.2
100552.68
100508.46
100462.69
100415.49
100367.03
100317.47
100266.99
100215.79
100164.07
100112.06
100059.96
100008
99956.421
99905.448
99855.316
99806.255
99758.493
99712.251
99667.744
99625.171
99584.718
99546.553
99510.819
99477.637
99447.098
99419.269
99394.189
99371.867
99352.283
99335.373
99321.004
99308.955
99298.904
99290.451
99283.131
99276.372
99269.346
99260.792
99248.94
99231.809
99207.436
99175.704
99134.276
99094.803
99036.957
99042.418
98984.358
99147.026
99177.757
99277.031
99802.919
98855.624
100361.06
98968.834
100375.16
100377.16
100378.96
100384.45
100383.37
100389.65
100386.29
100390.66
100386.08
100387.56
100382.14
100380.81
100374.2
100368.65
100359.97
100350.83
100339.72
100327.27
100313.13
100297.31
100279.76
100260.44
100239.34
100216.44
100191.76
100165.31
100137.14
100107.31
100075.89
100042.99
100008.7
99973.176
99936.549
99898.984
99860.66
99821.765
99782.501
99743.078
99703.715
99664.635
99626.065
99588.234
99551.366
99515.685
99481.403
99448.723
99417.833
99388.901
99362.079
99337.493
99315.248
99295.424
99278.079
99263.244
99250.917
99241.041
99233.485
99228.023
99224.341
99222.056
99220.711
99219.699
99218.099
99214.529
99207.161
99194.078
99173.481
99145.233
99106.914
99069.22
99011.98
99015.457
98953.587
99110.364
99131.906
99245.938
99755.793
98852.756
100384.31
98817.683
99777.529
99784.479
99788.441
99797.634
99798.561
99809.273
99809.048
99818.684
99818.284
99825.911
99825.453
99830.445
99829.818
99831.98
99831.02
99830.19
99827.586
99824.085
99819.26
99813.134
99805.651
99796.749
99786.395
99774.56
99761.228
99746.396
99730.076
99712.293
99693.09
99672.527
99650.679
99627.639
99603.515
99578.435
99552.538
99525.983
99498.938
99471.585
99444.118
99416.736
99389.646
99363.058
99337.183
99312.228
99288.395
99265.878
99244.858
99225.503
99207.963
99192.368
99178.833
99167.45
99158.291
99151.4
99146.776
99144.362
99144.013
99145.5
99148.513
99152.681
99157.543
99162.435
99166.338
99167.781
99164.938
99156.005
99139.351
99114.77
99079.751
99044.106
98988.003
98989.909
98923.727
99074.222
99084.227
99212.983
99711.314
98855.894
100406.04
98658.896
99240.474
99251.889
99256.203
99269.33
99271.811
99286.064