/*--------------------------------*- C++ -*----------------------------------*\
  =========                 |
  \\      /  F ield         | OpenFOAM: The Open Source CFD Toolbox
   \\    /   O peration     | Website:  https://openfoam.org
    \\  /    A nd           | Version:  12
     \\/     M anipulation  |
\*---------------------------------------------------------------------------*/
FoamFile
{
    format      ascii;
    class       surfaceScalarField;
    location    "0.009";
    object      phi;
}
// * * * * * * * * * * * * * * * * * * * * * * * * * * * * * * * * * * * * * //

dimensions      [1 0 -1 0 0 0 0];

internalField   nonuniform List<scalar> 
31760
(
-0.00063266543
-0.049944233
0.050584761
-0.0015799058
-0.063582506
0.064538396
-0.0025509681
-0.06210856
0.063086634
-0.0035571738
-0.067806
0.068821074
-0.0046129842
-0.069423623
0.070487014
-0.0056996391
-0.073644066
0.074739596
-0.0068530715
-0.076527261
0.077689496
-0.0080455183
-0.080488221
0.081690198
-0.0092984012
-0.08406325
0.085326122
-0.010608856
-0.088130976
0.08945192
-0.011973805
-0.092211994
0.093587897
-0.013404764
-0.096566139
0.098008527
-0.014896392
-0.10108169
0.10258525
-0.016456861
-0.10581976
0.10739268
-0.018085763
-0.1107695
0.11241138
-0.019787822
-0.11594732
0.11766292
-0.021565741
-0.12136131
0.12315334
-0.023422761
-0.12702285
0.12889458
-0.0253622
-0.13294295
0.13489771
-0.027387531
-0.1391329
0.14117418
-0.029502289
-0.14560506
0.14773641
-0.03171031
-0.15237146
0.15459674
-0.034015283
-0.15944564
0.16176853
-0.03642117
-0.16684132
0.16926578
-0.03893101
-0.17457292
0.17710198
-0.041549388
-0.1826545
0.18529272
-0.044280197
-0.19110211
0.19385333
-0.04712682
-0.19993215
0.20279971
-0.050092691
-0.20916126
0.2121485
-0.05318175
-0.21880718
0.22191795
-0.056397196
-0.22888842
0.2321258
-0.059742232
-0.23942439
0.24279144
-0.063219563
-0.25043609
0.25393538
-0.066832133
-0.26194426
0.26557856
-0.070581886
-0.27397255
0.27774363
-0.074470487
-0.28654496
0.29045429
-0.078499334
-0.29968701
0.30373579
-0.082669043
-0.31342636
0.31761496
-0.086979631
-0.32779105
0.33211923
-0.091430032
-0.34281271
0.34727908
-0.096018508
-0.35852331
0.3631258
-0.1007419
-0.37495688
0.37969193
-0.10559582
-0.39214965
0.39701246
-0.11057467
-0.41013961
0.41512414
-0.11567088
-0.42896721
0.43406543
-0.12087544
-0.44867413
0.45387664
-0.12617693
-0.46930539
0.47460038
-0.1315626
-0.49090757
0.49628189
-0.13701722
-0.51353107
0.51896905
-0.1425229
-0.53722815
0.54271139
-0.1480591
-0.56205388
0.5675613
-0.1536029
-0.58806711
0.59357524
-0.1591276
-0.61532923
0.62081079
-0.1646031
-0.6439051
0.64932929
-0.16999605
-0.67386279
0.6791953
-0.17526814
-0.70527484
0.71047594
-0.18037765
-0.73821694
0.7432428
-0.18527868
-0.77276945
0.77757092
-0.18992003
-0.80901814
0.81353911
-0.19424695
-0.84705433
0.85123258
-0.19819954
-0.88697626
0.890741
-0.20171341
-0.92888938
0.93216098
-0.20471812
-0.97290864
0.97559633
-0.20713585
-1.0191614
1.0211612
-0.20887805
-1.0677884
1.0689788
-0.20984114
-1.1189458
1.1191845
-0.20989594
-1.1728038
1.1719247
-0.20888525
-1.2295542
1.2273673
-0.20661273
-1.2894058
1.2856794
-0.20283281
-1.3525562
1.3470403
-0.19725504
-1.4192003
1.4116382
-0.18955196
-1.4894487
1.4796161
-0.17932503
-1.5633904
1.5510915
-0.16570352
-1.641151
1.6258222
-0.15029306
-1.7220637
1.7058838
-0.12664476
-1.8053948
1.7815252
-0.10724693
-1.8980363
1.8787048
-0.074191863
-1.9818434
1.950546
-0.044317554
-2.0886952
2.0569516
-2.1918598
2.1547479
-0.0006313901
-0.049303708
-0.0014826806
-0.062720757
-0.0023675749
-0.061213795
-0.0033165879
-0.066845298
-0.0042730404
-0.068456479
-0.0053042735
-0.072601673
-0.0063479108
-0.07547233
-0.0074719892
-0.079351974
-0.0086212909
-0.082901289
-0.0098442252
-0.086894711
-0.011109062
-0.090933228
-0.012440219
-0.095220447
-0.013827731
-0.099678999
-0.015280635
-0.10435103
-0.016799179
-0.10923445
-0.018387532
-0.11434176
-0.020047964
-0.11968295
-0.021784284
-0.12526787
-0.023599787
-0.13110803
-0.025498098
-0.13721439
-0.027482943
-0.14359923
-0.029557617
-0.15027501
-0.03172628
-0.15725441
-0.03399265
-0.16455159
-0.036361558
-0.17217989
-0.038835842
-0.18015537
-0.041420205
-0.18849223
-0.044118365
-0.19720788
-0.046934582
-0.20631843
-0.049872373
-0.2158424
-0.052935762
-0.22579783
-0.056128003
-0.2362049
-0.059452338
-0.24708468
-0.062911695
-0.25845822
-0.066508485
-0.27034972
-0.070245052
-0.28278328
-0.074122667
-0.29578551
-0.078142977
-0.30938372
-0.082305552
-0.32360805
-0.08661023
-0.3384899
-0.091055679
-0.35406244
-0.095639064
-0.37036124
-0.10035628
-0.38742385
-0.10520247
-0.40528906
-0.11017077
-0.42399935
-0.11525278
-0.44359795
-0.1204384
-0.46413155
-0.12571513
-0.48564914
-0.13106893
-0.50820277
-0.13648354
-0.53184701
-0.14194005
-0.55663974
-0.14741696
-0.58264253
-0.15288971
-0.60992002
-0.15833086
-0.63854027
-0.1637095
-0.66857534
-0.16899101
-0.70010223
-0.17413741
-0.73320111
-0.17910695
-0.76795778
-0.18385403
-0.80446429
-0.18833018
-0.84281821
-0.19248324
-0.88312618
-0.19625821
-0.92550257
-0.19959676
-0.9700727
-0.20243763
-1.0169734
-0.20471138
-1.0663606
-0.2063395
-1.1184083
-0.2072211
-1.1733081
-0.20722317
-1.2312589
-0.20616519
-1.2924988
-0.2038056
-1.357237
-0.19982621
-1.4256331
-0.19381875
-1.497833
-0.18523769
-1.5739356
-0.17361597
-1.6537849
-0.15859063
-1.7370036
-0.1386468
-1.8243676
-0.11812233
-1.9166356
-0.088849487
-2.0084308
-0.061729004
-2.1173781
-2.2257899
-0.00057146082
-0.048724166
-0.0013670098
-0.061915493
-0.002162675
-0.060409316
-0.0030591659
-0.065937558
-0.0039460072
-0.067558446
-0.00490825
-0.071628787
-0.0058691865
-0.074500739
-0.0069144015
-0.078295333
-0.0079776133
-0.08182635
-0.0091132441
-0.085746769
-0.010287843
-0.089745805
-0.011525591
-0.093969366
-0.012817527
-0.098373192
-0.014171911
-0.10298223
-0.015589438
-0.10780195
-0.017073662
-0.11284199
-0.018627909
-0.1181126
-0.020255089
-0.12362401
-0.02195944
-0.12938643
-0.023743764
-0.13541225
-0.025612545
-0.1417121
-0.027569313
-0.14829936
-0.02961799
-0.15518636
-0.031763385
-0.16238637
-0.034008843
-0.16991421
-0.036359601
-0.17778407
-0.03881917
-0.18601188
-0.041392625
-0.19461354
-0.044083542
-0.20360666
-0.046897033
-0.21300827
-0.049836189
-0.22283845
-0.052905272
-0.23311625
-0.056108027
-0.2438633
-0.059447093
-0.25510177
-0.062926025
-0.26685502
-0.066547003
-0.27914852
-0.070312326
-0.29200882
-0.074222632
-0.3054649
-0.078279093
-0.31954642
-0.082481386
-0.33428625
-0.086827943
-0.34971888
-0.091316869
-0.36588023
-0.095945029
-0.38280918
-0.10070723
-0.40054668
-0.10559773
-0.41913583
-0.11060878
-0.4386219
-0.11573134
-0.45905292
-0.12095367
-0.4804806
-0.1262635
-0.50295771
-0.13164557
-0.52654196
-0.13708228
-0.55129387
-0.14255492
-0.57727642
-0.14804111
-0.60455832
-0.15351612
-0.63321055
-0.15895236
-0.66330883
-0.16431914
-0.69493437
-0.16958303
-0.72817159
-0.17470651
-0.76311254
-0.17965087
-0.79985336
-0.18437337
-0.83849943
-0.18883019
-0.87916342
-0.19297513
-0.92196891
-0.19676206
-0.96704961
-0.2001429
-1.0145515
-0.20306534
-1.0646369
-0.20546637
-1.1174918
-0.20727244
-1.1733221
-0.20837211
-1.2323294
-0.20858871
-1.2947532
-0.20767179
-1.3608199
-0.2052833
-1.4306694
-0.20094579
-1.5044419
-0.19406344
-1.5822449
-0.18418697
-1.6639215
-0.17060739
-1.7494655
-0.15308518
-1.8395174
-0.13294899
-1.9334211
-0.10716836
-2.0307864
-0.082807735
-2.1428406
-2.2559011
-0.00051774619
-0.048201844
-0.0012601294
-0.0611668
-0.001985815
-0.059678445
-0.0028250185
-0.065091457
-0.0036424088
-0.066733392
-0.0045416483
-0.070722536
-0.0054276154
-0.073608034
-0.0064018554
-0.077313816
-0.0073872172
-0.080833902
-0.0084451937
-0.084681318
-0.0095394856
-0.088643778
-0.010694435
-0.09280647
-0.011901899
-0.097157557
-0.013168992
-0.10170677
-0.014497266
-0.10646515
-0.015890359
-0.11144024
-0.017351492
-0.11664271
-0.018883998
-0.12208268
-0.020491354
-0.12777025
-0.022177931
-0.13371688
-0.023946981
-0.13993435
-0.025803636
-0.14643416
-0.027751915
-0.15322977
-0.029795912
-0.1603344
-0.031940875
-0.16776172
-0.034190845
-0.17552714
-0.036550923
-0.18364559
-0.039025489
-0.19213367
-0.041620001
-0.20100798
-0.044337816
-0.21028767
-0.047184017
-0.21999113
-0.050162906
-0.23013826
-0.053278114
-0.24075137
-0.056533458
-0.25185251
-0.059932303
-0.26346553
-0.0634771
-0.27561688
-0.067170095
-0.28833335
-0.071013271
-0.3016442
-0.075007088
-0.31558064
-0.079151723
-0.33017585
-0.08344673
-0.34546497
-0.087889645
-0.36148604
-0.092477918
-0.37827815
-0.097207496
-0.39588388
-0.10207279
-0.41434801
-0.10706762
-0.43371653
-0.11218257
-0.45404075
-0.11740898
-0.47537176
-0.12273442
-0.49776632
-0.12814581
-0.52128314
-0.13362822
-0.54598492
-0.13916397
-0.57193787
-0.14473406
-0.59921264
-0.1503172
-0.62788327
-0.15588843
-0.65803017
-0.16142224
-0.68973646
-0.16688907
-0.72309229
-0.1722576
-0.75819382
-0.17749441
-0.79514226
-0.18256389
-0.83404859
-0.18742922
-0.87503055
-0.19205251
-0.91821785
-0.19639616
-0.96375105
-0.20042319
-1.0117842
-0.20409575
-1.0624812
-0.20736801
-1.1160215
-0.21016807
-1.1726272
-0.21241324
-1.232502
-0.21393756
-1.2958581
-0.21449399
-1.3629216
-0.2136985
-1.4338918
-0.21102197
-1.5089188
-0.20597782
-1.5880909
-0.19799181
-1.6714
-0.18639976
-1.75897
-0.1711696
-1.8511302
-0.15251175
-1.9474996
-0.12979246
-2.0493804
-0.10831453
-2.164687
-2.2818355
-0.00046088048
-0.047741235
-0.0011627049
-0.060463708
-0.001818395
-0.059022762
-0.002604034
-0.064306285
-0.0033440018
-0.065993511
-0.0041906306
-0.069874867
-0.0050126955
-0.072785352
-0.0059257081
-0.076400063
-0.0068448596
-0.079915032
-0.0078351163
-0.083691239
-0.0088600066
-0.087619282
-0.0099423619
-0.091724826
-0.01107617
-0.096024824
-0.012267512
-0.10051695
-0.01351881
-0.10521587
-0.014833231
-0.11012841
-0.016214627
-0.11526455
-0.017666893
-0.12063438
-0.019193845
-0.12624806
-0.020799641
-0.13211676
-0.022489103
-0.13825157
-0.024265701
-0.14466538
-0.02613503
-0.15136955
-0.028101759
-0.15837822
-0.030170476
-0.16570519
-0.032346501
-0.17336515
-0.034635067
-0.18137313
-0.037041127
-0.18974607
-0.039569599
-0.19850062
-0.04222566
-0.20765571
-0.045014142
-0.21723014
-0.047939475
-0.22724423
-0.051005967
-0.23772048
-0.054217933
-0.248681
-0.057578525
-0.26015085
-0.061090846
-0.27215658
-0.06475745
-0.28472559
-0.06858032
-0.29788774
-0.072560325
-0.31167538
-0.076697992
-0.32612206
-0.080992466
-0.34126438
-0.085442816
-0.35714055
-0.090046103
-0.37379185
-0.094799059
-0.39126139
-0.099697673
-0.40959487
-0.10473541
-0.42884096
-0.10990545
-0.44905141
-0.11519908
-0.4702794
-0.12060609
-0.49258348
-0.12611565
-0.5160234
-0.13171424
-0.54066504
-0.13738762
-0.56657583
-0.14311933
-0.5938294
-0.14889106
-0.62250245
-0.15468305
-0.65267792
-0.16047296
-0.68444285
-0.16623612
-0.7178912
-0.17194735
-0.75312166
-0.17757821
-0.79024093
-0.18309977
-0.82936301
-0.18848145
-0.87060999
-0.19369251
-0.91411324
-0.19870065
-0.96001541
-0.20347445
-1.0084752
-0.20798461
-1.0596617
-0.2121975
-1.1137478
-0.21605568
-1.1709273
-0.21947065
-1.2314361
-0.22231285
-1.2954724
-0.22434212
-1.3632483
-0.22519489
-1.43502
-0.22438498
-1.5110049
-0.2213712
-1.5912608
-0.2154964
-1.6760025
-0.20624821
-1.7653613
-0.193457
-1.8595238
-0.17715872
-1.9583551
-0.15761036
-2.0641222
-0.13889097
-2.1824716
-2.303462
-0.00040271571
-0.047344962
-0.0010663194
-0.059805443
-0.0016582935
-0.05843772
-0.0023957917
-0.0635752
-0.0030694478
-0.065329159
-0.0038679733
-0.069083253
-0.0046393231
-0.072021324
-0.0054968121
-0.075550743
-0.0063612421
-0.079059842
-0.0072902297
-0.082772298
-0.0082541965
-0.08666624
-0.0092732571
-0.090717727
-0.010344192
-0.094966912
-0.011471942
-0.099403409
-0.012659511
-0.10404375
-0.013910916
-0.10889382
-0.015229706
-0.11396401
-0.016619826
-0.1192641
-0.018085764
-0.12480367
-0.019631545
-0.13059441
-0.021262236
-0.13664637
-0.022982665
-0.14297272
-0.024797949
-0.14958452
-0.026713203
-0.15649596
-0.028734014
-0.16372037
-0.030866187
-0.17127226
-0.033114439
-0.17916777
-0.03548505
-0.18742233
-0.037983279
-0.19605362
-0.040614469
-0.20508054
-0.04338415
-0.21452175
-0.046296855
-0.22439862
-0.04935792
-0.23473292
-0.052570627
-0.24554887
-0.055939464
-0.25687039
-0.059467788
-0.26872523
-0.063157857
-0.28114192
-0.067011744
-0.29415058
-0.071031113
-0.30778397
-0.075216205
-0.32207715
-0.079567145
-0.33706691
-0.08408228
-0.35279338
-0.088760332
-0.36929766
-0.093598618
-0.38662449
-0.09859271
-0.40482154
-0.10373815
-0.4239377
-0.10902979
-0.44402559
-0.11445943
-0.46514172
-0.1200199
-0.48734393
-0.12570083
-0.51069564
-0.13149288
-0.53526216
-0.13738371
-0.5611145
-0.14336029
-0.58832755
-0.14940804
-0.61698034
-0.15551075
-0.6471582
-0.16165058
-0.67895062
-0.1678088
-0.7124535
-0.17396381
-0.74776952
-0.18009306
-0.78500679
-0.1861716
-0.82428261
-0.1921749
-0.86572068
-0.19807715
-0.90945424
-0.20385223
-0.9556216
-0.20946919
-1.0043746
-0.21489816
-1.0558889
-0.2201148
-1.1103447
-0.2250748
-1.1679182
-0.22970936
-1.2288154
-0.23389744
-1.2932833
-0.23744336
-1.3615487
-0.24003256
-1.4338698
-0.24122312
-1.5105089
-0.24045294
-1.5917011
-0.23710767
-1.6776655
-0.23062723
-1.7685766
-0.22069265
-1.8645533
-0.20729839
-1.9657243
-0.1911336
-2.0748261
-0.17527248
-2.1959217
-2.3205574
-0.0003529422
-0.047005078
-0.00098709565
-0.059183852
-0.0015236208
-0.0579155
-0.0022207612
-0.062890834
-0.0028400048
-0.064726334
-0.0035965499
-0.068342695
-0.004312434
-0.071322469
-0.0051211593
-0.074761078
-0.0059329086
-0.078267367
-0.0068115922
-0.081914786
-0.0077283851
-0.085772046
-0.0086990461
-0.089771253
-0.0097230507
-0.093968727
-0.010804177
-0.098349898
-0.011946218
-0.10293121
-0.013152499
-0.10771913
-0.014427675
-0.11272265
-0.015775748
-0.11795231
-0.017201389
-0.12341696
-0.018709945
-0.12912771
-0.020305947
-0.13509537
-0.021995581
-0.14133153
-0.023784013
-0.14784824
-0.025676939
-0.15465922
-0.027680672
-0.16177716
-0.029800864
-0.16921732
-0.03204436
-0.17699462
-0.03441673
-0.18512584
-0.036923675
-0.19362854
-0.039571784
-0.2025208
-0.042366039
-0.21182291
-0.045312017
-0.22155575
-0.048414386
-0.23174201
-0.051678276
-0.24240555
-0.055106787
-0.25357239
-0.058703654
-0.2652697
-0.062472079
-0.27752661
-0.06641388
-0.29037467
-0.070530349
-0.30384722
-0.074822357
-0.31797982
-0.079290166
-0.33280996
-0.08393295
-0.34837903
-0.088749704
-0.3647285
-0.093737952
-0.38190482
-0.09889552
-0.39995555
-0.10421863
-0.41893139
-0.10970261
-0.43888605
-0.11534278
-0.45987627
-0.12113218
-0.48196254
-0.12706463
-0.50520785
-0.13313169
-0.52968022
-0.13932489
-0.555451
-0.14563486
-0.58259641
-0.15205027
-0.61119777
-0.15855923
-0.64134108
-0.16514764
-0.67311775
-0.17180116
-0.70662481
-0.17850324
-0.74196689
-0.18523565
-0.77925258
-0.19197858
-0.81859907
-0.19870898
-0.86013126
-0.20540341
-0.9039832
-0.21203911
-0.95029688
-0.21859202
-0.99921493
-0.22502936
-1.050891
-0.23132549
-1.1055122
-0.23745306
-1.1632757
-0.2433639
-1.2243781
-0.24897393
-1.2890653
-0.2541388
-1.3575958
-0.25861619
-1.4302663
-0.26202055
-1.5074025
-0.26382283
-1.5893101
-0.26340665
-1.6762685
-0.26010531
-1.7684923
-0.25348514
-1.8660656
-0.24355636
-1.9693138
-0.23112553
-2.0811719
-0.21816001
-2.204523
-2.3331337
-0.00031071325
-0.046713499
-0.00092466873
-0.058589196
-0.0014146293
-0.057446796
-0.0020773893
-0.062248862
-0.0026456247
-0.06418025
-0.0033649249
-0.067647192
-0.00402661
-0.070688167
-0.0047882611
-0.074028446
-0.005567219
-0.077518127
-0.006412889
-0.08110038
-0.0072995572
-0.084918437
-0.0082381811
-0.088867724
-0.0092311814
-0.093012949
-0.010281893
-0.097338808
-0.011394615
-0.10186066
-0.012573939
-0.10658481
-0.013823755
-0.11152087
-0.015150068
-0.11667736
-0.016557654
-0.12206429
-0.018052219
-0.12769193
-0.019639547
-0.13357095
-0.021325666
-0.13971278
-0.023116833
-0.14612919
-0.025020303
-0.152833
-0.027041522
-0.15983867
-0.029187986
-0.16715949
-0.031465812
-0.17481175
-0.033881848
-0.18281156
-0.036442579
-0.19117686
-0.039154084
-0.19992622
-0.042022087
-0.2090803
-0.045052356
-0.21866
-0.04825004
-0.22868872
-0.051619262
-0.23919139
-0.055164334
-0.25019392
-0.058888881
-0.26172425
-0.062795237
-0.27381284
-0.066885861
-0.2864912
-0.071162331
-0.29979361
-0.075625543
-0.31375638
-0.080275752
-0.32841775
-0.085113488
-0.34381899
-0.090137364
-0.36000365
-0.095346626
-0.37701774
-0.10073968
-0.39490985
-0.10631414
-0.4137316
-0.11206735
-0.43353709
-0.11799603
-0.45438388
-0.1240962
-0.47633338
-0.13036349
-0.49944921
-0.13679325
-0.52379983
-0.14337939
-0.54945813
-0.15011587
-0.57650023
-0.1569954
-0.60500853
-0.16400975
-0.63506906
-0.17114905
-0.66677364
-0.17840254
-0.7002211
-0.18575754
-0.73551578
-0.19320039
-0.77276726
-0.20071452
-0.81209158
-0.20828069
-0.85361
-0.21587743
-0.8974521
-0.22347853
-0.94375799
-0.2310625
-0.99268003
-0.2386097
-1.0443777
-0.24609168
-1.0990166
-0.25349248
-1.1567942
-0.26078671
-1.2179239
-0.26793895
-1.2826611
-0.27487381
-1.3512855
-0.28141985
-1.4241416
-0.28728541
-1.5015867
-0.29198487
-1.5840005
-0.29487401
-1.6717084
-0.29521304
-1.7649492
-0.29246261
-1.8638187
-0.28654297
-1.9688412
-0.27824309
-2.0828673
-0.26841561
-2.2081275
-2.340558
-0.00027012606
-0.046467125
-0.00086833438
-0.058015349
-0.0013133072
-0.057028456
-0.0019461544
-0.061643103
-0.0024770579
-0.063678493
-0.0031569821
-0.066997477
-0.0038014502
-0.070077688
-0.0045594338
-0.073303869
-0.0053206135
-0.076793487
-0.0061398776
-0.080319837
-0.0070045022
-0.084094929
-0.0079209036
-0.08799505
-0.0088941374
-0.092086191
-0.0099277406
-0.096354685
-0.011026783
-0.10081428
-0.012196168
-0.10547158
-0.013441493
-0.11033538
-0.014768206
-0.11541448
-0.016182224
-0.12071833
-0.017690326
-0.12625643
-0.019298465
-0.13204022
-0.021014171
-0.13807966
-0.022843747
-0.14438768
-0.024794598
-0.15097609
-0.026874246
-0.15785923
-0.029089502
-0.16505113
-0.031447864
-0.17256742
-0.033956229
-0.18042486
-0.036621034
-0.18864187
-0.039449123
-0.19723666
-0.042446583
-0.2062307
-0.045618549
-0.21564591
-0.048969977
-0.22550589
-0.052505792
-0.23583573
-0.056229813
-0.24666247
-0.060145008
-0.258015
-0.064254489
-0.26992369
-0.068560419
-0.28242106
-0.073064181
-0.29554224
-0.077767264
-0.30932349
-0.082670169
-0.32380412
-0.087773197
-0.33902571
-0.09307683
-0.35503176
-0.098581301
-0.37186866
-0.10428591
-0.38958602
-0.11019024
-0.40823521
-0.11629325
-0.42787098
-0.12259388
-0.44855096
-0.12909087
-0.47033676
-0.13578221
-0.49329281
-0.14266625
-0.51748703
-0.14974057
-0.54299278
-0.15700194
-0.56988644
-0.16444708
-0.59824965
-0.17207119
-0.62816894
-0.17986869
-0.65973642
-0.18783272
-0.69305003
-0.19595481
-0.72821135
-0.20422238
-0.76533009
-0.21262189
-0.80452299
-0.22113815
-0.84591271
-0.22975228
-0.88962813
-0.2384427
-0.93580495
-0.24718851
-0.98459142
-0.25597063
-1.0361475
-0.26477451
-1.09065
-0.27359572
-1.1482953
-0.28243607
-1.2093091
-0.29130506
-1.2739547
-0.30018839
-1.3425353
-0.30901709
-1.4154112
-0.31758628
-1.4929784
-0.32548861
-1.5756582
-0.33207565
-1.6638272
-0.33655091
-1.7577424
-0.33825344
-1.8575479
-0.33695276
-1.9639464
-0.33322733
-2.0794764
-0.32687488
-2.2064026
-2.3432637
-0.00023374328
-0.046260461
-0.00082205717
-0.057455018
-0.0012307213
-0.056650209
-0.0018391053
-0.061066133
-0.0023565958
-0.063194543
-0.0030429032
-0.066346029
-0.0036848747
-0.069471559
-0.0044303376
-0.072596622
-0.0051771962
-0.07608845
-0.0059791829
-0.079562306
-0.0068332319
-0.083288044
-0.0077418283
-0.087136635
-0.0087119097
-0.09116943
-0.0097473836
-0.095375977
-0.010853811
-0.099768204
-0.012036936
-0.10435268
-0.013302821
-0.10913778
-0.014658136
-0.11413181
-0.01610952
-0.11934416
-0.017663684
-0.1247844
-0.01932911
-0.1304621
-0.021112264
-0.13638934
-0.023021906
-0.14257672
-0.025065335
-0.1490376
-0.027250323
-0.15578579
-0.029584991
-0.16283507
-0.032076718
-0.17020177
-0.034732537
-0.17790308
-0.037559865
-0.18595704
-0.040564776
-0.19438326
-0.043752937
-0.20320363
-0.047130136
-0.21244003
-0.05070094
-0.22211734
-0.054469741
-0.23226087
-0.058440037
-0.24289864
-0.062614913
-0.25406001
-0.066996899
-0.26577598
-0.071588041
-0.2780796
-0.076390453
-0.29100594
-0.081405236
-0.30459233
-0.086633787
-0.31887781
-0.092077469
-0.33390405
-0.097737476
-0.34971479
-0.10361466
-0.36635678
-0.10971078
-0.38387872
-0.11602727
-0.40233221
-0.12256504
-0.42177238
-0.12932555
-0.44225617
-0.13631012
-0.46384516
-0.14352021
-0.48660334
-0.15095641
-0.51059904
-0.15862032
-0.53590395
-0.16651174
-0.56259522
-0.17463036
-0.59075346
-0.18297596
-0.62046489
-0.19154751
-0.65182171
-0.20034023
-0.68491894
-0.20934869
-0.71985864
-0.21856565
-0.7567489
-0.22798073
-0.7957039
-0.2375799
-0.83684508
-0.24734804
-0.88030244
-0.25727069
-0.92621695
-0.26733122
-0.97473651
-0.27751602
-1.0260241
-0.2878208
-1.0802594
-0.2982553
-1.1376455
-0.30884996
-1.1984135
-0.31965076
-1.2628384
-0.33070985
-1.3312295
-0.3420425
-1.4039569
-0.35354303
-1.4814432
-0.36491009
-1.5641268
-0.37554802
-1.6524297
-0.38466067
-1.7466371
-0.39145276
-1.8469563
-0.39544825
-1.9542221
-0.39664936
-2.0706958
-0.39387639
-2.1993781
-2.3410232
-0.00020209963
-0.046087545
-0.00078812909
-0.056899228
-0.0011781713
-0.056292828
-0.0017957969
-0.060482434
-0.0023177991
-0.062708458
-0.0030078425
-0.065695217
-0.0036445514
-0.068875485
-0.0043636751
-0.071921001
-0.0051143492
-0.075383131
-0.0059183979
-0.078806427
-0.0067812926
-0.082476222
-0.0077031103
-0.086269062
-0.0086922207
-0.090237849
-0.0097534595
-0.094375825
-0.010893327
-0.098693111
-0.012118523
-0.10319624
-0.013436046
-0.10789314
-0.014853201
-0.11279199
-0.016378247
-0.1179011
-0.018019081
-0.12323052
-0.019783839
-0.12878953
-0.021681419
-0.13458952
-0.023719877
-0.1406419
-0.025907945
-0.14695941
-0.028254303
-0.15355588
-0.030766429
-0.16044638
-0.033452197
-0.16764681
-0.03631902
-0.17517489
-0.039373762
-0.18304919
-0.042621843
-0.19129084
-0.046069853
-0.19992058
-0.049721879
-0.20896283
-0.053582919
-0.21844163
-0.057656029
-0.22838428
-0.061944313
-0.2388188
-0.066451028
-0.24977448
-0.071178432
-0.26128334
-0.076128418
-0.27337881
-0.081303078
-0.28609576
-0.086704602
-0.2994714
-0.092334934
-0.31354498
-0.098196401
-0.32835779
-0.10429133
-0.34395355
-0.11062307
-0.36037792
-0.1171948
-0.37767964
-0.12400971
-0.39591003
-0.13107223
-0.41512269
-0.1383857
-0.43537535
-0.14595496
-0.45672763
-0.15378422
-0.47924366
-0.16187813
-0.50299056
-0.17024026
-0.52804015
-0.17887496
-0.55446763
-0.18778569
-0.58235297
-0.1969747
-0.61178154
-0.20644439
-0.64284323
-0.21619522
-0.67563345
-0.22622533
-0.7102537
-0.23653109
-0.74681142
-0.2471062
-0.78542176
-0.25794348
-0.8262058
-0.26903248
-0.86929519
-0.28036288
-0.91483
-0.29192559
-0.96296234
-0.3037166
-1.0138596
-0.31574276
-1.0677058
-0.32802948
-1.1247082
-0.34062611
-1.1851042
-0.35361617
-1.249167
-0.36709925
-1.3172115
-0.38115932
-1.3896103
-0.39581234
-1.4667782
-0.41087623
-1.5491862
-0.42588162
-1.6372785
-0.44004865
-1.7313769
-0.45255044
-1.8317285
-0.46259393
-1.9393035
-0.46904619
-2.0562974
-0.4704262
-2.1865792
-2.3326059
-0.00017428559
-0.045943466
-0.00076746981
-0.056337314
-0.0011509597
-0.055943023
-0.0018192301
-0.059848718
-0.0023427948
-0.062222342
-0.0030192226
-0.065058764
-0.0036593633
-0.068277149
-0.0043854457
-0.071239049
-0.00515633
-0.074659057
-0.0059805179
-0.078031861
-0.0068719056
-0.081637317
-0.0078295862
-0.085367001
-0.0088628678
-0.089263397
-0.0099777651
-0.093323246
-0.011181745
-0.097555045
-0.012482626
-0.10196514
-0.013888631
-0.10656095
-0.015408532
-0.11135021
-0.017050788
-0.11634146
-0.018825304
-0.12154341
-0.020740774
-0.12696647
-0.022806865
-0.13262117
-0.02503236
-0.13851972
-0.027426419
-0.14467458
-0.029997596
-0.15110016
-0.032754082
-0.15781191
-0.03570301
-0.16482681
-0.038851702
-0.17216242
-0.042205804
-0.179839
-0.045771544
-0.18787713
-0.049552967
-0.19629976
-0.053554482
-0.205131
-0.057779668
-0.21439572
-0.062231411
-0.22412201
-0.066912486
-0.23433801
-0.071825464
-0.24507325
-0.076972361
-0.25636031
-0.082355954
-0.26823183
-0.087978475
-0.28072317
-0.093842947
-0.29387065
-0.099952593
-0.30771324
-0.10631122
-0.32229157
-0.11292352
-0.33764838
-0.1197944
-0.35382896
-0.12692934
-0.37088117
-0.1343349
-0.38885491
-0.14201746
-0.40780351
-0.14998417
-0.4277834
-0.15824224
-0.44885362
-0.16679951
-0.47107688
-0.17566363
-0.49451961
-0.18484289
-0.51925185
-0.19434451
-0.54534865
-0.20417584
-0.57288832
-0.21434307
-0.6019557
-0.22485259
-0.63263854
-0.23570825
-0.6650329
-0.24691323
-0.69923905
-0.25846907
-0.73536434
-0.27037564
-0.77352422
-0.28263078
-0.81384118
-0.29523181
-0.85644797
-0.30817609
-0.90148753
-0.32146344
-0.94911509
-0.33510035
-0.99950102
-0.34910506
-1.0528331
-0.36351584
-1.1093211
-0.37839993
-1.1692029
-0.39386396
-1.232746
-0.41003856
-1.3002692
-0.42707839
-1.3721258
-0.44508885
-1.4487356
-0.46405132
-1.5305671
-0.48367996
-1.6180863
-0.50331257
-1.7116585
-0.52201631
-1.811552
-0.53860345
-1.9187576
-0.55118395
-2.0356724
-0.55818752
-2.1675244
-2.3174148
-0.00015362822
-0.04582002
-0.00076969886
-0.055752325
-0.0011579099
-0.055588468
-0.0018462156
-0.059195496
-0.0023726936
-0.061733177
-0.0030694191
-0.064401096
-0.0037432057
-0.067644831
-0.0044949054
-0.070531195
-0.0053061099
-0.073894133
-0.0061743535
-0.07721256
-0.0071191958
-0.080744139
-0.0081405018
-0.084400312
-0.0092483121
-0.088213238
-0.010450258
-0.092182218
-0.01175516
-0.096314435
-0.013172275
-0.10061593
-0.014711172
-0.1050937
-0.016381916
-0.1097551
-0.018194665
-0.11460849
-0.020159363
-0.11966289
-0.02228639
-0.12492822
-0.024585426
-0.13041576
-0.027065736
-0.13613812
-0.029736664
-0.14210772
-0.032606152
-0.14834036
-0.035681729
-0.15485194
-0.038970829
-0.16165953
-0.042478608
-0.168783
-0.046210558
-0.17624229
-0.050170902
-0.18405925
-0.05436334
-0.19225737
-0.058791214
-0.20086116
-0.063456196
-0.20989718
-0.068361836
-0.21939166
-0.0735099
-0.22937457
-0.078902676
-0.23987489
-0.084543363
-0.25092425
-0.090434517
-0.26255584
-0.096580544
-0.27480305
-0.10298544
-0.28770248
-0.1096541
-0.30129206
-0.11659241
-0.31561129
-0.12380751
-0.33070148
-0.13130677
-0.34660742
-0.13909868
-0.36337547
-0.14719255
-0.38105423
-0.15559796
-0.39969622
-0.16432521
-0.41935658
-0.17338547
-0.44009276
-0.18278969
-0.46196688
-0.19254961
-0.48504355
-0.20267607
-0.50939267
-0.21318141
-0.53508653
-0.2240763
-0.56220381
-0.23537214
-0.59082718
-0.24707847
-0.62104476
-0.25920528
-0.65295074
-0.27176067
-0.68664603
-0.28475187
-0.72223797
-0.29818599
-0.75984176
-0.31206801
-0.79958251
-0.32640379
-0.84159371
-0.34120028
-0.88602048
-0.35646749
-0.93302053
-0.37222208
-0.98276671
-0.38849401
-1.0354475
-0.40533337
-1.0912726
-0.42282001
-1.1504767
-0.44106739
-1.2133249
-0.46023543
-1.2801218
-0.48051918
-1.3512099
-0.50212654
-1.4269955
-0.5251971
-1.5079445
-0.54965651
-1.5945323
-0.57504597
-1.6871407
-0.60039092
-1.786069
-0.62425778
-1.8921618
-0.64383591
-2.0083745
-0.65800122
-2.1416976
-2.294778
-0.00014440086
-0.045704666
-0.00080398839
-0.055122558
-0.0012179706
-0.055206816
-0.0019183733
-0.058528627
-0.0024729325
-0.061214352
-0.0031976737
-0.063713909
-0.0039231316
-0.066959027
-0.0047190651
-0.069777113
-0.0055927508
-0.07306456
-0.006531098
-0.076320781
-0.0075574595
-0.079766845
-0.0086739636
-0.083335573
-0.0098917616
-0.087049966
-0.011220562
-0.090910899
-0.012670769
-0.094924754
-0.014253411
-0.09909705
-0.015979513
-0.10343471
-0.017860314
-0.10794495
-0.019906909
-0.11263624
-0.022130177
-0.11751784
-0.024540302
-0.12260037
-0.027147373
-0.12789523
-0.029960751
-0.13341575
-0.032988211
-0.13917596
-0.036237532
-0.14519166
-0.039714981
-0.15148028
-0.043425728
-0.15805999
-0.047374425
-0.16495119
-0.051564516
-0.17217501
-0.055998662
-0.17975412
-0.060678923
-0.1877126
-0.065607688
-0.19607464
-0.070786716
-0.20486746
-0.076218078
-0.21411696
-0.081904564
-0.22385239
-0.087849133
-0.23410251
-0.094055481
-0.24489811
-0.10052886
-0.25627069
-0.10727373
-0.26825422
-0.11429725
-0.28088247
-0.1216064
-0.29419335
-0.12921067
-0.30822366
-0.13711872
-0.32301533
-0.14534155
-0.3386104
-0.15389123
-0.35505372
-0.16277938
-0.37239382
-0.17201951
-0.39068074
-0.18162575
-0.40996839
-0.19161221
-0.43031349
-0.2019943
-0.45177604
-0.21278688
-0.47442025
-0.22400631
-0.49831353
-0.23566752
-0.5235286
-0.24778641
-0.55014208
-0.26037902
-0.57823547
-0.27346047
-0.60789675
-0.28704553
-0.63921966
-0.30114963
-0.67230384
-0.31578692
-0.70725771
-0.3309712
-0.74419718
-0.34671715
-0.78324746
-0.36304021
-0.8245431
-0.37995722
-0.8682308
-0.39748848
-0.91446965
-0.41566296
-0.96343138
-0.43452055
-1.0153052
-0.45411999
-1.0702983
-0.47454662
-1.1286406
-0.49592055
-1.1905898
-0.51841376
-1.256434
-0.54225394
-1.3265054
-0.56772905
-1.4011952
-0.59513454
-1.480952
-0.62461567
-1.566239
-0.65591617
-1.6574599
-0.68807846
-1.7549158
-0.71935137
-1.8592937
-0.74709383
-1.9739522
-0.77114978
-2.1079026
-2.2638404
-0.00013613811
-0.045595848
-0.00085310414
-0.054433564
-0.0012952345
-0.054795061
-0.002037843
-0.05781746
-0.0026433941
-0.060642216
-0.0034125972
-0.062979748
-0.0042098715
-0.066198702
-0.005073616
-0.068952274
-0.006033532
-0.072145569
-0.007071617
-0.075325786
-0.0082131504
-0.078670613
-0.0094637805
-0.082132605
-0.010836207
-0.085727625
-0.012342186
-0.089457572
-0.013993996
-0.093328249
-0.015803969
-0.097345173
-0.017784403
-0.10151527
-0.019947249
-0.10584614
-0.022304114
-0.11034658
-0.024865904
-0.11502658
-0.027642865
-0.11989743
-0.030643923
-0.12497183
-0.033876979
-0.13026418
-0.037349133
-0.13578931
-0.041065418
-0.14156508
-0.045030505
-0.14760931
-0.049246923
-0.1539423
-0.053717143
-0.16058449
-0.058442875
-0.16755778
-0.063425097
-0.17488556
-0.068665321
-0.18259138
-0.074164652
-0.19069981
-0.079925493
-0.19923677
-0.085950284
-0.20822812
-0.092243093
-0.21770141
-0.098808029
-0.22768525
-0.10565141
-0.2382081
-0.11277941
-0.24930139
-0.12020094
-0.26099617
-0.12792434
-0.27332654
-0.1359612
-0.28632699
-0.14432206
-0.30003514
-0.15302051
-0.31448951
-0.1620708
-0.32973113
-0.1714874
-0.34580411
-0.18128637
-0.36275482
-0.19148461
-0.38063195
-0.20209973
-0.39948807
-0.21315037
-0.41937815