/*--------------------------------*- C++ -*----------------------------------*\
  =========                 |
  \\      /  F ield         | OpenFOAM: The Open Source CFD Toolbox
   \\    /   O peration     | Website:  https://openfoam.org
    \\  /    A nd           | Version:  12
     \\/     M anipulation  |
\*---------------------------------------------------------------------------*/
FoamFile
{
    format      ascii;
    class       volScalarField;
    location    "0.009";
    object      rho;
}
// * * * * * * * * * * * * * * * * * * * * * * * * * * * * * * * * * * * * * //

dimensions      [1 -3 0 0 0 0 0];

internalField   nonuniform List<scalar> 
16000
(
1.0521959
1.0855672
1.0731917
1.081621
1.0777331
1.0811467
1.0801572
1.0819548
1.0820871
1.0832731
1.0839034
1.0848898
1.0857407
1.0867075
1.0876733
1.08869
1.089739
1.0908277
1.091955
1.0931219
1.0943286
1.0955754
1.096862
1.098188
1.0995528
1.1009551
1.1023936
1.1038664
1.1053715
1.1069064
1.1084685
1.1100547
1.1116619
1.113287
1.1149264
1.1165766
1.1182339
1.1198945
1.1215543
1.1232093
1.1248553
1.1264879
1.1281028
1.1296956
1.1312622
1.1327983
1.1343003
1.1357648
1.1371888
1.1385694
1.1399045
1.1411921
1.1424309
1.14362
1.1447588
1.1458476
1.1468869
1.1478779
1.1488224
1.1497227
1.1505814
1.1514013
1.1521842
1.15293
1.1536335
1.1542788
1.1548347
1.1552489
1.1554369
1.1552832
1.1546622
1.1534589
1.1516613
1.1494258
1.1469234
1.1459922
1.1417948
1.1485785
1.1470503
1.1533805
1.0493198
1.0832363
1.0702954
1.0792112
1.0751185
1.078793
1.0777083
1.0796717
1.0797972
1.0810841
1.0817665
1.0828278
1.0837524
1.0847928
1.0858379
1.0869337
1.0880652
1.0892378
1.0904511
1.0917056
1.0930016
1.094339
1.0957175
1.0971364
1.0985948
1.1000913
1.1016241
1.1031911
1.1047897
1.1064169
1.1080697
1.1097444
1.1114373
1.1131446
1.114862
1.1165856
1.1183109
1.1200336
1.1217493
1.1234537
1.1251423
1.1268107
1.1284545
1.1300697
1.1316519
1.1331975
1.1347029
1.1361649
1.137581
1.1389489
1.1402667
1.1415329
1.1427465
1.1439068
1.1450135
1.1460663
1.1470656
1.1480115
1.1489048
1.1497458
1.1505351
1.1512726
1.151957
1.1525852
1.1531505
1.1536381
1.1540173
1.1542415
1.1542444
1.1539302
1.1532071
1.1520414
1.1504793
1.1486332
1.1469413
1.145547
1.1436047
1.1488142
1.1471014
1.1546229
1.0467778
1.0811888
1.0678273
1.0770662
1.0728395
1.0767329
1.0756233
1.0777026
1.07787
1.0792382
1.0799933
1.0811293
1.0821366
1.083256
1.0843868
1.085568
1.086788
1.0880507
1.0893562
1.0907044
1.0920957
1.0935295
1.0950055
1.0965224
1.0980791
1.0996735
1.1013037
1.1029667
1.1046596
1.1063789
1.1081207
1.1098808
1.1116549
1.1134384
1.1152266
1.1170146
1.1187977
1.1205709
1.1223295
1.1240688
1.1257843
1.1274715
1.1291264
1.1307447
1.1323226
1.1338565
1.1353433
1.1367803
1.1381652
1.1394962
1.1407717
1.1419905
1.143152
1.1442552
1.1452997
1.1462849
1.1472101
1.1480743
1.1488764
1.1496149
1.1502879
1.150893
1.151427
1.1518849
1.1522609
1.1525473
1.1527276
1.1527696
1.1526421
1.1522959
1.1516825
1.150813
1.1497585
1.1485841
1.1475433
1.1463507
1.145688
1.1497779
1.1474363
1.1560921
1.0444826
1.079305
1.0655611
1.0751098
1.070723
1.074894
1.0737639
1.0759718
1.0761883
1.0776453
1.0784812
1.0796976
1.0807959
1.0820016
1.0832259
1.0845009
1.085818
1.0871798
1.0885863
1.0900373
1.0915326
1.0930713
1.0946526
1.0962747
1.097936
1.0996339
1.1013657
1.1031281
1.1049173
1.1067291
1.108559
1.1104022
1.1122535
1.1141077
1.1159593
1.1178028
1.119633
1.1214444
1.1232319
1.1249907
1.1267161
1.1284039
1.1300499
1.1316504
1.1332018
1.1347009
1.1361449
1.1375315
1.1388589
1.1401256
1.1413304
1.1424724
1.1435508
1.1445647
1.1455132
1.1463952
1.1472088
1.1479522
1.1486228
1.1492175
1.1497329
1.150166
1.150515
1.150778
1.1509538
1.151046
1.1510655
1.1510105
1.1508828
1.1506863
1.1504331
1.1501027
1.149728
1.1493486
1.1489518
1.1482286
1.1482237
1.1512906
1.1481932
1.1581311
1.0423065
1.0775374
1.0634229
1.0733301
1.0687639
1.0731784
1.0720446
1.074379
1.0746634
1.0762083
1.077138
1.0784409
1.0796419
1.0809444
1.0822737
1.0836541
1.0850799
1.086552
1.0880705
1.0896344
1.0912434
1.0928958
1.0945903
1.0963246
1.0980965
1.0999026
1.1017397
1.1036036
1.1054899
1.1073935
1.1093092
1.1112313
1.113154
1.1150711
1.1169765
1.1188642
1.1207283
1.1225629
1.1243628
1.1261229
1.1278387
1.1295061
1.1311212
1.1326806
1.1341812
1.1356202
1.1369955
1.1383052
1.139548
1.1407228
1.1418287
1.142865
1.143831
1.1447259
1.1455484
1.1462971
1.1469698
1.1475641
1.1480774
1.1485065
1.1488483
1.1491018
1.1492691
1.1493582
1.1493802
1.1493502
1.1493024
1.1492845
1.1493225
1.1494643
1.1497335
1.1500868
1.1504766
1.1508863
1.1511079
1.1508907
1.1512488
1.153293
1.1495989
1.1610443
1.040197
1.0757933
1.0613518
1.0716114
1.0669524
1.0715256
1.0703897
1.0728627
1.0732346
1.0748795
1.0759239
1.0773264
1.0786462
1.0800598
1.0815072
1.0830057
1.0845518
1.0861452
1.0877861
1.0894727
1.0912045
1.0929791
1.0947947
1.0966483
1.0985368
1.1004562
1.1024023
1.1043701
1.1063542
1.1083487
1.1103473
1.1123434
1.1143303
1.1163012
1.1182492
1.1201677
1.1220503
1.123891
1.1256844
1.1274254
1.1291098
1.1307337
1.1322938
1.1337871
1.1352112
1.1365641
1.1378442
1.1390505
1.1401823
1.1412389
1.1422201
1.1431255
1.1439547
1.1447073
1.1453824
1.1459787
1.1464949
1.1469292
1.1472805
1.1475481
1.1477326
1.147837
1.1478686
1.1478453
1.147799
1.147765
1.1477815
1.1479293
1.1482752
1.1488658
1.1497104
1.150769
1.151945
1.1530688
1.1538547
1.1540993
1.1546712
1.1557601
1.1518989
1.1650418
1.0381967
1.0741125
1.0593814
1.0699368
1.0652395
1.0699705
1.0688191
1.0714726
1.0719349
1.0737065
1.0748828
1.0763927
1.077841
1.079375
1.0809492
1.0825755
1.0842516
1.0859767
1.0877503
1.0895704
1.0914355
1.0933427
1.0952891
1.0972708
1.0992837
1.1013228
1.1033827
1.1054572
1.1075399
1.1096236
1.111701
1.1137646
1.1158068
1.1178199
1.1197965
1.1217296
1.1236124
1.125439
1.127204
1.1289027
1.1305312
1.1320863
1.1335654
1.1349663
1.1362877
1.1375284
1.138688
1.1397664
1.1407637
1.1416804
1.1425167
1.1432733
1.1439506
1.144549
1.1450688
1.1455099
1.1458729
1.1461587
1.1463688
1.1465066
1.1465791
1.1465977
1.1465776
1.1465388
1.1465219
1.1465875
1.1468019
1.1472205
1.1479283
1.1489842
1.1503955
1.1520944
1.153936
1.155691
1.1569979
1.1576896
1.1584103
1.1586891
1.1551921
1.1702022
1.0363159
1.0725253
1.057531
1.0683871
1.0636292
1.0685785
1.0675072
1.0702981
1.0708825
1.0727372
1.0740535
1.0756746
1.0772598
1.0789258
1.0806397
1.0824083
1.08423
1.0861028
1.0880256
1.0899952
1.0920093
1.0940636
1.0961543
1.098276
1.1004234
1.10259
1.1047691
1.106953
1.109134
1.1113037
1.1134537
1.1155753
1.1176603
1.1197003
1.1216875
1.1236147
1.1254752
1.1272633
1.1289742
1.1306037
1.1321489
1.1336075
1.1349781
1.1362598
1.1374526
1.1385567
1.139573
1.1405029
1.1413478
1.1421093
1.1427891
1.143389
1.1439111
1.1443573
1.1447297
1.14503
1.145263
1.1454328
1.145545
1.1456074
1.1456315
1.1456354
1.1456463
1.1456997
1.1458294
1.1460861
1.1465387
1.1472656
1.148338
1.149808
1.1516794
1.1538831
1.1562644
1.1585546
1.1603676
1.1615227
1.1623682
1.1620608
1.1595764
1.1765223
1.0345637
1.071047
1.0558221
1.0670286
1.0622051
1.0673901
1.066449
1.0693785
1.0700157
1.0719746
1.0734584
1.0752152
1.0769617
1.078786
1.0806648
1.0826011
1.084593
1.0866375
1.0887324
1.0908734
1.0930566
1.0952764
1.0975275
1.0998028
1.1020954
1.1043969
1.1066991
1.1089926
1.1112684
1.1135167
1.1157279
1.1178928
1.1200022
1.1220475
1.124021
1.1259155
1.1277252
1.1294448
1.1310707
1.1326
1.1340312
1.1353634
1.1365971
1.1377331
1.138773
1.139719
1.1405738
1.1413403
1.1420217
1.1426214
1.1431427
1.1435893
1.1439651
1.1442744
1.1445217
1.1447119
1.1448534
1.1449538
1.1450233
1.1450763
1.1451294
1.1452018
1.145319
1.1455145
1.145832
1.1463218
1.1470418
1.1480566
1.1494292
1.1512064
1.1533976
1.1559535
1.1587409
1.161488
1.1637981
1.1654478
1.1664597
1.1658436
1.1649666
1.1839033
1.032996
1.0697366
1.0543306
1.0659023
1.0610251
1.066482
1.0655051
1.0684664
1.0694365
1.0715335
1.0732222
1.0751489
1.0770886
1.0791039
1.0811788
1.0833135
1.0855053
1.08775
1.0900439
1.092381
1.0947557
1.0971606
1.0995882
1.1020295
1.1044753
1.1069155
1.1093398
1.1117373
1.1140973
1.1164089
1.1186618
1.1208459
1.1229521
1.124972
1.1268983
1.128725
1.1304472
1.1320616
1.1335661
1.1349598
1.1362432
1.137418
1.1384864
1.1394517
1.1403177
1.1410885
1.141769
1.1423641
1.142879
1.1433189
1.1436893
1.1439959
1.1442449
1.1444427
1.1445977
1.1447217
1.1448189
1.1449006
1.1449806
1.1450742
1.1452018
1.1453874
1.1456567
1.1460385
1.1465679
1.1472857
1.1482388
1.1494784
1.1510566
1.1530186
1.1553888
1.1581537
1.1612223
1.1643469
1.167138
1.1693204
1.1705885
1.1699543
1.1711955
1.1919424
1.0316865
1.0686879
1.0531285
1.065073
1.0600692
1.0656639
1.0649205
1.068143
1.0693368
1.0715949
1.0735237
1.0756573
1.0778249
1.0800678
1.0823744
1.0847423
1.0871674
1.0896437
1.0921652
1.0947241
1.0973122
1.0999196
1.1025362
1.1051506
1.1077512
1.1103256
1.1128615
1.1153465
1.1177684
1.1201156
1.1223773
1.1245437
1.1266062
1.1285575
1.1303919
1.1321053
1.1336952
1.1351606
1.136502
1.1377215
1.1388223
1.1398087
1.1406856
1.1414587
1.1421342
1.1427185
1.1432186
1.1436415
1.1439943
1.1442843
1.144519
1.1447062
1.1448541
1.1449717
1.1450682
1.1451539
1.1452417
1.1453451
1.1454791
1.1456599
1.1459051
1.146234
1.1466683
1.1472321
1.1479522
1.1488582
1.1499841
1.151369
1.1530568
1.1550947
1.157528
1.1603839
1.1636206
1.1670334
1.1702596
1.1729887
1.1746482
1.1743378
1.1781088
1.2004549
1.0307494
1.0680264
1.0522994
1.0645381
1.0595682
1.0655706
1.0650362
1.0683826
1.0698813
1.0723395
1.0745514
1.0769374
1.0793742
1.0818866
1.0844649
1.0871043
1.0897982
1.0925383
1.0953156
1.0981194
1.1009381
1.1037589
1.1065685
1.1093526
1.1120969
1.1147868
1.1174082
1.1199473
1.1223913
1.1247286
1.1269489
1.1290437
1.1310063
1.132832
1.134518
1.1360631
1.1374684
1.1387362
1.1398706
1.140877
1.1417617
1.142532
1.1431956
1.1437605
1.1442352
1.1446284
1.1449488
1.1452055
1.1454073
1.1455631
1.1456821
1.1457739
1.1458481
1.1459153
1.1459863
1.1460728
1.1461874
1.1463434
1.1465549
1.1468365
1.1472032
1.1476708
1.148255
1.1489724
1.1498405
1.1508791
1.1521117
1.1535679
1.1552867
1.1573206
1.1597355
1.1625943
1.1658978
1.1694902
1.1730707
1.1763138
1.1785031
1.1789906
1.1854168
1.2089768
1.0303435
1.0679092
1.0520061
1.0646475
1.0598307
1.0659766
1.0658646
1.0693991
1.0712716
1.0739731
1.0765109
1.0791987
1.0819504
1.0847782
1.0876717
1.090623
1.0936217
1.0966559
1.0997124
1.1027767
1.1058331
1.1088652
1.111856
1.1147883
1.1176451
1.1204101
1.1230678
1.1256042
1.1280072
1.1302667
1.1323747
1.1343259
1.1361173
1.1377481
1.1392199
1.1405359
1.1417014
1.1427229
1.1436084
1.1443666
1.1450072
1.1455402
1.1459756
1.1463237
1.1465949
1.1467995
1.1469478
1.1470501
1.1471167
1.1471576
1.147183
1.1472035
1.1472294
1.1472717
1.1473415
1.1474502
1.1476096
1.1478314
1.1481276
1.1485094
1.148988
1.1495739
1.1502768
1.1511067
1.1520738
1.1531902
1.154472
1.1559431
1.1576409
1.1596236
1.161972
1.1647708
1.1680486
1.1716988
1.1755114
1.1792202
1.1821044
1.1838394
1.1927173
1.21692
1.0306002
1.0684834
1.0524329
1.0653551
1.0609527
1.0673288
1.0676193
1.0713711
1.0736768
1.0766813
1.0795982
1.082648
1.0857699
1.0889658
1.0922218
1.0955252
1.0988605
1.1022109
1.1055582
1.1088829
1.1121649
1.1153835
1.1185183
1.1215494
1.1244579
1.1272269
1.1298416
1.1322898
1.1345623
1.136653
1.1385588
1.1402796
1.1418177
1.1431782
1.1443677
1.1453947
1.1462691
1.1470015
1.1476036
1.1480875
1.1484653
1.1487491
1.1489509
1.1490825
1.1491553
1.149181
1.1491706
1.1491352
1.1490855
1.1490321
1.1489855
1.1489562
1.1489546
1.148991
1.1490756
1.1492184
1.1494292
1.1497174
1.1500914
1.150559
1.151127
1.151801
1.1525861
1.1534871
1.1545091
1.1556593
1.1569495
1.158401
1.1600521
1.1619648
1.1642242
1.1669178
1.1700841
1.173667
1.1775747
1.1816786
1.1853579
1.1887847
1.1998092
1.2238498
1.0315805
1.0697907
1.0536301
1.0670473
1.0629507
1.0696184
1.0704487
1.0744659
1.0772846
1.0806734
1.0840376
1.0875198
1.0910735
1.0946906
1.0983518
1.102038
1.1057275
1.1093974
1.1130234
1.1165807
1.1200441
1.1233892
1.1265928
1.129634
1.1324945
1.1351597
1.1376186
1.1398642
1.1418935
1.1437073
1.1453096
1.1467072
1.1479096
1.1489276
1.1497739
1.1504615
1.1510047
1.1514178
1.1517151
1.151911
1.1520194
1.1520538
1.1520268
1.1519511
1.1518387
1.1517014
1.1515505
1.1513969
1.1512513
1.151124
1.1510249
1.1509638
1.1509501
1.1509926
1.1510999
1.1512798
1.1515395
1.1518854
1.1523225
1.1528551
1.1534861
1.1542179
1.1550521
1.1559902
1.1570343
1.158189
1.1594646
1.1608827
1.162483
1.1643269
1.16649
1.1690429
1.172023
1.1754327
1.179322
1.183757
1.1883544
1.1935645
1.206081
1.2293222
1.0333994
1.0719062
1.0557581
1.0696835
1.0660958
1.0730547
1.0745568
1.0789201
1.0823409
1.0862105
1.090097
1.0940814
1.0981225
1.1022026
1.1062947
1.1103724
1.1144057
1.1183648
1.1222181
1.1259355
1.1294877
1.1328487
1.1359959
1.1389114
1.1415819
1.1439998
1.1461623
1.1480715
1.1497336
1.1511584
1.1523585
1.1533485
1.1541443
1.1547629
1.1552214
1.1555369
1.1557265
1.1558068
1.155794
1.1557032
1.1555491
1.1553451
1.1551044
1.154839
1.154561
1.1542815
1.1540114
1.1537609
1.1535398
1.1533573
1.1532224
1.1531434
1.1531279
1.1531828
1.1533146
1.1535286
1.1538292
1.1542198
1.1547026
1.155279
1.1559494
1.1567138
1.157572
1.1585239
1.1595703
1.1607148
1.1619687
1.1633555
1.1649153
1.1667006
1.1687645
1.1711484
1.1738896
1.1770689
1.1808949
1.1856287
1.1911686
1.19796
1.2110054
1.2328223
1.0361256
1.0748409
1.0590221
1.0734531
1.0705584
1.0778881
1.0802222
1.0850362
1.089149
1.0935949
1.0980718
1.1026149
1.1071812
1.1117418
1.1162597
1.120698
1.125017
1.1291786
1.1331456
1.1368851
1.1403687
1.1435744
1.1464864
1.1490964
1.1514023
1.1534082
1.1551236
1.1565623
1.1577411
1.1586793
1.1593977
1.1599176
1.1602601
1.1604462
1.1604961
1.160429
1.1602634
1.1600166
1.1597048
1.1593431
1.1589454
1.1585248
1.1580934
1.1576625
1.1572431
1.1568455
1.1564791
1.156153
1.1558757
1.1556548
1.1554977
1.1554108
1.1553997
1.1554693
1.1556236
1.1558655
1.156197
1.1566191
1.1571317
1.1577343
1.158426
1.1592057
1.1600725
1.1610255
1.1620655
1.1631973
1.1644347
1.165803
1.1673376
1.1690734
1.1710323
1.1732281
1.1757177
1.1786825
1.1824825
1.1875135
1.1938334
1.2017378
1.214076
1.2332098
1.0399288
1.0786619
1.0636392
1.0786856
1.0767022
1.0844769
1.0877932
1.0931599
1.0980393
1.1031452
1.1082671
1.1134037
1.1185018
1.1235167
1.1283971
1.1330942
1.1375597
1.1417515
1.1456334
1.1491783
1.1523676
1.1551924
1.1576523
1.1597549
1.1615142
1.1629493
1.1640831
1.1649411
1.1655497
1.165936
1.1661263
1.1661461
1.1660195
1.1657689
1.1654155
1.1649786
1.1644762
1.1639249
1.1633399
1.162735
1.1621227
1.1615145
1.1609212
1.160353
1.1598191
1.1593283
1.1588885
1.1585071
1.1581909
1.1579459
1.1577772
1.1576895
1.1576863
1.1577703
1.1579435
1.1582066
1.1585596
1.1590019
1.1595322
1.1601491
1.160851
1.1616367
1.1625049
1.1634549
1.1644887
1.1656142
1.1668479
1.168214
1.1697358
1.1714223
1.1732664
1.1752751
1.1775557
1.1804053
1.184292
1.1896272
1.1963885
1.2046398
1.2151595
1.2295481
1.0451329
1.0838409
1.0700372
1.0857746
1.0848997
1.0931606
1.0976087
1.1036487
1.1093685
1.1152086
1.1210062
1.126724
1.1322902
1.1376415
1.1427141
1.1474533
1.1518125
1.1557582
1.1592685
1.162335
1.1649603
1.1671573
1.1689468
1.1703557
1.1714148
1.1721576
1.1726181
1.1728302
1.1728266
1.1726382
1.1722938
1.1718196
1.1712397
1.1705759
1.1698479
1.1690737
1.1682694
1.1674497
1.1666278
1.1658153
1.1650231
1.1642607
1.1635372
1.162861
1.1622395
1.1616798
1.161188
1.1607697
1.1604296
1.160172
1.1600001
1.1599165
1.1599229
1.1600201
1.1602083
1.1604867
1.1608542
1.1613091
1.1618497
1.1624744
1.1631817
1.1639702
1.1648388
1.1657879
1.1668223
1.1679535
1.1691992
1.1705763
1.1720877
1.173715
1.1754376
1.177294
1.1794745
1.1823758
1.1864861
1.1920823
1.1987628
1.2061244
1.2142032
1.2226847
1.051969
1.0913756
1.0784467
1.0949206
1.095504
1.104342
1.110096
1.1169644
1.1235846
1.1301792
1.1365948
1.1427587
1.1485828
1.153995
1.1589347
1.1633603
1.1672468
1.1705873
1.17339
1.1756762
1.1774766
1.1788293
1.179776
1.1803607
1.1806269
1.1806173
1.1803719
1.1799281
1.1793199
1.1785779
1.1777296
1.1767993
1.1758086
1.1747766
1.1737203
1.1726549
1.1715941
1.1705498
1.1695327
1.1685522
1.1676169
1.1667345
1.1659121
1.1651562
1.1644725
1.1638659
1.1633409
1.1629012
1.1625496
1.1622886
1.1621197
1.1620435
1.1620603
1.1621695
1.1623698
1.1626598
1.1630374
1.1635009
1.1640487
1.1646794
1.1653915
1.1661838
1.1670559
1.1680106
1.1690563
1.1702075
1.1714784
1.1728703
1.1743614
1.175916
1.1775293
1.1793113
1.1815585
1.1847087
1.1891134
1.1947534
1.2009131
1.2062616
1.2106903
1.2137977
1.0604834
1.1007961
1.0894172
1.1066532
1.1091493
1.1187054
1.1258933
1.1336905
1.1411558
1.1483524
1.1551234
1.1613786
1.1670371
1.1720472
1.1763807
1.1800354
1.1830284
1.1853944
1.1871789
1.1884356
1.1892214
1.1895942
1.1896101
1.1893221
1.1887795
1.1880266
1.1871035
1.1860455
1.1848836
1.1836446
1.182352
1.1810261
1.1796844
1.1783424
1.1770137
1.1757102
1.1744425
1.1732198
1.1720501
1.1709408
1.169898
1.1689278
1.1680352
1.167225
1.1665009
1.1658662
1.1653236
1.164875
1.1645216
1.1642641
1.1641026
1.1640363
1.1640642
1.1641846
1.1643956
1.1646952
1.1650814
1.1655527
1.1661078
1.1667455
1.1674644
1.1682638
1.1691449
1.1701141
1.1711838
1.1723674
1.1736688
1.1750682
1.1765229
1.1779995
1.1795472
1.1813761
1.1838702
1.1874391
1.1921539
1.1974211
1.2022347
1.2049675
1.2048567
1.2040809
1.0714207
1.1130949
1.1038648
1.1219229
1.1267815
1.1371343
1.1456815
1.1542763
1.1622549
1.1695928
1.1761611
1.1818984
1.186774
1.1907944
1.1939924
1.1964232
1.1981545
1.1992625
1.1998249
1.1999182
1.1996146
1.1989803
1.198075
1.1969517
1.1956564
1.1942293
1.1927049
1.1911125
1.1894771
1.18782
1.1861589
1.1845093
1.1828842
1.1812951
1.179752
1.1782637
1.1768378
1.1754808
1.1741984
1.1729957
1.1718774
1.1708474
1.1699092
1.1690656
1.1683191
1.1676712
1.1671229
1.1666747
1.1663265
1.1660775
1.1659264
1.1658717
1.1659113
1.166043
1.1662645
1.1665738
1.1669693
1.1674498
1.1680141
1.1686612
1.1693898
1.1702003
1.1710974
1.1720916
1.1731965
1.1744189
1.1757447
1.1771322
1.1785338
1.1799546
1.1815315
1.183571
1.186464
1.1904408
1.1952353
1.1998475
1.2026715
1.2020447
1.1979618
1.1945558
1.0863404
1.1293444
1.1230549
1.1417814
1.1493429
1.1603673
1.1697773
1.1785838
1.1863331
1.1930026
1.1985541
1.203012
1.2064345
1.2089088
1.2105364
1.2114257
1.2116838
1.2114123
1.2107038
1.2096409
1.2082958
1.2067306
1.2049983
1.2031435
1.2012037
1.1992103
1.1971894
1.1951624
1.1931473
1.1911589
1.1892094
1.1873093
1.1854675
1.1836918
1.1819888
1.1803646
1.1788241
1.1773716
1.1760109
1.1747453
1.1735777
1.1725107
1.1715462
1.1706858
1.1699302
1.1692798
1.1687344
1.168293
1.1679544
1.1677168
1.1675781
1.167536
1.167588
1.1677315
1.1679644
1.1682848
1.1686914
1.1691832
1.169759
1.1704178
1.171159
1.1719857
1.1729065
1.1739348
1.175081
1.176338
1.1776705
1.1790242
1.1803719
1.1817898
1.1835163
1.1859207
1.1893148
1.1936278
1.1981196
1.2013613
1.2018673
1.1977849
1.1909845
1.1862138
1.1067775
1.1508241
1.1483877
1.1672102
1.1771649
1.188309
1.1975388
1.2054503
1.2118742
1.2168773
1.2205542
1.2230437
1.2244986
1.2250759
1.224924
1.2241785
1.2229584
1.2213666
1.2194896
1.2173996
1.2151563
1.2128084
1.2103957
1.2079505
1.2054991
1.2030627
1.2006583
1.1982997
1.195998
1.1937621
1.1915994
1.1895161
1.1875176
1.1856086
1.1837931
1.1820747
1.1804563
1.1789404
1.1775292
1.1762247
1.1750284
1.1739417
1.1729654
1.1720996
1.1713443
1.1706985
1.170161
1.16973
1.1694033
1.1691784
1.1690527
1.1690235
1.169088
1.1692438
1.169489
1.1698219
1.1702413
1.170746
1.1713346
1.1720064
1.172763
1.173611
1.1745629
1.1756312
1.1768164
1.1780928
1.1794071
1.1807108
1.1820282
1.1835304
1.1855406
1.1884059
1.1922462
1.1966496
1.2004754
1.201974
1.1996523
1.1928663
1.1846582
1.1796084
1.1352879
1.1782941
1.1808992
1.1990539
1.2093642
1.2192803
1.2269137
1.2326601
1.2366469
1.2391142
1.2402983
1.2404326
1.2397263
1.2383621
1.2364934
1.2342471
1.231726
1.2290125
1.2261722
1.2232568
1.2203071
1.2173549
1.2144254
1.2115381
1.2087082
1.2059476
1.2032656
1.2006692
1.1981638
1.1957538
1.1934426
1.1912331
1.189128
1.1871297
1.1852401
1.1834609
1.1817935
1.180239
1.1787985
1.1774729
1.1762628
1.1751684
1.1741897
1.1733261
1.1725763
1.1719388
1.1714115
1.1709919
1.1706772
1.1704644
1.1703505
1.1703328
1.1704086
1.1705759
1.170833
1.1711785
1.1716108
1.1721282
1.172729
1.1734137
1.1741876
1.1750617
1.1760502
1.1771591
1.1783725
1.1796453
1.1809198
1.1821766
1.1835109
1.1851844
1.187572
1.1909456
1.1951314
1.1992794
1.2018707
1.2016008
1.1963948
1.1879471
1.1794699
1.1747809
1.17437
1.2135207
1.2193319
1.2347014
1.243874
1.2508075
1.2551986
1.2575959
1.2583605
1.2578601
1.2563946
1.2542134
1.251514
1.2484516
1.2451455
1.2416876
1.2381472
1.2345767
1.2310156
1.2274933
1.2240319
1.2206475
1.2173523
1.2141551
1.2110624
1.2080785
1.2052066
1.2024487
1.1998062
1.1972798
1.1948703
1.1925782
1.1904043
1.1883491
1.1864132
1.1845969
1.1829004
1.181324
1.1798678
1.1785321
1.1773166
1.176221
1.1752444
1.1743855
1.1736425
1.1730133
1.1724952
1.1720851
1.1717797
1.1715757
1.17147
1.1714599
1.1715431
1.1717184
1.1719845
1.1723402
1.1727836
1.1733118
1.1739232
1.1746202
1.1754124
1.1763159
1.1773438
1.1784901
1.179717
1.1809621
1.1821811
1.1834139
1.1848423
1.186786
1.1895775
1.193326
1.1976335
1.2013262
1.2025794
1.2000461
1.1928172
1.1835814
1.1755652
1.1714991
1.2221579
1.254769
1.2619718
1.2717929
1.2767072
1.2790405
1.2791839
1.2777888
1.2752893
1.2720324
1.2682715
1.2641937
1.2599338
1.2555895
1.25123
1.2469048
1.2426486
1.2384855
1.234432
1.2304991
1.2266941
1.2230214
1.2194835
1.2160814
1.2128153
1.2096844
1.2066879
1.2038241
1.2010916
1.1984891
1.1960153
1.1936694
1.1914506
1.1893585
1.1873925
1.1855522
1.1838369
1.1822463
1.1807801
1.1794378
1.1782188
1.1771222
1.1761467
1.1752906
1.1745516
1.173927
1.1734138
1.1730084
1.1727071
1.1725063
1.1724027
1.172394
1.1724784
1.1726557
1.1729256
1.1732877
1.1737396
1.1742777
1.1748997
1.1756095
1.1764203
1.1773515
1.1784143
1.1795916
1.1808256
1.1820397
1.1832056
1.1844305
1.185989
1.1882491
1.1914691
1.195496
1.1996222
1.2025346
1.2026337
1.1979237
1.1894565
1.1800938
1.1728369
1.169413
1.2763857
1.2970781
1.3016536
1.3040191
1.3032123
1.30054
1.2966173
1.2919354
1.2868159
1.2814775
1.2760645
1.2706727
1.2653641
1.2601786
1.255141
1.250266
1.2455614
1.2410308
1.2366743
1.2324905
1.2284768
1.2246297
1.2209455
1.2174204
1.2140506
1.2108322
1.2077615
1.2048351
1.2020497
1.1994026
1.1968914
1.1945144
1.1922701
1.1901572
1.1881745
1.1863211
1.1845958
1.1829981
1.181527
1.180182
1.1789619
1.1778657
1.1768916
1.1760377
1.1753014
1.1746798
1.1741692
1.1737659
1.1734656
1.1732646
1.1731593
1.1731474
1.1732281
1.1734021
1.1736708
1.1740347
1.1744919
1.1750384
1.1756713
1.1763942
1.1772206
1.1781687
1.1792462
1.1804289
1.1816526
1.18284
1.1839799
1.1852252
1.1869065
1.1894066
1.1929379
1.1971727
1.2010649
1.2030908
1.2020556
1.1959004
1.1867538
1.1776007
1.1710735
1.1681678
1.3293686
1.3326634
1.3314337
1.3269505
1.3210888
1.3144755
1.3075752
1.3006304
1.2937878
1.287127
1.2806914
1.2745017
1.2685652
1.2628816
1.2574457
1.2522501
1.2472858
1.2425434
1.2380137
1.2336875
1.2295563
1.2256121
1.2218477
1.2182562
1.2148316
1.211568
1.2084603
1.2055037
1.202694
1.2000275
1.1975013
1.1951129
1.1928604
1.190742
1.1887561
1.1869013
1.1851763
1.18358
1.1821114
1.1807695
1.1795533
1.1784611
1.1774913
1.1766416
1.1759093
1.175291
1.1747831
1.1743814
1.1740814
1.1738787
1.1737697
1.173752
1.1738252
1.1739912
1.1742525
1.1746103
1.175063
1.1756067
1.1762388
1.1769618
1.1777869
1.1787299
1.1797939
1.1809506
1.1821361
1.1832825
1.1843967
1.185657
1.1874214
1.1900699
1.1937633
1.1980984
1.2018494
1.2032901
1.2013707
1.1944656
1.1850283
1.1761042
1.1700599
1.1674749
1.36345
1.3558547
1.3482954
1.340002
1.3313793
1.3228425
1.3145578
1.3066001
1.2989983
1.2917558
1.2848645
1.2783102
1.272076
1.2661444
1.2604981
1.2551206
1.2499965
1.2451115
1.2404525
1.2360078
1.2317667
1.2277195
1.2238577
1.2201735
1.21666
1.2133109
1.2101204
1.2070835
1.2041957
1.201453
1.1988525
1.1963914
1.1940678
1.1918799
1.1898262
1.1879051
1.1861155
1.1844563
1.1829266
1.1815255
1.1802518
1.1791044
1.1780815
1.177181
1.1764003
1.1757363
1.1751851
1.1747426
1.1744043
1.1741657
1.174023
1.173974
1.1740184
1.1741582
1.1743964
1.1747347
1.1751717
1.1757029
1.1763245
1.1770391
1.1778585
1.1787986
1.1798622
1.1810198
1.1822072
1.1833559
1.1844691
1.1857337
1.1875427
1.1902848
1.1941222
1.1986765
1.2024591
1.2035594
1.2013962
1.1941443
1.1844928
1.1755567
1.1696333
1.167146
1.1712062
1.1820278
1.1942599
1.201378
1.203202
1.2030316
1.2024787
1.201954
1.2012804
1.200516
1.1996573
1.1987614
1.1978245
1.1968678
1.19589
1.1948982
1.193896
1.1928879
1.1918775
1.1908671
1.1898589
1.1888542
1.1878542
1.1868595
1.185871
1.1848893
1.1839154
1.1829504
1.1819957
1.1810526
1.1801228
1.1792076
1.1783086
1.1774267
1.1765629
1.1757178
1.174892
1.1740859
1.1733001
1.1725352
1.171792
1.1710711
1.1703736
1.1697002
1.1690516
1.1684288
1.1678327
1.1672643
1.1667243
1.1662133
1.1657317
1.1652799
1.164858
1.1644657
1.1641024
1.1637669
1.1634575
1.1631721
1.1629078
1.1626607
1.162426
1.1621986
1.1619729
1.1617421
1.1614961
1.1612217
1.1609013
1.1605363
1.1601058
1.1597478
1.1592504
1.1594733
1.1588963
1.1605663
1.160936
1.1610119
1.1666957
1.1577089
1.1684559
1.1615114
1.1690925
1.1825016
1.1925406
1.1970897
1.1968921
1.1961795
1.1954773
1.1949641
1.194375
1.1938047
1.1931711
1.1925318
1.191857
1.1911718
1.1904637
1.1897421
1.1890057
1.1882574
1.1874982
1.186729
1.1859508
1.1851643
1.1843703
1.1835695
1.1827628
1.1819513
1.1811364
1.1803197
1.1795031
1.1786886
1.1778784
1.1770745
1.1762791
1.1754939
1.1747204
1.1739598
1.1732134
1.1724821
1.1717669
1.1710689
1.1703893
1.1697292
1.1690898
1.1684722
1.1678775
1.167307
1.1667618
1.166243
1.1657516
1.165288
1.1648529
1.1644465
1.164069
1.16372
1.1633989
1.1631045
1.1628352
1.1625891
1.1623631
1.1621535
1.1619559
1.1617653
1.1615762
1.1613813
1.1611693
1.1609253
1.1606312
1.1602873
1.1598739
1.1595175
1.1590277
1.1591853
1.1586721
1.1602791
1.1605825
1.1609689
1.1661611
1.1573948
1.1687507
1.1608943
1.1607784
1.1761312
1.1854358
1.1887809
1.188259
1.1880282
1.1876099
1.1874032
1.1870493
1.1867522
1.1863688
1.1859987
1.1855816
1.1851587
1.1847057
1.1842368
1.1837464
1.1832384
1.1827125
1.1821695
1.18161
1.1810345
1.1804435
1.1798378
1.179218
1.1785853
1.1779408
1.1772862
1.1766234
1.1759546
1.175282
1.1746081
1.1739353
1.1732657
1.1726012
1.1719437
1.1712946
1.1706555
1.1700276
1.1694126
1.1688118
1.1682268
1.1676591
1.1671102
1.1665815
1.1660745
1.1655907
1.1651313
1.1646974
1.1642895
1.1639083
1.1635541
1.1632272
1.1629272
1.1626535
1.1624052
1.1621807
1.1619783
1.1617949
1.1616269
1.1614701
1.1613198
1.1611704
1.1610136
1.1608369
1.1606243
1.1603578
1.1600372
1.1596429
1.1592926
1.1588034
1.1589165
1.1584295
1.1599619
1.1602394
1.1608588
1.1656261
1.1571462
1.1689919
1.1601213
1.1534086
1.1712916
1.1793581
1.182049
1.1813589
1.1813768
1.1810151
1.1809591
1.1807017
1.1805519
1.1802952
1.180078
1.179808
1.1795462
1.1792549
1.1789541
1.1786339
1.1782989
1.1779473
1.1775794
1.1771948
1.1767933
1.1763749
1.1759393
1.1754869
1.1750179
1.1745331
1.1740337
1.173521
1.1729969
1.1724635
1.1719231
1.1713781
1.1708308
1.1702832
1.1697372
1.1691948
1.1686574
1.1681268
1.1676047
1.1670927
1.1665928
1.1661065
1.1656358
1.1651822
1.1647475
1.1643333
1.163941
1.1635717
1.1632261
1.162905
1.1626087
1.1623376
1.1620916
1.1618701
1.1616724
1.1614972
1.1613426
1.1612058
1.1610832
1.1609708
1.160864
1.1607566
1.1606395
1.1604989
1.1603184
1.1600806
1.1597851
1.1594123
1.1590714
1.1585815
1.1586644
1.1581739
1.1596439
1.159888
1.1606798
1.1651598
1.1569781
1.1691731
1.1591607
1.1467344
1.166815
1.1734173
1.17579
1.1750188
1.1752719
1.1749527
1.1750396
1.1748581
1.1748326
1.1746733
1.174578
1.1744203
1.1742827
1.1741148
1.1739431
1.1737533
1.173552
1.1733363
1.1731063
1.1728616
1.1726014
1.1723251
1.1720323
1.1717225
1.1713955
1.1710516
1.1706912
1.1703153
1.1699253
1.1695229
1.1691102
1.1686892
1.1682621
1.167831
1.1673978
1.1669643
1.1665322
1.1661032
1.165679
1.1652615
1.1648526
1.164454
1.1640678
1.1636957
1.1633396
1.1630011
1.1626817
1.1623826
1.1621047
1.1618487
1.1616153
1.1614047
1.1612172
1.1610525
1.1609099
1.1607882
1.1606855
1.160599
1.1605253
1.1604605
1.1603998
1.1603365
1.1602604
1.1601566
1.1600087
1.1598007
1.1595321
1.1591828
1.1588539
1.1583657
1.1584263
1.1579148
1.1593292
1.159519
1.1604432
1.1647262
1.1568903
1.1693393
1.158037
1.1409809
1.1629217
1.1681037
1.1703528
1.1694955
1.1699255
1.1696038
1.1697897
1.1696409
1.169697
1.1695972
1.1695893
1.1695094
1.1694549
1.1693685
1.1692853
1.1691874
1.1690829
1.1689677
1.1688419
1.1687046
1.1685548
1.1683915
1.1682139
1.168021
1.1678123
1.1675875
1.1673466
1.1670902
1.166819
1.1665346
1.1662384
1.1659324
1.1656185
1.1652986
1.1649743
1.1646474
1.1643195
1.1639922
1.1636671
1.163346
1.1630307
1.162723
1.1624249
1.1621382
1.1618646
1.161606
1.1613637
1.161139
1.1609329
1.1607463
1.1605798
1.1604341
1.1603093
1.1602054
1.1601219
1.1600576
1.1600104
1.1599776
1.1599559
1.1599415
1.1599292
1.1599114
1.1598769
1.1598104
1.159696
1.159519
1.1592788
1.1589549
1.1586401
1.1581573
1.1582009
1.1576595
1.1590212
1.1591336
1.1601753
1.1643424
1.1568706
1.1695257
1.1567993
1.1358046
1.159919
1.1633175
1.165529
1.1645606
1.1651394
1.1647847
1.1650539
1.1649139
1.1650377
1.164969
1.1650194
1.164983
1.1649942
1.1649714
1.1649572
1.1649291
1.1648979
1.1648588
1.1648122
1.1647572
1.1646927
1.1646176
1.164531
1.1644319
1.1643193
1.1641928
1.164052
1.1638971
1.1637287
1.1635476
1.1633553
1.1631531
1.1629428
1.162726
1.1625041
1.1622787
1.1620512
1.1618228
1.1615952
1.1613697
1.1611482
1.1609322
1.1607236
1.1605241
1.1603354
1.1601592
1.1599969
1.1598497
1.1597187
1.1596049
1.159509
1.1594318
1.1593736
1.1593345
1.1593137
1.15931
1.1593215
1.1593452
1.1593781
1.159416
1.1594536
1.1594822
1.1594898
1.159461
1.159381
1.1592364
1.1590262
1.1587291
1.1584306
1.1579572
1.1579873
1.1574127
1.15872
1.1587346
1.1598928
1.1639667
1.1568984
1.1696997
1.1554992
1.1311232
1.1576517
1.1588639
1.161186
1.1601098
1.1608195
1.1604317