/*--------------------------------*- C++ -*----------------------------------*\
  =========                 |
  \\      /  F ield         | OpenFOAM: The Open Source CFD Toolbox
   \\    /   O peration     | Website:  https://openfoam.org
    \\  /    A nd           | Version:  12
     \\/     M anipulation  |
\*---------------------------------------------------------------------------*/
FoamFile
{
    format      ascii;
    class       volScalarField;
    location    "0.009";
    object      T;
}
// * * * * * * * * * * * * * * * * * * * * * * * * * * * * * * * * * * * * * //

dimensions      [0 0 0 1 0 0 0];

internalField   nonuniform List<scalar> 
16000
(
295.26783
286.58275
289.92723
288.08906
289.21166
288.6995
289.12207
289.00983
289.20551
289.23856
289.3589
289.44422
289.54998
289.65359
289.76315
289.87608
289.99297
290.11363
290.23797
290.36596
290.49748
290.63249
290.77089
290.91264
291.05765
291.2059
291.35731
291.51184
291.6694
291.8299
291.9932
292.15912
292.3274
292.49775
292.66981
292.84317
293.01735
293.19187
293.3662
293.53981
293.71218
293.88281
294.05122
294.21699
294.37971
294.53904
294.69463
294.84619
294.99341
295.13605
295.27385
295.40662
295.53421
295.65652
295.77351
295.88517
295.99154
296.09271
296.18882
296.28008
296.36672
296.44903
296.52726
296.60141
296.67101
296.73461
296.78939
296.83052
296.84991
296.83642
296.77792
296.66232
296.48587
296.26282
296.00048
295.93465
295.57127
296.07296
296.05254
295.4129
295.01222
286.22098
289.71385
287.781
288.96508
288.41739
288.8733
288.75271
288.96254
289.00094
289.12778
289.22161
289.33411
289.44611
289.56365
289.68514
289.81075
289.94045
290.07406
290.21156
290.3528
290.49772
290.64617
290.79808
290.9533
291.11177
291.27334
291.43791
291.60533
291.77546
291.9481
292.12301
292.29991
292.47844
292.65822
292.83879
293.01965
293.20027
293.3801
293.55859
293.73519
293.90937
294.08065
294.24861
294.41283
294.57299
294.72879
294.87997
295.02628
295.16753
295.30351
295.43408
295.55913
295.67857
295.79237
295.90053
296.00304
296.09992
296.1912
296.2769
296.35705
296.43169
296.50075
296.56399
296.62079
296.66969
296.70783
296.7309
296.73245
296.70294
296.63305
296.52026
296.36467
296.18216
296.00704
295.89422
295.74356
296.11119
295.98892
295.44282
294.78244
285.89508
289.5038
287.52347
288.7444
288.18173
288.65006
288.53798
288.75213
288.80225
288.93409
289.03794
289.15796
289.27908
289.4055
289.53631
289.67145
289.81096
289.95461
290.10239
290.25409
290.40964
290.56883
290.73155
290.8976
291.06684
291.23906
291.4141
291.59173
291.77173
291.95384
292.13775
292.32311
292.50953
292.69655
292.88368
293.07039
293.25611
293.44026
293.62227
293.80158
293.97766
294.15003
294.31825
294.48194
294.64078
294.79451
294.94291
295.0858
295.22301
295.35442
295.47989
295.59935
295.71271
295.81993
295.92093
296.01566
296.10402
296.18588
296.26104
296.32934
296.39059
296.44449
296.49068
296.52876
296.55806
296.57686
296.58245
296.57188
296.54073
296.48339
296.40005
296.29756
296.18037
296.07606
295.99015
295.96292
296.21512
295.94596
295.46635
294.57135
285.59571
289.31432
287.29607
288.55905
287.97219
288.45212
288.3501
288.5681
288.63117
288.76862
288.88329
289.01172
289.14274
289.27892
289.41991
289.56547
289.71567
289.87023
290.02913
290.19209
290.35903
290.52966
290.70382
290.88124
291.06169
291.2449
291.43062
291.61854
291.80835
291.99971
292.19225
292.38553
292.57912
292.77249
292.9651
293.1564
293.34578
293.53266
293.71645
293.89658
294.07255
294.24387
294.41012
294.57095
294.72606
294.87522
295.01828
295.15509
295.28555
295.40956
295.52704
295.6379
295.74207
295.83946
295.92995
296.0134
296.08959
296.15827
296.21912
296.27188
296.31629
296.35213
296.3792
296.39763
296.40811
296.41148
296.40755
296.39703
296.38007
296.35921
296.32894
296.29283
296.25821
296.22293
296.18843
296.22637
296.37409
295.94271
295.52128
294.36325
285.31347
289.12704
287.06905
288.37733
287.78208
288.26857
288.18155
288.40035
288.479
288.62258
288.74918
288.88725
289.02923
289.17638
289.3287
289.48583
289.64784
289.81438
289.98543
290.16063
290.33984
290.52272
290.70903
290.89841
291.09058
291.28514
291.48177
291.68005
291.8796
292.07997
292.2807
292.48129
292.68122
292.87992
293.07681
293.27128
293.46273
293.65056
293.83418
294.01306
294.18669
294.35463
294.51648
294.67193
294.82071
294.96266
295.09766
295.22563
295.34652
295.46026
295.56682
295.66613
295.75811
295.84266
295.91964
295.98885
296.05006
296.10295
296.14725
296.18279
296.2095
296.22777
296.23811
296.24128
296.23934
296.23681
296.23645
296.24203
296.25838
296.28796
296.32888
296.37081
296.41408
296.4463
296.46849
296.53965
296.58284
295.99248
295.63736
294.14679
285.04296
288.93908
286.8508
288.17894
287.60513
288.09662
288.0268
288.24553
288.34136
288.49234
288.63208
288.78133
288.93552
289.09497
289.25988
289.42978
289.60478
289.78443
289.96869
290.15712
290.34954
290.54549
290.74469
290.94665
291.15103
291.35729
291.56502
291.77368
291.98279
292.19178
292.40011
292.6072
292.81244
293.01521
293.2149
293.41087
293.60251
293.78923
293.97049
294.14577
294.31461
294.47663
294.63147
294.77887
294.91866
295.05071
295.17498
295.29145
295.40014
295.50105
295.59418
295.67952
295.75704
295.82667
295.88831
295.94183
295.98706
296.02383
296.0521
296.07194
296.08363
296.08824
296.08819
296.08557
296.08249
296.08531
296.1016
296.13711
296.19836
296.28608
296.39626
296.51823
296.63502
296.72918
296.80353
296.89435
296.83947
296.11859
295.83333
293.9193
284.78301
288.74957
286.65468
287.98517
287.44076
287.94349
287.88579
288.11091
288.22045
288.38027
288.53407
288.69595
288.8635
289.03654
289.2153
289.39928
289.58852
289.78255
289.98124
290.18407
290.39078
290.60081
290.81378
291.02909
291.24624
291.46461
291.68362
291.90263
292.12101
292.3381
292.55324
292.76577
292.97502
293.18031
293.38101
293.57648
293.76612
293.94939
294.12579
294.29487
294.45626
294.60963
294.75473
294.89139
295.01953
295.1391
295.25017
295.35282
295.44713
295.5332
295.61113
295.681
295.74287
295.79686
295.84305
295.88133
295.91175
295.93447
295.94996
295.9589
295.96204
295.96057
295.95729
295.96004
295.96804
295.98872
296.03079
296.10291
296.21035
296.35461
296.52923
296.71869
296.90047
297.05207
297.17658
297.28255
297.14524
296.34075
296.12271
293.68465
284.53611
288.56177
286.47317
287.81201
287.29337
287.7889
287.76192
287.98767
288.1207
288.29087
288.45968
288.63579
288.81822
289.00648
289.20077
289.40054
289.60576
289.81584
290.03059
290.24937
290.47181
290.69721
290.92505
291.15459
291.38518
291.61603
291.84643
292.07557
292.30271
292.52706
292.74787
292.96439
293.1759
293.38171
293.58118
293.7737
293.95873
294.1358
294.3045
294.46449
294.61553
294.7574
294.89
295.01327
295.12726
295.23208
295.3279
295.41491
295.49335
295.56343
295.62539
295.67946
295.7259
295.76507
295.79744
295.82283
295.84171
295.85437
295.86224
295.86668
295.86928
295.8727
295.87891
295.88959
295.91628
295.96266
296.03619
296.14463
296.29363
296.48417
296.70955
296.95332
297.19028
297.39706
297.57292
297.69527
297.49809
296.66607
296.51497
293.44684
284.30483
288.37699
286.30562
287.65174
287.16861
287.64028
287.63945
287.89191
288.04717
288.23057
288.41629
288.60913
288.80882
289.01478
289.22704
289.44503
289.66856
289.89698
290.1299
290.3666
290.6065
290.84877
291.09268
291.33733
291.58188
291.82538
292.06694
292.3056
292.54049
292.7707
292.99542
293.21383
293.4252
293.62886
293.82421
294.01072
294.18797
294.3556
294.51337
294.6611
294.7987
294.92616
295.04354
295.15097
295.24866
295.33688
295.41596
295.48626
295.54818
295.60209
295.64842
295.68759
295.7201
295.74651
295.76746
295.78334
295.79528
295.80449
295.81138
295.81728
295.82474
295.8374
295.85839
295.89138
295.94137
296.01438
296.11699
296.25576
296.43579
296.65855
296.91915
297.20336
297.48693
297.74698
297.97712
298.12372
297.89782
297.08979
296.9716
293.21043
284.09455
288.20131
286.15833
287.50545
287.04662
287.54489
287.60709
287.83221
288.01048
288.21114
288.41684
288.6298
288.85006
289.07693
289.31033
289.54956
289.79429
290.04372
290.29726
290.55401
290.81317
291.07372
291.3347
291.595
291.85358
292.10929
292.36108
292.60785
292.8486
293.08236
293.30826
293.5255
293.73339
293.93132
294.11882
294.29552
294.46117
294.61562
294.75883
294.89087
295.01187
295.12206
295.22171
295.31118
295.39086
295.46123
295.52279
295.57609
295.62171
295.66022
295.69226
295.71849
295.73962
295.75616
295.76833
295.77838
295.78724
295.79631
295.80747
295.82269
295.84416
295.87299
295.91248
295.96677
296.03994
296.1367
296.26225
296.42202
296.62087
296.86162
297.14273
297.45436
297.77589
298.08637
298.37403
298.55833
298.34074
297.60123
297.4214
292.98115
283.91325
288.05138
286.04123
287.41135
287.02437
287.50591
287.58039
287.82269
288.02773
288.2503
288.47967
288.71676
288.96141
289.21298
289.47111
289.735
290.00405
290.27728
290.55385
290.83261
291.11249
291.39223
291.67061
291.94629
292.218
292.48441
292.74431
292.99651
293.23992
293.47357
293.69662
293.90834
294.10819
294.29573
294.47072
294.63301
294.78263
294.91971
295.0445
295.15735
295.25868
295.34898
295.42877
295.49864
295.5592
295.61112
295.65511
295.69189
295.72222
295.74689
295.76671
295.78257
295.79537
295.80612
295.81594
295.82597
295.83754
295.85213
295.87142
295.89721
295.93151
295.97647
296.03449
296.10823
296.20069
296.31527
296.45587
296.62702
296.83371
297.08064
297.3701
297.69741
298.04739
298.40248
298.74846
298.98932
298.82561
298.18828
297.88057
292.76846
283.77338
287.94355
285.997
287.37177
287.00156
287.49252
287.62414
287.88425
288.11912
288.36865
288.62612
288.89174
289.16511
289.44545
289.73214
290.02415
290.32057
290.62016
290.92171
291.22381
291.52503
291.82383
292.11869
292.40805
292.69042
292.96434
293.22847
293.48161
293.72269
293.95084
294.16536
294.36576
294.55173
294.72316
294.8801
295.02278
295.15155
295.2669
295.36943
295.45981
295.53876
295.60703
295.6654
295.71467
295.75568
295.78927
295.81632
295.83772
295.85438
295.86724
295.8773
295.88557
295.89313
295.9011
295.91069
295.92316
295.93988
295.96227
295.99181
296.03
296.07842
296.13868
296.21242
296.30141
296.40762
296.53334
296.68153
296.85614
297.06256
297.3073
297.59602
297.92866
298.29601
298.68655
299.08627
299.4
299.34974
298.8534
298.33162
292.58563
283.69498
287.89434
286.01363
287.38037
287.11067
287.5739
287.75516
288.03725
288.30603
288.58798
288.87848
289.17751
289.4842
289.79762
290.11668
290.4401
290.76648
291.09425
291.42175
291.74721
292.06882
292.38474
292.69317
292.99234
293.28062
293.55649
293.81865
294.06598
294.29763
294.51297
294.71164
294.89352
295.05871
295.20752
295.34044
295.45809
295.56126
295.65081
295.72769
295.79288
295.8474
295.89222
295.92837
295.95681
295.97856
295.9946
296.00594
296.01358
296.01854
296.02185
296.0246
296.02788
296.03281
296.04055
296.05228
296.06921
296.09253
296.12345
296.16312
296.21268
296.27317
296.3456
296.43095
296.53022
296.6446
296.77564
296.92567
297.09844
297.29974
297.53733
297.81892
298.14769
298.52037
298.93375
299.37971
299.77958
299.8951
299.57246
298.77474
292.44688
283.69468
287.91945
286.16714
287.46455
287.28506
287.75491
287.9882
288.30173
288.60951
288.93
289.25931
289.59715
289.9421
290.29286
290.64777
291.00511
291.36291
291.71914
292.07165
292.41828
292.75682
293.08518
293.40133
293.70344
293.98986
294.25925
294.5105
294.74287
294.9559
295.14945
295.32368
295.479
295.61603
295.73561
295.8387
295.92639
295.99986
296.06033
296.10906
296.14731
296.17629
296.19719
296.21117
296.21935
296.22283
296.2227
296.22001
296.21583
296.21119
296.20717
296.20484
296.20527
296.20953
296.2187
296.23382
296.2559
296.28591
296.32472
296.37312
296.4318
296.50133
296.58224
296.67497
296.78002
296.89805
297.03019
297.17852
297.34679
297.54097
297.76908
298.03912
298.35587
298.72187
299.14468
299.6272
300.1135
300.42869
300.28985
299.18028
292.36289
283.79353
288.03643
286.38248
287.66721
287.57521
288.05418
288.34477
288.69858
289.0522
289.41828
289.79283
290.17509
290.56294
290.9545
291.3474
291.73935
292.12771
292.50997
292.88342
293.24556
293.59389
293.92617
294.24039
294.53487
294.80829
295.05972
295.28863
295.49487
295.67867
295.84057
295.98139
296.10218
296.20416
296.28868
296.35716
296.4111
296.45201
296.4814
296.50075
296.51149
296.51497
296.51249
296.50527
296.49451
296.48135
296.46687
296.45214
296.4382
296.42605
296.4167
296.41113
296.41031
296.41518
296.42662
296.44547
296.47249
296.50834
296.55356
296.60859
296.67372
296.7492
296.83517
296.93179
297.03921
297.15786
297.28871
297.43386
297.5971
297.78416
298.00206
298.25741
298.55538
298.90476
299.32618
299.83748
300.40524
300.91116
300.96518
299.55238
292.33871
284.01516
288.25196
286.72493
287.97875
287.99313
288.49354
288.84814
289.25288
289.66043
290.07946
290.50544
290.93684
291.37068
291.80434
292.23463
292.65854
293.07277
293.47428
293.85997
294.22712
294.57321
294.89625
295.19459
295.46716
295.71335
295.93305
296.12661
296.29476
296.43857
296.55939
296.65876
296.73833
296.79987
296.84515
296.87598
296.89412
296.9013
296.8992
296.8894
296.87338
296.85255
296.8282
296.80158
296.77385
296.74613
296.71945
296.69482
296.67316
296.65541
296.64243
296.63505
296.63407
296.64022
296.65416
296.67647
296.70764
296.74803
296.79789
296.85737
296.92652
297.00534
297.0938
297.19186
297.29957
297.41728
297.54606
297.68814
297.84721
298.0281
298.23567
298.47414
298.74902
299.07642
299.49217
300.02913
300.66364
301.29924
301.53596
299.89306
292.38336
284.39229
288.55589
287.20431
288.43445
288.56671
289.10201
289.52877
289.99494
290.46433
290.94258
291.42438
291.90714
292.38686
292.85996
293.32232
293.77021
294.19974
294.60757
294.99056
295.34628
295.67275
295.96873
296.23358
296.46731
296.67044
296.84402
296.98948
297.10855
297.20317
297.27545
297.32751
297.36152
297.37959
297.38379
297.3761
297.35843
297.33256
297.30019
297.26288
297.22207
297.17911
297.13525
297.09164
297.04939
297.00949
296.9729
296.94049
296.91306
296.89138
296.87614
296.868
296.86751
296.87519
296.89145
296.91663
296.95094
296.99452
297.04739
297.10953
297.18083
297.26119
297.3505
297.44866
297.55574
297.67221
297.79934
297.93945
298.09573
298.27134
298.46843
298.68897
298.94044
299.24741
299.65965
300.22243
300.90468
301.57806
301.93289
300.15267
292.50934
284.98615
288.99283
287.85548
289.06445
289.32915
289.9144
290.42114
290.95784
291.49535
292.03656
292.5751
293.10695
293.62684
294.13012
294.61184
295.0678
295.49406
295.88764
296.24617
296.56826
296.85327
297.10144
297.31362
297.49132
297.63645
297.75131
297.83837
297.90026
297.93963
297.95909
297.96116
297.94825
297.92263
297.88642
297.84162
297.79008
297.73353
297.67354
297.61155
297.54888
297.48675
297.42628
297.36851
297.31441
297.26484
297.22061
297.18243
297.15094
297.12674
297.11032
297.10212
297.10248
297.11168
297.12991
297.15728
297.1938
297.23944
297.29408
297.35762
297.42991
297.51082
297.60021
297.69803
297.80447
297.92028
298.04694
298.18657
298.34117
298.51164
298.69775
298.90135
299.13457
299.43055
299.84689
300.43392
301.14857
301.79981
302.13152
300.24992
292.74501
285.83414
289.60705
288.71897
289.90947
290.31738
290.96853
291.56239
292.17635
292.78508
293.38818
293.97785
294.54833
295.09319
295.60707
296.08494
296.52311
296.91873
297.2703
297.57727
297.84027
298.06067
298.24064
298.38282
298.49024
298.56611
298.61376
298.63644
298.63735
298.61949
298.58568
298.53852
298.4804
298.41351
298.33985
298.26127
298.17943
298.09585
298.01193
297.92891
297.84792
297.77
297.69612
297.62716
297.56392
297.5071
297.45734
297.4152
297.38113
297.35554
297.33872
297.33092
297.33228
297.34287
297.36268
297.39166
297.42969
297.47661
297.53228
297.59656
297.66932
297.75043
297.83979
297.93747
298.04392
298.16019
298.28782
298.42818
298.58143
298.74613
298.92121
299.11184
299.33769
299.6384
300.06927
300.67026
301.37438
301.92987
302.11089
300.16123
293.13557
286.76001
290.42492
289.83092
291.01371
291.573
292.30709
292.99402
293.68693
294.3623
295.01592
295.63861
296.22352
296.76413
297.25582
297.69516
298.08058
298.41181
298.69008
298.91756
299.09741
299.23327
299.32921
299.3894
299.41805
299.41922
299.39678
299.35432
299.29515
299.22225
299.13831
299.04573
298.94667
298.84306
298.73662
298.62893
298.52138
298.41524
298.31165
298.21162
298.11607
298.02587
297.94178
297.8645
297.79467
297.73282
297.67941
297.63483
297.59937
297.57325
297.5566
297.54948
297.55186
297.56367
297.58476
297.61495
297.65405
297.70187
297.75827
297.82312
297.89631
297.97773
298.06738
298.16556
298.27304
298.39106
298.52081
298.66227
298.81351
298.9718
299.13776
299.32302
299.55637
299.87984
300.33242
300.91696
301.54494
301.98048
301.84391
299.92999
293.74022
288.00644
291.50232
291.24177
292.43721
293.15351
293.98181
294.75934
295.5192
296.23963
296.91358
297.53208
298.08939
298.58135
299.00648
299.36498
299.65908
299.8922
300.06889
300.19422
300.27366
300.31266
300.3166
300.2905
300.23907
300.1666
300.07691
299.97345
299.85922
299.73687
299.60869
299.47671
299.34268
299.20818
299.07458
298.94313
298.81491
298.69092
298.57203
298.45901
298.35259
298.25341
298.16208
298.07911
298.00495
297.93997
297.88448
297.8387
297.80277
297.77675
297.76064
297.75434
297.75773
297.77061
297.79276
297.82395
297.86395
297.91261
297.96977
298.03534
298.1092
298.19131
298.28185
298.38141
298.49108
298.61198
298.7443
298.88625
299.03433
299.18638
299.34797
299.53911
299.79567
300.15676
300.6314
301.16569
301.63428
301.85054
301.37101
299.62094
294.618
289.61739
292.92296
293.03102
294.25846
295.12528
296.03841
296.88116
297.67016
298.38765
299.02746
299.58435
300.05718
300.44707
300.75784
300.99475
301.16443
301.27396
301.33072
301.34186
301.31422
301.25407
301.16711
301.05839
300.93238
300.79295
300.64345
300.48677
300.32534
300.16127
299.99634
299.83207
299.6698
299.5107
299.35578
299.20597
299.06204
298.92472
298.79463
298.67233
298.55835
298.45316
298.35716
298.27073
298.19413
298.1276
298.07127
298.02524
297.98952
297.96404
297.94869
297.9433
297.94764
297.96149
297.98459
298.01671
298.05765
298.10725
298.16539
298.23195
298.30684
298.39015
298.48231
298.58426
298.69714
298.82145
298.95582
299.09677
299.24066
299.38905
299.55527
299.76723
300.0597
300.4541
300.92611
301.3754
301.64691
301.56222
300.84086
299.27568
295.75068
291.72222
294.79293
295.28142
296.54184
297.52911
298.47982
299.32532
300.07245
300.71189
301.24391
301.6711
301.99986
302.2383
302.39608
302.48316
302.50955
302.48467
302.41724
302.31505
302.18497
302.03295
301.8641
301.68275
301.49256
301.29662
301.09748
300.89729
300.69784
300.50059
300.30679
300.1175
299.93362
299.75596
299.58521
299.42199
299.26681
299.12016
298.98245
298.85406
298.73533
298.62657
298.52803
298.43993
298.36239
298.29551
298.23931
298.19374
298.15871
298.13408
298.11964
298.11518
298.12045
298.13521
298.15922
298.19229
298.23424
298.28494
298.34424
298.41204
298.48831
298.57335
298.66791
298.77312
298.88975
299.01709
299.1521
299.29043
299.43063
299.5806
299.76238
300.00849
300.3448
300.76264
301.19549
301.50559
301.54014
301.14838
300.28071
298.94616
297.29777
294.43106
297.20504
298.04253
299.27734
300.32794
301.22398
301.97164
302.58039
303.05386
303.40296
303.64015
303.77972
303.83579
303.82208
303.75105
303.63386
303.48013
303.29813
303.09476
302.8758
302.64601
302.40931
302.16888
301.92735
301.68683
301.44905
301.2154
300.987
300.76479
300.54952
300.34184
300.14229
299.95138
299.76953
299.59709
299.43439
299.2817
299.13927
299.00731
298.88604
298.77562
298.67616
298.58775
298.51039
298.44406
298.38867
298.34408
298.31011
298.28654
298.27313
298.26964
298.27583
298.29147
298.3164
298.35043
298.39344
298.44527
298.50576
298.57484
298.65267
298.73988
298.8375
298.94649
299.06671
299.19585
299.32958
299.46441
299.60359
299.76321
299.97206
300.25941
300.63291
301.05092
301.4057
301.57066
301.32076
300.67524
299.75041
298.67041
299.30681
297.81056
300.14838
301.28281
302.48733
303.36619
304.0839
304.61827
304.99248
305.2251
305.338
305.35159
305.28498
305.1548
304.97535
304.75853
304.51414
304.25013
303.97286
303.68745
303.39792
303.10748
302.81868
302.5335
302.25352
301.97998
301.71384
301.45585
301.2066
300.96656
300.73611
300.51557
300.30524
300.10536
299.91614
299.73776
299.57038
299.41412
299.2691
299.13542
299.01317
298.90241
298.80313
298.71532
298.63889
298.5737
298.5196
298.47635
298.44369
298.42136
298.40909
298.40661
298.41371
298.43022
298.45603
298.491
298.53499
298.58781
298.6493
298.71949
298.79887
298.88847
298.98948
299.10224
299.22515
299.35426
299.48507
299.61711
299.7599
299.93672
300.1804
300.51238
300.91067
301.30222
301.552
301.49513
301.01059
300.20254
299.2987
298.45923
301.80125
301.83542
303.87606
304.86566
305.7738
306.39372
306.80512
307.02954
307.10432
307.0595
306.92256
306.71597
306.45821
306.16387
305.84445
305.50882
305.16384
304.81473
304.46549
304.11912
303.77791
303.4436
303.11748
302.80051
302.49342
302.19674
301.91084
301.63598
301.37236
301.12011
300.87934
300.65015
300.43262
300.22686
300.0329
299.85082
299.68063
299.52236
299.37605
299.24171
299.11934
299.00891
298.91035
298.82355
298.74836
298.68457
298.63194
298.59016
298.55893
298.53791
298.52679
298.52532
298.53331
298.55063
298.57723
298.61304
298.6579
298.71156
298.77386
298.84498
298.92578
299.01773
299.12199
299.23798
299.36222
299.48928
299.61584
299.74692
299.90044
300.10367
300.38233
300.74618
301.15207
301.48065
301.62822
301.34296
300.66912
299.78078
298.94575
298.31041
304.92439
306.34445
307.69166
308.40405
308.88797
309.09871
309.12009
308.99445
308.76337
308.45757
308.101
307.71135
307.30178
306.88187
306.45859
306.03697
305.62061
305.21209
304.81321
304.42524
304.04903
303.68517
303.33401
302.99577
302.67058
302.35844
302.05933
301.77319
301.49993
301.23946
300.99173
300.75668
300.53428
300.32451
300.12733
299.9427
299.7706
299.61097
299.4638
299.32904
299.20665
299.09653
298.99858
298.91263
298.83848
298.77588
298.72451
298.68403
298.65405
298.6342
298.62412
298.62354
298.63228
298.65028
298.67758
298.71416
298.75991
298.81456
298.87792
298.95023
299.03257
299.12659
299.23336
299.3515
299.47616
299.60092
299.72369
299.8544
300.01965
300.2536
300.57063
300.95191
301.34577
301.61139
301.59587
301.14701
300.34884
299.44214
298.69229
298.21067
308.95141
310.76008
311.30773
311.4959
311.43845
311.19802
310.83802
310.40139
309.91889
309.41149
308.89352
308.37461
307.8612
307.35753
306.86634
306.38935
305.92759
305.48162
305.05165
304.63774
304.23975
303.85751
303.49076
303.13925
302.80269
302.48079
302.17326
301.87984
301.60028
301.33436
301.08192
300.84282
300.61696
300.40423
300.20456
300.01787
299.84407
299.6831
299.5349
299.39941
299.27655
299.1662
299.06824
298.98249
298.90871
298.84663
298.79589
298.75612
298.72688
298.70773
298.6983
298.69826
298.70745
298.72589
298.75369
298.79099
298.83778
298.89386
298.95901
299.03342
299.11795
299.2139
299.32183
299.43991
299.56317
299.68601
299.80828
299.94232
300.11734
300.3727
300.72071
301.10929
301.46672
301.68476
301.52228
300.95652
300.09075
299.19895
298.52605
298.14786
313.98433
314.36011
314.08422
313.7082
313.17507
312.56968
311.92819
311.27652
310.6291
309.99469
309.37817
308.78219
308.20799
307.65597
307.12598
306.61763
306.1303
305.66331
305.21595
304.78753
304.37735
303.98479
303.60924
303.25017
302.90706
302.57946
302.26692
301.96906
301.68555
301.41609
301.16045
300.91846
300.68995
300.47482
300.27293
300.08418
299.90849
299.74577
299.59594
299.45895
299.3347
299.22309
299.12397
299.03716
298.96244
298.89952
298.84805
298.80762
298.77777
298.75806
298.74806
298.74743
298.75604
298.77393
298.80135
298.83856
298.8857
298.9426
299.00913
299.08535
299.17176
299.26902
299.37704
299.49356
299.61408
299.73463
299.85746
299.99674
300.18097
300.44802
300.81125
301.20681
301.53383
301.70586
301.46202
300.82162
299.92585
299.05312
298.43093
298.11247
316.01002
316.17924
315.59411
314.81873
314.02537
313.23034
312.45421
311.70473
310.98539
310.29725
309.64001
309.01276
308.41422
307.84305
307.29782
306.77718
306.27984
305.80459
305.35033
304.91605
304.50083
304.10386
303.72439
303.36176
303.01537
302.68468
302.3692
302.06849
301.78217
301.50992
301.25148
301.00664
300.77524
300.55713
300.35221
300.16034
299.98146
299.81546
299.6623
299.52191
299.3942
299.27909
299.17645
299.08609
299.00782
298.94137
298.8864
298.84252
298.80929
298.78623
298.77292
298.76903
298.77444
298.78926
298.81378
298.84832
298.89304
298.94789
299.01272
299.08753
299.17271
299.26877
299.37548
299.49071
299.61025
299.73062
299.85487
299.99728
300.18392
300.45445
300.83683
301.25491
301.56398
301.73164
301.45803
300.78719
299.87332
299.00054
298.3932
298.09746
310.46086
307.51025
304.37319
302.57068
302.03375
301.92586
301.86295
301.75417
301.63796
301.5225
301.41417
301.30935
301.20612
301.10201
300.99732
300.89213
300.78646
300.68026
300.5736
300.46671
300.35985
300.25339
300.14764
300.04296
299.93964
299.83791
299.73794
299.6398
299.54348
299.44894
299.35607
299.26479
299.17503
299.08679
299.0001
298.91505
298.83174
298.75033
298.67094
298.59368
298.51866
298.44595
298.37563
298.30778
298.2425
298.17986
298.1199
298.0627
298.00833
297.95692
297.90853
297.86321
297.82094
297.78171
297.74549
297.71219
297.68169
297.65375
297.62806
297.60417
297.58159
297.55979
297.53818
297.516
297.49216
297.46527
297.43348
297.39677
297.35356
297.31688
297.26863
297.28449
297.234
297.37865
297.44487
297.41096
298.04339
297.10394
298.2089
297.46104
308.36137
304.77858
302.12234
300.86783
300.7982
300.85035
300.86958
300.83334
300.79507
300.74516
300.69422
300.63774
300.57779
300.51356
300.44591
300.37482
300.30064
300.22359
300.14399
300.06227
299.97883
299.89412
299.80859
299.72267
299.63673
299.55113
299.46609
299.38182
299.29841
299.21589
299.13425
299.05349
298.97358
298.89457
298.81653
298.7396
298.66393
298.58972
298.51714
298.44635
298.3775
298.31069
298.24605
298.18368
298.1237
298.06621
298.01128
297.95898
297.90942
297.86272
297.81896
297.77816
297.74031
297.70539
297.67336
297.64417
297.61768
297.59367
297.57184
297.55178
297.53303
297.51507
297.49731
297.4789
297.45864
297.43498
297.40602
297.37154
297.33003
297.2932
297.24558
297.25503
297.21188
297.35109
297.40833
297.40899
297.98406
297.06997
298.24428
297.38412
307.62494
303.53608
301.07985
300.14947
300.19204
300.17021
300.17593
300.13369
300.10967
300.0729
300.04178
300.00499
299.96693
299.92514
299.88057
299.83276
299.78191
299.72801
299.67121
299.61175
299.54992
299.48607
299.42055
299.35377
299.28607
299.21781
299.14925
299.08061
299.01204
298.9436
298.87533
298.80723
298.73933
298.67167
298.60437
298.53757
298.47149
298.40633
298.34233
298.27969
298.21858
298.15916
298.1016
298.04603
297.99259
297.9414
297.89256
297.84616
297.80233
297.76117
297.72279
297.68719
297.65437
297.62432
297.59702
297.5724
297.55035
297.53069
297.51312
297.49726
297.48268
297.46888
297.45522
297.44078
297.42422
297.40389
297.37786
297.34589
297.30636
297.27004
297.22218
297.22769
297.18752
297.32164
297.37449
297.40012
297.93428
297.04223
298.27441
297.29168
306.89262
302.17118
300.07656
299.35957
299.48714
299.447
299.48064
299.44832
299.44642
299.42465
299.41265
299.39287
299.37314
299.34966
299.32383
299.29487
299.26297
299.22801
299.19008
299.14934
299.106
299.06032
299.0126
298.96317
298.91237
298.86049
298.80779
298.75449
298.70072
298.64657
298.59206
298.53721
298.48203
298.42657
298.37093
298.31528
298.25983
298.20482
298.1505
298.09709
298.04481
297.99386
297.94442
297.89665
297.85072
297.80676
297.76488
297.72519
297.68784
297.65293
297.62057
297.59077
297.56355
297.53889
297.5168
297.49723
297.48007
297.46516
297.45223
297.44093
297.43084
297.42147
297.41215
297.40184
297.38908
297.37216
297.34922
297.32001
297.28278
297.24742
297.19918
297.20202
297.16154
297.29076
297.33986
297.38477
297.88318
297.02238
298.30001
297.18139
306.30673
301.02381
299.32396
298.71657
298.89275
298.82495
298.87785
298.84523
298.85767
298.84308
298.84318
298.83355
298.82566
298.81423
298.80114
298.78538
298.76712
298.74615
298.72252
298.69629
298.66761
298.63664
298.60364
298.56886
298.53257
298.49503
298.45648
298.41708
298.37698
298.33622
298.29483
298.25279
298.2101
298.16678
298.12292
298.07867
298.03422
297.9898
297.94569
297.90211
297.85931
297.81748
297.77684
297.73757
297.69983
297.66376
297.62949
297.59715
297.56687
297.53879
297.51299
297.48951
297.46837
297.44959
297.43317
297.41908
297.40723
297.39747
297.38953
297.3831
297.37778
297.37307
297.36824
297.36215
297.35324
297.3398
297.32009
297.29384
297.25919
297.22518
297.17687
297.17772
297.13469
297.25988
297.30336
297.36393
297.83984
297.01106
298.32393
297.05675
305.78154
300.01836
298.69273
298.13506
298.3504
298.2594
298.33146
298.29702
298.32136
298.31144
298.32081
298.31885
298.3196
298.31699
298.31325
298.3073
298.29924
298.2889
298.27624
298.26129
298.24414
298.22492
298.20381
298.18103
298.15681
298.13136
298.10491
298.0776
298.04954
298.02078
297.9913
297.96108
297.93008
297.8983
297.86579
297.83265
297.79905
297.76523
297.73142
297.69787
297.6648
297.63244
297.60098
297.57061
297.54149
297.51378
297.48759
297.46306
297.44032
297.41951
297.40073
297.38402
297.36941
297.35695
297.34663
297.33845
297.3323
297.32803
297.3254
297.32411
297.32378
297.32391
297.32366
297.32181
297.31678
297.3069
297.29055
297.26743
297.2356
297.20327
297.15538
297.15462
297.10783
297.22893
297.26472
297.33944
297.79735
297.0075
298.34549
296.92041
305.34621
299.01895
298.15725
297.61893
297.8692
297.75317
297.84317
297.80309
297.83769
297.82881
297.84501
297.84701
297.85446
297.85802
297.86099
297.86215
297.86157
297.85911
297.8547
297.84834
297.84007
297.83001
297.8183
297.80512
297.79068
297.77518
297.75882
297.74173
297.72401
297.70569
297.68675
297.66713
297.64677
297.62563
297.60372
297.58112
297.55795
297.5344
297.5107
297.48708
297.46374
297.44091
297.41877
297.39749
297.37724
297.35815
297.34034
297.32395
297.30911
297.29594
297.28455
297.27501
297.26735
297.26161
297.2578
297.25588
297.25577
297.2573
297.26025
297.26432
297.26915
297.2742
297.27856
297.28095
297.27979
297.27354
297.26068
297.24087
297.21204
297.18168
297.13475
297.13276
297.08151
297.19778
297.22405
297.31311
297.76064
297.00977
298.36567
296.77682
304.95961
298.0055
297.7067
297.15067
297.43374