/*--------------------------------*- C++ -*----------------------------------*\
  =========                 |
  \\      /  F ield         | OpenFOAM: The Open Source CFD Toolbox
   \\    /   O peration     | Website:  https://openfoam.org
    \\  /    A nd           | Version:  12
     \\/     M anipulation  |
\*---------------------------------------------------------------------------*/
FoamFile
{
    format      ascii;
    class       volVectorField;
    location    "0.009";
    object      U;
}
// * * * * * * * * * * * * * * * * * * * * * * * * * * * * * * * * * * * * * //

dimensions      [0 1 -1 0 0 0 0];

internalField   nonuniform List<vector> 
16000
(
(212.67637 -3.1526774e-17 -8.2748172)
(250.68734 0 5.3214909)
(236.44405 0 -7.5060817)
(244.40941 4.9815444e-17 3.7590771)
(239.62789 -4.9179864e-17 -5.928202)
(241.85366 0 1.7550726)
(240.03959 0 -4.3221317)
(240.56097 8.4179768e-17 -0.01873314)
(239.72006 -7.9979467e-17 -3.1596244)
(239.60545 0 -1.2614258)
(239.09264 7.2266689e-17 -2.5633118)
(238.74478 -2.0589145e-16 -1.9820886)
(238.29989 1.3031959e-16 -2.4214095)
(237.8688 -1.2396295e-16 -2.359453)
(237.40913 1.1762041e-16 -2.5208946)
(236.93526 -3.4899674e-18 -2.5935871)
(236.44276 -3.3153532e-18 -2.6976161)
(235.9328 -9.7804636e-17 -2.7909761)
(235.40509 1.9162523e-16 -2.8860507)
(234.85972 -9.0920167e-17 -2.9788495)
(234.29675 1.7293784e-16 -3.0697267)
(233.71626 -1.639342e-16 -3.1579483)
(233.11837 0 -3.242988)
(232.50325 1.5258999e-16 -3.3242368)
(231.87111 -4.1350555e-18 -3.4010846)
(231.22223 -2.6630844e-16 -3.4728931)
(230.55696 1.2621976e-16 -3.5390253)
(229.87571 0 -3.5988356)
(229.17902 0 -3.6516902)
(228.46752 2.1917406e-16 -3.6969659)
(227.74198 -2.0421164e-16 -3.7340681)
(227.00329 0 -3.7624319)
(226.25252 0 -3.7815367)
(225.49092 0 -3.790914)
(224.71991 5.1519278e-18 -3.7901583)
(223.9411 1.5631717e-16 -3.7789339)
(223.15628 -1.4309619e-16 -3.7569869)
(222.3674 -1.4013958e-16 -3.7241502)
(221.57653 1.2408581e-16 -3.6803561)
(220.78582 0 -3.6256435)
(219.99744 -1.1874427e-16 -3.5601651)
(219.21355 1.1208281e-16 -3.4841946)
(218.43622 -2.1239305e-16 -3.398128)
(217.66748 2.0039025e-16 -3.3024839)
(216.90921 -1.9568584e-16 -3.1978992)
(216.16325 3.5826065e-16 -3.0851213)
(215.43131 5.5990715e-18 -2.9649959)
(214.71499 2.842981e-19 -2.8384436)
(214.01581 -1.507736e-16 -2.7064311)
(213.33515 1.4257574e-16 -2.5699467)
(212.67425 -1.2594152e-16 -2.4299872)
(212.03421 0 -2.2875485)
(211.41594 7.4833281e-18 -2.1436089)
(210.82019 0 -1.9990997)
(210.24753 6.6579923e-18 -1.8548711)
(209.69835 2.0730356e-16 -1.7116566)
(209.17297 -3.7888651e-16 -1.5700226)
(208.67162 1.0955484e-17 -1.4302899)
(208.19457 1.6834199e-16 -1.2924401)
(207.74218 -1.4898112e-16 -1.1560385)
(207.31502 1.4032957e-16 -1.0201541)
(206.91403 -8.8268068e-18 -0.88327291)
(206.54076 0 -0.74326585)
(206.1979 0 -0.59753178)
(205.88977 -1.112182e-16 -0.44326393)
(205.62288 1.1188327e-16 -0.27793045)
(205.40697 -9.9107777e-17 -0.10042035)
(205.25634 1.9341152e-16 0.087637231)
(205.18913 -1.8867341e-16 0.28206051)
(205.22657 8.3647492e-17 0.47507828)
(205.38901 5.2706995e-18 0.65533418)
(205.68478 0 0.80903647)
(206.10379 4.729158e-18 0.90448202)
(206.5902 -4.4869712e-18 0.92480214)
(207.1754 0 0.81535832)
(206.97622 -3.3420493e-17 0.41428565)
(208.40322 6.2064421e-17 0.86231425)
(205.96682 -3.1407101e-17 -1.4324046)
(207.2148 0 1.4016545)
(206.12985 0 -2.0958075)
(213.81827 0 -11.059666)
(252.2045 -3.7371193e-18 3.2959014)
(237.26101 -1.20141e-16 -10.408264)
(245.73393 1.1072291e-16 1.6987919)
(240.61509 0 -8.7654723)
(243.06497 1.0188182e-16 -0.37538398)
(241.05464 -1.8814213e-16 -7.0428564)
(241.66078 -1.0074569e-19 -2.2741671)
(240.72731 8.4790769e-17 -5.72584)
(240.61404 0 -3.6358355)
(240.06139 -1.5316055e-16 -5.0162497)
(239.68562 1.4982577e-16 -4.4029833)
(239.20973 1.4249727e-16 -4.8293293)
(238.74532 -2.6232132e-16 -4.7686222)
(238.25222 1.2059232e-16 -4.9104323)
(237.74309 1.1087802e-17 -4.9761303)
(237.2144 1.1593088e-16 -5.064858)
(236.667 -1.0325139e-16 -5.1446319)
(236.10078 0 -5.2237071)
(235.51585 0 -5.2993705)
(234.91236 5.6989537e-18 -5.3714957)
(234.2905 -1.7873437e-16 -5.4393598)
(233.65051 3.3891531e-16 -5.5023245)
(232.9927 -3.1668235e-16 -5.5596991)
(232.31746 1.4313499e-16 -5.6107828)
(231.62525 0 -5.6548583)
(230.91662 1.2482744e-16 -5.6912049)
(230.19222 -1.3385731e-16 -5.719107)
(229.45282 0 -5.7378685)
(228.69929 3.5388858e-18 -5.7468181)
(227.93263 -1.3417683e-17 -5.7453269)
(227.15401 0 -5.732817)
(226.36472 0 -5.7087743)
(225.56622 -1.7115564e-16 -5.6727616)
(224.76016 3.3985561e-16 -5.6244295)
(223.94833 -1.6319307e-16 -5.5635235)
(223.13272 -1.5956732e-16 -5.4898993)
(222.31545 1.4604883e-16 -5.4035265)
(221.49875 -1.1247514e-16 -5.3045025)
(220.68491 -2.7644758e-19 -5.1930583)
(219.87623 -2.5807576e-19 -5.0695639)
(219.07496 2.3342845e-16 -4.9345292)
(218.28324 -1.101327e-16 -4.7885986)
(217.50308 0 -4.6325432)
(216.73638 2.0288172e-16 -4.4672537)
(215.98485 1.1947964e-17 -4.2937327)
(215.2501 -5.1479654e-18 -4.1130834)
(214.53356 -1.6492974e-16 -3.9264841)
(213.83656 0 -3.7351551)
(213.16028 -1.4686609e-16 -3.5403242)
(212.50574 -8.861789e-18 -3.3432063)
(211.87382 2.6063439e-16 -3.1449909)
(211.26525 -1.3034547e-16 -2.9468235)
(210.68061 0 -2.7497759)
(210.12034 -2.0416096e-17 -2.5548118)
(209.58479 -2.1154004e-16 -2.3627469)
(209.07424 3.6183052e-16 -2.1741955)
(208.589 -2.1558675e-16 -1.9894857)
(208.12952 0 -1.808547)
(207.69648 -1.7099062e-16 -1.6308198)
(207.29098 1.7967735e-16 -1.4551161)
(206.91457 2.6704296e-17 -1.2794592)
(206.56954 0 -1.100921)
(206.25944 -1.4195047e-16 -0.91569053)
(205.98965 7.3349968e-18 -0.71937911)
(205.76774 1.1173625e-16 -0.5072892)
(205.60372 -1.9725265e-17 -0.27514981)
(205.51126 9.2934928e-17 -0.021628176)
(205.50718 -1.0503498e-16 0.25013232)
(205.60685 5.5043369e-18 0.53094018)
(205.82108 -5.189798e-18 0.80348825)
(206.13771 0 1.0387973)
(206.53726 -4.6199611e-18 1.1869112)
(206.95906 4.3633572e-18 1.212437)
(207.28769 8.2528832e-18 1.0051919)
(207.40795 9.7714759e-19 0.68651903)
(207.94448 0 0.60161873)
(206.27302 2.9976133e-17 -1.6741856)
(207.30523 -5.7190125e-17 1.2342069)
(206.02344 2.5535969e-17 -3.0989099)
(214.81079 0 -13.916334)
(253.55594 -1.2292682e-16 1.0780285)
(238.07335 2.5083439e-16 -13.393579)
(246.83109 -2.239217e-16 -0.52806229)
(241.46313 1.106012e-16 -11.677536)
(244.06439 -3.2738963e-18 -2.693008)
(241.93331 9.9677086e-17 -9.8097596)
(242.56122 -9.4406401e-17 -4.7226117)
(241.57184 -5.6055849e-18 -8.3539907)
(241.43502 -5.322492e-18 -6.17225)
(240.84803 -1.0110839e-17 -7.5644168)
(240.43744 1.3946258e-16 -6.9564693)
(239.92744 -1.4136805e-16 -7.3516562)
(239.42611 1.387445e-16 -7.2976185)
(238.89568 -1.1919346e-16 -7.4177284)
(238.34776 -1.5621347e-17 -7.4748224)
(237.77915 0 -7.5473606)
(237.1907 -9.3431872e-21 -7.6116231)
(236.58234 -2.2721246e-16 -7.6729563)
(235.95427 -3.5915062e-19 -7.7293404)
(235.30673 1.7415477e-16 -7.7803607)
(234.64003 1.7106554e-17 -7.8252243)
(233.95459 -2.1635665e-17 -7.8631783)
(233.25087 0 -7.8934242)
(232.52949 4.0643537e-21 -7.9151586)
(231.79113 -1.6607566e-16 -7.9275663)
(231.0366 1.483687e-16 -7.9298459)
(230.26684 8.2787886e-18 -7.92121)
(229.48288 0 -7.9009132)
(228.68592 -7.4265644e-18 -7.8682528)
(227.87725 -4.4228778e-21 -7.8225955)
(227.05833 -1.9991398e-16 -7.7633833)
(226.23076 2.0134337e-16 -7.6901526)
(225.39627 1.1931747e-17 -7.6025465)
(224.55676 -1.80579e-16 -7.5003249)
(223.71427 1.4903711e-16 -7.3833763)
(222.871 -1.8157253e-16 -7.2517294)
(222.02923 1.5219412e-16 -7.1055612)
(221.19136 -1.4407997e-16 -6.945204)
(220.35981 1.3579342e-16 -6.7711532)
(219.53696 1.6052926e-17 -6.584064)
(218.72512 0 -6.3847432)
(217.92644 2.0022218e-16 -6.1741346)
(217.14293 -2.4235029e-16 -5.953303)
(216.3764 0 -5.7234216)
(215.62846 1.7982046e-16 -5.4857665)
(214.90054 -1.5780947e-16 -5.241704)
(214.19391 1.7022441e-16 -4.992665)
(213.50966 -1.8005301e-16 -4.7401045)
(212.84875 0 -4.4854619)
(212.21197 1.7748467e-16 -4.230132)
(211.60001 -1.333969e-16 -3.9754478)
(211.01343 0 -3.7226595)
(210.45267 0 -3.4729036)
(209.91815 1.2493002e-16 -3.2271666)
(209.4102 -2.0862627e-16 -2.9862425)
(208.92922 1.2246652e-16 -2.7506769)
(208.4757 1.842592e-16 -2.520681)
(208.05035 1.6201585e-19 -2.2960086)
(207.65424 1.3924691e-19 -2.0758679)
(207.28895 -3.2418391e-16 -1.8587668)
(206.95656 8.9486605e-17 -1.6423094)
(206.65971 0 -1.4229096)
(206.40191 1.4208696e-16 -1.1956684)
(206.18807 -1.6296159e-16 -0.9548111)
(206.02491 1.1131758e-16 -0.69443518)
(205.92017 1.3089033e-17 -0.40867071)
(205.88196 -8.5865969e-17 -0.09368568)
(205.92085 1.1534433e-17 0.24729744)
(206.04275 2.1630408e-17 0.60111803)
(206.24324 -1.016746e-16 0.94323801)
(206.50899 9.5667548e-17 1.2343375)
(206.8074 -7.1911006e-17 1.4069341)
(207.08623 1.3546549e-16 1.4126274)
(207.26316 -5.5853585e-17 1.1591725)
(207.42848 -6.0148889e-17 0.83154911)
(207.47333 4.9720832e-17 0.26469613)
(206.32824 0 -1.7905321)
(207.36467 3.1784635e-18 1.0277067)
(205.91816 -1.2132757e-17 -4.0977379)
(215.6692 0 -16.838992)
(254.77131 0 -1.2685902)
(238.71904 0 -16.505817)
(247.75939 1.070449e-16 -2.8499562)
(242.11387 -1.2431114e-16 -14.71653)
(244.92165 -2.2136977e-16 -5.1266537)
(242.65899 2.1054661e-16 -12.693483)
(243.31165 -1.247155e-17 -7.2954338)
(242.26159 5.9368535e-18 -11.089791)
(242.09814 -1.7461981e-16 -8.8356049)
(241.47364 1.7095237e-16 -10.218406)
(241.02418 1.015761e-17 -9.6285806)
(240.47674 -1.5427014e-16 -9.9832943)
(239.93463 1.3704929e-16 -9.9366078)
(239.36314 -1.186691e-20 -10.032938)
(238.7725 -8.2209094e-18 -10.078923)
(238.16007 0 -10.133361)
(237.52659 -7.4181256e-18 -10.17957)
(236.87215 -2.111903e-16 -10.220577)
(236.19705 2.1325154e-16 -10.254788)
(235.5017 1.2655861e-17 -10.281529)
(234.78659 -1.1998669e-17 -10.299891)
(234.05233 2.1623358e-16 -10.308994)
(233.29966 -1.7224801e-16 -10.307922)
(232.52944 1.0212838e-17 -10.295768)
(231.74265 1.936568e-16 -10.271633)
(230.94041 -1.2811092e-16 -10.234649)
(230.12398 0 -10.183989)
(229.29476 1.4799916e-16 -10.118887)
(228.45426 -1.2423136e-16 -10.038654)
(227.60415 2.5033317e-16 -9.942692)
(226.74621 -1.3392335e-17 -9.8305171)
(225.88238 -2.1026611e-16 -9.7017691)
(225.0147 1.7436664e-16 -9.5562275)
(224.14534 -1.878442e-16 -9.3938233)
(223.27659 -2.5757155e-20 -9.214651)
(222.41084 2.0993557e-16 -9.0189779)
(221.55057 -3.1682278e-16 -8.8072514)
(220.69829 9.3256393e-17 -8.5801047)
(219.85648 3.5288762e-17 -8.3383549)
(219.02758 -4.9900072e-17 -8.0829935)
(218.21388 0 -7.8151667)
(217.4175 -8.8776512e-17 -7.5361484)
(216.64037 1.390574e-16 -7.2473168)
(215.88417 -2.0990972e-16 -6.9501388)
(215.15035 1.972412e-16 -6.6461622)
(214.44012 -2.0915472e-16 -6.3370028)
(213.75452 3.9324121e-16 -6.0243149)
(213.09439 -3.0814755e-16 -5.7097487)
(212.4604 3.0897118e-16 -5.3949024)
(211.85315 -1.4504288e-16 -5.0812912)
(211.27309 1.364636e-16 -4.7703259)
(210.72063 -9.595816e-17 -4.4632903)
(210.19609 3.0059444e-17 -4.1613091)
(209.69985 0 -3.8653118)
(209.23226 0 -3.5759878)
(208.7938 0 -3.293734)
(208.38511 2.3277738e-17 -3.0185739)
(208.00705 0 -2.7500332)
(207.66083 -1.6366502e-16 -2.4870493)
(207.34813 1.915815e-16 -2.2278367)
(207.07103 -1.0775049e-16 -1.9697373)
(206.83193 -5.0260647e-20 -1.7089732)
(206.63331 2.5207687e-16 -1.440205)
(206.47779 2.9554748e-17 -1.1566012)
(206.36869 -1.3815619e-16 -0.85134473)
(206.31011 5.181764e-17 -0.51901883)
(206.30273 -1.4539387e-16 -0.15510922)
(206.34728 -4.5363931e-17 0.23777643)
(206.44463 -6.3789214e-17 0.6441427)
(206.56965 -5.9744662e-17 1.0308238)
(206.7221 5.6026562e-17 1.3524807)
(206.88915 0 1.5279638)
(206.99357 0 1.5253401)
(207.04971 -1.5399432e-17 1.2672344)
(207.11881 0 0.88511848)
(206.97509 6.7944829e-18 0.060578177)
(206.20491 5.1160708e-17 -1.8101859)
(207.35332 -7.2465356e-17 0.83940469)
(205.68746 -2.4823189e-19 -5.0837281)
(216.4289 0 -19.958008)
(255.87207 -8.8479427e-18 -3.6930654)
(239.28356 2.6780854e-16 -19.758562)
(248.59415 -2.5003867e-16 -5.2932579)
(242.66604 2.5517541e-16 -17.870283)
(245.64363 -2.334446e-16 -7.7091772)
(243.25832 -2.2251671e-16 -15.679009)
(243.92567 2.1065427e-16 -10.020027)
(242.82021 0 -13.922135)
(242.6197 0 -11.640676)
(241.95674 1.8051871e-16 -12.977884)
(241.46251 -1.7102165e-16 -12.424697)
(240.87339 -1.0159103e-17 -12.72926)
(240.28551 2.889277e-17 -12.68985)
(239.66791 -9.1443035e-18 -12.761205)
(239.02946 3.4679015e-17 -12.793263)
(238.36809 0 -12.82755)
(237.68457 0 -12.852743)
(236.97915 -2.3684134e-16 -12.870214)
(236.25234 2.100586e-16 -12.878549)
(235.50474 0 -12.876866)
(234.73708 0 -12.864145)
(233.95024 -1.9109792e-16 -12.839379)
(233.14524 3.6163641e-16 -12.801564)
(232.32326 -1.7104164e-16 -12.749714)
(231.48562 -2.0262421e-17 -12.682872)
(230.63382 -3.8368351e-17 -12.600137)
(229.76947 -1.4538248e-16 -12.500677)
(228.89438 1.2003939e-16 -12.383751)
(228.01047 0 -12.248726)
(227.1198 -3.0727777e-17 -12.095098)
(226.22455 0 -11.922514)
(225.32701 0 -11.730785)
(224.42956 2.0743905e-16 -11.519899)
(223.53468 -2.1986804e-16 -11.290035)
(222.64491 2.3065919e-17 -11.041571)
(221.76283 -2.1762356e-17 -10.775093)
(220.89104 -4.1112687e-17 -10.491397)
(220.03213 -5.9201417e-20 -10.191488)
(219.18861 5.5265984e-20 -9.876566)
(218.36287 -5.1078894e-20 -9.548008)
(217.55712 0 -9.2073345)
(216.77338 -1.2202641e-16 -8.856174)
(216.01341 1.1459648e-16 -8.4962308)
(215.27868 0 -8.1292654)
(214.5704 -5.0746485e-17 -7.7570863)
(213.88954 1.9079875e-16 -7.3815315)
(213.23682 -2.2370115e-16 -7.004438)
(212.61276 -2.1035352e-16 -6.6275943)
(212.01777 1.5774148e-16 -6.2526915)
(211.45214 1.1118953e-16 -5.8812912)
(210.91609 -1.3883148e-16 -5.5148038)
(210.40981 -3.2556864e-17 -5.1544679)
(209.93349 -2.1368492e-16 -4.8013193)
(209.48738 1.143111e-16 -4.456157)
(209.07178 -1.0715837e-16 -4.1195032)
(208.6871 1.0024549e-16 -3.7915566)
(208.33389 2.3470184e-16 -3.4721314)
(208.01289 -1.7559877e-16 -3.160559)
(207.72497 0 -2.8555957)
(207.47122 -3.8434658e-17 -2.5552509)
(207.25282 -7.1897918e-17 -2.2566829)
(207.07087 1.3426445e-16 -1.9562949)
(206.92613 1.2548896e-16 -1.6494859)
(206.81798 -2.3449859e-16 -1.3298168)
(206.74443 8.2237754e-17 -0.98944748)
(206.7033 5.1219036e-17 -0.62323763)
(206.69048 9.5599192e-17 -0.22891169)
(206.69415 1.3398865e-16 0.19149611)
(206.7048 2.3748034e-20 0.62270986)
(206.72632 0 1.0308187)
(206.74456 0 1.3701013)
(206.72434 -3.4073669e-17 1.575413)
(206.68367 9.5549321e-17 1.5702221)
(206.62776 -8.9366095e-17 1.3195682)
(206.60561 -8.3653802e-17 0.89566779)
(206.3858 5.216597e-17 -0.086317463)
(205.93919 0 -1.6605634)
(207.19383 4.5903208e-17 0.68495109)
(205.26365 4.3656973e-19 -6.0438195)
(217.1189 0 -23.255085)
(256.86994 2.3548978e-20 -6.2074343)
(239.75996 9.1150993e-18 -23.126931)
(249.3324 2.8957277e-16 -7.8829543)
(243.15981 3.2570776e-19 -21.136552)
(246.24197 -5.0793819e-16 -10.445434)
(243.73103 -3.1385511e-19 -18.761692)
(244.41307 4.5808734e-16 -12.90347)
(243.25018 -2.1076094e-16 -16.851663)
(243.00431 -1.249628e-17 -14.592225)
(242.29945 1.1874885e-17 -15.850142)
(241.75319 -1.8027748e-16 -15.349405)
(241.11655 1.9206389e-16 -15.59784)
(240.47679 -1.8249261e-16 -15.563246)
(239.80721 3.0741171e-16 -15.608364)
(239.11525 -3.097273e-16 -15.622464)
(238.39946 1.3804348e-16 -15.633153)
(237.66064 0 -15.632948)
(236.89924 0 -15.622138)
(236.11597 1.470591e-17 -15.599388)
(235.31168 -2.7865164e-17 -15.563658)
(234.48736 0 -15.513828)
(233.6442 2.0014397e-16 -15.448788)
(232.78358 4.533163e-19 -15.367454)
(231.90705 -3.5820313e-16 -15.268773)
(231.01634 1.692518e-16 -15.151755)
(230.11339 2.0028634e-17 -15.015495)
(229.20029 0 -14.85919)
(228.27928 -1.7931367e-16 -14.682174)
(227.35278 1.3523305e-16 -14.483931)
(226.42329 -2.2418924e-16 -14.264123)
(225.49344 2.1106063e-16 -14.02261)
(224.56592 -2.2834655e-16 -13.759458)
(223.64346 2.1495053e-16 -13.474962)
(222.72883 7.6162877e-17 -13.169643)
(221.8248 0 -12.844261)
(220.93409 0 -12.499812)
(220.05938 4.2465918e-17 -12.137523)
(219.20326 3.9993642e-17 -11.758839)
(218.36814 -3.7649647e-17 -11.365398)
(217.55629 3.542808e-17 -10.959002)
(216.76974 6.6753398e-17 -10.541568)
(216.01027 -6.2767862e-17 -10.115087)
(215.27935 3.5364999e-16 -9.6815852)
(214.57817 -2.7659415e-16 -9.2430996)
(213.90761 5.1939951e-17 -8.8016672)
(213.26824 -4.8798959e-17 -8.3593033)
(212.66043 0 -7.9179681)
(212.08432 2.1459876e-16 -7.4795173)
(211.53993 -1.6073277e-16 -7.0456569)
(211.0272 0 -6.6179124)
(210.54604 0 -6.1976143)
(210.09633 1.3214822e-16 -5.7858811)
(209.67799 -6.1738111e-17 -5.3835918)
(209.29101 0 -4.9913644)
(208.93542 -1.6213605e-16 -4.6095367)
(208.61127 1.0097618e-16 -4.2381063)
(208.31868 1.4157158e-16 -3.8766941)
(208.05776 -1.7622234e-16 -3.5245265)
(207.82861 1.6457557e-16 -3.1804022)
(207.63116 -1.5356248e-16 -2.8424921)
(207.46477 -1.080229e-19 -2.5080571)
(207.32806 0 -2.1735089)
(207.21889 6.236236e-17 -1.8351804)
(207.134 -2.9044174e-16 -1.4888481)
(207.06705 1.6251398e-16 -1.1279044)
(207.00871 0 -0.74594286)
(206.95048 -1.4115798e-16 -0.34105627)
(206.88246 8.7640063e-17 0.083709813)
(206.79074 1.2256787e-16 0.51614513)
(206.66971 8.8154454e-20 0.92978414)
(206.5242 -7.0916865e-17 1.2806104)
(206.35962 9.9243928e-17 1.5038034)
(206.18331 -1.54133e-16 1.5268849)
(206.03649 8.6275433e-17 1.3272855)
(205.93937 2.6726306e-17 0.89116036)
(205.70464 5.0008087e-17 -0.13784388)
(205.54582 0 -1.4142522)
(206.85322 -4.3640023e-17 0.56630023)
(204.61893 1.9953321e-17 -6.9439086)
(217.72866 0 -26.729889)
(257.76038 9.8493945e-18 -8.8298852)
(240.14281 -3.0720056e-16 -26.623239)
(249.9668 2.5071914e-16 -10.622229)
(243.52488 2.5752229e-16 -24.51032)
(246.70712 -5.0221589e-16 -13.343807)
(244.03551 2.3100919e-16 -21.938498)
(244.75438 2.3384092e-16 -15.96425)
(243.51182 -2.216123e-16 -19.888604)
(243.22955 3.9435438e-17 -17.706008)
(242.4796 0 -18.849422)
(241.87461 0 -18.410266)
(241.1852 -2.2441533e-17 -18.597132)
(240.48818 -1.7030802e-16 -18.560738)
(239.76129 1.4096248e-16 -18.576485)
(239.01055 1.9107533e-17 -18.566778)
(238.23506 -3.621868e-17 -18.548803)
(237.43567 3.0916187e-16 -18.517547)
(236.61308 -2.2724133e-16 -18.472575)
(235.76825 2.4658659e-16 -18.412486)
(234.90235 -2.0377218e-16 -18.336062)
(234.01674 2.76077e-17 -18.24204)
(233.11305 1.5693841e-16 -18.129192)
(232.19308 -1.9739687e-16 -17.996344)
(231.2589 0 -17.842392)
(230.31277 0 -17.666343)
(229.35717 0 -17.467332)
(228.39475 -1.9758814e-16 -17.244661)
(227.42833 1.8618234e-16 -16.997815)
(226.46084 -3.524188e-17 -16.726494)
(225.49532 0 -16.430634)
(224.53485 -2.8258231e-16 -16.110425)
(223.58253 2.3624955e-16 -15.766314)
(222.64144 -5.5822661e-17 -15.39902)
(221.71459 1.579259e-16 -15.009532)
(220.8049 -4.908322e-17 -14.599101)
(219.91517 -1.8618533e-16 -14.169232)
(219.04803 2.1953678e-16 -13.721666)
(218.20594 -1.6485471e-16 -13.258348)
(217.39111 7.7676343e-17 -12.781401)
(216.60551 -7.2989279e-17 -12.293069)
(215.85085 1.3700458e-16 -11.79567)
(215.1285 -6.4278354e-17 -11.291544)
(214.43953 -2.4168811e-16 -10.783012)
(213.78467 5.0966717e-16 -10.272344)
(213.16432 -2.1225061e-16 -9.7617486)
(212.5786 -1.4946055e-16 -9.2533494)
(212.02735 9.3072518e-17 -8.7491505)
(211.51027 8.733475e-17 -8.250991)
(211.02688 -1.6348947e-16 -7.7605044)
(210.57667 1.5277707e-16 -7.2790983)
(210.15908 0 -6.8079487)
(209.77357 1.3361977e-16 -6.3479892)
(209.41959 -1.8711302e-16 -5.8998874)
(209.09666 5.8243965e-17 -5.4640529)
(208.80424 5.4388101e-17 -5.0406916)
(208.54168 0 -4.6296605)
(208.3083 0 -4.2304513)
(208.10315 0 -3.8422336)
(207.92504 0 -3.4638936)
(207.77231 0 -3.094115)
(207.64244 -7.1344209e-17 -2.7311082)
(207.53162 0 -2.3720451)
(207.43413 7.9673367e-20 -2.0131383)
(207.34326 2.2985081e-16 -1.6513919)
(207.25124 -2.1377985e-16 -1.2833922)
(207.14685 -9.9422987e-17 -0.90355572)
(207.01792 -1.8496214e-16 -0.50776527)
(206.85361 2.5776479e-16 -0.096487373)
(206.64633 1.8105403e-20 0.32283464)
(206.3966 7.4228793e-17 0.73137342)
(206.11486 0 1.0929538)
(205.81975 0 1.3482254)
(205.53884 0 1.4288368)
(205.31893 -1.1103957e-16 1.3054737)
(205.16306 0 0.88739784)
(204.94525 -9.5955807e-17 -0.098363517)
(205.02966 1.338267e-16 -1.0601852)
(206.2846 8.3104007e-17 0.46972047)
(203.73678 -1.8607311e-17 -7.7433091)
(218.22604 0 -30.388428)
(258.52574 0 -11.5649)
(240.40866 3.230637e-16 -30.253045)
(250.48276 1.9363122e-17 -13.51491)
(243.77894 -2.7019636e-16 -27.989826)
(247.01547 0 -16.423603)
(244.23889 1.6195544e-17 -25.216138)
(244.90936 -3.0664382e-17 -19.214447)
(243.6318 0 -23.033598)
(243.26697 1.9338058e-16 -20.977257)
(242.47066 -4.1869039e-16 -21.972773)
(241.80158 1.9825459e-16 -21.597079)
(241.05423 2.3511044e-17 -21.72029)
(240.29417 0 -21.674592)
(239.5036 2.1122722e-17 -21.658332)
(238.68736 -3.4050878e-16 -21.619546)
(237.84517 7.508894e-17 -21.568006)
(236.97811 2.5091263e-16 -21.500037)
(236.08728 2.3824263e-16 -21.414633)
(235.17404 -2.57018e-16 -21.310234)
(234.24006 0 -21.185418)
(233.28722 -2.8830893e-16 -21.03879)
(232.31771 2.4482784e-16 -20.869022)
(231.33396 -2.0630018e-16 -20.674899)
(230.33868 1.944561e-16 -20.455339)
(229.33479 -1.8424015e-16 -20.209426)
(228.32544 3.4755804e-16 -19.936448)
(227.31394 -1.6394449e-16 -19.635925)
(226.30374 1.5507205e-16 -19.307634)
(225.29836 -2.9229375e-16 -18.951641)
(224.30139 1.3759816e-16 -18.568306)
(223.31635 1.2991268e-16 -18.158306)
(222.34671 -2.450827e-16 -17.722626)
(221.39581 5.6990159e-17 -17.262558)
(220.46681 -5.2878873e-19 -16.779691)
(219.56266 2.5497723e-16 -16.275884)
(218.68607 0 -15.753244)
(217.83945 1.1267824e-19 -15.214095)
(217.02495 0 -14.660928)
(216.24439 -7.9596866e-17 -14.096361)
(215.49924 -1.4956228e-16 -13.523079)
(214.79067 7.0113234e-17 -12.943775)
(214.11948 0 -12.361092)
(213.4861 -6.1741208e-17 -11.777578)
(212.89067 2.8913965e-16 -11.19566)
(212.33294 -3.2458747e-16 -10.617629)
(211.81243 -3.0401896e-16 -10.045618)
(211.32837 2.8406537e-16 -9.4815771)
(210.87984 -1.7715769e-16 -8.9272297)
(210.46579 0 -8.3840468)
(210.08513 0 -7.8532405)
(209.7367 7.2183674e-17 -7.3357707)
(209.41933 6.7349265e-17 -6.8323421)
(209.13185 1.2562793e-16 -6.3433838)
(208.87301 -5.8531203e-17 -5.8691043)
(208.64139 -1.0910154e-16 -5.4096078)
(208.43558 -2.0328847e-16 -4.9646828)
(208.25388 -9.4623683e-17 -4.533845)
(208.09412 1.760834e-16 -4.1164093)
(207.95344 0 -3.7113897)
(207.82826 -7.6130185e-17 -3.3177548)
(207.71423 -1.4156491e-16 -2.9344376)
(207.6058 1.3149964e-16 -2.5604035)
(207.49575 6.1103024e-17 -2.193657)
(207.37547 5.6688077e-17 -1.8306357)
(207.23586 0 -1.4681953)
(207.06671 1.9552523e-16 -1.1025387)
(206.85721 1.8143858e-16 -0.72877055)
(206.59873 -2.5258852e-16 -0.34343286)
(206.28831 7.8077182e-17 0.053032856)
(205.93203 -7.2545643e-17 0.45128669)
(205.5463 -3.7278296e-19 0.82465553)
(205.15582 2.4927528e-16 1.1215631)
(204.79646 -2.3115232e-16 1.2797784)
(204.51622 5.3270698e-17 1.2457197)
(204.31054 1.4906404e-16 0.89211791)
(204.12446 -4.6152477e-17 0.026481046)
(204.39408 -4.2529675e-17 -0.62522363)
(205.47894 0 0.37684384)
(202.64453 3.63862e-17 -8.3902987)
(218.5899 3.93356e-16 -34.250441)
(259.15702 5.1854289e-19 -14.424249)
(240.54407 -3.5986551e-16 -34.039091)
(250.86397 0 -16.593582)
(243.89958 0 -31.59215)
(247.14495 -2.6833798e-16 -19.719119)
(244.30764 2.7143598e-16 -28.599524)
(244.94885 6.4361789e-17 -22.648951)
(243.54992 -2.4431758e-16 -26.265408)
(243.10181 2.3109427e-16 -24.384364)
(242.25214 -2.4691995e-16 -25.213608)
(241.50886 2.0756253e-16 -24.90056)
(240.69333 -4.9230326e-17 -24.963846)
(239.85974 -4.6642014e-17 -24.902601)
(238.99473 -1.7688709e-16 -24.852092)
(238.10232 1.6708273e-16 -24.778834)
(237.18294 -3.5677748e-16 -24.687738)
(236.23809 5.9966434e-16 -24.575826)
(235.2694 -2.8333445e-16 -24.441704)
(234.27885 -2.6878124e-16 -24.283684)
(233.26873 2.5348332e-16 -24.100213)
(232.24162 -3.0097898e-17 -23.889833)
(231.20045 -2.2716048e-16 -23.651209)
(230.14842 2.1400487e-16 -23.383197)
(229.08903 2.5340198e-16 -23.084851)
(228.02599 -1.4297624e-16 -22.755487)
(226.96322 0 -22.394699)
(225.90477 2.5550985e-16 -22.00241)
(224.85475 -3.2092314e-16 -21.578876)
(223.8173 1.1303278e-16 -21.124722)
(222.79647 -2.8540364e-16 -20.640932)
(221.79617 2.010444e-16 -20.128858)
(220.82012 -6.3287507e-17 -19.590199)
(219.87175 2.3801922e-16 -19.026978)
(218.95419 -2.2328856e-16 -18.441515)
(218.0702 -2.1037336e-16 -17.836381)
(217.22216 1.9719862e-16 -17.214357)
(216.41204 -4.6283646e-17 -16.578384)
(215.6414 0 -15.931509)
(214.91139 8.1721631e-17 -15.276821)
(214.22277 -7.6416483e-17 -14.617396)
(213.57588 0 -13.956225)
(212.97074 1.3437086e-16 -13.296156)
(212.40697 -6.2813006e-17 -12.639857)
(211.88389 -1.7636342e-16 -11.989787)
(211.4005 5.4969122e-16 -11.348192)
(210.95554 -2.0555457e-16 -10.717092)
(210.54756 9.6006264e-17 -10.098262)
(210.17491 -2.6886743e-16 -9.4932042)
(209.83588 -1.1502744e-19 -8.903137)
(209.52868 1.5592018e-16 -8.3290086)
(209.25146 -1.4539735e-16 -7.7715177)
(209.00233 -6.7724778e-17 -7.2311276)
(208.77929 -6.3071255e-17 -6.7080816)
(208.58018 -1.1741472e-16 -6.20243)
(208.40271 2.1841229e-16 -5.7139998)
(208.2446 0 -5.2424836)
(208.10296 9.4419371e-17 -4.7875179)
(207.97438 -3.507811e-16 -4.3488595)
(207.85478 2.4428725e-16 -3.9261709)
(207.7393 7.5611276e-17 -3.5188357)
(207.62216 1.4028036e-16 -3.1261097)
(207.4967 1.3014295e-16 -2.7472823)
(207.35602 -1.2059204e-16 -2.3814157)
(207.19209 -1.1173267e-16 -2.0268098)
(206.99577 -3.1087162e-16 -1.6805836)
(206.75893 -1.2593216e-19 -1.3383619)
(206.47432 -8.8850375e-17 -0.99398791)
(206.13777 0 -0.64024592)
(205.75043 -2.2877612e-16 -0.27103944)
(205.3212 7.0437299e-17 0.11347334)
(204.86707 0 0.49685652)
(204.41293 1.2105304e-16 0.83783498)
(203.9971 0 1.0814267)
(203.66395 1.0354741e-16 1.1557497)
(203.41033 -1.4324117e-16 0.90336448)
(203.2562 1.3269839e-16 0.22033148)
(203.6479 -8.1435384e-17 -0.13610936)
(204.45817 7.5245319e-17 0.25427841)
(201.37631 0 -8.7888343)
(218.80089 -4.1290699e-16 -38.327426)
(259.64048 3.640179e-16 -17.421118)
(240.52617 -3.3355362e-16 -38.017358)
(251.09259 3.31671e-16 -19.893893)
(243.8461 3.1750964e-16 -35.312781)
(247.17545 -1.8090746e-17 -23.226354)
(244.1335 -2.842572e-16 -32.040561)
(244.58176 -2.698492e-16 -26.255683)
(243.23873 2.8711178e-16 -29.605556)
(242.6931 0 -27.940928)
(241.77622 2.8669914e-17 -28.595302)
(240.94363 0 -28.334626)
(240.04505 -1.2883481e-16 -28.339621)
(239.12373 2.4326206e-16 -28.252835)
(238.17034 0 -28.161481)
(237.18843 0 -28.044507)
(236.17919 0 -27.903822)
(235.14469 3.9116609e-17 -27.736782)
(234.08729 0 -27.541712)
(233.00973 -2.4488169e-16 -27.316843)
(231.91513 3.2984709e-16 -27.060556)
(230.80699 1.2481137e-16 -26.771434)
(229.68915 1.7701352e-16 -26.448251)
(228.56576 -2.7791408e-16 -26.090085)
(227.44126 -5.2424551e-17 -25.696311)
(226.32027 -2.4786899e-16 -25.26668)
(225.20754 1.8653156e-16 -24.801322)
(224.10789 -2.2029918e-16 -24.300803)
(223.02607 8.2506926e-17 -23.766102)
(221.96673 7.7978515e-17 -23.198646)
(220.93429 0 -22.600272)
(219.93284 2.7705785e-16 -21.973213)
(218.96611 -2.6011196e-16 -21.320063)
(218.03738 0 -20.643722)
(217.14943 -2.2996517e-16 -19.947346)
(216.3045 2.1542006e-16 -19.234287)
(215.50431 -1.0139475e-16 -18.508019)
(214.75003 1.8997492e-16 -17.772084)
(214.04232 -2.6686545e-16 -17.030023)
(213.38137 1.0489666e-19 -16.285308)
(212.76689 -1.5594232e-16 -15.541284)
(212.19821 -7.3011805e-17 -14.801096)
(211.67429 -1.368555e-16 -14.067641)
(211.19381 2.5524349e-16 -13.343537)
(210.75511 -1.1919586e-16 -12.631109)
(210.35635 0 -11.932401)
(209.99542 -1.6863994e-19 -11.249171)
(209.6701 9.6921351e-17 -10.582892)
(209.378 0 -9.9347391)
(209.11668 8.4229627e-17 -9.3055962)
(208.88365 7.8557291e-17 -8.6960902)
(208.67632 -7.3011099e-17 -8.1066247)
(208.49206 2.7178969e-16 -7.5374197)
(208.32809 -2.5267615e-16 -6.9885715)
(208.1815 -1.1743344e-16 -6.4599847)
(208.04925 -1.0907891e-16 -5.9512296)
(207.92794 1.0127111e-16 -5.4620349)
(207.8137 1.8791545e-16 -4.992275)
(207.70225 -3.4858891e-16 -4.5416902)
(207.58887 4.0399419e-16 -4.1102041)
(207.46822 -1.496997e-16 -3.6979245)
(207.33435 1.387162e-16 -3.3049587)
(207.18099 -1.2844033e-16 -2.9309201)
(207.00168 2.3783191e-16 -2.5750803)
(206.7898 -3.301692e-16 -2.236255)
(206.53917 2.0348564e-16 -1.9118482)
(206.24456 -1.6803084e-19 -1.5971021)
(205.90262 8.7123292e-17 -1.2845144)
(205.5129 0 -0.96385639)
(205.07908 0 -0.62384478)
(204.60985 0 -0.25714472)
(204.11892 -1.270919e-16 0.12970482)
(203.6275 -4.5413632e-20 0.5082623)
(203.17233 0 0.83439553)
(202.79254 0 1.0259345)
(202.48881 9.2163742e-17 0.9103634)
(202.35307 -1.6951375e-16 0.45178686)
(202.80876 0 0.372233)
(203.26206 0 0.042070572)
(200.03691 -1.3079144e-16 -9.0143443)
(218.82374 2.7784688e-17 -42.628967)
(259.94519 -7.873751e-16 -20.580605)
(240.28375 3.4866705e-16 -42.188902)
(251.1391 -2.1749827e-17 -23.399281)
(243.5139 3.7379908e-16 -39.109478)
(246.71327 -3.5251543e-16 -26.926337)
(243.65391 0 -35.567726)
(244.02928 -3.1748713e-16 -30.077247)
(242.63103 2.3334104e-16 -33.095026)
(241.96394 2.2163822e-16 -31.658304)
(240.96456 -2.3921364e-16 -32.13269)
(240.02671 0 -31.904467)
(239.02878 8.1915046e-20 -31.848483)
(238.00425 0 -31.722331)
(236.94731 3.8513866e-16 -31.578976)
(235.8615 -7.2755638e-16 -31.404996)
(234.74894 3.4348321e-16 -31.200443)
(233.61253 -4.0609125e-17 -30.96277)
(232.45562 -3.850719e-17 -30.690109)
(231.28199 3.6522531e-17 -30.380675)
(230.09586 -6.8472697e-17 -30.032923)
(228.90187 -3.2406775e-16 -29.645625)
(227.70503 3.050224e-16 -29.217887)
(226.51061 5.7538232e-17 -28.749254)
(225.3241 -2.7231336e-16 -28.239694)
(224.1511 -6.6048936e-19 -27.689701)
(222.99722 2.8934826e-16 -27.100252)
(221.86794 -1.8154883e-16 -26.472859)
(220.76853 -4.4568493e-19 -25.809531)
(219.70393 0 -25.112766)
(218.67864 0 -24.385495)
(217.69661 -7.1339179e-17 -23.631043)
(216.76119 1.3367025e-16 -22.853047)
(215.87505 0 -22.05539)
(215.0402 -1.1801045e-16 -21.242105)
(214.25791 2.2096671e-16 -20.417307)
(213.5288 -1.0344641e-16 -19.585094)
(212.85286 -1.9395593e-16 -18.749495)
(212.22949 9.0267995e-17 -17.914384)
(211.65757 1.6931687e-16 -17.083432)