/*--------------------------------*- C++ -*----------------------------------*\
  =========                 |
  \\      /  F ield         | OpenFOAM: The Open Source CFD Toolbox
   \\    /   O peration     | Website:  https://openfoam.org
    \\  /    A nd           | Version:  12
     \\/     M anipulation  |
\*---------------------------------------------------------------------------*/
FoamFile
{
    format      ascii;
    class       volScalarField;
    location    "0.063";
    object      alphat;
}
// * * * * * * * * * * * * * * * * * * * * * * * * * * * * * * * * * * * * * //

dimensions      [1 -1 -1 0 0 0 0];

internalField   nonuniform List<scalar> 
16000
(
4.7753262e-07
1.0685347e-05
2.068206e-05
2.5178332e-05
1.9417759e-05
2.6586324e-05
1.8917465e-05
2.5827013e-05
2.0325901e-05
2.7857045e-05
2.3616548e-05
2.7592816e-05
2.5259538e-05
2.5893862e-05
2.506196e-05
2.4930491e-05
2.4694757e-05
2.4644888e-05
2.4680386e-05
2.4821408e-05
2.5061134e-05
2.539854e-05
2.5831274e-05
2.6359821e-05
2.698656e-05
2.7718233e-05
2.8563712e-05
2.9537101e-05
3.065553e-05
3.1937425e-05
3.340304e-05
3.5079293e-05
3.7000918e-05
3.9210729e-05
4.1761412e-05
4.4715837e-05
4.8148923e-05
5.2150068e-05
5.6830009e-05
6.232597e-05
6.8799001e-05
7.6438923e-05
8.5485158e-05
9.6230993e-05
0.0001090255
0.0001242875
0.00014253635
0.00016440493
0.00019066412
0.00022225426
0.00026032816
0.00030630323
0.00036191823
0.00042931291
0.00051112175
0.00061059763
0.00073175758
0.00087956212
0.0010601515
0.0011771849
0.0011781983
0.0011790377
0.0011797852
0.0011803903
0.0011808814
0.0011812856
0.0011816428
0.001181992
0.001182357
0.0011827348
0.0011830928
0.0011833695
0.0011834677
0.0011832399
0.0011824733
0.0011809174
0.0011784329
0.0011753047
0.0011730696
0.0011732109
4.3433762e-07
1.0115386e-05
2.103991e-05
2.2665817e-05
1.7504409e-05
2.3813228e-05
1.6779966e-05
2.2608853e-05
1.7938902e-05
2.4605803e-05
2.1362348e-05
2.4871028e-05
2.3079601e-05
2.3452389e-05
2.2804274e-05
2.2621446e-05
2.2426895e-05
2.2371683e-05
2.2407103e-05
2.2536392e-05
2.2757961e-05
2.3070517e-05
2.3472251e-05
2.3963802e-05
2.4546992e-05
2.5228137e-05
2.6014938e-05
2.6920109e-05
2.7959861e-05
2.9152156e-05
3.051583e-05
3.2075472e-05
3.3863216e-05
3.5918692e-05
3.8291173e-05
4.1039755e-05
4.4235323e-05
4.7961844e-05
5.2322446e-05
5.7447062e-05
6.3490483e-05
7.0631446e-05
7.9095474e-05
8.9162317e-05
0.00010116733
0.0001155087
0.000132682
0.0001532934
0.00017808308
0.00020795481
0.00024401711
0.00028763669
0.00034049215
0.00040465262
0.00048266761
0.00057768828
0.00069361147
0.00083524596
0.0010085242
0.0011766257
0.0011776588
0.0011784565
0.0011791729
0.0011797528
0.0011802239
0.0011806122
0.0011809546
0.0011812873
0.0011816309
0.0011819804
0.0011823046
0.0011825468
0.0011826154
0.0011823625
0.0011815645
0.0011799526
0.0011773953
0.0011743523
0.0011725911
0.0011729514
3.8499714e-07
9.6693095e-06
1.987834e-05
2.0759684e-05
1.5663254e-05
2.096181e-05
1.4930833e-05
1.9651231e-05
1.6120944e-05
2.1596242e-05
1.9466457e-05
2.2148176e-05
2.0893539e-05
2.0999194e-05
2.0501865e-05
2.0297617e-05
2.01355e-05
2.0085052e-05
2.0122543e-05
2.0244818e-05
2.0451689e-05
2.0742313e-05
2.1115101e-05
2.1571007e-05
2.2111422e-05
2.2742421e-05
2.3470888e-05
2.4308339e-05
2.526989e-05
2.6373048e-05
2.7635702e-05
2.9080602e-05
3.073774e-05
3.2644012e-05
3.4845684e-05
3.7398412e-05
4.0369555e-05
4.3838883e-05
4.7903183e-05
5.2685163e-05
5.8334571e-05
6.5021697e-05
7.2960226e-05
8.2417347e-05
9.371764e-05
0.00010724274
0.00012346851
0.00014297903
0.00016648933
0.00019487386
0.00022920484
0.00027080729
0.00032130994
0.00038272341
0.00045752611
0.00054878164
0.00066027974
0.00079669729
0.0009637897
0.0011686175
0.0011773048
0.0011780444
0.0011787096
0.001179246
0.0011796805
0.0011800386
0.0011803542
0.0011806595
0.0011809722
0.0011812853
0.0011815679
0.0011817671
0.0011817953
0.0011815034
0.0011806571
0.0011789735
0.0011763454
0.0011734115
0.0011720705
0.0011722628
3.4686154e-07
9.3338634e-06
1.885375e-05
1.9163059e-05
1.4063087e-05
1.8504994e-05
1.3295691e-05
1.7175063e-05
1.4499762e-05
1.9038835e-05
1.7754754e-05
1.9735259e-05
1.8877095e-05
1.879014e-05
1.8405686e-05
1.8201624e-05
1.8068527e-05
1.8028481e-05
1.8071297e-05
1.8190633e-05
1.8386904e-05
1.8659802e-05
1.9007994e-05
1.9432871e-05
1.9935552e-05
2.0522027e-05
2.1198647e-05
2.1975988e-05
2.2868136e-05
2.3892238e-05
2.5065568e-05
2.6409318e-05
2.7951751e-05
2.9727422e-05
3.178007e-05
3.4162398e-05
3.6938739e-05
4.0185596e-05
4.3994732e-05
4.8482119e-05
5.3793643e-05
6.0093203e-05
6.7584968e-05
7.6524942e-05
8.722998e-05
0.00010006904
0.00011550244
0.00013409719
0.00015654896
0.00018371072
0.00021662691
0.00025659178
0.00030519687
0.00036441005
0.0004366579
0.00052493972
0.00063296558
0.00076531542
0.0009276202
0.0011267692
0.0011771575
0.0011778237
0.001178421
0.0011788983
0.0011792815
0.0011795948
0.0011798687
0.0011801318
0.0011803993
0.0011806637
0.0011808954
0.0011810443
0.0011810258
0.0011806881
0.0011797851
0.0011780315
0.0011753511
0.0011726436
0.0011715951
0.001171677
3.0978095e-07
9.0850926e-06
1.795536e-05
1.9141824e-05
1.3930223e-05
1.6361463e-05
1.1862053e-05
1.5050661e-05
1.3108667e-05
1.6830306e-05
1.623485e-05
1.7563316e-05
1.7001346e-05
1.6785e-05
1.6484433e-05
1.629489e-05
1.6185977e-05
1.6157031e-05
1.6204061e-05
1.6319973e-05
1.6505387e-05
1.6760723e-05
1.7084979e-05
1.7480058e-05
1.7947012e-05
1.8491814e-05
1.9120451e-05
1.9842762e-05
2.0671816e-05
2.1624361e-05
2.271727e-05
2.3970451e-05
2.5410741e-05
2.7070685e-05
2.8991862e-05
3.1224421e-05
3.383001e-05
3.6882505e-05
4.0469925e-05
4.470184e-05
4.972091e-05
5.5686295e-05
6.2794792e-05
7.1291959e-05
8.1488946e-05
9.3745016e-05
0.00010850785
0.00012633068
0.00014789332
0.00017403231
0.00020576961
0.00024437532
0.00029141129
0.00034881155
0.00041896171
0.00050480927
0.00060999908
0.0007390303
0.00089742991
0.0010919436
0.001177199
0.0011777776
0.0011782907
0.0011786939
0.0011790113
0.0011792663
0.0011794858
0.0011796941
0.0011799041
0.0011801091
0.0011802812
0.0011803728
0.0011803011
0.0011799104
0.001178943
0.0011771236
0.0011744487
0.0011719575
0.0011711467
0.00117112
2.8497827e-07
8.9325716e-06
1.7222207e-05
1.8894568e-05
1.3737057e-05
1.4492855e-05
1.115761e-05
1.3297049e-05
1.2061413e-05
1.4965148e-05
1.4907142e-05
1.5660096e-05
1.5295026e-05
1.5003146e-05
1.4755496e-05
1.4582227e-05
1.4488776e-05
1.4466463e-05
1.4513847e-05
1.4624033e-05
1.479756e-05
1.5035486e-05
1.5337057e-05
1.5704425e-05
1.6138872e-05
1.6646206e-05
1.7232151e-05
1.7905974e-05
1.867976e-05
1.9569817e-05
2.0592816e-05
2.176763e-05
2.311998e-05
2.4680755e-05
2.6489779e-05
2.8595103e-05
3.1056118e-05
3.3944638e-05
3.7346327e-05
4.1365256e-05
4.6141175e-05
5.183024e-05
5.8624611e-05
6.6760464e-05
7.6545433e-05
8.8332541e-05
0.00010256024
0.00011977209
0.00014063628
0.00016597928
0.00019680724
0.00023437459
0.00028022338
0.00033626536
0.0004048597
0.00048891916
0.00059204343
0.00071867461
0.00087426753
0.0010654698
0.0011774163
0.0011778938
0.0011783085
0.0011786241
0.0011788628
0.0011790468
0.0011791998
0.001179342
0.0011794836
0.0011796189
0.0011797229
0.0011797499
0.0011796182
0.0011791681
0.0011781324
0.0011762495
0.0011736558
0.0011713856
0.0011707277
0.0011706154
2.6033731e-07
8.8464722e-06
1.665655e-05
1.787927e-05
1.3611227e-05
1.2808217e-05
1.1241491e-05
1.2245665e-05
1.1694816e-05
1.3370349e-05
1.37188e-05
1.3982108e-05
1.371874e-05
1.3394265e-05
1.3176261e-05
1.3018935e-05
1.2936639e-05
1.2919599e-05
1.296694e-05
1.3072343e-05
1.323587e-05
1.3459104e-05
1.3741575e-05
1.4001592e-05
1.4398196e-05
1.4864636e-05
1.5405976e-05
1.6030709e-05
1.6749731e-05
1.7578549e-05
1.8533596e-05
1.9632747e-05
2.0900703e-05
2.2366775e-05
2.4069171e-05
2.6054028e-05
2.8378625e-05
3.1112761e-05
3.4340608e-05
3.8450217e-05
4.3030378e-05
4.8498461e-05
5.5044794e-05
6.2897586e-05
7.2362223e-05
8.3788864e-05
9.7610037e-05
0.00011436348
0.00013470936
0.00015947016
0.00018964228
0.00022647236
0.00027149166
0.00032660018
0.00039414371
0.00047701611
0.00057879035
0.00070387294
0.00085767388
0.0010467728
0.0011777911
0.0011781556
0.0011784597
0.0011786758
0.0011788244
0.0011789259
0.0011790016
0.0011790677
0.0011791319
0.0011791892
0.0011792175
0.0011791729
0.0011789735
0.0011784565
0.0011773526
0.0011754162
0.0011729796
0.0011709179
0.0011703325
0.0011701381
2.3318734e-07
8.7965235e-06
1.6176151e-05
1.6266557e-05
1.2463147e-05
1.1169572e-05
9.7088908e-06
1.0940312e-05
1.0259004e-05
1.2023175e-05
1.2526519e-05
1.2442881e-05
1.2218375e-05
1.1903114e-05
1.1709413e-05
1.1572606e-05
1.1504067e-05
1.1495467e-05
1.1475381e-05
1.1562216e-05
1.1707015e-05
1.1910323e-05
1.217063e-05
1.2487599e-05
1.2866167e-05
1.3309997e-05
1.3824221e-05
1.4417264e-05
1.5099422e-05
1.5885743e-05
1.6792898e-05
1.7838236e-05
1.904599e-05
2.0444488e-05
2.207101e-05
2.3970508e-05
2.6199021e-05
2.8825138e-05
3.1932577e-05
3.5623318e-05
4.0021744e-05
4.5285435e-05
5.1605011e-05
5.9701915e-05
6.8939294e-05
8.0115635e-05
9.3661272e-05
0.00011011187
0.00013012344
0.00015452095
0.00018429755
0.00022070031
0.00026525953
0.00031987472
0.0003868922
0.00046920402
0.00057037658
0.00069480418
0.0008478807
0.0010361636
0.0011783018
0.0011785433
0.0011787269
0.0011788341
0.0011788825
0.0011788914
0.0011788797
0.001178861
0.0011788408
0.0011788142
0.0011787612
0.0011786388
0.0011783639
0.0011777707
0.0011766005
0.0011746872
0.0011724274
0.0011705506
0.0011699557
0.0011695844
2.1467583e-07
8.7474609e-06
1.5684534e-05
1.4244252e-05
1.0238689e-05
9.9366308e-06
8.0031181e-06
9.3390237e-06
9.569108e-06
1.0817756e-05
1.1319525e-05
1.1012221e-05
1.0805634e-05
1.0523983e-05
1.0355349e-05
1.0169486e-05
1.0089812e-05
1.0075424e-05
1.0119361e-05
1.0218529e-05
1.0368031e-05
1.0571574e-05
1.0826612e-05
1.1133985e-05
1.1498419e-05
1.1924405e-05
1.2417175e-05
1.2985195e-05
1.3638359e-05
1.4391244e-05
1.5260869e-05
1.6264325e-05
1.7425703e-05
1.8772666e-05
2.0341952e-05
2.2177833e-05
2.4335643e-05
2.6883371e-05
2.9904153e-05
3.3499204e-05
3.7793446e-05
4.2942386e-05
4.9140014e-05
5.6611387e-05
6.5645226e-05
7.6600897e-05
9.0704669e-05
0.00010700765
0.00012686888
0.00015112207
0.00018076406
0.00021705076
0.00026152152
0.00031608697
0.00038310831
0.00046549354
0.00056682371
0.00069150557
0.0008449451
0.0010337161
0.0011789234
0.0011790342
0.0011790898
0.0011790804
0.001179021
0.0011789286
0.0011788205
0.0011787092
0.001178599
0.0011784848
0.0011783473
0.0011781431
0.0011777858
0.0011771094
0.0011758735
0.0011740686
0.0011720049
0.0011702872
0.0011696104
0.0011690626
1.9754108e-07
8.7024874e-06
1.3973027e-05
1.2418348e-05
8.2792101e-06
8.8337179e-06
7.1334016e-06
8.4358407e-06
8.8609459e-06
9.6820557e-06
1.0127079e-05
9.7086263e-06
9.5080141e-06
9.1751213e-06
8.9956194e-06
8.8842836e-06
8.8386906e-06
8.849858e-06
8.910648e-06
9.0219869e-06
9.1780834e-06
9.3811863e-06
9.6329242e-06
9.9333663e-06
1.0287537e-05
1.0700388e-05
1.1177312e-05
1.1726963e-05
1.2358994e-05
1.3087546e-05
1.3930062e-05
1.4903718e-05
1.6032719e-05
1.7344375e-05
1.8875247e-05
2.0669382e-05
2.2781911e-05
2.5280828e-05
2.8249743e-05
3.1790486e-05
3.6028268e-05
4.1118384e-05
4.7258694e-05
5.4674717e-05
6.3658232e-05
7.4571531e-05
8.7861557e-05
0.00010405329
0.00012494542
0.00014927628
0.00017904923
0.00021553732
0.00026029984
0.00031527085
0.00038284167
0.00046595523
0.00056822999
0.00069411247
0.00084905172
0.0010396773
0.0011796283
0.0011796025
0.0011795251
0.0011793939
0.0011792208
0.0011790205
0.0011788089
0.0011785983
0.0011783933
0.0011781889
0.0011779658
0.0011776783
0.0011772346
0.0011764746
0.0011752213
0.0011735672
0.0011717153
0.0011701432
0.0011693581
0.0011689098
1.822392e-07
8.655582e-06
1.1088091e-05
1.0300017e-05
6.8073175e-06
7.8713758e-06
6.5083798e-06
7.5879674e-06
8.2915406e-06
8.6514062e-06
8.9615143e-06
8.432751e-06
8.1814319e-06
7.9518046e-06
7.8206215e-06
7.7491103e-06
7.7318977e-06
7.7658914e-06
7.8432627e-06
7.9636262e-06
8.1255726e-06
8.3308945e-06
8.5815949e-06
8.8783812e-06
9.2263633e-06
9.630974e-06
1.0097911e-05
1.0636086e-05
1.125513e-05
1.1968839e-05
1.2729074e-05
1.3674234e-05
1.4772948e-05
1.6052149e-05
1.7548218e-05
1.9305024e-05
2.1377585e-05
2.3833977e-05
2.6758434e-05
3.0253739e-05
3.4446563e-05
3.9803995e-05
4.5952416e-05
5.3391923e-05
6.2417578e-05
7.3396071e-05
8.6787823e-05
0.00010313115
0.00012310558
0.00014755894
0.00017915575
0.00021616925
0.00026161269
0.0003174567
0.00038613906
0.00047065817
0.00057469463
0.00070276505
0.00086039621
0.0010543139
0.0011803867
0.0011802204
0.0011800073
0.001179751
0.0011794607
0.0011791484
0.0011788285
0.0011785137
0.0011782099
0.0011779131
0.0011776041
0.0011772345
0.001176707
0.0011758732
0.001174697
0.0011731946
0.0011715563
0.0011701403
0.0011692938
0.001168901
1.6887483e-07
8.6118233e-06
8.750373e-06
8.7891318e-06
6.009267e-06
6.9859473e-06
5.9834295e-06
6.8488762e-06
7.7146823e-06
7.6917213e-06
7.7000423e-06
7.251299e-06
7.0468199e-06
6.8793486e-06
6.7891817e-06
6.7509778e-06
6.7600355e-06
6.8118703e-06
6.9033432e-06
7.0342963e-06
7.2032895e-06
7.4125255e-06
7.6649266e-06
7.9616806e-06
8.3080031e-06
8.6718738e-06
9.1271829e-06
9.6532066e-06
1.0259456e-05
1.0959278e-05
1.1768741e-05
1.2708767e-05
1.3802945e-05
1.5078362e-05
1.6571847e-05
1.8327851e-05
2.0402227e-05
2.2864137e-05
2.5799736e-05
2.9314261e-05
3.3537711e-05
3.8632661e-05
4.4798435e-05
5.2274184e-05
6.136057e-05
7.306146e-05
8.6686653e-05
0.00010333708
0.00012370586
0.0001486689
0.00017929709
0.00021895447
0.00026547873
0.00032267767
0.00039305301
0.00047968136
0.00058633286
0.00071762853
0.00087921393
0.0010779539
0.0011811678
0.0011808591
0.0011805095
0.0011801268
0.0011797181
0.0011792926
0.0011788627
0.0011784414
0.0011780365
0.0011776453
0.0011772498
0.0011768012
0.0011762049
0.0011753717
0.001174302
0.0011729605
0.0011715196
0.0011702607
0.0011694693
0.0011691172
1.5697259e-07
8.5606523e-06
6.9685352e-06
7.7249841e-06
5.3633917e-06
6.1931351e-06
5.5352472e-06
6.1966455e-06
7.0278449e-06
6.6009306e-06
6.5636015e-06
6.2191973e-06
6.0578321e-06
5.9406391e-06
5.8857039e-06
5.8761509e-06
5.9075806e-06
5.9776422e-06
6.0832865e-06
6.2252587e-06
6.4029956e-06
6.6187802e-06
6.8465448e-06
7.1406571e-06
7.4841154e-06
7.8817026e-06
8.3414598e-06
8.871986e-06
9.4830611e-06
1.0188299e-05
1.1003988e-05
1.1950857e-05
1.3053976e-05
1.4340918e-05
1.5849254e-05
1.7624439e-05
1.972377e-05
2.2218084e-05
2.519627e-05
2.8767193e-05
3.3064436e-05
3.8254606e-05
4.4547753e-05
5.2189612e-05
6.1490971e-05
7.2838792e-05
8.6714295e-05
0.00010369976
0.00012560961
0.00015130963
0.00018286409
0.00022164358
0.00027190757
0.00033095836
0.00040362806
0.00049309716
0.00060325635
0.00073886968
0.00090575222
0.0011109581
0.0011819413
0.00118149
0.0011810053
0.001180497
0.0011799708
0.0011794334
0.0011788948
0.0011783678
0.0011778618
0.0011773761
0.0011768947
0.0011763747
0.001175742
0.001175002
0.0011740454
0.0011728657
0.0011715998
0.0011704917
0.0011698117
0.0011695603
1.4643471e-07
8.5008061e-06
5.5991172e-06
6.7617539e-06
4.7892579e-06
5.4892232e-06
5.155329e-06
5.5303129e-06
6.1627338e-06
5.6545846e-06
5.567299e-06
5.3169178e-06
5.1962719e-06
5.1212362e-06
5.097756e-06
5.1142995e-06
5.1670571e-06
5.254687e-06
5.3751153e-06
5.5084652e-06
5.6904069e-06
5.9104459e-06
6.1712547e-06
6.4762771e-06
6.8304317e-06
7.2389401e-06
7.709776e-06
8.2522759e-06
8.8764992e-06
9.596286e-06
1.0428113e-05
1.1393035e-05
1.2459837e-05
1.375957e-05
1.5283956e-05
1.7079432e-05
1.9204984e-05
2.1733203e-05
2.4755783e-05
2.8385823e-05
3.2761679e-05
3.8344446e-05
4.4825722e-05
5.2707406e-05
6.2311772e-05
7.403789e-05
8.8391348e-05
0.00010598182
0.00012755674
0.0001554585
0.00018821788
0.00022849973
0.00027805616
0.00034230416
0.00041788883
0.00051095699
0.00062555681
0.00076663818
0.00094024819
0.0011536971
0.001182679
0.0011820874
0.001181471
0.0011808394
0.0011801984
0.0011795527
0.0011789096
0.0011782803
0.001177676
0.0011770985
0.0011765372
0.0011759684
0.001175411
0.0011747571
0.0011739259
0.0011729025
0.0011717859
0.0011708305
0.0011703247
0.0011701099
1.3711352e-07
8.3719927e-06
4.5575015e-06
5.9058292e-06
4.2777684e-06
4.8634665e-06
4.8246778e-06
4.8028943e-06
5.2910632e-06
4.8111329e-06
4.7042705e-06
4.531494e-06
4.4497693e-06
4.411399e-06
4.4167474e-06
4.4576692e-06
4.5310936e-06
4.6177709e-06
4.7476577e-06
4.9115377e-06
5.1105298e-06
5.3464705e-06
5.6228029e-06
5.9431937e-06
6.3132112e-06
6.7383824e-06
7.2267761e-06
7.7645734e-06
8.4029803e-06
9.1381307e-06
9.9866026e-06
1.0969539e-05
1.2112797e-05
1.3448891e-05
1.5016616e-05
1.6864063e-05
1.905306e-05
2.1659123e-05
2.4777838e-05
2.8528342e-05
3.3055712e-05
3.8542936e-05
4.5211516e-05
5.3334613e-05
6.3249175e-05
7.6003191e-05
9.0961378e-05
0.00010930741
0.00013182776
0.00015949344
0.00019531947
0.00023744131
0.00028928513
0.00035310668
0.00043582012
0.00053326794
0.0006532774
0.00080103268
0.00098288471
0.0011840771
0.0011833563
0.0011826297
0.0011818867
0.0011811362
0.0011803844
0.0011796356
0.0011788942
0.0011781685
0.0011774703
0.0011768081
0.0011761887
0.0011756681
0.0011751887
0.0011746347
0.0011739344
0.0011730601
0.001172064
0.0011712308
0.0011709435
0.0011707823
1.2892681e-07
8.0353632e-06
3.8499214e-06
5.1473229e-06
3.8232404e-06
4.3097496e-06
4.295739e-06
4.1442414e-06
4.4520422e-06
4.0659939e-06
3.9652012e-06
3.8545292e-06
3.809508e-06
3.8037542e-06
3.8357665e-06
3.8851999e-06
3.9718743e-06
4.0913305e-06
4.2428702e-06
4.4269158e-06
4.6452629e-06
4.9003169e-06
5.1959908e-06
5.5362713e-06
5.9135069e-06
6.3563771e-06
6.8632371e-06
7.4434355e-06
8.1087319e-06
8.8731318e-06
9.7536959e-06
1.0772496e-05
1.1956538e-05
1.3339676e-05
1.4963521e-05
1.6878074e-05
1.9148672e-05
2.1854623e-05
2.5095728e-05
2.8998583e-05
3.3714497e-05
3.9436225e-05
4.6400392e-05
5.4893222e-05
6.527175e-05
7.7974615e-05
9.4373159e-05
0.00011362487
0.00013726839
0.00016633756
0.00020207876
0.00024839441
0.00030293253
0.00037010087
0.00045282264
0.00055995902
0.00068637139
0.00084205083
0.0010337245
0.0011847937
0.0011839533
0.0011831007
0.0011822386
0.0011813749
0.0011805173
0.0011796711
0.0011788392
0.001178025
0.0011772405
0.0011765117
0.0011759144
0.0011754734
0.0011750732
0.0011746212
0.0011740531
0.0011733247
0.0011724416
0.0011716802
0.0011716164
0.0011715233
1.2196662e-07
7.6310835e-06
3.3964599e-06
4.4744137e-06
3.4203122e-06
3.6582129e-06
3.8293404e-06
3.5406706e-06
3.6937481e-06
3.4192791e-06
3.3403158e-06
3.2789619e-06
3.2675683e-06
3.2913116e-06
3.3311348e-06
3.4124878e-06
3.5254481e-06
3.6688604e-06
3.8429874e-06
4.0490359e-06
4.2893941e-06
4.5667666e-06
4.8759166e-06
5.2369301e-06
5.6488471e-06
6.1182441e-06
6.6530246e-06
7.262894e-06
7.9598791e-06
8.7589205e-06
9.6776707e-06
1.0739212e-05
1.1971861e-05
1.3411278e-05
1.5036816e-05
1.7015049e-05
1.9363253e-05
2.2165135e-05
2.5678942e-05
2.9763539e-05
3.4704437e-05
4.0704156e-05
4.8015816e-05
5.6941916e-05
6.7858836e-05
8.1233176e-05
9.7638235e-05
0.00011777868
0.0001437949
0.00017447388
0.00021221483
0.00025866692
0.00031885542
0.00038985933
0.00047734029
0.00059083853
0.00072464649
0.00088952051
0.0010926323
0.0011854112
0.0011844566
0.00118349
0.0011825183
0.0011815492
0.0011805917
0.0011796533
0.0011787377
0.0011778459
0.0011769924
0.0011762623
0.0011757566
0.0011753797
0.0011750529
0.0011747
0.0011742605
0.0011736692
0.0011728925
0.001172206
0.0011722554
0.001172253
1.165124e-07
6.5267705e-06
3.0108598e-06
3.8635363e-06
3.0735806e-06
3.0555735e-06
3.3647763e-06
2.9942391e-06
3.0425718e-06
2.8671099e-06
2.8174306e-06
2.7964789e-06
2.8073301e-06
2.8501512e-06
2.9284657e-06
3.037954e-06
3.1766471e-06
3.34447e-06
3.5424908e-06
3.7723827e-06
4.030936e-06
4.3310126e-06
4.6727073e-06
5.060718e-06
5.500655e-06
5.9993254e-06
6.5650122e-06
7.2078211e-06
7.940187e-06
8.7582786e-06
9.7134124e-06
1.0815144e-05
1.2093036e-05
1.3584138e-05
1.5334798e-05
1.7402983e-05
1.9860377e-05
2.2796761e-05
2.632359e-05
3.0578647e-05
3.5733145e-05
4.2300721e-05
5.0005901e-05
5.9422607e-05
7.0947919e-05
8.5076188e-05
0.00010241644
0.0001237197
0.00015128703
0.00018376328
0.00022373615
0.0002729546
0.00033682299
0.00041211463
0.00050493273
0.00061937819
0.00076770124
0.00094301333
0.0011591712
0.0011859195
0.0011848594
0.0011837914
0.0011827219
0.0011816574
0.0011806076
0.0011795814
0.001178586
0.0011776316
0.0011767557
0.001176139
0.001175696
0.0011753755
0.0011751128
0.001174852
0.0011745311
0.0011740564
0.0011733738
0.001172774
0.0011728525
0.0011729552
1.120949e-07
4.6111078e-06
2.6606066e-06
3.2975076e-06
2.6301732e-06
2.5502953e-06
2.8752714e-06
2.5076015e-06
2.5003249e-06
2.4023483e-06
2.3855924e-06
2.3919627e-06
2.4337343e-06
2.5107813e-06
2.6187606e-06
2.7551723e-06
2.919344e-06
3.1119192e-06
3.3312912e-06
3.5845746e-06
3.8729251e-06
4.1996431e-06
4.5687431e-06
4.9851106e-06
5.4546406e-06
5.9844408e-06
6.5831439e-06
7.2502412e-06
8.016512e-06
8.8903864e-06
9.8918871e-06
1.1045887e-05
1.2383743e-05
1.3944844e-05
1.5778577e-05
1.7946508e-05
2.0525181e-05
2.3609871e-05
2.7319173e-05
3.1800331e-05
3.7235934e-05
4.385131e-05
5.2311775e-05
6.2266516e-05
7.4458812e-05
8.9412903e-05
0.00010777535
0.00013034518
0.00015810968
0.00019401343
0.00023641401
0.00028864636
0.00035302466
0.00043646593
0.00053512024
0.00065685265
0.00081486206
0.0010017519
0.0011874882
0.0011863156
0.001185159
0.0011840022
0.0011828475
0.0011816996
0.001180567
0.0011794597
0.0011783901
0.0011773967
0.0011766473
0.0011761001
0.001175715
0.0011754403
0.0011752318
0.0011750517
0.0011748351
0.0011744602
0.0011738558
0.001173354
0.0011735067
0.0011736727
1.0747904e-07
3.8340659e-06
2.2960262e-06
2.7754418e-06
2.2683292e-06
2.1277317e-06
2.3690187e-06
2.0804482e-06
2.0595325e-06
2.0211862e-06
2.0331955e-06
2.0739601e-06
2.1517214e-06
2.259576e-06
2.3949219e-06
2.5568116e-06
2.7455467e-06
2.9600847e-06
3.2060763e-06
3.4847768e-06
3.7991101e-06
4.1526256e-06
4.5495735e-06
4.9950356e-06
5.4951218e-06
6.0572135e-06
6.6827615e-06
7.3945531e-06
8.2010531e-06
9.1190702e-06
1.0169756e-05
1.1379519e-05
1.2781579e-05
1.4417707e-05
1.6340485e-05
1.8615758e-05
2.1325292e-05
2.4570453e-05
2.847737e-05
3.3202025e-05
3.8938183e-05
4.6258082e-05
5.4863726e-05
6.5391715e-05
7.8294301e-05
9.4127071e-05
0.00011357588
0.00013748841
0.0001684592
0.00020497346
0.00024994321
0.00030536749
0.0003737168
0.00046235806
0.00056723713
0.00069677164
0.00086512839
0.0010645294
0.0011878485
0.0011865989
0.0011853572
0.001184122
0.0011828935
0.0011816742
0.0011804702
0.0011792944
0.0011781784
0.0011772742
0.0011766046
0.0011761227
0.001175784
0.0011755478
0.0011753852
0.001175271
0.0011751372
0.0011748485
0.0011743414
0.0011739599
0.0011741663
0.0011743359
1.0439623e-07
3.089731e-06
1.9809658e-06
2.245024e-06
1.9717921e-06
1.7659975e-06
1.8988199e-06
1.7184395e-06
1.7136701e-06
1.7234595e-06
1.7653732e-06
1.8439904e-06
1.9526739e-06
2.0874805e-06
2.2473649e-06
2.432569e-06
2.6429525e-06
2.8822061e-06
3.1521181e-06
3.4553674e-06
3.7951657e-06
4.1752755e-06
4.6001114e-06
5.0749053e-06
5.6059381e-06
6.1965378e-06
6.8624269e-06
7.6122482e-06
8.4600709e-06
9.4235564e-06
1.0525131e-05
1.1792817e-05
1.326189e-05
1.4976644e-05
1.6992791e-05
1.9380398e-05
2.2227067e-05
2.5640357e-05
2.9754641e-05
3.4735422e-05
4.1056388e-05
4.8493827e-05
5.7579255e-05
6.8701621e-05
8.2338554e-05
9.9079499e-05
0.0001196511
0.00014495226
0.0001776813
0.00021632512
0.0002639394
0.0003226501
0.0003950962
0.00048905458
0.00060038524
0.00073804127
0.00091713925
0.0011296826
0.0011880953
0.0011867756
0.0011854598
0.0011841541
0.0011828593
0.0011815784
0.0011803158
0.001179094
0.0011780141
0.0011772077
0.0011766067
0.0011761762
0.0011758766
0.001175675
0.0011755535
0.0011754914
0.0011754185
0.0011752048
0.0011748112
0.0011745638
0.0011748183
0.001174958
1.0316772e-07
2.4394394e-06
1.708755e-06
1.7349545e-06
1.6983069e-06
1.4563714e-06
1.5151463e-06
1.4303393e-06
1.4565071e-06
1.5009701e-06
1.5814709e-06
1.6905555e-06
1.824699e-06
1.9823125e-06
2.1636465e-06
2.3698368e-06
2.6017965e-06
2.8630465e-06
3.1556632e-06
3.4825904e-06
3.847213e-06
4.253437e-06
4.7058034e-06
5.2096663e-06
5.7714398e-06
6.3989334e-06
7.1017861e-06
7.8919895e-06
8.7743807e-06
9.7837214e-06
1.0936735e-05
1.2263156e-05
1.3800455e-05
1.5595673e-05
1.7707691e-05
2.0292576e-05
2.3301505e-05
2.6912851e-05
3.1269924e-05
3.654958e-05
4.2969773e-05
5.0798747e-05
6.0368254e-05
7.2087206e-05
8.6460087e-05
0.00010410994
0.00012580524
0.00015382792
0.00018692783
0.00022769246
0.0002779385
0.00033992207
0.00042039197
0.00051565065
0.00063344609
0.00077928175
0.0009691553
0.0011896618
0.0011882386
0.0011868556
0.0011854771
0.0011841085
0.0011827514
0.001181413
0.0011801058
0.0011788683
0.0011779119
0.0011771761
0.0011766333
0.0011762461
0.0011759808
0.0011758126
0.0011757292
0.0011757082
0.0011756775
0.0011755264
0.0011752531
0.0011751506
0.0011754573
0.0011755697
1.0483844e-07
1.8817423e-06
1.4819046e-06
1.3437031e-06
1.4200814e-06
1.1966922e-06
1.2345063e-06
1.2196609e-06
1.27852e-06
1.3572094e-06
1.466249e-06
1.5987797e-06
1.753434e-06
1.9302975e-06
2.1305474e-06
2.3558929e-06
2.6080568e-06
2.8900558e-06
3.2043848e-06
3.5541226e-06
3.9427577e-06
4.3742912e-06
4.8533681e-06
5.3854659e-06
5.9771548e-06
6.6364491e-06
7.3732764e-06
8.2000638e-06
9.1324657e-06
1.0190287e-05
1.1398565e-05
1.2789016e-05
1.4401599e-05
1.628656e-05
1.8506792e-05
2.1140747e-05
2.4286042e-05
2.8064133e-05
3.2625332e-05
3.8155761e-05
4.4885397e-05
5.3097333e-05
6.3138098e-05
7.5437522e-05
9.0524449e-05
0.00010995495
0.000132902
0.00016112287
0.00019586052
0.00023865717
0.00029142619
0.0003598947
0.00044092737
0.00054110644
0.00066512057
0.00082681544
0.0010190853
0.0011897657
0.001188294
0.0011868529
0.0011854218
0.0011840015
0.0011825905
0.0011811953
0.0011798526
0.001178718
0.0011778403
0.0011771727
0.0011766815
0.0011763342
0.0011761019
0.0011759667
0.0011759187
0.0011759302
0.0011759281
0.0011758272
0.0011756691
0.0011757084
0.0011760594
0.0011761256
1.1055462e-07
1.4237846e-06
1.29804e-06
1.0579751e-06
1.2678836e-06
9.8073664e-07
1.0441723e-06
1.0806645e-06
1.1663767e-06
1.2726403e-06
1.4026567e-06
1.5533292e-06
1.7249911e-06
1.9187384e-06
2.136247e-06
2.3794925e-06
2.6507269e-06
2.9522814e-06
3.2872282e-06
3.6586142e-06
4.0700042e-06
4.5254853e-06
5.0298079e-06
5.5885823e-06
6.2085496e-06
6.8979475e-06
7.667003e-06
8.528603e-06
9.499033e-06
1.0598986e-05
1.1854648e-05
1.3299273e-05
1.4974793e-05
1.6933962e-05
1.9242818e-05
2.1983757e-05
2.5259188e-05
2.9196056e-05
3.3951362e-05
3.9719008e-05
4.7057383e-05
5.5693107e-05
6.6250647e-05
7.9180675e-05
9.5037974e-05
0.00011450728
0.00013843492
0.00016786799
0.0002041
0.00025106796
0.00030653778
0.00037499173
0.00045957178
0.00056421951
0.00070066422
0.0008628168
0.0010644149
0.0011898039
0.0011882844
0.0011867905
0.0011853112
0.001183848
0.0011824025
0.0011809842
0.0011796406
0.0011786104
0.0011778037
0.0011771972
0.0011767552
0.0011764477
0.0011762498
0.0011761484
0.0011761332
0.0011761718
0.0011761931
0.001176137
0.0011760798
0.0011762424
0.0011766378
0.001176672
1.2097305e-07
1.1338881e-06
1.1398525e-06
9.174066e-07
9.2949363e-07
8.5846316e-07
9.190348e-07
9.9737104e-07
1.1038385e-06
1.2296055e-06
1.3754198e-06
1.541035e-06
1.7276291e-06
1.9366982e-06
2.1700719e-06
2.4297963e-06
2.7181611e-06
3.0377187e-06
3.3913306e-06
3.7822208e-06
4.2140535e-06
4.6910384e-06
5.2180789e-06
5.8009817e-06
6.4467473e-06
7.1613874e-06
7.9592509e-06
8.8520353e-06
9.8654995e-06
1.1007328e-05
1.2310991e-05
1.3811405e-05
1.5552565e-05
1.7589733e-05
1.9992031e-05
2.2845572e-05
2.6257285e-05
3.03596e-05
3.5316168e-05
4.1328962e-05
4.8647031e-05
5.7577336e-05
6.8497952e-05
8.1872599e-05
9.8275258e-05
0.00011841345
0.00014443603
0.00017511148
0.0002128616
0.00025936509
0.00031671119
0.00038751168
0.00047503858
0.00058895307
0.00072433887
0.00089254974
0.0011020301
0.0011898115
0.0011882499
0.0011867094
0.0011851838
0.0011836739
0.0011821866
0.0011807532
0.001179508
0.0011785449
0.0011778012
0.0011772477
0.0011768514
0.0011765837
0.0011764234
0.0011763587
0.0011763771
0.0011764435
0.0011764932
0.0011764839
0.0011765024
0.0011767478
0.0011771974
0.0011772398
1.4241121e-07
1.168256e-06
9.8237216e-07
7.0142376e-07
7.5992703e-07
7.6765994e-07
8.501584e-07
9.5121274e-07
1.0740834e-06
1.2145721e-06
1.3737745e-06
1.5525879e-06
1.7524859e-06
1.9750807e-06
2.2222316e-06
2.4960124e-06
2.798745e-06
3.1330301e-06
3.5017894e-06
3.9083192e-06
4.3563617e-06
4.850209e-06
5.3948494e-06
5.9961783e-06
6.6612968e-06
7.3989201e-06
8.2199184e-06
9.1380091e-06
1.0170634e-05
1.1340002e-05
1.2674349e-05
1.4209505e-05
1.5990673e-05
1.8074648e-05
2.0532436e-05
2.3452448e-05
2.6944399e-05
3.1144032e-05
3.6218931e-05
4.2375677e-05
4.9868798e-05
5.9434622e-05
7.0700884e-05
8.4493718e-05
0.00010140374
0.00012215857
0.00014765819
0.00017901722
0.00021761875
0.00026518087
0.00032385064
0.00039997183
0.00049024406
0.00060205169
0.00074081663
0.00091344268
0.0011287511
0.0011898263
0.0011882305
0.0011866545
0.0011850959
0.001183555
0.0011820406
0.0011805995
0.001179435
0.0011785226
0.0011778268
0.0011773152
0.0011769576
0.0011767273
0.0011766054
0.0011765799
0.0011766342
0.0011767318
0.0011768189
0.0011768707
0.0011769625
0.0011772373
0.0011776634
0.0011777622
1.3587556e-07
7.8058293e-07
8.0668777e-07
5.9839169e-07
6.545749e-07
7.1445516e-07
8.155391e-07
9.3328618e-07
1.0691623e-06
1.2221626e-06
1.3935018e-06
1.5843603e-06
1.7962438e-06
2.0308309e-06
2.2900205e-06
2.5759427e-06
2.8909862e-06
3.2377869e-06
3.6194045e-06
4.0391935e-06
4.5009798e-06
5.0091396e-06
5.5687473e-06
6.185788e-06
6.8674619e-06
7.6225998e-06
8.4622156e-06
9.40022e-06
1.0462883e-05
1.1659481e-05
1.3024725e-05
1.4595355e-05
1.6417657e-05
1.8549731e-05
2.1064135e-05
2.4051161e-05
2.7622772e-05
3.1917442e-05
3.7106099e-05
4.3399424e-05
5.1056816e-05
6.0397365e-05
7.1813396e-05
8.5789424e-05
0.00010292208
0.00012394837
0.00014977988
0.0001831394
0.00022252856
0.00027104813
0.00033088944
0.0004047946
0.00049621382
0.00060950807
0.00075021812
0.0009254225
0.0011441978
0.0011898785
0.0011882535
0.0011866477
0.0011850621
0.0011834987
0.0011819696
0.0011805291
0.0011794162
0.0011785378
0.0011778742
0.0011773922
0.0011770643
0.0011768664
0.0011767792
0.0011767887