/*--------------------------------*- C++ -*----------------------------------*\
  =========                 |
  \\      /  F ield         | OpenFOAM: The Open Source CFD Toolbox
   \\    /   O peration     | Website:  https://openfoam.org
    \\  /    A nd           | Version:  12
     \\/     M anipulation  |
\*---------------------------------------------------------------------------*/
FoamFile
{
    format      ascii;
    class       volScalarField;
    location    "0.063";
    object      Ma;
}
// * * * * * * * * * * * * * * * * * * * * * * * * * * * * * * * * * * * * * //

dimensions      [];

internalField   nonuniform List<scalar> 
16000
(
0.6319533
0.75053756
0.70537073
0.73004109
0.71493617
0.72187661
0.71616066
0.71766545
0.71501009
0.71455255
0.7129188
0.71176911
0.71033999
0.70894348
0.70746355
0.7059361
0.70434982
0.70270639
0.70100458
0.69924394
0.69742411
0.69554495
0.69360658
0.69160937
0.68955403
0.68744156
0.68527334
0.68305114
0.68077712
0.67845385
0.67608433
0.67367202
0.67122077
0.66873488
0.66621906
0.66367839
0.6611183
0.65854455
0.65596312
0.6533802
0.65080209
0.64823516
0.64568575
0.6431601
0.64066427
0.63820407
0.63578498
0.6334121
0.63109011
0.62882321
0.62661511
0.62446904
0.62238773
0.62037343
0.61842791
0.61655245
0.61474777
0.61301399
0.61135049
0.60975567
0.60822673
0.60675983
0.60534997
0.60399047
0.60267287
0.60138672
0.6001196
0.59885738
0.59758475
0.59628539
0.59494164
0.59353436
0.59204472
0.59045844
0.58877398
0.5870154
0.58521579
0.58355306
0.5814942
0.58096423
0.63654073
0.75588742
0.70886539
0.73481556
0.71886959
0.72628373
0.72011108
0.72174113
0.7188969
0.71836839
0.71664483
0.71537858
0.71385649
0.71234442
0.71075434
0.70910872
0.7074016
0.70563295
0.70380216
0.70190884
0.69995287
0.6979344
0.69585387
0.69371206
0.69151014
0.68924962
0.68693246
0.68456103
0.68213815
0.6796671
0.67715163
0.67459595
0.67200472
0.66938304
0.6667364
0.66407067
0.66139203
0.65870689
0.65602188
0.65334371
0.65067914
0.64803487
0.64541744
0.64283318
0.64028811
0.63778787
0.63533765
0.63294213
0.63060547
0.62833128
0.62612259
0.6239819
0.62191116
0.61991185
0.61798492
0.61613086
0.61434963
0.6126406
0.61100248
0.6094331
0.60792914
0.60648627
0.60509911
0.60376073
0.6024625
0.60119387
0.59994244
0.59869417
0.59743395
0.59614566
0.59481175
0.59341313
0.59193076
0.59035005
0.58867071
0.58692062
0.58515135
0.58339992
0.58165224
0.58061397
0.64082422
0.76079436
0.7125698
0.73897943
0.7225666
0.7300856
0.72375366
0.72527375
0.72237267
0.72168689
0.71989399
0.71848886
0.71686106
0.71522074
0.71350455
0.71172619
0.70988231
0.70797258
0.70599668
0.70395453
0.70184637
0.69967274
0.69743455
0.69513312
0.69277016
0.69034783
0.68786877
0.68533611
0.68275347
0.68012498
0.67745529
0.67474954
0.67201333
0.6692527
0.66647408
0.66368422
0.66089013
0.65809899
0.65531807
0.65255462
0.64981581
0.64710859
0.64443961
0.64181515
0.63924102
0.63672247
0.63426419
0.63187025
0.62954406
0.62728838
0.62510538
0.6229966
0.62096304
0.61900519
0.61712304
0.61531612
0.61358349
0.61192367
0.61033457
0.60881329
0.60735592
0.60595756
0.60461238
0.60331311
0.60205091
0.60081513
0.5995934
0.59837188
0.59713574
0.59586924
0.59455518
0.59317473
0.59170895
0.59014354
0.58848127
0.58675544
0.58500924
0.58326434
0.58168231
0.58036497
0.64473792
0.76527195
0.71567934
0.74263824
0.72580016
0.73342703
0.72692824
0.72831861
0.72535125
0.72448802
0.72261075
0.72105009
0.71929804
0.71751282
0.71565254
0.71372417
0.71172638
0.70965879
0.70752145
0.70531462
0.70303897
0.7006955
0.69828566
0.69581137
0.69327503
0.69067956
0.68802844
0.68532571
0.68257598
0.67978443
0.67695678
0.67409926
0.67121858
0.66832187
0.66541658
0.66251042
0.65961127
0.65672703
0.65386556
0.65103455
0.64824142
0.64549317
0.64279634
0.64015689
0.63758015
0.63507073
0.63263252
0.63026868
0.62798162
0.62577305
0.62364399
0.62159487
0.61962552
0.61773532
0.61592318
0.6141876
0.61252666
0.61093799
0.60941865
0.60796507
0.6065727
0.60523616
0.60394917
0.60270422
0.6014923
0.60030277
0.59912331
0.59794036
0.59673943
0.59550521
0.59422092
0.59286808
0.59142771
0.58988608
0.5882497
0.5865544
0.58483313
0.58313047
0.58164849
0.58012875
0.64826872
0.76925687
0.71854103
0.74563287
0.72841551
0.7361959
0.72957763
0.73077699
0.72776247
0.72668555
0.72471289
0.72297849
0.72108334
0.71913718
0.71711546
0.71502071
0.7128526
0.71061096
0.70829609
0.70590865
0.70344976
0.70092101
0.69832453
0.69566302
0.69293978
0.69015875
0.68732449
0.68444225
0.68151787
0.67855784
0.67556918
0.67255946
0.66953666
0.66650911
0.66348539
0.66047418
0.65748419
0.65452396
0.65160181
0.64872566
0.6459029
0.64314034
0.64044407
0.6378194
0.63527083
0.63280199
0.63041566
0.62811377
0.62589746
0.6237671
0.6217224
0.61976244
0.6178858
0.6160906
0.61437459
0.6127352
0.61116951
0.60967423
0.60824564
0.60687944
0.60557054
0.60431306
0.60310038
0.60192475
0.60077708
0.59964675
0.59852164
0.59738847
0.5962332
0.59504103
0.59379579
0.59247942
0.591073
0.58956392
0.58796277
0.58630512
0.58461818
0.58297714
0.58156475
0.57990508
0.65136206
0.77266045
0.72093713
0.74816489
0.73065647
0.73830947
0.73156292
0.73256708
0.7295153
0.72820478
0.72612426
0.72420496
0.72215052
0.72003021
0.71783154
0.7155546
0.71319954
0.71076652
0.70825629
0.70567013
0.70300988
0.70027801
0.69747766
0.69461266
0.69168758
0.68870771
0.68567909
0.68260846
0.67950325
0.67637151
0.67322186
0.67006333
0.66690533
0.66375745
0.66062939
0.65753073
0.65447084
0.65145871
0.6485028
0.64561091
0.64279007
0.64004645
0.63738528
0.63481078
0.63232622
0.62993385
0.62763496
0.62542996
0.62331841
0.62129914
0.61937034
0.61752964
0.61577423
0.61410097
0.61250643
0.61098697
0.60953872
0.60815755
0.60683898
0.6055781
0.60436932
0.60320639
0.6020824
0.60098948
0.59991851
0.59885902
0.59779913
0.59672593
0.59562585
0.5944847
0.59328706
0.59201539
0.59065096
0.58918286
0.58762529
0.58601158
0.58436848
0.58280058
0.58144241
0.57967792
0.65398687
0.77546374
0.72286803
0.750191
0.73243433
0.73974783
0.73302245
0.73365257
0.73060752
0.72902451
0.72682164
0.72470617
0.72247241
0.7201593
0.71776207
0.71528027
0.7127146
0.710066
0.70733608
0.70452711
0.70164208
0.69868475
0.69565967
0.69257224
0.68942869
0.68623607
0.68300226
0.67973587
0.67644621
0.67314316
0.66983707
0.6665386
0.6632586
0.66000788
0.65679707
0.65363644
0.6505357
0.64750389
0.64454916
0.64167871
0.63889868
0.63621405
0.63362867
0.63114518
0.62876514
0.62648899
0.62431619
0.62224531
0.62027411
0.6183997
0.61661863
0.61492701
0.61332067
0.61179519
0.61034607
0.60896867
0.60765827
0.60641001
0.6052188
0.60407922
0.6029853
0.60193053
0.60090783
0.59990931
0.59892593
0.59794745
0.59696231
0.59595805
0.59492163
0.59383954
0.59269719
0.59147765
0.59016273
0.58874382
0.58723763
0.58567369
0.58408382
0.58259863
0.58128464
0.57944016
0.65618511
0.77769753
0.72437669
0.7517404
0.73378751
0.74073817
0.73398669
0.73448715
0.73103136
0.72916729
0.72680639
0.72446826
0.72202055
0.71948243
0.71685339
0.71413363
0.71132463
0.70842844
0.70544785
0.70238652
0.69924898
0.69604069
0.69276807
0.68943852
0.68606035
0.68264283
0.67919603
0.67573077
0.6722585
0.66879112
0.6653408
0.6619198
0.65854025
0.65521396
0.65195214
0.64876529
0.64566296
0.64265359
0.63974443
0.63694139
0.63424903
0.63167052
0.6292077
0.62686111
0.62463008
0.62251289
0.62050683
0.61860841
0.61681343
0.6151172
0.61351464
0.61200039
0.61056898
0.60921489
0.60793263
0.60671678
0.60556192
0.60446264
0.6034134
0.60240842
0.60144152
0.60050606
0.59959495
0.59870035
0.59781347
0.59692435
0.5960219
0.59509414
0.5941286
0.59311252
0.59203219
0.59087136
0.58961291
0.58825097
0.58680317
0.58529405
0.58376608
0.58237051
0.58109101
0.57918707
0.65802758
0.7793925
0.7254199
0.75281303
0.73446913
0.74077077
0.73410779
0.73380228
0.73073386
0.72858042
0.72601175
0.72341423
0.72070984
0.71790667
0.71500609
0.71200949
0.70891943
0.70573936
0.7024737
0.69912796
0.69570869
0.6922236
0.68868151
0.68509232
0.68146699
0.67781739
0.67415622
0.67049678
0.66685283
0.66323831
0.65966715
0.65615296
0.6527088
0.64934694
0.64607858
0.64291373
0.63986096
0.63692733
0.63411829
0.63143763
0.62888756
0.62646871
0.62418029
0.62202019
0.61998514
0.61807092
0.61627249
0.61458418
0.61299984
0.61151304
0.61011717
0.60880562
0.6075718
0.6064093
0.6053119
0.60427358
0.60328849
0.60235086
0.60145491
0.60059471
0.59976403
0.59895624
0.59816439
0.59738084
0.59659713
0.59580375
0.59499011
0.5941448
0.59325598
0.59231168
0.59129901
0.59020255
0.58900688
0.5877092
0.58632591
0.58487629
0.58341783
0.58211382
0.58085853
0.57892005
0.6595167
0.78052538
0.7259273
0.75320718
0.7344141
0.74028179
0.73362056
0.7329317
0.72965026
0.72714202
0.72431495
0.72141955
0.71841416
0.71530272
0.71208766
0.70877219
0.70536051
0.70185809
0.69827161
0.69460907
0.6908798
0.6870944
0.6832648
0.67940407
0.67552631
0.67164651
0.66778025
0.66394349
0.66015228
0.65642242
0.65276919
0.649207
0.64574913
0.64240744
0.63919218
0.63611178
0.63317277
0.63037973
0.62773528
0.62524016
0.62289339
0.62069238
0.61863315
0.61671058
0.61491854
0.6132502
0.61169816
0.6102547
0.60891189
0.6076618
0.60649658
0.6054086
0.60439051
0.6034353
0.60253632
0.60168723
0.60088199
0.60011474
0.59937967
0.59867089
0.59798231
0.59730749
0.59663973
0.59597174
0.5952955
0.59460204
0.5938814
0.59312278
0.59231501
0.5914469
0.59050634
0.58947889
0.58835162
0.58712463
0.58581106
0.58442559
0.58304256
0.58182593
0.5805872
0.57864639
0.66058732
0.78098725
0.725817
0.75202367
0.73357134
0.73884974
0.73232355
0.73103169
0.72762022
0.72473082
0.72158717
0.71834755
0.71499139
0.71152281
0.70794559
0.70426526
0.70048848
0.69662353
0.69268024
0.68867002
0.68460583
0.68050215
0.67637473
0.6722405
0.66811724
0.66402332
0.65997733
0.65599775
0.65210255
0.64830879
0.64463226
0.64108715
0.63768573
0.63443815
0.63135227
0.62843356
0.62568515
0.62310788
0.62070046
0.61845969
0.61638067
0.61445709
0.61268151
0.61104561
0.60954048
0.6081568
0.60688509
0.60571587
0.60463982
0.60364788
0.60273139
0.60188212
0.6010923
0.60035469
0.59966252
0.59900948
0.5983896
0.59779715
0.59722654
0.59667211
0.59612806
0.59558831
0.59504654
0.59449592
0.59392899
0.59333741
0.59271193
0.59204242
0.59131845
0.59052954
0.58966422
0.58870935
0.58765516
0.58650405
0.58526421
0.58394769
0.58264516
0.58150864
0.5802793
0.57837846
0.6611407
0.78060432
0.72496847
0.7501925
0.73210216
0.7365327
0.73007052
0.72816599
0.7245172
0.72120621
0.71768179
0.7140426
0.71027907
0.70639794
0.70240528
0.69830983
0.69412187
0.6898537
0.68551952
0.68113536
0.67671897
0.67228959
0.66786762
0.66347434
0.65913148
0.65486077
0.65068349
0.64661999
0.64268918
0.63890811
0.63529159
0.63185185
0.62859836
0.62553769
0.62267351
0.6200067
0.61753554
0.61525594
0.61316181
0.61124532
0.60949734
0.60790769
0.60646554
0.60515963
0.60397859
0.60291109
0.60194607
0.60107282
0.60028117
0.59956146
0.59890469
0.59830248
0.5977471
0.59723144
0.59674896
0.59629363
0.59585983
0.59544222
0.59503559
0.5946347
0.5942342
0.59382848
0.59341172
0.59297765
0.59251943
0.59202949
0.5914993
0.59091953
0.59028048
0.58957227
0.588784
0.58790418
0.58692664
0.58585483
0.58469108
0.58344839
0.58223308
0.58117164
0.57994355
0.57810752
0.66111574
0.77930455
0.72324699
0.74758574
0.729728
0.73316027
0.72673468
0.72416251
0.72019392
0.7164094
0.712431
0.70832494
0.70408764
0.69973005
0.69526225
0.6906977
0.68605196
0.68134298
0.67659081
0.67181748
0.66704659
0.66230297
0.65761217
0.65299998
0.64849179
0.64411204
0.63988355
0.63582696
0.63196024
0.6282982
0.62485225
0.62163024
0.61863641
0.61587157
0.61333332
0.61101637
0.60891299
0.60701338
0.60530621
0.60377895
0.60241836
0.6012108
0.60014255
0.59920007
0.59837021
0.59764036
0.59699856
0.5964336
0.59593503
0.59549324
0.59509937
0.59474538
0.59442397
0.59412852
0.59385301
0.59359198
0.59334038
0.59309341
0.59284644
0.59259478
0.59233362
0.59205797
0.59176255
0.59144173
0.5910894
0.59069874
0.59026206
0.58977087
0.58921626
0.5885888
0.58787813
0.58707481
0.58617611
0.58518492
0.58409801
0.58293448
0.5818147
0.58082287
0.57958657
0.57784063
0.660495
0.77698903
0.72058556
0.7438711
0.72632719
0.72863798
0.72216807
0.71887589
0.71447521
0.71014452
0.7056256
0.70097089
0.69618225
0.69127658
0.68627034
0.68118386
0.67603996
0.67086402
0.66568351
0.66052762
0.65542667
0.65041146
0.64551262
0.64075971
0.63618054
0.63180028
0.62764083
0.62372024
0.62005226
0.6166462
0.61350688
0.61063481
0.60802654
0.60567507
0.60357045
0.60170027
0.60005033
0.59860511
0.59734832
0.59626337
0.59533366
0.59454298
0.5938757
0.59331695
0.59285274
0.59247005
0.59215685
0.59190215
0.59169591
0.59152906
0.59139344
0.59128174
0.59118744
0.5911047
0.59102828
0.59095348
0.59087597
0.59079168
0.59069662
0.59058677
0.59045796
0.59030583
0.59012575
0.58991276
0.58966148
0.58936589
0.58901919
0.58861382
0.58814162
0.58759357
0.58695995
0.58623361
0.58541446
0.58450322
0.58349295
0.58241409
0.58139598
0.58046763
0.5792217
0.57758418
0.65921912
0.77348458
0.71693405
0.73895939
0.72173279
0.72278989
0.71616748
0.71208589
0.70712416
0.702151
0.69699012
0.69169241
0.6862677
0.68074125
0.67513862
0.66948932
0.66382552
0.65818179
0.65259436
0.64710045
0.64173728
0.63654105
0.63154593
0.62678291
0.6222789
0.61805596
0.61413072
0.61051414
0.6072115
0.60422266
0.60154253
0.5991617
0.59706713
0.59524295
0.59367118
0.59233246
0.59120668
0.59027351
0.5895129
0.58890538
0.58843237
0.58807637
0.58782104
0.58765133
0.58755344
0.58751488
0.58752432
0.58757166
0.58764786
0.5877449
0.58785568
0.58797397
0.58809426
0.58821173
0.58832209
0.58842151
0.58850651
0.58857377
0.58862008
0.58864212
0.58863638
0.58859918
0.58852655
0.58841421
0.58825752
0.58805127
0.58778958
0.58746586
0.58707271
0.58660153
0.5860435
0.58539371
0.58465335
0.58381979
0.5828856
0.58189615
0.58098206
0.58011308
0.57886556
0.57732646
0.65723447
0.76855085
0.7123435
0.73265938
0.71573728
0.71538929
0.70846054
0.70349197
0.6978184
0.69208377
0.6861686
0.68012944
0.67398778
0.66777985
0.6615431
0.65531878
0.64915062
0.643084
0.63716473
0.63143768
0.62594531
0.6207262
0.61581374
0.61123503
0.60701021
0.60315206
0.59966609
0.59655092
0.59379898
0.59139734
0.58932875
0.58757261
0.58610602
0.58490462
0.58394345
0.5831976
0.58264271
0.58225545
0.58201374
0.58189702
0.58188628
0.58196419
0.58211503
0.58232465
0.58258042
0.58287115
0.58318691
0.58351903
0.5838599
0.58420289
0.58454225
0.58487302
0.58519089
0.58549215
0.58577354
0.58603218
0.58626545
0.58647086
0.58664594
0.58678809
0.58689448
0.58696213
0.58698771
0.58696762
0.5868979
0.58677415
0.58659141
0.5863441
0.58602555
0.58562778
0.5851432
0.58456882
0.58390537
0.58314639
0.58228761
0.58139012
0.58057697
0.57976362
0.5785252
0.57707283
0.65448174
0.76179062
0.70666699
0.72470222
0.70802769
0.70608554
0.69865549
0.69267702
0.68613073
0.67950631
0.67272681
0.66585859
0.65893935
0.65202005
0.64515368
0.63839636
0.63180523
0.62543672
0.61934438
0.61357685
0.60817599
0.60317539
0.59859944
0.59446289
0.59077103
0.58752031
0.58469934
0.58229019
0.58026969
0.5786109
0.57728434
0.57625923
0.57550444
0.57498931
0.5746843
0.5745614
0.57459447
0.57475941
0.57503423
0.57539906
0.5758361
0.57632952
0.57686531
0.57743121
0.57801648
0.57861181
0.57920917
0.57980163
0.5803833
0.58094915
0.58149489
0.58201693
0.5825122
0.58297814
0.58341252
0.58381342
0.58417905
0.58450774
0.58479771
0.58504707
0.58525369
0.5854152
0.58552893
0.58559192
0.58560087
0.58555213
0.58544165
0.58526476
0.58501561
0.58468715
0.58427344
0.58377281
0.58318392
0.58249659
0.58171224
0.58090515
0.58018552
0.57942411
0.57820083
0.57684903
0.65082096
0.75253538
0.69930406
0.71463235
0.69814446
0.69440108
0.68624409
0.67912149
0.67154344
0.6639039
0.65616527
0.64840922
0.64069643
0.63309822
0.62568695
0.61853481
0.61171049
0.60527622
0.59928518
0.59377937
0.5887884
0.58432902
0.58040548
0.5770106
0.57412725
0.57173023
0.56978817
0.56826543
0.56712386
0.56632429
0.56582777
0.56559653
0.56559467
0.56578866
0.56614762
0.56664345
0.56725086
0.56794725
0.56871265
0.56952949
0.57038246
0.57125827
0.57214545
0.57303421
0.57391618
0.5747843
0.57563261
0.57645615
0.57725079
0.57801314
0.57874041
0.57943035
0.58008112
0.58069122
0.58125942
0.58178468
0.58226603
0.58270248
0.58309296
0.58343622
0.58373076
0.58397482
0.58416635
0.58430297
0.58438203
0.58440058
0.58435539
0.58424262
0.58405725
0.5837936
0.58344777
0.58301877
0.58250196
0.58188407
0.58117342
0.58045394
0.57981816
0.57909893
0.57789738
0.57666639
0.64596137
0.74084804
0.68982256
0.70188924
0.68550651
0.67977233
0.67062139
0.6622014
0.65343729
0.64467446
0.63592351
0.62729033
0.61886543
0.61074354
0.60301423
0.59575859
0.5890451
0.58292689
0.57743998
0.57260296
0.56841769
0.56487104
0.56193724
0.55958057
0.55775812
0.55642242
0.55552374
0.55501201
0.55483832
0.55495607
0.55532171
0.5558952
0.5566402
0.55752417
0.55851821
0.5595969
0.56073807
0.56192249
0.56313363
0.56435735
0.56558163
0.56679636
0.56799303
0.56916459
0.57030523
0.5714102
0.57247567
0.57349859
0.57447657
0.57540777
0.5762908
0.57712465
0.5779086
0.57864214
0.57932492
0.57995669
0.58053719
0.58106607
0.58154286
0.58196688
0.58233723
0.58265272
0.58291184
0.58311279
0.58325353
0.58333177
0.583345
0.58329001
0.58316272
0.58295921
0.58267774
0.58231737
0.58186984
0.58132037
0.58068501
0.580052
0.57948844
0.57879517
0.57762335
0.57653991
0.63954778
0.72765451
0.67766232
0.6858786
0.66938886
0.6614707
0.65101182
0.64112246
0.63105433
0.62113612
0.61143916
0.60209916
0.59323342
0.58494991
0.57733827
0.57046651
0.5643787
0.55909471
0.55461177
0.55090721
0.54794221
0.54566577
0.54401871
0.54293728
0.54235624
0.54221132
0.54244099
0.54298773
0.54379879
0.54482651
0.54602845
0.54736716
0.54881001
0.55032872
0.55189903
0.55350025
0.55511486
0.55672813
0.55832778
0.5599036
0.56144725
0.56295191
0.56441214
0.56582361
0.56718298
0.5684877
0.56973593
0.57092637
0.57205819
0.57313097
0.57414455
0.57509901
0.5759946
0.57683168
0.57761065
0.57833193
0.57899584
0.57960262
0.58015229
0.58064468
0.5810794
0.58145575
0.58177278
0.58202923
0.58222363
0.58235433
0.58241935
0.58241606
0.58234139
0.5821933
0.58197194
0.58167585
0.58129401
0.58081271
0.58025544
0.57970809
0.57920787
0.57853402
0.57740331
0.57646958
0.63124906
0.71042373
0.66197699
0.66570319
0.648736
0.63842782
0.62637564
0.61491481
0.60357609
0.59268283
0.58236343
0.57276998
0.5640208
0.55620476
0.549376
0.54355472
0.53872974
0.53486331
0.53189677
0.52975675
0.52836089
0.52762291
0.52745671
0.52777941
0.52851347
0.52958795
0.53093913
0.53251066
0.53425329
0.53612447
0.53808777
0.54011227
0.5421719
0.54424487
0.54631308
0.54836161
0.55037829
0.55235324
0.55427859
0.55614811
0.55795699
0.5597016
0.5613793
0.56298827
0.56452736
0.56599601
0.56739407
0.56872179
0.5699797
0.57116853
0.57228919
0.57334267
0.57433004
0.57525235
0.57611065
0.57690588
0.57763888
0.5783103
0.57892063
0.57947011
0.57995877
0.58038637
0.58075242
0.5810562
0.5812968
0.58147315
0.58158374
0.58162645
0.58159929
0.58150192
0.58133566
0.58109805
0.58077696
0.58036267
0.57988525
0.5794215
0.57897744
0.57832866
0.57726392
0.57643388
0.62040708
0.6881535
0.64135618
0.63993776
0.62206428
0.6092492
0.59553794
0.58267602
0.57044618
0.55914778
0.54892412
0.5398973
0.53213387
0.52565276
0.52042838
0.5163989
0.51347538
0.51155119
0.51051052
0.51023554
0.51061182
0.51153204
0.51289832
0.51462333
0.51663049
0.51885365
0.52123635
0.52373093
0.52629747
0.52890283
0.53151975
0.53412593
0.53670329
0.53923734
0.54171655
0.5441319
0.54647644
0.54874493
0.55093359
0.55303979
0.55506188
0.556999
0.55885094
0.56061799
0.5623009
0.5639007
0.56541871
0.56685642
0.56821544
0.56949749
0.5707043
0.57183762
0.57289915
0.57389052
0.57481326
0.57566876
0.57645822
0.57718267
0.57784292
0.57843959
0.57897302
0.57944337
0.57985054
0.5801943
0.58047429
0.58068994
0.58084019
0.58092356
0.58093912
0.58088783
0.58077109
0.58058514
0.58031852
0.57996831
0.57957036
0.57918609
0.57878681
0.57815376
0.5771583
0.57645526
0.6058663
0.65873291
0.61387423
0.60681871
0.58776387
0.57255949
0.55761756
0.54406443
0.53186613
0.52124037
0.51226059
0.50494416
0.49924063
0.49504984
0.49223552
0.49064061
0.49010006
0.49045105
0.49154015
0.49322772
0.49539009
0.49792004
0.50072622
0.50373191
0.50687343
0.51009842
0.51336428
0.51663661
0.51988786
0.5230962
0.52624452
0.52931954
0.53231117
0.5352119
0.5380163
0.54072066
0.54332265
0.54582105
0.54821554
0.5505065
0.5526949
0.55478214
0.55676998
0.55866043
0.5604557
0.56215814
0.56377018
0.56529428
0.56673294
0.56808861
0.56936368
0.57056045
0.57168114
0.57272779
0.57370233
0.57460647
0.57544172
0.57620936
0.57691048
0.57754596
0.57811642
0.57862228
0.57906381
0.57944117
0.57975447
0.58000358
0.58018793
0.58030681
0.58036042
0.58035039
0.58027738
0.58013617
0.57991742
0.57962649
0.57930376
0.57899209
0.57862895
0.57800829
0.57708955
0.57655218
0.58563796
0.61981069
0.57734423
0.5645519
0.54483921
0.52767653
0.51266824
0.49986225
0.48922773
0.48080759
0.47450387
0.47015567
0.46755013
0.4664512
0.46661888
0.46782448
0.4698599
0.47254228
0.47571527
0.479248
0.48303277
0.48698216
0.49102606
0.4951088
0.4991866
0.50322542
0.50719902
0.5110875
0.51487597
0.51855358
0.52211268
0.52554815
0.52885685
0.53203724
0.53508902
0.53801283
0.54081008
0.54348276
0.54603329
0.54846441
0.55077912
0.55298055
0.55507198
0.55705672
0.55893809
0.56071942
0.56240399
0.563995
0.56549557
0.56690873
0.56823733
0.56948412
0.57065167
0.57174236
0.57275837
0.57370168
0.574574
0.57537684
0.57611149
0.57677901
0.57738022
0.57791576
0.57838615
0.57879184
0.57913326
0.57941065
0.57962399
0.57977343
0.57986015
0.57988606
0.57985075
0.57974812
0.57957173
0.57933371
0.57907554
0.57882414
0.57849812
0.57791417
0.57708403
0.57660913
0.5571081
0.56887887
0.53044001
0.51180323
0.49098679
0.47537876
0.46228871
0.45231973
0.44520641
0.44070391
0.4384635
0.43811891
0.43930963
0.44170652
0.44502258
0.44901652
0.45349101
0.45828801
0.46328308
0.46837962
0.47350354
0.47859867
0.48362298
0.48854547
0.4933437
0.49800186
0.5025092
0.50685891
0.51104713
0.51507231
0.51893458
0.52263538
0.52617712
0.5295629
0.53279635
0.53588143
0.53882238
0.54162357
0.54428945
0.5468245
0.54923319
0.55151995
0.55368911
0.55574493
0.55769156
0.559533
0.56127315
0.56291573
0.56446432
0.56592234
0.567293
0.56857934
0.56978419
0.57091017
0.57195966
0.57293481
0.5738375
0.5746694
0.57543197
0.57612638
0.57675359
0.5773144
0.57780947
0.57823944
0.57860491
0.57890635
0.57914424
0.57931952
0.57943407
0.57948978
0.57948557
0.57941576
0.57927722
0.57908553
0.57887797
0.5786686
0.5783729
0.57783599
0.57710486
0.57673149
0.51615148
0.50345413
0.46596726
0.44792493
0.43037687
0.41808037
0.409708
0.40504032
0.40341946
0.40425524
0.40697479
0.41108745
0.41618795
0.42195543
0.42814254
0.43456274
0.44107779
0.44758685
0.45401748
0.46031861
0.46645505
0.47240334
0.47814869
0.4836826
0.48900122
0.49410398
0.49899271
0.50367094
0.50814334
0.51241537
0.51649301
0.52038254
0.52409037
0.52762298
0.53098678
0.53418811
0.53723318
0.54012802
0.54287852
0.54549034
0.54796899
0.55031974
0.55254769
0.55465773
0.55665455
0.55854264
0.5603263
0.56200961
0.56359647
0.56509054
0.56649529
0.56781395
0.56904954
0.57020483
0.57128235
0.57228437
0.57321291
0.57406974
0.57485644
0.57557427
0.57622431
0.57680742
0.57732436
0.57777581
0.57816243
0.57848482
0.57874377
0.57894073
0.57907785
0.57915684
0.5791766
0.57913321
0.57902725
0.57887526
0.57870622
0.57852218
0.5782479
0.57777035
0.57715031
0.57682934
0.45379425
0.42100202
0.39112565
0.37617031
0.36526326
0.3604293
0.35986075
0.36263243
0.36774686
0.3744392
0.38212004
0.39036176
0.39886171
0.40741119
0.4158694
0.42414376
0.43217537
0.43992866
0.44738412
0.45453316
0.46137453
0.46791191
0.47415211
0.48010398
0.4857775
0.49118328
0.49633216
0.50123496
0.50590229
0.51034447
0.51457143
0.51859272
0.52241747
0.52605437
0.52951171
0.53279737
0.53591885
0.53888328
0.54169745
0.5443678
0.5469005
0.54930136
0.55157597
0.55372961
0.55576732
0.55769389
0.55951387
0.56123157
0.56285108
0.56437622
0.56581062
0.56715764
0.5684204
0.56960179
0.57070442
0.57173065
0.57268257
0.57356208
0.57437079
0.57511006
0.57578102
0.57638458
0.57692154
0.57739259
0.57779835
0.5781395
0.57841699
0.57863238
0.57878768
0.57888432
0.5789218
0.57889871
0.57881867
0.57869699
0.57855415
0.5783857
0.5781321
0.57771835
0.5772065
0.57692549
0.3573931
0.32374807
0.30603659
0.30152287
0.30291275
0.30921542
0.31844328
0.32932268
0.34097471
0.35284435
0.36459353
0.37602474
0.38702934
0.39755373
0.40757793
0.41710213
0.42613825
0.43470476
0.44282341
0.45051726
0.45780947
0.46472263
0.47127832
0.47749693
0.48339761
0.4889982
0.49431533
0.49936446
0.50415996
0.50871516
0.5130425
0.51715352
0.52105901
0.52476903
0.52829299
0.53163971
0.53481747
0.53783404
0.54069676
0.54341252
0.54598786
0.54842893
0.55074157
0.55293129
0.55500334
0.55696267
0.55881395
0.56056164
0.56220991
0.5637627
0.56522368
0.56659631
0.56788377
0.56908898
0.57021463
0.57126313
0.57223662
0.57313705
0.57396608
0.57472513
0.57541537
0.57603774
0.57659304
0.57708195
0.57750512
0.57786327
0.57815741
0.57838898
0.57855966
0.57867063
0.57872215
0.57871502
0.5786546
0.5785538
0.57842633
0.57826673
0.57803482
0.57768676
0.57727268
0.57701218
0.21757133
0.21628022
0.22168817
0.2351519
0.25254756
0.27103316
0.28939762
0.30698683
0.32356998
0.3390823
0.35354862
0.36702924
0.37959798
0.39133023
0.40229787
0.41256709
0.42219776
0.43124352
0.43975224
0.44776656
0.45532449
0.46245994
0.46920324
0.4755816
0.48161948
0.48733893
0.49275993
0.4979006
0.50277745
0.50740555
0.51179873
0.51596968
0.51993011
0.52369086
0.52726197
0.53065278
0.53387198
0.53692772
0.53982761
0.54257881
0.54518805
0.54766165
0.55000558
0.5522255
0.55432672
0.55631429
0.55819297
0.55996724
0.56164135
0.56321927
0.56470472
0.56610118
0.56741185
0.56863971
0.56978745
0.57085751
0.57185206
0.57277305
0.57362219
0.5744009
0.57511036
0.57575152
0.57632515
0.5768319
0.57727241
0.57764741
0.57795788
0.57820504
0.57839024
0.57851459
0.57857909
0.57858593
0.57854076
0.57845364
0.57833406
0.57817921
0.57796638
0.57767273
0.57733251
0.57708014
0.092344617
0.12238555
0.15997948
0.19378774
0.22406835
0.25073053
0.27439628
0.29553296
0.31455801
0.33179861
0.34751849
0.36192891
0.37520129
0.38747595
0.39886893
0.40947709
0.419382
0.42865296
0.43734925
0.44552199
0.45321551
0.46046855
0.46731512
0.47378526
0.47990565
0.48570008
0.49118988
0.49639426
0.50133061
0.50601467
0.51046084
0.51468227
0.51869102
0.52249823
0.52611417
0.5295484
0.53280975
0.53590652
0.53884642
0.54163669
0.54428413
0.54679515
0.54917576
0.55143164
0.55356817
0.55559041
0.55750315
0.55931091
0.56101794
0.56262824
0.56414556
0.56557336
0.56691487
0.56817306
0.56935061
0.57044994
0.57147322
0.57242235
0.573299
0.57410454
0.57484008
0.57550647
0.57610438
0.57663433
0.57709683
0.5774925
0.57782216
0.57808681
0.57828753
0.57842546
0.57850214
0.57852046
0.57848588
0.57840657
0.57829025
0.57813684
0.57793329
0.57766657
0.5773647
0.57713118
0.011302665
0.2971292
0.47341001
0.52209421
0.53203658
0.53255713
0.53221501
0.53338587
0.53483897
0.53632177
0.53780056
0.5392592
0.54068507
0.54209438
0.5435004
0.54491326
0.54633408
0.54776354
0.54920153
0.55064713
0.5520989
0.55355505
0.55501357
0.55647235
0.55792916
0.55938177
0.56082796
0.56226555
0.56369236
0.56510631
0.56650534
0.56788743
0.56925061
0.57059294
0.5719125
0.57320738
0.57447569
0.57571553
0.576925
0.5781022
0.57924519
0.58035204
0.58142078
0.58244944
0.58343603
0.58437854
0.585275
0.58612342
0.58692184
0.58766836
0.58836112
0.58899837
0.58957847
0.5900999
0.59056136
0.59096172
0.59130021
0.59157637
0.59179027
0.59194248
0.59203402
0.59206701
0.59204496
0.5919724
0.59185418
0.59169483
0.59149719
0.59126347
0.5909889
0.59067552
0.5902912
0.58985619
0.58923593
0.58857861
0.58746189
0.58657311
0.5846577
0.58370362
0.58096703
0.58017918
0.06329625
0.38535791
0.52444027
0.55002788
0.55094739
0.54909562
0.54821905
0.54834858
0.54855265
0.54886136
0.5492523
0.54980277
0.55047333
0.55123762
0.55206559
0.55295337
0.55389398
0.55488322
0.55591574
0.55698636
0.55809031
0.55922309
0.56038048
0.56155842
0.56275308
0.56396079
0.56517803
0.56640143
0.56762774
0.56885383
0.5700767
0.57129341
0.57250113
0.57369709
0.5748786
0.57604303
0.57718779
0.57831035
0.57940821
0.5804789
0.58151997
0.58252901
0.58350361
0.58444141
0.58534005
0.58619724
0.58701071
0.58777823
0.58849767
0.58916694
0.5897841
0.5903473
0.59085487
0.59130531
0.59169736
0.59202995
0.59230245
0.59251457
0.59266662
0.59275938
0.59279418
0.59277342
0.59270084
0.59258105
0.59241875
0.5922181
0.59198139
0.59170984
0.59139818
0.59104626
0.59062316
0.59014359
0.58948341
0.58877422
0.58762598
0.58668636
0.58474558
0.58378449
0.58095814
0.5803378
0.14840064
0.46713644
0.54454462
0.55754544
0.55618908
0.555249
0.55522909
0.55579215
0.55620238
0.55672722
0.55722845
0.55779281
0.55837615
0.55900267
0.55966287
0.5603615
0.56109445
0.56186234
0.5626636
0.56349652
0.56435928
0.56524992
0.5661663
0.56710611
0.56806694
0.56904624
0.57004139
0.57104967
0.5720683
0.57309447
0.5741253
0.57515791
0.5761894
0.57721686
0.57823737
0.57924802
0.58024592
0.58122817
0.5821919
0.58313427
0.58405243
0.58494359
0.58580496
0.58663382
0.58742748
0.58818332
0.58889877
0.58957137
0.59019874
0.59077863
0.59130892
0.59178766
0.59221312
0.59258376
0.59289832
0.5931558
0.59335562
0.59349767
0.59358242
0.59361087
0.59358457
0.59350614
0.59337948
0.59320919
0.59299975
0.59275488
0.59247629
0.59216431
0.59181296
0.59142047
0.59095625
0.59043158
0.58972885
0.58897061
0.5877865
0.58680152
0.58483136
0.58386411
0.58096035
0.58048836
0.23142222
0.51525988
0.55834104
0.56603587
0.56333905
0.56357055
0.56362113
0.56422785
0.5644988
0.56496004
0.56533584
0.56579301
0.5662507
0.5667423
0.56725107
0.56778516
0.56834182
0.5689236
0.56953029
0.57016181
0.57081789
0.57149803
0.57220146
0.57292718
0.57367399
0.57444042
0.57522483
0.57602537
0.57684002
0.57766657
0.5785027
0.57934591
0.58019363
0.58104315
0.58189168
0.58273636
0.58357427
0.58440244
0.58521785
0.58601748
0.58679828
0.58755721
0.58829124
0.58899738
0.58967268
0.59031428
0.59091936
0.59148524
0.59200935
0.59248924
0.59292268
0.59330762
0.59364225
0.59392499
0.59415458
0.59433006
0.59445091