/*--------------------------------*- C++ -*----------------------------------*\
  =========                 |
  \\      /  F ield         | OpenFOAM: The Open Source CFD Toolbox
   \\    /   O peration     | Website:  https://openfoam.org
    \\  /    A nd           | Version:  12
     \\/     M anipulation  |
\*---------------------------------------------------------------------------*/
FoamFile
{
    format      ascii;
    class       volScalarField;
    location    "0.063";
    object      rho;
}
// * * * * * * * * * * * * * * * * * * * * * * * * * * * * * * * * * * * * * //

dimensions      [1 -3 0 0 0 0 0];

internalField   nonuniform List<scalar> 
16000
(
1.055061
1.0882316
1.0759352
1.0842884
1.0804009
1.0838839
1.0828943
1.0847369
1.0848937
1.0861181
1.0867832
1.0878125
1.0887057
1.0897185
1.0907312
1.0917966
1.0928949
1.0940339
1.0952118
1.0964294
1.0976869
1.0989842
1.1003212
1.1016974
1.1031123
1.104565
1.1060543
1.1075789
1.1091371
1.1107268
1.112346
1.1139918
1.1156616
1.1173522
1.1190602
1.1207819
1.1225134
1.1242508
1.1259897
1.1277258
1.1294548
1.1311722
1.1328737
1.134555
1.136212
1.1378406
1.1394371
1.1409981
1.1425204
1.1440011
1.1454378
1.1468282
1.1481707
1.1494636
1.1507061
1.1518973
1.1530368
1.1541244
1.1551602
1.1561444
1.1570773
1.1579591
1.1587901
1.1595701
1.1602987
1.1609752
1.1615984
1.1621669
1.1626791
1.163133
1.1635249
1.1638494
1.1640995
1.1642713
1.1643711
1.1644247
1.1644871
1.1645741
1.1650658
1.1644986
1.0516546
1.0853501
1.0723897
1.0813489
1.0772243
1.0809787
1.0798888
1.0819065
1.0820548
1.0833834
1.0841005
1.0852062
1.0861744
1.0872628
1.0883574
1.0895053
1.0906903
1.0919184
1.0931884
1.0945008
1.0958556
1.0972526
1.0986913
1.100171
1.1016908
1.1032494
1.1048453
1.1064766
1.1081411
1.1098365
1.1115599
1.1133083
1.1150781
1.1168657
1.1186672
1.1204783
1.1222947
1.1241118
1.125925
1.1277296
1.1295208
1.1312941
1.1330449
1.1347689
1.136462
1.1381203
1.1397405
1.1413192
1.1428537
1.1443416
1.1457808
1.1471698
1.1485073
1.1497923
1.1510244
1.1522032
1.1533289
1.1544017
1.1554221
1.1563906
1.1573079
1.1581744
1.1589907
1.1597567
1.1604724
1.1611372
1.1617499
1.1623093
1.1628138
1.1632613
1.1636481
1.1639689
1.1642167
1.1643885
1.1644906
1.1645466
1.1646077
1.1647686
1.1650687
1.1647507
1.0485603
1.0827194
1.0693948
1.0786422
1.0743698
1.078325
1.0772127
1.0793523
1.0795431
1.0809564
1.081749
1.082933
1.0839886
1.0851619
1.0863488
1.08759
1.0888726
1.0902008
1.0915737
1.0929915
1.0944538
1.0959601
1.0975096
1.0991013
1.1007337
1.1024052
1.1041137
1.105857
1.1076323
1.1094365
1.1112664
1.1131181
1.1149877
1.1168707
1.1187627
1.1206588
1.1225541
1.1244436
1.1263222
1.128185
1.1300268
1.1318431
1.1336292
1.1353809
1.1370944
1.1387659
1.1403925
1.1419714
1.1435004
1.1449776
1.1464017
1.1477717
1.1490869
1.1503471
1.1515525
1.1527033
1.1538001
1.1548438
1.1558352
1.1567752
1.1576648
1.1585047
1.1592955
1.1600377
1.1607311
1.1613753
1.1619694
1.1625121
1.1630018
1.1634364
1.1638123
1.164124
1.1643651
1.1645334
1.1646353
1.1646925
1.1647683
1.164949
1.1651413
1.165027
1.0458
1.0803401
1.0665986
1.0762093
1.0717951
1.0759817
1.0748528
1.077133
1.0773756
1.0788872
1.0797696
1.0810443
1.0822023
1.0834738
1.084767
1.086115
1.0875079
1.0889485
1.090436
1.0919704
1.0935508
1.0951766
1.0968465
1.0985591
1.1003125
1.1021047
1.1039329
1.1057943
1.1076854
1.1096026
1.1115417
1.1134982
1.1154673
1.1174441
1.1194231
1.1213991
1.1233664
1.1253196
1.1272533
1.1291622
1.1310411
1.1328854
1.1346906
1.1364526
1.1381681
1.1398338
1.1414473
1.1430066
1.14451
1.1459565
1.1473455
1.1486769
1.1499506
1.1511674
1.152328
1.1534333
1.1544846
1.1554833
1.1564305
1.1573278
1.1581763
1.1589771
1.159731
1.1604386
1.1610999
1.1617147
1.1622821
1.1628009
1.1632694
1.1636853
1.1640451
1.164343
1.1645734
1.1647348
1.1648322
1.164889
1.1649782
1.1651506
1.1652779
1.1653079
1.043419
1.0783523
1.0642024
1.0741129
1.0695596
1.07402
1.0728857
1.0753121
1.0756284
1.0772455
1.0782368
1.0796119
1.0808859
1.0822667
1.0836766
1.0851415
1.0866543
1.0882169
1.0898285
1.0914887
1.0931965
1.0949509
1.0967502
1.0985924
1.1004751
1.1023953
1.1043497
1.1063347
1.1083458
1.1103785
1.1124278
1.1144883
1.1165543
1.11862
1.1206793
1.1227263
1.1247547
1.1267589
1.1287329
1.1306715
1.1325696
1.1344227
1.1362266
1.1379779
1.1396737
1.1413116
1.1428898
1.1444072
1.1458632
1.1472575
1.1485906
1.149863
1.1510759
1.1522306
1.1533287
1.1543718
1.1553617
1.1563004
1.1571896
1.158031
1.1588262
1.1595766
1.1602832
1.1609466
1.1615671
1.1621444
1.1626778
1.1631661
1.1636075
1.1639996
1.1643385
1.1646187
1.164835
1.1649862
1.1650761
1.165132
1.1652312
1.1653818
1.1654622
1.1656124
1.0414634
1.0767744
1.0622722
1.0724927
1.0678341
1.072519
1.0713728
1.073965
1.074373
1.0760997
1.0772121
1.0786911
1.080088
1.0815846
1.0831184
1.0847088
1.0863509
1.0880457
1.0897924
1.0915899
1.093437
1.0953316
1.0972716
1.099254
1.1012756
1.1033325
1.1054203
1.1075342
1.109669
1.1118188
1.1139776
1.116139
1.1182963
1.1204429
1.1225721
1.1246771
1.1267516
1.1287894
1.1307846
1.1327322
1.1346272
1.1364657
1.1382443
1.1399602
1.1416114
1.1431965
1.1447149
1.1461664
1.1475515
1.1488711
1.1501266
1.1513195
1.152452
1.1535262
1.1545444
1.155509
1.1564224
1.157287
1.158105
1.1588784
1.1596091
1.1602987
1.1609483
1.1615588
1.1621305
1.1626631
1.1631561
1.163608
1.1640172
1.164381
1.1646951
1.164954
1.1651533
1.1652916
1.1653716
1.165426
1.1655301
1.1656481
1.1656904
1.1659507
1.0399321
1.0756157
1.0607921
1.0713585
1.0666156
1.0715052
1.0703938
1.0731225
1.0736344
1.0754511
1.0766914
1.0782783
1.0798083
1.0814336
1.0831056
1.0848374
1.0866254
1.0884695
1.0903682
1.0923198
1.0943221
1.0963722
1.0984669
1.1006022
1.1027736
1.104976
1.1072039
1.1094511
1.1117111
1.1139767
1.1162409
1.118496
1.1207346
1.1229491
1.1251322
1.1272769
1.1293765
1.1314249
1.1334165
1.1353468
1.1372115
1.1390075
1.1407323
1.1423845
1.1439632
1.1454682
1.1469002
1.1482603
1.1495503
1.1507721
1.1519283
1.1530216
1.1540548
1.1550311
1.1559533
1.1568246
1.1576478
1.1584257
1.1591608
1.1598556
1.1605121
1.161132
1.1617166
1.1622667
1.1627828
1.1632646
1.1637116
1.1641223
1.164495
1.1648266
1.1651128
1.1653478
1.1655278
1.1656509
1.1657194
1.1657721
1.1658754
1.1659513
1.165963
1.1663276
1.038761
1.0748155
1.059697
1.0706547
1.06581
1.0709377
1.0698498
1.0727764
1.0733104
1.0752441
1.0766468
1.0783684
1.0800586
1.0818391
1.0836741
1.0855717
1.087529
1.0895449
1.0916171
1.093743
1.0959193
1.098142
1.1004064
1.1027074
1.1050388
1.1073943
1.1097666
1.1121482
1.1145309
1.1169064
1.1192663
1.1216021
1.1239053
1.1261678
1.128382
1.1305408
1.1326376
1.1346669
1.1366239
1.1385047
1.1403065
1.1420274
1.1436663
1.1452232
1.1466988
1.1480946
1.1494125
1.1506553
1.1518258
1.1529274
1.1539637
1.1549384
1.1558551
1.1567177
1.1575297
1.1582947
1.1590159
1.1596965
1.1603392
1.1609466
1.1615209
1.1620639
1.1625769
1.1630608
1.1635159
1.1639421
1.1643388
1.1647045
1.1650372
1.1653338
1.1655894
1.1657986
1.1659579
1.1660639
1.1661201
1.166171
1.1662673
1.1662933
1.1662827
1.1667489
1.0379405
1.0743561
1.0589662
1.0703986
1.0653658
1.0706711
1.069664
1.0726149
1.0734795
1.0755586
1.0771547
1.0790369
1.0809133
1.082876
1.0849
1.0869894
1.0891411
1.0913529
1.0936214
1.0959427
1.0983121
1.100724
1.1031721
1.1056495
1.1081484
1.1106604
1.1131767
1.1156879
1.1181844
1.1206565
1.1230947
1.1254895
1.1278321
1.130114
1.1323277
1.1344665
1.1365247
1.1384976
1.140382
1.1421753
1.1438765
1.1454854
1.1470029
1.1484308
1.1497716
1.1510283
1.1522048
1.153305
1.1543331
1.1552938
1.1561916
1.1570309
1.1578163
1.158552
1.1592421
1.1598903
1.1605003
1.1610754
1.1616184
1.162132
1.1626184
1.1630792
1.163516
1.1639294
1.1643198
1.1646871
1.1650304
1.1653483
1.1656387
1.1658981
1.1661215
1.1663039
1.1664413
1.1665291
1.166573
1.1666216
1.1667035
1.1666765
1.1666557
1.1672165
1.037504
1.074271
1.0586351
1.0705033
1.0653248
1.0709917
1.07004
1.0732134
1.0742434
1.076475
1.0782955
1.0803672
1.0824577
1.0846326
1.0868741
1.0891833
1.0915562
1.0939891
1.0964772
1.0990147
1.101595
1.1042107
1.1068533
1.1095136
1.1121818
1.1148473
1.1174994
1.1201269
1.1227187
1.125264
1.1277523
1.1301737
1.1325194
1.1347812
1.1369525
1.1390276
1.1410024
1.1428742
1.1446414
1.1463039
1.1478629
1.1493204
1.1506795
1.1519441
1.1531185
1.1542078
1.1552171
1.1561519
1.1570176
1.1578196
1.1585634
1.1592541
1.1598965
1.1604953
1.1610549
1.1615791
1.1620717
1.1625358
1.1629745
1.1633903
1.1637852
1.164161
1.1645188
1.1648595
1.1651831
1.1654896
1.1657779
1.1660466
1.1662934
1.1665144
1.1667048
1.1668598
1.1669748
1.1670437
1.167076
1.1671212
1.1671811
1.1671024
1.1670819
1.16773
1.0375295
1.0746402
1.0587664
1.0708109
1.0657947
1.0716239
1.0710168
1.0743437
1.0756653
1.0780771
1.0801574
1.0824536
1.0847899
1.0872096
1.0896997
1.0922584
1.0948805
1.0975603
1.1002907
1.1030637
1.1058702
1.1087
1.111542
1.1143845
1.1172151
1.120021
1.1227894
1.1255075
1.1281631
1.1307445
1.133241
1.135643
1.1379423
1.1401324
1.142208
1.144166
1.1460045
1.1477235
1.1493242
1.1508094
1.1521827
1.153449
1.1546136
1.1556824
1.1566619
1.1575585
1.1583789
1.1591295
1.1598168
1.1604468
1.1610254
1.1615581
1.16205
1.1625059
1.16293
1.1633263
1.1636984
1.1640493
1.1643818
1.1646983
1.1650008
1.1652907
1.1655691
1.1658365
1.1660931
1.1663385
1.1665716
1.1667909
1.1669938
1.1671764
1.1673339
1.1674618
1.1675541
1.1676042
1.1676261
1.1676658
1.1676962
1.167571
1.1675654
1.1682836
1.0380992
1.0755366
1.059464
1.0718289
1.0669698
1.0730761
1.0726974
1.076208
1.077845
1.0804655
1.0828402
1.0853997
1.0880168
1.0907173
1.0934902
1.0963309
1.0992317
1.1021841
1.105178
1.1082023
1.1112444
1.114291
1.1173278
1.1203401
1.1233129
1.1262312
1.1290804
1.1318467
1.1345171
1.1370802
1.1395261
1.1418468
1.144036
1.1460899
1.1480064
1.1497855
1.1514288
1.1529397
1.154323
1.1555843
1.1567304
1.1577686
1.1587065
1.159552
1.160313
1.1609973
1.1616126
1.1621659
1.1626643
1.1631141
1.1635214
1.1638917
1.16423
1.1645409
1.1648286
1.1650966
1.1653484
1.1655867
1.1658141
1.1660326
1.1662439
1.1664493
1.1666497
1.1668454
1.1670363
1.1672219
1.1674011
1.1675721
1.1677321
1.167877
1.1680026
1.1681041
1.1681741
1.1682061
1.1682195
1.1682519
1.1682448
1.1680772
1.1681063
1.1688767
1.0392031
1.0769618
1.0607172
1.0735115
1.0688168
1.075163
1.0751371
1.0788448
1.0808644
1.0837372
1.0864484
1.0893186
1.0922592
1.0952824
1.098377
1.1015345
1.1047436
1.107992
1.1112653
1.1145484
1.1178248
1.1210773
1.1242883
1.12744
1.130515
1.1334966
1.1363692
1.139119
1.1417339
1.1442041
1.1465222
1.1486836
1.1506859
1.1525292
1.1542159
1.1557502
1.1571381
1.1583868
1.1595046
1.1605003
1.1613834
1.1621633
1.1628495
1.1634514
1.163978
1.1644377
1.1648386
1.1651882
1.1654935
1.1657609
1.1659962
1.1662045
1.1663906
1.1665588
1.1667127
1.1668557
1.1669905
1.1671198
1.1672456
1.1673697
1.1674934
1.1676178
1.1677435
1.1678706
1.1679989
1.1681276
1.1682554
1.1683803
1.1684994
1.1686087
1.1687041
1.1687806
1.1688288
1.1688443
1.1688516
1.1688743
1.1688241
1.1686254
1.1687029
1.1694987
1.0408975
1.0789708
1.0625936
1.0758435
1.0714313
1.0780347
1.0784435
1.0823748
1.084839
1.0880209
1.0911179
1.0943546
1.0976688
1.1010617
1.1045187
1.1080263
1.1115682
1.1151268
1.118683
1.1222166
1.1257069
1.1291325
1.1324725
1.1357067
1.138816
1.1417835
1.1445944
1.1472368
1.149702
1.1519842
1.1540811
1.155993
1.1577233
1.1592775
1.1606633
1.1618898
1.1629672
1.1639066
1.1647194
1.1654171
1.1660112
1.1665127
1.1669322
1.1672797
1.1675647
1.1677958
1.1679811
1.1681277
1.1682422
1.1683307
1.1683984
1.16845
1.1684897
1.1685212
1.1685476
1.1685717
1.1685958
1.1686222
1.1686523
1.1686877
1.1687293
1.1687779
1.1688338
1.168897
1.168967
1.1690429
1.1691231
1.1692054
1.1692867
1.1693632
1.1694311
1.1694842
1.1695119
1.1695133
1.1695164
1.1695265
1.1694313
1.1692136
1.1693539
1.1701365
1.0432424
1.0816209
1.0652048
1.0789513
1.0749074
1.08178
1.0827329
1.0869315
1.0899138
1.0934809
1.0970262
1.1006938
1.1044367
1.1082455
1.1121004
1.1159814
1.119866
1.1237307
1.1275504
1.1312997
1.1349529
1.1384854
1.1418737
1.1450968
1.1481365
1.1509784
1.1536119
1.1560305
1.1582315
1.1602162
1.1619893
1.1635582
1.1649329
1.1661249
1.1671471
1.1680133
1.1687374
1.1693335
1.1698152
1.1701958
1.1704876
1.1707026
1.1708515
1.1709443
1.1709901
1.1709972
1.1709729
1.1709239
1.1708561
1.1707746
1.170684
1.1705883
1.1704909
1.1703949
1.1703029
1.1702169
1.1701389
1.1700704
1.1700127
1.1699667
1.1699333
1.1699127
1.1699051
1.1699102
1.1699275
1.1699556
1.169993
1.170037
1.1700845
1.1701321
1.1701756
1.1702075
1.1702167
1.1702069
1.170207
1.1702012
1.1700625
1.1698364
1.170049
1.1707927
1.046295
1.0849424
1.0686794
1.0829072
1.079373
1.0865424
1.0881747
1.0927172
1.0963025
1.1003456
1.1044076
1.1085693
1.1127895
1.117049
1.1213209
1.1255773
1.1297882
1.1339226
1.137949
1.1418366
1.1455562
1.1490816
1.1523903
1.1554646
1.1582917
1.1608641
1.1631797
1.1652408
1.1670543
1.1686301
1.1699815
1.1711232
1.1720717
1.172844
1.1734573
1.1739287
1.1742746
1.1745107
1.1746516
1.1747111
1.1747016
1.1746345
1.1745201
1.1743677
1.1741855
1.1739807
1.1737599
1.1735285
1.1732916
1.1730534
1.1728176
1.1725872
1.172365
1.1721534
1.1719541
1.1717688
1.1715988
1.1714451
1.1713086
1.1711899
1.1710894
1.1710072
1.1709432
1.170897
1.1708677
1.170854
1.170854
1.1708648
1.1708833
1.1709062
1.170929
1.1709424
1.1709361
1.1709185
1.1709156
1.1708909
1.1707145
1.1704857
1.1707742
1.1714736
1.0501294
1.0889453
1.073142
1.0878693
1.0850386
1.0925715
1.0950346
1.1000167
1.1042869
1.1088948
1.113535
1.1182412
1.122971
1.1276937
1.1323724
1.1369688
1.1414437
1.145758
1.1498748
1.153761
1.1573884
1.1607351
1.1637859
1.1665326
1.1689738
1.1711139
1.1729627
1.1745344
1.1758461
1.1769173
1.1777687
1.1784218
1.1788976
1.179217
1.1793997
1.1794642
1.1794277
1.179306
1.1791134
1.1788628
1.1785658
1.1782326
1.1778722
1.1774926
1.1771006
1.1767023
1.1763029
1.1759068
1.1755179
1.1751393
1.1747738
1.1744237
1.1740908
1.1737768
1.1734829
1.1732102
1.1729593
1.1727309
1.1725255
1.1723433
1.1721845
1.1720488
1.1719361
1.1718457
1.1717765
1.1717272
1.1716955
1.1716785
1.1716731
1.171676
1.1716818
1.1716798
1.1716617
1.1716399
1.1716343
1.1715902
1.1713818
1.1711536
1.1715111
1.1721788
1.0549425
1.0937936
1.0788398
1.0941681
1.0922389
1.1001981
1.103637
1.1091558
1.114181
1.1194343
1.1247038
1.1299862
1.1352289
1.1403854
1.1454051
1.1502379
1.1548362
1.1591575
1.1631661
1.1668349
1.1701459
1.1730906
1.175669
1.1778891
1.1797654
1.1813172
1.1825677
1.1835424
1.1842676
1.1847704
1.1850767
1.1852118
1.1851993
1.185061
1.184817
1.1844854
1.1840824
1.1836226
1.1831186
1.1825818
1.1820218
1.1814473
1.1808655
1.1802827
1.1797044
1.179135
1.1785785
1.178038
1.1775163
1.1770155
1.1765374
1.1760835
1.175655
1.1752528
1.1748775
1.1745295
1.1742094
1.1739171
1.1736529
1.1734167
1.1732083
1.1730275
1.1728737
1.1727462
1.1726439
1.1725651
1.1725074
1.1724681
1.172444
1.1724315
1.1724238
1.1724098
1.1723842
1.1723619
1.1723533
1.1722883
1.1720566
1.1718456
1.1722562
1.1728769
1.0610125
1.1000864
1.0861619
1.1021377
1.1013194
1.1097483
1.1143148
1.1204925
1.1263451
1.1323167
1.1382443
1.1440887
1.1497791
1.1552506
1.1604405
1.1652933
1.1697634
1.1738171
1.1774333
1.1806039
1.183332
1.1856311
1.1875223
1.1890329
1.1901941
1.1910391
1.1916021
1.1919166
1.1920151
1.1919278
1.191683
1.1913064
1.1908209
1.1902473
1.1896039
1.1889066
1.1881696
1.1874047
1.1866227
1.1858323
1.1850412
1.1842559
1.1834819
1.1827236
1.181985
1.181269
1.1805783
1.1799149
1.1792803
1.1786759
1.1781027
1.1775612
1.1770521
1.1765756
1.1761319
1.175721
1.1753429
1.1749973
1.1746842
1.1744031
1.1741538
1.1739357
1.1737483
1.1735906
1.1734616
1.1733592
1.1732812
1.1732247
1.1731867
1.1731629
1.1731451
1.1731227
1.1730942
1.1730748
1.1730622
1.1729756
1.1727311
1.1725592
1.1730044
1.1735434
1.0685203
1.1083027
1.0953083
1.1120172
1.1126596
1.1216492
1.1275151
1.1345054
1.1412433
1.147952
1.154479
1.16075
1.1666781
1.1721901
1.1772268
1.1817462
1.1857244
1.1891546
1.1920458
1.1944197
1.1963077
1.1977481
1.1987832
1.1994567
1.1998126
1.199893
1.1997377
1.1993834
1.1988634
1.1982077
1.1974426
1.1965916
1.1956747
1.1947096
1.1937113
1.1926926
1.1916646
1.1906365
1.1896161
1.1886098
1.1876229
1.18666
1.1857246
1.1848195
1.1839472
1.1831093
1.1823072
1.1815419
1.1808141
1.1801242
1.1794724
1.1788589
1.1782834
1.177746
1.1772462
1.1767838
1.1763583
1.1759694
1.1756165
1.1752992
1.175017
1.1747691
1.1745549
1.1743735
1.1742235
1.1741031
1.1740099
1.1739411
1.1738935
1.1738619
1.1738372
1.1738103
1.1737835
1.1737696
1.1737527
1.1736464
1.1734004
1.1732793
1.1737423
1.1741718
1.0776139
1.118354
1.1069049
1.1243584
1.126913
1.136602
1.1438929
1.1517963
1.1593637
1.1666574
1.1735221
1.1798663
1.1856105
1.1907024
1.1951153
1.1988468
1.2019154
1.2043559
1.2062149
1.2075462
1.2084073
1.2088563
1.2089495
1.2087398
1.2082761
1.2076023
1.2067578
1.2057768
1.2046894
1.2035215
1.2022952
1.2010293
1.1997399
1.1984401
1.1971413
1.1958528
1.1945822
1.1933358
1.1921188
1.1909351
1.1897881
1.1886803
1.1876137
1.1865895
1.1856089
1.1846724
1.1837803
1.1829328
1.1821298
1.181371
1.1806561
1.1799846
1.1793559
1.1787696
1.1782249
1.1777213
1.1772582
1.1768347
1.1764505
1.1761047
1.1757966
1.1755256
1.1752909
1.1750914
1.1749258
1.1747922
1.1746884
1.1746116
1.1745584
1.1745222
1.1744938
1.1744666
1.1744459
1.1744398
1.1744193
1.1742996
1.1740641
1.1739909
1.174451
1.1747826
1.0890556
1.1311566
1.1218657
1.1401231
1.1450418
1.1555104
1.164152
1.1728393
1.1809056
1.1883253
1.1949712
1.2007812
1.2057262
1.2098126
1.2130748
1.2155681
1.2173615
1.2185315
1.2191567
1.2193138
1.2190754
1.2185077
1.2176703
1.2166157
1.2153895
1.214031
1.2125736
1.2110456
1.2094708
1.2078689
1.2062564
1.2046468
1.2030512
1.2014788
1.1999367
1.1984308
1.1969658
1.1955451
1.1941717
1.1928473
1.1915736
1.1903513
1.189181
1.188063
1.186997
1.1859828
1.18502
1.1841078
1.1832456
1.1824326
1.181668
1.1809509
1.1802804
1.1796557
1.1790758
1.1785401
1.1780475
1.1775974
1.1771889
1.1768213
1.1764937
1.1762053
1.1759554
1.1757429
1.1755663
1.175424
1.1753137
1.1752328
1.175177
1.1751394
1.175111
1.1750883
1.1750779
1.1750812
1.1750586
1.1749332
1.174722
1.1746995
1.1751449
1.1753926
1.1044388
1.1478216
1.1414797
1.1603892
1.1680169
1.1791428
1.1886389
1.1975259
1.2053493
1.212086
1.2176998
1.222215
1.2256918
1.2282176
1.2298956
1.2308349
1.2311434
1.2309232
1.2302675
1.2292591
1.2279704
1.2264631
1.22479
1.2229949
1.2211145
1.2191791
1.2172134
1.2152378
1.2132686
1.2113191
1.2093998
1.2075191
1.2056837
1.2038985
1.2021674
1.2004933
1.1988781
1.1973233
1.1958295
1.1943971
1.193026
1.1917159
1.1904661
1.1892759
1.1881444
1.1870705
1.1860532
1.1850912
1.1841834
1.1833286
1.1825256
1.1817733
1.1810705
1.1804162
1.1798093
1.1792488
1.1787339
1.1782635
1.1778368
1.1774529
1.177111
1.1768102
1.1765497
1.1763284
1.1761449
1.1759976
1.1758844
1.1758025
1.1757472
1.1757112
1.175687
1.1756736
1.1756771
1.1756912
1.1756693
1.1755488
1.1753778
1.1754104
1.1758215
1.1759568
1.1252252
1.1696517
1.1671793
1.1861694
1.1962011
1.2074357
1.2167411
1.2247193
1.2312021
1.2362564
1.2399793
1.2425104
1.2440046
1.2446197
1.2445055
1.2437984
1.2426184
1.2410684
1.2392354
1.2371917
1.2349966
1.2326984
1.2303364
1.2279419
1.22554
1.2231506
1.2207894
1.2184686
1.2161977
1.2139839
1.2118327
1.2097481
1.2077327
1.2057884
1.2039163
1.2021168
1.20039
1.1987352
1.1971519
1.195639
1.1941954
1.1928197
1.1915105
1.1902663
1.1890856
1.1879668
1.1869084
1.1859088
1.1849665
1.18408
1.1832479
1.1824688
1.1817415
1.1810647
1.1804372
1.179858
1.1793262
1.1788407
1.1784006
1.178005
1.1776529
1.1773437
1.1770763
1.1768497
1.1766626
1.1765135
1.1764003
1.1763201
1.1762679
1.1762366
1.1762207
1.1762207
1.1762405
1.176267
1.1762517
1.176149
1.1760275
1.1761082
1.1764772
1.1765348
1.1540793
1.197443
1.2000454
1.2183515
1.2287375
1.2387298
1.2464238
1.2522189
1.2562456
1.2587454
1.2599577
1.2601173
1.2594354
1.2580958
1.2562532
1.254035
1.2515445
1.2488643
1.24606
1.243183
1.2402737
1.2373633
1.2344759
1.2316299
1.2288392
1.2261144
1.223463
1.2208905
1.2184006
1.2159959
1.2136776
1.2114462
1.2093016
1.2072432
1.2052699
1.2033805
1.2015734
1.1998468
1.198199
1.1966279
1.1951317
1.1937083
1.1923558
1.1910721
1.1898552
1.1887033
1.1876145
1.1865869
1.1856188
1.1847085
1.1838545
1.1830552
1.1823092
1.1816154
1.1809723
1.180379
1.1798345
1.1793377
1.1788877
1.1784837
1.1781247
1.1778098
1.1775383
1.1773091
1.177121
1.1769725
1.1768616
1.1767852
1.1767383
1.1767148
1.1767107
1.1767271
1.1767646
1.1768058
1.1768056
1.1767333
1.1766646
1.1767885
1.1771319
1.1771393
1.1935352
1.2330067
1.238845
1.2543363
1.2635758
1.270562
1.2749893
1.277411
1.2781925
1.2777039
1.2762483
1.2740767
1.2713881
1.2683386
1.2650484
1.2616095
1.2580915
1.2545467
1.2510143
1.2475232
1.2440947
1.2407442
1.2374826
1.2343174
1.2312535
1.2282939
1.2254402
1.2226926
1.2200508
1.2175134
1.2150791
1.2127457
1.2105112
1.2083732
1.2063291
1.2043764
1.2025126
1.200735
1.1990411
1.1974283
1.1958941
1.194436
1.1930516
1.1917387
1.1904949
1.189318
1.1882061
1.1871571
1.1861691
1.1852403
1.1843691
1.1835538
1.1827931
1.1820855
1.18143
1.1808253
1.1802705
1.1797646
1.1793068
1.1788961
1.1785318
1.1782131
1.177939
1.1777087
1.177521
1.1773744
1.1772671
1.177196
1.1771563
1.1771431
1.1771536
1.1771883
1.1772443
1.1773024
1.1773256
1.1772973
1.1772853
1.1774296
1.1777281
1.1777372
1.2417536
1.2746304
1.2818712
1.2917691
1.2967187
1.29907
1.2992182
1.2978201
1.2953142
1.2920499
1.288283
1.2842016
1.2799417
1.2756011
1.2712495
1.2669364
1.2626962
1.2585526
1.2545217
1.2506139
1.2468354
1.2431895
1.2396775
1.2362989
1.2330524
1.2299358
1.2269463
1.2240807
1.2213359
1.2187082
1.2161941
1.2137902
1.2114927
1.2092984
1.2072037
1.2052053
1.2032999
1.2014844
1.1997558
1.198111
1.1965473
1.1950619
1.1936521
1.1923154
1.1910494
1.1898517
1.1887203
1.1876529
1.1866476
1.1857025
1.1848159
1.1839863
1.183212
1.1824919
1.1818247
1.1812093
1.1806448
1.1801302
1.1796648
1.1792478
1.1788784
1.1785559
1.1782795
1.1780484
1.1778613
1.1777171
1.1776137
1.1775483
1.1775168
1.1775153
1.1775416
1.1775945
1.1776687
1.1777457
1.1777975
1.177817
1.1778581
1.1780141
1.1782641
1.178286
1.2964739
1.3173273
1.3219228
1.3243021
1.3234855
1.3207924
1.3168438
1.3121347
1.3069898
1.3016292
1.2961986
1.2907939
1.2854775
1.2802894
1.2752541
1.2703861
1.2656927
1.2611767
1.256838
1.2526739
1.248681
1.2448544
1.2411893
1.2376801
1.2343216
1.2311083
1.2280347
1.2250957
1.2222862
1.2196013
1.2170364
1.2145868
1.2122483
1.2100167
1.207888
1.2058585
1.2039244
1.2020824
1.2003291
1.1986614
1.1970761
1.1955704
1.1941415
1.1927868
1.1915037
1.1902899
1.1891431
1.1880611
1.1870419
1.1860836
1.1851846
1.1843431
1.1835577
1.182827
1.18215
1.1815255
1.1809526
1.1804305
1.1799584
1.1795357
1.1791616
1.1788355
1.1785569
1.1783248
1.1781383
1.177996
1.1778962
1.1778361
1.1778127
1.1778226
1.1778636
1.177933
1.1780236
1.1781199
1.1782023
1.178268
1.1783527
1.1785105
1.1787152
1.1787506
1.3499436
1.3532469
1.3519906
1.3474638
1.3415511
1.3348859
1.3279368
1.320948
1.3140673
1.3073748
1.300914
1.2947053
1.2887559
1.283065
1.2776271
1.272434
1.2674764
1.262744
1.2582267
1.2539146
1.2497979
1.2458674
1.2421143
1.2385304
1.2351079
1.2318394
1.2287182
1.2257376
1.2228916
1.2201746
1.2175811
1.215106
1.2127446
1.2104922
1.2083447
1.206298
1.2043481
1.2024914
1.2007245
1.1990441
1.1974469
1.19593
1.1944906
1.1931258
1.1918332
1.1906104
1.1894549
1.1883646
1.1873375
1.1863717
1.1854653
1.1846168
1.1838246
1.1830874
1.1824041
1.1817735
1.1811948
1.1806671
1.1801897
1.179762
1.1793834
1.1790535
1.1787716
1.1785372
1.1783494
1.1782071
1.1781084
1.1780513
1.1780331
1.1780512
1.1781026
1.1781836
1.1782867
1.1783996
1.1785088
1.1786113
1.1787257
1.178878
1.1790453
1.1790953
1.3843413
1.3766672
1.3690187
1.3606494
1.3519523
1.3433482
1.3350042
1.3269955
1.3193508
1.3120735
1.3051551
1.2985809
1.2923335
1.2863949
1.2807473
1.2753737
1.2702579
1.2653849
1.260741
1.2563132
1.2520898
1.2480599
1.2442135
1.2405414
1.2370348
1.2336861
1.2304877
1.2274328
1.2245151
1.2217287
1.2190678
1.2165274
1.2141026
1.2117886
1.2095811
1.2074761
1.2054696
1.2035579
1.2017375
1.200005
1.1983574
1.1967915
1.1953046
1.1938939
1.1925569
1.191291
1.1900939
1.1889635
1.1878977
1.1868947
1.1859525
1.1850695
1.1842444
1.1834756
1.1827621
1.1821027
1.1814967
1.1809431
1.1804413
1.1799907
1.1795909
1.1792415
1.178942
1.1786921
1.1784909
1.1783376
1.1782305
1.1781678
1.1781472
1.1781662
1.1782216
1.1783087
1.1784199
1.1785444
1.1786708
1.1787947
1.1789257
1.1790777
1.1792295
1.1792845
1.1637354
1.1689106
1.1840316
1.196306
1.2019724
1.2032665
1.2033408
1.2030033
1.203046
1.2027379
1.2024363
1.2019328
1.2013443
1.2006954
1.2000011
1.1992661
1.1984945
1.1976919
1.1968634
1.196013
1.1951449
1.1942625
1.1933691
1.1924676
1.1915606
1.1906505
1.1897396
1.1888297
1.1879229
1.1870206
1.1861247
1.1852365
1.1843575
1.1834891
1.1826325
1.1817889
1.1809597
1.1801458
1.1793486
1.1785691
1.1778084
1.1770676
1.1763477
1.1756498
1.1749749
1.1743239
1.1736977
1.1730972
1.1725231
1.1719763
1.1714573
1.1709667
1.1705048
1.1700721
1.1696684
1.169294
1.1689487
1.1686322
1.1683442
1.1680846
1.1678528
1.1676489
1.1674732
1.1673267
1.1672106
1.1671263
1.1670748
1.1670538
1.1670629
1.1670858
1.1671321
1.1671399
1.1671966
1.1670754
1.1671569
1.1666248
1.1668132
1.1654264
1.165953
1.1639538
1.1595232
1.1710082
1.1879418
1.1965879
1.1989266
1.1988351
1.198289
1.1980428
1.1977298
1.1974358
1.197055
1.1966518
1.1962034
1.1957216
1.1951999
1.1946455
1.1940591
1.1934436
1.1928016
1.1921354
1.1914473
1.1907397
1.1900148
1.189275
1.1885224
1.1877592
1.1869876
1.1862095
1.1854272
1.1846424
1.1838572
1.1830733
1.1822926
1.1815169
1.1807477
1.1799869
1.1792358
1.1784962
1.1777695
1.1770572
1.1763606
1.1756813
1.1750205
1.1743795
1.1737595
1.1731618
1.1725873
1.1720372
1.1715123
1.1710136
1.1705416
1.1700972
1.1696806
1.1692922
1.1689323
1.1686007
1.1682974
1.1680222
1.1677748
1.1675549
1.1673621
1.1671964
1.1670582
1.1669483
1.1668678
1.1668177
1.1667983
1.1668069
1.1668418
1.1668872
1.16695
1.1669742
1.1670369
1.1669303
1.1670039
1.1664902
1.1666643
1.1652922
1.1658834
1.1638466
1.1603585
1.1743133
1.1865218
1.1930797
1.1940853
1.1936127
1.1931039
1.1928471
1.1925551
1.1922738
1.1919382
1.1916025
1.19123
1.1908438
1.1904293
1.1899945
1.1895359
1.1890558
1.1885542
1.188032
1.1874901
1.1869298
1.186352
1.1857581
1.1851495
1.1845276
1.1838939
1.1832501
1.1825977
1.1819385
1.1812742
1.1806066
1.1799374
1.1792683
1.1786013
1.1779379
1.1772801
1.1766296
1.175988
1.1753571
1.1747385
1.1741339
1.1735449
1.1729728
1.1724193
1.1718856
1.1713731
1.1708829
1.1704162
1.1699739
1.1695569
1.1691658
1.1688013
1.1684637
1.1681532
1.1678698
1.1676135
1.1673841
1.1671813
1.1670048
1.1668543
1.1667297
1.1666314
1.1665602
1.166517
1.1665022
1.1665159
1.1665545
1.1666155
1.1666835
1.1667637
1.1668044
1.166875
1.1667821
1.1668515
1.1663543
1.1665176
1.1651635
1.1658133
1.1637473
1.1582761
1.1731995
1.1841921
1.1890561
1.1888955
1.1885039
1.188053
1.187855
1.1875348
1.1872828
1.1869665
1.1866798
1.1863594
1.1860435
1.1857062
1.1853603
1.1849985
1.1846235
1.1842338
1.1838292
1.1834098
1.1829753
1.1825261
1.1820625
1.181585
1.1810942
1.180591
1.1800763
1.1795512
1.179017
1.178475
1.1779266
1.1773733
1.1768167
1.1762585
1.1757004
1.1751441
1.1745914
1.174044
1.1735038
1.1729725
1.1724519
1.1719437
1.1714496
1.1709712
1.1705101
1.1700676
1.1696452
1.169244
1.1688652
1.1685098
1.1681785
1.1678719
1.1675905
1.1673346
1.1671042
1.1668992
1.1667196
1.166565
1.1664353
1.16633
1.1662492
1.1661932
1.1661626
1.1661581
1.16618
1.1662274
1.1662967
1.1663842
1.1664751
1.1665731
1.1666306
1.1667106
1.1666307
1.1666986
1.1662165
1.1663724
1.1650387
1.1657414
1.1636583
1.15271
1.1696449
1.179751
1.1833991
1.1828354
1.1827534
1.1823836
1.1823255
1.1820777
1.1819431
1.1817153
1.1815373
1.181314
1.1811048
1.1808721
1.180635
1.180383
1.1801204
1.1798448
1.1795563
1.1792546
1.1789395
1.1786109
1.178269
1.1779138
1.1775458
1.1771654
1.1767731
1.1763698
1.1759562
1.1755333
1.1751022
1.1746642
1.1742206
1.1737729
1.1733225
1.1728711
1.1724203
1.1719719
1.1715276
1.1710893
1.1706588
1.1702377
1.169828
1.1694312
1.169049
1.168683
1.1683346
1.1680051
1.1676958
1.1674077
1.1671416
1.1668982
1.1666779
1.1664812
1.1663081
1.1661585
1.1660324
1.1659294
1.1658494
1.1657921
1.1657575
1.1657458
1.1657575
1.1657932
1.1658526
1.1659345
1.1660347
1.1661491
1.1662631
1.1663794
1.1664539
1.1665445
1.1664777
1.1665457
1.1660785
1.1662289
1.1649185
1.1656682
1.1635806
1.146611
1.1660474
1.1747291
1.1777229
1.1769946
1.1771786
1.1768512
1.1769344
1.1767507
1.1767301
1.1765838
1.1765091
1.1763758
1.1762662
1.1761292
1.1759915
1.1758383
1.1756763
1.1755026
1.1753176
1.175121
1.1749127
1.1746925
1.1744603
1.174216
1.1739599
1.1736921
1.1734129
1.1731227
1.1728222
1.1725119
1.1721927
1.1718655
1.1715315
1.1711918
1.1708477
1.1705007
1.1701523
1.1698042
1.1694579
1.1691152
1.1687779
1.1684477
1.1681263
1.1678155
1.1675168
1.167232
1.1669624
1.1667095
1.1664744
1.1662583
1.166062
1.1658862
1.1657314
1.1655979
1.1654858
1.1653951
1.1653258
1.1652774
1.16525
1.1652431
1.1652567
1.1652911
1.1653466
1.1654236
1.1655213
1.1656383
1.1657699
1.1659112
1.1660485
1.1661834
1.1662752
1.1663772
1.1663242
1.1663932
1.1659408
1.1660873
1.1648027
1.1655941
1.1635144
1.1413022
1.1626036
1.1697434
1.17243
1.1715891
1.1719841
1.1716624
1.1718601
1.1717152
1.1717854
1.171702
1.1717158
1.1716575
1.1716277
1.1715663
1.1715091
1.1714377
1.1713606
1.1712739
1.1711783
1.1710732
1.1709582
1.1708331
1.1706978
1.1705519
1.1703956
1.1702287
1.1700515
1.1698641
1.1696668
1.1694603
1.1692449
1.1690215
1.168791
1.1685542
1.1683124
1.1680667
1.1678185
1.1675693
1.1673205
1.1670737
1.1668306
1.1665928
1.1663619
1.1661396
1.1659275
1.165727
1.1655398
1.1653671
1.16521
1.1650697
1.1649469
1.1648424
1.1647566
1.1646898
1.1646421
1.1646134
1.1646036
1.1646125
1.1646399
1.1646855
1.1647493
1.1648313
1.1649319
1.1650511
1.1651879
1.1653402
1.1655033
1.1656718
1.1658325
1.1659862
1.1660954
1.1662094
1.1661708
1.1662414
1.1658046
1.165948
1.1646918
1.1655204
1.1634592
1.1363427
1.1594812
1.1650471
1.1676171
1.1666638