/*--------------------------------*- C++ -*----------------------------------*\
  =========                 |
  \\      /  F ield         | OpenFOAM: The Open Source CFD Toolbox
   \\    /   O peration     | Website:  https://openfoam.org
    \\  /    A nd           | Version:  12
     \\/     M anipulation  |
\*---------------------------------------------------------------------------*/
FoamFile
{
    format      ascii;
    class       volScalarField;
    location    "0.029";
    object      omega;
}
// * * * * * * * * * * * * * * * * * * * * * * * * * * * * * * * * * * * * * //

dimensions      [0 0 -1 0 0 0 0];

internalField   nonuniform List<scalar> 
16000
(
1103.6634
2203.5089
1063.9209
647.44226
454.41863
316.53202
238.79954
180.93781
145.02258
118.22898
100.23444
86.107195
75.310594
66.432744
59.123072
52.988024
47.802033
43.381716
39.58332
36.29619
33.435822
30.931008
28.723363
26.766323
25.02237
23.462382
22.062357
20.803712
19.670549
18.648307
17.724007
16.887495
16.130657
15.446602
14.829401
14.27352
13.773729
13.325159
12.923801
12.566209
12.248436
11.966462
11.71741
11.498564
11.306786
11.138982
10.992714
10.865587
10.755281
10.659577
10.576463
10.504154
10.441078
10.386065
10.338367
10.297608
10.263555
10.235965
10.21477
10.200489
10.194157
10.194873
10.198168
10.204738
10.211721
10.213305
10.203984
10.183436
10.15874
10.13989
10.132385
10.135019
10.145914
10.1609
10.17559
10.184554
10.188862
10.156252
10.093066
10.077002
1146.5124
2202.5514
1058.7496
648.35459
455.34425
319.7848
240.23348
182.97424
146.07013
119.36324
100.90477
86.738787
75.745753
66.79611
59.396412
53.200755
47.961727
43.500411
39.669593
36.356152
33.474998
30.954434
28.735104
26.769646
25.019432
23.454892
22.051268
20.789638
19.654216
18.630643
17.705614
16.868606
16.11136
15.426882
14.809284
14.253113
13.75324
13.304694
12.903266
12.545665
12.228217
11.946619
11.697839
11.4793
11.288017
11.1207
10.974865
10.848137
10.738204
10.642852
10.560081
10.488192
10.425703
10.37155
10.325069
10.28591
10.253759
10.228186
10.208972
10.196662
10.192136
10.193166
10.1969
10.203145
10.208477
10.207109
10.194506
10.172272
10.148713
10.133176
10.12896
10.134458
10.146709
10.161814
10.175461
10.183871
10.185961
10.158135
10.08868
10.071501
1187.7662
2202.5572
1048.87
645.2571
452.59098
320.35958
239.49568
183.39988
145.84271
119.61599
100.86803
86.810419
75.708677
66.742771
59.305577
53.089521
47.833778
43.361736
39.525097
36.208555
33.326756
30.807988
28.592312
26.632071
24.88778
23.329727
21.932634
20.677284
19.547951
18.530623
17.611872
16.780889
16.029336
15.350133
14.737437
14.185856
13.690407
13.246139
12.848627
12.494585
12.18073
11.902589
11.656918
11.441187
11.252653
11.087879
10.944333
10.819654
10.711568
10.617903
10.536684
10.466328
10.405475
10.353207
10.308962
10.272409
10.243102
10.220346
10.203739
10.194072
10.191387
10.19248
10.196481
10.201951
10.205004
10.19997
10.183808
10.160281
10.138746
10.127212
10.126478
10.134885
10.148624
10.163751
10.176204
10.183047
10.184549
10.159476
10.0866
10.06097
1227.1902
2214.7075
1040.8463
642.30294
449.3783
320.68401
238.41006
183.62065
145.46828
119.75733
100.77111
86.810488
75.620583
66.634429
59.166811
52.933177
47.664531
43.184725
39.345213
36.028336
33.148282
30.633534
28.423501
26.470402
24.733813
23.183941
21.795016
20.547504
19.425637
18.415813
17.504572
16.680788
15.936054
15.263175
14.65636
14.110254
13.620014
13.180781
12.787943
12.438059
12.128331
11.854182
11.612142
11.399621
11.214206
11.052339
10.91142
10.789118
10.683198
10.591566
10.51227
10.443858
10.385094
10.335205
10.293718
10.260277
10.234251
10.214616
10.200674
10.193098
10.191188
10.192745
10.19673
10.20075
10.200882
10.191992
10.172797
10.148984
10.130295
10.122844
10.12543
10.136097
10.151155
10.166147
10.177209
10.182351
10.182889
10.16031
10.085504
10.048354
1264.5974
2235.3526
1035.8653
638.9861
445.34159
320.22518
236.60116
183.31681
144.71042
119.61157
100.47295
86.625367
75.383311
66.386857
58.905931
52.6668
47.396706
42.918708
39.084799
35.775207
32.903482
30.398604
28.199338
26.258015
24.533336
22.995514
21.61836
20.382058
19.270697
18.271128
17.369997
16.555855
15.820255
15.155868
14.556961
14.018197
13.534855
13.102234
12.715622
12.371238
12.066812
11.797769
11.560442
11.352029
11.170538
11.012329
10.874732
10.755448
10.652291
10.56328
10.486487
10.420596
10.364498
10.31756
10.279381
10.249534
10.22716
10.210885
10.199589
10.193379
10.19181
10.194182
10.197339
10.199243
10.195952
10.183154
10.161574
10.138419
10.123108
10.119324
10.125174
10.138077
10.154391
10.169117
10.178527
10.181893
10.181717
10.16039
10.084508
10.039082
1299.8233
2263.3599
1034.2318
636.25653
441.83948
319.09153
234.28765
182.56164
143.68363
119.21716
100.01834
86.277803
75.017156
66.017853
58.53814
52.304088
47.042305
42.574424
38.753325
35.457577
32.599886
30.109991
27.925993
26.000403
24.291362
22.769035
21.406874
20.184838
19.086766
18.099959
17.211322
16.409063
15.684731
15.030835
14.441709
13.912024
13.437151
13.012567
12.633612
12.296018
11.997969
11.735012
11.503392
11.29991
11.123058
10.969179
10.835524
10.719845
10.619987
10.534138
10.460377
10.397538
10.344621
10.301116
10.266659
10.240705
10.222131
10.209234
10.200543
10.195745
10.195267
10.196581
10.198058
10.197413
10.190171
10.173698
10.150608
10.129005
10.117467
10.117008
10.125835
10.140806
10.158186
10.172394
10.179898
10.18196
10.180674
10.158048
10.083376
10.031337
1332.8547
2296.077
1036.313
633.52965
438.20758
317.28862
231.92969
181.40352
142.51683
118.57876
99.415593
85.767509
74.518985
65.525742
58.060763
51.842496
46.598658
42.149301
38.348116
35.072865
32.235067
29.765435
27.601496
25.695283
24.005798
22.50263
21.158884
19.954386
18.872614
17.901278
17.027706
16.239745
15.528982
14.887732
14.310403
13.791672
13.326977
12.911945
12.542141
12.2129
11.922379
11.666503
11.441625
11.243973
11.072492
10.923629
10.794549
10.683072
10.587047
10.504889
10.434675
10.375382
10.326105
10.286415
10.255939
10.233981
10.219151
10.209483
10.203387
10.200116
10.199842
10.199407
10.198594
10.19528
10.183592
10.164012
10.140299
10.120894
10.113368
10.115971
10.127389
10.144264
10.162352
10.17566
10.181207
10.182452
10.178168
10.150159
10.081917
10.025772
1363.8003
2331.0058
1039.1894
630.41856
434.57756
314.79997
229.45765
180.00819
141.08667
117.71238
98.680909
85.103496
73.890624
64.912949
57.474476
51.281991
46.065177
41.642587
37.867522
34.619315
31.807333
29.363288
27.224574
25.33942
23.673536
22.193416
20.87175
19.68833
18.626171
17.673284
16.817612
16.046604
15.351945
14.725712
14.162395
13.656676
13.204048
12.800241
12.441107
12.1226
11.840828
11.593019
11.375901
11.185121
11.019728
10.876537
10.752653
10.645953
10.554257
10.476277
10.410065
10.354745
10.309468
10.273833
10.247418
10.229359
10.218065
10.211374
10.20762
10.20542
10.204433
10.2022
10.198768
10.19146
10.176504
10.154573
10.130988
10.114527
10.110284
10.115876
10.129841
10.148404
10.166626
10.178551
10.182358
10.182658
10.171679
10.136934
10.079669
10.022357
1392.7499
2366.1541
1037.5823
626.4978
429.79005
311.57259
225.98132
178.17534
139.31791
116.65494
97.810691
84.285366
73.126088
64.175275
56.774862
50.617353
45.436666
41.049602
37.303858
34.089164
31.309265
28.896446
26.789026
24.934082
23.296436
21.843699
20.548067
19.389447
18.350357
17.418954
16.584009
15.832578
15.156514
14.547601
14.000426
13.509672
13.070894
12.679915
12.332644
12.025018
11.753408
11.514747
11.306404
11.124126
10.965544
10.828638
10.710619
10.609237
10.522324
10.448939
10.387109
10.336082
10.295031
10.263528
10.241086
10.226674
10.218579
10.214579
10.212707
10.211198
10.208672
10.204433
10.198132
10.187201
10.169396
10.145827
10.123031
10.110064
10.108209
10.116771
10.13321
10.1531
10.170708
10.180677
10.183302
10.182169
10.162902
10.122868
10.075965
10.020716
1419.8102
2400.0103
1029.2342
621.53011
423.30799
307.89417
221.6986
175.93988
137.50446
115.39597
96.795712
83.308253
72.217992
63.30502
55.954271
49.835999
44.699527
40.357314
36.655998
33.483775
30.743941
28.369098
26.298849
24.478786
22.874284
21.453401
20.187906
19.057967
18.045593
17.138873
16.327542
15.598416
14.94354
14.354336
13.825497
13.351707
12.928576
12.552024
12.218126
11.922878
11.662568
11.433985
11.23505
11.061213
10.910263
10.780223
10.669096
10.573528
10.491854
10.423395
10.366228
10.319684
10.282929
10.255469
10.23676
10.225679
10.22028
10.21871
10.218123
10.216712
10.212351
10.205925
10.196928
10.183078
10.162793
10.138168
10.116665
10.106983
10.10723
10.118595
10.137467
10.158068
10.174191
10.182043
10.183774
10.180633
10.155348
10.111602
10.070037
10.020283
1445.0541
2431.8229
1020.3735
615.50084
415.09204
303.79072
217.17231
173.44217
135.58883
113.94942
95.62362
82.164976
71.155249
62.2819
54.990514
48.933573
43.855729
39.570378
35.922525
32.801813
30.110009
27.780032
25.753334
23.974118
22.407912
21.0235
19.79245
18.695245
17.713424
16.834783
16.04971
15.345658
14.714615
14.147543
13.639244
13.184403
12.778688
12.418095
12.098875
11.817124
11.569221
11.351741
11.16301
10.998451
10.855708
10.732788
10.628288
10.539013
10.463291
10.399991
10.347697
10.305692
10.273162
10.249504
10.23413
10.226077
10.222969
10.223307
10.223583
10.221572
10.215436
10.206861
10.195496
10.179272
10.157113
10.131925
10.11179
10.104749
10.106913
10.121261
10.142419
10.162859
10.176695
10.182591
10.183786
10.177409
10.149591
10.104311
10.064366
10.020057
1468.6358
2462.754
1006.9269
607.88008
405.50735
299.2461
212.45248
170.68868
133.61999
112.31688
94.269924
80.825809
69.900862
61.10027
53.887958
47.907374
42.902022
38.685985
35.102402
32.042775
29.407618
27.129834
25.1532
23.420922
21.898563
20.555045
19.362945
18.302715
17.355444
16.508619
15.751119
15.074921
14.470401
13.92793
13.442409
13.008511
12.621982
12.278867
11.975636
11.708499
11.473978
11.269241
11.091281
10.936491
10.802487
10.687163
10.589613
10.506735
10.436685
10.378706
10.331607
10.294106
10.265609
10.245451
10.232916
10.227196
10.22623
10.227905
10.228962
10.225834
10.218082
10.207572
10.194212
10.176171
10.152819
10.127516
10.108253
10.10316
10.107221
10.124574
10.147624
10.166921
10.177902
10.18222
10.182059
10.171518
10.144868
10.099784
10.060284
10.020357
1490.8881
2491.8211
989.50979
599.43273
395.46807
294.27711
207.64492
167.71958
131.58626
110.47983
92.670857
79.274645
68.460713
59.75464
52.640659
46.754236
41.836249
37.702822
34.194993
31.206374
28.637085
26.419436
24.49919
22.820294
21.347926
20.048015
18.899483
17.880646
16.972005
16.161293
15.43734
14.791693
14.216207
13.700625
13.239885
12.82863
12.462739
12.138274
11.851963
11.600227
11.379499
11.186879
11.020269
10.875702
10.750862
10.643933
10.553384
10.477072
10.412933
10.360123
10.317722
10.284785
10.26006
10.243071
10.233145
10.229104
10.229646
10.232136
10.233661
10.229654
10.220575
10.208437
10.193549
10.174402
10.15123
10.125475
10.106286
10.102094
10.107884
10.128187
10.152384
10.169676
10.177498
10.179751
10.176769
10.165463
10.139722
10.09639
10.057761
10.021131
1512.0408
2515.3415
967.86385
590.3483
384.94607
288.94378
202.83964
164.54759
129.41186
108.34215
90.811753
77.500927
66.822521
58.237284
51.243049
45.469898
40.655734
36.619168
33.199784
30.29224
27.798743
25.65014
23.790338
22.171345
20.755945
19.509324
18.409577
17.436882
16.571122
15.80011
15.112488
14.499996
13.955423
13.468685
13.034435
12.647218
12.303145
11.998247
11.729501
11.493691
11.287347
11.107441
10.952264
10.818027
10.702319
10.603172
10.519667
10.449877
10.392002
10.344369
10.30638
10.27736
10.256255
10.241982
10.234145
10.23144
10.232884
10.23586
10.2373
10.233182
10.22324
10.209846
10.194185
10.175652
10.152056
10.125747
10.105792
10.101387
10.108585
10.131614
10.15589
10.170523
10.175648
10.175807
10.171573
10.159549
10.133626
10.093337
10.056684
10.021755
1532.3598
2528.7419
942.05913
580.61034
374.02488
283.27255
198.11154
161.09103
126.97997
105.91252
88.666287
75.487446
64.974463
56.538695
49.688385
44.049899
39.35814
35.433275
32.116655
29.297743
26.890207
24.820802
23.035623
21.484446
20.132853
18.945134
17.899451
16.977013
16.15806
15.430244
14.782005
14.205
13.691397
13.234897
12.828431
12.466247
12.144831
11.860165
11.609377
11.38975
11.197949
11.031677
10.887872
10.763887
10.657421
10.56624
10.489548
10.425855
10.373547
10.3313
10.297515
10.271968
10.253817
10.241962
10.235602
10.233833
10.235627
10.238879
10.239802
10.236383
10.22636
10.212223
10.197534
10.178944
10.155117
10.128363
10.107049
10.101116
10.10923
10.134226
10.157587
10.169195
10.172033
10.170524
10.165365
10.153004
10.127508
10.090328
10.055484
10.021434
1552.0715
2522.0776
912.5099
570.24519
362.75636
277.27296
193.45554
157.22327
124.21477
103.14661
86.205515
73.212044
62.901199
54.648464
47.969972
42.489382
37.941389
34.139802
30.941751
28.232203
25.924451
23.945314
22.243455
20.768202
19.486911
18.364339
17.377827
16.507603
15.738586
15.056683
14.449984
13.910746
13.431382
13.005668
12.627596
12.290811
11.992289
11.728037
11.495125
11.291558
11.113744
10.959742
10.827211
10.713245
10.615849
10.533092
10.463077
10.405204
10.357943
10.32038
10.290842
10.268411
10.25273
10.242837
10.237567
10.236122
10.237685
10.240468
10.241081
10.238909
10.229986
10.216554
10.202184
10.183856
10.160068
10.133051
10.110432
10.102184
10.109941
10.135288
10.157094
10.166161
10.166626
10.163686
10.157852
10.14564
10.121422
10.087372
10.053181
10.020451
1571.3447
2475.0951
880.77974
559.29692
351.19901
270.85441
188.56
152.91731
121.00502
99.997293
83.396653
70.650871
60.587737
52.557819
46.08202
40.779596
36.398685
32.750997
29.691883
27.107125
24.913321
23.036048
21.426808
20.035404
18.828074
17.775496
16.852934
16.040867
15.323943
14.689812
14.1259
13.625009
13.179888
12.784809
12.434786
12.12318
11.847237
11.603249
11.387954
11.200082
11.036026
10.893869
10.772025
10.667573
10.578498
10.503215
10.44014
10.387782
10.345131
10.311689
10.285743
10.26632
10.252597
10.244085
10.239571
10.238213
10.23925
10.241171
10.241521
10.240475
10.233268
10.221119
10.207288
10.189589
10.166373
10.13943
10.115636
10.104969
10.111507
10.134473
10.15424
10.161148
10.159581
10.155487
10.149076
10.137031
10.114051
10.082246
10.05
10.019152
1590.0453
2437.4152
848.66556
547.69876
339.35847
263.46722
183.49894
148.07157
117.23889
96.407506
80.205782
67.780877
58.019721
50.259378
44.012904
38.932844
34.752047
31.282658
28.383977
25.941307
23.874856
22.110676
20.59925
19.298891
18.173796
17.194891
16.338748
15.586278
14.922225
14.336048
13.815068
13.352403
12.941256
12.575995
12.25183
11.964634
11.710428
11.48612
11.28887
11.115984
10.965204
10.834279
10.722378
10.626895
10.545642
10.477147
10.42001
10.372961
10.334838
10.304975
10.282097
10.265104
10.253135
10.245551
10.241423
10.239918
10.24038
10.241479
10.241615
10.240672
10.234666
10.224301
10.211467
10.194986
10.173061
10.146697
10.122143
10.109393
10.113273
10.132196
10.149386
10.154291
10.151204
10.14615
10.139093
10.127028
10.10538
10.076501
10.046832
10.017792
1607.7307
2395.7854
815.59557
535.11156
327.13843
254.87805
178.07794
142.57269
112.80966
92.317297
76.600651
64.582365
55.179461
47.739566
41.7885
36.971956
33.025745
29.761411
27.043493
24.759071
22.828102
21.187037
19.784231
18.579046
17.538416
16.634773
15.845653
15.152924
14.541159
14.000389
13.521249
13.095594
12.717256
12.381151
12.08295
11.818734
11.584987
11.378707
11.197355
11.038669
10.900604
10.78115
10.678413
10.591151
10.517108
10.45486
10.403107
10.360707
10.326621
10.299868
10.279559
10.26457
10.253992
10.246989
10.24296
10.241073
10.240926
10.241545
10.241306
10.238485
10.23249
10.224222
10.21298
10.19836
10.178498
10.15362
10.129424
10.11534
10.116499
10.128915
10.142561
10.145969
10.141861
10.135944
10.128261
10.116343
10.096507
10.071073
10.044261
10.016201
1623.7224
2327.1286
780.80809
521.02848
313.78098
244.94198
171.98076
136.28229
107.61845
87.669036
72.556646
61.037135
52.085062
45.046588
39.445383
34.935795
31.257899
28.222262
25.698262
23.585417
21.803813
20.291534
19.000318
17.892013
16.935918
16.106565
15.382598
14.746298
14.185747
13.689971
13.250486
12.859912
12.512439
12.203411
11.929072
11.686134
11.471415
11.28201
11.115549
10.96982
10.843005
10.733519
10.639988
10.560113
10.492567
10.435934
10.388968
10.350576
10.319793
10.295978
10.277733
10.26428
10.254715
10.248224
10.244191
10.241904
10.24109
10.241282
10.239727
10.235419
10.228425
10.219957
10.21035
10.197971
10.180797
10.159251
10.137363
10.122893
10.119008
10.124826
10.134303
10.136715
10.131866
10.125127
10.116971
10.10559
10.088094
10.066078
10.041439
10.014145
1636.9028
2257.4289
743.41274
504.88963
299.60766
233.46234
164.73585
129.03416
101.58996
82.434041
68.069065
57.186776
48.798561
42.239437
37.04306
32.87723
29.494706
26.702245
24.38885
22.454862
20.825974
19.444347
18.264707
17.251655
16.377265
15.618792
14.955622
14.374213
13.861467
13.407352
13.00466
12.646579
12.327751
12.043803
11.791293
11.567513
11.370006
11.195843
11.042957
10.909207
10.792768
10.692698
10.606672
10.533448
10.471629
10.41995
10.37721
10.342374
10.314545
10.292879
10.276309
10.264018
10.255191
10.24906
10.244986
10.242365
10.240872
10.239932
10.237297
10.23197
10.224208
10.214925
10.20475
10.193631
10.180445
10.163521
10.145162
10.129851
10.120682
10.121014
10.125841
10.126923
10.121459
10.11403
10.105601
10.094921
10.07947
10.059777
10.036707
10.011824
1644.4061
2172.7703
703.17417
484.97093
284.37188
220.11218
155.86911
120.69233
94.725768
76.660994
63.222507
53.139444
45.416697
39.40444
34.655583
30.857573
27.781759
25.247823
23.148412
21.394143
19.916246
18.661998
17.590096
16.668123
15.870523
15.177043
14.571315
14.039611
13.570812
13.154668
12.785243
12.456514
12.163646
11.902604
11.670037
11.463336
11.281125
11.120426
10.979487
10.856503
10.749705
10.657399
10.578196
10.51077
10.453895
10.406455
10.36735
10.335437
10.310156
10.290265
10.274991
10.263549
10.255225
10.249353
10.245164
10.242147
10.239828
10.237594
10.234009
10.227878
10.219726
10.210117
10.199552
10.188328
10.176533
10.163821
10.149465
10.133979
10.12212
10.117911
10.117914
10.116793
10.110872
10.103009
10.094383
10.084061
10.069523
10.051016
10.029974
10.009231
1640.9572
2068.6929
659.58152
458.94288
267.8903
204.54519
145.14214
111.28418
87.178949
70.478932
58.202925
49.042699
42.059004
36.637226
32.360573
28.941109
26.17276
23.896176
22.006485
20.425301
19.090869
17.956262
16.984764
16.147453
15.421404
14.788422
14.233983
13.746188
13.315186
12.932999
12.593041
12.290192
12.020174
11.779477
11.56514
11.374628
11.205774
11.056784
10.925941
10.811723
10.712684
10.627348
10.554072
10.491709
10.43906
10.395106
10.359156
10.329817
10.306297
10.287823
10.273577
10.262756
10.254837
10.248971
10.244573
10.241051
10.237884
10.23445
10.230137
10.2236
10.21519
10.205363
10.194601
10.183271
10.171524
10.159361
10.146858
10.134455
10.12316
10.114621
10.110196
10.106366
10.100195
10.092226
10.083374
10.072857
10.058267
10.04084
10.022543
10.006615
1620.4122
1935.2694
612.85532
426.12691
250.1647
186.55701
132.78179
101.13881
79.300849
64.213533
53.231612
45.062495
38.849546
34.031771
30.230268
27.184482
24.711602
22.679591
20.986618
19.565443
18.362096
17.335671
16.454237
15.692521
15.030265
14.451171
13.942293
13.493634
13.096445
12.743707
12.429365
12.148897
11.898475
11.67498
11.47579
11.298667
11.141648
11.002971
10.881037
10.774376
10.681711
10.60224
10.533996
10.475936
10.426974
10.3861
10.352386
10.324945
10.302826
10.285341
10.271917
10.261609
10.253791
10.247849
10.243175
10.23922
10.235342
10.231105
10.226075
10.219423
10.210884
10.200958
10.19007
10.178652
10.166987
10.155198
10.143305
10.131418
10.120017
10.109961
10.101905
10.095448
10.088952
10.08117
10.071964
10.06056
10.045993
10.030329
10.015232
10.004086
1573.6943
1771.9568
564.17031
387.30714
232.18808
166.43237
119.47996
90.883304
71.549403
58.18961
48.534419
41.360448
35.906612
31.673908
28.32663
25.634903
23.438359
21.623172
20.106776
18.827462
17.739281
16.807045
16.003374
15.3066
14.69926
14.16695
13.697085
13.281629
12.912807
12.585109
12.292497
12.03101
11.797215
11.588314
11.401945
11.236089
11.088973
10.959003
10.84472
10.74477
10.657887
10.582879
10.518595
10.463774
10.417463
10.378698
10.346648
10.320712
10.299742
10.283075
10.270012
10.259913
10.252128
10.246028
10.241135
10.236747
10.232391
10.22764
10.222165
10.215537
10.207045
10.197143
10.186204
10.174627
10.162742
10.150772
10.138813
10.126861
10.11494
10.103327
10.092625
10.083393
10.075445
10.067541
10.057859
10.046072
10.033179
10.020059
10.008432
10.001704
1492.4369
1605.2632
514.49969
347.31839
207.98034
146.9471
106.18305
81.207084
64.382412
52.723484
44.32967
38.094039
33.342427
29.640453
26.698567
24.319881
22.367367
20.743723
19.378648
18.220593
17.230108
16.377165
15.638251
14.994714
14.431526
13.936429
13.499327
13.111852
12.767212
12.459759
12.184813
11.9387
11.718339
11.521193
11.345117
11.188264
11.048998
10.925834
10.817394
10.722382
10.639588
10.567955
10.506801
10.454538
10.410328
10.373267
10.342539
10.317369
10.297017
10.28072
10.267842
10.257765
10.25
10.24379
10.238621
10.233966
10.229343
10.22435
10.218681
10.212063
10.203833
10.19408
10.183171
10.171435
10.159201
10.14675
10.134277
10.121822
10.109229
10.096245
10.082839
10.069538
10.057445
10.04831
10.039957
10.030996
10.021381
10.011331
10.002712
9.9992829
1378.413
1514.6206
467.80736
299.35848
183.91542
128.65083
94.157008
72.634169
58.177956
48.112556
40.837949
35.415874
31.26109
28.001701
25.39277
23.26843
21.513229
20.044639
18.80147
17.741074
16.829476
16.040791
15.354589
14.754532
14.22737
13.762263
13.350239
12.983908
12.657272
12.365814
12.104576
11.870344
11.660295
11.472117
11.303848
11.153794
11.020453
10.90246
10.798541
10.707491
10.628149
10.559381
10.500077
10.449328
10.406209
10.369897
10.339629
10.314731
10.294697
10.278574
10.265783
10.255692
10.247714
10.241297
10.235915
10.231077
10.226332
10.221286
10.215633
10.209122
10.201326
10.191863
10.181105
10.169305
10.156757
10.143729
10.130449
10.117015
10.103257
10.08867
10.072655
10.055272
10.038717
10.027713
10.021237
10.016333
10.011149
10.004609
9.9982059
9.997358
1243.3392
1265.4621
427.12856
256.57135
161.53357
113.38612
84.198698
65.708738
53.274536
44.559869
38.213351
33.439364
29.747087
26.824186
24.464444
22.527584
20.915488
19.55785
18.403155
17.412855
16.557664
15.814794
15.166203
14.597321
14.096175
13.652804
13.259104
12.908266
12.594673
12.313686
12.061508
11.834977
11.631496
11.448892
11.285324
11.139198
11.009091
10.89371
10.791845
10.702369
10.624263
10.556813
10.498457
10.448381
10.405693
10.369606
10.339391
10.314379
10.293935
10.277451
10.264309
10.253903
10.245644
10.238978
10.233393
10.228422
10.223637
10.21865
10.213138
10.206855
10.199547
10.19052
10.180042
10.168313
10.155576
10.142052
10.127899
10.113127
10.097483
10.080375
10.061088
10.039596
10.018538
10.00524
10.000736
10.00109
10.001974
9.9999847
9.9959358
9.9960067
1121.8145
1127.565
394.08513
225.47395
144.77672
102.14368
76.817254
60.663658
49.769595
42.067123
36.400243
32.096122
28.736136
26.053434
23.870574
22.066027
20.554187
19.273315
18.177919
17.23382
16.414834
15.700519
15.074624
14.524092
14.038726
13.608123
13.224969
12.882832
12.57643
12.30137
12.054032
11.831434
11.631113
11.451015
11.289398
11.144754
11.015736
10.901111
10.79972
10.710458
10.632262
10.564116
10.50506
10.454176
10.410622
10.373627
10.342491
10.316572
10.295267
10.277993
10.264169
10.253208
10.244522
10.237538
10.231723
10.226605
10.221775
10.21686
10.211526
10.205492
10.198504
10.190024
10.179921
10.168415
10.15568
10.141856
10.126952
10.110755
10.092784
10.072369
10.049002
10.023139
9.9980641
9.9828823
9.9803442
9.9864074
9.9946056
9.9980052
9.9956182
9.9943907
1066.0688
1084.5597
369.5467
208.18346
133.77737
94.49657
71.308801
56.651395
46.783035
39.794664
34.636492
30.700492
27.614506
25.140257
23.119205
21.442364
20.032726
18.834575
17.806768
16.918343
16.145573
15.469926
14.876624
14.353648
13.891037
13.48045
13.114812
12.788164
12.495495
12.232627
11.996095
11.783042
11.591108
11.41833
11.263052
11.123849
10.999456
10.88872
10.790558
10.703939
10.627869
10.561391
10.503592
10.453615
10.410665
10.374021
10.343026
10.317082
10.295634
10.27815
10.264105
10.252961
10.24415
10.237085
10.231194
10.225987
10.221084
10.216166
10.210907
10.205006
10.198219
10.190169
10.1804
10.169163
10.156581
10.142711
10.127381
10.110103
10.090124
10.066755
10.040002
10.011475
9.9859523
9.9739851
9.9717004
9.9771705
9.98962
9.9957212
9.9950095
9.9938
33345.239
79954.279
39040.766
11980.691
1605.5801
600.01891
424.93415
342.21093
282.71694
229.10107
186.78652
154.64398
130.85003
112.95324
99.147955
88.045895
78.750403
70.77803
63.906265
57.972569
52.818543
48.309964
44.342309
40.831925
37.715191
34.929461
32.430983
30.181195
28.149627
26.312111
24.64771
23.137664
21.765804
20.518105
19.383791
18.353525
17.418826
16.572137
15.806514
15.115745
14.494409
13.936926
13.438332
12.994198
12.600106
12.251811
11.945433
11.676966
11.442825
11.239657
11.064215
10.91347
10.784517
10.676414
10.587825
10.515485
10.457194
10.409207
10.371326
10.344319
10.327346
10.325099
10.33043
10.337794
10.341852
10.339121
10.32822
10.306461
10.283201
10.273353
10.282787
10.304253
10.308064
10.284304
10.142053
10.193847
10.058803
10.113959
10.02993
10.081074
19872.442
61962.102
26363.442
5632.0714
954.37492
516.00974
388.43431
312.8109
256.32956
205.70899
169.29163
141.31709
120.94977
105.35395
93.153297
83.145476
74.652057
67.315387
60.979485
55.491894
50.703975
46.49826
42.783917
39.487048
36.54751
33.914012
31.546655
29.409477
27.475676
25.723466
24.133474
22.688345
21.373277
20.175449
19.085266
18.094035
17.193856
16.377706
15.639081
14.972206
14.372005
13.833111
13.350883
12.92113
12.539599
12.202226
11.905299
11.644937
11.417728
11.220439
11.049934
10.903297
10.777751
10.671957
10.584956
10.513694
10.456059
10.409641
10.373117
10.347042
10.330502
10.327734
10.331855
10.337343
10.338678
10.333747
10.32074
10.298875
10.279218
10.273369
10.285816
10.304814
10.30516
10.271411
10.141284
10.190088
10.06123
10.122823
10.032331
10.088531
27946.94
37954.41
14554.546
2737.6126
825.78857
486.14939
377.84653
296.92576
242.90611
194.20201
161.84892
135.19521
116.45897
101.62689
90.077702
80.522656
72.391733
65.354226
59.282412
54.017801
49.41747
45.372203
41.796142
38.618685
35.780844
33.237052
30.948701
28.880832
27.00861
25.311105
23.769613
22.367482
21.090642
19.926883
18.867273
17.903386
17.027663
16.233381
15.51428
14.864848
14.280209
13.755106
13.285116
12.866188
12.494165
12.165104
11.875401
11.62126
11.39939
11.206637
11.039948
10.89649
10.773577
10.669453
10.583459
10.51285
10.45559
10.410082
10.374584
10.349067
10.333229
10.328868
10.331724
10.335331
10.334669
10.327737
10.312899
10.291898
10.275234
10.272732
10.289038
10.304777
10.301992
10.256452
10.142519
10.187068
10.063875
10.130633
10.034866
10.096085
36544.6
24463.336
8616.3885
1557.7428
733.36965
461.81994
365.06609
280.38543
231.85228
183.62865
155.14113
129.22378
112.26328
98.034769
87.175739
78.046792
70.261212
63.504847
57.682156
52.625669
48.200624
44.305254
40.858176
37.792087
35.051297
32.589791
30.375008
28.372187
26.557996
24.912166
23.416636
22.055403
20.815061
19.683953
18.653762
17.716264
16.864224
16.091182
15.391097
14.758705
14.1893
13.677722
13.21976
12.811483
12.448826
12.127958
11.845381
11.597379
11.380781
11.192509
11.029589
10.889275
10.769011
10.666636
10.581623
10.51168
10.45482
10.409476
10.374761
10.349643
10.334257
10.328364
10.330138
10.332402
10.330201
10.321197
10.304869
10.284473
10.270695
10.272425
10.292159
10.304203
10.298099
10.244389
10.144753
10.184207
10.06677
10.138789
10.037566
10.104112
41592.736
20996.181
5997.0012
1183.9113
698.09998
444.91633
355.30764
267.3887
223.9953
175.53587
150.46364
124.55458
109.16555
95.158367
84.880494
76.044397
68.524671
61.984369
56.357003
51.462952
47.176467
43.400829
40.057642
37.081994
34.420198
32.028834
29.87351
27.925177
26.160003
24.55811
23.101924
21.77594
20.567274
19.464697
18.460381
17.546208
16.715223
15.96116
15.278154
14.661139
14.105538
13.606257
13.159277
12.760754
12.406695
12.093367
11.817361
11.575031
11.363312
11.179192
11.019774
10.882391
10.764569
10.663948
10.579795
10.510447
10.453944
10.408807
10.373965
10.348933
10.333357
10.326795
10.328083
10.329191
10.325071
10.314111
10.296767
10.277442
10.266873
10.27265
10.294417
10.301348
10.292861
10.235021
10.147194
10.181407
10.069954
10.145192
10.040419
10.111876
44512.065
19565.805
4500.8459
1108.9349
678.11505
425.84871
347.579
257.33421
218.17737
169.17374
146.84988
120.633
106.66431
92.677918
82.940319
74.3193
67.024209
60.663394
55.200089
50.442306
46.273319
42.599763
39.345552
36.447714
33.854331
31.523353
29.420503
27.519898
25.797789
24.234721
22.813464
21.518923
20.338654
19.261774
18.280877
17.387891
16.57612
15.839444
15.172146
14.56933
14.026517
13.538666
13.101926
12.712522
12.36652
12.060272
11.790449
11.553466
11.346356
11.166167
11.01008
10.875528
10.759972
10.661179
10.577858
10.509071
10.452911
10.407949
10.37318
10.348016
10.332247
10.32525
10.325752
10.325373
10.31931
10.306606
10.288788
10.27129
10.264399
10.27398
10.295206
10.297137
10.285714
10.226478
10.149881
10.178636
10.073849
10.150684
10.043417
10.119105
46764.302
17504.731
3566.8843
1058.2282
663.59921
413.27195
341.5914
249.486
213.80655
164.20403
144.01251
117.38571
104.635
90.55533
81.305592
72.835044
65.729671
59.517629
54.191126
49.547262
45.47753
41.890698
38.712482
35.881448
33.347079
31.068572
29.012913
27.152907
25.468424
23.939585
22.549289
21.282754
20.127898
19.074123
18.114379
17.240599
16.446324
15.725542
15.072661
14.482929
13.95194
13.474688
13.04748
12.666585
12.328119
12.028511
11.764499
11.532554
11.329802
11.15335
11.00048
10.868531
10.755153
10.658158
10.575812
10.507555
10.451723
10.406937
10.372185
10.346921
10.330884
10.323377
10.322933
10.32094
10.312942
10.298811
10.281122
10.26596
10.263616
10.276076
10.295314
10.293226
10.274574
10.21814
10.152259
10.176189
10.080265
10.15577
10.04652
10.125255
48388.878
14717.078
2971.6627
1026.8808
652.90673
403.27176
336.45699