/*--------------------------------*- C++ -*----------------------------------*\
  =========                 |
  \\      /  F ield         | OpenFOAM: The Open Source CFD Toolbox
   \\    /   O peration     | Website:  https://openfoam.org
    \\  /    A nd           | Version:  12
     \\/     M anipulation  |
\*---------------------------------------------------------------------------*/
FoamFile
{
    format      ascii;
    class       volScalarField;
    location    "0.029";
    object      p;
}
// * * * * * * * * * * * * * * * * * * * * * * * * * * * * * * * * * * * * * //

dimensions      [1 -1 -2 0 0 0 0];

internalField   nonuniform List<scalar> 
16000
(
88493.311
88617.45
88629.505
88761.191
88789.126
88912.697
88964.466
89078.379
89152.804
89261.521
89353.58
89462.882
89568.385
89682.51
89798.804
89920.493
90046.336
90176.909
90312.117
90452.064
90596.778
90746.288
90900.596
91059.69
91223.529
91392.05
91565.164
91742.752
91924.669
92110.74
92300.761
92494.497
92691.687
92892.042
93095.245
93300.959
93508.827
93718.473
93929.51
94141.543
94354.172
94567.001
94779.638
94991.706
95202.825
95412.597
95620.773
95826.997
96030.948
96232.334
96430.868
96626.268
96818.254
97006.547
97190.88
97370.988
97546.613
97717.519
97883.511
98044.443
98200.228
98350.813
98496.172
98636.302
98771.16
98900.604
99024.421
99142.344
99254.007
99360.309
99460.345
99554.41
99642.899
99720.445
99792.499
99837.18
99962.792
99777.633
100165.16
99694.4
88103.534
88244.321
88253.991
88397.28
88426.338
88560.593
88614.877
88739.181
88817.487
88935.937
89034.097
89152.153
89265.688
89388.492
89513.83
89644.836
89780.412
89921.037
90066.652
90217.329
90373.084
90533.92
90699.814
90870.719
91046.562
91227.238
91412.615
91602.53
91796.788
91995.16
92197.385
92403.172
92612.198
92824.111
93038.536
93255.073
93473.306
93692.807
93913.137
94133.858
94354.533
94574.738
94794.061
95012.11
95228.517
95442.937
95655.062
95864.6
96071.287
96274.877
96475.137
96671.846
96864.786
97053.746
97238.517
97418.892
97594.674
97765.681
97931.763
98092.815
98248.777
98399.628
98545.372
98686
98821.425
98951.501
99075.979
99194.297
99305.643
99412.528
99512.731
99606.39
99694.051
99773.09
99838.997
99906.205
99969.296
99886.521
100145.01
99780.251
87745.641
87901.562
87911.125
88067.106
88096.467
88243.928
88299.954
88436.182
88519.328
88647.97
88753.806
88881.242
89004.185
89136.718
89272.339
89413.876
89560.413
89712.315
89869.534
90032.107
90200.022
90373.249
90551.732
90735.384
90924.089
91117.699
91316.03
91518.865
91725.948
91936.987
92151.656
92369.594
92590.407
92813.674
93038.948
93265.766
93493.65
93722.114
93950.675
94178.855
94406.189
94632.234
94856.574
95078.823
95298.631
95515.688
95729.718
95940.487
96147.791
96351.453
96551.318
96747.24
96939.086
97126.722
97310.016
97488.835
97663.051
97832.55
97997.242
98157.073
98312.023
98462.104
98607.342
98747.693
98883.023
99013.157
99137.725
99255.957
99367.998
99474.439
99572.824
99665.323
99751.606
99828.901
99895.613
99965.289
100002.51
99969.898
100145.88
99858.082
87425.02
87590.965
87601.952
87772.457
87801.518
87964.833
88023.243
88173.373
88262.371
88402.78
88517.757
88655.964
88789.88
88933.564
89080.918
89234.375
89393.206
89557.664
89727.709
89903.343
90084.53
90271.208
90463.282
90660.623
90863.067
91070.408
91282.399
91498.753
91719.141
91943.191
92170.494
92400.605
92633.048
92867.319
93102.897
93339.245
93575.823
93812.092
94047.528
94281.623
94513.9
94743.914
94971.261
95195.584
95416.574
95633.97
95847.564
96057.193
96262.736
96464.105
96661.236
96854.082
97042.599
97226.749
97406.484
97581.752
97752.499
97918.68
98080.272
98237.274
98389.713
98537.636
98681.08
98819.996
98954.23
99083.52
99207.388
99325.432
99438.572
99542.366
99639.595
99731.026
99815.965
99891.495
99959.075
100024.33
100050.17
100042.89
100164.6
99933.368
87145.121
87325.356
87334.575
87522.972
87550.907
87732.011
87792.633
87958.408
88054.455
88207.967
88333.742
88483.821
88630.091
88786.039
88946.246
89112.699
89284.873
89462.935
89646.852
89836.597
90032.103
90233.266
90439.939
90651.933
90869.011
91090.889
91317.235
91547.668
91781.76
92019.042
92259.002
92501.096
92744.751
92989.374
93234.36
93479.102
93723.001
93965.476
94205.973
94443.977
94679.016
94910.67
95138.577
95362.434
95582.001
95797.099
96007.61
96213.471
96414.663
96611.208
96803.151
96990.553
97173.478
97351.988
97526.13
97695.937
97861.434
98022.646
98179.615
98332.401
98481.075
98625.712
98766.353
98902.935
99035.254
99162.935
99285.393
99402.348
99513.311
99615.773
99712.655
99803.058
99886.293
99960.089
100027.4
100086.97
100106.9
100115.94
100197.81
100008.93
86911.601
87109.546
87115.159
87324.731
87351.563
87552.349
87615.53
87798.527
87902.676
88069.847
88207.431
88369.796
88529.247
88698.23
88872.196
89052.683
89239.33
89432.223
89631.303
89836.491
90047.657
90264.625
90487.164
90714.992
90947.772
91185.111
91426.561
91671.622
91919.746
92170.342
92422.779
92676.399
92930.524
93184.468
93437.545
93689.086
93938.447
94185.024
94428.259
94667.655
94902.781
95133.273
95358.846
95579.288
95794.462
96004.302
96208.81
96408.047
96602.123
96791.182
96975.394
97154.938
97329.993
97500.724
97667.276
97829.77
97988.306
98142.98
98293.894
98441.167
98584.912
98725.23
98862.155
98995.596
99125.282
99250.74
99371.296
99486.284
99594.662
99696.88
99792.325
99881.366
99962.495
100034.56
100100.73
100154.42
100169.83
100188.92
100243.66
100087.34
86722.47
86940.549
86943.498
87176.978
87203.16
87427.434
87493.649
87694.843
87807.063
87987.442
88137.848
88313.248
88487.298
88670.877
88860.323
89056.707
89259.743
89469.415
89685.595
89908.117
90136.757
90371.233
90611.2
90856.254
91105.924
91359.681
91616.933
91877.037
92139.3
92402.992
92667.351
92931.598
93194.949
93456.629
93715.889
93972.016
94224.348
94472.29
94715.32
94952.997
95184.972
95410.983
95630.864
95844.532
96051.992
96253.325
96448.683
96638.275
96822.355
97001.207
97175.131
97344.429
97509.393
97670.292
97827.366
97980.818
98130.822
98277.537
98421.124
98561.748
98699.567
98834.701
98967.173
99096.847
99223.371
99346.172
99464.518
99577.598
99684.512
99784.688
99878.594
99965.719
100044.54
100114.94
100179.39
100227.18
100241.78
100265.96
100299.78
100171.08
86571.357
86813.156
86812.232
87074.117
87097.492
87347.131
87416.267
87636.147
87759.969
87956.205
88123.08
88314.349
88506.013
88707.09
88914.798
89129.805
89351.858
89580.837
89816.525
90058.647
90306.857
90560.74
90819.807
91083.494
91351.171
91622.138
91895.633
92170.845
92446.917
92722.965
92998.093
93271.403
93542.019
93809.101
94071.86
94329.58
94581.625
94827.455
95066.633
95298.831
95523.834
95741.533
95951.925
96155.103
96351.25
96540.626
96723.554
96900.411
97071.606
97237.567
97398.723
97555.497
97708.285
97857.454
98003.326
98146.177
98286.248
98423.754
98558.905
98691.909
98822.958
98952.192
99079.622
99205.062
99328.071
99447.964
99563.902
99674.922
99780.023
99878.666
99970.927
100055.99
100132.63
100201.52
100263.88
100306.25
100319.85
100349.53
100364.13
100261.3
86456.611
86726.396
86721.346
87017.07
87035.256
87312.76
87387.811
87629.515
87769.617
87984.138
88171.083
88381.12
88593.438
88815.067
89043.994
89280.549
89524.447
89775.444
90033.196
90297.282
90567.196
90842.349
91122.063
91405.581
91692.068
91980.62
92270.277
92560.035
92848.864
93135.725
93419.594
93699.478
93974.439
94243.611
94506.22
94761.601
95009.206
95248.618
95479.553
95701.859
95915.514
96120.619
96317.381
96506.11
96687.194
96861.095
97028.324
97189.428
97344.972
97495.521
97641.625
97783.811
97922.568
98058.338
98191.513
98322.429
98451.378
98578.625
98704.422
98829.008
98952.604
99075.363
99197.293
99318.166
99437.457
99554.363
99667.895
99776.946
99880.442
99977.741
100068.53
100151.82
100226.59
100294.28
100354.3
100391.9
100406.19
100437.57
100439.44
100357.46
86379.971
86682.245
86673.021
87007.075
87023.873
87333.528
87419.653
87686.147
87845.746
88080.581
88291.118
88523.022
88759.166
89004.634
89257.972
89519.209
89787.959
90063.812
90346.249
90634.651
90928.298
91226.371
91527.953
91832.039
92137.55
92443.342
92748.233
93051.018
93350.495
93645.492
93934.889
94217.641
94492.808
94759.568
95017.238
95265.288
95503.343
95731.193
95948.784
96156.213
96353.716
96541.65
96720.476
96890.74
97053.059
97208.097
97356.551
97499.13
97636.54
97769.462
97898.548
98024.404
98147.588
98268.599
98387.872
98505.785
98622.671
98738.83
98854.545
98970.084
99085.686
99201.512
99317.568
99433.604
99549.028
99662.92
99774.138
99881.424
99983.621
100079.98
100169.8
100251.77
100325.26
100392.2
100449.9
100483.96
100500.29
100531.5
100528.38
100456.94
86350.737
86691.42
86678.248
87052.332
87073.029
87418.311
87518.954
87812.083
87996.521
88254.419
88492.61
88750.162
89013.759
89286.76
89568.053
89857.384
90154.197
90457.858
90767.6
91082.539
91401.668
91723.867
92047.917
92372.515
92696.296
93017.861
93335.796
93648.712
93955.27
94254.21
94544.386
94824.788
95094.565
95353.049
95599.757
95834.401
96056.889
96267.309
96465.921
96653.138
96829.501
96995.658
97152.339
97300.335
97440.481
97573.629
97700.64
97822.358
97939.595
98053.122
98163.657
98271.858
98378.322
98483.575
98588.075
98692.223
98796.371
98900.845
99005.947
99111.966
99219.15
99327.663
99437.51
99548.427
99659.781
99770.565
99879.506
99985.203
100086.4
100182.22
100271.55
100352.74
100425.8
100492.55
100548.08
100579.68
100600.47
100631.04
100625.7
100557.13
86376.055
86762.53
86745.694
87166.934
87192.005
87575.938
87695.462
88017.111
88231.972
88516.215
88786.375
89073.964
89369.146
89673.846
89987.06
90308.224
90636.51
90970.964
91310.477
91653.798
91999.544
92346.224
92692.257
93036.006
93375.809
93710.01
94037.003
94355.266
94663.4
94960.163
95244.504
95515.582
95772.786
96015.74
96244.305
96458.563
96658.808
96845.519
97019.332
97181.015
97331.437
97471.537
97602.303
97724.745
97839.881
97948.716
98052.227
98151.35
98246.964
98339.887
98430.865
98520.574
98609.615
98698.515
98787.733
98877.67
98968.686
99061.111
99155.259
99251.426
99349.861
99450.722
99554.007
99659.444
99766.378
99873.761
99980.231
100084.25
100184.47
100279.88
100368.9
100449.78
100523.2
100590.18
100643.65
100673.23
100698.99
100729.24
100722.8
100652.46
86455.73
86896.579
86876.448
87351.073
87384.559
87811.066
87956.949
88309.84
88562.082
88877.363
89184.572
89507.525
89839.232
90180.456
90530.068
90887.091
91250.288
91618.254
91989.417
92362.057
92734.337
93104.335
93470.081
93829.598
94180.949
94522.286
94851.898
95168.258
95470.064
95756.271
96026.113
96279.116
96515.094
96734.135
96936.585
97123.012
97294.179
97451.003
97594.52
97725.852
97846.168
97956.664
98058.534
98152.953
98241.064
98323.964
98402.693
98478.222
98551.448
98623.187
98694.179
98765.077
98836.46
98908.828
98982.619
99058.218
99135.976
99216.216
99299.245
99385.353
99474.779
99567.665
99663.992
99763.465
99865.426
99968.828
100072.25
100174.05
100272.82
100367.36
100455.65
100536.25
100610.33
100677.53
100728.82
100756.69
100787.66
100819.27
100809.78
100733.59
86595.248
87100.698
87077.913
87613.373
87661.174
88134.243
88315.361
88702.834
89000.058
89352.531
89702.769
90067.421
90441.46
90824.611
91215.343
91612.106
92013.087
92416.302
92819.601
93220.719
93617.307
94006.99
94387.42
94756.338
95111.643
95451.447
95774.14
96078.426
96363.36
96628.358
96873.194
97097.985
97303.161
97489.423
97657.704
97809.116
97944.911
98066.433
98175.079
98272.264
98359.391
98437.832
98508.908
98573.883
98633.95
98690.228
98743.754
98795.48
98846.268
98896.895
98948.048
99000.333
99054.276
99110.331
99168.896
99230.328
99294.957
99363.086
99434.997
99510.958
99591.179
99675.773
99764.688
99857.6
99953.839
100052.37
100151.72
100250.2
100346.41
100438.8
100525.12
100604.68
100678.81
100745.47
100794.32
100821.97
100859.11
100891.68
100876.48
100789.74
86800.73
87383.481
87359.936
87964.456
88033.528
88557.225
88784.577
89211.78
89562.868
89960.812
90361.443
90775.139
91197.876
91628.344
92064.366
92503.66
92943.705
93381.814
93815.175
94240.912
94656.155
95058.122
95444.209
95812.074
96159.715
96485.53
96788.362
97067.51
97322.727
97554.195
97762.478
97948.475
98113.353
98258.493
98385.425
98495.777
98591.225
98673.453
98744.115
98804.815
98857.082
98902.361
98942.004
98977.274
99009.337
99039.263
99068.029
99096.513
99125.501
99155.691
99187.69
99222.029
99259.163
99299.486
99343.342
99391.049
99442.906
99499.182
99560.119
99625.959
99696.861
99772.856
99853.867
99939.542
100029.18
100121.69
100215.58
100309.17
100401.01
100489.17
100571.5
100648.33
100720.71
100785.1
100831.72
100862.32
100903.67
100934.39
100913.48
100813.06
87078.168
87753.282
87731.683
88414.74
88516.234
89096.455
89384.398
89859.69
90275.011
90728.431
91187.564
91657.644
92134.843
92616.791
93100.466
93582.69
94060.067
94529.083
94986.191
95427.928
95851.034
96252.572
96630.044
96981.468
97305.434
97601.127
97868.31
98107.285
98318.835
98504.139
98664.702
98802.262
98918.721
99016.073
99096.344
99161.546
99213.636
99254.49
99285.878
99309.455
99326.75
99339.173
99348.015
99354.451
99359.552
99364.282
99369.504
99375.986
99384.404
99395.349
99409.331
99426.788
99448.095
99473.577
99503.52
99538.193
99577.853
99622.707
99672.937
99728.776
99790.336
99857.493
99930.089
100007.79
100089.87
100175.11
100261.96
100348.77
100434
100515.4
100591.35
100663.07
100730.99
100790.49
100833.08
100867.03
100914.33
100943.78
100916.33
100802.28
87435.185
88220.537
88206.341
88982.876
89133.322
89779.922
90145.199
90679.053
91168.992
91687.938
92213.035
92745.532
93281.115
93816.162
94346.498
94867.784
95375.572
95865.482
96333.376
96775.536
97188.811
97570.744
97919.633
98234.558
98515.347
98762.518
98977.181
99160.931
99315.737
99443.828
99547.596
99629.508
99692.033
99737.586
99768.487
99786.931
99794.965
99794.48
99787.205
99774.71
99758.414
99739.594
99719.396
99698.85
99678.875
99660.287
99643.805
99630.061
99619.6
99612.893
99610.342
99612.286
99619.018
99630.795
99647.848
99670.396
99698.633
99732.696
99772.685
99818.753
99870.993
99929.206
99992.972
100061.92
100135.38
100212.1
100290.39
100368.59
100444.93
100517.14
100584.6
100648.84
100709.72
100762.53
100801.71
100839.61
100892.62
100923.75
100886.25
100764.74
87891.279
88812.557
88816.753
89706.033
89922.53
90645.314
91104.861
91708.065
92281.926
92875.662
93472.929
94071.627
94666.125
95251.072
95820.762
96369.56
96892.127
97383.678
97840.21
98258.661
98636.995
98974.218
99270.321
99526.176
99743.392
99924.163
100071.11
100187.11
100275.22
100338.51
100380.01
100402.62
100409.09
100402.01
100383.72
100356.38
100321.94
100282.13
100238.52
100192.47
100145.2
100097.79
100051.2
100006.26
99963.711
99924.202
99888.291
99856.463
99829.127
99806.633
99789.27
99777.284
99770.887
99770.27
99775.615
99787.079
99804.786
99828.849
99859.35
99896.232
99939.312
99988.516
100043.42
100103.26
100167.03
100233.81
100302.15
100370.25
100435.91
100497.24
100554.83
100610.07
100662.67
100708.23
100744.62
100787.18
100845.34
100877.22
100837.16
100716.13
88477.144
89570.997
89603.901
90624.309
90925.273
91731.728
92303.869
92989.592
93656.696
94333.43
95006.262
95669.649
96315.84
96937.496
97527.58
98079.848
98589.151
99051.657
99464.956
99828.055
100141.26
100406.03
100624.71
100800.36
100936.5
101036.92
101105.49
101146.09
101162.43
101158.02
101136.13
101099.76
101051.62
100994.15
100929.52
100859.64
100786.2
100710.67
100634.33
100558.31
100483.56
100410.93
100341.15
100274.85
100212.6
100154.86
100102.03
100054.46
100012.42
99976.141
99945.822
99921.617
99903.666
99892.099
99887.038
99888.569
99896.745
99911.67
99933.367
99961.626
99996.245
100036.87
100083.12
100134.41
100188.43
100243.7
100300.8
100357.62
100411.69
100461.54
100508.81
100554.82
100599.64
100639.46
100675.82
100724.89
100788.51
100821.89
100784.77
100672.57
89221.531
90523.52
90599.909
91768.561
92187.688
93089.732
93795.54
94579.896
95347.487
96109.292
96851.264
97564.395
98239.058
98866.992
99441.482
99957.717
100412.89
100806.14
101138.36
101411.92
101630.29
101797.76
101919.1
101999.3
102043.37
102056.14
102042.21
102005.81
101950.81
101880.69
101798.55
101707.13
101608.82
101505.71
101399.6
101292.05
101184.4
101077.77
100973.14
100871.33
100773.04
100678.89
100589.38
100504.95
100425.98
100352.78
100285.61
100224.66
100170.12
100122.1
100080.72
100046.06
100018.19
99997.201
99983.142
99976.054
99975.929
99982.709
99996.326
100016.6
100043.16
100075.52
100113.02
100155.23
100200.37
100245.43
100291.15
100336.02
100378.24
100417.08
100454.86
100493.11
100532.04
100569.11
100609.32
100666.5
100735.03
100771.28
100741.94
100645.01
90153.51
91715.616
91870.416
93205.554
93786.707
94799.936
95655.966
96548.967
97411.489
98241.689
99024.047
99747.853
100404.14
100986.83
101492.74
101921.4
102274.7
102556.44
102771.79
102926.81
103028
103081.99
103095.21
103073.76
103023.28
102948.88
102855.11
102745.99
102625.03
102495.26
102359.31
102219.4
102077.44
101935.03
101793.53
101654.09
101517.64
101384.98
101256.76
101133.53
101015.75
100903.8
100797.99
100698.6
100605.83
100519.86
100440.81
100368.79
100303.86
100246.08
100195.48
100152.09
100115.95
100087.07
100065.46
100051.09
100043.9
100043.74
100050.38
100063.5
100082.66
100107.23
100136.37
100169.08
100204.05
100239.76
100275.94
100310
100340.79
100371.04
100401.25
100434.29
100470.14
100508.33
100555.78
100621.75
100694.76
100735.47
100717.87
100638.86
91354.379
93244.902
93521.802
95043.642
95833.046
96965.817
97967.375
98954.096
99875.642
100723.61
101484.59
102151.08
102719.52
103190.3
103567.01
103855.71
104064.1
104200.79
104274.72
104294.7
104269.04
104205.42
104110.75
103991.15
103851.93
103697.69
103532.36
103359.26
103181.19
103000.5
102819.14
102638.74
102460.64
102285.94
102115.54
101950.17
101790.41
101636.74
101489.52
101349.07
101215.62
101089.37
100970.47
100859.04
100755.16
100658.89
100570.25
100489.27
100415.93
100350.23
100292.15
100241.68
100198.82
100163.55
100135.81
100115.52
100102.53
100096.59
100097.39
100104.47
100117.25
100134.97
100156.71
100181.32
100207.43
100233.55
100258.99
100283.86
100306.7
100329.85
100355.27
100385.89
100421.62
100464.36
100520.58
100594.53
100671.17
100718.29
100716.73
100656.69
92952.637
95248.872
95701.385
97408.291
98440.393
99678.453
100774.72
101790.47
102688.9
103463.92
104111.42
104633.48
105036.53
105330.21
105526.06
105636.45
105673.71
105649.61
105574.94
105459.32
105311.18
105137.79
104945.3
104738.88
104522.86
104300.79
104075.62
103849.74
103625.11
103403.3
103185.59
102972.99
102766.32
102566.2
102373.12
102187.46
102009.49
101839.42
101677.38
101523.48
101377.8
101240.36
101111.21
100990.33
100877.71
100773.32
100677.11
100589.04
100509.04
100437.07
100373.08
100317.04
100268.9
100228.62
100196.09
100171.16
100153.6
100143.09
100139.19
100141.33
100148.8
100160.72
100176.05
100193.61
100212.16
100230.55
100247.98
100264.36
100280.62
100298.97
100321.97
100351.89
100389.91
100438.75
100502.98
100582.09
100661.11
100716.63
100733.66
100693.13
95134.404
97885.327
98574.45
100418.85
101657.2
102941.43
104018.81
104939.29
105690.14
106277
106710.63
107006.46
107181.96
107255.1
107243.14
107161.87
107025.29
106845.45
106632.58
106395.19
106140.28
105873.58
105599.72
105322.42
105044.65
104768.77
104496.65
104229.75
103969.2
103715.87
103470.43
103233.38
103005.05
102785.72
102575.51
102374.53
102182.81
102000.33
101827.06
101662.96
101507.96
101362
101224.99
101096.86
100977.51
100866.85
100764.79
100671.23
100586.08
100509.27
100440.74
100380.44
100328.3
100284.24
100248.1
100219.68
100198.68
100184.68
100177.16
100175.44
100178.69
100185.92
100196
100207.71
100219.87
100231.58
100242.5
100253.11
100264.97
100280.51
100302.48
100333.08
100374.13
100428.28
100497.41
100577.83
100657.62
100722.5
100759.32
100740.99
98147.247
101266.51
102256.71
104165.79
105444.61
106585.72
107481.74
108156.9
108628.49
108922.53
109066.31
109086.67
109008.11
108852.09
108636.78
108377.24
108085.7
107771.97
107443.85
107107.48
106767.65
106428.07
106091.61
105760.47
105436.29
105120.31
104813.46
104516.38
104229.52
103953.19
103687.55
103432.71
103188.65
102955.33
102732.65
102520.48
102318.68
102127.08
101945.54
101773.88
101611.95
101459.62
101316.72
101183.13
101058.69
100943.27
100836.75
100739.01
100649.95
100569.48
100497.55
100434.07
100378.98
100332.15
100293.4
100262.46
100238.96
100222.41
100212.2
100207.56
100207.56
100211.12
100217.06
100224.16
100231.37
100238.01
100244.14
100250.74
100259.77
100273.82
100295.62
100326.9
100370
100426.7
100496.07
100573.43
100652.35
100728.15
100788.33
100795.85
102244.72
105573.38
106762.04
108415.09
109515.66
110328.05
110851.12
111138.33
111233.24
111177.9
111007.92
110752.83
110436.29
110076.9
109689.06
109283.79
108869.42
108452.25
108036.95
107626.99
107224.9
106832.52
106451.13
106081.62
105724.57
105380.31
105049.03
104730.76
104425.45
104132.98
103853.15
103585.77
103330.59
103087.34
102855.76
102635.56
102426.48
102228.25
102040.63
101863.39
101696.31
101539.19
101391.84
101254.07
101125.73
101006.65
100896.69
100795.71
100703.63
100620.36
100545.83
100479.97
100422.68
100373.81
100333.16
100300.39
100275.09
100256.69
100244.49
100237.64
100235.13
100235.83
100238.52
100242.02
100245.41
100248.27
100251.02
100255.01
100262.37
100275.54
100296.93
100328.16
100371.11
100426.29
100491.29
100562.78
100641.16
100730.91
100819.98
100856.92
107358.14
110650.66
111745.17
112847.95
113447.01
113726.17
113748.38
113585.31
113289.77
112903.17
112456.28
111971.78
111466.12
110951.16
110435.32
109924.56
109423.03
108933.58
108458.11
107997.83
107553.47
107125.4
106713.73
106318.4
105939.21
105575.88
105228.07
104895.4
104577.47
104273.87
103984.19
103708.02
103444.94
103194.57
102956.51
102730.4
102515.87
102312.62
102120.33
101938.74
101767.59
101606.64
101455.69
101314.52
101182.96
101060.84
100948
100844.33
100749.73
100664.13
100587.45
100519.62
100460.54
100410.05
100367.88
100333.68
100306.96
100287.12
100273.36
100264.77
100260.28
100258.7
100258.81
100259.52
100260
100260.08
100260.42
100262.61
100268.8
100281.09
100301.27
100330.9
100371.14
100421.18
100478.94
100543.85
100623.98
100731.45
100853.64
100923.41
113438.46
115895.5
116493.65
116770.13
116679.96
116360.83
115890.22
115327.29
114711.65
114070.17
113420.67
112774.88
112140.42
111522.09
110922.87
110344.45
109787.67
109252.82
108739.8
108248.28
107777.74
107327.6
106897.19
106485.86
106092.9
105717.64
105359.43
105017.63
104691.62
104380.83
104084.7
103802.69
103534.32
103279.08
103036.53
102806.25
102587.84
102380.94
102185.22
102000.38
101826.15
101662.27
101508.52
101364.69
101230.59
101106.04
100990.91
100885.07
100788.44
100700.93
100622.5
100553.06
100492.51
100440.67
100397.25
100361.87
100334
100312.98
100297.99
100288.04
100282.02
100278.72
100276.93
100275.58
100273.96
100272.02
100270.6
100271.47
100276.65
100287.61
100305.39
100332.25
100367.67
100410.15
100459.47
100519.02
100603.49
100730.96
100886.41
100990.03
119915.46
120348
120136.91
119602.84
118890.87
118088.78
117251.33
116409.51
115581.4
114776.98
114001.57
113257.62
112545.97
111866.41
111218.21
110600.28
110011.39
109450.25
108915.54
108406
107920.39
107457.56
107016.39
106595.86
106194.99
105812.89
105448.7
105101.64
104770.97
104456.03
104156.15
103870.76
103599.27
103341.18
103095.98
102863.22
102642.47
102433.36
102235.53
102048.66
101872.48
101706.73
101551.15
101405.54
101269.71
101143.48
101026.7
100919.27
100821.08
100732.09
100652.22
100581.42
100519.56
100466.48
100421.9
100385.41
100356.49
100334.45
100318.44
100307.47
100300.38
100295.95
100292.94
100290.27
100287.22
100283.82
100281.02
100280.62
100284.52
100293.87
100309.26
100331.46
100360.96
100396.73
100438.15
100493.56
100583.56
100729.16
100912.87
101046.17
123699.31
123090.01
122197.98
121172.68
120115.94
119070.75
118059.23
117090.44
116167.76
115291.45
114460.24
113672.15
112924.89
112216.1
111543.46
110904.75
110297.91
109721.02
109172.3
108650.11
108152.97
107679.49
107228.41
106798.56
106388.88
105998.39
105626.17
105271.38
104933.26
104611.09
104304.21
104011.99
103733.85
103469.27
103217.72
102978.75
102751.92
102536.84
102333.17
102140.58
101958.79
101787.54
101626.58
101475.72
101334.75
101203.5
101081.85
100969.69
100866.93
100773.53
100689.46
100614.66
100549.06
100492.49
100444.71
100405.32
100373.81
100349.49
100331.49
100318.79
100310.2
100304.43
100300.18
100296.3
100291.97
100287.15
100282.86
100281.17
100284.03
100291.71
100302.99
100319.62
100349.1
100386.93
100421.34
100469.92
100563.59
100726
100926.15
101077.92
103205.92
103178.78
103225.06
103271.79
103308.81
103321.07
103305.58
103276.85
103240.99
103195.89
103137.67
103066.6
102985.23
102898.79
102808.47
102714.47
102616.94
102516.35
102413.11
102307.58
102200.14
102091.09
101980.76
101869.43
101757.36
101644.8
101531.98
101419.1
101306.36
101193.93
101081.99
100970.68
100860.14
100750.52
100641.95
100534.54
100428.41
100323.7
100220.52
100118.99
100019.25
99921.44
99825.709
99732.22
99641.159
99552.735
99467.185
99384.785
99305.842
99230.702
99159.747
99093.391
99032.086
98976.315
98926.588
98883.432
98847.373
98818.92
98798.552
98786.696
98783.704
98789.797
98805.16
98829.484
98863.479
98903.926
98956.329
99004.989
99079.159
99115.901
99223.914
99242.828
99403.019
99378.054
99538.413
99395.109
99781.32
99369.671
99964.375
99267.667
102519.76
102515.13
102533.52
102553.38
102552.46
102545.04
102535.96
102520.85
102494.59
102462.15
102421.96
102376.37
102324.32
102267.31
102204.98
102138.33
102067.42
101992.7
101914.45
101833.01
101748.68
101661.74
101572.5
101481.23
101388.2
101293.68
101197.9
101101.12
101003.56
100905.44
100806.99
100708.39
100609.85
100511.54
100413.66
100316.37
100219.85
100124.27
100029.8
99936.614
99844.886
99754.797
99666.537
99580.307
99496.327
99414.84
99336.114
99260.451
99188.18
99119.663
99055.291
98995.487
98940.704
98891.422
98848.143
98811.371
98781.606
98759.319
98744.946
98738.863
98741.367
98752.632
98772.798
98801.586
98839.491
98883.9
98939.928
98991.15
99067.446
99104.886
99214.976
99233.589
99404.906
99372.314
99541.322
99372.86
99793.328
99361.565
99968.077
99268.777
102108.28
102094.56
102068.08
102039.48
102014.95
101992.38
101960.61
101929.39
101894.48
101859.13
101819.19
101778.05
101732.7
101685.39
101634.48
101581.07
101524.57
101465.37
101403.4
101338.82
101271.72
101202.24
101130.5
101056.66
100980.88
100903.31
100824.14
100743.53
100661.67
100578.75
100494.94
100410.43
100325.42
100240.09
100154.65
100069.27
99984.165
99899.524
99815.547
99732.439
99650.404
99569.656
99490.418
99412.923
99337.426
99264.201
99193.55
99125.799
99061.299
99000.43
98943.594
98891.225
98843.782
98801.746
98765.607
98735.853
98712.956
98697.355
98689.445
98689.554
98697.923
98714.688
98739.948
98773.447
98815.68
98864.069
98923.781
98977.636
99054.808
99094.298
99205.581
99224.251
99405.983
99365.68
99547.626
99355.946
99803.646
99355.504
99971.256
99271.002
101552.92
101529.55
101497.09
101462.42
101428.81
101398.33
101363.8
101332.21
101296.13
101262.51
101224.82
101188.54
101148.83
101109.31
101067.11
101023.99
100978.75
100931.91
100883.15
100832.53
100780
100725.56
100669.22
100611.02
100551
100489.22
100425.78
100360.77
100294.3
100226.49
100157.49
100087.44
100016.51
99944.86
99872.674
99800.14
99727.454
99654.817
99582.439
99510.534
99439.327
99369.05
99299.948
99232.283
99166.334
99102.406
99040.823
98981.935
98926.111
98873.744
98825.252
98781.077
98741.684
98707.553
98679.164
98656.986
98641.465
98633.012
98631.98
98638.654
98653.223
98675.787
98706.403
98744.868
98791.67
98844.192
98907.44
98964.36
99042.209
99084.287
99195.121
99214.857
99404.699
99359.307
99552.66
99342.248
99812.521
99351.305
99973.998
99274.392
100819.85
100802.23
100783
100760.75
100737.34
100718.21
100693.18
100672.9
100646.79
100624.69
100597.37
100572.9
100544.25
100516.94
100486.69
100456.27
100423.88
100390.32
100355.09
100318.31
100279.88
100239.77
100197.94
100154.41
100109.16
100062.22
100013.62
99963.42
99911.679
99858.48
99803.918
99748.107
99691.176
99633.266
99574.534
99515.149
99455.294
99395.161
99334.955
99274.889
99215.192
99156.106
99097.889
99040.82
98985.198
98931.345
98879.603
98830.335
98783.923
98740.77
98701.304
98665.976
98635.251
98609.604
98589.501
98575.393
98567.701
98566.805
98573.026
98586.602
98607.678
98636.315
98672.523
98716.135
98767.457
98824.453
98891.28
98951.578
99031.583
99075.411
99185.68
99205.341
99398.756
99352.702
99559.522
99332.026
99819.649
99349.28
99976.367
99278.94
100073.7
100067.01
100060.8
100053.46
100042.56
100036.54
100023.2
100016.05
100001.39
99992.143
99976.215
99964.33
99947.165
99932.286
99913.918
99895.889
99875.734
99854.693
99832.044
99808.018
99782.497
99755.454
99726.864
99696.703
99664.956
99631.621
99596.704
99560.226
99522.221
99482.738
99441.842
99399.617
99356.16
99311.586
99266.026
99219.626
99172.546
99124.963
99077.067
99029.063
98981.177
98933.65
98886.746
98840.751
98795.972
98752.738
98711.398
98672.32
98635.89
98602.519
98572.638
98546.698
98525.163
98508.493
98497.138
98491.526
98492.055
98499.077
98512.877
98533.653
98561.51
98596.466
98638.483
98687.404
98743.429
98804.91
98875.03
98939.498
99022.136
99067.951
99176.315
99196.394
99391.117
99345.523
99568.488
99324.843
99825.045
99349.545
99978.33
99284.573
99396.729
99397.099
99397.398
99399.612
99397.127
99400.814
99395.766
99398.546
99392.255
99393.078
99386.095
99384.65
99376.822
99372.386
99363.904
99356.227
99346.3
99335.858
99323.976
99310.966
99296.674
99281.069
99264.116
99245.776
99226.02
99204.827
99182.186
99158.098
99132.575
99105.646
99077.353
99047.754
99016.924
98984.952
98951.944
98918.021
98883.322
98848.001
98812.231
98776.207
98740.141
98704.271
98668.855
98634.177
98600.54
98568.27
98537.711
98509.227
98483.205
98460.053
98440.201
98424.093
98412.176
98404.895
98402.674
98405.921
98415.006
98430.252
98451.911
98480.147
98515.024
98556.515
98604.527
98658.89
98719.711
98785.693
98859.397
98928.409
99014.514
99062.103
99168.791
99189.101
99385.733
99338.218
99578.788
99320.471
99828.715
99349.866
99979.977
99291.192
98793.072
98798.599
98802.389
98810.036
98811.715
98821.537
98821.124
98830.619