/*--------------------------------*- C++ -*----------------------------------*\
  =========                 |
  \\      /  F ield         | OpenFOAM: The Open Source CFD Toolbox
   \\    /   O peration     | Website:  https://openfoam.org
    \\  /    A nd           | Version:  12
     \\/     M anipulation  |
\*---------------------------------------------------------------------------*/
FoamFile
{
    format      ascii;
    class       volScalarField;
    location    "1550";
    object      k;
}
// * * * * * * * * * * * * * * * * * * * * * * * * * * * * * * * * * * * * * //

dimensions      [0 2 -2 0 0 0 0];

internalField   nonuniform List<scalar> 
16200
(
445.7628737
512.8349924
468.5481462
425.2289279
368.391309
281.5360083
158.4630345
46.76243979
5.44997327
0.1895601924
0.00206111078
0.00101484976
0.0009688763742
0.0009435798387
0.0009295008532
0.0009211921056
0.0009158082099
0.000912602673
0.0009109827749
0.0009104712594
0.0009108218289
0.0009118896824
0.0009135831867
0.0009158506651
0.0009186684153
0.0009220300692
0.0009259366416
0.0009303852839
0.0009353563276
0.0009407984345
0.0009466130306
0.0009526447383
0.0009586882962
0.0009645169198
0.0009699220709
0.0009747455467
0.0009788930145
0.0009823298219
0.0009850670408
0.0009871447969
0.0009886160013
0.0009895308429
0.000989921971
0.0009897856088
0.0009890347852
0.0009873737114
0.000985002354
0.0009839086651
0.0009834789677
0.0009833394561
0.0009833343472
0.0009834071756
0.0009835484305
0.0009837740486
0.00098411842
0.0009846360168
0.0009854086666
0.0009865651179
0.0009883195714
0.0009910929236
467.7720761
531.4891219
477.5882313
424.5926955
355.5368339
253.2060965
120.5043679
27.24140756
2.229221627
0.05038284258
0.001159450925
0.0009971314529
0.0009559717811
0.0009329399895
0.0009201654512
0.0009127449839
0.0009080244634
0.0009053399601
0.0009041598839
0.0009040413782
0.0009047627248
0.0009061984333
0.0009082724791
0.000910945997
0.0009142053848
0.0009180510264
0.000922485916
0.0009275021756
0.0009330651076
0.0009390956129
0.0009454554397
0.0009519458034
0.0009583285684
0.000964366807
0.0009698667969
0.0009747018768
0.0009788135786
0.0009821974748
0.000984884575
0.0009869248696
0.0009883740425
0.0009892816715
0.0009896802314
0.0009895727436
0.0009888995776
0.0009874289816
0.0009850781399
0.0009839801128
0.0009835539116
0.0009834216421
0.0009834249982
0.0009835059854
0.0009836540613
0.0009838842897
0.0009842303243
0.0009847459652
0.0009855132471
0.0009866629133
0.0009884175901
0.0009912322445
489.2782578
547.8945797
483.6818868
420.0945818
337.1628617
219.2438194
84.32015561
14.05918549
0.7706371743
0.0113828021
0.001060402302
0.0009817162171
0.000944422487
0.0009234979795
0.0009119622122
0.0009053832515
0.0009013050124
0.0008991360136
0.0008984006403
0.0008986891333
0.0008998036573
0.0009016374718
0.0009041299834
0.0009072548929
0.0009110078555
0.0009153938508
0.0009204134976
0.0009260462616
0.0009322307403
0.0009388457056
0.0009457013527
0.0009525528685
0.0009591385767
0.00096522866
0.0009706621097
0.0009753570188
0.0009792979247
0.0009825130268
0.000985052954
0.0009869759965
0.0009883385252
0.0009891870283
0.0009895503987
0.0009894327111
0.000988792417
0.0009874624272
0.0009851542114
0.000984056459
0.0009836331813
0.0009835061371
0.0009835159224
0.0009836035067
0.0009837574503
0.0009839919744
0.0009843399498
0.0009848544889
0.0009856176149
0.0009867617794
0.0009885169545
0.0009913691926
509.1174771
560.664219
486.0578277
410.946145
312.7293148
180.1932678
53.63009645
6.411458368
0.2292504948
0.002615242989
0.001030137594
0.0009681534586
0.0009344094917
0.000915472162
0.0009051198666
0.0008993389707
0.0008958811364
0.0008942193479
0.0008939297423
0.0008946347945
0.0008961600584
0.0008984167978
0.0009013590808
0.0009049717609
0.0009092570558
0.00091421981
0.000919850622
0.0009261050406
0.0009328810138
0.000940003155
0.0009472273317
0.0009542735676
0.000960877746
0.0009668395296
0.0009720464823
0.0009764683307
0.0009801324798
0.0009830960118
0.0009854245466
0.0009871805349
0.0009884177485
0.0009891769536
0.0009894807865
0.0009893300908
0.0009886922176
0.0009874362401
0.0009852075528
0.0009841233775
0.0009837076282
0.0009835870037
0.0009836032526
0.0009836972413
0.0009838570153
0.0009840961205
0.0009844467118
0.0009849612475
0.0009857216405
0.0009868617913
0.0009886181558
0.0009915052915
526.8284648
570.1614938
484.9139661
397.7063628
283.8290138
139.4969858
31.22695016
2.695270732
0.06290253587
0.001265650806
0.001011297539
0.0009565436348
0.0009260778424
0.0009090104005
0.0008997897979
0.0008947707327
0.0008919170244
0.0008907587497
0.0008909195689
0.0008920536318
0.000894009463
0.0008967153713
0.0009001385935
0.0009042724456
0.0009091211409
0.0009146821602
0.0009209254369
0.0009277688884
0.0009350565416
0.0009425531416
0.000949968347
0.000957008067
0.0009634312011
0.0009690869834
0.0009739214046
0.000977956405
0.0009812574456
0.0009839040673
0.0009859711286
0.0009875209564
0.0009886018154
0.0009892467953
0.000989470578
0.000989268079
0.0009886103253
0.0009873867272
0.0009852483606
0.0009841860445
0.0009837801705
0.0009836660875
0.0009836882771
0.0009837881507
0.000983953498
0.0009841972994
0.000984551038
0.0009850665382
0.0009858255197
0.0009869630992
0.0009887213891
0.000991640612
541.8808088
576.5746993
480.2940472
379.4831394
249.1537044
100.2539093
17.58657472
1.087009574
0.0174906956
0.001115363615
0.0009959843615
0.0009469013209
0.0009194741077
0.0009041665328
0.0008960260639
0.0008917346285
0.0008894699696
0.000888813099
0.0008894310399
0.0008910088008
0.0008934166076
0.0008965977186
0.0009005296231
0.0009052096558
0.0009106372506
0.0009167926898
0.0009236123438
0.0009309629503
0.0009386266494
0.0009463133077
0.000953706177
0.0009605246589
0.0009665750468
0.0009717698567
0.0009761157752
0.00097968155
0.0009825622861
0.000984851909
0.000986628325
0.0009879496397
0.0009888561727
0.0009893719974
0.0009895029413
0.0009892363911
0.0009885441409
0.0009873357818
0.0009852742954
0.000984242689
0.0009838496675
0.0009837427495
0.0009837707114
0.0009838761831
0.0009840469862
0.0009842956667
0.0009846531017
0.0009851705137
0.0009859293791
0.0009870658253
0.0009888268747
0.0009917755416
554.1250905
580.340621
472.5006648
355.4254398
208.4302168
66.80420489
9.3557981
0.4288682884
0.005217847977
0.001071887278
0.0009830835516
0.0009391133988
0.0009145122553
0.0009008682023
0.0008937659851
0.0008901804897
0.0008885005224
0.00088835215
0.0008894410771
0.0008914818979
0.0008943647758
0.0008980453563
0.0009025075827
0.0009077468452
0.0009137489661
0.0009204652334
0.0009277851882
0.0009355145088
0.0009433745081
0.0009510366731
0.0009581854989
0.0009645815842
0.0009700965523
0.0009747113435
0.0009784886525
0.0009815346504
0.0009839642447
0.0009858777558
0.0009873506658
0.0009884336099
0.0009891572927
0.0009895360948
0.0009895667573
0.000989228293
0.0009884907156
0.0009872830501
0.0009852885143
0.0009842943643
0.0009839165033
0.0009838172213
0.0009838507958
0.0009839616169
0.0009841377824
0.0009843915226
0.0009847531742
0.000985273394
0.0009860333813
0.0009871700923
0.0009889347638
0.0009919102743
563.3776142
581.5060263
461.2846382
326.3770876
164.9527261
40.00158769
4.70331032
0.1796699525
0.002259164495
0.001048672878
0.0009724183592
0.000933091618
0.0009111121075
0.0008990389401
0.0008929343573
0.0008900366259
0.0008889381876
0.0008893049626
0.0008908769579
0.0008933973006
0.0008967740129
0.0009009716217
0.0009059749999
0.0009117695234
0.0009183166784
0.0009255261874
0.0009332296607
0.0009411689076
0.0009490163803
0.0009564310424
0.0009631286071
0.0009689332464
0.0009737908278
0.0009777476835
0.000980912796
0.0009834184681
0.000985389679
0.0009869261522
0.0009880966316
0.0009889420274
0.0009894825146
0.0009897226633
0.0009896504093
0.0009892361808
0.0009884460686
0.0009872270221
0.00098529262
0.0009843412846
0.000983980566
0.0009838894204
0.0009839285626
0.0009840445917
0.0009842260978
0.0009844851103
0.0009848514951
0.0009853753848
0.0009861376839
0.0009872760149
0.0009890451838
0.000992045008
569.5763976
579.8166239
444.6694583
290.8190936
122.1659664
23.69791085
2.293897563
0.07826107385
0.001612176023
0.001031205134
0.0009637817656
0.0009286996253
0.0009091569621
0.0008985667282
0.0008934174636
0.0008911893628
0.0008906684123
0.00089155606
0.0008936222919
0.0008966370096
0.0009005225437
0.0009052470425
0.0009107890489
0.0009171144998
0.0009241490914
0.0009317494397
0.0009396830819
0.0009476348192
0.0009552505773
0.0009622074615
0.0009682788942
0.0009733661139
0.0009774888602
0.0009807495342
0.0009832910238
0.0009852604279
0.0009867843052
0.0009879563274
0.0009888355236
0.0009894518153
0.0009898146038
0.000989918968
0.0009897446708
0.0009892538316
0.000988406908
0.0009871663957
0.0009852890226
0.0009843841201
0.0009840419908
0.0009839593944
0.0009840041118
0.0009841252811
0.0009843121611
0.0009845766836
0.0009849483123
0.0009854767002
0.0009862424496
0.0009873837027
0.0009891582291
0.0009921798871
573.1802842
575.5857898
422.2789162
248.1955696
83.14681537
13.60036316
1.110005127
0.03688558491
0.00143351873
0.001016828954
0.0009569406245
0.0009257523188
0.0009084814881
0.0008992962726
0.0008950657321
0.0008934963272
0.0008935542719
0.0008949722862
0.0008975455294
0.0009010679106
0.0009054714058
0.0009107216916
0.0009167830072
0.0009235916897
0.0009310261424
0.0009388811817
0.0009468621231
0.0009546143913
0.0009617870584
0.0009681051669
0.0009734183679
0.0009777084118
0.0009810608996
0.0009836212379
0.0009855533253
0.0009870089759
0.0009881096331
0.0009889391104
0.0009895449899
0.0009899457785
0.0009901403774
0.0009901149897
0.0009898420456
0.0009892759754
0.0009883703455
0.0009870998301
0.0009852797888
0.0009844234514
0.0009841008916
0.0009840271813
0.000984077531
0.0009842038448
0.0009843961878
0.0009846664856
0.0009850438673
0.0009855775522
0.0009863478406
0.0009874932597
0.0009892739706
0.0009923150296
574.4556035
568.8481466
394.253594
201.197452
51.94491372
7.379927058
0.5335810456
0.01877512378
0.001353628734
0.001004897769
0.0009517229327
0.0009241047927
0.0009089513831
0.0009010982418
0.0008977522953
0.0008968341988
0.0008974739422
0.000899431063
0.0009025209015
0.0009065581299
0.000911479172
0.0009172404317
0.000923782677
0.0009310012414
0.0009387167957
0.0009466597875
0.000954485716
0.0009618277489
0.0009683699001
0.0009739086489
0.0009783780736
0.0009818348501
0.0009844173758
0.0009862997591
0.0009876551176
0.0009886318801
0.0009893416234
0.0009898560163
0.0009902104984
0.0009904123733
0.0009904506761
0.000990303525
0.0009899369456
0.0009892985132
0.0009883341135
0.0009870261801
0.0009852668447
0.000984459893
0.0009841574415
0.0009840928624
0.000984148932
0.0009842804511
0.0009844783932
0.0009847547564
0.0009851383982
0.0009856781511
0.0009864540173
0.0009876047834
0.0009893924568
0.0009924505227
573.5290342
558.9083059
359.779132
153.6648634
32.33020425
4.002177971
0.2637947357
0.01013359262
0.001254960781
0.0009950726339
0.0009479584248
0.0009236231142
0.000910447597
0.0009038599232
0.0009013667232
0.0009010939152
0.0009023171784
0.0009048189183
0.0009084301332
0.0009129825306
0.0009184106351
0.0009246530423
0.0009316158588
0.0009391419052
0.0009469881174
0.0009548278737
0.000962290228
0.0009690283137
0.0009747889053
0.0009794534287
0.0009830383555
0.0009856631282
0.0009875036309
0.000988749124
0.0009895722219
0.0009901120785
0.0009904674512
0.0009906968305
0.0009908235953
0.0009908444947
0.0009907395484
0.0009904796561
0.0009900253713
0.0009893183525
0.0009882964905
0.0009869445064
0.0009852517815
0.0009844939974
0.0009842118273
0.000984156542
0.0009842184402
0.0009843552726
0.0009845589903
0.0009848417302
0.0009852321376
0.0009857787026
0.0009865611365
0.0009877183645
0.0009895137161
0.0009925864284
570.5656155
544.8703429
316.7495355
109.0137969
20.52899124
2.224598898
0.138005449
0.006113820251
0.001176721149
0.0009870964759
0.0009455285471
0.0009242072991
0.0009128758739
0.0009074874633
0.0009058138876
0.000906179304
0.0009079861919
0.0009110358039
0.0009151696788
0.0009202309715
0.0009261437789
0.0009328180846
0.0009401134503
0.0009478118581
0.0009556093165
0.0009631410483
0.0009700406919
0.0009760122927
0.0009808842311
0.0009846253183
0.0009873242164
0.000989147441
0.0009902932178
0.0009909544531
0.0009912959922
0.0009914439164
0.0009914827053
0.0009914575812
0.000991380476
0.0009912384946
0.0009910035942
0.0009906403291
0.0009901046596
0.0009893332828
0.0009882562505
0.0009868541093
0.0009852358801
0.0009845262578
0.00098426425
0.000984218349
0.0009842861974
0.0009844284876
0.0009846381902
0.0009849276358
0.0009853253115
0.0009858794068
0.0009866693497
0.0009878340857
0.0009896377578
0.0009927227847
565.8774608
525.5710062
266.9223207
73.66561823
12.04594892
1.211950037
0.07324124244
0.003866652827
0.001114663644
0.0009802364504
0.0009443081872
0.0009257562332
0.0009161440433
0.0009118928279
0.0009110098096
0.0009120104179
0.0009144036028
0.0009180040247
0.0009226573884
0.0009282108
0.0009345675197
0.0009415973202
0.0009491035537
0.0009568065424
0.0009643556282
0.0009713762983
0.0009775392863
0.0009826231853
0.0009865454735
0.0009893551244
0.0009911977417
0.0009922705163
0.0009927807165
0.0009929160364
0.0009928286871
0.0009926296486
0.0009923888005
0.000992138654
0.0009918806294
0.0009915932221
0.0009912412992
0.0009907839006
0.0009901731883
0.000989341805
0.0009882125707
0.0009867545136
0.0009852201154
0.0009845570945
0.0009843149124
0.0009842784284
0.0009843523576
0.0009845002784
0.0009847162018
0.000985012696
0.0009854181382
0.000985980457
0.000986778802
0.000987952021
0.0009897645723
0.0009928596086
560.0660908
499.7498558
215.2925373
48.60635877
7.283992699
0.6796396485
0.03978960258
0.002589196001
0.001070467319
0.0009749543125
0.0009440813828
0.0009281836876
0.0009201817515
0.0009170167441
0.0009169038619
0.000918540764
0.0009215221058
0.0009256701241
0.0009308280248
0.0009368378692
0.0009435704758
0.0009508450936
0.0009584052618
0.0009659194876
0.0009730152465
0.0009793406955
0.0009846310121
0.000988752007
0.0009917069124
0.0009936109805
0.0009946496617
0.0009950358446
0.000994975278
0.0009946442905
0.0009941796708
0.0009936766333
0.0009931909238
0.0009927432986
0.0009923257588
0.0009919092515
0.0009914524885
0.0009909097586
0.0009902301216
0.0009893429793
0.0009881649469
0.0009866454405
0.0009852052009
0.0009845868606
0.0009843640154
0.000984336938
0.0009844170838
0.0009845708298
0.0009847932301
0.0009850971261
0.0009855108279
0.0009860820377
0.0009868896302
0.0009880722342
0.0009898941333
0.0009929968971
553.662775
464.1295976
167.5760689
34.48653609
4.634821712
0.3919441573
0.02217610218
0.001890359314
0.001041466437
0.0009713374217
0.0009449167809
0.0009314336394
0.0009249767487
0.0009228473068
0.0009234816212
0.0009257492767
0.0009293108241
0.0009339894853
0.0009396178705
0.0009460215742
0.0009530278964
0.0009604000624
0.000967827844
0.0009749486225
0.0009813987862
0.000986878787
0.0009912056984
0.0009943337077
0.0009963402488
0.0009973897624
0.0009976911874
0.0009974608094
0.0009968952487
0.000996155725
0.0009953624492
0.0009945951688
0.0009938964569
0.0009932764743
0.0009927189378
0.0009921882675
0.0009916378847
0.0009910180071
0.0009902751906
0.0009893362877
0.0009881131156
0.0009865339378
0.0009851916349
0.000984615848
0.0009844117535
0.0009843940422
0.0009844805446
0.0009846403265
0.0009848694756
0.0009851811335
0.0009856035811
0.0009861843243
0.0009870019621
0.0009881947785
0.0009900264034
0.0009931346294
547.5889411
417.1414868
126.4016517
23.77382408
2.921056758
0.2262541507
0.01247701573
0.001494413893
0.001022342698
0.0009692986072
0.0009468029654
0.0009355312431
0.000930507741
0.0009293732812
0.000930728172
0.0009336140443
0.0009377368539
0.0009429117642
0.0009489511154
0.0009556526589
0.0009627936248
0.0009700843847
0.0009771774856
0.0009837071393
0.0009893489631
0.0009938770746
0.0009971963374
0.0009993409679
0.001000446366
0.001000708879
0.001000346977
0.0009995711676
0.000998564064
0.0009974699667
0.0009963925296
0.0009953969487
0.0009945138491
0.0009937440208
0.000993063996
0.0009924326109
0.0009917987727
0.000991109223
0.0009903085201
0.0009893215218
0.0009880566211
0.0009864303258
0.0009851797477
0.0009846442976
0.0009844583131
0.0009844499088
0.0009845429111
0.0009847089514
0.0009849451326
0.0009852649169
0.0009856965879
0.0009862874813
0.0009871159148
0.000988319696
0.000990161341
0.0009932727679
543.2987725
360.5949067
92.72847659
15.906681
1.814250933
0.128318023
0.007007889203
0.001267663491
0.001009998926
0.0009687183279
0.0009496961636
0.0009404538122
0.0009367678515
0.0009365783979
0.0009386289406
0.0009421124005
0.0009467606516
0.0009523715384
0.0009587288666
0.0009655955571
0.0009726995628
0.0009797109326
0.000986269253
0.0009920350757
0.0009967473486
0.001000264288
0.001002574052
0.001003776388
0.001004047089
0.001003599038
0.001002649436
0.001001396853
0.001000007264
0.0009986076646
0.0009972859429
0.0009960940026
0.0009950518429
0.0009941520817
0.0009933650846
0.0009926449499
0.000991936753
0.0009911842721
0.0009903304923
0.0009892987102
0.000987994695
0.0009863346779
0.0009851697434
0.0009846724083
0.0009845038714
0.0009845047057
0.0009846043535
0.0009847768837
0.0009850203879
0.0009853486648
0.0009857900276
0.000986391662
0.0009872315934
0.0009884470182
0.0009902988915
0.0009934112598
541.7901761
299.2257272
65.91876491
10.79015148
1.128031378
0.07145000339
0.004017326365
0.001145992488
0.001002699678
0.0009695262759
0.000953583479
0.0009462025904
0.0009437641676
0.0009444649821
0.0009471728913
0.0009512122747
0.0009563214372
0.0009622742372
0.0009688213425
0.0009756889117
0.0009825640514
0.0009890965423
0.0009949404974
0.0009998083619
0.001003516821
0.001006007874
0.001007341017
0.001007664407
0.001007177851
0.001006098417
0.001004634465
0.001002969017
0.001001250482
0.0009995891218
0.0009980582966
0.0009966980209
0.0009955189774
0.0009945067284
0.0009936263877
0.0009928280566
0.0009920535703
0.000991244178
0.0009903416481
0.0009892680658
0.0009879267826
0.0009862468557
0.0009851617352
0.0009847003456
0.000984548596
0.0009845585977
0.0009846650394
0.0009848442967
0.0009850954205
0.0009854325557
0.0009858840675
0.0009864970072
0.0009873490906
0.0009885767643
0.0009904389782
0.0009935500378
542.4902803
238.0128106
50.27004548
7.6416867
0.6952124224
0.03823237106
0.002436118733
0.001083666744
0.0009989387205
0.000971671035
0.0009584716608
0.0009527896223
0.0009515010294
0.0009530178862
0.0009563222895
0.0009608470609
0.0009663215684
0.000972490645
0.0009790711183
0.0009857554881
0.0009922057645
0.0009980761984
0.001003061278
0.001006942892
0.001009619306
0.001011107504
0.001011522405
0.001011043721
0.001009881584
0.001008248224
0.001006338426
0.001004318043
0.001002318159
0.001000433452
0.000998724202
0.000997219948
0.0009959232851
0.0009948137261
0.0009938519351
0.0009929846577
0.0009921509936
0.0009912900286
0.0009903426119
0.0009892299204
0.0009878524991
0.000986166586
0.0009851557722
0.0009847282487
0.0009845926446
0.0009846117451
0.0009847251316
0.0009849113573
0.0009851703997
0.0009855167567
0.0009859788626
0.0009866036445
0.0009874684853
0.0009887089395
0.0009905814948
0.00099368902
543.1332316
182.2868993
39.13955146
5.42364621
0.413122632
0.01903625599
0.001637896675
0.001053252354
0.0009977652322
0.000975095086
0.0009643374544
0.0009601878222
0.0009599366589
0.0009621733502
0.0009659953364
0.000970911201
0.0009766307718
0.0009828669049
0.0009893059581
0.0009956169824
0.001001458642
0.001006514918
0.001010540403
0.001013394063
0.001015050445
0.001015587496
0.001015158836
0.001013961041
0.001012204165
0.001010089646
0.001007796225
0.001005472376
0.001003232835
0.001001158141
0.0009992969887
0.0009976697809
0.0009962721375
0.0009950784073
0.0009940454981
0.0009931173458
0.0009922307433
0.0009913229164
0.0009903340432
0.0009891846806
0.0009877715868
0.0009860935182
0.0009851518612
0.0009847562362
0.0009846361649
0.0009846643018
0.0009847847862
0.000984978224
0.0009852454852
0.0009856014232
0.0009860745548
0.0009867116878
0.0009875898418
0.0009888435329
0.0009907263163
0.0009938281097
543.7674654
144.0974209
30.42217467
3.748159947
0.2267876333
0.008635566889
0.001272932839
0.001039482016
0.0009985726855
0.0009796868605
0.0009710965782
0.0009683163336
0.0009689776656
0.0009718348566
0.000976082934
0.0009812770858
0.0009871010271
0.0009932375149
0.0009993521353
0.0010051078
0.00101018382
0.001014314803
0.001017326196
0.00101915226
0.001019832229
0.001019489042
0.001018299759
0.001016466206
0.001014191161
0.001011661845
0.001009040155
0.001006457887
0.001004014808
0.001001778859
0.0009997885912
0.0009980564883
0.0009965721788
0.0009953056125
0.0009942105327
0.0009932285279
0.0009922944447
0.0009913438988
0.0009903166027
0.0009891327958
0.0009876838696
0.0009860272634
0.0009851499812
0.0009847844107
0.0009846792948
0.0009847164142
0.0009848441518
0.0009850450464
0.0009853208256
0.0009856866983
0.0009861712722
0.000986821236
0.000987713209
0.0009889805173
0.0009908733178
0.0009939671964
542.3066625
123.8826509
24.74699055
2.508005604
0.1103559528
0.003664443365
0.001134266746
0.001033986217
0.00100097782
0.0009853210947
0.0009786531036
0.0009770754604
0.0009785250803
0.0009819003926
0.0009864677925
0.0009918064794
0.0009975745831
0.001003434138
0.001009045427
0.001014086099
0.001018277163
0.001021416818
0.001023402803
0.001024235797
0.001024005073
0.00102286322
0.001020998184
0.001018608659
0.001015885698
0.001013000796
0.001010099319
0.001007297618
0.00100468204
0.001002309442
0.001000209549
0.0009983880129
0.0009968293202
0.0009954996763
0.0009943501599
0.0009933204017
0.0009923436042
0.0009913539754
0.0009902909316
0.0009890747409
0.0009875892109
0.0009859674218
0.0009851500947
0.0009848128611
0.0009847221624
0.0009847682203
0.0009849033683
0.0009851119644
0.0009853965586
0.0009857727125
0.000986269129
0.0009869323727
0.0009878386198
0.0009891198502
0.0009910223516
0.0009941061591
537.0241513
115.2642221
20.39501409
1.558947473
0.0437292772
0.00174035733
0.001092766743
0.001032413862
0.001004760996
0.000991929814
0.0009869153796
0.000986376256
0.0009884939581
0.0009922667502
0.0009970225245
0.001002349282
0.001007887973
0.001013294583
0.00101824217
0.001022442594
0.001025672783
0.001027798631
0.001028784068
0.001028683316
0.001027620768
0.001025765525
0.001023306992
0.001020435246
0.001017327313
0.00101413878
0.001010999481
0.00100801181
0.001005250249
0.001002761981
0.001000569088
0.0009986713286
0.0009970487763
0.0009956644452
0.0009944671706
0.0009933949519
0.0009923796003
0.0009913540778
0.0009902576408
0.0009890110087
0.0009874874721
0.0009859135996
0.000985152155
0.0009848416662
0.0009847648864
0.000984819849
0.0009849625664
0.0009851791074
0.0009854728099
0.0009858595825
0.0009863682243
0.0009870451653
0.0009879660907
0.0009892614698
0.0009911732283
0.0009942448726
526.882583
114.3813599
16.61681467
0.894698123
0.0139178386
0.001249029722
0.001081812673
0.001033204324
0.001009853676
0.0009993849585
0.0009958029349
0.0009961445668
0.0009987869962
0.0010028121
0.001007600776
0.001012744496
0.001017880161
0.001022674026
0.001026828939
0.001030105249
0.001032341919
0.001033469052
0.001033505954
0.00103254638
0.001030736518
0.001028251734
0.001025276423
0.001021988895
0.001018551386
0.001015104247
0.001011763135
0.001008618041
0.001005733058
0.001003146964
0.001000875226
0.0009989125185
0.0009972351166
0.0009958033097
0.0009945640424
0.0009934539571
0.0009924036844
0.0009913450667
0.0009902173064
0.0009889421116
0.0009873784737
0.0009858654208
0.000985156111
0.0009848708949
0.0009848075755
0.0009848714197
0.0009850218664
0.0009852465936
0.0009855496925
0.0009859474111
0.0009864686411
0.0009871596638
0.0009880956196
0.0009894052881
0.0009913257264
0.0009943832081
511.8617332
107.0146532
12.68122062
0.4638377504
0.003842727882
0.001171583336
0.001077566385
0.00103574502
0.001016015516
0.001007592195
0.001005223365
0.001006269162
0.001009272251
0.001013386896
0.001018040439
0.001022830595
0.001027404979
0.001031455609
0.001034728222
0.001037039067
0.001038287952
0.001038460567
0.001037618877
0.001035883082
0.001033410388
0.001030375092
0.001026952581
0.001023307987
0.001019589015
0.001015921934
0.001012409717
0.001009131458
0.001006142201
0.001003473436
0.001001134899
0.0009991168632
0.0009973923267
0.0009959192432
0.000994642963
0.0009934990016
0.0009924169856
0.0009913277329
0.0009901704662
0.0009888685885
0.0009872619529
0.0009858225312
0.0009851619099
0.0009849006084
0.0009848503289
0.0009849230417
0.0009850813781
0.0009853145296
0.0009856273065
0.0009860362863
0.0009865704464
0.0009872759006
0.0009882271844
0.0009895511902
0.0009914796667
0.000994521024
492.1760132
95.57311825
8.997820661
0.2082785392
0.001693362843
0.001155516165
0.001075719772
0.001039709381
0.001023095972
0.001016413508
0.001015035921
0.001016599902
0.001019789987
0.001023826105
0.001028178597
0.001032460017
0.001036342791
0.001039557137
0.001041899211
0.00104324188
0.001043539312
0.001042821633
0.001041181021
0.001038753138
0.001035698201
0.001032184642
0.001028376743
0.00102442624
0.001020467189
0.00101661315
0.001012955908
0.001009565044
0.001006487744
0.001003749171
0.001001354086
0.000999288936
0.0009975238747
0.0009960148478
0.0009947058598
0.0009935314939
0.0009924205216
0.0009913028036
0.0009901176203
0.000988791021
0.0009871375226
0.000985784602
0.0009851694992
0.0009849308601
0.0009848932363
0.0009849748142
0.0009851412005
0.00098538301
0.0009857057385
0.000986126281
0.00098667369
0.0009873938895
0.0009883607419
0.0009896990428
0.0009916349094
0.0009946581537
468.404632
81.88075874
5.956822117
0.09044223001
0.001427940088
0.001144816732
0.001075909392
0.001044873512
0.00103091544
0.001025683609
0.001025077368
0.001026970976
0.001030173679
0.001033968488
0.001037868737
0.001041512791
0.001044609162
0.001046933893
0.001048335371
0.00104873853
0.001048142465
0.001046610252
0.001044253444
0.001041214717
0.001037651813
0.001033724523
0.001029585277
0.001025372951
0.001021209149
0.001017196157
0.001013415969
0.001009929901
0.001006778308
0.00100398085
0.001001537944
0.0009994326958
0.0009976327771
0.0009960923992
0.0009947544301
0.0009935526866
0.0009924152111
0.0009912709502
0.0009900592305
0.0009887100581
0.0009870164054
0.0009857513295
0.0009851788273
0.0009849616964
0.000984936378
0.0009850268258
0.0009852014212
0.0009854521169
0.0009857850611
0.0009862174522
0.0009867784039
0.0009875136247
0.000988496227
0.0009898486989
0.0009917912653
0.0009947944185
440.7528247
68.36809564
3.808816503
0.04015727722
0.001319983249
0.001137634282
0.001077808119
0.001051008423
0.001039284842
0.001035227057
0.00103517624
0.001037213696
0.001040262253
0.001043668217
0.001046990097
0.001049901909
0.001052155258
0.001053574452
0.001054057063
0.001053572347
0.001052154024
0.001049887744
0.001046895807
0.001043321887
0.001039317842
0.001035033528
0.001030609665
0.001026173231
0.001021834705
0.001017686475
0.001013802021
0.001010235475
0.001007021248
0.001004174188
0.001001690906
0.0009995515615
0.0009977216525
0.0009961538845
0.0009947901666
0.0009935636924
0.0009924018842
0.0009912327959
0.0009899957184
0.0009886259513
0.000986905797
0.0009857224341
0.0009851898439
0.000984993157
0.0009849798245
0.0009850791547
0.0009852621161
0.0009855219195
0.0009858653322
0.0009863098401
0.0009868846015
0.0009876350801
0.0009886335521
0.0009899999944
0.0009919485079
0.000994929642
408.9921502
55.41549936
2.431718392
0.01538950319
0.001269947951
0.001133356709
0.001081123707
0.001057894753
0.001048014895
0.001044866122
0.001045161618
0.001047166785
0.001049910928
0.001052804696
0.001055454143
0.001057575349
0.001058965401
0.00105949485
0.001059104191
0.00105779799
0.001055634927
0.001052714688
0.001049163959
0.00104512347
0.001040737365
0.001036145276
0.001031476892
0.001026848466
0.001022360669
0.001018097271
0.001014124354
0.001010489806
0.001007222845
0.00100433409
0.001001816787
0.0009996484929
0.0009977927802
0.0009962010443
0.0009948143877
0.0009935655058
0.0009923812977
0.0009911889283
0.0009899274855
0.0009885386441
0.0009868049534
0.0009856976588
0.0009852024995
0.0009850252746
0.000985023637
0.0009851318678
0.0009853233491
0.0009855924733
0.0009859465945
0.0009864034679
0.0009869922768
0.0009877582078
0.0009887726063
0.0009901527466
0.0009921063987
0.000995063637
373.1231059
43.61405908
1.493378301
0.006521282246
0.00124449403
0.00113142555
0.001085548715
0.001065303727
0.001056912186
0.001054424849
0.00105487217
0.001056687823
0.001059002416
0.001061291271
0.00106320899
0.001064516055
0.001065053483
0.001064732998
0.001063530282
0.001061476432
0.001058646879
0.001055148851
0.001051109064
0.001046662978
0.001041946298
0.001037088788
0.001032210068
0.001027416886
0.001022801349
0.001018439745
0.001014391738
0.001010699767
0.001007388486
0.001004464777
0.001001918892
0.0009997260629
0.0009978481522
0.000996235409
0.0009948282613
0.0009935590183
0.0009923541447
0.0009911399066
0.0009898549276
0.0009884480376
0.0009867131984
0.0009856767665
0.0009852167452
0.0009850580752
0.000985067867
0.0009851850213
0.0009853851717
0.0009856638201
0.0009860288749
0.0009864983404
0.0009871014038
0.0009878829377
0.0009889132545
0.0009903067526
0.0009922646796
0.0009951962086
334.1691068
32.83075797
0.8557595603
0.003228069215
0.001229248311
0.001131385014
0.001090802021
0.001073016815
0.00106579097
0.001063738925
0.001064165821
0.001065661529
0.00106745243
0.00106907665
0.001070236682
0.001070736013
0.001070455307
0.001069340865
0.001067395735
0.001064669864
0.001061249005
0.001057243307
0.001052776777
0.001047978456
0.001042975614
0.001037888863
0.001032828834
0.001027893944
0.001023168867
0.001018723406
0.001014611637
0.001010871226
0.001007522794
0.00100456989
0.001002000082
0.0009997865127
0.000997889514
0.0009962583297
0.0009948328287
0.0009935450362
0.0009923210681
0.0009910862746
0.0009897784494
0.0009883539591
0.0009866299185
0.0009856595381
0.0009852325323
0.0009850915778
0.0009851125559
0.0009852386595
0.0009854476222
0.0009857359866
0.0009861121829
0.000986594443
0.0009872119345
0.0009880091753
0.0009890553359
0.0009904617874
0.0009924230766