/*--------------------------------*- C++ -*----------------------------------*\
  =========                 |
  \\      /  F ield         | OpenFOAM: The Open Source CFD Toolbox
   \\    /   O peration     | Website:  https://openfoam.org
    \\  /    A nd           | Version:  12
     \\/     M anipulation  |
\*---------------------------------------------------------------------------*/
FoamFile
{
    format      ascii;
    class       volScalarField;
    location    "1550";
    object      Ma;
}
// * * * * * * * * * * * * * * * * * * * * * * * * * * * * * * * * * * * * * //

dimensions      [];

internalField   nonuniform List<scalar> 
16200
(
0.5344636124
0.637514358
0.69573009
0.7419473189
0.7854301394
0.8317672384
0.8828980082
0.9293852383
0.9460190355
0.946439076
0.9453323673
0.944288094
0.9430011183
0.9415823619
0.9399150663
0.9380051893
0.9357794297
0.9331978209
0.930191664
0.9266944546
0.9226262337
0.9179005384
0.9124225547
0.9060922607
0.8988086148
0.8904771653
0.8810225904
0.8704071615
0.8586560087
0.8458872186
0.8323389183
0.8183764991
0.8044624077
0.7910878386
0.7786902536
0.7675897785
0.7579634448
0.749854316
0.7432003157
0.7378684545
0.7336863045
0.7304675967
0.7280310253
0.7262123459
0.7248706603
0.7238902358
0.723179135
0.7226663176
0.72229805
0.7220343707
0.7218459359
0.7217113694
0.7216151963
0.7215461233
0.7214960562
0.7214587463
0.7214306676
0.7214081197
0.7213893356
0.7213677328
0.5481434962
0.6548683803
0.715052054
0.7628578622
0.8081937903
0.8569772184
0.9097915058
0.9496239024
0.9589700792
0.958654
0.9574827454
0.9563509224
0.9549652395
0.9534280259
0.9516170003
0.9495328299
0.9470972861
0.9442623669
0.9409521585
0.9370902598
0.9325867426
0.9273436014
0.9212543548
0.9142075309
0.9060928516
0.8968117138
0.8862943553
0.8745245796
0.8615723357
0.8476285983
0.8330267544
0.8182274791
0.803756291
0.7901122712
0.7776864749
0.7667201507
0.7573068725
0.7494223977
0.7429623358
0.7377752339
0.7336875223
0.7305213629
0.7281071655
0.7262917628
0.7249429254
0.7239508474
0.7232272
0.7227028437
0.7223248496
0.7220534241
0.7218590689
0.7217201319
0.7216208238
0.7215496025
0.7214980647
0.7214598753
0.7214310839
0.7214082039
0.7213892421
0.7213660807
0.5615842069
0.6719275041
0.7340485338
0.7835158862
0.830847315
0.8818726454
0.9352654616
0.9656526141
0.9697977332
0.9689606053
0.9677184987
0.9664844767
0.9649698906
0.963278869
0.9612851703
0.9589823188
0.9562873744
0.9531431766
0.9494659449
0.9451683214
0.9401492434
0.9342979929
0.9274954782
0.9196188433
0.9105507161
0.9001941988
0.888496582
0.8754822847
0.8612927967
0.8462207455
0.8307132407
0.8153224627
0.8006099739
0.7870439996
0.7749336262
0.7644176736
0.7554953959
0.748073121
0.7420062629
0.737128395
0.7332685173
0.7302609914
0.7279518009
0.7262027435
0.7248940137
0.7239251334
0.7232142957
0.7226966499
0.7223219494
0.722052001
0.7218582194
0.7217194535
0.7216201696
0.7215489636
0.7214974579
0.7214593797
0.7214306345
0.721407892
0.7213893102
0.7213661754
0.5739776319
0.6875060416
0.7513736441
0.8026039292
0.8522195041
0.9052379982
0.9561769736
0.9766465464
0.9778135208
0.9768171512
0.9754981634
0.9741448465
0.9724868817
0.9706227216
0.9684233849
0.9658733071
0.9628845817
0.9593897253
0.9552962499
0.9505049673
0.9449029459
0.9383666166
0.9307652503
0.9219678167
0.9118566212
0.9003485009
0.8874267046
0.8731823173
0.8578571004
0.8418649752
0.8257630897
0.8101633772
0.7956148113
0.7825086781
0.7710427748
0.7612436934
0.753020522
0.7462206012
0.7406701967
0.736196881
0.7326386701
0.7298466423
0.7276857025
0.7260353189
0.7247904064
0.7238617886
0.7231758297
0.7226732991
0.7223076656
0.7220431128
0.7218525358
0.721715688
0.7216175768
0.7215471268
0.7214961314
0.7214584472
0.7214299324
0.7214073888
0.7213891512
0.7213657422
0.5850622626
0.7014596074
0.7669260613
0.8198891953
0.8719515235
0.9269632408
0.9711414103
0.9832647306
0.9830932475
0.9819869848
0.9806011328
0.9791065729
0.9772813331
0.9752155414
0.9727788377
0.969944905
0.9666205966
0.9627270041
0.9581619318
0.9528135276
0.9465566254
0.9392557368
0.9307714629
0.9209709062
0.9097471081
0.8970480223
0.8829172418
0.8675411663
0.8512851776
0.8346878362
0.8183903227
0.8030153175
0.7890464603
0.7767601463
0.7662271251
0.7573644908
0.7500038092
0.7439482562
0.7390074576
0.7350117398
0.7318135497
0.7292838575
0.7273084676
0.7257859925
0.7246273663
0.723755937
0.7231073677
0.722629044
0.7222789876
0.7220244321
0.7218402751
0.7217075668
0.7216121461
0.7215434733
0.7214936716
0.7214568215
0.721428843
0.7214066636
0.7213889031
0.7213654404
0.5944832441
0.7134817505
0.7804410046
0.8351656652
0.8896511674
0.946057744
0.9808279919
0.9867985375
0.9856752875
0.984523992
0.9829381764
0.9812866425
0.9792770905
0.9769873719
0.9742864704
0.9711354306
0.9674350724
0.9630941382
0.9580002086
0.9520292023
0.9450452117
0.9369042449
0.9274643133
0.9166008507
0.9042333931
0.8903632793
0.8751217494
0.8588157325
0.8419436509
0.8251495588
0.8091115684
0.7944050419
0.7814010551
0.7702374149
0.7608571849
0.7530818892
0.7466845346
0.7414415632
0.7371589325
0.7336779313
0.730869897
0.7286277589
0.7268590577
0.7254819223
0.724423605
0.72362035
0.7230175614
0.7225697097
0.7222398153
0.7219985543
0.7218231517
0.7216962119
0.7216046024
0.7215384645
0.7214903624
0.721454672
0.7214274491
0.7214057472
0.7213885209
0.7213650107
0.6021716686
0.7236383785
0.7920929095
0.8488196818
0.9057770021
0.9610474055
0.9858881212
0.9885528931
0.9857162086
0.9844097446
0.9826914442
0.9808562411
0.978633167
0.9760841644
0.9730783191
0.9695631429
0.9654333407
0.9605855813
0.954897776
0.9482351387
0.9404535865
0.9314054949
0.920954704
0.9089985619
0.8955027811
0.880547254
0.8643767481
0.847433826
0.8303398121
0.8138035077
0.7984808011
0.7848449914
0.7731220448
0.7633047717
0.7552211215
0.7486180168
0.7432309165
0.7388261942
0.7352173055
0.7322628419
0.7298559118
0.7279122069
0.7263608142
0.7251388952
0.724189605
0.7234618659
0.7229107966
0.7224980617
0.7221918625
0.7219665212
0.7218017853
0.7216819817
0.7215951455
0.7215322066
0.7214862555
0.7214520228
0.7214257598
0.7214046488
0.7213880306
0.7213645378
0.6080572084
0.7319489103
0.8020643221
0.8611239591
0.9205979581
0.9705910539
0.9851934091
0.9847345463
0.9833477981
0.9819199145
0.9800261139
0.9779780477
0.9755100096
0.9726656153
0.9693146476
0.9653905928
0.9607817882
0.9553730634
0.9490330717
0.9416181552
0.9329798367
0.9229742141
0.9114829811
0.8984429437
0.8838888841
0.868004762
0.8511683716
0.8339570277
0.8170832506
0.8012637844
0.7870717147
0.7748361021
0.7646235779
0.7562912619
0.7495737806
0.7441675182
0.7397906458
0.736213792
0.7332665763
0.7308291897
0.7288179066
0.7271709314
0.7258379286
0.7247739896
0.7239372383
0.7232886171
0.7227925674
0.722417763
0.7221375391
0.7219298967
0.7217771748
0.7216655031
0.7215841599
0.7215249293
0.7214814824
0.7214489461
0.7214238083
0.7214033827
0.7213874318
0.7213639896
0.6121081506
0.7384174709
0.8105343642
0.8721630405
0.9335983607
0.9755402861
0.9821020717
0.9806701289
0.9788296778
0.9772326082
0.9751520074
0.9728695902
0.9701322354
0.96696307
0.9632323805
0.9588591631
0.9537248961
0.9477032453
0.9406550621
0.9324316408
0.9228867778
0.9118909799
0.8993590362
0.8852874133
0.8698040775
0.8532193087
0.8360514299
0.8189913999
0.8027919497
0.7881141278
0.7753966775
0.7648006262
0.7562371628
0.7494488779
0.7441035489
0.7398706913
0.7364686436
0.7336833337
0.7313664323
0.7294220304
0.7277896571
0.726428959
0.7253086736
0.7244003312
0.7236757765
0.7231070456
0.7226672781
0.7223317776
0.7220788081
0.7218899588
0.7217501367
0.7216472861
0.7215719558
0.7215168149
0.7214761454
0.7214454963
0.7214216195
0.7214019613
0.7213867335
0.7213633761
0.6146765931
0.7435824791
0.818018144
0.8822958781
0.9435622655
0.9746320849
0.9757752691
0.9743385004
0.9724598992
0.9706742291
0.968382374
0.9658366243
0.9627972125
0.9592654209
0.9551116663
0.9502407016
0.9445273283
0.9378360045
0.9300229095
0.9209400508
0.9104521726
0.8984568176
0.8849192308
0.8699178273
0.8536974823
0.8367091867
0.8196015013
0.8031365452
0.7880437871
0.7748689045
0.7638816449
0.7550710996
0.7482116574
0.7429594615
0.738942518
0.7358243402
0.7333370989
0.7312896529
0.7295590747
0.7280739931
0.7267962935
0.7257054407
0.7247874274
0.7240285312
0.7234129122
0.7229226299
0.7225387634
0.722242744
0.7220174543
0.7218478933
0.7217214436
0.7216278228
0.7215588382
0.7215080461
0.7214703491
0.72144173
0.7214192199
0.7214003966
0.7213859399
0.7213626924
0.61596975
0.7477950568
0.8248831401
0.892076327
0.949640031
0.9689177358
0.9681275986
0.9665217264
0.9644825341
0.9624821336
0.9599540086
0.9571140078
0.9537370326
0.949801903
0.9451788568
0.9397596026
0.9334133479
0.9259983828
0.9173704672
0.9073893012
0.8959409576
0.8829652131
0.868498532
0.8527256683
0.8360279399
0.8189966375
0.8023781757
0.786945868
0.7733404952
0.7619466237
0.7528511623
0.7458850708
0.7407142861
0.7369387251
0.7341712262
0.7320860039
0.7304387038
0.7290656314
0.7278705136
0.7268058963
0.7258544487
0.7250135128
0.7242843872
0.7236663485
0.723154428
0.7227395924
0.7224100461
0.7221527855
0.7219549409
0.7218046892
0.7216917499
0.7216075359
0.7215450723
0.7214987836
0.7214641865
0.721437698
0.7214166335
0.7213986999
0.7213850549
0.7213619389
0.616108766
0.751351177
0.8312453314
0.9010177007
0.9516325028
0.9609424951
0.9590130786
0.9573141199
0.955106697
0.9528640762
0.9500693467
0.9468996454
0.943145182
0.9387628915
0.9336226467
0.9276047844
0.9205741783
0.9123862856
0.9029016097
0.8919964562
0.8795919304
0.8656895964
0.8504214876
0.834101464
0.8172549431
0.800591581
0.7849020899
0.7709030165
0.7590906824
0.7496633075
0.7425314631
0.7373946859
0.7338430785
0.7314488247
0.7298298469
0.7286831753
0.7277938702
0.7270276385
0.7263145411
0.7256295648
0.7249741992
0.7243615965
0.7238064145
0.7233192248
0.7229045268
0.7225610993
0.7222834567
0.7220635799
0.7218924508
0.7217611629
0.7216616065
0.7215867881
0.7215308901
0.7214891705
0.7214577417
0.7214334469
0.7214138829
0.7213968818
0.7213840823
0.7213611141
0.6152340966
0.7545753822
0.8374778866
0.9080203457
0.9461040397
0.9512135328
0.9487087753
0.9468938115
0.9444804424
0.9419662859
0.9388739368
0.9353398453
0.9311690636
0.9262973636
0.9205933699
0.9139275371
0.9061621685
0.8971548503
0.8867790074
0.874940562
0.8616141315
0.8468866581
0.8310099704
0.814440556
0.797835731
0.7819784131
0.7676366601
0.7554067478
0.7456035535
0.7382359661
0.7330609991
0.729680477
0.7276408265
0.7265107027
0.7259282491
0.725621088
0.7254065524
0.7251797744
0.7248957533
0.7245499324
0.7241604896
0.7237543351
0.723357631
0.7229906488
0.722666045
0.7223893781
0.7221606928
0.7219763872
0.7218308963
0.7217179593
0.7216314587
0.7215658789
0.7215164871
0.7214793298
0.7214510887
0.7214290188
0.7214109887
0.7213949525
0.7213830287
0.7213602174
0.6135301293
0.7576741464
0.8438341949
0.9122855623
0.9392449933
0.9400549794
0.937327515
0.9353654589
0.9327244381
0.9299143031
0.926494759
0.9225616279
0.9179327535
0.9125240553
0.9062028379
0.8988331163
0.8902792908
0.8804094773
0.8691220219
0.8563693999
0.8422017526
0.8268155972
0.8105998773
0.7941498364
0.7782190453
0.763601021
0.7509731294
0.740763535
0.7330916938
0.7277936259
0.7245057852
0.7227674099
0.722109565
0.7221160576
0.7224553779
0.7228898364
0.723269548
0.7235177643
0.7236123774
0.723567066
0.7234145585
0.723193578
0.7229400834
0.7226825951
0.7224407347
0.7222258956
0.7220429285
0.7218921141
0.7217709564
0.7216755734
0.7216016574
0.7215450504
0.7215020251
0.7214693661
0.7214442919
0.721424451
0.7214079698
0.7213929224
0.721381903
0.7213592484
0.6114147085
0.7608577447
0.8497726022
0.9131652548
0.9286450855
0.9278954416
0.9250439647
0.9228768886
0.9199727907
0.9168261635
0.9130320056
0.9086475137
0.9035019519
0.8974947649
0.8904938558
0.882362168
0.8729727331
0.8622144988
0.8500254232
0.8364246564
0.8215614134
0.8057613847
0.7895534355
0.77364537
0.7588311898
0.7458460085
0.7352198616
0.7271873069
0.7216803696
0.7183923328
0.716875991
0.7166402294
0.7172233615
0.7182373549
0.7193868127
0.7204699773
0.7213686144
0.7220319704
0.7224584656
0.7226777514
0.7227350707
0.7226791767
0.7225542925
0.7223958949
0.7222295089
0.7220715148
0.7219309134
0.7218113748
0.7217131134
0.7216343703
0.7215724707
0.7215244932
0.7214876356
0.7214593664
0.7214374067
0.7214197765
0.7214048433
0.7213908022
0.7213807111
0.7213582071
0.6092847168
0.7645222652
0.8542333254
0.9079455267
0.9165807222
0.9148200431
0.9118345842
0.9094079714
0.906200071
0.9026710773
0.8984516583
0.893563052
0.8878453116
0.8811850866
0.8734530946
0.8645170808
0.8542670321
0.8426263965
0.8295919521
0.8152725938
0.7999374292
0.7840489215
0.7682581865
0.7533381077
0.7400565486
0.7290276922
0.7205978106
0.7148057873
0.7114212101
0.7100316543
0.7101418014
0.7112568875
0.7129388517
0.7148357416
0.71669059
0.7183367873
0.7196855873
0.7207096866
0.7214255856
0.7218767356
0.7221190232
0.7222096375
0.722199715
0.7221305567
0.7220326592
0.7219266409
0.7218250666
0.721734551
0.7216576892
0.7215946078
0.7215440966
0.7215043541
0.7214734234
0.7214494029
0.7214304801
0.7214150246
0.721401625
0.7213886023
0.7213794464
0.7213570932
0.6075550052
0.7681633434
0.8562684989
0.8988259625
0.9029675464
0.9007539227
0.8976134404
0.894881629
0.8913370722
0.8873892398
0.882703571
0.8772677843
0.8709318467
0.8635736457
0.8550705985
0.8453045374
0.8341958875
0.821721413
0.8079587234
0.7931268346
0.7776249721
0.7620416337
0.7471115983
0.7336115184
0.7222180343
0.7133786462
0.7072429688
0.7036719592
0.7023079485
0.7026706159
0.7042471907
0.7065593736
0.7092032938
0.7118668722
0.714331385
0.7164632807
0.7182005862
0.7195367687
0.720504037
0.7211576357
0.7215624207
0.7217826172
0.7218751028
0.7218860219
0.7218500343
0.7217913423
0.7217255582
0.7216618447
0.7216048797
0.7215564572
0.7215166755
0.7214847426
0.7214594702
0.721439534
0.7214235523
0.7214102208
0.7213983298
0.7213863306
0.7213780916
0.7213559058
0.6070374358
0.771187995
0.8552770026
0.8880435236
0.8881818297
0.8857045441
0.8823699174
0.8792937623
0.8753767696
0.8709694318
0.8657713536
0.8597400047
0.8527364116
0.8446368818
0.8353339437
0.8247372636
0.8128148054
0.79961608
0.7853178487
0.7702603372
0.7549677529
0.7401249355
0.7264963813
0.7147981322
0.7055629156
0.6990479987
0.6952151813
0.6937787134
0.6942922904
0.6962418119
0.6991210841
0.702481933
0.7059603893
0.7092849745
0.7122733669
0.7148222515
0.7168935072
0.7184987508
0.7196836973
0.7205135835
0.721060765
0.7213952923
0.721578776
0.7216613632
0.7216811812
0.7216654495
0.721632377
0.7215933233
0.7215547835
0.7215200218
0.7214903017
0.721465738
0.7214458389
0.721429807
0.7214166571
0.7214053879
0.7213949713
0.7213839929
0.721376618
0.7213546437
0.6085318982
0.772861222
0.8513208206
0.8739444527
0.8723185807
0.8696594807
0.8660749707
0.8626060509
0.8582699327
0.8533523188
0.8475889727
0.8409129096
0.8332002469
0.8243359939
0.814238624
0.8028601237
0.7902318521
0.7764919675
0.7619280858
0.7470014259
0.7323401289
0.7186799697
0.7067541987
0.6971613419
0.6902570535
0.6861073269
0.6845114068
0.6850745071
0.6872983705
0.6906629779
0.6946858193
0.6989569243
0.7031542334
0.7070455107
0.7104820256
0.7133875679
0.715744975
0.7175815663
0.7189545802
0.7199376624
0.7206093965
0.7210446218
0.721308823
0.721455434
0.7215254544
0.721548633
0.721545384
0.7215289564
0.7215074268
0.7214853529
0.721465033
0.7214473952
0.7214325768
0.7214202599
0.7214098232
0.721400546
0.7213915624
0.7213815916
0.721375051
0.7213533062
0.6122004957
0.7726482364
0.8421596388
0.8585015122
0.855342287
0.8524787962
0.8485964366
0.8446899057
0.839893401
0.8344254949
0.8280610437
0.8207163025
0.8122871037
0.8026776661
0.7918428192
0.7797903839
0.7666296427
0.7526002673
0.7381051631
0.7237132416
0.7101197632
0.6980556214
0.6881643166
0.6808858266
0.676387646
0.6745621761
0.6750809431
0.6774781282
0.6812348148
0.6858458027
0.6908631233
0.6959186979
0.7007317894
0.7051067718
0.7089252357
0.7121349195
0.7147368979
0.7167719807
0.7183071832
0.7194231885
0.7202037212
0.7207275284
0.7210632423
0.7212669769
0.7213820967
0.7214404627
0.7214643555
0.7214686455
0.7214627833
0.7214524626
0.7214408996
0.7214297499
0.7214197185
0.7214109228
0.7214030748
0.721395713
0.7213881155
0.7213791326
0.7213734184
0.7213518959
0.6171194837
0.7706024195
0.8290769265
0.8411647957
0.8371340196
0.8340439332
0.8298281957
0.825457956
0.8201808141
0.8141478553
0.8071745821
0.7991689981
0.790051087
0.7797550046
0.7682835868
0.7557153537
0.7422520254
0.7282427596
0.7141985425
0.7007666196
0.6886594057
0.6785450346
0.6709305416
0.6660769051
0.6639725463
0.6643664846
0.6668403444
0.6708912666
0.6760040022
0.6817021304
0.6875779956
0.6933059249
0.6986442649
0.7034307055
0.7075737821
0.7110421822
0.7138527459
0.7160578196
0.717732681
0.7189638777
0.7198393527
0.7204410174
0.7208400393
0.7210946999
0.7212502988
0.7213404518
0.7213890149
0.721412247
0.7214207902
0.721421335
0.7214179107
0.7214128231
0.7214072887
0.7214018194
0.7213964327
0.7213909052
0.7213846424
0.7213766234
0.7213716954
0.7213504201
0.6210226869
0.7665479253
0.8151438792
0.8223502476
0.8177429149
0.8143857022
0.8098168155
0.8049657668
0.7991961151
0.7925940323
0.7850154132
0.7763705394
0.7666101083
0.7557116131
0.7437410582
0.730862978
0.7173814572
0.7037515759
0.6905688605
0.6785147824
0.6682635134
0.6603704755
0.6551778688
0.65276789
0.6529739997
0.6554378407
0.6596867892
0.6652085496
0.6715087839
0.6781480737
0.684761048
0.6910628538
0.6968477594
0.7019832489
0.7064015456
0.7100895422
0.7130776529
0.7154280645
0.7172230198
0.7185539358
0.7195121955
0.7201822507
0.7206372896
0.720937329
0.7211292397
0.7212480888
0.7213190568
0.721359589
0.7213813602
0.7213919342
0.7213960603
0.7213966247
0.7213953043
0.7213929686
0.7213899145
0.7213861376
0.7213811539
0.7213740662
0.7213698922
0.7213488879
0.6241121439
0.760026502
0.7982177059
0.8022649185
0.7972978714
0.7936087764
0.7886652603
0.7833114011
0.7770298658
0.7698506372
0.7616703588
0.7524159653
0.7420794147
0.7306977251
0.7184147145
0.7054905945
0.6923300773
0.6794749617
0.6675670587
0.657270733
0.6491712471
0.6436770386
0.6409573089
0.64093251
0.6433137717
0.6476714042
0.653508818
0.6603247909
0.6676568571
0.6751063837
0.6823496433
0.6891397682
0.6953033892
0.7007343165
0.7053854531
0.7092594528
0.712398397
0.7148728575
0.7167709408
0.7181880936
0.7192184867
0.7199485885
0.7204531777
0.720793641
0.7210181158
0.7211628599
0.721254164
0.7213104851
0.7213443912
0.7213642113
0.7213753314
0.7213811561
0.7213837762
0.7213843852
0.7213835358
0.7213814239
0.7213776593
0.7213714646
0.7213680385
0.7213473021
0.6254328525
0.7509257231
0.7795419505
0.7810839867
0.7758387677
0.7717404248
0.7663913276
0.7605061219
0.7536889683
0.7459302117
0.7371695649
0.7273668243
0.7165676253
0.7048813189
0.6925379012
0.6798921423
0.6674340821
0.6557599308
0.6455118675
0.6372880474
0.6315469056
0.6285344481
0.6282564329
0.6304994775
0.6348874235
0.6409513474
0.6481942219
0.6561397603
0.6643632827
0.6725075559
0.6802882189
0.6874929357
0.6939770939
0.6996575844
0.7045052921
0.7085364975
0.7118033104
0.7143834507
0.7163699589
0.717861607
0.718954807
0.7197376074
0.7202860163
0.7206624846
0.7209161581
0.7210842643
0.7211940201
0.7212647431
0.7213097731
0.7213381089
0.7213556998
0.7213664127
0.7213727108
0.7213760808
0.72137731
0.7213767766
0.7213741666
0.7213688318
0.7213662178
0.7213456521
0.6243776445
0.7352831111
0.7591367685
0.7587107309
0.7532418562
0.7486571544
0.7428784521
0.7364542277
0.7291060961
0.720805077
0.7115373126
0.7013088953
0.6902286734
0.6784853387
0.6663951797
0.6543960016
0.643037033
0.6329290802
0.6246688485
0.6187487959
0.6154792509
0.6149459972
0.6170135426
0.6213673308
0.6275767596
0.6351597287
0.6436355333
0.6525611151
0.6615517553
0.670290157
0.6785281524
0.6860842952
0.6928392954
0.6987301873
0.7037434704
0.7079072131
0.7112821581
0.7139521287
0.7160143188
0.7175702358
0.7187180765
0.7195471048
0.7201342561
0.7205427906
0.7208226431
0.7210118235
0.7211383172
0.7212221716
0.7212773928
0.7213135654
0.7213371365
0.7213523858
0.7213621111
0.7213680646
0.7213712492
0.7213722071
0.7213706841
0.7213661976
0.7213644831
0.7213439266
0.6206255559
0.7185020414
0.7368745723
0.7349420514
0.7293025025
0.7242115754
0.718015508
0.7110937978
0.7032725157
0.6945234378
0.6848831446
0.6744143746
0.6632958136
0.651797109
0.6403131792
0.6293441165
0.6194645172
0.6112579652
0.6052362715
0.6017606321
0.6009887245
0.6028620094
0.6071327853
0.6134177207
0.6212596391
0.6301827231
0.6397334018
0.6495058533
0.6591549359
0.6684005972
0.6770273133
0.6848809731
0.6918644621
0.6979323631
0.7030847431
0.707359889
0.7108259973
0.7135721156
0.7156989368
0.7173102102
0.7185055374
0.719375093
0.7199964872
0.7204335761
0.7207368987
0.7209450874
0.7210867611
0.7211825845
0.7212471376
0.7212905169
0.7213196097
0.7213390636
0.7213519773
0.7213603439
0.7213653642
0.7213677253
0.7213672222
0.7213635967
0.7213626334
0.7213421506
0.6139777823
0.6997974899
0.7128567401
0.7097798045
0.7039945831
0.6984301006
0.6918555757
0.6845100787
0.6763108637
0.6672477762
0.6574130439
0.646934054
0.6360618741
0.6251416989
0.6146305705
0.6050619776
0.5969982869
0.5909576499
0.5873386608
0.5863608902
0.5880388399
0.592194088
0.5984974697
0.6065256627
0.6158166727
0.6259142965
0.636398148
0.6469005958
0.6571140865
0.6667925104
0.6757494067
0.6838546909
0.6910306193
0.6972470684
0.7025159214
0.7068843556
0.7104270274
0.7132374717
0.7154193321
0.7170781884
0.7183147289
0.7192197857
0.7198714329
0.7203339435
0.7206583048
0.7208836361
0.7210390745
0.7211458036
0.7212188974
0.7212688995
0.7213030859
0.7213264324
0.7213423081
0.7213529245
0.7213596645
0.7213633405
0.7213637917
0.7213610415
0.7213607635
0.721340354
0.604494001
0.6797354602
0.6873339738
0.6833669157
0.6774306907
0.6714437403
0.6645436065
0.6568654229
0.6484092217
0.6391976616
0.6293823637
0.6191586416
0.6088459984
0.5988514502
0.5896697029
0.5818342064
0.5758591143
0.5721675257
0.5710298481
0.5725273849
0.5765506692
0.5828293863
0.5909816006
0.6005674621
0.6111358509
0.6222583903
0.6335504018
0.644681386
0.6553784998
0.6654260858
0.6746633417
0.6829812266
0.6903189151
0.6966596419
0.7020256202
0.7064717978
0.7100784565
0.7129430001
0.7151715643
0.7168712149
0.7181434619
0.7190795836
0.7197579418
0.7202430774
0.7205862934
0.7208270816
0.7209949976
0.72111166
0.7211925664
0.7212486503
0.7212875312
0.7213144772
0.7213331003
0.7213458109
0.7213541585
0.7213590609
0.721360406
0.7213585498
0.7213587819
0.7213385433
0.5923905757
0.6569374721
0.6604695861
0.6557923625
0.6497163248
0.6433763438
0.6362295025
0.6283393123
0.6197813584
0.6106227335
0.6010755495
0.5914003948
0.5819743496
0.5732455925
0.5657174983
0.5598904491
0.5562008906
0.5549586578
0.5563039232
0.5601934712
0.5664182152
0.5746435315
0.5844591452
0.5954264043
0.6071154366
0.6191299537
0.6311210691
0.6427931463
0.6539047839
0.6642673576
0.6737426059
0.6822398993
0.6897132132
0.6961574918
0.7016040232
0.7061145829
0.7097743769
0.712684159
0.7149521724
0.7166866801
0.7179897927
0.718953058
0.719654979
0.720160239
0.720520346
0.7207750664
0.7209542891
0.721079995
0.7211680436
0.7212297085
0.7212729118
0.7213031821
0.7213243498
0.7213390064
0.7213488536
0.721354894
0.7213570783
0.7213561284
0.7213567161
0.7213367496
0.5779366993
0.6319488964
0.6323835433
0.6271408238
0.6209668442
0.6143703049
0.6070864416
0.5991380352
0.5906691541
0.5817979045
0.5727941328
0.563974898
0.5557579092
0.5486075875
0.5430065598
0.5393938537
0.5381081337
0.5393394539
0.5431061772
0.5492606614
0.5575197283
0.5675090186
0.5788092024
0.5909952369
0.6036645994
0.6164545101
0.6290504059
0.6411886179
0.6526558555
0.6632873355
0.6729645551
0.681613008
0.6891996598
0.6957297682
0.7012426377
0.705806079
0.7095096333
0.7124569675
0.7147581086
0.716522275
0.7178519924
0.7188389311
0.7195616132
0.7200847596
0.7204599899
0.7207272618
0.7209167253
0.7210506595
0.7211452331
0.7212120149
0.721259194
0.7212925307
0.7213160516
0.7213325137
0.7213437559
0.7213508469
0.7213538233
0.7213537831
0.7213545511
0.721334985
0.5612185943
0.6050766181
0.6032013941
0.5975460614
0.5913254984
0.5845987326
0.5773188236
0.569496831
0.5613384391
0.5530131612
0.5448409021
0.5371812092
0.5304717047
0.5251673181
0.5217037846
0.520437967
0.5216008019
0.5252660635
0.5313458033
0.5396106171
0.5497270936
0.5613013848
0.5739193021
0.5871773678
0.6007033182
0.6141674029
0.6272870265
0.6398273677
0.6516000596
0.6624612737
0.6723098289
0.681085377
0.6887663363
0.6953670998
0.7009340984
0.705540511
0.7092797172
0.7122579291
0.7145866844
0.7163759532
0.7177285212
0.7187360591
0.7194770058
0.7200160333
0.7204047935
0.7206833659
0.7208820984
0.7210235143
0.7211240441
0.7211955131
0.721246345
0.7212825063
0.7213081999
0.7213263342
0.7213388704
0.7213469264
0.7213506565
0.7213515152
0.7213523045
0.7213332702
0.5423669977
0.5765414254
0.5730577579
0.5671547561
0.5609728303
0.5542728145
0.5471707012
0.539685752
0.5320788782
0.5245669935
0.5175088402
0.5112895357
0.5063448538
0.5030965163
0.5019127872
0.5030559452
0.5066483953
0.5126584882
0.520911164
0.5311175904
0.5429146558
0.5559046246
0.5696881634
0.5838878426
0.5981623269
0.6122132398
0.6257871738
0.6386750625
0.6507105267
0.6617681362
0.6717619241
0.6806440232
0.6884030037
0.695061401
0.7006720221
0.7053128515
0.7090806871
0.7120839738
0.7144355289
0.7162459021
0.7176180093
0.7186434189
0.7194004031
0.719953512
0.7203543644
0.7206431018
0.7208502169
0.7209984294
0.721104391
0.7211801486
0.7212343325
0.7212730918
0.7213007882
0.7213204689
0.7213342009
0.7213431393
0.7213475942
0.7213493242
0.7213499785
0.7213316292
0.5215127077
0.5466083236
0.5419620314
0.536210508
0.5301741613
0.5236697878
0.5169342353
0.5100055652
0.5031923136
0.496751618
0.4910671061
0.4865308851
0.4835558381
0.4825106045
0.4836820431
0.4872334641
0.493185185
0.5014155076
0.5116823787
0.5236576605
0.5369650735
0.5512142655
0.5660268215
0.581053293
0.5959824622
0.6105450149
0.6245138277
0.6377026649
0.6499644932
0.6611900457
0.671306757
0.6802778147
0.6881008395
0.6948056701
0.700450855
0.7051187065
0.7089090829
0.7119323951
0.7143025428
0.7161305096
0.717519232
0.7185600917
0.7193311243
0.719896698
0.7203083436
0.7206062147
0.7208209027
0.720975283
0.7210861926
0.7211658696
0.721223125
0.7212642701
0.7212938096
0.7213149173
0.7213297499
0.721339493
0.7213446519
0.7213472044
0.7213475851
0.7213300993
0.4988359775
0.5156699522
0.5106295173
0.5049689238
0.4992089319
0.493071894
0.4868936625
0.4807375649
0.4749496007
0.4698167359
0.4657316785
0.4630749036
0.4622179174
0.4634615594
0.4670041334
0.4729123619
0.4811158499
0.4914201656
0.5035352848
0.5171106875
0.5317694703
0.5471362565
0.5628568379
0.5786099303
0.5941127377
0.6091224143
0.6234352941
0.6368852998
0.6493424126
0.6607115955
0.6709321374
0.6799770703
0.6878521341
0.6945937601
0.7002656995
0.7049541848
0.7087618278
0.7118007767
0.7141858444
0.7160283245
0.7174310823
0.7184852425
0.7192685474
0.7198451339
0.7202663992
0.7205724669
0.7207939886
0.7209539595
0.7210693708
0.7211526249
0.7212126908
0.7212560233
0.7212872561
0.721309678
0.7213255187
0.7213359955
0.7213418431
0.7213451462
0.7213451452
0.7213287234
0.4743436652
0.4841085615
0.4791118457
0.4736918788
0.4683427791
0.4627483124
0.4573172152
0.4521409626
0.4475912768
0.4439727737
0.441671483
0.4410395518
0.4423926012
0.4459545577
0.4518340876
0.4600087455
0.4703315366
0.4825525861
0.496350626
0.5113661898
0.527230717
0.5435884649
0.5601107114
0.5765033832
0.5925099359
0.6079113493
0.6225247704
0.6362018877
0.6488276611
0.6603196221
0.6706275943
0.6797334271
0.6876501894
0.6944203008
0.7001122543
0.7048158519
0.7086361936
0.7116869661
0.7140837497
0.7159380421
0.7173525598
0.7184181129
0.7192121044
0.7197983992
0.7202282238
0.720541637
0.720769317
0.720934349
0.7210538507
0.721140365
0.7212029985
0.7212483331
0.7212811189
0.721304748
0.7213215075
0.7213326552
0.7213391781
0.7213431389
0.7213427118
0.7213275144
0.4486155857
0.4523151989
0.4476875386
0.4426338718
0.4378395284
0.432961383
0.4284588012
0.4244513861
0.4213249487
0.4193894935
0.4190100075
0.4204965431
0.4240986849
0.4299594989
0.4381017567
0.4484245289
0.4607192705
0.4746966246
0.4900179745
0.5063250218
0.52326353
0.5404998281
0.5577305745
0.5746872662
0.5911372377
0.6068827384
0.621759312
0.6356342936
0.6484058532
0.6600026617
0.6703839512
0.6795395127
0.687489069
0.6942805103
0.6999866736
0.7047006258
0.7085297234
0.7115890187
0.7139947322
0.715858475
0.7172827505
0.7183580072
0.7191612713
0.719756104
0.7201935307
0.7205135166
0.720746739
0.7209163464
0.7210395595
0.7211290408
0.7211940164
0.7212411803
0.721275388
0.721300123
0.721317716
0.7213294807
0.721336663
0.7213411753
0.7213403451
0.7213263885
0.4218442175
0.4206814727
0.4166203331
0.4120632459
0.4079574095
0.4039525217
0.4005386663
0.3978608964
0.3963075664
0.3961822442
0.3978163368
0.4014670814
0.4073118731
0.4154132028
0.4257151047
0.4380505124
0.4521639669
0.4677405035
0.4844351318
0.5018979278
0.5197926111
0.5378084292
0.55566643
0.5731216855
0.5899630249
0.606011585
0.6211191406
0.6351668183
0.6480644694
0.6597506804
0.6701931286
0.6793887986
0.6873634885
0.6941701117
0.6998855032
0.7046057282
0.7084401954
0.7115051699
0.7139174023
0.7157885391
0.7172208168
0.7183042852
0.7191155636
0.7197178858
0.720162052
0.7204879101
0.7207261133
0.7208998513
0.7210264272
0.7211186045
0.721185713
0.7212345457
0.721270053
0.7212957973
0.7213141435
0.7213264801
0.7213342997
0.7213392532
0.7213380578
0.7213253961
0.3943428045
0.3895613928
0.3861758964
0.3822373764
0.3789361055
0.3759376452
0.3737443864
0.3725230645
0.3726542371
0.3744242601
0.3781202597
0.3839386562
0.3919819213
0.4022355565
0.4145742246
0.4287775359
0.444556501
0.4615820471
0.4795110812
0.4980068601
0.5167529214
0.5354611848
0.5538755631
0.5717725671
0.5889602276
0.6052763923
0.6205871449
0.6347857833
0.6477925198
0.659554803
0.6700479289
0.679275431
0.6872686824
0.694085229
0.6998056001
0.7045286218
0.7083655736
0.7114337981
0.7138504787
0.715727231
0.7171659808
0.7182563491
0.7190745275
0.7196834035
0.7201335336
0.7204646306
0.720707304
0.7208847662
0.721014385
0.7211090085
0.7211780563
0.7212284091
0.7212651018
0.7212917641
0.7213107889