/*--------------------------------*- C++ -*----------------------------------*\
  =========                 |
  \\      /  F ield         | OpenFOAM: The Open Source CFD Toolbox
   \\    /   O peration     | Website:  https://openfoam.org
    \\  /    A nd           | Version:  12
     \\/     M anipulation  |
\*---------------------------------------------------------------------------*/
FoamFile
{
    format      ascii;
    class       volScalarField;
    location    "1550";
    object      T;
}
// * * * * * * * * * * * * * * * * * * * * * * * * * * * * * * * * * * * * * //

dimensions      [0 0 0 1 0 0 0];

internalField   nonuniform List<scalar> 
16200
(
294.3879602
294.4114592
294.2803814
293.9323618
293.2064946
291.6929116
288.473119
282.6064954
279.243696
278.9779663
279.080296
279.1731246
279.2884776
279.4156791
279.5650191
279.7359609
279.934991
280.1655986
280.4337996
280.745362
281.1071824
281.5266401
282.0117293
282.5707393
283.2118359
283.9423406
284.7675874
285.6892969
286.7034347
287.797786
288.9499761
290.1273739
291.2902252
292.397792
293.4152395
294.318494
295.0957232
295.7459806
296.2764437
296.6994519
297.0299537
297.2835365
297.4750438
297.6177298
297.7228518
297.7995928
297.8552127
297.8953027
297.9240817
297.9446822
297.9594015
297.9699116
297.9774215
297.9828134
297.986719
297.9896223
297.9917858
297.9934878
297.9949438
297.9970642
293.5022599
293.4843774
293.2901362
292.8412724
291.9281465
290.0035189
285.957424
280.0490247
277.9553876
277.880239
277.9858884
278.0883765
278.2132464
278.3517258
278.5147295
278.702171
278.9210038
279.1754393
279.4721478
279.8177799
280.2201113
280.6875225
281.2289942
281.853746
282.5706297
283.3871434
284.3078779
285.3323588
286.4523206
287.6489738
288.8916707
290.1398531
291.3489274
292.4781601
293.4972062
294.3889297
295.148517
295.7804925
296.2953582
296.7068275
297.0298549
297.2793042
297.4690642
297.6115029
297.7171923
297.7948501
297.8514541
297.8924477
297.9219876
297.9431937
297.9583757
297.9692272
297.9769822
297.982542
297.9865626
297.9895356
297.9917575
297.9934875
297.9949532
297.9972082
292.722665
292.6469727
292.3714982
291.8013425
290.6680429
288.2593191
283.2016137
278.0759753
276.8997484
276.9478377
277.0613114
277.1730933
277.310112
277.463038
277.6431764
277.8510735
278.0941219
278.3773535
278.7081425
279.094107
279.5439904
280.0672572
280.6739273
281.3741023
282.177073
283.0899271
284.1154269
285.2491754
286.4763512
287.7692155
289.0875179
290.3834572
291.6102403
292.7306108
293.7217177
294.5752158
295.2940509
295.8882424
296.3713244
296.7580118
297.0629014
297.299786
297.481261
297.6184806
297.7210217
297.7968615
297.8524629
297.8929316
297.9222141
297.9433048
297.958442
297.9692802
297.9770334
297.982592
297.9866102
297.9895752
297.991796
297.9935175
297.9949475
297.9971878
292.1015738
291.9599616
291.5897758
290.8685112
289.4523667
286.4726836
280.5138727
276.6808171
276.1506978
276.2358117
276.3558044
276.4787903
276.6292142
276.7982663
276.997535
277.2283727
277.4986248
277.814242
278.1833653
278.6146437
279.1178315
279.7034589
280.3824573
281.1654709
282.0615641
283.0762828
284.2088477
285.448667
286.7719854
288.1406956
289.5056676
290.8149715
292.0239742
293.1027726
294.0382728
294.8314846
295.4925543
296.0359948
296.4773876
296.8316769
297.1125571
297.332373
297.5021491
297.631604
297.729134
297.8018172
297.8554704
297.8947566
297.9233301
297.943999
297.9588858
297.9695743
297.9772359
297.9827356
297.986714
297.9896488
297.9918537
297.9935621
297.994961
297.997216
291.6492357
291.4388361
290.967253
290.0724575
288.2928334
284.5411315
278.2594568
275.8477872
275.6672287
275.7658465
275.89196
276.0279888
276.1938894
276.3815458
276.6026889
276.8596275
277.1606714
277.5127788
277.9249298
278.4068558
278.9693231
279.6238019
280.3818148
281.2539207
282.2479054
283.3661812
284.6022786
285.9370123
287.3359368
288.7507229
290.126073
291.4104352
292.5658508
293.5727542
294.4288056
295.1438513
295.7339985
296.2169342
296.6092241
296.9253186
297.1775694
297.3766165
297.5317537
297.6511441
297.7418986
297.8100981
297.8608232
297.8982153
297.9255707
297.9454582
297.9598434
297.9702085
297.9776601
297.9830211
297.9869063
297.9897764
297.9919412
297.9936236
297.9949814
297.9972323
291.3762027
291.0975978
290.5227689
289.4416411
287.235083
282.4648931
276.7937278
275.4054399
275.4433725
275.5348372
275.6791908
275.8296117
276.012406
276.2205412
276.4658088
276.7516399
277.0868641
277.4795141
277.9394304
278.4773554
279.1048908
279.8340863
280.6764481
281.6414723
282.7342118
283.9519694
285.2802808
286.6894248
288.1338939
289.5573237
290.9027025
292.1239098
293.1934367
294.1036476
294.8626211
295.487614
295.9989942
296.4161509
296.755582
297.0305979
297.2518668
297.4281701
297.5670106
297.6749695
297.7578492
297.8207044
297.8678445
297.9028524
297.9286312
297.9474796
297.9611807
297.9710952
297.9782492
297.9834124
297.9871649
297.9899447
297.992052
297.9936997
297.9950126
297.9972591
291.2727465
290.9217763
290.2335995
288.9277306
286.1977086
280.4050874
275.9043163
275.1842496
275.4211027
275.5451964
275.701595
275.8686982
276.0708783
276.3025115
276.5753636
276.8940584
277.2679326
277.7060448
278.2190142
278.8184161
279.5164056
280.3251147
281.2552148
282.3138738
283.5016514
284.8085975
286.2102178
287.6653715
289.1189342
290.5105168
291.7866532
292.911117
293.869145
294.6650824
295.3160194
295.8447006
296.2739703
296.6235734
296.9090726
297.142166
297.3316368
297.4843631
297.6060831
297.7018401
297.7761636
297.8331003
297.8761911
297.9084515
297.9323776
297.9499817
297.9628494
297.9722065
297.9789877
297.9839011
297.9874858
297.990152
297.9921856
297.9937896
297.9950523
297.9972891
291.3377869
290.9098657
290.0934795
288.4921625
285.0363683
278.6813287
275.6738687
275.5079772
275.6421206
275.7718326
275.94408
276.1303587
276.3545742
276.6127347
276.9165075
277.2717383
277.6882705
278.1761372
278.7466612
279.4120372
280.1845763
281.0757704
282.0943265
283.2435031
284.5173999
285.8967731
287.345797
288.8125634
290.235646
291.5558154
292.7281957
293.7295511
294.5584779
295.2300597
295.7683312
296.1994582
296.5471225
296.8303183
297.063035
297.2550636
297.4132263
297.5425406
297.6470705
297.730416
297.7959115
297.8466492
297.8854331
297.9147264
297.9366216
297.9528424
297.9647714
297.9734933
297.9798456
297.9844695
297.9878587
297.9903925
297.9923395
297.9938923
297.9951005
297.9973248
291.5627877
291.0614647
290.09842
288.1303083
283.6836361
277.5591636
275.6581107
275.879969
276.0522843
276.1980362
276.3869654
276.5941612
276.8423625
277.1293994
277.4668382
277.8617679
278.3245538
278.8661061
279.4982735
280.2334709
281.0835067
282.0582215
283.162974
284.3953642
285.7410767
287.1699878
288.6348502
290.0754462
291.4288601
292.6424467
293.6838382
294.5441339
295.2343816
295.7782919
296.2045312
296.5407619
296.8101578
297.0301542
297.2127653
297.3657435
297.493979
297.6007366
297.6885389
297.7596684
297.8163668
297.8608469
297.8952259
297.9214451
297.9412097
297.9559619
297.966883
297.9749159
297.9807986
297.9851032
297.9882756
297.9906622
297.9925116
297.9940068
297.9951566
297.9973653
291.9138117
291.3331664
290.1898163
287.7820604
282.2490658
277.1520498
276.3649436
276.4575552
276.6310653
276.7931745
277.0007922
277.231279
277.5061181
277.8250721
278.1996182
278.6380382
279.151169
279.7505771
280.4483048
281.2564127
282.1853771
283.2422312
284.4274709
285.7312089
287.1289526
288.578977
290.0241669
291.4001928
292.6482031
293.7268185
294.6183945
295.32799
295.8770846
296.2955012
296.6143163
296.8610779
297.0574543
297.2188023
297.3549635
297.4716506
297.5719254
297.6574499
297.7293616
297.7887661
297.8369272
297.8752648
297.9052699
297.9284016
297.9460025
297.9592474
297.9691238
297.9764357
297.9818229
297.985788
297.9887283
297.9909565
297.9927
297.9941323
297.9952201
297.9974109
292.375883
291.7049127
290.3158821
287.2824626
280.9513039
277.0654778
277.0015117
277.167165
277.3535408
277.5345257
277.7628346
278.0190959
278.3233963
278.6774664
279.092698
279.5784228
280.1458124
280.8067675
281.5730886
282.4558057
283.463102
284.5978655
285.8540045
287.2122771
288.6368024
290.0749597
291.463188
292.738453
293.8512527
294.7746219
295.5059885
296.062619
296.4737944
296.7729356
296.9916198
297.1560613
297.285766
297.3937413
297.4876202
297.5711673
297.6457689
297.7116545
297.7687413
297.8171024
297.8571406
297.8895727
297.9153286
297.9354298
297.9508856
297.9626217
297.9714428
297.9780199
297.9828979
297.9865114
297.9892097
297.9912716
297.9929028
297.9942678
297.9952907
297.9974616
292.9368689
292.1652023
290.4717632
286.550346
280.0913993
277.8089545
277.8304621
277.999963
278.1998732
278.4019255
278.6533473
278.9381939
279.2750788
279.6676214
280.1271169
280.6637566
281.2888895
282.0143994
282.8513317
283.8088511
284.8916301
286.0967681
287.4096805
288.8002333
290.2211503
291.6115038
292.9062932
294.0494274
295.0047948
295.7610662
296.3294552
296.7368216
297.0174796
297.2062181
297.3336313
297.4237714
297.4936205
297.5537601
297.6096931
297.6633871
297.7147298
297.7626956
297.8061431
297.8442523
297.8766786
297.9035233
297.9252199
297.9423987
297.9557666
297.9660212
297.9737967
297.9796401
297.9840053
297.987262
297.989713
297.9916037
297.9931183
297.9944126
297.9953682
297.9975174
293.5853787
292.680112
290.6071526
285.6425342
279.9254611
278.574174
278.7624153
278.9383632
279.1551961
279.3806822
279.6576189
279.9736917
280.3460644
280.7801465
281.2871829
281.878045
282.5640514
283.3565723
284.2651261
285.2958473
286.4483296
287.7120111
289.0621055
290.457044
291.8399441
293.1459812
294.3144412
295.3009616
296.0849855
296.6701845
297.0791265
297.3453236
297.5055761
297.5942563
297.6399342
297.6640187
297.6808384
297.6986119
297.7208628
297.747945
297.7784319
297.8102149
297.841247
297.8699441
297.89532
297.9169426
297.9348114
297.9492098
297.9605744
297.9693952
297.976151
297.9812728
297.9851299
297.9880305
297.9902326
297.9919496
297.9933449
297.9945659
297.995452
297.9975782
294.3194299
293.2205357
290.6113041
284.7230747
279.965397
279.5433305
279.7878015
279.9713309
280.2071511
280.4578863
280.7625171
281.112336
281.5232204
282.0022092
282.5604642
283.2091762
283.9591652
284.8204961
285.8000806
286.8995782
288.1117428
289.4166043
290.7782671
292.1448114
293.4534479
294.6409804
295.6562794
296.4697896
297.0766688
297.4935244
297.7512853
297.887288
297.9387132
297.938223
297.9117258
297.8777816
297.848104
297.8287003
297.8213067
297.8248564
297.8367891
297.8540734
297.8738955
297.8940248
297.9129283
297.9297163
297.9440113
297.9557924
297.9652558
297.9727053
297.9784782
297.9828992
297.9862592
297.9888085
297.9907635
297.9923065
297.9935812
297.994727
297.9955413
297.9976442
295.1271108
293.7683252
290.4245412
284.0711702
280.8110507
280.6122159
280.8861516
281.0843597
281.3421173
281.6212444
281.9572214
282.3447301
282.7984586
283.3267243
283.9403908
284.6504392
285.4665684
286.3966073
287.4436044
288.6031275
289.8593636
291.1817898
292.5239008
293.8263851
295.02564
296.0656315
296.9086825
297.5410771
297.9721635
298.2285899
298.3466099
298.3649615
298.3196282
298.2407296
298.1512023
298.0667554
297.996635
297.9448394
297.9115239
297.8943916
297.8899157
297.8942878
297.9040507
297.9164306
297.9294329
297.9417773
297.9527612
297.9620986
297.9697732
297.975923
297.9807573
297.9845044
297.9873828
297.9895894
297.9913012
297.9926716
297.9938257
297.9948949
297.9956355
297.9977152
295.9972362
294.2667888
290.0769848
283.9910169
281.7582334
281.7783712
282.0602677
282.2776174
282.5605569
282.8715431
283.2426267
283.6715917
284.1719654
284.752964
285.4249124
286.1980167
287.0800972
288.0755725
289.1820741
290.3873623
291.6657672
292.9762768
294.2640446
295.4668765
296.5258481
297.3965442
298.0566383
298.5074111
298.7697707
298.8772671
298.8687703
298.7825411
298.652304
298.5051889
298.3610956
298.2330152
298.1279369
298.0480729
297.9922027
297.9569774
297.9380556
297.9309796
297.9317572
297.9371621
297.9448114
297.953094
297.9610285
297.9680985
297.9741015
297.979028
297.9829729
297.9860769
297.9884925
297.9903674
297.9918421
297.9930428
297.9940774
297.995069
297.9957345
297.9977912
296.9181375
294.7039149
289.6963468
284.0801035
282.8917295
283.0252647
283.3146988
283.556004
283.8664429
284.2117386
284.6206245
285.0937078
285.6434011
286.2794068
287.0111265
287.8471475
288.7922506
289.8459157
290.9987106
292.2293006
293.501964
294.7668874
295.9647318
297.0356269
297.930125
298.6181066
299.092522
299.3674436
299.4722304
299.4444027
299.3232695
299.145296
298.9413307
298.7353598
298.5443482
298.3787815
298.2436311
298.1395467
298.0641249
298.0131262
297.9815284
297.964336
297.957115
297.956264
297.9590764
297.9636616
297.9688001
297.9737765
297.9782254
297.9820071
297.985114
297.9876082
297.989582
297.991138
297.9923832
297.9934181
297.994335
297.9952483
297.9958362
297.9978724
297.8309234
295.067035
289.4508875
284.5798793
284.1429822
284.3479303
284.6489221
284.9175113
285.2578453
285.6400694
286.0896654
286.6097056
287.2113532
287.9041157
288.6957128
289.591933
290.5931365
291.6924258
292.8721605
294.1016016
295.3361744
296.5204227
297.5952428
298.5079759
299.2219543
299.7220698
300.0149069
300.1243975
300.0852876
299.9366178
299.7165469
299.4589273
299.1914599
298.9350382
298.7038959
298.5062643
298.3453402
298.2204224
298.1281002
298.0633857
298.0206918
297.9945811
297.980257
297.9738098
297.9722637
297.9734934
297.976077
297.9791273
297.9821373
297.9848522
297.9871734
297.9890921
297.9906463
297.9918975
297.9929216
297.9937956
297.9945974
297.995432
297.9959488
297.9979588
298.638495
295.3754369
289.4507913
285.8188545
285.5027878
285.7458979
286.0630202
286.3627314
286.7360776
287.1584634
287.6519475
288.2214873
288.876621
289.6257405
290.4739673
291.4231363
292.46804
293.5944325
294.7760568
295.9735239
297.1358703
298.2061266
299.1301817
299.8663302
300.392146
300.7065453
300.827135
300.7846235
300.6164731
300.3613865
300.0553312
299.72913
299.4073132
299.1078615
298.8425334
298.617567
298.4346166
298.2918231
298.1849233
298.1083048
298.055915
298.0219552
298.0013343
297.9898899
297.9844242
297.9826155
297.9828701
297.9841535
297.9858352
297.9875592
297.9891464
297.9905243
297.9916818
297.992643
297.9934553
297.9941738
297.9948638
297.9956201
297.9960717
297.9980505
299.3153626
295.6648768
289.8640348
286.9449362
286.9662774
287.2294911
287.5655398
287.89944
288.3081527
288.7726741
289.3113877
289.9304063
290.6372425
291.4382825
292.3352424
293.3250403
294.396011
295.5260078
296.680484
297.8132285
298.8703936
299.7979744
300.5508445
301.1003591
301.4380406
301.5746617
301.5358737
301.356345
301.0741489
300.7263727
300.3462051
299.9613179
299.5932092
299.2571971
298.9628392
298.7146324
298.5129014
298.3548001
298.2353476
298.1484126
298.0875608
298.0467012
298.0205044
298.0046032
297.9956174
297.9910616
297.989197
297.9888627
297.989321
297.9901273
297.9910307
297.991902
297.9926858
297.9933721
297.9939823
297.9945513
297.9951331
297.9958123
297.9962027
297.9981473
299.9249155
295.9524338
290.5043825
288.3380034
288.5260786
288.8029809
289.161808
289.5309825
289.9753186
290.4814642
291.0640066
291.7294394
292.4828976
293.3279166
294.2619841
295.2761553
296.3515774
297.4582003
298.5545078
299.5904184
300.5133258
301.276262
301.8456971
302.206426
302.3622814
302.3331395
302.1498275
301.8486634
301.4668191
301.0389895
300.5953404
300.1604694
299.7530738
299.3860893
299.0671415
298.7992189
298.5815056
298.4103174
298.2800707
298.1842048
298.115975
298.0690548
298.0379242
298.0180512
298.0059068
297.9988699
297.9950794
297.9932662
297.9925998
297.9925577
297.9928257
297.9932236
297.9936563
297.9940829
297.994501
297.9949268
297.9954045
297.9960086
297.9963402
297.9982488
300.5588557
296.3019821
291.1931965
289.8611935
290.1681991
290.460655
290.8433884
291.247832
291.7270888
292.2731654
292.8969081
293.6042815
294.3975571
295.2764379
296.2331936
297.2521956
298.3072092
299.3612898
300.3684641
301.2785313
302.0441269
302.6282673
303.0099903
303.1864587
303.1713905
302.9909469
302.6786757
302.2708163
301.8026622
301.3061282
300.8083522
300.3310542
299.8904066
299.4972436
299.1575102
298.8728941
298.6416038
298.4592444
298.3197274
298.216138
298.1414797
298.0892391
298.0537448
298.0303339
298.0153568
298.0060805
298.0005412
297.9973775
297.9956783
297.9948532
297.9945317
297.9944883
297.994592
297.994774
297.99501
297.9952992
297.9956771
297.9962086
297.9964844
297.9983542
301.2012765
296.7915383
292.4129404
291.4981237
291.8766683
292.1890094
292.5967288
293.036554
293.550388
294.1347487
294.7967674
295.5407114
296.365252
297.2651821
298.2267699
299.2275068
300.234613
301.2064226
302.0958548
302.8563804
303.4489749
303.8480768
304.0447718
304.0465674
303.8743967
303.5581816
303.1322815
302.6316819
302.0892524
301.5340208
300.990242
300.4770182
300.008283
299.5930352
299.2357646
298.9370407
298.6942375
298.5023573
298.354889
298.2446264
298.1643708
298.1074613
298.0681088
298.0415472
298.0240304
298.0127337
298.0056072
298.0012111
297.9985646
297.9970177
297.9961501
297.9956961
297.9954921
297.9954442
297.9955081
297.9956674
297.9959502
297.9964121
297.996633
297.9984636
301.9106775
297.4381845
293.8069095
293.2228016
293.6436312
293.9810153
294.4150101
294.8905155
295.438597
296.0587991
296.7544483
297.5269012
298.3704651
299.2743798
300.2187906
301.1750636
302.1057213
302.9672936
303.7150494
304.3092073
304.7208397
304.9357822
304.9555861
304.7956683
304.4816671
304.0452251
303.5201563
302.9394819
302.3334218
301.7281933
301.1453985
300.6018038
300.1093798
299.6755316
299.3034926
298.9928697
298.7403232
298.5403434
298.3860649
298.2700426
298.1849166
298.1239116
298.0811485
298.0517814
298.0319879
298.0188687
298.0103023
298.0047822
298.0012673
297.9990556
297.9976828
297.9968472
297.996356
297.9960926
297.9959943
297.9960305
297.9962233
297.9966181
297.9967802
297.9985778
302.7225293
298.5194759
295.3034111
295.0306653
295.4727622
295.8410509
296.301506
296.8108942
297.3902131
298.0403244
298.7606481
299.5487725
300.3942446
301.280708
302.1827951
303.0672683
303.8944005
304.621971
305.2105212
305.6289541
305.8588283
305.8962403
305.7510738
305.4442425
305.0039804
304.4621418
303.8511227
303.2016247
302.5412102
301.8934723
301.2776278
300.7083864
300.1960092
299.7465213
299.362071
299.041436
298.7806634
298.5738077
298.4137065
298.2927191
298.2033585
298.1387627
298.0929851
298.0611202
298.0392858
298.0245228
298.0146505
298.0081055
298.0037953
298.0009718
297.9991321
297.9979423
297.9971836
297.9967185
297.9964676
297.9963874
297.9964955
297.9968244
297.9969279
297.9986983
303.6120132
299.6504731
296.9630875
296.9240741
297.3740186
297.7738712
298.2575799
298.7948367
299.3979385
300.0674934
300.7989434
301.5856226
302.4122649
303.2573691
304.0912378
304.8780609
305.5785064
306.1543094
306.5732898
306.8137496
306.8670194
306.7376694
306.4416744
306.0033348
305.4518607
304.8182979
304.1331356
303.4246511
302.7178782
302.034027
301.3902032
300.7993207
300.2701577
299.8075443
299.4126899
299.0836547
298.8159577
298.6032808
298.4382119
298.3129512
298.2199127
298.1521702
298.1037292
298.0696405
298.0459768
298.0297315
298.0186748
298.0111959
298.0061572
298.0027712
298.0005005
297.9989824
297.9979748
297.9973213
297.9969272
297.9967375
297.9967662
297.997029
297.9970716
297.9988248
304.6020832
300.7594758
298.7573324
298.89093
299.3419907
299.768952
300.2704126
300.8269797
301.4436086
302.1194265
302.8458239
303.6116915
304.3972865
305.1769412
305.9183226
306.5853558
307.1415695
307.5546511
307.8006469
307.8669203
307.7531494
307.4703687
307.0386012
306.4838542
305.8351722
305.1221739
304.3732324
303.6142598
302.8679648
302.1534351
301.485927
300.8767939
300.3335286
299.8599248
299.4563759
299.1203191
298.8468154
298.6292271
298.4599318
298.3310007
298.2347718
298.164274
298.1134807
298.0774127
298.0521094
298.0345273
298.022397
298.014067
298.0083618
298.0044589
298.0017905
297.9999686
297.9987297
297.9979007
297.9973723
297.9970801
297.9970345
297.9972297
297.9972213
297.9989544
305.7230876
301.9692048
300.6570262
300.9088381
301.3593548
301.8070537
302.3197178
302.8859205
303.5042904
304.1715773
304.8752481
305.5999999
306.3224384
307.0141975
307.6423014
308.1726292
308.5734821
308.8195899
308.8951985
308.7956616
308.527267
308.1055986
307.5530441
306.8960882
306.1628748
305.3812798
304.5775401
303.7753576
302.995353
302.254747
301.5671864
300.9426713
300.3875781
299.9047986
299.4940136
299.1521155
298.8737662
298.6520524
298.4791743
298.3470985
298.248107
298.1751992
298.1223296
298.0845004
298.057728
298.0389409
298.0258372
298.0167322
298.0104174
298.0060397
298.0030049
298.0009019
297.9994486
297.9984561
297.9978023
297.9974144
297.9972993
297.9974257
297.9973792
297.9990839
306.9486844
303.4635636
302.6345721
302.9615647
303.4088129
303.8694433
304.3850067
304.9494382
305.5559967
306.1985155
306.8609198
307.5244066
308.163151
308.7478066
309.2466922
309.6294118
309.8701786
309.9509714
309.8634837
309.609609
309.2005073
308.6546781
307.9955969
307.2493962
306.4429022
305.6021444
304.7513211
303.9121282
303.1033403
302.3405502
301.6360082
300.9985396
300.4335492
299.943139
299.5263639
299.1796371
298.8972704
298.672111
298.4962096
298.3614488
298.2600704
298.1850576
298.1303568
298.0909614
298.0628732
298.043
298.0290145
298.0192039
298.0123317
298.0075185
298.0041462
298.0017837
298.0001318
297.9989874
297.9982166
297.99774
297.9975595
297.9976162
297.9975456
297.9992084
308.2458755
305.1102028
304.6604855
305.0328604
305.4720948
305.9361834
306.4445852
306.9942805
307.5741253
308.1749512
308.7777987
309.3614072
309.8989547
310.3617924
310.7211097
310.9513544
311.0330115
310.9548273
310.7147758
310.3197624
309.7842826
309.1284711
308.3759948
307.5521274
306.6821894
305.7903974
304.8990741
304.0281303
303.1947264
302.4130419
301.6941164
301.045753
300.4725062
299.9757829
299.5540844
299.2033988
298.917729
298.6897134
298.5112755
298.3742317
298.2707971
298.193949
298.1376353
298.0968481
298.067582
298.0467303
298.0319462
298.0214937
298.0141123
298.0088997
298.0052172
298.0026153
298.0007797
297.9994943
297.9986147
297.9980562
297.9978142
297.9978008
297.9977188
297.9993319
309.6118697
306.8680175
306.708432
307.1024564
307.5291782
307.9857307
308.4755552
308.9966542
309.5344269
310.0770761
310.6036724
311.0917096
311.514764
311.8462602
312.061294
312.1396069
312.0676896
311.8401539
311.4599525
310.9376023
310.2896922
309.5370608
308.7029876
307.8116198
306.8867388
305.9508627
305.0246309
304.1263866
303.2718877
302.4740896
301.7429799
301.0854689
300.5053627
300.0034519
299.5777443
299.2238484
298.9354924
298.7051317
298.5245818
298.3856072
298.2804073
298.2019628
298.1442305
298.1022079
298.071888
298.0501556
298.0346486
298.0236125
298.0157663
298.010188
298.0062203
298.0033979
298.0013927
297.9999768
297.9989963
297.9983626
297.9980619
297.9979792
297.9978985
297.9994523
311.0389916
308.7037624
308.7541371
309.1506469
309.558158
309.9951064
310.4539823
310.9325732
311.4136858
311.8835081
312.3201282
312.7009474
313.0010871
313.1969855
313.2681277
313.1994507
312.9827829
312.6175272
312.110377
311.4742941
310.7270281
309.8894926
308.9842435
308.0342018
307.0616715
306.0876292
305.1312281
304.2094479
303.3368319
302.5252746
301.7838471
301.1186754
300.5329021
300.0267676
299.5978361
299.2413752
298.9508667
298.7186048
298.5363132
298.3957165
298.289008
298.209179
298.1502014
298.1070834
298.0758219
298.0532973
298.0371367
298.0255704
298.0173005
298.0113874
298.0071581
298.0041329
298.0019713
298.0004348
297.999361
297.9986585
297.9983016
297.9981517
297.9980841
297.9995681
312.5072386
310.5831126
310.7836705
311.15212
311.5330734
311.9389966
312.3552706
312.7789421
313.1910785
313.576553
313.9134175
314.1799649
314.3536825
314.4145177
314.346364
314.1388842
313.7883849
313.2979975
312.6770934
311.9401764
311.1055032
310.1936721
309.226354
308.2252522
307.2113104
306.2041357
305.2215857
304.2794602
303.3912528
302.5679367
301.8177807
301.1462177
300.5557983
300.0462674
299.6147882
299.2563191
298.9641205
298.7303432
298.5466332
298.4046855
298.2966948
298.2156693
298.155601
298.1115137
298.0794118
298.0561754
298.0394244
298.027377
298.018721
298.0125021
298.008033
298.0048216
298.0025161
298.0008683
297.9997086
297.9989435
297.998532
297.9983185
297.9982747
297.9996764
313.9724297
312.4668503
312.7399787
313.0831105
313.4297008
313.7946838
314.1585026
314.5172339
314.851083
315.1443403
315.3758423
315.525504
315.573641
315.5038122
315.3040064
314.9679491
314.4955404
313.8927021
313.1706385
312.3447417
311.4333478
310.4565254
309.4350164
308.3893798
307.3393402
306.3033072
305.2980175
304.338253
303.4365994
302.6032269
301.8456982
301.1688295
300.5746391
300.0624226
299.6289776
299.2689809
298.9754921
298.7405347
298.5556883
298.4126273
298.303554
298.2214988
298.1604781
298.1155344
298.0826836
298.0588086
298.0415247
298.0290413
298.0200341
298.013536
298.0088476
298.0054654
298.0030278
298.0012774
298.0000391
297.9992169
297.998752
297.9984805
297.9984687
297.9997739
315.4341722
314.3205143
314.6123557
314.9222358
315.2277729
315.5435197
315.8471045
316.1336059
316.3831585
316.5801104
316.7046705
316.738797
316.6657605
316.4725399
316.1507198
315.6973742
315.1151932
314.4121238
313.6005734
312.6963771
311.7176951
310.6839744
309.6150577
308.5304673
307.4488573
306.387601
305.3624704
304.3873707
303.4741002
302.6321261
301.8683863
301.1871437
300.5899346
300.0756443
299.6407353
299.279626
298.985193
298.7493464
298.5636096
298.4196434
298.3096638
298.2267268
298.1648768
298.1191784
298.0856613
298.061214
298.04345
298.0305719
298.0212455
298.0144931
298.0096042
298.0060658
298.0035069
298.0016623
298.0003524
297.9994781
297.9989608
297.9986385
297.9986619
297.9998586
316.8755921
316.1044417
316.3799591
316.6516574
316.9104786
317.1706899
317.408737
317.618781
317.7814762
317.8816839
317.901312
317.8245045
317.6373668
317.3299356
316.8968284
316.3378003
315.657659
314.8657907
313.9753615
313.002367
311.9646591
310.8810517
309.7705606
308.6517935
307.5424789
306.4591005
305.4166032
304.4281368
303.504815
302.6554869
301.8865329
301.2017173
300.6021363
300.0862985
299.6503569
299.288492
298.9934135
298.7569293
298.5705157
298.4258264
298.3150952
298.2314076
298.1688383
298.1224761
298.0883673
298.0634079
298.0452119
298.0319769
298.022361
298.0153771
298.0103054
298.0066241
298.0039543
298.0020235
298.0006486
297.9997263
297.999158
297.998793
297.9988489
297.9999336
318.2806489
317.7869215
318.0266686
318.2562819
318.464871
318.665989
318.8361313
318.9686894
319.0452452
319.0514495
318.9710225
318.7902403
318.4977832
318.086322
317.552969
316.8995899
316.132583
315.2623475
314.302513
313.2690716
312.179518
311.0520696
309.9050086
308.7561521
307.6224365
306.5195868
305.4618399
304.4616936
303.5296641
302.6740536
301.9007429
301.2130427
300.6116457
300.0947119
299.6581077
299.2957934
299.0003254
298.7634203
298.5765147
298.4312606
298.3199137
298.2355911
298.1724001
298.1254559
298.0908225
298.0654057
298.0468215
298.0332643
298.0233861
298.0161917
298.0109537
298.0071421
298.0043708
298.0023612
298.0009277
297.999961
297.9993433
297.9989443
297.9990266
298.0000088
319.6310072
319.3445471
319.5400967
319.7253255
319.8825235
320.0237651
320.1265124
320.1835062
320.1774552
320.0949142
319.9213809
319.6451043
319.2570269
318.7520392
318.1292783
317.3922619
316.5485845
315.6093632
314.5885061
313.5019214
312.3667495
311.2006751
310.0213473
308.8459102
307.690629
306.5705845
305.4994078
304.4890331
303.5494532
302.6884837
301.9115542
301.2215612
300.6188245
300.1011805
299.664229
299.3017257
299.0060861
298.7689451
298.5817062
298.4360243
298.3241797
298.2393239
298.1755978
298.1281443
298.0930468
298.0672219
298.0482892
298.0344417
298.0243261
298.0169408
298.0115514
298.0076211
298.0047573
298.0026761
298.0011898
298.0001815
297.9995171
297.999092
297.9991957
298.0000749
320.9104498
320.7608697
320.9115438
321.0521712
321.1593504
321.2427619
321.2812718
321.2670749
321.1840899
321.0198114
320.7614121
320.3989136
319.9252061
319.337029
318.6351558
317.824404
316.9132805
315.913425
314.8389189
313.70556
312.530169
311.3299735
310.1220889
308.9230945
307.7486914
306.6134151
305.5303794
304.5110298
303.5648986
302.6993662
301.9194526
301.2276735
300.6240032
300.1059762
299.6689432
299.3064699
299.0108422
298.7736211
298.5861833
298.4401907
298.3279507
298.2426502
298.1784652
298.130567
298.0950593
298.0688708
298.0496256
298.0355165
298.0251863
298.0176281
298.0121012
298.008063
298.0051149
298.0029689
298.001435
298.0003877
297.9996797
297.9992352
297.9993496
298.0001344
322.1051676
322.0256492
322.1375416
322.2360491
322.2967459
322.3264589
322.3056997
322.2262682
322.0733275
321.8352965
321.5008699
321.0616233
320.5120998
319.8505705
319.079137
318.2036526
317.2333391
316.1802363
315.0585466
313.8839645
312.6730418
311.4426277
310.2093969
308.9894612
307.7980511
306.6492429
305.5557081
304.5284683
303.5766486
302.7072386
301.9248847
301.2317508
300.6274893
300.1093528
299.672459
299.3101963
299.0147312
298.777559
298.5900344
298.4438295
298.3312811
298.2456123
298.1810347
298.1327486
298.0968787
298.0703661
298.050841
298.0364963
298.0259723
298.0182574
298.0126059
298.0084695
298.0054447
298.0032402
298.0016636
298.0005794
297.9998313
297.9993719
297.9994906
298.0001921
323.2058443
323.143175
323.2224466
323.2822333
323.300663
323.2817159
323.2075785
323.0697137
322.8544509
322.5510503
322.1495353
321.6428155
321.0268224
320.3010968
319.4688279
318.5367124
317.5145534
316.4147177
315.2515114
314.0405518
312.7981788
311.5409397
310.2851533
309.0465499
307.8399711
306.6791079
305.5762543
304.5420634
303.5852995
302.7125994
301.9282672
301.2341409
300.6295725
300.1115502
299.6749737
299.3130663
299.0178844
298.7808643
298.5933436
298.4470075
298.3342232
298.2482509
298.1833377
298.134713
298.0985229
298.0717215
298.0519453
298.0373885
298.0266894
298.0188327
298.013068
298.0088424
298.005748
298.0034909
298.0018758
298.0007564
297.9999718
297.999501
297.9996213
298.0002446
324.1742616
324.1241182
324.1738985
324.1988213
324.1796406
324.1175976
323.9964366