/*--------------------------------*- C++ -*----------------------------------*\
  =========                 |
  \\      /  F ield         | OpenFOAM: The Open Source CFD Toolbox
   \\    /   O peration     | Website:  https://openfoam.org
    \\  /    A nd           | Version:  12
     \\/     M anipulation  |
\*---------------------------------------------------------------------------*/
FoamFile
{
    format      ascii;
    class       volVectorField;
    location    "1550";
    object      U;
}
// * * * * * * * * * * * * * * * * * * * * * * * * * * * * * * * * * * * * * //

dimensions      [0 1 -1 0 0 0 0];

internalField   nonuniform List<vector> 
16200
(
(184.1043421 -7.279971494e-17 -1.49905347)
(219.6131848 3.511263636e-17 -1.427764035)
(239.6138831 -2.436620064e-20 -1.603763882)
(255.3797793 0 -1.778170015)
(270.011999 0 -1.969603015)
(285.2016794 -2.52431273e-17 -2.201001186)
(301.0566451 2.8875934e-17 -2.523586994)
(313.666747 6.225028974e-17 -2.904836543)
(317.3744968 -1.210812126e-16 -3.030769299)
(317.3645502 1.083525126e-16 -3.004706962)
(317.0510373 -4.609962777e-17 -3.057989681)
(316.7536829 0 -3.032911056)
(316.3867202 0 -3.091618578)
(315.9826265 -5.355101281e-17 -3.089566172)
(315.5068089 4.469107478e-17 -3.143318435)
(314.9616399 0 -3.169648345)
(314.3253825 0 -3.227842407)
(313.5866682 8.175978409e-19 -3.282497321)
(312.7251747 4.43251705e-17 -3.358290558)
(311.7213975 -3.599171071e-17 -3.444192993)
(310.5515242 0 -3.549632545)
(309.1896863 -2.485561951e-17 -3.672725853)
(307.6071553 2.224085311e-17 -3.81669703)
(305.7732423 3.785446154e-17 -3.98070906)
(303.6563578 -3.179976861e-17 -4.163030573)
(301.2261607 -2.719876269e-17 -4.35782349)
(298.4571775 2.286834932e-17 -4.554312828)
(295.3343053 0 -4.734883212)
(291.8605299 0 -4.874295803)
(288.0663878 5.723231276e-17 -4.940515376)
(284.018872 -3.607014683e-17 -4.899034845)
(279.8246353 -1.038456904e-17 -4.72173741)
(275.6218775 0 -4.39816942)
(271.56027 -4.584364816e-17 -3.943358058)
(267.7758446 5.146523202e-17 -3.396690341)
(264.3709077 -8.870826258e-17 -2.81164246)
(261.4050751 7.479070383e-17 -2.241543482)
(258.8969372 0 -1.727795025)
(256.8320364 0 -1.294276426)
(255.172919 0 -0.9479659594)
(253.8687386 7.748886056e-17 -0.6834270259)
(252.8633211 -1.30963818e-16 -0.4883544277)
(252.1012531 1.102020645e-16 -0.3482291555)
(251.5319033 0 -0.2493251431)
(251.1115899 1.567559156e-16 -0.1801601193)
(250.804296 -1.318952086e-16 -0.1318784512)
(250.5813355 -5.012468572e-20 -0.09800164746)
(250.4205037 1.87106908e-16 -0.07397428768)
(250.3049848 -3.1530865e-16 -0.05667314385)
(250.2222626 2.655756128e-16 -0.04398874254)
(250.1631409 2.238922439e-16 -0.0345054448)
(250.1209175 3.777403895e-16 -0.02727270129)
(250.0907393 -3.188293749e-16 -0.021646146)
(250.0690634 8.082207661e-16 -0.01718822896)
(250.0533504 -4.557863744e-16 -0.01360004165)
(250.0416378 0 -0.01068267043)
(250.0328141 1.638506704e-16 -0.008226568895)
(250.0257136 0 -0.006173957049)
(250.0198142 -4.753434796e-16 -0.003792006365)
(250.0132166 -3.971169978e-19 -0.003990115448)
(188.4925577 -1.536380747e-16 -4.165972719)
(225.1970687 1.502169366e-16 -4.430817336)
(245.8098728 -5.434852844e-17 -4.929948664)
(262.041707 -4.881345487e-17 -5.32379492)
(277.1796175 5.04719079e-17 -5.720329378)
(292.9374487 0 -6.168945635)
(308.808707 0 -6.735914284)
(318.9769857 6.694858441e-17 -7.166516111)
(320.9091341 -6.248196962e-17 -7.249518624)
(320.7607791 0 -7.211225432)
(320.4281232 0 -7.277070371)
(320.1089748 0 -7.241958176)
(319.7152764 -6.623833284e-17 -7.305256224)
(319.2800263 5.526327719e-17 -7.296750827)
(318.7653808 -1.415927341e-18 -7.349115416)
(318.1734683 -1.186458853e-18 -7.369468236)
(317.4803441 0 -7.421338993)
(316.6728679 -2.517784965e-18 -7.466811631)
(315.7283455 0 -7.530578222)
(314.6245742 1.171623024e-18 -7.600908988)
(313.3347241 3.99231903e-18 -7.686142912)
(311.8295352 -2.885138969e-17 -7.783490264)
(310.0767153 -1.741393678e-17 -7.894461068)
(308.0420191 3.854577383e-17 -8.016174698)
(305.690835 0 -8.143761285)
(302.9911943 6.946336173e-18 -8.267115199)
(299.9187725 -1.182078411e-17 -8.369696756)
(296.4643169 0 -8.426719631)
(292.6436741 -3.46339413e-17 -8.404787229)
(288.508876 1.445403427e-17 -8.264229117)
(284.1555308 -3.774262663e-17 -7.96646605)
(279.7193579 1.075278987e-17 -7.486522086)
(275.3581659 -3.686096536e-17 -6.825973079)
(271.224482 -1.571821675e-17 -6.018641577)
(267.4404415 0 -5.124565086)
(264.084292 4.595109357e-17 -4.214886569)
(261.1900561 -3.873408253e-17 -3.354970775)
(258.7556854 0 -2.592355108)
(256.75383 1.121021003e-16 -1.952244954)
(255.1415518 -9.484332188e-17 -1.439557652)
(253.8678883 8.014923938e-17 -1.044673522)
(252.8794925 2.705975007e-16 -0.7500017452)
(252.1247567 -1.138621224e-16 -0.5354354951)
(251.5566122 0 -0.3819411973)
(251.1341531 4.852644383e-16 -0.2733681262)
(250.8232559 -5.443609861e-16 -0.1969926623)
(250.5963871 -3.435479776e-16 -0.1432807014)
(250.4319496 3.85409991e-16 -0.105347411)
(250.3133864 0 -0.0783456304)
(250.2282375 -2.727913351e-16 -0.05891677745)
(250.16726 2.29532977e-16 -0.04475468408)
(250.1236662 5.796241915e-16 -0.03428063379)
(250.0925048 3.253722187e-16 -0.0264110954)
(250.0701551 -2.740686618e-16 -0.02040028304)
(250.0539807 9.239806562e-16 -0.01573967168)
(250.0419927 -7.793026041e-16 -0.0120798991)
(250.0329465 -4.933753122e-16 -0.0091194038)
(250.0257426 5.558573058e-16 -0.006750575222)
(250.0197857 1.058118636e-15 -0.004078985212)
(250.0127044 9.80395512e-17 -0.004122315859)
(192.7800602 -1.586791601e-19 -6.939732767)
(230.6494193 1.613349901e-16 -7.707317085)
(251.8513729 -2.360853573e-16 -8.517660674)
(268.5587817 1.075451639e-16 -9.157846791)
(284.2252132 1.130753546e-16 -9.790944739)
(300.4229696 -2.557952911e-16 -10.49173192)
(315.7946956 2.833943983e-16 -11.30674978)
(323.0861614 3.679434425e-19 -11.69961292)
(323.7846602 -2.632324975e-16 -11.76353757)
(323.5349359 1.144683687e-16 -11.7081911)
(323.1832276 0 -11.78255842)
(322.837556 7.842874918e-17 -11.73303524)
(322.4084208 -6.537084922e-17 -11.79638931)
(321.9321906 -2.601893072e-18 -11.77811026)
(321.3677067 4.80386757e-17 -11.82438372)
(320.7165546 3.753408527e-18 -11.83555735)
(319.9525269 -3.268460393e-17 -11.87752961)
(319.0604075 1.727459382e-18 -11.91153087)
(318.0149221 -4.637672313e-17 -11.96140618)
(316.7908323 3.643462873e-17 -12.0152282)
(315.3579394 -2.845275059e-20 -12.07966975)
(313.6832121 -2.092830496e-17 -12.15066196)
(311.7304892 1.749140905e-17 -12.22711915)
(309.4619423 0 -12.30296159)
(306.8405266 -4.232985445e-17 -12.36857207)
(303.8343436 6.982175816e-18 -12.40755174)
(300.4236316 3.678038058e-17 -12.39524213)
(296.6107557 2.125939556e-17 -12.29728344)
(292.432623 1.836465905e-17 -12.07054006)
(287.9717326 -1.481383753e-17 -11.66865768)
(283.358242 1.981820349e-19 -11.05409063)
(278.7560306 -4.472213962e-17 -10.21383224)
(274.3342991 3.810025519e-17 -9.170889034)
(270.2364248 -9.815216867e-17 -7.983947008)
(266.5595461 2.763862247e-17 -6.734465386)
(263.350491 0 -5.50753042)
(260.6143089 -8.065662726e-17 -4.374670937)
(258.3276613 -6.852623608e-17 -3.383801932)
(256.4509635 -1.594355636e-20 -2.557143999)
(254.9368596 4.90596242e-17 -1.895067064)
(253.7353995 -8.256973163e-17 -1.382855622)
(252.7972124 -6.971769895e-17 -0.9977767309)
(252.0756805 2.351046935e-16 -0.7148132633)
(251.5285003 2.971399662e-16 -0.5104476555)
(251.1187082 -1.665541929e-16 -0.3646098466)
(250.8151353 2.803122119e-16 -0.2612889953)
(250.5923103 5.890831108e-16 -0.1883031798)
(250.4299915 -3.961157697e-16 -0.1367023461)
(250.3124688 6.657178918e-16 -0.1000747274)
(250.227787 -2.796775997e-16 -0.07390283915)
(250.1669913 -4.698989868e-16 -0.05503732949)
(250.1234523 1.973302462e-16 -0.04129418891)
(250.092299 -6.630522029e-16 -0.03115979491)
(250.0699544 0 -0.02358362716)
(250.0537902 -1.871152589e-15 -0.0178450839)
(250.0418375 7.858368441e-16 -0.01344404543)
(250.0328069 3.300421224e-16 -0.009982903412)
(250.0256471 -1.386141359e-16 -0.007296718389)
(250.019807 -9.315522515e-16 -0.004299597651)
(250.0127287 0 -0.004251169466)
(196.7066606 -3.430659304e-16 -9.843711096)
(235.5842253 -1.692252764e-19 -11.22267964)
(257.3023648 0 -12.33635916)
(274.5016855 1.161825537e-19 -13.24389287)
(290.755193 -1.271730901e-16 -14.13782581)
(307.2414877 1.434524789e-16 -15.11321097)
(321.1227217 -3.013394634e-19 -16.09299326)
(325.7465134 -5.972116159e-19 -16.36593432)
(325.8202151 1.061026108e-18 -16.42817243)
(325.5413927 1.153955527e-16 -16.35386448)
(325.1671619 -9.720061082e-17 -16.4396427)
(324.7904015 1.273163567e-18 -16.37887955)
(324.3213066 -6.785601393e-17 -16.44451213)
(323.7983733 5.844818e-17 -16.42067517)
(323.1771479 4.758641562e-17 -16.46406377)
(322.4582502 -4.231227498e-17 -16.47023783)
(321.6130919 -4.176155192e-18 -16.50569766)
(320.6240304 0 -16.53143224)
(319.4629791 0 -16.56950963)
(318.1013682 0 -16.60769116)
(316.5054042 -3.805397944e-17 -16.65043954)
(314.6381966 1.412701403e-17 -16.69191591)
(312.4599661 3.628804549e-17 -16.72765155)
(309.930209 -2.034611469e-17 -16.74719687)
(307.0114389 2.608431056e-17 -16.73460612)
(303.675433 1.478406039e-17 -16.66528529)
(299.9127516 -2.538155577e-17 -16.50455479)
(295.7454307 2.135202158e-17 -16.20730505)
(291.240466 -1.838347006e-17 -15.72171992)
(286.517188 -3.083996466e-19 -14.99969802)
(281.7394823 2.676932239e-17 -14.01344576)
(277.0897284 4.614144029e-17 -12.77147315)
(272.7333938 0 -11.32448038)
(268.7902215 6.743371926e-17 -9.75672944)
(265.3230719 0 -8.167031487)
(262.3442191 0 -6.648100125)
(259.8310119 2.081704694e-16 -5.271487222)
(257.7420793 3.516492996e-17 -4.080864987)
(256.0290459 2.391541675e-16 -3.092686597)
(254.6429285 5.056603874e-17 -2.301562837)
(253.5367879 5.542867581e-16 -1.687574369)
(252.6666283 -2.156406631e-16 -1.223382919)
(251.9918594 -1.211415599e-16 -0.8798775788)
(251.475784 -9.171365697e-16 -0.6299061665)
(251.0860981 -1.758453402e-19 -0.4502252077)
(250.7952044 7.201245262e-16 -0.3221264986)
(250.5802111 6.050566305e-16 -0.2312121827)
(250.4226488 -1.117647764e-15 -0.1667664073)
(250.3079784 -5.117161264e-16 -0.1210109885)
(250.2249936 2.862431513e-16 -0.08839635648)
(250.1652056 -1.200299273e-15 -0.06500884073)
(250.1222695 0 -0.04810721961)
(250.0914848 1.349437434e-15 -0.03577651196)
(250.0693777 1.130397181e-15 -0.02667885458)
(250.0533739 9.464180575e-16 -0.01989083811)
(250.0415451 0 -0.01476771965)
(250.0325877 6.621704238e-16 -0.0108171981)
(250.0254914 6.915502138e-17 -0.007831411464)
(250.0197575 -2.078035956e-15 -0.00452983862)
(250.0125903 3.174851203e-15 -0.004381011841)
(200.1841506 -7.265582875e-16 -12.92312502)
(239.9591021 3.728153996e-16 -14.9337234)
(262.1384596 -1.406666698e-16 -16.36904221)
(279.8044355 -6.333657982e-22 -17.56521601)
(296.6499498 0 -18.74433818)
(313.2931113 3.140664179e-19 -20.01493982)
(324.5628662 3.075398856e-21 -21.01976007)
(327.1892721 0 -21.16119694)
(327.019253 -2.19892759e-18 -21.24123299)
(326.7142754 -1.180310553e-16 -21.15034162)
(326.3197938 9.914076584e-17 -21.24840322)
(325.9055591 0 -21.17813768)
(325.3892331 -7.149432523e-17 -21.24508163)
(324.811133 -1.945675909e-18 -21.21619257)
(324.1236863 4.551782926e-17 -21.25506775)
(323.3260922 -8.175486384e-17 -21.25497075)
(322.38731 7.275489667e-17 -21.28131454)
(321.2868639 3.606097745e-18 -21.29593896)
(319.9935742 0 -21.31857274)
(318.4752198 4.113368219e-17 -21.33675423)
(316.6942912 -4.317436198e-17 -21.35212819)
(314.610271 3.675267932e-17 -21.35617721)
(312.1806325 -3.71160901e-17 -21.33963771)
(309.3640777 0 -21.28585395)
(306.1260343 -1.790300936e-17 -21.17047481)
(302.4472967 0 -20.95864917)
(298.3363405 2.627109892e-17 -20.60424551)
(293.8439162 -2.210201805e-17 -20.05187808)
(289.0746314 0 -19.24521265)
(284.1859798 0 -18.1428879)
(279.3676349 0 -16.73740441)
(274.8051426 0 -15.06698205)
(270.6435917 0 -13.21250485)
(266.9670831 1.053699508e-16 -11.28050924)
(263.7992344 -1.491340534e-16 -9.380541776)
(261.1186624 1.015068156e-16 -7.605891302)
(258.8790296 -1.716199831e-16 -6.022465071)
(257.0256009 -1.822030921e-16 -4.665985385)
(255.5051207 -9.201083478e-17 -3.54520269)
(254.269693 -1.558055791e-16 -2.648344501)
(253.277053 -5.697895254e-16 -1.950511487)
(252.4895445 -2.95547821e-16 -1.420454618)
(251.8732033 4.356660217e-16 -1.025854924)
(251.3973861 8.372818008e-16 -0.7368139426)
(251.034847 -7.038028287e-16 -0.5276974679)
(250.7619389 -7.388857254e-16 -0.3777318395)
(250.5587008 -8.683358541e-16 -0.2707801155)
(250.4087469 1.040688833e-15 -0.1947033616)
(250.2989714 1.221652711e-15 -0.1405932965)
(250.2191273 -1.462496449e-16 -0.1020263331)
(250.1613558 1.347162136e-15 -0.07442768524)
(250.1197198 -1.844908323e-15 -0.0545651475)
(250.08978 -2.914290575e-15 -0.04016434294)
(250.0682309 -1.002677125e-15 -0.02962667204)
(250.0526019 0 -0.02184205364)
(250.0410351 1.595116882e-15 -0.01603157053)
(250.0322468 -4.980877186e-16 -0.01161259447)
(250.0252658 -2.070572347e-16 -0.008341587485)
(250.0196801 1.832990426e-15 -0.004751313248)
(250.0124926 -3.034130199e-15 -0.004514532759)
(203.094572 1.877366709e-19 -16.1489672)
(243.6751505 0 -18.8181411)
(266.2783291 1.504916374e-19 -20.59089088)
(284.4110184 -1.45037186e-19 -22.09825674)
(301.7979675 -3.146250178e-19 -23.58793106)
(318.2357353 0 -25.14245735)
(326.5842653 7.034532715e-19 -26.0382939)
(327.752097 -1.301156202e-18 -26.06996767)
(327.3917477 1.129028607e-18 -26.16526809)
(327.0703767 -9.495625495e-19 -26.05454865)
(326.6178235 0 -26.16028762)
(326.1615522 8.472069719e-17 -26.07888689)
(325.5927671 -7.074635603e-17 -26.14246981)
(324.9527061 6.127441965e-17 -26.10636892)
(324.1908329 -4.970397058e-17 -26.13737047)
(323.3042674 5.231436309e-18 -26.12908509)
(322.2593729 0 -26.14402954)
(321.0324538 -6.305878301e-17 -26.14541715)
(319.5891417 4.976345087e-17 -26.14952647)
(317.893641 -1.055801733e-17 -26.14287511)
(315.9051873 8.898927312e-18 -26.12303358)
(313.5806387 0 -26.07740614)
(310.8765583 0 -25.99037393)
(307.7539672 0 -25.8373202)
(304.1860879 0 -25.58375092)
(300.1697149 -6.362057163e-17 -25.18326613)
(295.7399047 -4.009991627e-19 -24.57852786)
(290.9842365 -2.323135196e-17 -23.70736262)
(286.0481155 2.837991701e-19 -22.51684982)
(281.1213067 1.682088296e-17 -20.98333664)
(276.404406 -2.927991168e-17 -19.12932518)
(272.0676954 1.24676595e-16 -17.02685687)
(268.220913 -8.531569511e-17 -14.78435837)
(264.9050892 -7.216652124e-17 -12.5235313)
(262.1045179 1.228086177e-16 -10.35653713)
(259.7686589 -1.042954975e-16 -8.370577735)
(257.8335128 0 -6.621578225)
(256.2364625 -1.879411485e-16 -5.135067537)
(254.9234167 -2.853094079e-16 -3.91132424)
(253.8501009 1.068337995e-16 -2.932318246)
(252.980283 1.074589145e-19 -2.16878151)
(252.2832628 2.655080262e-16 -1.586389832)
(251.7319411 -5.105926428e-16 -1.150509518)
(251.3018303 4.295201807e-16 -0.829340391)
(250.9708273 1.442570618e-15 -0.5955917526)
(250.7193469 1.513977471e-16 -0.4270224351)
(250.5304946 -1.26921597e-16 -0.3062170344)
(250.390114 0 -0.2199537296)
(250.2866715 -1.604470097e-15 -0.1584362012)
(250.2110026 1.491909608e-16 -0.114534283)
(250.1559802 2.246039649e-15 -0.08312532318)
(250.1161554 3.127513164e-15 -0.06056146002)
(250.0874121 4.176335525e-15 -0.04425843594)
(250.0666589 0 -0.03238936165)
(250.0515634 0 -0.02367823968)
(250.0403607 -1.605604958e-15 -0.01722554647)
(250.0318102 1.66486639e-16 -0.01236553151)
(250.0249801 -2.756069885e-16 -0.00882707802)
(250.0195607 -1.82046056e-15 -0.004971761338)
(250.0123549 -5.849501081e-18 -0.004646034571)
(205.4102014 -1.991862703e-19 -19.50158305)
(246.7489396 2.169390022e-16 -22.85283171)
(269.7710339 -3.389474462e-16 -24.9866713)
(288.4289735 1.653501254e-16 -26.8339876)
(306.3092282 3.526410889e-19 -28.67369386)
(321.6659055 1.923823437e-16 -30.41652067)
(327.3067498 -1.901252947e-16 -31.10389879)
(327.7730236 1.346779027e-18 -31.04040832)
(326.9567098 -1.465860598e-16 -31.13715381)
(326.606614 1.236930692e-16 -31.00086254)
(326.1140767 -1.618351238e-18 -31.11270173)
(325.6073444 0 -31.02556874)
(324.9768061 -5.11699805e-21 -31.08793985)
(324.2635721 -3.80450092e-18 -31.04850814)
(323.4145185 3.185432071e-18 -31.07306582)
(322.4242116 3.223135529e-17 -31.05766935)
(321.2565689 -3.599082142e-17 -31.05991902)
(319.8846193 0 -31.04449906)
(318.2710323 6.435139551e-18 -31.02330228)
(316.3768217 -3.270236435e-17 -30.98124462)
(314.1587412 3.651566644e-17 -30.91103608)
(311.5724848 1.562614162e-17 -30.79489887)
(308.5763155 0 -30.60942288)
(305.1378324 -2.261194654e-17 -30.32034548)
(301.244289 0 -29.88169461)
(296.91652 -3.965259762e-19 -29.23543795)
(292.2244881 2.786368258e-17 -28.31574)
(287.2975072 4.772728037e-17 -27.06063092)
(282.318577 -4.090284612e-17 -25.43143503)
(277.4966723 0 -23.43318503)
(273.0243511 0 -21.12450848)
(269.0391957 9.990411573e-19 -18.61001944)
(265.6054146 -7.207998033e-19 -16.01860384)
(262.7192058 3.751366642e-17 -13.47798681)
(260.3297658 -1.589457603e-16 -11.09501629)
(258.3641627 -2.697156338e-17 -8.945545119)
(256.7473983 2.052351043e-16 -7.072834355)
(255.4141933 -2.706305794e-16 -5.491353213)
(254.3130782 2.599450599e-16 -4.193072061)
(253.4053372 2.751345244e-17 -3.154353407)
(252.6616284 -9.237317847e-17 -2.342396734)
(252.0584245 3.884403336e-17 -1.720677626)
(251.5754071 6.542786742e-17 -1.253086822)
(251.1940764 -9.338884528e-16 -0.9066819925)
(250.8973319 -7.379750166e-16 -0.6531694629)
(250.6695761 0 -0.4693771818)
(250.4969697 1.037961839e-15 -0.3370320831)
(250.3676183 0 -0.2421475281)
(250.2716168 0 -0.1742714607)
(250.2009466 0 -0.125732275)
(250.1492731 -4.189612561e-15 -0.0909743051)
(250.1116887 -1.588519055e-15 -0.06601256498)
(250.0844438 -2.823010616e-15 -0.04800595718)
(250.0646948 -2.494820458e-15 -0.0349349359)
(250.0502745 -1.827703493e-15 -0.02538112362)
(250.0395294 0 -0.01834001923)
(250.0312807 0 -0.01307201612)
(250.0246371 1.376021593e-16 -0.009282931908)
(250.0194074 1.809387218e-15 -0.005182583338)
(250.0122036 -1.156412638e-17 -0.004774942108)
(207.1009471 2.119573462e-19 -22.99648605)
(249.1863217 0 -27.00820946)
(272.6735493 1.824122766e-19 -29.5502324)
(291.928497 -1.26338252e-21 -31.76857925)
(310.1898389 -2.004804348e-16 -33.99664426)
(323.3373753 2.089957264e-16 -35.72338517)
(326.415464 0 -36.16153292)
(326.1764414 0 -36.03265942)
(325.7770624 1.500033902e-16 -36.16520547)
(325.3916817 2.099047948e-19 -36.02072954)
(324.8463527 -1.055912657e-16 -36.1351778)
(324.2804843 0 -36.03944973)
(323.5788193 2.313569467e-18 -36.09425754)
(322.7814463 6.622339746e-17 -36.04652557)
(321.833145 -5.547154914e-17 -36.05696458)
(320.72546 5.486029868e-18 -36.02618203)
(319.4199777 -4.650586012e-18 -36.00547962)
(317.886356 7.846569184e-18 -35.96117579)
(316.0844946 -5.291258702e-17 -35.90009542)
(313.9727371 -3.887636835e-19 -35.80469688)
(311.5065732 8.512587504e-17 -35.66155608)
(308.6428711 -4.787415892e-17 -35.44591525)
(305.3454407 0 -35.12472518)
(301.5940787 -2.935800775e-19 -34.65261654)
(297.3974244 1.968008535e-17 -33.97189056)
(292.8085592 3.372996416e-17 -33.01495831)
(287.9385805 0 -31.71343722)
(282.9581045 0 -30.01578833)
(278.0772837 -2.150202412e-17 -27.90937844)
(273.5058301 1.8116864e-17 -25.43611991)
(269.4088165 0 -22.69147564)
(265.8779064 -1.328725226e-16 -19.80618222)
(262.9277049 1.357187348e-16 -16.91966534)
(260.5129835 -1.918784305e-17 -14.15632775)
(258.5550344 -6.904328915e-19 -11.61119956)
(256.9662474 -2.218188557e-16 -9.345416954)
(255.6670021 -4.445821736e-16 -7.38854427)
(254.5938017 4.136484532e-16 -5.744281053)
(253.7004504 -3.32782231e-17 -4.397138789)
(252.9550775 0 -3.318854661)
(252.3356216 -4.733147256e-17 -2.474032164)
(251.8256156 -5.970924531e-16 -1.824788403)
(251.4111945 0 -1.334281823)
(251.0794851 0 -0.9690753434)
(250.8180872 -7.541204475e-16 -0.7004237045)
(250.6151793 0 -0.504679838)
(250.4598508 -9.265405533e-16 -0.3630763669)
(250.3424097 1.661736679e-15 -0.2611423171)
(250.2545638 -9.26178015e-17 -0.1879796016)
(250.1894502 -2.3975244e-15 -0.1355278833)
(250.1415482 2.193142678e-15 -0.0979072741)
(250.1065164 -3.545947246e-15 -0.07087180901)
(250.0809958 0 -0.05137614086)
(250.0624108 2.373402652e-15 -0.03724413957)
(250.0487765 5.897727376e-15 -0.0269394149)
(250.0385639 0 -0.01936889621)
(250.0306689 1.673177405e-16 -0.013729743)
(250.0242414 -1.374306574e-16 -0.009709215821)
(250.0192201 1.799635096e-15 -0.005384620878)
(250.0120285 5.871414438e-15 -0.004901567929)
(208.1517792 -9.21096042e-16 -26.58793993)
(250.9858243 2.545637029e-16 -31.27304329)
(275.042095 -2.009211643e-19 -34.26955086)
(294.9307992 4.025912132e-19 -36.89720584)
(313.2193738 4.278965252e-19 -39.51514445)
(323.7172839 -2.211275481e-16 -41.01026365)
(324.7619549 2.05789641e-16 -41.26096504)
(324.4349689 0 -41.09080038)
(323.899881 1.533476927e-16 -41.24168067)
(323.4707497 2.395835714e-19 -41.07522922)
(322.8689183 -1.062719389e-16 -41.18656465)
(322.2371865 0 -41.08005771)
(321.4570514 2.384066899e-18 -41.12066314)
(320.5663402 0 -41.05957307)
(319.5081779 -2.736877334e-20 -41.04860706)
(318.270579 0 -40.99435942)
(316.8129082 -3.821860488e-17 -40.94046532)
(315.101537 -1.472514414e-19 -40.85438373)
(313.0941633 2.02832644e-17 -40.73679188)
(310.7476725 4.619838761e-17 -40.56622109)
(308.0184717 -4.847404391e-17 -40.32153373)
(304.868051 -1.669533524e-17 -39.96931493)
(301.2706877 -2.840443158e-17 -39.46575455)
(297.2248965 2.386842718e-17 -38.75417452)
(292.7684665 2.073000931e-17 -37.76677266)
(287.9937864 1.808768896e-17 -36.43126857)
(283.0551848 0 -34.68596433)
(278.1572556 -5.212837941e-17 -32.50180361)
(273.5203635 8.921732043e-17 -29.90225413)
(269.3342816 5.71917708e-17 -26.96919)
(265.72034 1.460375918e-16 -23.82980618)
(262.7173255 1.106008613e-16 -20.63077251)
(260.2921947 0 -17.51137248)
(258.3655265 0 -14.58470636)
(256.8393249 1.00362235e-16 -11.92961505)
(255.6188017 2.550760108e-16 -9.591089433)
(254.6251396 1.915780926e-16 -7.585335671)
(253.7999994 3.233828416e-16 -5.906384139)
(253.1042222 5.46271372e-16 -4.532534352)
(252.5134396 4.599654407e-16 -3.432016517)
(252.0128525 -4.837772059e-17 -2.567761255)
(251.5926863 6.90830391e-16 -1.901279075)
(251.2450365 -1.093041519e-15 -1.395619459)
(250.9621755 -5.734148285e-17 -1.017376714)
(250.7360033 8.171465673e-16 -0.7377988278)
(250.5581782 -8.057369948e-17 -0.5331346023)
(250.4205201 6.741827635e-17 -0.3844230492)
(250.3154184 -3.608895641e-15 -0.2769459265)
(250.2361285 0 -0.1995404655)
(250.1769144 2.514712666e-15 -0.1438927348)
(250.1330617 -2.094999661e-15 -0.1038970962)
(250.1007988 6.969907339e-15 -0.07511703275)
(250.0771655 -1.808345821e-16 -0.05435258924)
(250.0598641 -2.247241384e-15 -0.03930575341)
(250.0471016 -3.838432526e-15 -0.02834602032)
(250.0374814 -3.367802363e-15 -0.02030806482)
(250.0299825 0 -0.01433702389)
(250.0237968 0 -0.0101051028)
(250.0190016 -3.58216037e-15 -0.005577813112)
(250.0118329 -5.80632336e-15 -0.005025725239)
(208.6669545 6.849842285e-20 -30.2648087)
(252.3066457 -2.771901483e-16 -35.66310482)
(277.0176466 0 -39.16131149)
(297.5166293 4.524487947e-19 -42.24800048)
(315.0462269 -9.406184373e-19 -45.14029924)
(322.4649726 0 -46.22794222)
(322.3621921 -2.124821933e-16 -46.37135452)
(321.9622876 1.842165707e-16 -46.16582973)
(321.4087516 -1.247553662e-18 -46.32494104)
(320.928603 0 -46.14194959)
(320.2628352 3.470212544e-18 -46.24514268)
(319.5559964 9.278720255e-17 -46.12733868)
(318.6874737 -2.152278783e-18 -46.1486038)
(317.6916684 2.673890978e-19 -46.06918939)
(316.5105353 -5.837765567e-17 -46.02890217)
(315.1282411 0 -45.94116655)
(313.5022659 4.864026048e-18 -45.84078511)
(311.5962161 -8.215755916e-18 -45.69546848)
(309.3667037 -2.807926023e-17 -45.49865349)
(306.771034 1.162689242e-17 -45.22346324)
(303.7693937 2.023486272e-17 -44.83982148)
(300.3320249 6.722833541e-23 -44.30462094)
(296.4493294 0 -43.56305045)
(292.1457502 2.510871182e-17 -42.5481816)
(287.4957495 4.370112573e-19 -41.18588162)
(282.6352298 -1.812719223e-17 -39.40716717)
(277.7576527 0 -37.1687953)
(273.0870111 1.072002687e-16 -34.47568886)
(268.8329115 -1.140799696e-16 -31.39300859)
(265.1461718 -5.836039921e-17 -28.03945317)
(262.0940699 -1.326849013e-16 -24.5641063)
(259.6622889 1.524019177e-17 -21.11780604)
(257.7768857 -3.609018896e-17 -17.83012484)
(256.3335815 -3.065444719e-16 -14.79720246)
(255.2237532 -2.934575671e-16 -12.07959778)
(254.3519347 -1.895111876e-16 -9.706382897)
(253.6442777 3.687564784e-16 -7.681719905)
(253.0498763 3.52117999e-16 -5.991538275)
(252.5375686 -1.132838757e-15 -4.609329708)
(252.090626 -4.397749634e-16 -3.500927145)
(251.7011882 -2.465789159e-17 -2.62842348)
(251.3656372 -4.148537969e-17 -1.953354342)
(251.0814413 1.113934172e-15 -1.43915706)
(250.845476 9.056646866e-16 -1.052865455)
(250.6534935 4.895342454e-17 -0.7660642445)
(250.5002921 0 -0.5551875737)
(250.3801811 -2.195615906e-15 -0.4013200399)
(250.2874725 1.834518706e-15 -0.289688959)
(250.2168711 -9.570292791e-17 -0.2090178711)
(250.1637114 -1.110074638e-20 -0.150854372)
(250.1240561 1.990535422e-16 -0.1089528197)
(250.0946901 -3.638623827e-15 -0.07874875013)
(250.0730485 0 -0.05693258036)
(250.0571121 2.570231038e-15 -0.04111642372)
(250.0452825 -1.247037308e-16 -0.02959808178)
(250.0362995 3.281491359e-15 -0.02115548233)
(250.0292298 -2.689031443e-15 -0.01489297447)
(250.0233071 0 -0.01047025898)
(250.0187532 3.567243911e-15 -0.005762104664)
(250.0116151 5.759115381e-15 -0.005147215635)
(208.7060536 -5.214545127e-16 -34.02302646)
(253.2536427 -3.029014672e-16 -40.18289854)
(278.6924991 2.53390549e-16 -44.23488168)
(299.7750196 -4.962826405e-19 -47.8416873)
(315.5196567 -2.578723287e-16 -50.75893673)
(319.6988898 4.866343785e-16 -51.3789804)
(319.3749551 -2.179003512e-16 -51.4948394)
(318.965387 1.469770172e-18 -51.27032249)
(318.3577995 -1.581056745e-16 -51.43762809)
(317.8196422 -3.118067382e-19 -51.23306148)
(317.0831474 1.09302469e-16 -51.31787085)
(316.2920525 -9.794210556e-17 -51.18232035)
(315.3250927 7.950208934e-17 -51.17420463)
(314.2121902 0 -51.06656826)
(312.8947316 -4.956253452e-17 -50.98447997)
(311.3530614 9.516308218e-17 -50.84819931)
(309.543437 -2.9909162e-17 -50.68252155)
(307.427652 3.412058144e-17 -50.45410026)
(304.9627493 -2.863270032e-17 -50.14810934)
(302.1087932 -2.474787686e-17 -49.73095011)
(298.8332155 2.061891962e-17 -49.16275777)
(295.1200208 1.784993437e-17 -48.39020137)
(290.9824897 0 -47.34806223)
(286.4787448 0 -45.96196442)
(281.7257296 -4.37717297e-17 -44.15820861)
(276.9017485 -3.819594977e-17 -41.88220829)
(272.2277048 0 -39.12157073)
(267.9267214 -1.109367589e-16 -35.92315178)
(264.1765032 -9.543223938e-17 -32.39307045)
(261.0750786 2.027274865e-17 -28.67800536)
(258.6325715 1.210053451e-16 -24.93648995)
(256.7871567 -1.01507956e-16 -21.31239472)
(255.4337062 -1.857607683e-16 -17.918413)
(254.4528778 3.122997133e-16 -14.83069636)
(253.7331175 2.814976311e-16 -12.09143509)
(253.1833634 2.375953111e-16 -9.715210694)
(252.7375919 -4.258021856e-16 -7.696021124)
(252.3536152 -3.165271946e-16 -6.01343829)
(252.0085728 5.685572716e-16 -4.637527456)
(251.6931257 -2.992615369e-17 -3.532729063)
(251.4058253 8.301331236e-16 -2.661003468)
(251.1485792 4.225502996e-17 -1.984412698)
(250.9236032 2.245444928e-20 -1.467157831)
(250.7318187 -9.808529001e-16 -1.077013693)
(250.5723714 -4.982069037e-17 -0.7861552825)
(250.4428455 -1.462167316e-20 -0.5714190251)
(250.3397822 4.496502027e-15 -0.4141185383)
(250.2592381 0 -0.2995783265)
(250.1972508 -9.710383406e-17 -0.2165300055)
(250.1501516 1.617053305e-16 -0.1564777783)
(250.1147366 2.08357409e-15 -0.1131084132)
(250.0883231 0 -0.08178346428)
(250.0687282 0 -0.0591232255)
(250.0542052 -1.524724295e-16 -0.04267853623)
(250.0433485 4.142501542e-15 -0.03069585993)
(250.0350341 1.030077507e-16 -0.02191063567)
(250.0284185 2.610431186e-15 -0.01539724338)
(250.0227759 -1.096767693e-15 -0.01080444946)
(250.0184761 -1.777170515e-15 -0.005937347294)
(250.0113752 -5.739982354e-15 -0.005265672623)
(208.2982066 0 -37.86372391)
(253.9138103 6.445312358e-19 -44.84910914)
(280.09051 0 -49.51749014)
(301.4835166 -2.794137383e-16 -53.65253451)
(314.7585847 7.738472017e-19 -56.31402156)
(316.5569491 5.055256074e-16 -56.53940183)
(315.8936775 -2.233629038e-16 -56.65103565)
(315.4648537 -1.923294143e-16 -56.37449083)
(314.8006375 -2.921534632e-18 -56.54349368)
(314.1953076 1.395214102e-16 -56.32084309)
(313.379156 0 -56.38174017)
(312.4927672 1.00156356e-16 -56.22492658)
(311.415776 -8.649608938e-17 -56.17931427)
(310.1728762 6.88174311e-17 -56.03336238)
(308.7055896 -5.040004509e-17 -55.89521071)
(306.9906541 0 -55.69158152)
(304.9837756 -1.024841867e-17 -55.4367632)
(302.6460068 -3.50986901e-17 -55.09533739)
(299.9366334 -3.200099468e-19 -54.64358592)
(296.821496 6.280259546e-17 -54.04007193)
(293.2798453 -2.126407255e-17 -53.23453834)
(289.3158582 -1.81024965e-17 -52.16352025)
(284.9734565 1.57205122e-17 -50.75351019)
(280.3512841 -1.32250287e-17 -48.92835796)
(275.6101279 6.921949841e-17 -46.62501373)
(270.9620526 -2.012620848e-17 -43.81601941)
(266.6367285 -8.448589239e-17 -40.52975857)
(262.8340427 8.547515902e-17 -36.85687518)
(259.6826379 7.268228205e-17 -32.93720217)
(257.2212557 -1.050937174e-17 -28.93281279)
(255.4065712 -1.052721338e-16 -24.99914883)
(254.1388369 -1.200117329e-16 -21.26428294)
(253.2925118 1.890804445e-16 -17.81980281)
(252.7421677 1.712622685e-16 -14.72124875)
(252.3794783 0 -11.99385348)
(252.1213503 0 -9.639852411)
(251.9112569 -4.097136351e-16 -7.645175154)
(251.7162132 3.447891585e-16 -5.984740757)
(251.5214815 5.98117592e-16 -4.62643288)
(251.3246038 -5.027812408e-16 -3.534148557)
(251.1299009 -1.612136554e-15 -2.67027652)
(250.9441418 6.662278394e-16 -1.997780873)
(250.7736689 1.189799142e-15 -1.48189482)
(250.6229083 -3.020603476e-17 -1.09134454)
(250.4939544 0 -0.7990729847)
(250.3868313 4.233802065e-17 -0.5824743023)
(250.3000544 -2.299176246e-15 -0.4232265389)
(250.2312419 5.904694543e-17 -0.3068667384)
(250.1776387 -4.919972055e-17 -0.2222299063)
(250.1364911 0 -0.1608532296)
(250.1052763 0 -0.1164154291)
(250.0818115 1.127116776e-16 -0.08424938839)
(250.0642772 2.98192193e-15 -0.06093907622)