/*--------------------------------*- C++ -*----------------------------------*\
  =========                 |
  \\      /  F ield         | OpenFOAM: The Open Source CFD Toolbox
   \\    /   O peration     | Website:  https://openfoam.org
    \\  /    A nd           | Version:  12
     \\/     M anipulation  |
\*---------------------------------------------------------------------------*/
FoamFile
{
    format      ascii;
    class       surfaceScalarField;
    location    "0.093";
    object      phi;
}
// * * * * * * * * * * * * * * * * * * * * * * * * * * * * * * * * * * * * * //

dimensions      [1 0 -1 0 0 0 0];

internalField   nonuniform List<scalar> 
31760
(
-0.00063494062
-0.050952037
0.051587164
-0.0015962545
-0.064413342
0.065375046
-0.0025935946
-0.063042929
0.064044435
-0.0036099253
-0.06872599
0.069742517
-0.0046809722
-0.070400429
0.071471721
-0.0057811589
-0.074673643
0.075774125
-0.006950412
-0.077605813
0.078775373
-0.0081594981
-0.081619608
0.082829051
-0.0094281608
-0.085248166
0.086517207
-0.010755958
-0.089372939
0.090701151
-0.012139024
-0.093513816
0.094897328
-0.01358943
-0.097932915
0.099383801
-0.015101642
-0.10251645
0.10402918
-0.016683971
-0.10732687
0.10890975
-0.018335945
-0.11235284
0.1140054
-0.020062307
-0.11761107
0.11933805
-0.021865693
-0.12310963
0.12491367
-0.023749283
-0.12885996
0.13074425
-0.025716291
-0.13487311
0.13684085
-0.027770088
-0.14116036
0.14321493
-0.029914078
-0.14773413
0.14987894
-0.032151988
-0.15460641
0.1568452
-0.03448738
-0.16179083
0.16412714
-0.03692412
-0.16930111
0.17173883
-0.039465139
-0.17715181
0.17969387
-0.042114978
-0.18535707
0.18800802
-0.044877482
-0.19393318
0.19669686
-0.047756028
-0.20289677
0.20577657
-0.050754057
-0.21226481
0.21526418
-0.053875553
-0.22205543
0.22517835
-0.057123759
-0.2322876
0.23553733
-0.060501934
-0.24298121
0.24636101
-0.064012812
-0.25415782
0.25767045
-0.067659355
-0.26583862
0.26948705
-0.071443461
-0.27804778
0.28183394
-0.075366694
-0.2908097
0.29473516
-0.07943028
-0.30415021
0.30821622
-0.083634585
-0.31809715
0.32230409
-0.087979307
-0.33267866
0.33702624
-0.092463008
-0.34792637
0.35241317
-0.097083555
-0.36387222
0.36849614
-0.10183738
-0.38055021
0.3853077
-0.10671974
-0.39799663
0.40288296
-0.11172468
-0.41624959
0.42125883
-0.1168443
-0.43534976
0.44047406
-0.12206931
-0.45533908
0.46056918
-0.12738802
-0.4762628
0.48158703
-0.13278739
-0.49816766
0.50357299
-0.1382518
-0.52110414
0.52657499
-0.14376285
-0.54512444
0.55064243
-0.14929942
-0.57028343
0.57582748
-0.15483795
-0.59663964
0.60218622
-0.16035102
-0.62425397
0.62977569
-0.16580766
-0.65319062
0.65865656
-0.17117341
-0.68351679
0.68889253
-0.17640839
-0.71530385
0.72054956
-0.18146861
-0.74862568
0.75369744
-0.18630475
-0.78355983
0.78840842
-0.19086051
-0.82018777
0.82475703
-0.19507379
-0.85859399
0.86282202
-0.19887451
-0.89886651
0.90268353
-0.20218484
-0.94109684
0.94442532
-0.20491737
-0.98538074
0.98813374
-0.20697471
-1.0318177
1.0338984
-0.2082481
-1.0805096
1.0818096
-0.20861665
-1.1315617
1.1319609
-0.2079442
-1.18508
1.1844427
-0.2060853
-1.2411693
1.2393507
-0.20287329
-1.2999403
1.2967741
-0.19812175
-1.3615033
1.3568038
-0.19162941
-1.4259711
1.4195375
-0.18317677
-1.4934568
1.4850703
-0.17250959
-1.5640776
1.5534839
-0.1593625
-1.6379434
1.6248762
-0.1434282
-1.7151829
1.6993324
-0.12435322
-1.796003
1.7770112
-0.10187945
-1.8806436
1.8582468
-0.075383559
-1.9691294
1.9427007
-0.04467924
-2.0622371
2.0315734
-2.1593528
2.1239718
-0.00063184786
-0.050320073
-0.001499479
-0.063545594
-0.002391323
-0.062150405
-0.003349806
-0.067767308
-0.0043185946
-0.069431368
-0.005365036
-0.073626898
-0.0064262357
-0.076544264
-0.0075675929
-0.080477857
-0.0087345207
-0.084080809
-0.0099758571
-0.08813113
-0.011259985
-0.092229179
-0.012611509
-0.096580839
-0.014020345
-0.10110703
-0.015495614
-0.10585097
-0.017037477
-0.1108103
-0.018650088
-0.11599774
-0.020335626
-0.12142333
-0.022097854
-0.12709693
-0.023939981
-0.13303012
-0.025865576
-0.13923385
-0.027878285
-0.14572045
-0.029981343
-0.15250233
-0.032178837
-0.15959224
-0.034474434
-0.16700435
-0.036872909
-0.1747521
-0.039377046
-0.18285163
-0.04199151
-0.19131732
-0.044720004
-0.20016679
-0.047566774
-0.20941646
-0.050535351
-0.21908516
-0.053629771
-0.22919137
-0.056853317
-0.23975571
-0.060209237
-0.25079979
-0.063700462
-0.26234512
-0.067329353
-0.27441643
-0.071098171
-0.28703822
-0.075008012
-0.30023748
-0.07906031
-0.31404173
-0.08325433
-0.32848125
-0.087589585
-0.34358744
-0.092064385
-0.35939345
-0.096675535
-0.37593476
-0.10141857
-0.39324893
-0.10628832
-0.4113748
-0.11127759
-0.43035503
-0.11637773
-0.45023304
-0.1215784
-0.47105575
-0.12686689
-0.49287231
-0.13222882
-0.51573483
-0.13764754
-0.53969779
-0.1431036
-0.56481886
-0.14857488
-0.59115923
-0.15403609
-0.61878296
-0.15945889
-0.64775729
-0.16481117
-0.67815321
-0.17005662
-0.71004622
-0.17515479
-0.74351434
-0.18006018
-0.77864015
-0.1847215
-0.81551083
-0.18908194
-0.85421636
-0.19307744
-0.89485192
-0.19663663
-0.93751627
-0.19967934
-0.9823139
-0.20211738
-1.0293523
-0.20385114
-1.0787447
-0.20477133
-1.130606
-0.2047523
-1.1850587
-0.20365876
-1.2422171
-0.20134
-1.3022074
-0.19762779
-1.3651573
-0.1923388
-1.4311948
-0.1852667
-1.5004561
-0.17618466
-1.5730792
-0.16483999
-1.6492012
-0.15095528
-1.7289771
-0.13422668
-1.8126422
-0.11435722
-1.9004302
-0.090882787
-1.9925327
-0.063507365
-2.0895655
-2.1909559
-0.00057103539
-0.049748705
-0.0013807035
-0.062735622
-0.0021868379
-0.061344881
-0.0030890267
-0.06686467
-0.003979894
-0.06854004
-0.0049574054
-0.072648894
-0.0059359971
-0.075565163
-0.0069981904
-0.079415119
-0.0080792546
-0.082999178
-0.0092331593
-0.086976625
-0.010426639
-0.09103507
-0.011683984
-0.09532283
-0.012996087
-0.099794222
-0.014371263
-0.10447506
-0.015810161
-0.10937063
-0.017316369
-0.11449071
-0.018893222
-0.1198456
-0.020543659
-0.12544557
-0.022271937
-0.13130087
-0.024080863
-0.13742389
-0.025974907
-0.14382531
-0.027957572
-0.1505185
-0.030032718
-0.15751587
-0.032205106
-0.16483066
-0.034477979
-0.17247784
-0.03685652
-0.18047161
-0.039344146
-0.18882812
-0.04194589
-0.19756337
-0.044665266
-0.20669529
-0.04750738
-0.21624112
-0.050475293
-0.22622138
-0.053573279
-0.2366555
-0.056805087
-0.24756558
-0.060173341
-0.25897427
-0.063681568
-0.27090541
-0.067331865
-0.2833849
-0.071126398
-0.29643968
-0.075065607
-0.31009898
-0.079150427
-0.3243926
-0.083380261
-0.33935346
-0.087753234
-0.35501599
-0.092267142
-0.371416
-0.09691852
-0.3885923
-0.10170182
-0.40658582
-0.10661096
-0.42543974
-0.1116379
-0.44519946
-0.11677335
-0.46591316
-0.12200533
-0.48763264
-0.12732125
-0.51041064
-0.13270544
-0.53430474
-0.13813968
-0.5593751
-0.14360457
-0.58568414
-0.14907678
-0.61329978
-0.15453044
-0.64229186
-0.15993638
-0.67273459
-0.16526173
-0.70470718
-0.17046998
-0.73829126
-0.17551902
-0.77357492
-0.18036348
-0.81064859
-0.18495094
-0.84960924
-0.18922397
-0.89055696
-0.19311754
-0.93359808
-0.19655997
-0.97884365
-0.19947039
-1.0264104
-0.20175888
-1.0764204
-0.2033244
-1.129
-0.20405881
-1.1842784
-0.20383607
-1.2423882
-0.20251668
-1.3034688
-0.19995294
-1.3676563
-0.19597228
-1.4351032
-0.19039339
-1.5059548
-0.18300457
-1.5803801
-0.17357817
-1.6585333
-0.1618558
-1.7406019
-0.14756853
-1.8268337
-0.1304284
-1.917482
-0.11005599
-2.0128292
-0.086125707
-2.1134414
-2.2186858
-0.00051497519
-0.049233374
-0.0012641764
-0.061986036
-0.0019986504
-0.060609674
-0.0028483782
-0.066014481
-0.0036732376
-0.067714704
-0.004584274
-0.071737345
-0.0054861991
-0.0746627
-0.0064752919
-0.07842545
-0.0074765176
-0.081997347
-0.0085499382
-0.085902562
-0.0096598482
-0.089924483
-0.010830753
-0.094151209
-0.012054567
-0.098569651
-0.013338598
-0.10319022
-0.01468451
-0.10802387
-0.016096066
-0.11307826
-0.017576557
-0.11836416
-0.019129357
-0.12389177
-0.020757931
-0.12967123
-0.022466622
-0.13571408
-0.024258591
-0.14203215
-0.02613889
-0.14863694
-0.028111417
-0.155542
-0.030180143
-0.16276051
-0.032350211
-0.17030625
-0.034625549
-0.17819465
-0.037011174
-0.18644077
-0.039511399
-0.1950613
-0.042131646
-0.20407306
-0.044875232
-0.21349541
-0.047747247
-0.22334709
-0.050752007
-0.23364829
-0.053893149
-0.2444218
-0.057174497
-0.25569008
-0.060599392
-0.26747744
-0.064170218
-0.27981076
-0.067889111
-0.29271721
-0.071757905
-0.30622632
-0.075776862
-0.32036947
-0.079945937
-0.33517987
-0.084264437
-0.3506926
-0.088729594
-0.36694554
-0.093338515
-0.38397764
-0.098086753
-0.40183138
-0.1029683
-0.42055148
-0.10797661
-0.44018393
-0.11310191
-0.46078005
-0.11833525
-0.4823909
-0.12366378
-0.50507306
-0.12907386
-0.52888494
-0.1345498
-0.55388871
-0.14007297
-0.58014973
-0.14562313
-0.60773754
-0.1511774
-0.63672458
-0.15670871
-0.66718924
-0.16218871
-0.69921198
-0.16758395
-0.73287947
-0.17285763
-0.76828314
-0.17796859
-0.80551769
-0.18287045
-0.84468526
-0.18751151
-0.88589118
-0.19183387
-0.92924792
-0.19577328
-0.97487283
-0.19925741
-1.0228907
-0.20220586
-1.0734317
-0.20453088
-1.1266295
-0.20612725
-1.1826308
-0.20688917
-1.2415687
-0.2066883
-1.3036053
-0.20539262
-1.3688803
-0.20284983
-1.4375665
-0.1988845
-1.5098324
-0.19331889
-1.5858501
-0.18593654
-1.6658138
-0.17650983
-1.7499239
-0.16479514
-1.8384461
-0.15051878
-1.931664
-0.13336175
-2.0299054
-0.11302807
-2.1337141
-2.2424327
-0.00046002455
-0.048772973
-0.001162219
-0.061283459
-0.0018188751
-0.059952574
-0.0026127354
-0.065220138
-0.0033638508
-0.066963077
-0.0042172392
-0.070883415
-0.0050525352
-0.073826832
-0.0059763652
-0.077501007
-0.006906518
-0.08106655
-0.0079071815
-0.084901214
-0.0089431437
-0.088887799
-0.010037587
-0.093056
-0.0111846
-0.09742183
-0.01239038
-0.10198359
-0.013657313
-0.10675603
-0.0149885
-0.11174612
-0.0163877
-0.11696395
-0.017858686
-0.12241971
-0.019405151
-0.12812363
-0.021031123
-0.1340869
-0.022741312
-0.14032069
-0.024539056
-0.14683784
-0.026429863
-0.15364975
-0.028418311
-0.16077053
-0.030508907
-0.16821403
-0.032706918
-0.1759949
-0.035017536
-0.18412829
-0.037445684
-0.19263116
-0.039996267
-0.20152035
-0.04267447
-0.21081493
-0.045485143
-0.22053397
-0.048432735
-0.23069807
-0.051521574
-0.24133014
-0.054755984
-0.25245263
-0.058139091
-0.26409106
-0.06167394
-0.27627238
-0.065362993
-0.28902434
-0.069208103
-0.30237709
-0.073209973
-0.31636315
-0.077368937
-0.33101609
-0.081683887
-0.34637243
-0.086153587
-0.3624702
-0.090774685
-0.37935043
-0.095543428
-0.39705602
-0.10045529
-0.41563246
-0.10550321
-0.43512826
-0.11067991
-0.455595
-0.11597619
-0.4770856
-0.12138125
-0.49965826
-0.12688348
-0.52337221
-0.13246832
-0.54829256
-0.13812024
-0.57448561
-0.14382111
-0.60202351
-0.14955051
-0.63098096
-0.15528599
-0.66143835
-0.16100166
-0.69347955
-0.16666823
-0.72719461
-0.17225427
-0.76267704
-0.17772305
-0.80002674
-0.18303454
-0.83934915
-0.18814285
-0.88075531
-0.1929974
-0.92436239
-0.19754114
-0.97029414
-0.20171086
-1.0186815
-0.20543574
-1.0696622
-0.20863534
-1.1233795
-0.21122466
-1.1799848
-0.21309802
-1.2396319
-0.21415499
-1.3024777
-0.21426243
-1.3686943
-0.213293
-1.4384491
-0.21109374
-1.5119363
-0.20749711
-1.5893434
-0.20231469
-1.6708868
-0.19533747
-1.7567893
-0.18634593
-1.8473289
-0.17510618
-1.9428035
-0.16132277
-2.0436022
-0.14473846
-2.1502306
-2.2620504
-0.00041021825
-0.048362353
-0.0010712519
-0.060622019
-0.0016653466
-0.059358022
-0.0024012601
-0.064483726
-0.0030768365
-0.066286946
-0.0038789348
-0.070080746
-0.0046475521
-0.073057609
-0.005512075
-0.076635841
-0.0063791338
-0.080198814
-0.0073181579
-0.083961472
-0.0082939215
-0.087911278
-0.0093261268
-0.092022993
-0.010411159
-0.09633595
-0.01155369
-0.10084016
-0.012756553
-0.10555222
-0.014023601
-0.11047806
-0.015358333
-0.11562815
-0.016764618
-0.1210123
-0.018246945
-0.12664011
-0.019809295
-0.13252328
-0.021456755
-0.13867188
-0.023194123
-0.14509904
-0.025026528
-0.15181582
-0.02695906
-0.15883638
-0.028997316
-0.16617405
-0.031147089
-0.17384329
-0.03341309
-0.18186033
-0.035801601
-0.19024056
-0.038317893
-0.19900182
-0.040967314
-0.20816311
-0.04375542
-0.21774329
-0.046686749
-0.22776399
-0.049766655
-0.23824727
-0.052998391
-0.24921771
-0.056386419
-0.26069961
-0.059934025
-0.27272108
-0.063643361
-0.28531102
-0.067516365
-0.29849978
-0.071554538
-0.31232031
-0.075757898
-0.32680768
-0.080126295
-0.34199857
-0.084657683
-0.35793289
-0.08935029
-0.37465141
-0.094200829
-0.39219853
-0.099204196
-0.41062157
-0.10435527
-0.42996904
-0.10964826
-0.45029318
-0.11507426
-0.47165005
-0.12062529
-0.4940969
-0.1262899
-0.51769642
-0.1320574
-0.54251294
-0.13791377
-0.56861614
-0.14384388
-0.59607919
-0.14983057
-0.62497883
-0.15585444
-0.6553977
-0.16189364
-0.68742203
-0.1679244
-0.72114379
-0.17391861
-0.75666074
-0.17984576
-0.79407514
-0.1856708
-0.8334969
-0.19135552
-0.87504014
-0.19685595
-0.91882776
-0.20212335
-0.96498821
-0.20710274
-1.0136586
-0.21173266
-1.0649833
-0.21594415
-1.1191129
-0.21966018
-1.1762069
-0.2227968
-1.2364262
-0.225252
-1.2999454
-0.22692494
-1.3669359
-0.22769163
-1.4375882
-0.22742155
-1.5121033
-0.22596685
-1.5906869
-0.22315785
-1.6735787
-0.2188088
-1.7610195
-0.21272834
-1.8532943
-0.20470206
-1.950724
-0.19448158
-2.0537307
-0.18184607
-2.1627914
-2.2773517
-0.00036781448
-0.047994119
-0.00099801345
-0.059991398
-0.0015372006
-0.058818342
-0.0022256965
-0.063794717
-0.0028418936
-0.065670195
-0.0035963051
-0.069325746
-0.004309297
-0.072343981
-0.0051124796
-0.075831998
-0.0059377875
-0.079372808
-0.006830599
-0.083067919
-0.0077603648
-0.086980729
-0.0087430498
-0.091039479
-0.0097782791
-0.095299843
-0.010870075
-0.099747437
-0.01202249
-0.10439882
-0.013238997
-0.10926051
-0.014524447
-0.1143416
-0.015882925
-0.11965265
-0.017319223
-0.12520257
-0.01883873
-0.13100246
-0.020446039
-0.13706317
-0.022147351
-0.14339624
-0.023947869
-0.15001372
-0.025853275
-0.15692929
-0.027869912
-0.16415562
-0.030003405
-0.17170789
-0.032260627
-0.17960107
-0.034647117
-0.18785189
-0.037168587
-0.19647802
-0.039831619
-0.20549759
-0.042641193
-0.21493106
-0.045602869
-0.22479945
-0.048721292
-0.23512578
-0.052001547
-0.24593415
-0.055446652
-0.25725095
-0.059060237
-0.26910367
-0.062845375
-0.28152175
-0.066803704
-0.29453699
-0.070936296
-0.3081829
-0.075243748
-0.32249501
-0.079725961
-0.33751071
-0.084381626
-0.3532711
-0.089209124
-0.36981727
-0.094205236
-0.38719521
-0.099366985
-0.40545199
-0.10468976
-0.42463777
-0.11016804
-0.44480568
-0.11579626
-0.46601182
-0.12156636
-0.48831592
-0.12747085
-0.51178011
-0.13349963
-0.53647133
-0.13964224
-0.56245957
-0.1458869
-0.58981932
-0.15221938
-0.61862978
-0.15862443
-0.64897453
-0.16508413
-0.68094246
-0.17157912
-0.71462695
-0.17808689
-0.75012883
-0.18458208
-0.78755319
-0.19103664
-0.82701251
-0.19741794
-0.86862548
-0.20369017
-0.91251808
-0.20981225
-0.95882403
-0.21573844
-1.0076851
-0.22141721
-1.0592512
-0.22678991
-1.1136803
-0.23179134
-1.1711385
-0.23634899
-1.2317937
-0.24037745
-1.2958338
-0.24378421
-1.3634371
-0.24647005
-1.434801
-0.24831725
-1.5101455
-0.24919532
-1.58969
-0.24896309
-1.6736865
-0.24745128
-1.7624058
-0.24449126
-1.8561333
-0.23990327
-1.955201
-0.23346952
-2.0600682
-0.22501023
-2.1711693
-2.2881132
-0.00032504545
-0.047668642
-0.00092994022
-0.05938607
-0.0014200161
-0.058327766
-0.0020625032
-0.063151709
-0.0026340275
-0.065098102
-0.0033600918
-0.068599079
-0.0040399392
-0.071663502
-0.0048274696
-0.0750438
-0.0056134087
-0.078586153
-0.0064603351
-0.082220232
-0.0073481014
-0.086092159
-0.0082881314
-0.090098597
-0.0092829436
-0.09430413
-0.010335942
-0.098693484
-0.011451568
-0.10328218
-0.012634394
-0.10807662
-0.013888376
-0.11308648
-0.015219491
-0.11832033
-0.016632566
-0.12378822
-0.018133273
-0.1295004
-0.019727448
-0.13546756
-0.021421087
-0.14170107
-0.023220492
-0.14821269
-0.025132897
-0.15501515
-0.027163759
-0.16212291
-0.029320553
-0.16954913
-0.0316094
-0.17731013
-0.03403711
-0.18542195
-0.036610171
-0.19390258
-0.039334611
-0.2027706
-0.042216132
-0.2120468
-0.045260436
-0.22175222
-0.048472611
-0.23191046
-0.051856663
-0.24254673
-0.055416784
-0.2536872
-0.059156429
-0.26536011
-0.063077726
-0.27759623
-0.067182887
-0.29042726
-0.071473199
-0.30388765
-0.075949189
-0.31801367
-0.080610656
-0.33284344
-0.085457556
-0.3484179
-0.090487768
-0.36478022
-0.095699693
-0.38197585
-0.1010908
-0.40005281
-0.10665773
-0.41906205
-0.11239685
-0.439057
-0.11830378
-0.46009446
-0.1243733
-0.48223505
-0.13059951
-0.50554151
-0.13697597
-0.53008135
-0.14349446
-0.55592632
-0.15014648
-0.58315116
-0.1569218
-0.61183677
-0.1638092
-0.64206769
-0.17079579
-0.67393449
-0.17786623
-0.70753289
-0.18500374
-0.74296517
-0.1921891
-0.78033875
-0.19940019
-0.81976898
-0.20661193
-0.86137745
-0.2137958
-0.90529352
-0.22091911
-0.95165506
-0.22794546
-1.0006074
-0.23483255
-1.0523066
-0.24153373
-1.1069147
-0.24799501
-1.1646052
-0.25415431
-1.2255541
-0.2599443
-1.2899547
-0.2652903
-1.3579926
-0.27009631
-1.4298868
-0.27427396
-1.5058502
-0.27770777
-1.5861302
-0.28027615
-1.6709867
-0.28183848
-1.7607116
-0.28225007
-1.8555954
-0.28135117
-1.9559845
-0.27896379
-2.0623553
-0.27495329
-2.1750921
-2.294067
-0.00028329585
-0.047384907
-0.00086918427
-0.058799742
-0.0013184445
-0.057877998
-0.001938152
-0.062531476
-0.0024877258
-0.064547956
-0.0031889391
-0.067897262
-0.0038415659
-0.071010234
-0.0046059749
-0.074278686
-0.0053622213
-0.077829181
-0.0061770461
-0.081404637
-0.0070379855
-0.085230405
-0.0079517284
-0.089183991
-0.0089231934
-0.09333175
-0.0099557898
-0.097659919
-0.011054603
-0.10218234
-0.012224463
-0.10690567
-0.013471038
-0.11183875
-0.014799739
-0.1169904
-0.016216576
-0.12237008
-0.017728317
-0.12798728
-0.019340996
-0.13385342
-0.021062135
-0.13997838
-0.022898097
-0.14637508
-0.02485626
-0.15305523
-0.02694419
-0.16003311
-0.029168649
-0.16732268
-0.031537145
-0.17493951
-0.034056514
-0.18290031
-0.03673316
-0.19122352
-0.039573846
-0.19992732
-0.042584587
-0.20903329
-0.045770388
-0.21856345
-0.049136073
-0.22854159
-0.05268639
-0.23899298
-0.056424956
-0.24994494
-0.060354477
-0.26142661
-0.064477788
-0.27346862
-0.068796713
-0.28610369
-0.073312253
-0.29936708
-0.078025453
-0.31329502
-0.08293628
-0.32792669
-0.088044378
-0.34330337
-0.093349441
-0.35946816
-0.098850782
-0.3764669
-0.10454668
-0.39434861
-0.11043568
-0.413164
-0.11651567
-0.43296714
-0.12278441
-0.45381493
-0.12923933
-0.47576833
-0.13587685
-0.49889108
-0.1426936
-0.52325046
-0.14968522
-0.54891919
-0.15684634
-0.575973
-0.16417137
-0.60449298
-0.171653
-0.63456538
-0.1792832
-0.66628144
-0.18705171
-0.69973907
-0.19494802
-0.73504074
-0.20295843
-0.77229702
-0.21106748
-0.81162495
-0.21925771
-0.85314808
-0.22750839
-0.896999
-0.23579577
-0.94331854
-0.24409183
-0.9922563
-0.25236594
-1.0439708
-0.26058134
-1.0986304
-0.26869759
-1.156412
-0.27666459
-1.2175016
-0.28442971
-1.2820947
-0.29192658
-1.3503911
-0.29908857
-1.4226101
-0.30583508
-1.4989794
-0.31207755
-1.5797552
-0.31770987
-1.6652169
-0.32261823
-1.7556659
-0.32668087
-1.8514018
-0.32976031
-1.9527863
-0.33172605
-2.0602863
-0.33246288
-2.1742628
-2.2948893
-0.0002449306
-0.047139531
-0.0008195724
-0.058224658
-0.0012389082
-0.057458151
-0.0018826231
-0.061887237
-0.0024170978
-0.064012905
-0.0030979679
-0.06721579
-0.0037276969
-0.070379854
-0.0044498922
-0.073555813
-0.0051924711
-0.077085873
-0.0059914957
-0.080604838
-0.0068425147
-0.084378567
-0.0077482867
-0.088277351
-0.0087159877
-0.092363131
-0.0097495309
-0.096625403
-0.010854676
-0.10107617
-0.012037181
-0.10572207
-0.013303282
-0.11057149
-0.014659662
-0.1156328
-0.016113111
-0.12091533
-0.017670334
-0.12642867
-0.019339949
-0.13218233
-0.021128397
-0.13818837
-0.023044532
-0.14445729
-0.025095613
-0.15100239
-0.027289447
-0.1578374
-0.029634095
-0.16497604
-0.032136919
-0.17243456
-0.034804842
-0.18023011
-0.037645214
-0.18838071
-0.04066395
-0.19690598
-0.043866575
-0.20582788
-0.047258674
-0.21516836
-0.050844603
-0.22495245
-0.054628485
-0.23520564
-0.058613532
-0.24595617
-0.062802484
-0.25723363
-0.067197506
-0.26906925
-0.071800233
-0.28149626
-0.076612341
-0.29454987
-0.081634437
-0.30826739
-0.086867359
-0.32268775
-0.092311799
-0.33785238
-0.097968146
-0.35380468
-0.10383631
-0.37059094
-0.10991704
-0.38825937
-0.11621073
-0.40686101
-0.12271723
-0.42645045
-0.12943688
-0.44708414
-0.13636975
-0.46882323
-0.14351593
-0.49173148
-0.15087454
-0.51587709
-0.1584457
-0.54133179
-0.16622782
-0.56817298
-0.17421928
-0.59648175
-0.18241799
-0.62634479
-0.19082058
-0.65785459
-0.19942317
-0.69110953
-0.2082201
-0.72621381
-0.2172049
-0.76327875
-0.2263693
-0.80242314
-0.23570249
-0.84377304
-0.24519251
-0.88746211
-0.25482431
-0.93363426
-0.26458046
-0.98244145
-0.27443957
-1.0340461
-0.28437693
-1.0886198
-0.29436309
-1.1463443
-0.30436466
-1.2074095
-0.31433925
-1.27202
-0.32424079
-1.3403793
-0.33401767
-1.4127128
-0.34360167
-1.4892653
-0.35292877
-1.5702901
-0.36191846
-1.6560847
-0.37048192
-1.7469607
-0.37851285
-1.8432366
-0.38590809
-1.9452699
-0.39256545
-2.0535239
-0.39840827
-2.1683246
-2.2902111
-0.00021095413
-0.046928133
-0.00078620351
-0.057648968
-0.0011826218
-0.057061222
-0.001843459
-0.06122586
-0.0023555831
-0.063500204
-0.0030296644
-0.066541099
-0.0036526799
-0.069756193
-0.0043694355
-0.07283837
-0.005114753
-0.076339831
-0.0059142352
-0.079804587
-0.0067731712
-0.083518817
-0.0076915945
-0.087358066
-0.0086780148
-0.091375797
-0.0097372329
-0.095565217
-0.01087592
-0.099936453
-0.012100789
-0.10449612
-0.013419016
-0.10925212
-0.014837931
-0.11421266
-0.016365962
-0.11938601
-0.018011024
-0.12478223
-0.019781376
-0.13041052
-0.021685917
-0.13628228
-0.023732768
-0.14240879
-0.025930613
-0.14880279
-0.02828814
-0.155478
-0.030812712
-0.16244947
-0.033512127
-0.16973301
-0.036393632
-0.17734634
-0.039463934
-0.18530798
-0.042728212
-0.19363911
-0.046192839
-0.20236046
-0.049861604
-0.2114966
-0.053739218
-0.22107161
-0.057828386
-0.231113
-0.062131848
-0.24164896
-0.066652462
-0.25270897
-0.071392066
-0.26432527
-0.076352106
-0.27653147
-0.08153423
-0.28936258
-0.086940154
-0.30285585
-0.092571297
-0.31705049
-0.098429355
-0.33198765
-0.10451589
-0.34771085
-0.1108334
-0.36426547
-0.11738411
-0.38169994
-0.12417029
-0.40006528
-0.13119545
-0.41941481
-0.13846197
-0.43980611
-0.14597371
-0.46129883
-0.15373388
-0.48395738
-0.16174617
-0.50784944
-0.17001333
-0.53304767
-0.17853907
-0.55962849
-0.18732657
-0.58767349
-0.19637824
-0.61727009
-0.20569642
-0.64851082
-0.2152831
-0.68149437
-0.22513894
-0.7163262
-0.23526398
-0.75311822
-0.24565691
-0.79199053
-0.2563162
-0.83306935
-0.2672372
-0.87649143
-0.27841452
-0.92240138
-0.28984054
-0.97095335
-0.30150507
-1.0223123
-0.31339519
-1.0766525
-0.32549479
-1.1341589
-0.33778154
-1.1950276
-0.35023286
-1.2594637
-0.36281618
-1.3276807
-0.37549025
-1.3999132
-0.3882204
-1.4764002
-0.40095041
-1.5574178
-0.4136258
-1.6432632
-0.42618097
-1.7342611
-0.43854696
-1.8307343
-0.45063229
-1.9330624
-0.46237028
-2.0416806
-0.47371001
-2.1568887
-2.2795942
-0.00018991701
-0.04673778
-0.00078478997
-0.057053661
-0.0011777634
-0.056667746
-0.0018314905
-0.060571607
-0.0023371131
-0.062994014
-0.0030134613
-0.065864154
-0.0036518941
-0.069117126
-0.0043760359
-0.072113555
-0.0051433914
-0.075571762
-0.0059645147
-0.078982708
-0.0068531922
-0.082629339
-0.0078085594
-0.08640185
-0.0088402181
-0.09034324
-0.0099542325
-0.09445025
-0.011158327
-0.09873135
-0.01246039
-0.10319298
-0.013868871
-0.1078425
-0.015392599
-0.11268773
-0.017040202
-0.11773713
-0.01882162
-0.12299946
-0.020745645
-0.12848506
-0.022821922
-0.13420447
-0.02505925
-0.14016983
-0.027466695
-0.14639361
-0.030052735
-0.15289012
-0.032825387
-0.15967485
-0.035791603
-0.16676469
-0.038958458
-0.17417723
-0.042331337
-0.18193269
-0.045916164
-0.1900517
-0.049716666
-0.19855719
-0.053736906
-0.20747338
-0.057980109
-0.21682519
-0.062448766
-0.22664088
-0.067145256
-0.23694872
-0.072071722
-0.24777844
-0.077229757
-0.25916282
-0.082621727
-0.27113471
-0.088249473
-0.28372961
-0.094115625
-0.296984
-0.10022298
-0.31093692
-0.1065748
-0.32562903
-0.11317516
-0.34110305
-0.12002821
-0.35740427
-0.1271387
-0.37458051
-0.13451246
-0.39268169
-0.14215522
-0.41176125
-0.1500735
-0.43187594
-0.15827392
-0.45308531
-0.16676385
-0.47545299
-0.1755507
-0.49904662
-0.18464281
-0.52393789
-0.19404777
-0.55020395
-0.20377381
-0.57792571
-0.2138286
-0.60719114
-0.22422088
-0.63809166
-0.23495778
-0.67072749
-0.246047
-0.70520353
-0.25749577
-0.74163206
-0.2693109
-0.7801336
-0.28149796
-0.82083555
-0.29406221
-0.86387494
-0.30700763
-0.90939759
-0.32033688
-0.95755896
-0.33405139
-1.0085252
-0.34815028
-1.0624728
-0.36263006
-1.1195895
-0.37748398
-1.1800745
-0.39270532
-1.2441331
-0.40827352
-1.311993
-0.42417443
-1.3838828
-0.44037842
-1.4600578
-0.45686061
-1.5407906
-0.47359238
-1.6263836
-0.49053165
-1.7171765
-0.50762959
-1.8135001
-0.52483009
-1.9157409
-0.54208967
-2.0243182
-0.55936759
-2.1395177
-2.2625356
-0.0001714214
-0.046565932
-0.00079505632
-0.056429602
-0.0011946965
-0.056267614
-0.0018595253
-0.059906271
-0.0023778653
-0.06247512
-0.0030695349
-0.065171902
-0.0037384978
-0.068447543
-0.0044861475
-0.071365247
-0.0052936731
-0.07476354
-0.0061588138
-0.078116829
-0.0071013365
-0.081686034
-0.0081211312
-0.085381226
-0.0092285441
-0.089234949
-0.010431293
-0.09324657
-0.011738437
-0.09742322
-0.013159311
-0.10177106
-0.014703673
-0.10629703
-0.016381638
-0.11100859
-0.018203485
-0.11591403
-0.020179149
-0.12102247
-0.022319044
-0.12634375
-0.024632767
-0.13188925
-0.027129504
-0.1376715
-0.029818425
-0.14370299
-0.032707286
-0.14999945
-0.035803344
-0.15657686
-0.039113766
-0.1634522
-0.042643365
-0.17064542
-0.046397308
-0.17817637
-0.050379454
-0.186067
-0.054593153
-0.19434074
-0.059041374
-0.20302219
-0.06372541
-0.21213795
-0.068648431
-0.22171439
-0.073811804
-0.23178158
-0.079217422
-0.24236874
-0.084868123
-0.25350767
-0.090766132
-0.26523185
-0.096915592
-0.27757486
-0.10332024
-0.29057357
-0.10998467
-0.30426616
-0.1169144
-0.31869236
-0.1241161
-0.33389374
-0.13159664
-0.34991537
-0.13936404
-0.36680391
-0.14742722
-0.38460839
-0.15579545
-0.40338187
-0.16447885
-0.42318024
-0.17348853
-0.44406205
-0.18283564
-0.46609087
-0.1925325
-0.48933314
-0.20259091
-0.51386105
-0.21302473
-0.53974969
-0.22384675
-0.56708098
-0.23507127
-0.59594135
-0.24671171
-0.62642306
-0.25878298
-0.65862481
-0.27129924
-0.6926522
-0.28427491
-0.72861722
-0.2977253
-0.76663945
-0.31166424
-0.80684772
-0.32610636
-0.84937822
-0.34106593
-0.89437709
-0.35655656
-0.94200044
-0.37259078
-0.9924154
-0.38918091
-1.0457988
-0.40633772
-1.1023398
-0.42407078
-1.1622389
-0.4423834
-1.2257078
-0.46128004
-1.2929736
-0.48075894
-1.3642715
-0.50081704
-1.4398592
-0.52144636
-1.5200153
-0.54263625
-1.6050462
-0.56438456
-1.6952845
-0.58666255
-1.7910887
-0.60945755
-1.8928292
-0.63273151
-2.0009472
-0.65644973
-2.115715
-2.2384761
-0.00015746828
-0.04640805
-0.00082325209
-0.055763406
-0.0012366852
-0.055853705
-0.0019315913
-0.059210872
-0.0024803162
-0.061925861
-0.0032005849
-0.064451069
-0.0039205694
-0.067726959
-0.004713086
-0.070572094
-0.0055837996
-0.073892152
-0.0065201695
-0.077179744
-0.0075459098
-0.080659537
-0.00866312
-0.084263214
-0.0098832163
-0.088014003
-0.011215998
-0.091912888
-0.012672064
-0.095966199
-0.01426251
-0.10017961
-0.015998491
-0.10455998
-0.017891257
-0.10911468
-0.019951943
-0.11385214
-0.022191358
-0.11878177
-0.024619609
-0.12391414
-0.027246616
-0.12926079
-0.030081546
-0.13483502
-0.0331319
-0.14065099
-0.036405165
-0.14672442
-0.039907265
-0.15307287
-0.04364302
-0.15971443
-0.047616716
-0.16666955
-0.051831439
-0.17395932
-0.056289488
-0.18160643
-0.060992577
-0.18963493
-0.065942757
-0.19806907
-0.071141441
-0.20693608
-0.076590351
-0.21626201
-0.08229194
-0.22607622
-0.088248849
-0.23640772
-0.094464515
-0.24728752
-0.10094401
-0.25874745
-0.10769168
-0.27082181
-0.11471459
-0.28354478
-0.1220196
-0.29695468
-0.12961604
-0.31108881
-0.13751233
-0.32598963
-0.14571928
-0.34169981
-0.15424886
-0.35826485
-0.16311271
-0.37573409
-0.17232449
-0.39415854
-0.18189865
-0.41359332
-0.19184989
-0.43409671
-0.20219454
-0.4557306
-0.21294885
-0.47856151
-0.22413113
-0.50265956
-0.23575884
-0.52810064
-0.24785115
-0.55496493
-0.26042823
-0.58333785
-0.2735103
-0.61331156
-0.28711821
-0.64498407
-0.30127452
-0.67845926
-0.31600143
-0.71384942
-0.33132152
-0.75127373
-0.34725868
-0.79085964
-0.36383737
-0.83274275
-0.38108205
-0.87706915
-0.39901722
-0.92399489
-0.41766913
-0.97368533
-0.43706274
-1.0263186
-0.45722287
-1.0820839
-0.47817375
-1.1411826
-0.49993712
-1.2038291
-0.52253696
-1.2702486
-0.54599041
-1.340684
-0.57031201
-1.4153964
-0.59551774
-1.4946644
-0.62162771
-1.5787913
-0.64865508
-1.6681178
-0.67661236
-1.7630042
-0.70551221
-1.8638211
-0.73536964
-1.9710039
-0.76610483
-2.0849107
-2.2068181
-0.00014954146
-0.04625811
-0.0008764009
-0.055036148
-0.0013088164
-0.05542083
-0.0020476894
-0.058471525
-0.0026474869
-0.061325549
-0.0034145695
-0.063683444
-0.0042086186
-0.066932333
-0.0050708222
-0.069709279
-0.006030408
-0.072931919
-0.0070693935
-0.076140072
-0.0082135735
-0.07951463
-0.0094686363
-0.083007381
-0.010847504
-0.08663432
-0.012362026
-0.090397501
-0.014024611
-0.094302698
-0.015847629
-0.098355617
-0.017843417
-0.10256316
-0.020023877
-0.10693313
-0.022400536
-0.11147432
-0.024984142
-0.11619693
-0.027784734
-0.12111223
-0.030810973
-0.12623316
-0.034070451
-0.13157405
-0.037569932
-0.13714991
-0.041314085
-0.14297856
-0.045307221
-0.1490779
-0.049551502
-0.15546818
-0.054049059
-0.16216987
-0.058801279
-0.1692048
-0.063808836
-0.17659639
-0.069072957
-0.18436812
-0.074594464
-0.19254464
-0.080375481
-0.20115188
-0.086418171
-0.21021585
-0.09272635
-0.21976425
-0.099303924
-0.22982599
-0.1061571
-0.2404298
-0.11329203
-0.25160752
-0.12071771
-0.26339066
-0.12844256
-0.2758139
-0.13647828
-0.28891233
-0.14483545
-0.30272433
-0.15352779
-0.31728924
-0.16256969
-0.33264902
-0.17197598
-0.34884876
-0.1817632
-0.36593602
-0.19194894
-0.38396082
-0.20255169
-0.40297731
-0.21359133
-0.42304238
-0.22508812
-0.44421753