/*--------------------------------*- C++ -*----------------------------------*\
  =========                 |
  \\      /  F ield         | OpenFOAM: The Open Source CFD Toolbox
   \\    /   O peration     | Website:  https://openfoam.org
    \\  /    A nd           | Version:  12
     \\/     M anipulation  |
\*---------------------------------------------------------------------------*/
FoamFile
{
    format      ascii;
    class       volScalarField;
    location    "0.093";
    object      T;
}
// * * * * * * * * * * * * * * * * * * * * * * * * * * * * * * * * * * * * * //

dimensions      [0 0 0 1 0 0 0];

internalField   nonuniform List<scalar> 
16000
(
294.65385
286.18337
289.43941
287.66668
288.77364
288.26395
288.68555
288.57285
288.76931
288.80217
288.92246
289.00648
289.11114
289.21319
289.3212
289.43252
289.54794
289.66734
289.79078
289.91827
290.04981
290.1854
290.32501
290.46857
290.61602
290.76725
290.92214
291.08053
291.24224
291.40704
291.57471
291.74496
291.9175
292.09199
292.26809
292.44541
292.62355
292.80211
292.98065
293.15874
293.33594
293.51181
293.68593
293.85787
294.02724
294.19366
294.35678
294.51626
294.67182
294.8232
294.97017
295.11255
295.25018
295.38294
295.51076
295.63358
295.75139
295.86423
295.97215
296.0753
296.17388
296.26816
296.35844
296.44516
296.52878
296.60988
296.6891
296.76714
296.84474
296.92263
297.0017
297.08292
297.16741
297.25612
297.34936
297.445
297.54005
297.64461
297.73178
297.85668
294.34019
285.77408
289.20182
287.30533
288.47894
287.9329
288.38924
288.2675
288.4781
288.51657
288.64374
288.73667
288.84846
288.95931
289.0757
289.19599
289.32056
289.4494
289.58253
289.71996
289.86167
290.00763
290.15777
290.31201
290.47024
290.63232
290.79808
290.96731
291.13978
291.31523
291.49336
291.67385
291.85633
292.04042
292.22571
292.41178
292.59817
292.78443
292.97009
293.15468
293.33774
293.51882
293.69748
293.87331
294.04591
294.21492
294.38002
294.54092
294.69736
294.84914
294.99606
295.13801
295.27488
295.40662
295.53319
295.6546
295.77089
295.88215
295.98848
296.09007
296.18715
296.28002
296.36902
296.45457
296.53717
296.61738
296.69583
296.77323
296.85031
296.92784
297.00669
297.08783
297.17233
297.26121
297.35448
297.44974
297.5461
297.64697
297.73466
297.86339
294.04142
285.39313
288.9172
286.98802
288.20115
287.64518
288.11525
288.00126
288.21671
288.26701
288.39964
288.50313
288.623
288.74358
288.86954
288.99983
289.13469
289.27411
289.41808
289.56659
289.71958
289.877
290.03874
290.20467
290.37465
290.54848
290.72594
290.90677
291.09068
291.27734
291.46639
291.65745
291.85008
292.04384
292.23825
292.43283
292.62709
292.8205
293.01258
293.20282
293.39074
293.57588
293.7578
293.9361
294.11041
294.28041
294.44581
294.60636
294.76188
294.9122
295.05723
295.19689
295.33116
295.46003
295.58356
295.70181
295.81488
295.92291
296.02608
296.1246
296.21875
296.30887
296.39531
296.47852
296.55898
296.63726
296.71398
296.78984
296.86558
296.94199
297.0199
297.10026
297.1841
297.27238
297.36482
297.45911
297.55508
297.65255
297.73861
297.87123
293.76753
285.04492
288.68643
286.70841
287.95744
287.39166
287.87564
287.77111
287.9919
288.05558
288.19471
288.30997
288.43925
288.57076
288.70756
288.8491
288.99546
289.14663
289.30258
289.46326
289.62859
289.79846
289.97273
290.15122
290.33373
290.52002
290.70979
290.90272
291.09845
291.29657
291.49666
291.69823
291.90081
292.10385
292.30684
292.50921
292.71042
292.90992
293.10718
293.30167
293.49292
293.68046
293.86388
294.0428
294.21691
294.38592
294.5496
294.7078
294.86038
295.00727
295.14844
295.2839
295.41371
295.53794
295.65672
295.77017
295.87847
295.98181
296.08042
296.17457
296.26457
296.35078
296.43359
296.51343
296.5908
296.66625
296.7404
296.81393
296.88759
296.96217
297.03849
297.11744
297.2
297.28702
297.37799
297.47083
297.56561
297.65969
297.74374
297.87914
293.51846
284.73354
288.47453
286.4749
287.75929
287.18055
287.67466
287.58425
287.80892
287.88862
288.03502
288.16339
288.30344
288.44703
288.5959
288.74985
288.90886
289.07291
289.24194
289.41587
289.59458
289.77792
289.96568
290.15764
290.35352
290.553
290.7557
290.96123
291.16913
291.3789
291.59002
291.80194
292.01407
292.22581
292.43657
292.64573
292.85269
293.05689
293.25775
293.45478
293.64748
293.83543
294.01826
294.19565
294.36733
294.53312
294.69286
294.84647
294.99393
295.13524
295.27048
295.39974
295.52316
295.64092
295.75318
295.86018
295.96215
296.05933
296.15201
296.24049
296.32512
296.40629
296.4844
296.55989
296.63324
296.705
296.77576
296.84622
296.91709
296.98918
297.06327
297.14019
297.22085
297.30593
297.39475
297.48556
297.57846
297.66871
297.75027
297.88751
293.29795
284.46577
288.29463
286.28139
287.58584
287.01829
287.52274
287.44698
287.67492
287.77188
287.92642
288.06868
288.22067
288.37725
288.53927
288.70671
288.87951
289.05761
289.24092
289.4293
289.62257
289.82051
290.02285
290.22927
290.43939
290.6528
290.86903
291.08755
291.3078
291.5292
291.7511
291.97286
292.1938
292.41325
292.63054
292.84502
293.05606
293.26306
293.46548
293.66283
293.85465
294.0406
294.22036
294.39369
294.56043
294.72049
294.87383
295.02046
295.16047
295.29399
295.42117
295.54222
295.65737
295.76685
295.87095
295.96994
296.06411
296.15378
296.23927
296.32091
296.3991
296.47422
296.54668
296.61693
296.68544
296.75274
296.81941
296.88611
296.95357
297.02256
297.09384
297.16817
297.24634
297.32885
297.41487
297.50313
297.59355
297.67942
297.75834
297.89639
293.10896
284.24362
288.14912
286.12489
287.45261
286.90664
287.40787
287.36231
287.58931
287.70714
287.87084
288.02776
288.19309
288.36395
288.54063
288.72311
288.9113
289.10507
289.30427
289.50867
289.718
289.93196
290.15015
290.37214
290.59744
290.8255
291.05572
291.28746
291.52003
291.75271
291.98476
292.21542
292.44395
292.6696
292.89165
293.10942
293.32228
293.52966
293.73103
293.92598
294.11413
294.29521
294.46903
294.63547
294.79448
294.94609
295.0904
295.22755
295.35774
295.48122
295.59825
295.70913
295.81417
295.91371
296.00809
296.09764
296.18271
296.26365
296.34083
296.41462
296.48541
296.5536
296.6196
296.68385
296.74681
296.80897
296.87092
296.93328
296.99678
297.06214
297.13008
297.20129
297.27645
297.35577
297.43838
297.52357
297.61088
297.69188
297.76814
297.9059
292.94952
284.06511
288.0346
286.00435
287.34734
286.82906
287.33464
287.29761
287.55398
287.69286
287.86829
288.04171
288.22283
288.41021
288.60383
288.80362
289.00941
289.22099
289.4381
289.66042
289.88757
290.11909
290.35446
290.59312
290.83441
291.07764
291.32205
291.56686
291.81124
292.05435
292.29533
292.53334
292.76756
292.99719
293.22151
293.43985
293.6516
293.85625
294.05338
294.24265
294.42383
294.59678
294.76145
294.91786
295.06613
295.20644
295.33902
295.46417
295.58219
295.69346
295.79834
295.89723
295.99053
296.07862
296.16191
296.24079
296.31564
296.38685
296.45481
296.5199
296.58251
296.64306
296.70194
296.75957
296.8164
296.87289
296.92961
296.98715
297.04621
297.10749
297.17164
297.23928
297.31093
297.38651
297.46519
297.54683
297.63035
297.70609
297.77986
297.91604
292.81453
283.92808
287.95437
285.92005
287.29348
286.82484
287.3217
287.34054
287.57266
287.73285
287.92357
288.11606
288.31595
288.52262
288.7359
288.95561
289.18151
289.41326
289.65049
289.89273
290.13944
290.39001
290.64375
290.89991
291.15766
291.41612
291.67439
291.9315
292.18649
292.43839
292.68626
292.92919
293.16632
293.39687
293.62012
293.83547
294.04241
294.24055
294.4296
294.60939
294.77986
294.94105
295.09309
295.23619
295.37063
295.49676
295.61497
295.72568
295.82935
295.92642
296.01738
296.1027
296.18282
296.25822
296.32931
296.39654
296.4603
296.52101
296.57904
296.6348
296.68868
296.74106
296.79233
296.8429
296.89316
296.94358
296.99468
297.04704
297.1013
297.15812
297.2181
297.28177
297.34947
297.42084
297.49516
297.5728
297.65186
297.72208
297.79372
297.92674
292.70287
283.83446
287.91371
285.88671
287.29348
286.82312
287.35264
287.40756
287.64933
287.83585
288.04546
288.25966
288.48138
288.71027
288.94608
289.18847
289.43709
289.69143
289.95096
290.21501
290.48286
290.75368
291.02656
291.30054
291.57459
291.84762
292.11855
292.38625
292.64964
292.90766
293.15931
293.40365
293.63984
293.86718
294.08505
294.29297
294.49061
294.67777
294.85435
295.02042
295.17613
295.32173
295.45756
295.58405
295.70166
295.81089
295.91229
296.00641
296.09379
296.17501
296.25058
296.32106
296.38693
296.44869
296.50679
296.56168
296.61376
296.66345
296.71112
296.75716
296.80195
296.84585
296.88922
296.93243
296.97587
297.01996
297.06519
297.11211
297.16131
297.21339
297.2689
297.32828
297.39165
297.45843
297.5281
297.60135
297.67524
297.73985
297.80991
297.93777
292.61813
283.79234
287.91841
285.9675
287.35252
286.9652
287.44642
287.54174
287.79612
288.01055
288.24313
288.48218
288.72906
288.9834
289.24481
289.51282
289.78683
290.06616
290.35003
290.63753
290.92768
291.21938
291.51149
291.80277
292.09197
292.3778
292.659
292.93431
293.20257
293.46267
293.71362
293.95455
294.18474
294.40362
294.61079
294.80599
294.98914
295.16028
295.31963
295.46749
295.60428
295.73049
295.8467
295.95351
296.05157
296.14154
296.22407
296.29983
296.36945
296.43354
296.4927
296.54747
296.59839
296.64595
296.6906
296.73279
296.77291
296.81135
296.84848
296.88465
296.92022
296.95552
296.99088
297.02665
297.06316
297.10082
297.14007
297.18142
297.2254
297.27256
297.32338
297.3782
297.43694
297.49885
297.56371
297.63221
297.70032
297.75933
297.82833
297.94929
292.56696
283.81464
287.9774
286.10509
287.45832
287.12561
287.60958
287.75133
288.02186
288.26689
288.52682
288.79438
289.07012
289.35344
289.64379
289.94042
290.2425
290.54905
290.85895
291.171
291.48387
291.79618
292.10646
292.41323
292.715
293.0103
293.29773
293.57599
293.84388
294.10038
294.34461
294.57589
294.79372
294.99782
295.18809
295.36459
295.52759
295.67746
295.81472
295.93998
296.05392
296.15729
296.25086
296.33541
296.41174
296.48061
296.54278
296.59897
296.64985
296.69608
296.73826
296.77693
296.81262
296.8458
296.87692
296.90638
296.93456
296.96182
296.98848
297.01488
297.04133
297.06812
297.09556
297.12394
297.15359
297.18485
297.21814
297.2539
297.29262
297.33477
297.38076
297.43084
297.48469
297.54158
297.60157
297.66502
297.72681
297.78036
297.84859
297.96126
292.55426
283.90761
288.10061
286.2946
287.63015
287.37487
287.85281
288.0435
288.33689
288.61584
288.90797
289.20838
289.51716
289.83338
290.1562
290.48452
290.8171
291.15259
291.48947
291.82613
292.16089
292.49198
292.81767
293.1362
293.44592
293.74525
294.03276
294.30721
294.56754
294.81293
295.0428
295.25681
295.45485
295.63703
295.80367
295.95526
296.09243
296.21594
296.32663
296.4254
296.51317
296.5909
296.65953
296.71996
296.77308
296.81974
296.86072
296.89677
296.92857
296.95675
296.98189
297.00453
297.02515
297.04419
297.06204
297.07908
297.09564
297.11203
297.12856
297.1455
297.16311
297.18168
297.20144
297.22268
297.24566
297.2707
297.29816
297.32843
297.36194
297.39907
297.44019
297.48539
297.53419
297.58597
297.6411
297.69926
297.75432
297.8026
297.86999
297.97318
292.58173
284.07874
288.29313
286.56974
287.87797
287.70633
288.18616
288.4293
288.75306
289.07056
289.40046
289.73882
290.08533
290.43861
290.79735
291.15996
291.52471
291.88973
292.25304
292.61258
292.96625
293.31199
293.64778
293.97172
294.28208
294.57736
294.85626
295.11782
295.36133
295.58641
295.79295
295.98112
296.15135
296.30425
296.44063
296.56143
296.66768
296.76049
296.84097
296.91028
296.96951
297.01977
297.06209
297.09745
297.12676
297.15087
297.17058
297.18659
297.19955
297.21006
297.21864
297.22577
297.23188
297.23735
297.24254
297.24775
297.25327
297.25937
297.26629
297.27427
297.28353
297.2943
297.3068
297.32124
297.33787
297.35697
297.37885
297.40383
297.43225
297.46446
297.50072
297.54097
297.58464
297.6313
297.68156
297.73422
297.78236
297.82546
297.89137
297.98496
292.65433
284.34113
288.55832
286.933
288.21305
288.13498
288.62352
288.92329
289.28609
289.64816
290.02209
290.40401
290.79301
291.18713
291.5844
291.98262
292.37945
292.77244
293.15909
293.53688
293.90338
294.25626
294.59343
294.91302
295.21349
295.49365
295.75268
295.99015
296.20597
296.40043
296.57406
296.72771
296.86238
296.97926
297.07963
297.16483
297.23626
297.29526
297.34319
297.38131
297.41085
297.43295
297.44867
297.45897
297.46475
297.46681
297.46588
297.4626
297.45755
297.45126
297.44418
297.43672
297.42923
297.42204
297.41543
297.40965
297.40493
297.40149
297.39951
297.39919
297.40072
297.40426
297.40999
297.41811
297.42882
297.44235
297.45895
297.4789
297.50245
297.52989
297.56137
297.59669
297.63521
297.67679
297.72209
297.76905
297.81036
297.84839
297.91183
297.99928
292.77635
284.71309
288.89234
287.39843
288.64965
288.6753
289.18311
289.54538
289.95694
290.37075
290.79519
291.22597
291.66135
292.09861
292.53501
292.96759
293.39334
293.80919
294.21213
294.59933
294.96816
295.31634
295.64199
295.94367
296.22043
296.47179
296.69774
296.89868
297.0754
297.22897
297.36072
297.47214
297.56484
297.64047
297.70072
297.74724
297.78162
297.80537
297.81992
297.82658
297.82658
297.82102
297.81089
297.7971
297.78046
297.76166
297.74136
297.72008
297.69834
297.67654
297.65507
297.63424
297.61434
297.59562
297.57828
297.56252
297.54852
297.53643
297.52639
297.51855
297.51304
297.51
297.50958
297.51192
297.51719
297.52558
297.53727
297.55249
297.57143
297.5943
297.62115
297.65162
297.68509
297.72168
297.76191
297.80291
297.83762
297.87128
297.93287
298.01294
292.95237
285.22415
289.30235
287.98397
289.20891
289.35075
289.89073
290.32258
290.79261
291.26521
291.74565
292.22896
292.71233
293.19209
293.66457
294.12597
294.57257
295.00078
295.40735
295.78944
296.14472
296.47146
296.76855
297.03552
297.27246
297.48
297.65924
297.81162
297.93885
298.04287
298.12567
298.18933
298.23589
298.26733
298.28557
298.29238
298.28943
298.27823
298.26016
298.23649
298.20833
298.17667
298.14239
298.10627
298.06898
298.03112
297.9932
297.95565
297.91886
297.88315
297.8488
297.81605
297.7851
297.75612
297.72926
297.70466
297.68242
297.66265
297.64545
297.63092
297.61915
297.61025
297.6043
297.60144
297.60179
297.60549
297.61268
297.62351
297.63813
297.65667
297.67905
297.70482
297.73345
297.76522
297.80032
297.83506
297.86331
297.89366
297.9544
298.02455
293.19384
285.9216
289.83161
288.72073
289.92168
290.19249
290.77887
291.28719
291.82406
292.36112
292.90077
293.43714
293.96598
294.48246
294.98187
295.45966
295.9117
296.33439
296.72486
297.08102
297.40159
297.68613
297.93497
298.14906
298.32995
298.4796
298.60026
298.69441
298.76458
298.81334
298.8432
298.85654
298.85564
298.84258
298.81929
298.78751
298.74881
298.70459
298.65608
298.60438
298.55044
298.49509
298.43905
298.38294
298.32728
298.27254
298.21908
298.16723
298.11726
298.0694
298.02382
297.9807
297.94014
297.90226
297.86714
297.83486
297.80547
297.77904
297.75561
297.73525
297.71801
297.70395
297.69314
297.68566
297.68161
297.68108
297.68416
297.69095
297.70155
297.716
297.73412
297.75538
297.77943
297.80665
297.83662
297.86489
297.88688
297.9148
297.97493
298.03478
293.52743
286.79144
290.5071
289.64586
290.82561
291.23525
291.88371
292.47515
293.08527
293.68959
294.28729
294.87116
295.43531
295.97381
296.48132
296.95326
297.386
297.77703
298.12493
298.42938
298.69105
298.91144
299.09273
299.23758
299.34901
299.43019
299.48436
299.51469
299.52427
299.51596
299.49245
299.45619
299.40938
299.35401
299.29184
299.22442
299.15309
299.07905
299.00331
298.92675
298.85011
298.77403
298.69906
298.62563
298.55413
298.48487
298.4181
298.35404
298.29283
298.23462
298.17951
298.12757
298.07887
298.03343
297.9913
297.9525
297.91703
297.88491
297.85617
297.83081
297.80885
297.79033
297.77528
297.76376
297.7558
297.75148
297.75084
297.75392
297.76079
297.7714
297.78544
297.80241
297.82218
297.84511
297.87008
297.89212
297.90838
297.9337
297.99147
298.04309
293.99327
287.77156
291.37071
290.79505
291.96467
292.52089
293.24812
293.92837
294.61334
295.28049
295.92529
296.53927
297.11551
297.64803
298.13227
298.56517
298.94522
299.27238
299.54788
299.77403
299.95394
300.09129
300.19006
300.2544
300.28841
300.29607
300.28111
300.24701
300.1969
300.13364
300.05976
299.97748
299.88874
299.79526
299.69847
299.59965
299.49987
299.40002
299.30087
299.20307
299.10715
299.01355
298.92262
298.83467
298.74991
298.66853
298.59068
298.51644
298.4459
298.3791
298.31607
298.25682
298.20134
298.14963
298.10167
298.05743
298.01688
297.98001
297.9468
297.91722
297.89126
297.86892
297.85022
297.83515
297.82375
297.81603
297.812
297.81169
297.81509
297.82206
297.83223
297.84518
297.86094
297.87978
297.89994
297.91639
297.92793
297.95021
298.00296
298.04924
294.64712
289.03675
292.47045
292.22025
293.39958
294.1076
294.92468
295.69138
296.43977
297.14905
297.81202
298.4204
298.96842
299.45238
299.87078
300.2241
300.51451
300.74553
300.92162
301.04785
301.12959
301.17223
301.18101
301.16085
301.11633
301.05158
300.97031
300.87577
300.77083
300.65797
300.53931
300.41669
300.29163
300.16547
300.03929
299.91401
299.7904
299.66908
299.55056
299.43526
299.32351
299.21556
299.11161
299.01182
298.91627
298.82505
298.73819
298.65571
298.57759
298.50382
298.43436
298.36916
298.30818
298.25136
298.19863
298.14993
298.10522
298.06442
298.02749
297.99439
297.96507
297.93949
297.91763
297.89949
297.88503
297.87426
297.86715
297.8637
297.86385
297.86738
297.87389
297.88307
297.89511
297.91002
297.92558
297.93711
297.94505
297.96484
298.01182
298.05115
295.54608
290.64693
293.89182
294.00091
295.20912
296.06267
296.9609
297.7898
298.56533
299.27059
299.89931
300.4468
300.9118
301.29574
301.60229
301.8368
302.00574
302.11615
302.17525
302.1901
302.16737
302.11322
302.03318
301.93217
301.81448
301.68384
301.54344
301.39598
301.24377
301.08871
300.93242
300.77622
300.62122
300.46831
300.31823
300.17156
300.02877
299.89024
299.75624
299.627
299.50265
299.38331
299.26904
299.15986
299.05577
298.95675
298.86275
298.77372
298.68959
298.61028
298.5357
298.46577
298.40038
298.33945
298.28289
298.2306
298.18249
298.13849
298.09851
298.06248
298.03033
298.002
297.97744
297.9566
297.93944
297.92591
297.91598
297.90961
297.90669
297.90694
297.91
297.91571
297.92431
297.93551
297.94674
297.954
297.95928
297.97727
298.01864
298.04874
296.67287
292.72661
295.74026
296.22063
297.45961
298.42979
299.36388
300.19473
300.9288
301.5574
302.08058
302.50124
302.82553
303.06162
303.21892
303.30731
303.33656
303.31596
303.25404
303.15842
303.0358
302.89198
302.7319
302.55974
302.379
302.19258
302.00289
301.81192
301.62126
301.43223
301.2459
301.0631
300.8845
300.71063
300.54188
300.37857
300.22092
300.06906
299.9231
299.78308
299.64902
299.52089
299.39864
299.28221
299.17151
299.06645
298.96692
298.8728
298.78399
298.70035
298.62176
298.54809
298.47923
298.41505
298.35543
298.30025
298.24941
298.2028
298.16031
298.12185
298.08733
298.05665
298.02975
298.00654
297.98696
297.97093
297.9584
297.94931
297.94348
297.94063
297.94046
297.94298
297.9484
297.95614
297.96349
297.96737
297.97093
297.98719
298.0225
298.04383
298.20237
295.38821
298.11104
298.93253
300.14647
301.17773
302.0582
302.79328
303.39203
303.8584
304.2029
304.43801
304.57762
304.63574
304.62577
304.55998
304.44926
304.30308
304.12949
303.93523
303.72592
303.50614
303.27967
303.04954
302.81819
302.58759
302.3593
302.13455
301.9143
301.69929
301.4901
301.28715
301.09075
300.9011
300.71835
300.54256
300.37376
300.21192
300.05699
299.90889
299.76753
299.63278
299.50452
299.38261
299.26691
299.15725
299.0535
298.95549
298.86306
298.77608
298.69437
298.6178
298.5462
298.47945
298.41739
298.3599
298.30684
298.25809
298.21352
298.17303
298.13649
298.1038
298.07485
298.04955
298.02779
298.0095
297.99458
297.98295
297.97438
297.96862
297.96547
297.96505
297.9675
297.97194
297.9758
297.97709
297.9798
297.99453
298.02331
298.03552
300.1776
298.7016
300.99992
302.11111
303.29479
304.15892
304.86492
305.39135
305.7607
305.99153
306.10512
306.1217
306.05991
305.93614
305.76439
305.55634
305.32157
305.06784
304.80136
304.52707
304.24887
303.96982
303.69229
303.41813
303.14877
302.88526
302.62842
302.37884
302.13693
301.90299
301.67718
301.45961
301.2503
301.04923
300.85632
300.67148
300.49458
300.32547
300.164
300.00999
299.86326
299.72364
299.59092
299.46493
299.34547
299.23236
299.1254
299.02442
298.92923
298.83965
298.75552
298.67665
298.60289
298.53408
298.47005
298.41067
298.35578
298.30525
298.25893
298.2167
298.17842
298.14396
298.1132
298.08603
298.06232
298.04197
298.02488
298.0109
297.99982
297.99139
297.98554
297.98241
297.98203
297.98335
297.98402
297.983
297.98486
297.99816
298.02071
298.02893
302.6267
302.65127
304.65526
305.62754
306.52079
307.13105
307.53688
307.75958
307.83563
307.79474
307.66376
307.46487
307.21612
306.93187
306.62336
306.29929
305.96634
305.62959
305.29289
304.95913
304.63046
304.30848
303.99434
303.68885
303.39258
303.10591
302.82903
302.56207
302.30502
302.05784
301.82042
301.59262
301.37425
301.16513
300.96505
300.77379
300.59111
300.41679
300.25059
300.09228
299.94163
299.79839
299.66236
299.5333
299.411
299.29523
299.1858
299.08249
298.98512
298.89347
298.80738
298.72665
298.6511
298.58057
298.51489
298.45389
298.39743
298.34534
298.29748
298.25371
298.21386
298.17782
298.14543
298.11656
298.09108
298.06887
298.04981
298.03371
298.02037
298.00959
298.00132
297.99571
297.99267
297.99119
297.98941
297.98672
297.98667
297.99995
298.0165
298.01896
305.69257
307.07917
308.40368
309.10365
309.58022
309.78886
309.81181
309.69091
309.46682
309.1699
308.82356
308.44523
308.04778
307.6406
307.2305
306.82238
306.41971
306.02497
305.63985
305.26549
304.90266
304.55178
304.2131
303.88666
303.57244
303.27029
302.98002
302.70141
302.43418
302.17805
301.93273
301.69791
301.4733
301.25858
301.05345
300.85762
300.67079
300.49267
300.32299
300.16147
300.00783
299.86184
299.72322
299.59173
299.46715
299.34923
299.23776
299.13252
299.03329
298.93988
298.85208
298.76971
298.69258
298.62051
298.55332
298.49086
298.43294
298.37942
298.33012
298.2849
298.2436
298.20607
298.17215
298.14171
298.11461
298.09072
298.06987
298.05189
298.03659
298.02378
298.01346
298.00566
298.00018
297.9961
297.99217
297.98853
297.98848
297.99769
298.00993
298.01189
309.64391
311.42238
311.9598
312.14462
312.08864
311.85346
311.5013
311.07451
310.60321
310.10806
309.60309
309.09776
308.59834
308.10895
307.63225
307.16987
306.72275
306.29137
305.87587
305.47618
305.09208
304.72325
304.3693
304.02983
303.70438
303.39252
303.0938
302.80777
302.534
302.27207
302.02156
301.78209
301.55325
301.3347
301.12606
300.92699
300.73717
300.55627
300.38398
300.22001
300.06408
299.9159
299.77522
299.64177
299.5153
299.39558
299.28237
299.17546
299.07462
298.97964
298.89032
298.80647
298.7279
298.65441
298.58583
298.52199
298.46272
298.40784
298.35719
298.31061
298.26794
298.22902
298.19369
298.16182
298.13325
298.10785
298.08544
298.06586
298.0489
298.03444
298.02242
298.01278
298.00526
297.99918
297.99394
297.98998
297.98919
297.9951
298.00299
298.00567
314.60238
314.96744
314.69344
314.32273
313.79805
313.20319
312.57354
311.93465
311.30066
310.68013
310.07784
309.49634
308.93681
308.39958
307.88447
307.391
306.91853
306.46629
306.03351
305.6194
305.22316
304.84403
304.48129
304.13425
303.80224
303.48463
303.18084
302.8903
302.61249
302.34691
302.09308
301.85055
301.61891
301.39773
301.18664
300.98527
300.79326
300.61029
300.43603
300.27016
300.11241
299.96247
299.82009
299.68499
299.55692
299.43565
299.32093
299.21254
299.11025
299.01386
298.92316
298.83795
298.75803
298.68322
298.61333
298.54819
298.48763
298.43148
298.37955
298.33169
298.28774
298.24753
298.21091
298.17773
298.14786
298.12114
298.09741
298.07648
298.0582
298.04241
298.02903
298.01794
298.00888
298.00138
297.99509
297.99046
297.9887
297.99239
297.99741
298.00105
316.5968
316.76118
316.18136
315.41693
314.63538
313.85313
313.09027
312.35438
311.64888
310.97474
310.33164
309.71861
309.13439
308.57757
308.04671
307.54042
307.05738
306.59632
306.15607
305.73555
305.33375
304.94972
304.58262
304.23163
303.896
303.57506
303.26814
302.97467
302.69406
302.42579
302.16937
301.92434
301.69026
301.4667
301.25327
301.04961
300.85536
300.67017
300.49373
300.32572
300.16585
300.01383
299.8694
299.73228
299.60223
299.479
299.36237
299.25209
299.14796
299.04975
298.95728
298.87032
298.7887
298.71222
298.6407
298.57397
298.51184
298.45416
298.40073
298.35141
298.30602
298.2644
298.2264
298.19187
298.16068
298.13267
298.10767
298.0855
298.06599
298.04899
298.03441
298.02212
298.01187
298.00332
297.99641
297.99153
297.98937
297.99033
297.9937
297.9983
310.95655
309.56893
305.83811
302.91409
301.62276
301.33323
301.26472
301.2621
301.14838
301.092
300.99318
300.91644
300.82833
300.74102
300.65425
300.56707
300.47928
300.39082
300.30172
300.21204
300.12185
300.03126
299.94038
299.84935
299.75829
299.66734
299.57663
299.48628
299.39643
299.30721
299.21872
299.1311
299.04446
298.95891
298.87456
298.79154
298.70995
298.62989
298.55149
298.47484
298.40006
298.32725
298.25652
298.18799
298.12174
298.05789
297.99653
297.93777
297.88168
297.82837
297.77791
297.7304
297.68589
297.64446
297.60617
297.57106
297.53917
297.51052
297.48511
297.46298
297.44417
297.42871
297.41657
297.40768
297.40188
297.39889
297.3983
297.3998
297.40327
297.40947
297.41933
297.43494
297.45694
297.48639
297.52342
297.56612
297.62475
297.68075
297.78708
297.84807
310.13725
307.14581
302.90905
300.8198
300.24229
300.24493
300.34794
300.35809
300.35102
300.32363
300.29779
300.26044
300.21744
300.16934
300.11733
300.06159
300.00254
299.94047
299.8757
299.80852
299.73923
299.66808
299.59534
299.52123
299.44599
299.36983
299.29296
299.21558
299.13788
299.06006
298.98228
298.90472
298.82755
298.75094
298.67504
298.60001
298.52599
298.45315
298.38162
298.31155
298.24308
298.17635
298.11148
298.04861
297.98787
297.92938
297.87326
297.81961
297.76854
297.72017
297.67457
297.63184
297.59205
297.55528
297.52158
297.491
297.46356
297.43929
297.41819
297.40027
297.38558
297.37412
297.36585
297.36066
297.35836
297.35864
297.3611
297.36548
297.37176
297.3808
297.39357
297.41217
297.43698
297.46929
297.50866
297.55434
297.6151
297.6741
297.78223
297.84356
308.68841
305.04112
301.88175
300.1692
299.83645
299.87647
299.90848
299.88184
299.85221
299.81918
299.78724
299.75193
299.71487
299.67504
299.63314
299.58888
299.54244
299.49383
299.44311
299.39039
299.33577
299.27936
299.2213
299.16171
299.10073
299.03852
298.97522
298.91101
298.84603
298.78047
298.71448
298.64825
298.58193
298.5157
298.44975
298.38423
298.31931
298.25518
298.19199
298.12992
298.06913
298.00977
297.95201
297.89599
297.84188
297.7898
297.7399
297.6923
297.64713
297.60451
297.56453
297.52729
297.49288
297.46137
297.43282
297.40727
297.38476
297.3653
297.34888
297.33552
297.32525
297.31806
297.31389
297.3126
297.31396
297.31765
297.32329
297.33068
297.3399
297.3519
297.36769
297.38935
297.41702
297.45221
297.49399
297.54267
297.60567
297.66756
297.77758
297.83926
307.47142
303.56265
300.69595
299.40122
299.34492
299.36148
299.37719
299.34127
299.32155
299.29233
299.26779
299.23857
299.20899
299.17754
299.14503
299.11091
299.07533
299.03817
298.99943
298.9591
298.9172
298.87376
298.82881
298.7824
298.73462
298.68554
298.63526
298.58388
298.53152
298.47832
298.4244
298.36991
298.31501
298.25985
298.20461
298.14944
298.09452
298.04003
297.98613
297.93302
297.88087
297.82984
297.78013
297.73188
297.68528
297.64048
297.59763
297.55687
297.51835
297.48218
297.44849
297.41738
297.38894
297.36325
297.34036
297.32032
297.30318
297.28892
297.27755
297.26907
297.26352
297.26086
297.261
297.26379
297.26897
297.27621
297.28516
297.29568
297.30797
297.32306
297.34198
297.36675
297.39734
297.4354
297.47963
297.53134
297.59662
297.66132
297.77321
297.83518
306.74308
302.32718
299.7175
298.76104
298.83172
298.80745
298.83116
298.79446
298.78598
298.76152
298.74544
298.72339
298.70242
298.67979
298.65663
298.63225
298.60681
298.58017
298.5523
298.52316
298.49272
298.46096
298.42788
298.39349
298.35782
298.3209
298.28279
298.24354
298.20324
298.16197
298.11984
298.07696
298.03346
297.98947
297.94514
297.90063
297.85608
297.81168
297.7676
297.72401
297.68109
297.63902
297.59799
297.55818
297.51975
297.48287
297.44772
297.41443
297.38317
297.35406
297.32723
297.30279
297.28083
297.26144
297.24467
297.23057
297.21917
297.21048
297.20448
297.20118
297.2006
297.20269
297.20735
297.21437
297.22351
297.23442
297.24679
297.26057
297.27605
297.29434
297.31646
297.3444
297.37792
297.41887
297.46557
297.52031
297.58791
297.65538
297.76907
297.83133
306.1617
301.12383
298.90098
298.14612
298.28761
298.23406
298.27699
298.24108
298.24714
298.22946
298.22413
298.21073
298.19935
298.1861
298.17254
298.15788
298.14228
298.12563
298.10792
298.08909
298.06913
298.04802
298.02573
298.00228
297.97765
297.95187
297.92495
297.89695
297.8679
297.83787
297.80692
297.77516
297.74267
297.70956
297.67597
297.64202
297.60786
297.57365
297.53954
297.50571
297.47232
297.43957
297.40762
297.37666
297.34685
297.31838
297.2914
297.26608
297.24257
297.221
297.20151
297.1842
297.16917
297.15649
297.14624
297.13845
297.13315
297.13034
297.13
297.13214
297.13677
297.14381
297.15314
297.16455
297.17776
297.19244
297.20835
297.22549
297.24427
297.26585
297.29125
297.32239
297.35886
297.40269
297.4519
297.50965
297.57955
297.64979
297.76517
297.82773
305.57111
300.05322
298.23566
297.58359
297.77221
297.69313
297.75509
297.71776
297.73597
297.72295
297.72646
297.72024
297.71667
297.71106
297.70538
297.69881
297.69149
297.68333
297.67431
297.66438
297.65352
297.6417
297.62889
297.61507
297.60025
297.5844
297.56755
297.54972
297.53092
297.5112
297.4906
297.4692
297.44707
297.4243
297.40098
297.37724
297.3532
297.329
297.30479
297.28071
297.25693
297.23361
297.21094
297.18906
297.16816
297.1484
297.12995
297.11295
297.09756
297.08392
297.07214
297.06234
297.0546
297.049
297.0456
297.04444
297.04554
297.04889
297.05447
297.06227
297.0723
297.08446
297.09861
297.11451
297.13189
297.15045
297.16998
297.19058
297.21275
297.23771
297.26644
297.30079
297.34022
297.38692
297.43867
297.49939
297.57151
297.64455
297.76147
297.82439
305.07585
299.09309
297.67482
297.06769
297.29401
297.19031
297.27056