/*--------------------------------*- C++ -*----------------------------------*\
  =========                 |
  \\      /  F ield         | OpenFOAM: The Open Source CFD Toolbox
   \\    /   O peration     | Website:  https://openfoam.org
    \\  /    A nd           | Version:  12
     \\/     M anipulation  |
\*---------------------------------------------------------------------------*/
FoamFile
{
    format      ascii;
    class       volScalarField;
    location    "0.131";
    object      alphat;
}
// * * * * * * * * * * * * * * * * * * * * * * * * * * * * * * * * * * * * * //

dimensions      [1 -1 -1 0 0 0 0];

internalField   nonuniform List<scalar> 
16000
(
4.8722238e-07
1.0779805e-05
2.101858e-05
2.5620056e-05
1.9806721e-05
2.7284969e-05
1.9241863e-05
2.6400472e-05
2.0568257e-05
2.8376649e-05
2.3877327e-05
2.8094172e-05
2.5622065e-05
2.6336205e-05
2.5465198e-05
2.5345487e-05
2.5103872e-05
2.5056772e-05
2.5094985e-05
2.5241298e-05
2.548756e-05
2.5833543e-05
2.6276911e-05
2.681804e-05
2.7459658e-05
2.8208674e-05
2.9074268e-05
3.0070943e-05
3.1216344e-05
3.2529527e-05
3.4031437e-05
3.5749812e-05
3.7720408e-05
3.9987301e-05
4.2604751e-05
4.563757e-05
4.9163074e-05
5.3273575e-05
5.8083397e-05
6.3734292e-05
7.0392926e-05
7.8255873e-05
8.7571009e-05
9.8642254e-05
0.00011183185
0.00012757481
0.00014641087
0.0001689986
0.00019614098
0.00022881808
0.0002682318
0.0003158603
0.00037351688
0.00044343249
0.00052835415
0.00063167986
0.00075762865
0.00091146189
0.0010997699
0.0011797561
0.0011805109
0.0011811855
0.0011817426
0.0011821503
0.0011823992
0.0011824715
0.0011823462
0.0011819949
0.0011813778
0.0011804374
0.001179119
0.0011774572
0.001175715
0.0011743893
0.0011733434
0.0011725744
0.0011721718
0.0011722841
0.0011714474
0.0011716272
4.4692792e-07
1.0215524e-05
2.129833e-05
2.3290325e-05
1.7854819e-05
2.44378e-05
1.7069476e-05
2.3104906e-05
1.8169473e-05
2.5058979e-05
2.1614549e-05
2.5321056e-05
2.3423178e-05
2.3853391e-05
2.3177663e-05
2.300057e-05
2.28025e-05
2.2749339e-05
2.2787818e-05
2.2922577e-05
2.3150902e-05
2.3472141e-05
2.3884629e-05
2.4388808e-05
2.4986863e-05
2.5685269e-05
2.6492023e-05
2.7420216e-05
2.8486546e-05
2.9709585e-05
3.1108849e-05
3.2709719e-05
3.4545322e-05
3.6656511e-05
3.9094093e-05
4.191906e-05
4.5204648e-05
4.9037687e-05
5.352479e-05
5.8800265e-05
6.5024362e-05
7.2382358e-05
8.1107919e-05
9.1491054e-05
0.00010387996
0.00011868853
0.0001364321
0.00015774162
0.00018338811
0.00021431324
0.00025167209
0.00029688879
0.00035171262
0.00041829954
0.00049930651
0.0005980232
0.00071853875
0.00086594844
0.0010466241
0.0011792322
0.0011799794
0.0011806114
0.001181134
0.0011815085
0.0011817241
0.001181762
0.0011816021
0.001181222
0.001180593
0.0011796695
0.0011783934
0.0011767898
0.0011751301
0.0011738653
0.0011728665
0.0011721178
0.0011717147
0.0011716641
0.0011714779
0.0011721337
3.9889807e-07
9.7756831e-06
2.013156e-05
2.1237017e-05
1.5970339e-05
2.1507324e-05
1.5185011e-05
2.0073643e-05
1.632287e-05
2.1976087e-05
1.9692914e-05
2.2534802e-05
2.1206245e-05
2.1351565e-05
2.0836773e-05
2.0635857e-05
2.0472472e-05
2.0424543e-05
2.0465683e-05
2.0593827e-05
2.0807706e-05
2.1107024e-05
2.149046e-05
2.1958728e-05
2.2513593e-05
2.3161292e-05
2.3908998e-05
2.4768591e-05
2.5755644e-05
2.6888241e-05
2.8184926e-05
2.9669207e-05
3.1372024e-05
3.333144e-05
3.5595188e-05
3.8220732e-05
4.1277668e-05
4.4848499e-05
4.9033327e-05
5.3958986e-05
5.9780417e-05
6.6674128e-05
7.4861539e-05
8.4619572e-05
9.628509e-05
0.00011025472
0.00012702309
0.0001471977
0.0001715226
0.00020090786
0.00023646928
0.00027958577
0.00033195247
0.00039566215
0.00047329562
0.00056804969
0.0006839013
0.00082580966
0.00099996666
0.0011788909
0.0011796199
0.0011801913
0.0011806594
0.0011809817
0.0011811462
0.001181133
0.001180923
0.0011804991
0.0011798426
0.0011789194
0.0011776696
0.0011761075
0.0011745412
0.0011733449
0.0011724013
0.0011716906
0.0011712717
0.0011711161
0.0011711452
0.0011719949
3.5751104e-07
9.4437955e-06
1.9083228e-05
1.9738245e-05
1.434523e-05
1.8975262e-05
1.3521493e-05
1.7529531e-05
1.4682372e-05
1.9357402e-05
1.7966204e-05
2.0069511e-05
1.9164346e-05
1.910167e-05
1.8707094e-05
1.8504809e-05
1.8371939e-05
1.8334829e-05
1.8381686e-05
1.8507165e-05
1.8710617e-05
1.8992182e-05
1.9350908e-05
1.9787918e-05
2.0304703e-05
2.0907423e-05
2.1602708e-05
2.2401483e-05
2.3318263e-05
2.4370739e-05
2.5576816e-05
2.6958418e-05
2.8544716e-05
3.0371383e-05
3.2483562e-05
3.4935682e-05
3.7794213e-05
4.1138268e-05
4.5062784e-05
4.9687662e-05
5.5163774e-05
6.1660995e-05
6.9390926e-05
7.8618888e-05
8.9673572e-05
0.00010293832
0.00011889138
0.00013812206
0.00016135365
0.00018947308
0.0002235664
0.00026497936
0.00031536736
0.00037677779
0.00045173747
0.00054337747
0.0006555948
0.00079325498
0.00096243636
0.0011707139
0.0011794619
0.0011799564
0.0011803526
0.0011806066
0.0011807052
0.0011806283
0.0011803577
0.0011798812
0.0011791892
0.0011782576
0.0011770265
0.0011754882
0.0011740092
0.0011728752
0.0011719836
0.0011713061
0.0011708649
0.0011706654
0.0011708221
0.0011712828
3.1984781e-07
9.1962695e-06
1.8175657e-05
1.9715011e-05
1.4324827e-05
1.6770803e-05
1.206409e-05
1.5350876e-05
1.3274847e-05
1.7104224e-05
1.6434992e-05
1.7854727e-05
1.7265046e-05
1.7061593e-05
1.6755559e-05
1.6567032e-05
1.6459163e-05
1.643345e-05
1.6484685e-05
1.6606842e-05
1.6799499e-05
1.7063409e-05
1.7398032e-05
1.7805022e-05
1.8285741e-05
1.884636e-05
1.949312e-05
2.0236192e-05
2.1089047e-05
2.2068944e-05
2.3193363e-05
2.4482915e-05
2.5965309e-05
2.7674163e-05
2.9652394e-05
3.1951799e-05
3.463606e-05
3.7781557e-05
4.1479357e-05
4.5842783e-05
5.10193e-05
5.7173824e-05
6.4510301e-05
7.3283188e-05
8.3814995e-05
9.6478733e-05
0.00011173915
0.00013017068
0.00015247944
0.00017953443
0.00021239732
0.00025238752
0.00030112822
0.00036063049
0.00043337821
0.0005224498
0.00063167774
0.00076585092
0.00093095756
0.0011344579
0.0011794873
0.0011798901
0.0011801977
0.0011803678
0.0011803867
0.0011802343
0.0011798933
0.0011793556
0.0011786187
0.0011776675
0.0011764473
0.0011749292
0.0011735343
0.001172459
0.0011716165
0.0011709686
0.001170506
0.0011702623
0.0011704343
0.0011708243
2.916347e-07
9.0439924e-06
1.7456152e-05
1.9439787e-05
1.4057727e-05
1.4847277e-05
1.1418831e-05
1.3555e-05
1.2343378e-05
1.5213037e-05
1.5099015e-05
1.5915608e-05
1.5536086e-05
1.5249349e-05
1.4998965e-05
1.4826476e-05
1.4734539e-05
1.4715726e-05
1.4767446e-05
1.4883962e-05
1.506482e-05
1.5311298e-05
1.5623073e-05
1.6002236e-05
1.645013e-05
1.6972894e-05
1.7576455e-05
1.8270394e-05
1.9067175e-05
1.9983595e-05
2.1036908e-05
2.2246666e-05
2.3639431e-05
2.5247115e-05
2.7110826e-05
2.9280192e-05
3.1816553e-05
3.479413e-05
3.8301532e-05
4.2446431e-05
4.7373218e-05
5.3243596e-05
6.025661e-05
6.8656915e-05
7.8763019e-05
9.0941074e-05
0.00010564578
0.00012344091
0.00014501973
0.00017123982
0.00020314533
0.00024203794
0.00028951867
0.00034757414
0.0004186603
0.00050582076
0.00061284468
0.00074446868
0.00090662126
0.0011066903
0.0011796849
0.0011799829
0.0011801872
0.0011802597
0.0011801865
0.0011799487
0.0011795297
0.001178924
0.0011781341
0.0011771527
0.0011759357
0.0011744376
0.0011731236
0.0011721035
0.0011713059
0.0011706832
0.0011702021
0.0011699091
0.0011700555
0.0011702238
2.6846932e-07
8.9574664e-06
1.6892777e-05
1.837501e-05
1.3934006e-05
1.3112437e-05
1.1449429e-05
1.2488613e-05
1.1851117e-05
1.3573692e-05
1.3903367e-05
1.4207128e-05
1.393694e-05
1.3613204e-05
1.3394027e-05
1.323771e-05
1.3157374e-05
1.314421e-05
1.3196121e-05
1.3307973e-05
1.3478972e-05
1.3710852e-05
1.4003204e-05
1.4274202e-05
1.4683646e-05
1.5164925e-05
1.5723157e-05
1.6367129e-05
1.7108097e-05
1.7962031e-05
1.8945923e-05
2.0078302e-05
2.1384672e-05
2.2895322e-05
2.4649681e-05
2.6695393e-05
2.9091606e-05
3.1910426e-05
3.5238868e-05
3.9475697e-05
4.4200625e-05
4.9842759e-05
5.6599051e-05
6.4705762e-05
7.4478666e-05
8.6280445e-05
0.00010055911
0.00011787165
0.00013890215
0.00016450281
0.00019570632
0.00023380443
0.00028038495
0.0003374204
0.00040735179
0.00049320355
0.00059873976
0.00072866544
0.0008888744
0.0010867165
0.0011800385
0.00118022
0.0011803088
0.0011802722
0.0011800968
0.0011797653
0.0011792622
0.0011785828
0.001177733
0.0011767111
0.001175489
0.0011740196
0.0011727832
0.001171815
0.0011710576
0.0011704567
0.0011699608
0.0011696117
0.0011696726
0.001169537
2.4090033e-07
8.9083831e-06
1.6414018e-05
1.6705668e-05
1.2742889e-05
1.1424079e-05
9.8839918e-06
1.1140198e-05
1.0402488e-05
1.2202319e-05
1.2701519e-05
1.2640482e-05
1.2413447e-05
1.2097344e-05
1.1903673e-05
1.1768484e-05
1.1702436e-05
1.1698124e-05
1.1682283e-05
1.1775385e-05
1.1927635e-05
1.213978e-05
1.240949e-05
1.2737553e-05
1.3128814e-05
1.3586999e-05
1.4117512e-05
1.472906e-05
1.5432291e-05
1.6242694e-05
1.7177482e-05
1.8254635e-05
1.949916e-05
2.0940325e-05
2.2616584e-05
2.4574339e-05
2.6871429e-05
2.9578674e-05
3.2782544e-05
3.6588399e-05
4.1124769e-05
4.6554409e-05
5.3074291e-05
6.142767e-05
7.096117e-05
8.2497673e-05
9.6482267e-05
0.00011346892
0.00013413634
0.00015933785
0.00019010103
0.00022771589
0.00027376668
0.00033022291
0.0003995243
0.00048469283
0.00058948704
0.00071860271
0.00087792422
0.0010747978
0.0011805289
0.0011805844
0.001180548
0.0011803936
0.0011801082
0.0011796766
0.0011790847
0.0011783273
0.0011774124
0.0011763417
0.0011751042
0.0011736782
0.0011725165
0.0011715973
0.0011708754
0.0011702941
0.0011697838
0.0011693689
0.0011693312
0.0011689907
2.2037083e-07
8.862369e-06
1.5919631e-05
1.4620427e-05
1.047535e-05
1.0153021e-05
8.1496821e-06
9.4996293e-06
9.6883497e-06
1.0977279e-05
1.1484571e-05
1.1186337e-05
1.0979593e-05
1.0696934e-05
1.0529116e-05
1.0344766e-05
1.0267765e-05
1.0257716e-05
1.0306752e-05
1.0412034e-05
1.0569403e-05
1.0780758e-05
1.1045432e-05
1.1363625e-05
1.1740276e-05
1.2180086e-05
1.2688509e-05
1.3274288e-05
1.3947656e-05
1.4723613e-05
1.5619701e-05
1.6653618e-05
1.7850203e-05
1.9238022e-05
2.0854947e-05
2.2746648e-05
2.4970201e-05
2.7595748e-05
3.070908e-05
3.4414664e-05
3.8841425e-05
4.4149811e-05
5.0539928e-05
5.8244144e-05
6.756036e-05
7.8859375e-05
9.3404982e-05
0.0001102219
0.00013071112
0.00015573323
0.00018631757
0.00022376062
0.00026965295
0.00032597236
0.00039517114
0.00048028598
0.00058508999
0.00071429262
0.00087379357
0.0010709669
0.0011811337
0.0011810561
0.0011808879
0.00118061
0.0011802093
0.0011796733
0.0011789891
0.0011781509
0.0011771673
0.0011760424
0.0011747767
0.0011734159
0.0011723264
0.0011714532
0.0011707625
0.0011702001
0.0011696779
0.0011691927
0.0011690647
0.001168755
2.0318579e-07
8.8175906e-06
1.4324207e-05
1.2733968e-05
8.4731051e-06
9.0248345e-06
7.2496547e-06
8.5737566e-06
8.9745209e-06
9.8236863e-06
1.0281945e-05
9.8634562e-06
9.6633438e-06
9.328857e-06
9.1502567e-06
9.0412202e-06
8.9988778e-06
9.0142808e-06
9.0812745e-06
9.1965124e-06
9.3610653e-06
9.5724227e-06
9.8333858e-06
1.0144265e-05
1.0510207e-05
1.0936341e-05
1.1428288e-05
1.199497e-05
1.2646366e-05
1.3397021e-05
1.426488e-05
1.5267705e-05
1.6430426e-05
1.7781225e-05
1.9357761e-05
2.1205435e-05
2.3381062e-05
2.5954718e-05
2.9012576e-05
3.2659601e-05
3.7024845e-05
4.2268321e-05
4.8593767e-05
5.6233639e-05
6.5488443e-05
7.6731278e-05
9.0422441e-05
0.00010710293
0.00012862476
0.00015368963
0.00018436042
0.00022194824
0.00026806058
0.00032469547
0.00039433246
0.00048004104
0.00058563048
0.00071584894
0.00087663777
0.0010754288
0.0011818282
0.0011816129
0.0011813096
0.0011809052
0.001180387
0.0011797439
0.0011789655
0.0011780451
0.001176991
0.0011758112
0.0011745035
0.0011732341
0.0011722141
0.0011713841
0.0011707206
0.0011701784
0.0011696504
0.0011690965
0.0011688813
0.0011686423
1.8731477e-07
8.7714867e-06
1.1384022e-05
1.0569251e-05
6.9620945e-06
8.0376269e-06
6.6113201e-06
7.7072188e-06
8.4025489e-06
8.77955e-06
9.1033257e-06
8.569397e-06
8.3180058e-06
8.0879493e-06
7.9582083e-06
7.8893634e-06
7.8766377e-06
7.9138424e-06
7.9965555e-06
8.1235149e-06
8.2922002e-06
8.5054468e-06
8.7650893e-06
9.0719342e-06
9.4312342e-06
9.8486017e-06
1.0329952e-05
1.0884455e-05
1.1522056e-05
1.2256934e-05
1.3040261e-05
1.4013067e-05
1.5143758e-05
1.6460104e-05
1.7999546e-05
1.9807257e-05
2.1939874e-05
2.4467468e-05
2.7476736e-05
3.107346e-05
3.5387985e-05
4.0900281e-05
4.7226942e-05
5.4881826e-05
6.4168228e-05
7.5462964e-05
8.9239023e-05
0.00010604966
0.00012659292
0.00015173967
0.00018422878
0.00022228312
0.00026900112
0.0003264136
0.00039704292
0.00048401086
0.00059118583
0.00072338238
0.00088661278
0.0010883956
0.0011825863
0.0011822313
0.0011817925
0.0011812615
0.0011806259
0.0011798756
0.0011790024
0.0011780002
0.0011768758
0.0011756456
0.0011743029
0.0011731329
0.0011721796
0.0011713906
0.0011707514
0.0011702303
0.0011697086
0.0011691021
0.0011687955
0.0011686056
1.7351019e-07
8.7283123e-06
8.9878223e-06
8.9930762e-06
6.1248963e-06
7.123526e-06
6.0755795e-06
6.9530283e-06
7.8220848e-06
7.8067947e-06
7.8245861e-06
7.3705868e-06
7.166473e-06
6.9995008e-06
6.9113074e-06
6.8759542e-06
6.8886161e-06
6.9452516e-06
7.0419908e-06
7.1788961e-06
7.3547794e-06
7.5716995e-06
7.8327216e-06
8.1391569e-06
8.4963551e-06
8.872017e-06
9.3409931e-06
9.8824866e-06
1.0506308e-05
1.1226169e-05
1.2058594e-05
1.3025071e-05
1.4149871e-05
1.5460895e-05
1.6996005e-05
1.8800913e-05
2.0933037e-05
2.3463466e-05
2.6480728e-05
3.0092942e-05
3.4433629e-05
3.966968e-05
4.6005652e-05
5.3686942e-05
6.3021891e-05
7.5040802e-05
8.9033609e-05
0.00010612968
0.00012703896
0.00015265827
0.00018408423
0.00022476733
0.00027248508
0.00033114868
0.00040333962
0.00049225312
0.00060184175
0.00073701701
0.00090389661
0.0011101146
0.0011833809
0.0011828869
0.0011823149
0.0011816597
0.0011809094
0.001180054
0.0011790874
0.0011780057
0.0011768129
0.0011755373
0.0011741959
0.0011731117
0.0011722217
0.0011714724
0.0011708566
0.0011703549
0.0011698436
0.0011692134
0.0011688509
0.0011687267
1.6122149e-07
8.6777023e-06
7.154465e-06
7.8997033e-06
5.4627407e-06
6.3090678e-06
5.6178845e-06
6.2867803e-06
7.1305588e-06
6.7014829e-06
6.6713148e-06
6.3231253e-06
6.1625399e-06
6.0465604e-06
5.9939799e-06
5.9875789e-06
6.0229087e-06
6.0974592e-06
6.2083237e-06
6.3562026e-06
6.540552e-06
6.7637586e-06
6.9995799e-06
7.3028984e-06
7.656679e-06
8.0658685e-06
8.5387052e-06
9.0840294e-06
9.7119136e-06
1.043633e-05
1.1274008e-05
1.224623e-05
1.3378738e-05
1.4699899e-05
1.6248286e-05
1.8070575e-05
2.0225578e-05
2.2785985e-05
2.5842969e-05
2.9508164e-05
3.3918506e-05
3.9244689e-05
4.5701754e-05
5.3541264e-05
6.3081123e-05
7.4716896e-05
8.8940221e-05
0.00010634575
0.00012879074
0.00015510751
0.00018740739
0.00022708944
0.00027851245
0.00033891163
0.00041324767
0.00050481238
0.00061766981
0.00075686131
0.0009286522
0.0011408251
0.0011841857
0.0011835555
0.001182855
0.0011820801
0.0011812198
0.0011802641
0.0011792078
0.0011780506
0.0011767938
0.0011754707
0.0011741795
0.0011731688
0.0011723374
0.0011716282
0.001171038
0.0011705513
0.0011700422
0.0011694209
0.001169069
0.0011690169
1.5032511e-07
8.6162171e-06
5.7437615e-06
6.909286e-06
4.8751998e-06
5.5861814e-06
5.2303104e-06
5.6087374e-06
6.2576917e-06
5.742617e-06
5.6598796e-06
5.4073637e-06
5.2878229e-06
5.2144798e-06
5.1935927e-06
5.2133999e-06
5.270057e-06
5.3621952e-06
5.4877245e-06
5.6266883e-06
5.8149811e-06
6.0421042e-06
6.3108165e-06
6.6246681e-06
6.9887082e-06
7.4083209e-06
7.8916752e-06
8.4483455e-06
9.0886796e-06
9.8268679e-06
1.0679819e-05
1.1669122e-05
1.2763059e-05
1.4095468e-05
1.5658137e-05
1.7498675e-05
1.9677522e-05
2.2269036e-05
2.5367091e-05
2.9087426e-05
3.3571566e-05
3.929154e-05
4.5930698e-05
5.4002316e-05
6.383515e-05
7.5835942e-05
9.051955e-05
0.00010850643
0.00013055679
0.00015906142
0.00019250856
0.00023361612
0.00028416725
0.00034969226
0.00042676851
0.00052170544
0.00063870983
0.00078298679
0.0009609989
0.0011807248
0.0011849754
0.0011842142
0.001183392
0.0011825037
0.0011815397
0.0011804906
0.0011793512
0.0011781236
0.0011768125
0.0011754364
0.0011742488
0.0011733008
0.0011725221
0.0011718552
0.0011712957
0.0011708198
0.0011702956
0.0011697024
0.0011694697
0.0011694374
1.4068496e-07
8.498174e-06
4.6681102e-06
6.0294182e-06
4.3515959e-06
4.9441799e-06
4.893834e-06
4.8704347e-06
5.3757815e-06
4.8875921e-06
4.7834338e-06
4.6098914e-06
4.529574e-06
4.4932394e-06
4.5013532e-06
4.5456229e-06
4.6229478e-06
4.7139857e-06
4.8488113e-06
5.0181979e-06
5.2233094e-06
5.4660543e-06
5.7499623e-06
6.0788118e-06
6.458302e-06
6.8941227e-06
7.394535e-06
7.9456146e-06
8.5993981e-06
9.3521247e-06
1.0220786e-05
1.1227037e-05
1.2397362e-05
1.3765044e-05
1.5369809e-05
1.7260876e-05
1.9501479e-05
2.2168831e-05
2.5360598e-05
2.9198438e-05
3.383042e-05
3.9443153e-05
4.6262365e-05
5.4566157e-05
6.469726e-05
7.7724747e-05
9.2994566e-05
0.00011171178
0.00013467314
0.0001628617
0.00019934458
0.00024220495
0.00029492641
0.0003597981
0.00044386154
0.00054289951
0.00066494261
0.00081539514
0.0010009685
0.001186578
0.0011857264
0.0011848424
0.0011839068
0.0011829129
0.0011818529
0.0011807187
0.001179505
0.0011782132
0.0011768657
0.0011755053
0.0011743954
0.0011735026
0.0011727705
0.0011721486
0.0011716257
0.0011711614
0.001170612
0.0011700463
0.0011699516
0.0011699353
1.3221086e-07
8.1748195e-06
3.9252055e-06
5.2495616e-06
3.886819e-06
4.3767256e-06
4.3581848e-06
4.2029459e-06
4.5246383e-06
4.1316762e-06
4.032565e-06
3.9221543e-06
3.8788455e-06
3.8753953e-06
3.910299e-06
3.9630826e-06
4.0535951e-06
4.1773536e-06
4.3336722e-06
4.5230142e-06
4.7472338e-06
5.0088139e-06
5.3117593e-06
5.6601709e-06
6.0463928e-06
6.4994662e-06
7.0178507e-06
7.6111185e-06
8.2913006e-06
9.0727305e-06
9.9728684e-06
1.1014283e-05
1.2224588e-05
1.3638387e-05
1.52982e-05
1.7255118e-05
1.9575838e-05
2.2341292e-05
2.5653256e-05
2.9640729e-05
3.44578e-05
4.0300575e-05
4.7409563e-05
5.6075372e-05
6.6660073e-05
7.9607924e-05
9.6313638e-05
0.00011590964
0.00013995684
0.0001694972
0.00020578593
0.00025277782
0.00030805743
0.00037609048
0.00045983339
0.00056828296
0.00069625444
0.00085397652
0.0010484527
0.0011873788
0.0011864186
0.0011854226
0.0011843829
0.0011832927
0.0011821454
0.0011809345
0.0011796568
0.0011783124
0.0011769284
0.0011756492
0.0011746134
0.0011737685
0.0011730763
0.0011725029
0.0011720202
0.0011715714
0.0011710024
0.0011704734
0.0011705078
0.0011706731
1.2498405e-07
7.7560383e-06
3.4605696e-06
4.5588169e-06
3.4747013e-06
3.7120422e-06
3.8860747e-06
3.5914455e-06
3.7540026e-06
3.4750824e-06
3.3974713e-06
3.3371282e-06
3.327718e-06
3.353941e-06
3.3966865e-06
3.4813864e-06
3.598087e-06
3.745645e-06
3.9243598e-06
4.1354921e-06
4.3814971e-06
4.6651619e-06
4.9812793e-06
5.3501349e-06
5.7708618e-06
6.2501864e-06
6.7961918e-06
7.4187985e-06
8.1302953e-06
8.9459421e-06
9.8837777e-06
1.0967366e-05
1.2225616e-05
1.3694915e-05
1.5354205e-05
1.7373361e-05
1.9769959e-05
2.2629261e-05
2.6214581e-05
3.0381322e-05
3.5420179e-05
4.1536716e-05
4.8987569e-05
5.8079036e-05
6.9191683e-05
8.279658e-05
9.9471542e-05
0.00011992554
0.00014632526
0.00017741914
0.00021562831
0.00026260369
0.0003234152
0.00039506421
0.0004832603
0.00059763159
0.00073239377
0.00089845787
0.0011031588
0.0011880985
0.0011870376
0.001185941
0.0011848075
0.0011836308
0.0011824057
0.0011811266
0.0011797926
0.0011784145
0.0011770227
0.0011758543
0.0011748913
0.0011740922
0.0011734331
0.0011729117
0.0011724706
0.0011720401
0.0011714571
0.0011709706
0.0011711396
0.0011713389
1.1929894e-07
6.7503196e-06
3.0652933e-06
3.9323603e-06
3.1198616e-06
3.0983014e-06
3.4157422e-06
3.0376409e-06
3.0919074e-06
2.91428e-06
2.8659661e-06
2.8464961e-06
2.8594762e-06
2.904836e-06
2.98606e-06
3.09879e-06
3.2410762e-06
3.4128797e-06
3.6153184e-06
3.8501278e-06
4.1141478e-06
4.420342e-06
4.7688886e-06
5.1645891e-06
5.6131758e-06
6.1215997e-06
6.6983152e-06
7.3536351e-06
8.1002463e-06
8.9343102e-06
9.9080278e-06
1.10312e-05
1.2333959e-05
1.3854056e-05
1.5638697e-05
1.774689e-05
2.0251567e-05
2.3244011e-05
2.6837451e-05
3.1171743e-05
3.6420497e-05
4.3105891e-05
5.0944965e-05
6.0519752e-05
7.2230617e-05
8.6575113e-05
0.00010416497
0.00012575294
0.00015366182
0.00018649323
0.00022684847
0.00027646673
0.00034077618
0.00041645716
0.00050962525
0.0006243559
0.00077292684
0.00094834225
0.0011645237
0.0011887275
0.0011875738
0.0011863884
0.0011851717
0.0011839184
0.0011826246
0.001181287
0.0011799043
0.0011785005
0.0011771812
0.001176105
0.0011752138
0.0011744648
0.0011738349
0.0011733611
0.001172964
0.0011725529
0.0011719679
0.0011715397
0.0011717658
0.0011720324
1.1474264e-07
4.73135e-06
2.7087842e-06
3.3515955e-06
2.6686585e-06
2.5843985e-06
2.9197393e-06
2.5444129e-06
2.5406761e-06
2.4421421e-06
2.4268367e-06
2.4349197e-06
2.4788849e-06
2.5584428e-06
2.6692325e-06
2.8087633e-06
2.9764019e-06
3.1728409e-06
3.3965287e-06
3.6546347e-06
3.9483853e-06
4.2811562e-06
4.6570481e-06
5.081045e-06
5.5591572e-06
6.0986294e-06
6.7082589e-06
7.3875816e-06
8.1678555e-06
9.0577096e-06
1.0077534e-05
1.1252653e-05
1.2614984e-05
1.4204603e-05
1.6071739e-05
1.8278972e-05
2.0904063e-05
2.4043724e-05
2.7818239e-05
3.2376806e-05
3.7904234e-05
4.4628294e-05
5.3223768e-05
6.3329994e-05
7.5698462e-05
9.0855313e-05
0.00010944791
0.00013227422
0.00016031746
0.0001965362
0.00023922975
0.00029173018
0.00035631733
0.00043989204
0.0005384736
0.00065987211
0.00081719597
0.0010028509
0.001190496
0.0011892604
0.001188023
0.0011867602
0.0011854708
0.0011841506
0.0011827958
0.0011814075
0.0011799926
0.0011785799
0.001177384
0.0011763882
0.001175562
0.0011748698
0.0011742894
0.0011738254
0.0011734806
0.0011730855
0.0011724985
0.001172153
0.0011724377
0.0011727107
1.0992975e-07
3.9303209e-06
2.3353985e-06
2.8166135e-06
2.3013784e-06
2.1554642e-06
2.4057753e-06
2.111329e-06
2.092551e-06
2.0546203e-06
2.0681625e-06
2.1107686e-06
2.1907092e-06
2.3010062e-06
2.4390778e-06
2.6040097e-06
2.7961518e-06
3.0145182e-06
3.2648012e-06
3.5483192e-06
3.8680611e-06
4.2276477e-06
4.6314097e-06
5.0845223e-06
5.5932048e-06
6.1649699e-06
6.8013303e-06
7.5254075e-06
8.3458427e-06
9.2797366e-06
1.0348603e-05
1.1579297e-05
1.3005592e-05
1.4669934e-05
1.6625736e-05
1.8939842e-05
2.1695206e-05
2.4994589e-05
2.8965737e-05
3.3766472e-05
3.9592611e-05
4.7024214e-05
5.5755353e-05
6.6429393e-05
7.9500224e-05
9.5524084e-05
0.00011518576
0.00013932902
0.0001705594
0.00020730973
0.00025248436
0.00030804326
0.00037639878
0.0004648576
0.00056919565
0.0006976924
0.00086428026
0.0010608652
0.0011909925
0.0011896948
0.001188386
0.0011870568
0.0011857042
0.0011843261
0.0011829192
0.0011814843
0.0011800472
0.0011787179
0.0011776171
0.0011766946
0.0011759217
0.0011752737
0.0011747502
0.0011743226
0.0011739974
0.0011736139
0.0011730551
0.0011727902
0.0011731261
0.0011733654
1.0668906e-07
3.1658537e-06
2.0137011e-06
2.2759257e-06
2.0001763e-06
1.7884626e-06
1.9276861e-06
1.7439238e-06
1.7406626e-06
1.751425e-06
1.7949726e-06
1.8754753e-06
1.9863042e-06
2.1235121e-06
2.2860932e-06
2.4743323e-06
2.6881428e-06
2.9312546e-06
3.2055106e-06
3.5136459e-06
3.8589331e-06
4.2452021e-06
4.6769441e-06
5.1594796e-06
5.6991941e-06
6.2994914e-06
6.9763165e-06
7.7384704e-06
8.6002536e-06
9.5796157e-06
1.0699344e-05
1.1987906e-05
1.3481129e-05
1.5223979e-05
1.7272987e-05
1.9699209e-05
2.2591427e-05
2.6058562e-05
3.0236562e-05
3.5292691e-05
4.1706927e-05
4.9249704e-05
5.8458087e-05
6.972268e-05
8.352203e-05
0.00010044515
0.0001212159
0.0001467266
0.00017968098
0.00021850923
0.00026624783
0.00032496691
0.00039722107
0.00049067787
0.00060097799
0.00073683735
0.00091296915
0.001120909
0.0011913883
0.0011900348
0.0011886675
0.0011872834
0.0011858764
0.0011844461
0.0011829954
0.001181532
0.0011800912
0.0011788857
0.0011778697
0.0011770147
0.0011762907
0.0011756836
0.001175213
0.0011748151
0.0011745064
0.0011741312
0.0011736344
0.0011734343
0.0011737902
0.0011739593
1.0532801e-07
2.4959982e-06
1.7356125e-06
1.7568498e-06
1.722622e-06
1.4744701e-06
1.5372118e-06
1.4511325e-06
1.4786282e-06
1.5243867e-06
1.6065755e-06
1.7175537e-06
1.8538362e-06
2.0138628e-06
2.1979288e-06
2.4072135e-06
2.6426791e-06
2.9078849e-06
3.2049596e-06
3.5369e-06
3.907149e-06
4.3196769e-06
4.779098e-06
5.2908518e-06
5.8614531e-06
6.4988337e-06
7.2127833e-06
8.0154808e-06
8.9118478e-06
9.9371644e-06
1.1108419e-05
1.2455794e-05
1.4017314e-05
1.5840695e-05
1.7985637e-05
2.0610528e-05
2.3665402e-05
2.7331028e-05
3.1752282e-05
3.7107761e-05
4.3617285e-05
5.1550988e-05
6.124238e-05
7.3101696e-05
8.7633825e-05
0.00010546055
0.00012734619
0.00015557911
0.00018886343
0.00022977238
0.00028007686
0.00034196063
0.00042207716
0.00051652175
0.00063281259
0.00077608857
0.00096175336
0.0011811508
0.0011916959
0.001190291
0.0011888748
0.0011874467
0.0011859976
0.0011845229
0.001183027
0.0011815414
0.0011801905
0.0011790702
0.001178129
0.0011773358
0.0011766623
0.0011760953
0.0011756322
0.00117529
0.00117499
0.0011746299
0.0011742125
0.0011740589
0.0011744085
0.0011745259
1.0690492e-07
1.9223693e-06
1.5038074e-06
1.3590779e-06
1.4396637e-06
1.2111641e-06
1.2513732e-06
1.2366303e-06
1.2968158e-06
1.3769613e-06
1.4877082e-06
1.6221572e-06
1.7789927e-06
1.9583378e-06
2.1614121e-06
2.3899652e-06
2.6457635e-06
2.9318642e-06
3.2508107e-06
3.6057326e-06
4.0001745e-06
4.4382e-06
4.9245254e-06
5.464711e-06
6.0654257e-06
6.7348035e-06
7.4829206e-06
8.3223899e-06
9.2690998e-06
1.0343149e-05
1.1569945e-05
1.2981659e-05
1.461882e-05
1.6532365e-05
1.8786022e-05
2.1459244e-05
2.4650826e-05
2.8483602e-05
3.3109454e-05
3.8716252e-05
4.5535852e-05
5.385323e-05
6.4016597e-05
7.6456989e-05
9.1703401e-05
0.0001113215
0.00013445793
0.00016286943
0.00019777973
0.00024069799
0.00029348314
0.00036179289
0.00044231513
0.00054144133
0.0006635407
0.00082193485
0.0010088645
0.0011934067
0.0011919331
0.0011904808
0.0011890216
0.0011875547
0.001186073
0.0011845718
0.0011830548
0.0011815651
0.0011803217
0.0011792706
0.0011783882
0.0011776432
0.0011770123
0.0011764985
0.0011760596
0.0011757331
0.0011754425
0.0011751021
0.001174749
0.0011746614
0.0011749917
0.0011750596
1.1257872e-07
1.4515005e-06
1.3156494e-06
1.0686842e-06
1.2848074e-06
9.9252494e-07
1.0573446e-06
1.0946826e-06
1.1817574e-06
1.2895405e-06
1.4213009e-06
1.573958e-06
1.7478923e-06
1.9442356e-06
2.1647017e-06
2.4113039e-06
2.6863345e-06
2.9921674e-06
3.3319199e-06
3.7086895e-06
4.1260962e-06
4.5882891e-06
5.1000888e-06
5.6671877e-06
6.2964248e-06
6.996157e-06
7.7767597e-06
8.6513069e-06
9.6363203e-06
1.0752792e-05
1.2027283e-05
1.3493516e-05
1.5194002e-05
1.7182202e-05
1.9525014e-05
2.2305859e-05
2.5628361e-05
2.9620879e-05
3.4442034e-05
4.0287532e-05
4.7722335e-05
5.6466671e-05
6.7150657e-05
8.022629e-05
9.6248603e-05
0.00011590059
0.00014002335
0.00016965286
0.00020606187
0.00025317075
0.00030864515
0.0003768871
0.00046088058
0.00056431953
0.00069852981
0.00085684607
0.0010521251
0.0011936184
0.0011921147
0.0011906254
0.0011891307
0.0011876279
0.001186112
0.0011845829
0.0011830599
0.0011816467
0.0011804771
0.0011794863
0.0011786515
0.0011779454
0.0011773483
0.0011768793
0.0011764629
0.0011761466
0.0011758587
0.0011755389
0.0011752519
0.0011752244
0.0011755235
0.0011755367
1.229935e-07
1.1473783e-06
1.1536838e-06
9.2793141e-07
9.3993871e-07
8.6793313e-07
9.2975786e-07
1.0091911e-06
1.1170614e-06
1.244406e-06
1.3920402e-06
1.5597431e-06
1.7487313e-06
1.9605339e-06
2.1970156e-06
2.4602593e-06
2.7525936e-06
3.0766136e-06
3.4352267e-06
3.8317076e-06
4.269776e-06
4.7537046e-06
5.2884678e-06
5.879956e-06
6.5352696e-06
7.2605101e-06
8.0702224e-06
8.976275e-06
1.0004796e-05
1.1163582e-05
1.2486573e-05
1.4009172e-05
1.5775974e-05
1.7842976e-05
2.0280189e-05
2.3174793e-05
2.6634981e-05
3.0794662e-05
3.5819187e-05
4.191244e-05
4.9325547e-05
5.836762e-05
6.9418773e-05
8.2944292e-05
9.9518747e-05
0.00011984828
0.00014609151
0.00017697807
0.00021492159
0.00026156289
0.00031892658
0.00038951752
0.00047643432
0.00058906264
0.00072202798
0.00088601971
0.0010884457
0.0011937871
0.0011922579
0.0011907408
0.0011892212
0.0011876942
0.0011861537
0.0011846017
0.0011830753
0.0011817615
0.0011806504
0.0011797109
0.0011789161
0.0011782426
0.001177673
0.0011772074
0.0011768385
0.001176526
0.0011762434
0.0011759474
0.0011757174
0.0011757307
0.0011759881
0.0011759429
1.4447536e-07
1.1866861e-06
9.9305787e-07
7.0782279e-07
7.6762314e-07
7.7554973e-07
8.5923694e-07
9.6149319e-07
1.0858085e-06
1.2279541e-06
1.3890745e-06
1.570091e-06
1.7725091e-06
1.9979722e-06
2.2483734e-06
2.5258227e-06
2.8326814e-06
3.1715928e-06
3.5455255e-06
3.9578267e-06
4.4122954e-06
4.913287e-06
5.4658618e-06
6.0759993e-06
6.7509008e-06
7.4994043e-06
8.3325334e-06
9.2641993e-06
1.031209e-05
1.1498729e-05
1.2852743e-05
1.4410457e-05
1.6217684e-05
1.8331967e-05
2.0825219e-05
2.378694e-05
2.7328137e-05
3.1586064e-05
3.6730048e-05
4.296863e-05
5.0558483e-05
6.0244042e-05
7.1644507e-05
8.5592706e-05
0.00010268006
0.00012363307
0.00014934706
0.00018092581
0.00021973117
0.00026744269
0.00032614087
0.00040207704
0.00049172275
0.00060218623
0.00073841551
0.00090657092
0.0011143212
0.0011939474
0.0011923913
0.0011908466
0.0011893035
0.0011877576
0.0011862043
0.0011846464
0.0011831323
0.001181891
0.0011808295
0.001179932
0.0011791707
0.0011785242
0.0011779844
0.001177534
0.0011771729
0.0011768625
0.0011765911
0.0011763201
0.001176125
0.0011761296
0.0011763131
0.0011762626
1.3772044e-07
7.9074205e-07
8.1409255e-07
6.0334735e-07
6.6064776e-07
7.2125117e-07
8.2350131e-07
9.4254126e-07
1.0799389e-06
1.2346955e-06
1.408058e-06
1.6012324e-06
1.8157537e-06
2.0533312e-06
2.3158978e-06
2.6056204e-06
2.9249281e-06
3.2765005e-06
3.6634455e-06
4.0891705e-06
4.5575597e-06
5.0730549e-06
5.6408047e-06
6.2668811e-06
6.958587e-06
7.7248795e-06
8.5769298e-06
9.528847e-06
1.0607275e-05
1.1821627e-05
1.3207099e-05
1.4800946e-05
1.6650086e-05
1.8813395e-05
2.1364382e-05
2.4394474e-05
2.8016992e-05
3.2372006e-05
3.7632298e-05
4.4010651e-05
5.1768801e-05
6.1228328e-05
7.2784046e-05
8.692269e-05
0.00010424229
0.00012547956
0.00015154251
0.00018516215
0.00022478683
0.00027349653
0.0003334178
0.00040718219
0.00049805581
0.00061009878
0.00074836805
0.00091917449
0.0011303895
0.0011941442
0.0011925619
0.0011909871
0.0011894123
0.0011878331
0.0011862488
0.0011846787
0.0011832299
0.001182029
0.0011810049
0.0011801392
0.0011794049
0.0011787802
0.0011782641
0.0011778298
0.0011774769