/*--------------------------------*- C++ -*----------------------------------*\
  =========                 |
  \\      /  F ield         | OpenFOAM: The Open Source CFD Toolbox
   \\    /   O peration     | Website:  https://openfoam.org
    \\  /    A nd           | Version:  12
     \\/     M anipulation  |
\*---------------------------------------------------------------------------*/
FoamFile
{
    format      ascii;
    class       volScalarField;
    location    "0.131";
    object      k;
}
// * * * * * * * * * * * * * * * * * * * * * * * * * * * * * * * * * * * * * //

dimensions      [0 2 -2 0 0 0 0];

internalField   nonuniform List<scalar> 
16000
(
0.048586275
0.021607204
0.022477101
0.016547192
0.014036377
0.012705641
0.011915716
0.011443021
0.011122758
0.010907096
0.010748037
0.010629616
0.010537234
0.010464133
0.010405286
0.01035754
0.010318544
0.010286626
0.010260581
0.010239241
0.010221536
0.010207153
0.01019561
0.010186331
0.010179073
0.010173494
0.010169409
0.010166647
0.010165068
0.010164539
0.010164938
0.010166161
0.010168125
0.010170763
0.010174013
0.010177819
0.010182124
0.01018687
0.010192003
0.010197467
0.010203198
0.010209128
0.01021519
0.010221317
0.010227434
0.010233467
0.010239356
0.010245052
0.010250507
0.010255678
0.010260517
0.010264971
0.010268985
0.010272506
0.010275487
0.010277886
0.010279669
0.010280795
0.010281216
0.010280862
0.010279624
0.010277363
0.010273936
0.010269173
0.010262882
0.01025484
0.010244772
0.010232328
0.010217003
0.010197989
0.01017435
0.010146149
0.01011679
0.010095002
0.010078453
0.010066728
0.010060379
0.010063294
0.010060703
0.010088217
0.045957101
0.020449082
0.021034568
0.015999168
0.013690138
0.012502094
0.011752351
0.01132571
0.011021412
0.010823081
0.010674348
0.010564722
0.01047877
0.010411168
0.010356841
0.010312972
0.01027731
0.010248278
0.010224784
0.010205818
0.01019022
0.010177722
0.010167957
0.010160314
0.010154599
0.010150465
0.010147731
0.010146236
0.010145845
0.010146435
0.010147885
0.010150092
0.010152973
0.010156456
0.010160482
0.010164994
0.010169936
0.010175252
0.010180886
0.010186784
0.010192888
0.01019913
0.010205447
0.010211773
0.010218039
0.010224172
0.010230113
0.010235812
0.010241227
0.010246318
0.010251043
0.010255356
0.010259206
0.010262542
0.010265318
0.010267496
0.010269041
0.010269917
0.01027008
0.010269467
0.010267983
0.010265494
0.010261859
0.010256902
0.010250422
0.010242185
0.010231923
0.010219329
0.010204016
0.010185315
0.01016228
0.010134981
0.010106961
0.01008614
0.010070426
0.010059309
0.010053635
0.010053821
0.010060093
0.01009072
0.042249419
0.019629333
0.019703609
0.015434027
0.013336057
0.012274273
0.011583243
0.011198686
0.01091787
0.010737798
0.010600283
0.010499897
0.010420858
0.010359043
0.010309534
0.010269775
0.010237674
0.010211734
0.010190951
0.010174499
0.010161157
0.010150667
0.01014279
0.010136881
0.010132793
0.010130182
0.010128873
0.010128713
0.01012957
0.010131328
0.010133873
0.010137101
0.010140927
0.010145279
0.010150097
0.010155321
0.010160898
0.010166771
0.010172884
0.010179184
0.010185616
0.010192116
0.010198621
0.01020507
0.0102114
0.010217539
0.01022343
0.010229026
0.010234289
0.010239184
0.010243675
0.010247723
0.010251281
0.010254304
0.010256748
0.010258577
0.010259758
0.01026026
0.010260041
0.010259044
0.010257182
0.010254331
0.010250351
0.010245066
0.010238266
0.01022971
0.010219136
0.010206278
0.01019084
0.010172292
0.010149689
0.010123077
0.010096668
0.01007702
0.010062314
0.010052082
0.01004664
0.010045743
0.010055523
0.010082181
0.038884279
0.019076653
0.01855183
0.014927831
0.013015533
0.012068318
0.011428406
0.01108272
0.010822806
0.010659301
0.010532501
0.010440658
0.010368217
0.010311872
0.010266967
0.010231144
0.010202469
0.010179525
0.010161357
0.010147347
0.010136217
0.010127687
0.01012166
0.010117453
0.010114962
0.010113846
0.010113938
0.010115086
0.010117164
0.010120061
0.010123665
0.010127874
0.010132599
0.010137768
0.010143318
0.010149188
0.010155325
0.010161673
0.010168175
0.010174781
0.010181437
0.010188085
0.010194663
0.010201116
0.010207385
0.010213406
0.010219122
0.01022449
0.010229475
0.01023405
0.010238185
0.010241846
0.010244996
0.010247593
0.010249596
0.010250971
0.01025169
0.010251721
0.01025103
0.010249561
0.010247236
0.010243938
0.010239531
0.010233839
0.010226649
0.010217715
0.010206787
0.010193633
0.010178037
0.010159601
0.010137408
0.010111293
0.010086511
0.010068046
0.010054391
0.010045024
0.010039675
0.010038641
0.010050065
0.010069944
0.035660869
0.018765625
0.017566937
0.014458834
0.012717183
0.011873579
0.011283209
0.010973374
0.010734052
0.010586065
0.010469768
0.010386076
0.010320094
0.01026906
0.010228663
0.010196699
0.010171394
0.010151421
0.010135832
0.010124239
0.010115321
0.010108755
0.01010457
0.010102078
0.010101172
0.010101553
0.010103043
0.010105495
0.010108785
0.010112804
0.010117443
0.0101226
0.010128185
0.01013412
0.010140342
0.010146789
0.010153406
0.010160138
0.010166932
0.010173736
0.010180502
0.010187174
0.010193699
0.010200024
0.010206097
0.010211862
0.010217265
0.010222267
0.01022684
0.010230962
0.010234609
0.010237757
0.010240374
0.010242424
0.010243871
0.010244682
0.010244832
0.010244293
0.010243032
0.010240999
0.010238119
0.010234285
0.010229362
0.010223177
0.010215519
0.010206144
0.010194812
0.010181325
0.010165516
0.010147109
0.010125296
0.010099689
0.010076573
0.010059331
0.010046759
0.010038223
0.010032981
0.010032027
0.010043606
0.010059151
0.03327835
0.018697227
0.01683718
0.01402904
0.012442625
0.011692429
0.011148996
0.010872035
0.010652514
0.010518823
0.01041271
0.010336705
0.010276972
0.010231054
0.010195029
0.01016682
0.010144809
0.010127768
0.01011472
0.010105511
0.010098797
0.010094224
0.01009185
0.010091121
0.010091757
0.010093629
0.010096509
0.010100251
0.01010473
0.010109839
0.010115471
0.010121522
0.010127901
0.010134526
0.010141332
0.010148256
0.010155242
0.010162239
0.010169194
0.010176059
0.010182789
0.010189338
0.010195656
0.010201698
0.01020742
0.010212774
0.010217714
0.010222204
0.010226222
0.010229752
0.010232779
0.010235286
0.010237248
0.010238636
0.010239417
0.010239562
0.010239046
0.010237845
0.010235929
0.010233249
0.010229737
0.010225288
0.010219774
0.010213025
0.010204835
0.010194971
0.010183204
0.010169357
0.010153297
0.01013484
0.010113381
0.010088348
0.010066922
0.010050939
0.010039457
0.010031717
0.010026647
0.010025801
0.010036756
0.010047576
0.031315766
0.018794291
0.016318391
0.01363506
0.012189626
0.011524175
0.01102553
0.010778545
0.010578091
0.010457506
0.010361232
0.010292514
0.010238836
0.010197882
0.01016613
0.010141613
0.010122852
0.01010874
0.010098229
0.010091393
0.010086877
0.010084456
0.010083785
0.010085019
0.010087031
0.010090388
0.010094646
0.010099657
0.010105292
0.010111444
0.010118006
0.010124875
0.010131956
0.010139167
0.010146438
0.010153708
0.010160922
0.010168031
0.010174987
0.010181746
0.010188271
0.010194522
0.010200459
0.010206045
0.010211245
0.010216022
0.010220338
0.010224161
0.010227477
0.010230276
0.010232551
0.010234292
0.010235483
0.010236098
0.010236111
0.010235493
0.010234223
0.010232278
0.010229628
0.01022623
0.010222015
0.010216886
0.010210717
0.010203344
0.010194571
0.010184178
0.01017195
0.010157726
0.010141386
0.0101228
0.010101651
0.010077393
0.010057665
0.010042966
0.01003256
0.010025583
0.01002077
0.010019955
0.010029575
0.010035378
0.028696488
0.018981575
0.015897371
0.013274393
0.011956721
0.011368579
0.010912232
0.010692752
0.010510433
0.010401994
0.010315256
0.010253531
0.010205771
0.010169693
0.010142161
0.010121316
0.010105797
0.010094636
0.01008669
0.010082209
0.010079836
0.01008015
0.010080746
0.010083434
0.010087362
0.010092187
0.010097797
0.010104034
0.010110767
0.010117885
0.010125284
0.010132857
0.010140512
0.010148163
0.010155741
0.010163186
0.010170446
0.010177476
0.010184237
0.010190692
0.010196811
0.010202565
0.010207926
0.010212866
0.010217361
0.010221385
0.01022491
0.010227912
0.010230381
0.010232315
0.010233712
0.010234571
0.010234882
0.010234626
0.01023378
0.010232316
0.010230215
0.010227454
0.010224007
0.01021983
0.010214857
0.010208994
0.010202121
0.010194079
0.010184684
0.010173734
0.010161028
0.010146412
0.010129778
0.010111
0.010090075
0.0100669
0.010048865
0.010035467
0.010026109
0.010019868
0.01001539
0.010014516
0.010022542
0.010024378
0.026781676
0.01917008
0.0154055
0.012943818
0.011742273
0.011224831
0.010808444
0.010613906
0.010449597
0.01035252
0.010275012
0.010220057
0.010178097
0.010146836
0.010123495
0.010106325
0.010094056
0.010085863
0.010080555
0.010078272
0.010077602
0.010079882
0.010083244
0.010087693
0.010093139
0.010099407
0.010106311
0.010113698
0.010121432
0.010129398
0.010137492
0.010145611
0.01015366
0.010161556
0.010169233
0.010176635
0.010183715
0.010190438
0.010196771
0.010202691
0.010208177
0.010213214
0.010217788
0.010221881
0.010225482
0.010228577
0.010231148
0.010233179
0.010234665
0.010235609
0.010236016
0.010235891
0.010235229
0.010234017
0.010232235
0.010229857
0.010226863
0.010223231
0.010218935
0.010213933
0.01020816
0.010201525
0.010193914
0.010185174
0.010175133
0.010163607
0.010150408
0.01013539
0.01011846
0.010099467
0.010078616
0.010056949
0.010040586
0.010028493
0.010020142
0.010014611
0.010010568
0.010009592
0.010016037
0.010016416
0.025169979
0.019341999
0.014732443
0.012640568
0.01154623
0.011093361
0.010715003
0.010543088
0.01039615
0.010309531
0.010240929
0.010192554
0.010156281
0.010129793
0.010110625
0.010097141
0.010088147
0.010082885
0.010080404
0.010078076
0.010083013
0.010086573
0.010091638
0.010097792
0.010104786
0.010112416
0.010120514
0.010128923
0.010137504
0.010146141
0.010154729
0.01016317
0.010171375
0.010179264
0.010186776
0.010193864
0.010200493
0.010206636
0.010212278
0.010217405
0.010222013
0.010226102
0.01022967
0.010232714
0.010235236
0.010237234
0.010238699
0.010239624
0.010240007
0.010239855
0.010239178
0.010237985
0.010236276
0.010234044
0.010231269
0.010227927
0.010223995
0.010219453
0.010214273
0.010208415
0.010201814
0.010194384
0.010186016
0.010176565
0.010165866
0.010153753
0.010140055
0.010124626
0.010107407
0.010088245
0.010067278
0.010047601
0.010032878
0.010022074
0.010014682
0.010009842
0.010006363
0.01000535
0.010010114
0.010009473
0.023631082
0.019484896
0.014191854
0.012362523
0.01136909
0.01097453
0.010632414
0.010480962
0.010350259
0.010273419
0.010213424
0.010171502
0.010140832
0.0101191
0.010104106
0.010094334
0.010088667
0.010086088
0.010086919
0.010089956
0.010093703
0.010099549
0.010106476
0.010114259
0.010122679
0.010131537
0.01014066
0.010149892
0.010159093
0.010168146
0.010176951
0.010185419
0.010193468
0.01020103
0.010208056
0.01021451
0.010220374
0.010225635
0.010230295
0.010234359
0.010237838
0.010240745
0.010243097
0.010244905
0.010246179
0.01024693
0.01024716
0.010246867
0.010246051
0.010244723
0.010242893
0.010240573
0.010237768
0.010234471
0.010230667
0.01022633
0.010221436
0.010215962
0.01020988
0.01020315
0.010195711
0.010187476
0.010178345
0.010168181
0.010156827
0.010144126
0.010129927
0.010114089
0.010096581
0.010077377
0.010056441
0.010038909
0.010025776
0.01001623
0.010009751
0.010005581
0.010002774
0.010001899
0.010004989
0.01000318
0.022268973
0.019615169
0.013722958
0.012109882
0.011210759
0.010867973
0.010560465
0.010427247
0.010312257
0.010244658
0.010192993
0.010157453
0.010132335
0.010115369
0.010104573
0.010098538
0.010096282
0.010097075
0.010100107
0.010105091
0.010111799
0.010119539
0.010128185
0.010137455
0.010147122
0.010156984
0.010166872
0.010176632
0.010186129
0.010195251
0.010203907
0.010212021
0.01021953
0.010226383
0.010232547
0.010238008
0.010242764
0.010246825
0.01025021
0.010252943
0.010255051
0.010256566
0.010257515
0.010257923
0.010257812
0.0102572
0.010256096
0.010254504
0.010252426
0.01024987
0.010246847
0.01024337
0.010239443
0.010235064
0.010230217
0.010224876
0.010219013
0.010212603
0.010205617
0.010198016
0.010189739
0.010180705
0.010170818
0.010159951
0.010147954
0.010134674
0.010119984
0.010103756
0.010085952
0.010066809
0.010046548
0.010030925
0.010019307
0.010010969
0.01000537
0.010001835
0.0099997031
0.0099991985
0.01000113
0.0099986899
0.02103741
0.019702534
0.013292885
0.011882616
0.011070802
0.010773698
0.010499286
0.010382527
0.01028249
0.010223772
0.010180215
0.010151045
0.010131471
0.010119302
0.010112747
0.010110495
0.010111605
0.010115373
0.010121253
0.010128732
0.01013739
0.010146965
0.010157136
0.010167641
0.010178257
0.010188783
0.010199056
0.010208931
0.010218285
0.010227022
0.010235067
0.010242369
0.010248888
0.010254599
0.010259495
0.010263585
0.01026689
0.010269442
0.010271278
0.01027244
0.010272973
0.010272919
0.010272319
0.010271207
0.010269614
0.010267563
0.010265067
0.010262134
0.010258765
0.010254964
0.010250739
0.010246102
0.010241056
0.0102356
0.010229718
0.010223383
0.010216565
0.010209232
0.010201356
0.010192897
0.010183799
0.010173982
0.010163355
0.010151802
0.010139181
0.010125347
0.010110185
0.010093604
0.010075527
0.010056375
0.010037605
0.010023705
0.010013491
0.010006295
0.01000156
0.0099986173
0.0099970209
0.0099970568
0.0099986393
0.0099960192
0.019928808
0.01970843
0.012902899
0.011678716
0.010948449
0.010691737
0.010448987
0.010347138
0.010261427
0.01021141
0.010175822
0.010153056
0.010139058
0.010131742
0.010129473
0.01013103
0.010135527
0.010142289
0.01015075
0.010160463
0.010171046
0.010182151
0.010193504
0.010204847
0.010215962
0.010226659
0.010236789
0.01024623
0.010254882
0.010262677
0.01026957
0.010275541
0.010280584
0.010284707
0.010287932
0.010290293
0.010291835
0.010292609
0.010292672
0.010292079
0.010290885
0.010289144
0.010286905
0.010284206
0.010281084
0.010277562
0.010273659
0.010269382
0.010264729
0.0102597
0.010254296
0.010248524
0.010242388
0.010235882
0.010228994
0.010221695
0.010213951
0.010205725
0.010196986
0.010187696
0.010177801
0.010167227
0.010155885
0.010143668
0.010130452
0.010116099
0.010100497
0.010083605
0.010065375
0.010046058
0.010029628
0.010017289
0.010008344
0.010002208
0.0099983274
0.0099959546
0.009994683
0.0099952205
0.0099975333
0.0099948389
0.018930245
0.019491225
0.012550924
0.01149713
0.010843488
0.010622318
0.010409875
0.010321749
0.010249791
0.010208475
0.010180776
0.010164486
0.010156116
0.010153697
0.010155724
0.010161049
0.010168827
0.010178406
0.010189248
0.010200893
0.010212965
0.010225139
0.010237139
0.010248724
0.010259698
0.010269899
0.010279206
0.010287534
0.010294827
0.010301056
0.010306217
0.010310329
0.010313424
0.010315546
0.010316745
0.01031708
0.010316616
0.01031542
0.010313558
0.010311098
0.010308099
0.01030462
0.010300712
0.010296417
0.01029177
0.010286798
0.010281514
0.010275926
0.010270031
0.01026382
0.010257288
0.010250433
0.010243255
0.01023575
0.010227901
0.010219683
0.010211056
0.01020198
0.010192418
0.010182331
0.010171672
0.010160373
0.010148347
0.010135497
0.010121717
0.010106889
0.010090896
0.010073714
0.010055577
0.010037062
0.010022582
0.010011697
0.010003884
0.0099987056
0.0099956527
0.0099938679
0.0099928297
0.009993635
0.0099968194
0.0099947923
0.018026498
0.018636346
0.012234257
0.011337139
0.010756175
0.010565848
0.010382499
0.010307323
0.010248652
0.010216142
0.010196311
0.01018656
0.010183836
0.010186288
0.010192515
0.010201436
0.010212235
0.010224274
0.010237029
0.010250051
0.010262977
0.010275495
0.010287361
0.010298369
0.010308367
0.010317242
0.010324927
0.010331388
0.010336627
0.010340665
0.010343544
0.010345324
0.010346075
0.010345871
0.010344786
0.010342898
0.010340284
0.010337019
0.010333174
0.010328819
0.010324014
0.010318816
0.010313274
0.010307428
0.010301311
0.010294948
0.010288349
0.010281518
0.010274449
0.010267127
0.010259539
0.010251674
0.010243525
0.010235083
0.010226335
0.010217253
0.010207799
0.010197925
0.010187588
0.010176749
0.010165364
0.010153375
0.010140703
0.010127258
0.010112947
0.010097682
0.010081373
0.010063967
0.010045851
0.010029177
0.010016471
0.010006925
0.010000127
0.0099957986
0.0099935053
0.0099923131
0.0099915923
0.0099927179
0.0099965952
0.0099968503
0.017209639
0.017276782
0.011955041
0.011198487
0.010685585
0.010523264
0.010367917
0.01030528
0.010259463
0.010235887
0.01022388
0.010220652
0.010223482
0.010230629
0.010240772
0.010252884
0.010266171
0.010280011
0.010293899
0.010307414
0.010320228
0.010332078
0.010342778
0.010352191
0.010360234
0.010366869
0.010372099
0.010375958
0.010378503
0.010379812
0.01037997
0.010379072
0.010377214
0.010374491
0.010370994
0.010366808
0.010362014
0.010356687
0.010350895
0.010344702
0.010338164
0.01033133
0.010324245
0.010316943
0.010309452
0.010301791
0.010293971
0.010285989
0.010277836
0.010269493
0.010260938
0.010252149
0.010243111
0.010233812
0.010224234
0.010214354
0.010204133
0.01019352
0.010182464
0.010170922
0.010158854
0.010146214
0.010132935
0.010118936
0.010104136
0.010088461
0.010071882
0.010054467
0.010036656
0.010022319
0.010011237
0.010002937
0.009997073
0.0099935011
0.009991872
0.0099912059
0.0099908071
0.0099923157
0.0099967075
0.0099976734
0.016475524
0.016415595
0.011719356
0.011081573
0.010632623
0.010495962
0.010367631
0.010317305
0.010283924
0.010269347
0.010265042
0.010268167
0.010276252
0.010287644
0.010301088
0.010315603
0.010330425
0.010344972
0.010358793
0.010371535
0.010382952
0.010392873
0.010401206
0.010407913
0.010413007
0.010416535
0.010418576
0.010419229
0.010418605
0.010416822
0.010413998
0.010410249
0.010405685
0.010400409
0.010394513
0.010388081
0.010381189
0.010373903
0.010366282
0.010358381
0.010350244
0.010341911
0.010333418
0.010324791
0.010316051
0.010307214
0.010298285
0.01028926
0.010280125
0.010270859
0.010261433
0.010251816
0.010241982
0.01023191
0.010221581
0.010210972
0.010200047
0.010188756
0.010177043
0.010164855
0.010152153
0.010138904
0.010125057
0.010110544
0.010095296
0.010079253
0.010062412
0.010045108
0.010028852
0.010016381
0.010006796
0.0099996537
0.009994672
0.0099917876
0.0099907121
0.0099904638
0.0099903244
0.0099922442
0.0099964631
0.009998501
0.015816216
0.015413915
0.011518117
0.010986917
0.010598242
0.010485644
0.010383288
0.010345312
0.010323958
0.010318313
0.010321393
0.010330389
0.010343018
0.01035771
0.010373283
0.010388832
0.010403677
0.010417334
0.010429471
0.010439867
0.010448404
0.010455047
0.010459824
0.010462812
0.010464119
0.010463875
0.010462222
0.010459306
0.010455274
0.010450266
0.010444413
0.010437834
0.010430638
0.010422922
0.010414769
0.010406254
0.010397437
0.010388373
0.010379106
0.010369678
0.01036012
0.01035046
0.010340722
0.010330925
0.010321082
0.010311203
0.010301289
0.010291335
0.010281325
0.010271237
0.010261036
0.010250686
0.01024015
0.010229397
0.0102184
0.010207134
0.010195569
0.01018366
0.010171349
0.010158579
0.010145302
0.010131489
0.010117111
0.010102117
0.01008645
0.010070089
0.010053114
0.010036016
0.010022163
0.010011308
0.010003045
0.0099969557
0.0099928123
0.0099905651
0.0099899281
0.0099899697
0.0099898945
0.0099922782
0.0099964485
0.009999095
0.015226061
0.014735499
0.011353768
0.010915216
0.010583492
0.010494519
0.010417086
0.010391668
0.010381807
0.010384639
0.01039427
0.010407988
0.010423698
0.010439957
0.010455727
0.01047027
0.010483085
0.01049387
0.010502483
0.010508886
0.010513124
0.010515307
0.010515586
0.010514136
0.01051114
0.010506784
0.010501245
0.010494692
0.010487279
0.010479146
0.010470418
0.010461202
0.010451592
0.010441668
0.010431499
0.01042114
0.010410636
0.010400025
0.010389335
0.010378592
0.010367813
0.010357017
0.010346213
0.010335411
0.010324618
0.010313837
0.010303065
0.010292297
0.010281518
0.010270703
0.010259818
0.010248823
0.010237675
0.010226329
0.010214749
0.010202904
0.010190764
0.010178293
0.010165443
0.010152154
0.01013837
0.010124049
0.010109172
0.010093723
0.010077664
0.010060997
0.010044062
0.010028509
0.010016433
0.010007022
0.0099998965
0.0099947303
0.0099913572
0.0099896971
0.0099893892
0.0099895974
0.0099896551
0.0099923145
0.0099966212
0.0099996654
0.014699418
0.013983618
0.01122295
0.010869106
0.010590217
0.010525943
0.010472089
0.010459099
0.010459574
0.010469485
0.010483789
0.010499991
0.010516276
0.010531461
0.01054479
0.010555809
0.010564294
0.010570191
0.010573585
0.010574627
0.010573518
0.010570486
0.010565766
0.010559593
0.010552185
0.010543745
0.010534453
0.01052447
0.010513936
0.010502971
0.010491678
0.010480142
0.010468435
0.010456614
0.010444725
0.010432805
0.010420883
0.010408976
0.0103971
0.010385264
0.010373474
0.010361733
0.010350043
0.010338404
0.010326813
0.01031527
0.010303767
0.010292298
0.010280847
0.010269393
0.010257904
0.010246341
0.010234655
0.010222796
0.010210715
0.010198371
0.010185728
0.010172755
0.010159417
0.010145665
0.010131441
0.010116685
0.010101358
0.01008546
0.010069039
0.010052209
0.010035511
0.01002218
0.010011612
0.010003443
0.0099972924
0.0099929139
0.0099902067
0.0099890599
0.0099890258
0.0099893446
0.0099897149
0.0099924042
0.0099967215
0.0099998836
0.014235983
0.013402624
0.01113037
0.010853312
0.010622307
0.010583989
0.010551416
0.010549454
0.010557716
0.010571763
0.010587426
0.010602641
0.010616064
0.010626946
0.010634939
0.010639955
0.010642084
0.010641526
0.010638556
0.010633471
0.010626567
0.010618133
0.010608434
0.010597709
0.010586169
0.010573996
0.010561347
0.010548351
0.010535119
0.010521738
0.010508283
0.010494812
0.010481369
0.010467989
0.010454697
0.01044151
0.010428439
0.010415487
0.010402657
0.010389943
0.010377341
0.010364842
0.010352438
0.010340121
0.010327882
0.010315711
0.0103036
0.010291538
0.010279511
0.010267499
0.010255475
0.010243403
0.010231238
0.010218927
0.010206415
0.010193649
0.010180583
0.010167181
0.01015341
0.010139237
0.010124621
0.010109503
0.010093816
0.010077518
0.010060684
0.01004377
0.010028645
0.010016854
0.010007604
0.010000494
0.0099951855
0.0099914823
0.0099893156
0.0099885479
0.0099887181
0.0099891807
0.0099900026
0.0099926177
0.0099968211
0.0099999973
0.013841181
0.012941097
0.011078499
0.010872951
0.010704743
0.010671705
0.010656131
0.010661532
0.010673061
0.010686606
0.010699088
0.010709113
0.010715987
0.010719501
0.010719742
0.010716968
0.010711522
0.010703778
0.010694111
0.010682874
0.010670383
0.010656916
0.010642712
0.010627972
0.010612864
0.010597528
0.010582076
0.010566599
0.010551169
0.010535839
0.010520654
0.010505642
0.010490826
0.010476218
0.010461825
0.010447646
0.010433678
0.010419913
0.010406339
0.010392943
0.010379709
0.010366622
0.010353664
0.010340818
0.010328069
0.010315402
0.010302802
0.010290256
0.010277746
0.010265256
0.010252761
0.010240231
0.010227627
0.010214902
0.010202004
0.010188876
0.010175463
0.010161715
0.010147589
0.010133049
0.010118066
0.010102606
0.010086629
0.010070111
0.010053137
0.010036361
0.010023084
0.010012522
0.010004338
0.0099981044
0.0099935144
0.0099903921
0.0099886751
0.0099881421
0.0099884468
0.0099890545
0.0099901769
0.0099929283
0.0099969702
0.010000087
0.013524247
0.012569858
0.011071439
0.01092801
0.010807121
0.010788345
0.010782519
0.010789107
0.010797715
0.010805199
0.010809723
0.010810708
0.010808123
0.010802238
0.010793466
0.010782273
0.010769114
0.010754407
0.01073852
0.01072177
0.01070442
0.010686686
0.010668745
0.010650735
0.010632767
0.010614927
0.010597281
0.010579877
0.010562751
0.010545927
0.010529419
0.010513235
0.010497375
0.010481836
0.010466607
0.010451678
0.010437033
0.010422653
0.010408518
0.010394609
0.010380901
0.010367372
0.010353999
0.010340758
0.010327628
0.010314587
0.010301616
0.010288694
0.010275802
0.01026292
0.010250025
0.010237091
0.010224086
0.010210972
0.010197707
0.010184241
0.010170521
0.010156494
0.010142102
0.010127292
0.010112016
0.010096231
0.010079921
0.010063135
0.010046211
0.010030732
0.010018696
0.010009159
0.0100018
0.0099962503
0.0099922362
0.0099895962
0.0099882406
0.0099878537
0.0099882031
0.0099889102
0.0099903189
0.0099932457
0.0099971896
0.010000109
0.013302025
0.01230071
0.011112034
0.011025011
0.010939844
0.010925367
0.010920413
0.010920829
0.010920156
0.010916632
0.01090961
0.010899221
0.010885897
0.010870161
0.01085254
0.010833511
0.010813485
0.010792806
0.010771749
0.010750536
0.010729337
0.010708284
0.010687479
0.010666994
0.010646882
0.01062718
0.010607911
0.010589089
0.010570719
0.010552799
0.010535323
0.01051828
0.010501656
0.010485432
0.010469591
0.010454109
0.010438963
0.01042413
0.010409583
0.010395296
0.010381241
0.010367392
0.010353719
0.010340197
0.010326798
0.010313495
0.010300263
0.010287076
0.01027391
0.010260738
0.010247535
0.010234275
0.010220927
0.010207461
0.010193844
0.010180041
0.01016601
0.010151708
0.010137082
0.010122076
0.010106626
0.010090668
0.01007416
0.010057179
0.010040341
0.010026483
0.010015412
0.01000671
0.0099999965
0.0099949641
0.0099913752
0.0099890824
0.0099879776
0.0099876902
0.0099880628
0.0099888375
0.0099904277
0.0099934458
0.0099973284
0.010000058
0.013174229
0.012132461
0.011205857
0.011152834
0.011087616
0.011069274
0.011055428
0.011042988
0.011028365
0.011011069
0.010991231
0.010969321
0.010945871
0.010921376
0.010896253
0.01087084
0.010845401
0.010820137
0.010795198
0.010770691
0.010746693
0.010723254
0.010700407
0.010678169
0.010656546
0.010635535
0.010615127
0.010595309
0.010576064
0.010557371
0.010539209
0.010521554
0.010504381
0.010487664
0.010471377
0.010455491
0.010439979
0.010424812
0.01040996
0.010395394
0.010381085
0.010367003
0.010353117
0.010339399
0.010325817
0.010312342
0.010298945
0.010285594
0.010272259
0.010258908
0.01024551
0.010232033
0.010218444
0.010204712
0.010190806
0.010176696
0.010162352
0.010147741
0.010132827
0.01011757
0.010101925
0.010085849
0.010069314
0.010052419
0.01003594
0.010023268
0.010013026
0.01000501
0.0099988341
0.0099942231
0.0099909609
0.0099888959
0.0099878989
0.0099876323
0.0099880527
0.0099888684
0.0099904676
0.0099932652
0.0099968538
0.0099996457
0.013108354
0.012060696
0.011363728
0.01129495
0.011233908
0.011201296
0.01117169
0.011142865
0.011113124
0.011082479
0.011051196
0.011019641
0.010988144
0.010956967
0.01092631
0.010896313
0.010867069
0.010838638
0.010811052
0.010784324
0.010758452
0.010733424
0.010709221
0.010685819
0.01066319
0.010641305
0.010620132
0.010599641
0.010579799
0.010560574
0.010541933
0.010523846
0.01050628
0.010489205
0.010472589
0.010456401
0.01044061
0.010425186
0.010410097
0.010395314
0.010380805
0.010366541
0.01035249
0.010338623
0.010324908
0.010311316
0.010297813
0.010284368
0.010270946
0.010257512
0.010244029
0.010230459
0.010216764
0.010202908
0.010188853
0.010174565
0.01016001
0.010145151
0.010129953
0.010114377
0.010098386
0.010081956
0.010065127
0.010048231
0.010032889
0.01002092
0.010011325
0.010003837
0.0099980976
0.0099938416
0.0099908583
0.0099889864
0.0099880836
0.0099878485
0.0099882076
0.0099890338
0.0099905611
0.0099930928
0.0099963892
0.0099992266
0.013116977
0.012020016
0.011518313
0.011427527
0.011354934
0.011303858
0.011257127
0.011213252
0.011170936
0.011129993
0.011090369
0.011052087
0.011015166
0.010979608
0.010945397
0.010912503
0.010880885
0.010850497
0.010821287
0.010793202
0.010766187
0.01074019
0.010715159
0.010691043
0.010667794
0.010645364
0.01062371
0.010602789
0.010582558
0.01056298
0.010544017
0.010525631
0.010507788
0.010490454
0.010473594
0.010457176
0.010441169
0.01042554
0.010410258
0.010395293
0.010380615
0.010366193
0.010351998
0.010337999
0.010324168
0.010310474
0.010296885
0.01028337
0.010269894
0.010256422
0.010242915
0.010229336
0.010215645
0.0102018
0.010187763
0.010173493
0.010158946
0.010144078
0.010128839
0.010113176
0.010097037
0.010080389
0.010063291
0.010046218
0.010031378
0.010019733
0.010010441
0.010003218
0.009997716
0.0099936731
0.0099908731
0.009989136
0.009988301
0.0099881148
0.0099885451
0.009989498
0.0099910756
0.0099933717
0.0099961954
0.0099989054
0.013209006
0.01204505
0.01163429
0.011523931
0.011435917
0.011368916
0.01130928
0.011255083
0.011204685
0.011157433
0.011112879
0.011070729
0.011030752
0.010992765
0.010956607
0.01092214
0.010889241
0.010857801
0.010827719
0.010798904
0.010771275
0.010744754
0.010719272
0.010694764
0.01067117
0.010648433
0.010626503
0.010605329
0.010584866
0.010565072
0.010545904
0.010527325
0.010509296
0.010491783
0.010474749
0.010458163
0.01044199
0.0104262
0.010410761
0.010395642
0.010380814
0.010366247
0.010351911
0.010337779
0.010323822
0.010310009
0.010296312
0.010282699
0.010269139
0.010255596
0.010242037
0.010228425
0.010214723
0.010200893
0.0101869
0.010172706
0.010158271
0.010143553
0.010128503
0.010113068
0.010097191
0.010080828
0.010064004
0.010047095
0.010031969
0.010020193
0.010010784
0.010003481
0.0099979279
0.0099938624
0.0099910577
0.0099893155
0.0099884672
0.009988252
0.0099887115
0.0099897152
0.0099912756
0.0099933739
0.0099959081
0.0099986498
0.013333943
0.012101575
0.011695052
0.011572602
0.01147437
0.011399049
0.011333324
0.011274628
0.0112209
0.011171152
0.011124707
0.011081107
0.011040006
0.011001134
0.010964271
0.010929234
0.010895867
0.010864035
0.01083362
0.010804518
0.010776635
0.010749886
0.010724196
0.010699495
0.010675719
0.010652809
0.010630711
0.010609373
0.01058875
0.010568796
0.010549469
0.01053073
0.010512542
0.010494867
0.010477672
0.010460921
0.010444584
0.010428627
0.010413019
0.01039773
0.010382731
0.010367991
0.010353483
0.010339176
0.010325043
0.010311055
0.010297181
0.010283392
0.010269654
0.010255936
0.0102422
0.010228413
0.010214538
0.010200538
0.010186379
0.010172023
0.010157433
0.010142568
0.010127379
0.010111815
0.010095823
0.010079363
0.010062489
0.010045674
0.010031191
0.010019744
0.010010594
0.010003458
0.0099980087
0.0099939914
0.0099911928
0.009989439
0.0099885842
0.0099883655
0.0099888341
0.009989851
0.0099913858
0.0099933477
0.009995709
0.0099984743
66.01412
360.28241
121.15601
14.626509
0.4039967
0.02141229
0.020132352
0.019827524
0.019563108
0.018509234
0.017172951
0.015984318
0.015082084
0.014509598
0.01410304
0.013717653
0.013342212
0.013009316
0.01272994
0.012496291
0.012297692
0.012126413
0.011977309
0.011846582
0.011731174
0.011628593
0.011536846
0.011454338
0.011379815
0.011312289
0.01125094
0.011195054
0.011144009
0.011097281
0.011054456
0.011015199
0.010979227
0.010946285
0.01091614
0.010888581
0.010863423
0.010840484
0.010819584
0.01080055
0.01078322
0.010767431
0.010753021
0.010739838
0.010727751
0.010716641
0.010706396