/*--------------------------------*- C++ -*----------------------------------*\
  =========                 |
  \\      /  F ield         | OpenFOAM: The Open Source CFD Toolbox
   \\    /   O peration     | Website:  https://openfoam.org
    \\  /    A nd           | Version:  12
     \\/     M anipulation  |
\*---------------------------------------------------------------------------*/
FoamFile
{
    format      ascii;
    class       volScalarField;
    location    "0.131";
    object      omega;
}
// * * * * * * * * * * * * * * * * * * * * * * * * * * * * * * * * * * * * * //

dimensions      [0 0 -1 0 0 0 0];

internalField   nonuniform List<scalar> 
16000
(
1089.3094
2186.6334
1068.7032
644.55911
454.77471
316.20065
239.96769
181.12229
145.92391
118.12262
100.37508
85.897395
75.186509
66.229889
58.926136
52.771163
47.576025
43.145173
39.338119
36.042808
33.17492
30.663521
28.450229
26.488456
24.740659
23.177649
21.775243
20.514767
19.380399
18.357703
17.43362
16.597842
15.84216
15.159629
14.544316
13.990712
13.49363
13.048176
12.650251
12.296403
11.982752
11.705215
11.460817
11.246857
11.060267
10.897925
10.757405
10.636407
10.532725
10.444264
10.369154
10.30576
10.252561
10.208216
10.171553
10.141676
10.118011
10.100378
10.089188
10.085055
10.085159
10.084488
10.083225
10.081479
10.079147
10.076164
10.072442
10.067875
10.062307
10.055428
10.046781
10.036131
10.024595
10.0166
10.011022
10.007493
10.005816
10.008029
10.014718
10.034736
1130.9145
2178.3479
1062.219
644.63006
454.87548
319.08444
241.00813
182.91663
146.7366
119.14135
100.90652
86.453259
75.53962
66.536786
59.147149
52.942541
47.700845
43.235485
39.401368
36.084598
33.200071
30.676544
28.454697
26.487239
24.735589
23.170184
21.766148
20.504452
19.369355
18.346666
17.423061
16.587878
15.832765
15.150662
14.535673
13.982355
13.485631
13.040547
12.642818
12.289109
11.975836
11.698696
11.454559
11.240842
11.054655
10.892726
10.752587
10.631954
10.528647
10.440568
10.365814
10.30276
10.249883
10.205844
10.169448
10.139756
10.116143
10.09831
10.086411
10.081066
10.080837
10.080154
10.078831
10.077035
10.074664
10.071654
10.067913
10.063331
10.057767
10.050949
10.042437
10.032084
10.021077
10.013438
10.008211
10.005023
10.003835
10.005105
10.013659
10.034234
1170.9361
2180.1252
1049.8629
641.02835
451.47932
319.30548
239.89218
183.0927
146.27858
119.29039
100.74593
86.459461
75.432008
66.435062
59.012757
52.797013
47.544803
43.074569
39.239506
35.924032
33.04268
30.524291
28.308996
26.349282
24.605773
23.048829
21.65311
20.399316
19.27173
18.256518
17.340292
16.512125
15.763593
15.087545
14.478127
13.929947
13.438063
12.997568
12.603997
12.253995
11.944351
11.67065
11.429582
11.218586
11.035026
10.875521
10.737558
10.618871
10.517316
10.430826
10.357472
10.295658
10.243868
10.200789
10.165224
10.136214
10.113112
10.095584
10.083626
10.077581
10.076878
10.076107
10.074673
10.072773
10.070309
10.067219
10.06341
10.058764
10.053146
10.046323
10.037866
10.027698
10.01736
10.010187
10.005382
10.002617
10.001711
10.002824
10.012162
10.02847
1209.166
2188.6728
1040.2507
637.58352
447.68682
319.33976
238.48195
183.11337
145.68002
119.33973
100.53405
86.404195
75.283539
66.286386
58.838295
52.613104
47.353614
42.880904
39.047335
35.735443
32.859277
30.347907
28.140865
26.190551
24.456725
22.90971
21.523734
20.279206
19.160344
18.153715
17.245952
16.425839
15.684891
15.015841
14.412885
13.870659
13.38435
12.949154
12.56046
12.21475
11.909261
11.63952
11.402029
11.19415
11.013572
10.856824
10.721331
10.604841
10.505243
10.420522
10.348717
10.288265
10.23766
10.195615
10.160945
10.132673
10.110121
10.09293
10.081023
10.074554
10.073279
10.072371
10.070793
10.068756
10.066169
10.062968
10.059064
10.054331
10.048634
10.041781
10.033372
10.023304
10.013661
10.006976
10.002618
10.00027
9.9995655
10.000746
10.010073
10.023935
1245.429
2207.1354
1031.9864
633.86621
443.14828
318.63039
236.39102
182.64661
144.7048
119.11075
100.13439
86.172439
74.996418
66.005822
58.549208
52.325496
47.069648
42.603456
38.779423
35.478273
32.613525
30.114697
27.920763
25.984236
24.264075
22.730645
21.357809
20.125733
19.01847
18.023024
17.126174
16.316416
15.585235
14.92523
14.330655
13.796163
13.31705
12.888666
12.506336
12.166225
11.866043
11.601342
11.368476
11.16459
10.987764
10.834475
10.702075
10.588326
10.491139
10.408584
10.338664
10.279859
10.230671
10.189853
10.156241
10.128847
10.106973
10.090235
10.078525
10.071897
10.070037
10.068933
10.067177
10.064968
10.062223
10.058878
10.054848
10.050003
10.044197
10.037279
10.028908
10.018942
10.010025
10.003864
9.9999746
9.998027
9.9975042
9.9988748
10.007816
10.018793
1279.5837
2233.0672
1028.1308
630.88644
439.15202
317.29409
233.82501
181.77189
143.45845
118.64222
99.591669
85.786608
74.590238
65.610711
58.160059
51.947447
46.704453
42.252483
38.444768
35.16049
32.312507
29.830998
27.654401
25.73537
24.032376
22.515765
21.159085
19.942322
18.849272
17.867362
16.983656
16.186347
15.466929
14.817841
14.233403
13.708279
13.237849
12.817628
12.443015
12.109736
11.815896
11.557174
11.329876
11.130767
10.958358
10.809133
10.680363
10.569822
10.475425
10.395367
10.327607
10.270679
10.223099
10.183658
10.151226
10.12482
10.103719
10.087518
10.076084
10.069405
10.067112
10.06576
10.063793
10.061382
10.05845
10.054933
10.05075
10.045771
10.039836
10.032819
10.024486
10.01465
10.006478
10.000874
9.9974653
9.9959072
9.9955765
9.9971403
10.005354
10.01428
1311.589
2264.082
1028.3435
628.06377
435.20575
315.32118
231.17139
180.52548
142.04369
117.93729
98.914978
85.24555
74.061259
65.098983
57.667678
51.476013
46.254981
41.825045
38.040313
34.779149
31.953432
29.494187
27.33944
25.441315
23.759183
22.262843
20.925541
19.727168
18.65117
17.685349
16.817205
16.034611
15.329115
14.692964
14.120556
13.606561
13.146423
12.735799
12.370306
12.045327
11.758923
11.507122
11.286354
11.092853
10.925526
10.780961
10.656344
10.549473
10.458227
10.380983
10.315641
10.260807
10.21501
10.177083
10.145945
10.120623
10.100381
10.084792
10.073708
10.06708
10.064467
10.062823
10.060618
10.057978
10.054834
10.051121
10.046759
10.041628
10.035551
10.028404
10.0201
10.01049
10.003073
9.9980491
9.9951235
9.9939443
9.9938264
9.9955205
10.002874
10.010112
1341.555
2297.6698
1030.0379
624.92549
431.33384
312.70071
228.51951
179.0477
140.52175
117.01687
98.121252
84.557824
73.410596
64.472699
57.072176
50.910649
45.720146
41.319961
37.563987
34.332092
31.534213
29.102237
26.974214
25.098504
23.441071
21.968688
20.654233
19.477598
18.421791
17.474882
16.62498
15.859607
15.170423
14.549444
13.991151
13.49022
13.042152
12.642703
12.287757
11.973298
11.695472
11.451509
11.238206
11.051256
10.889642
10.750286
10.630319
10.527548
10.439776
10.365624
10.302925
10.250369
10.206505
10.170208
10.140453
10.116292
10.09698
10.082065
10.071385
10.064881
10.062055
10.060086
10.057619
10.054728
10.051351
10.047421
10.042862
10.037562
10.031338
10.024038
10.015736
10.006507
9.9998416
9.9954167
9.9929675
9.9921546
9.9922966
9.9940791
10.00051
10.006237
1369.5766
2331.6456
1028.5117
621.01136
426.54144
309.37929
224.97756
177.17474
138.67307
115.91208
97.206154
83.722524
72.631226
63.72716
56.368552
50.245651
45.094281
40.732147
37.007778
33.811269
31.047136
28.647777
26.552228
24.707741
23.079409
21.635104
20.347247
19.195879
18.163536
17.23842
16.409438
15.663763
14.993241
14.389605
13.84743
13.361399
12.927076
12.540304
12.197034
11.893231
11.625292
11.390167
11.185252
11.006332
10.85105
10.717399
10.602616
10.504337
10.42033
10.349505
10.289634
10.239507
10.197696
10.163116
10.13481
10.111867
10.093539
10.07935
10.069114
10.06278
10.059827
10.05751
10.054761
10.051601
10.047976
10.043816
10.039044
10.03356
10.027191
10.019737
10.011376
10.002748
9.9968196
9.9930022
9.9910174
9.9905511
9.9909983
9.9928345
9.9983672
10.003089
1395.7496
2364.3945
1019.8328
616.01235
420.04285
305.61525
220.6054
174.82991
136.77078
114.62547
96.15943
82.734413
71.715122
62.854412
55.5488
49.468183
44.363513
40.048297
36.370075
33.217574
30.494756
28.134448
26.076955
24.268114
22.673564
21.2616
20.004254
18.881846
17.876438
16.976162
16.170844
15.447457
14.798056
14.214024
13.690044
13.2208
12.801912
12.429318
12.09913
11.807376
11.550372
11.324931
11.128971
10.95798
10.809737
10.682257
10.573522
10.480096
10.400163
10.33285
10.27596
10.228372
10.188701
10.155899
10.129081
10.107388
10.09008
10.076657
10.066893
10.060751
10.057728
10.055052
10.052006
10.048566
10.044682
10.040283
10.035289
10.029608
10.023098
10.015526
10.007024
9.9992452
9.994033
9.9908211
9.989289
9.9891434
9.9899303
9.9918618
9.9964709
10.0003
1420.1915
2395.2306
1010.9249
609.94451
411.89455
301.45236
215.97765
172.28793
134.77092
113.15777
94.968236
81.586503
70.65066
61.833963
54.590422
48.573408
43.529208
39.272477
35.648957
32.549174
29.875217
27.560572
25.547242
23.779754
22.223916
20.84871
19.625996
18.536426
17.561617
16.689429
15.910296
15.211838
14.586078
14.023957
13.520265
13.069689
12.66791
12.310937
11.995054
11.716385
11.471335
11.256509
11.070208
10.907881
10.767154
10.646008
10.542989
10.454777
10.379507
10.315846
10.262094
10.217121
10.179644
10.14865
10.123332
10.102896
10.086622
10.073991
10.064725
10.058774
10.055704
10.052668
10.049316
10.045589
10.041439
10.036797
10.03158
10.025694
10.019038
10.01143
10.002869
9.9960266
9.991502
9.9888814
9.9877949
9.9879422
9.9890378
9.9911224
9.9949627
9.9978886
1443.0279
2425.1639
997.4964
602.33804
402.34791
296.8807
211.17729
169.49035
132.74669
111.51493
93.605405
80.248532
69.400151
60.659419
53.49703
47.558063
42.587629
38.401302
34.842954
31.804889
29.188229
26.926264
24.963343
23.24305
21.731256
20.397047
19.213294
18.160638
17.220265
16.379755
15.628047
14.957187
14.357647
13.819804
13.338541
12.908536
12.525548
12.185631
11.885285
11.620743
11.388542
11.18586
11.009712
10.856463
10.723697
10.609267
10.512193
10.42923
10.358305
10.298431
10.248168
10.205899
10.170646
10.141464
10.117629
10.098434
10.083182
10.071352
10.06261
10.056839
10.0537
10.050315
10.046653
10.042637
10.038219
10.033332
10.027897
10.021812
10.014993
10.007415
9.9991345
9.9931185
9.989241
9.9871828
9.9865389
9.9869612
9.9883042
9.9905967
9.993989
9.9962877
1464.5683
2453.3439
980.16214
593.82175
392.289
291.89878
206.30722
166.49444
130.67204
109.67513
92.005839
78.703911
67.968743
59.32482
52.262171
46.418439
41.536195
37.433009
33.950878
30.984158
28.433602
26.231975
24.325538
22.658645
21.196819
19.906176
18.765846
17.754374
16.85238
16.04769
15.329206
14.688548
14.117646
13.606279
13.149368
12.74156
12.378747
12.056995
11.773055
11.523368
11.304381
11.113195
10.947709
10.803926
10.67948
10.572492
10.481358
10.403769
10.337424
10.281234
10.234077
10.194789
10.161809
10.134431
10.112038
10.09404
10.079778
10.068735
10.060543
10.054952
10.051668
10.04795
10.043979
10.039676
10.034993
10.029866
10.024219
10.017956
10.010974
10.00339
9.9958032
9.9905503
9.9872627
9.9857198
9.9855143
9.9862072
9.9877103
9.9902183
9.9935237
9.9953944
1485.0495
2476.0705
958.66695
584.7484
381.78563
286.55977
201.45356
163.30717
128.47593
107.54335
90.15381
76.941909
66.34373
57.821991
50.879796
45.149758
40.371586
36.36537
32.971719
30.086029
27.611191
25.478517
23.63241
22.025226
20.620123
19.382503
18.290663
17.324987
16.4655
15.700118
15.017554
14.409623
13.86917
13.386165
12.955259
12.570987
12.229478
11.926762
11.659829
11.425478
11.220242
11.041099
10.886318
10.752073
10.635889
10.53571
10.450533
10.378277
10.316919
10.264537
10.22037
10.183652
10.153171
10.127622
10.106622
10.089755
10.07643
10.06613
10.058502
10.053134
10.049567
10.045538
10.041263
10.036678
10.031738
10.026378
10.020526
10.01411
10.007027
9.9993537
9.9928792
9.9883408
9.9855812
9.9844874
9.9847033
9.985678
9.9872674
9.9899027
9.9934273
9.9951997
1504.729
2488.7129
933.05515
575.02694
370.90468
280.89601
196.69119
159.84958
126.0381
105.12705
88.022097
74.944879
64.512737
56.140897
49.342614
43.747032
39.090977
35.196077
31.904813
29.107391
26.718129
24.664269
22.892392
21.352632
20.01092
18.831786
17.793586
16.877713
16.064563
15.3419
14.698231
14.125298
13.615317
13.162029
12.758382
12.398611
12.079215
11.796171
11.546612
11.32783
11.13648
10.970271
10.826116
10.701313
10.593494
10.500317
10.420891
10.353589
10.296606
10.248428
10.207269
10.172924
10.144564
10.121049
10.101431
10.085615
10.073164
10.063535
10.056437
10.051383
10.047374
10.043047
10.038479
10.033622
10.028434
10.022855
10.016808
10.010243
10.003186
9.9958343
9.9903344
9.986497
9.9842129
9.9834861
9.9840826
9.9853493
9.9870182
9.989669
9.9935239
9.9957065
1523.8271
2481.0518
903.69992
564.7041
359.69314
274.91343
192.01413
155.9946
123.28133
102.38151
85.581136
72.690253
62.459862
54.270544
47.643317
42.204782
37.691664
33.919241
30.745761
28.056976
25.766829
23.802619
22.113468
20.649066
19.377091
18.262556
17.282999
16.418811
15.655061
14.977779
14.375117
13.839415
13.363137
12.940097
12.564305
12.229389
11.932335
11.669142
11.436871
11.233537
11.055523
10.900883
10.767256
10.65167
10.552065
10.466412
10.392671
10.330143
10.277141
10.232643
10.194831
10.162786
10.136306
10.114539
10.096473
10.081651
10.070006
10.060973
10.054288
10.049485
10.045079
10.040459
10.035611
10.030495
10.025068
10.019284
10.013074
10.006367
9.9993044
9.9927928
9.98816
9.9850023
9.9831714
9.9827248
9.983636
9.9851706
9.9869904
9.989685
9.9938391
9.9965606
1542.5132
2432.9174
872.04338
553.8124
348.20836
268.52491
187.11268
151.71491
120.0922
99.259153
82.797443
70.15354
60.169382
52.201435
45.775406
40.513607
36.166231
32.546476
29.510819
26.945819
24.768704
22.905538
21.308241
19.926983
18.728297
17.683112
16.766891
15.960273
15.248041
14.61797
14.057548
13.559652
13.117081
12.724139
12.375864
12.065595
11.790581
11.547104
11.331882
11.14365
10.978765
10.835293
10.711639
10.604809
10.512713
10.433686
10.366031
10.308119
10.25883
10.217655
10.182782
10.153292
10.128529
10.108309
10.091597
10.077876
10.066967
10.058482
10.052099
10.04743
10.042672
10.037768
10.032654
10.027293
10.02164
10.015658
10.009312
10.002563
9.9955788
9.9901929
9.9863274
9.983811
9.9824535
9.9822165
9.9833649
9.9850929
9.9871029
9.9898898
9.994084
9.9971405
1560.6559
2397.0483
840.11982
542.29666
336.45353
261.18915
182.06114
146.90771
116.35705
95.702242
79.636207
67.310863
57.626104
49.925401
43.726522
38.685121
34.536118
31.093102
28.216482
25.792336
23.741466
21.990415
20.490044
19.199011
18.081807
17.109594
16.259138
15.511503
14.851555
14.268874
13.750842
13.290645
12.881529
12.517892
12.194955
11.90859
11.654805
11.430494
11.232799
11.059002
10.906815
10.773951
10.659581
10.561031
10.476031
10.403036
10.340562
10.28724
10.241824
10.203655
10.171454
10.144215
10.121301
10.102429
10.086953
10.074261
10.064038
10.056086
10.049932
10.045217
10.040162
10.034981
10.029612
10.024023
10.018165
10.011996
10.005508
9.9988172
9.9925196
9.9879947
9.9848158
9.9828533
9.9820009
9.9819918
9.9832725
9.9850941
9.9872272
9.9901427
9.9942571
9.9976852
1577.7982
2355.4593
807.28701
529.82154
324.32648
252.672
176.66637
141.45824
111.96769
91.650047
76.064199
64.141607
54.811481
47.428085
41.521902
36.741653
32.825172
29.585398
26.887929
24.620621
22.703991
21.074946
19.682218
18.485479
17.45194
16.554259
15.770156
15.081646
14.473409
13.93558
13.458871
13.035186
12.658394
12.323438
12.025998
11.762151
11.528362
11.321608
11.139328
10.979234
10.839254
10.71734
10.611555
10.520631
10.442227
10.37486
10.317164
10.267943
10.22612
10.190718
10.160938
10.135789
10.114622
10.09694
10.082525
10.070694
10.061189
10.053761
10.04787
10.042868
10.037567
10.032124
10.026511
10.020702
10.014658
10.008337
10.001744
9.9951097
9.9899616
9.9861922
9.9836227
9.9820921
9.9815756
9.9821048
9.9833489
9.9851904
9.9873667
9.9904359
9.9944809
9.9981458
1593.273
2287.7343
772.80192
515.88527
311.06495
242.82531
170.61415
135.22758
106.82412
87.044068
72.05577
60.626622
51.742795
44.757125
39.197703
34.721749
31.071271
28.058188
25.552886
23.455603
21.686982
20.185543
18.903371
17.802603
16.852788
16.028668
15.30906
14.676373
14.118803
13.625459
13.187927
12.79887
12.452508
12.144201
11.870203
11.62722
11.412052
11.221766
11.053965
10.906402
10.77723
10.664834
10.567813
10.483794
10.411406
10.349183
10.295835
10.250245
10.211451
10.178899
10.15125
10.127932
10.108307
10.091888
10.07841
10.067324
10.058394
10.051408
10.045767
10.040436
10.034917
10.029238
10.023393
10.017368
10.011142
10.004694
9.9981313
9.9921515
9.9878159
9.9847311
9.9827241
9.9816462
9.9813764
9.9821947
9.9835763
9.9853966
9.9875586
9.9907283
9.9947857
9.9985175
1605.994
2219.0617
735.75957
499.91315
297.0174
231.45538
163.43418
128.04924
100.84993
81.854455
67.605046
56.806647
48.48158
41.971187
36.813214
32.678127
29.320509
26.548465
24.251877
22.331813
20.714492
19.342487
18.170847
17.164433
16.295535
15.541595
14.882158
14.303804
13.793531
13.341382
12.940212
12.583245
12.265144
11.981546
11.72901
11.504826
11.306523
11.131138
10.976576
10.840658
10.721524
10.618215
10.528341
10.450623
10.383623
10.326043
10.27666
10.234443
10.198533
10.168186
10.142463
10.120756
10.102506
10.087238
10.074608
10.064182
10.055718
10.049036
10.043562
10.037967
10.032252
10.026368
10.020314
10.014083
10.007681
10.001143
9.9946924
9.9897449
9.9860814
9.9835644
9.9820306
9.9813377
9.9812809
9.9823814
9.9838714
9.9856952
9.9878539
9.9910272
9.9950338
9.9987155
1613.1713
2135.7538
695.92896
480.20652
281.92485
218.24361
154.65158
119.78584
94.044761
76.12833
62.795574
52.789358
45.124347
39.156463
34.442359
30.671991
27.618431
25.102621
23.01806
21.276048
19.808305
18.562485
17.497573
16.58138
15.788539
15.098952
14.496385
13.967225
13.500443
13.085851
12.717565
12.389596
12.097124
11.836121
11.603225
11.39582
11.212528
11.050334
10.90746
10.782067
10.672347
10.576564
10.493289
10.421157
10.358913
10.30542
10.259576
10.220265
10.18701
10.158656
10.134601
10.11427
10.097193
10.08298
10.071107
10.061286
10.053245
10.046754
10.041313
10.035516
10.029622
10.023563
10.017336
10.010924
10.004349
9.9977842
9.9920253
9.9877949
9.9847333
9.9826799
9.9815063
9.9811285
9.9815708
9.9826021
9.9841955
9.9860368
9.988232
9.9913864
9.9952941
9.9988504
1609.6522
2033.5533
652.79573
454.46482
265.60864
202.84077
144.02491
110.46157
86.559164
69.993337
57.812834
48.722149
41.790463
36.408354
32.162504
28.767364
26.018512
23.757734
21.880967
20.31044
18.984833
17.857547
16.89211
16.059798
15.337843
14.708184
14.156409
13.670714
13.241327
12.860329
12.521179
12.218784
11.948879
11.70796
11.493058
11.301624
11.131471
10.980784
10.84782
10.731025
10.62892
10.539989
10.462548
10.395413
10.337359
10.28736
10.244747
10.208162
10.176898
10.150306
10.127733
10.108583
10.092574
10.07911
10.067886
10.058595
10.050998
10.044693
10.039078
10.033147
10.027093
10.020877
10.014505
10.007977
10.001331
9.9948402
9.9899319
9.9862775
9.9837281
9.9820976
9.9812555
9.9810156
9.9817414
9.9828973
9.9845232
9.9863853
9.9886282
9.9917476
9.99552
9.9989546
1589.2775
1902.7263
606.57185
422.01402
248.07265
185.03989
131.77533
100.40154
78.742396
63.774661
52.87787
44.770531
38.603362
33.820178
30.045333
27.0205
24.564388
22.546
20.864185
19.452238
18.256547
17.236477
16.3603
15.602905
14.944168
14.367903
13.861261
13.414324
13.018413
12.66656
12.352748
12.072479
11.821936
11.598002
11.398049
11.219828
11.061357
10.920854
10.796694
10.687377
10.591595
10.50852
10.43614
10.373383
10.319137
10.272389
10.232229
10.197826
10.16832
10.14315
10.121908
10.103845
10.088569
10.07573
10.065011
10.056172
10.048844
10.042699
10.036932
10.030913
10.024747
10.018401
10.011884
10.005233
9.998605
9.9926906
9.9883392
9.9851543
9.9829923
9.9816933
9.9811374
9.9810282
9.9819662
9.9831982
9.984837
9.9867172
9.9890121
9.992098
9.9957367
9.9990128
1543.2236
1743.0252
558.42243
383.64618
230.24529
165.11507
118.58746
90.229231
71.051222
57.796501
48.215417
41.094705
35.679973
31.476694
28.152098
25.478242
23.29605
21.492571
19.985838
18.714552
17.633059
16.706384
15.907311
15.214302
14.610005
14.080112
13.612128
13.198081
12.830257
12.503192
12.210881
11.949385
11.715282
11.505774
11.318495
11.151415
11.002748
10.870882
10.754337
10.651735
10.561781
10.483252
10.414968
10.355639
10.304291
10.259956
10.22182
10.189332
10.161433
10.137581
10.117241
10.099962
10.085322
10.072956
10.062661
10.054049
10.04689
10.040815
10.034921
10.028841
10.022619
10.01622
10.009636
10.002916
9.996342
9.9911513
9.9872301
9.9844148
9.9825384
9.981473
9.9811219
9.9813663
9.9821897
9.9834968
9.9851253
9.9870153
9.9893383
9.9923649
9.995864
9.9990004
1463.288
1580.6845
509.3288
344.15319
206.28287
145.81183
105.40215
80.63253
63.942046
52.372892
44.041275
37.850034
33.131077
29.453877
26.531289
24.167966
22.227895
20.614465
19.257861
18.106881
17.122309
16.274294
15.539454
14.899247
14.338732
13.845735
13.410232
13.023918
12.680056
12.373038
12.098216
11.851935
11.631124
11.433248
11.256159
11.098002
10.957131
10.832049
10.72136
10.623751
10.537996
10.463012
10.398088
10.341615
10.292732
10.250525
10.214181
10.182966
10.156212
10.133277
10.113678
10.096984
10.08291
10.070961
10.060881
10.052419
10.04532
10.039222
10.033181
10.027002
10.02071
10.014283
10.007718
10.001077
9.994709
9.990049
9.9865058
9.9839972
9.9823598
9.9814856
9.9812268
9.9816013
9.9824906
9.983806
9.9854285
9.9873233
9.9896372
9.9925534
9.9958807
9.998911
1351.2464
1493.3217
463.18559
296.7505
182.44463
127.68112
93.479062
72.133221
57.789097
47.797519
40.573607
35.187992
31.060464
27.822106
25.229814
23.118903
21.374707
19.915234
18.679653
17.625628
16.719372
15.935145
15.252626
14.655571
14.130804
13.667558
13.256926
12.891574
12.565553
12.274383
12.013136
11.77862
11.568022
11.379032
11.20969
11.058297
10.923344
10.803457
10.697355
10.60382
10.521678
10.449782
10.387008
10.332422
10.285078
10.24413
10.208807
10.178447
10.152581
10.130374
10.111389
10.095184
10.081387
10.069676
10.059766
10.051404
10.044336
10.03819
10.032006
10.025689
10.019251
10.012689
10.006035
9.9994443
9.9936131
9.9892761
9.9860322
9.9837605
9.9823169
9.981611
9.9814424
9.9818899
9.982809
9.9841273
9.985754
9.9876683
9.989962
9.9927355
9.9958468
9.9987872
1218.604
1251.5344
423.0019
254.46935
160.27004
112.55785
83.610829
65.26846
52.925233
44.270603
37.965857
33.222505
29.553523
26.648872
24.303753
22.378824
20.776602
19.427221
18.27948
17.29505
16.444807
15.70608
15.060919
14.494831
13.995909
13.554256
13.161827
12.811864
12.498796
12.218019
11.965763
11.738886
11.534804
11.351349
11.186686
11.039218
10.907524
10.790306
10.686355
10.594539
10.513837
10.443516
10.382017
10.328506
10.282062
10.241865
10.20716
10.177263
10.151564
10.129527
10.110666
10.09456
10.08084
10.069185
10.059316
10.050981
10.043929
10.037784
10.031581
10.025221
10.01872
10.012069
10.005313
9.9986706
9.9930914
9.9889245
9.9858365
9.9836972
9.982365
9.9817466
9.9816582
9.9821435
9.9830713
9.9843807
9.986007
9.9879332
9.9901974
9.9928332
9.9957474
9.9986559
1099.2945
1113.5521
390.32822
223.74767
143.67849
101.43057
76.300469
60.267443
49.447499
41.795166
36.163786
31.886227
28.546741
25.880301
23.710607
21.916903
20.414114
19.140872
18.051954
17.113366
16.299062
15.588701
14.966103
14.418277
13.935077
13.506161
13.124265
12.783007
12.477142
12.202313
11.954922
11.732007
11.531116
11.350202
11.187528
11.041588
10.911039
10.79465
10.691269
10.599797
10.519177
10.448397
10.386491
10.332529
10.285637
10.245006
10.209889
10.179608
10.153553
10.13118
10.112007
10.095611
10.081622
10.069717
10.059615
10.051066
10.043825
10.037557
10.031461
10.025178
10.018778
10.01224
10.005601
9.9990409
9.9933617
9.989159
9.9860422
9.9838874
9.982545
9.9819066
9.9818446
9.9823306
9.9832482
9.9845509
9.986186
9.9881283
9.9903689
9.992895
9.9956567
9.9985554
1044.4851
1072.4773
366.06731
206.66092
132.80538
93.874997
70.850827
56.291296
46.483554
39.537254
34.409579
30.496667
27.428653
24.968728
22.959303
21.292049
19.890414
18.69901
17.676926
16.793371
16.024737
15.352576
14.762179
14.241577
13.780862
13.371735
13.007171
12.681253
12.389006
12.126284
11.889647
11.676256
11.483761
11.31021
11.153952
11.013566
10.887793
10.775484
10.675566
10.587016
10.508848
10.440112
10.37989
10.32731
10.281546
10.241827
10.207443
10.177745
10.152149
10.130131
10.111227
10.095028
10.081175
10.069357
10.059299
10.050758
10.043496
10.037182
10.031017
10.024675
10.018218
10.011631
10.004961
9.998433
9.9930283
9.9889693
9.9859685
9.9838916
9.9825982
9.9819799
9.9818233
9.9824125
9.9833039
9.9846033
9.9862433
9.988195
9.9904213
9.992886
9.9955701
9.9984805
31307.534
79007.143
36897.131
10666.638
1404.1707
611.73436
434.55491
350.92737
290.74452
236.51583
192.68374
159.38267
134.76302
116.50427
102.45629
90.970288
81.247305
72.949812
65.84318
59.713654
54.383577
49.717078
45.609014
41.973877
38.746243
35.861533
33.274287
30.944446
28.840085
26.936013
25.210747
23.645135
22.222458
20.927998
19.750196
18.679331
17.706655
16.824411
16.025522
15.303544
14.65286
14.067901
13.543595
13.07537
12.65873
12.289433
11.963647
11.677338
11.426822
11.208743
11.019825
10.856943
10.717116
10.597816
10.496529
10.411031
10.340936
10.286149
10.246802
10.225763
10.218725
10.216192
10.213289
10.209497
10.205171
10.200338
10.194833
10.187159
10.176353
10.163434
10.144728
10.124999
10.090592
10.074157
10.049961
10.052597
10.01476
10.031863
9.9833963
10.00542
19981.827
59253.116
24493.454
5059.4227
971.62121
529.17685
398.19213
321.74434
264.32154
212.95754
174.61098
145.75966
124.6864
108.89622
96.427385
85.964214
77.042813
69.420573
62.869981
57.191478
52.230496
47.870558
44.01932
40.600671
37.552635
34.82206
32.367451
30.151334
28.145541
26.327423
24.67715
23.176979
21.811511
20.567201
19.43371
18.402045
17.464041
16.612493
15.840765
15.142828
14.513434
13.947248
13.439508
12.98588
12.582046
12.223966
11.907982
11.630166
11.387009
11.175286
10.991821
10.833594
10.697729
10.581808
10.483401
10.400269
10.331658
10.278174
10.240048
10.220245
10.213795
10.2114
10.208514
10.20478
10.200532
10.195773
10.190447
10.183473
10.17335
10.16088
10.142733
10.123115
10.089752
10.073502
10.049747
10.052623
10.0156
10.032985
9.9842857
10.006462
28287.155
35179.905
13435.207
2538.8675
835.88335
499.32787
388.17369
306.45672
250.89463
201.36896
166.82852
139.66421
120.11614
105.2182
93.32508
83.271043
74.726385
67.427619
61.143774
55.687394
50.915007
46.717062
43.005468
39.707413
36.762007
34.121939
31.747
29.600666
27.656832
25.893775
24.29237
22.835556
21.508624
20.298625
19.19592
18.191827
17.278509
16.449078
15.697135
15.016901
14.403344
13.851253
13.356072
12.913612
12.519659
12.170311
11.862019
11.590923
11.353639
11.147029
10.967986
10.813567
10.680989
10.567925
10.471869
10.390762
10.3234
10.270919
10.233729
10.214872
10.208859
10.206589
10.203742
10.200081
10.195918
10.191241
10.185962
10.179634
10.170235
10.158252
10.140697
10.121237
10.088895
10.072941
10.049455
10.052415
10.016438
10.034031
9.9851773
10.007563
35788.322
23930.691
8321.2236
1541.1458
754.35701
476.10072
375.7796
290.51325
239.67269
190.68827
159.79012
133.75059
115.77654
101.68134
90.36141
80.712
72.532055
65.53517
59.501142
54.253779
49.658669
45.612656
42.031907
38.846925
36.000107
33.443544
31.143294
29.062945
27.177994
25.46742
23.912779
22.497632
21.207895
20.031163
18.958452
17.981321
17.092246
16.28462
15.552257
14.889607
14.291835
13.753834
13.271253
12.840025
12.456035
12.115513
11.815016
11.550739
11.319431
11.118031
10.943501
10.792978
10.663836
10.553607
10.459976
10.380939
10.315031
10.263576
10.227357
10.209459
10.203892
10.201751
10.198948
10.195367
10.191292
10.1867
10.181507
10.175558
10.166915
10.155448
10.138511
10.119223
10.087884
10.072472
10.049075
10.052005
10.017214
10.035001
9.9860793
10.008839
40278.205
20410.299
5857.7721
1225.7037
720.19946
458.54506
366.07892
278.06878
231.50004
182.53112
154.80572
129.15718
112.5028
98.873749
87.979176
78.62932
70.733579
63.968099
58.127803
53.04429
48.589721
44.665377
41.190357
38.097555
35.331327
32.846375
30.606783
28.582068
26.747227
25.081651
23.567411
22.18853
20.931414
19.784076
18.738075
17.785091
16.917872
16.130029
15.415532
14.769023
14.185819
13.660885
13.190054
12.769347
12.39473
12.062551
11.769449
11.511667
11.286075
11.089677
10.919498
10.772758
10.646913
10.539455
10.448191
10.371178
10.306822
10.256333
10.221048
10.203939
10.19891
10.196893
10.194143
10.190648
10.186668
10.182164
10.177054
10.171286
10.163417
10.152497
10.136202
10.117085
10.086815
10.07181
10.048586
10.051422
10.017912
10.035883
9.9869917
10.010112
43063.795
19047.002
4508.3217
1154.1912
699.84527
440.22822
358.59299
268.27384
225.25853
176.01924
150.89514
125.26974
109.79792
96.45333
85.926708
76.822193
69.165175
62.591547
56.914173
51.969515
47.634859
43.814881
40.431012
37.41808
34.722175
32.29936
30.113765
28.138255
26.347875
24.722489
23.244523
21.898378
20.670866
19.55035
18.528863
17.598134
16.751169
15.981745
15.283962
14.652625
14.083175
13.57063
13.11099
12.70034
12.334719
12.010576
11.724622
11.473137
11.25311
11.061598
10.895696
10.752735
10.630047
10.525317
10.436396
10.36139
10.298703
10.249144
10.214776
10.198486
10.19393
10.19202
10.189331
10.185929
10.182045
10.177633
10.17261
10.166895
10.159732
10.149392
10.13376
10.114818
10.085692
10.070688
10.047974
10.050655
10.018525
10.036672
9.987917
10.011246
45273.204
17140.503
3623.888
1104.0477
684.62187
427.63355
352.67818
260.42179
220.43344
170.84034
147.78147
121.99873
107.55408
94.364313
84.156592
75.251101
67.793911
61.379741
55.839493
51.012492
46.780168
43.049777
39.74459
36.800979
34.166408
31.798201
29.661803
27.728625
25.977575
24.388086
22.94271
21.626127
20.425489
19.329446
18.330448
17.420216
16.592003
15.839709
15.157541
14.540447
13.983962
13.483141
13.034141
12.633089
12.276083
11.959668
11.680608
11.43522
11.220603
11.033872
10.872229
10.732838
10.613266
10.511226
10.424618
10.351599
10.290657
10.242018
10.208551
10.193102
10.188947
10.187138
10.184518
10.181214
10.17743
10.173112
10.168177
10.16255
10.155864
10.146136
10.131182
10.112453
10.084448
10.069206
10.04727
10.049713
10.01905
10.037377
9.9888562
10.012201
46904.797
14501.573
3059.4721
1073.2597
673.04254
417.47534