/*--------------------------------*- C++ -*----------------------------------*\
  =========                 |
  \\      /  F ield         | OpenFOAM: The Open Source CFD Toolbox
   \\    /   O peration     | Website:  https://openfoam.org
    \\  /    A nd           | Version:  12
     \\/     M anipulation  |
\*---------------------------------------------------------------------------*/
FoamFile
{
    format      ascii;
    class       volScalarField;
    location    "1450";
    object      k;
}
// * * * * * * * * * * * * * * * * * * * * * * * * * * * * * * * * * * * * * //

dimensions      [0 2 -2 0 0 0 0];

internalField   nonuniform List<scalar> 
16200
(
445.7298424
512.583127
468.2709786
424.9651247
368.1815436
281.416358
158.4479785
46.78241014
5.455542893
0.1899560799
0.002067060958
0.001014916181
0.0009689339401
0.000943634519
0.0009295538721
0.0009212437874
0.0009158588588
0.0009126525756
0.0009110322403
0.0009105205919
0.0009108713377
0.0009119397112
0.0009136341109
0.0009159028747
0.0009187222798
0.0009220858776
0.0009259945119
0.0009304450253
0.0009354172699
0.0009408593019
0.000946672002
0.0009526997698
0.0009587375992
0.0009645593568
0.000969957297
0.0009747738923
0.0009789152383
0.0009823468585
0.0009850798251
0.0009871541661
0.0009886226654
0.000989535376
0.0009899248018
0.0009897869655
0.000989034555
0.0009873711156
0.0009850002896
0.0009839079824
0.0009834787868
0.0009833394323
0.0009833343592
0.0009834071893
0.0009835484423
0.0009837740615
0.0009841184391
0.0009846360417
0.0009854087004
0.0009865651547
0.0009883196154
0.0009910929512
467.613353
531.1472655
477.2923835
424.3687607
355.4111591
253.1883952
120.5595901
27.27381205
2.233928178
0.05054219539
0.001160095169
0.0009972628739
0.0009560949686
0.0009330584968
0.0009202812811
0.000912858943
0.0009081369693
0.0009054513174
0.0009042703363
0.0009041510921
0.0009048717913
0.0009063068943
0.0009083803197
0.0009110531259
0.0009143115997
0.0009181559489
0.0009225888878
0.000927602128
0.0009331604881
0.0009391844914
0.0009455358527
0.0009520162195
0.0009583882468
0.0009644158833
0.0009699061166
0.0009747327057
0.0009788373244
0.0009822154856
0.0009848980312
0.0009869347462
0.0009883811206
0.0009892865645
0.0009896833984
0.0009895744618
0.0009888998338
0.0009874270276
0.0009850761946
0.0009839795166
0.000983553794
0.0009834216638
0.0009834250417
0.0009835060198
0.0009836540857
0.0009838843097
0.0009842303474
0.0009847459906
0.0009855132831
0.0009866629478
0.0009884176362
0.0009912322696
489.0012862
547.5226084
483.4231534
419.957725
337.1464384
219.3196392
84.40955027
14.08806519
0.7731682015
0.01143407805
0.001060676793
0.0009819076991
0.0009446042062
0.0009236740176
0.000912134876
0.0009055536153
0.0009014734792
0.000899302797
0.000898565823
0.000898852666
0.0008999653465
0.0009017969998
0.0009042868882
0.0009074085344
0.0009111573634
0.0009155380475
0.0009205508254
0.0009261747842
0.0009323483213
0.0009389503898
0.0009457918299
0.0009526287946
0.0009592005983
0.0009652781719
0.0009707009015
0.0009753869603
0.0009793207555
0.0009825302489
0.0009850657987
0.000986985438
0.0009883453201
0.0009891917609
0.0009895535077
0.0009894344778
0.0009887929074
0.0009874611133
0.0009851523245
0.0009840558943
0.0009836330852
0.0009835061749
0.0009835159778
0.0009836035494
0.0009837574798
0.0009839919974
0.0009843399739
0.0009848545144
0.0009856176513
0.0009867618126
0.0009885170022
0.0009913692167
508.7557586
560.3218353
485.8764202
410.9066036
312.8025491
180.3210554
53.71728369
6.428747727
0.2301587869
0.002624954456
0.001030391683
0.0009683812055
0.0009346275096
0.0009156843921
0.0009053284128
0.00089954494
0.0008960848323
0.0008944208534
0.0008941289727
0.0008948314997
0.0008963537821
0.0008986068792
0.0009015446147
0.0009051515466
0.0009094295422
0.0009143830675
0.0009200024107
0.0009262430445
0.0009330032435
0.000940108399
0.0009473154534
0.0009543455025
0.0009609352239
0.0009668846798
0.0009720814842
0.0009764951881
0.0009801529141
0.0009831114364
0.0009854360836
0.0009871890534
0.0009884239132
0.000989181275
0.0009894836505
0.0009893317516
0.0009886927808
0.000987435701
0.0009852057484
0.0009841228417
0.0009837075442
0.0009835870486
0.0009836033131
0.0009836972878
0.0009838570471
0.0009840961449
0.000984446736
0.0009849612728
0.0009857216767
0.0009868618234
0.0009886182047
0.0009915053143
526.4320799
569.9017723
484.8341107
397.7611905
283.9631507
139.630381
31.28283728
2.703463991
0.06315425608
0.00126657658
0.001011548304
0.000956779296
0.000926305191
0.0009092326258
0.0009000084823
0.0008949868514
0.0008921307209
0.000890969933
0.0008911279489
0.0008922587211
0.0008942105115
0.000896911358
0.0009003281836
0.0009044539541
0.0009092925389
0.0009148411771
0.0009210698087
0.0009278967349
0.0009351667681
0.0009426456976
0.0009500442199
0.0009570690216
0.0009634794004
0.0009691246422
0.0009739505615
0.0009779788163
0.0009812745627
0.0009839170557
0.0009859809028
0.0009875282192
0.0009886071019
0.0009892505169
0.0009894730505
0.0009892695095
0.0009886107843
0.0009873861927
0.0009852466425
0.0009841855269
0.0009837800858
0.0009836661287
0.0009836883349
0.0009837881957
0.000983953529
0.0009841973232
0.0009845510612
0.000985066563
0.0009858255551
0.0009869631303
0.0009887214388
0.0009916406337
541.5032327
576.4280929
480.3157744
379.6095026
249.3110113
100.3618339
17.61793872
1.089834021
0.01755153755
0.001115705141
0.0009962139803
0.0009471202411
0.0009196866154
0.0009043749286
0.0008962313167
0.000891937467
0.0008896703021
0.0008890105963
0.0008896251631
0.0008911988104
0.0008936014871
0.0008967761739
0.0009007000677
0.0009053702391
0.0009107859725
0.0009169276239
0.0009237319473
0.0009310663756
0.0009387139392
0.0009463853809
0.000953764611
0.0009605713704
0.0009666119964
0.0009717988531
0.0009761383842
0.0009796990771
0.0009825757962
0.0009848622563
0.0009866361823
0.0009879555257
0.0009888604824
0.0009893750374
0.0009895049529
0.0009892375321
0.0009885444434
0.0009873352063
0.0009852726802
0.0009842421893
0.0009838495764
0.0009837427808
0.0009837707616
0.0009838762231
0.0009840470139
0.0009842956885
0.0009846531231
0.0009851705375
0.0009859294134
0.0009870658554
0.0009888269249
0.0009917755623
553.8100307
580.3124483
472.6038187
355.5863437
208.573731
66.87087574
9.36952307
0.4299107922
0.00523067979
0.00107209255
0.0009832737449
0.0009392963958
0.0009146907562
0.0009010435465
0.000893938512
0.0008903506422
0.0008886679905
0.0008885164124
0.0008896014252
0.0008916374546
0.0008945144249
0.0008981877739
0.0009026412825
0.0009078702858
0.0009138607312
0.0009205642587
0.0009278709742
0.0009355872397
0.0009434350195
0.0009510862732
0.0009582257168
0.0009646139458
0.0009701224406
0.0009747319448
0.0009785049573
0.0009815474785
0.0009839742721
0.0009858855356
0.0009873566421
0.0009884381288
0.0009891606189
0.000989538436
0.0009895682843
0.0009892291177
0.0009884908322
0.0009872823978
0.0009852870114
0.0009842938818
0.0009839164018
0.0009838172383
0.0009838508344
0.0009839616489
0.0009841378049
0.0009843915411
0.0009847531932
0.0009852734164
0.0009860334143
0.0009871701214
0.0009889348142
0.000991910294
563.1544745
581.5771161
461.4356232
326.5333726
165.0548351
40.04020851
4.708792302
0.1799223596
0.00225974573
0.001048799014
0.0009725542609
0.0009332243672
0.0009112424455
0.000899167165
0.0008930602115
0.0008901602861
0.0008890591916
0.0008894226914
0.000890990665
0.0008935061469
0.0008968770204
0.0009010677455
0.0009060632158
0.0009118489559
0.0009183867481
0.0009255867399
0.0009332810264
0.0009412118533
0.0009490519558
0.000956460383
0.0009631527691
0.0009689531218
0.0009738071354
0.000977761
0.0009809235961
0.0009834271554
0.0009853966039
0.0009869316175
0.0009881008911
0.0009889452823
0.0009894849185
0.0009897243388
0.0009896514657
0.0009892366903
0.0009884459915
0.000987226269
0.0009852912352
0.0009843408202
0.0009839804524
0.0009838894205
0.0009839285873
0.0009840446139
0.0009842261138
0.0009844851246
0.0009848515111
0.0009853754054
0.0009861377153
0.0009872760429
0.0009890452343
0.0009920450266
569.4566781
579.9500518
444.8259717
290.944925
122.2278464
23.70402819
2.294713818
0.07829010554
0.001610954199
0.001031265485
0.0009638590644
0.0009287769882
0.0009092336625
0.000898642273
0.0008934911933
0.0008912612864
0.0008907380311
0.0008916228001
0.0008936855458
0.0008966961808
0.0009005770182
0.0009052962697
0.0009108326215
0.0009171522405
0.0009241811218
0.0009317762008
0.0009397052805
0.0009476532983
0.0009552661517
0.0009622207915
0.0009682904375
0.0009733761497
0.0009774975499
0.0009807569826
0.0009832973218
0.0009852656743
0.0009867886109
0.0009879598088
0.0009888382895
0.0009894539549
0.0009898161826
0.0009899200391
0.0009897452923
0.0009892540441
0.0009884066437
0.0009871655267
0.0009852877554
0.0009843836741
0.0009840418646
0.0009839593767
0.0009840041214
0.0009841252923
0.0009843121698
0.0009845766929
0.0009849483249
0.0009854767187
0.0009862424794
0.0009873837297
0.0009891582796
0.0009921799046
573.1589777
575.7439522
422.4131218
248.2765767
83.19132625
13.58894768
1.1091399
0.03681686356
0.001432115451
0.001016831825
0.0009569637986
0.0009257778169
0.0009085076283
0.0008993220925
0.0008950904191
0.000893519861
0.0008935762497
0.000894992309
0.0008975632496
0.000901083069
0.0009054838066
0.0009107312662
0.0009167898592
0.0009235961276
0.0009310286797
0.0009388824828
0.0009468628901
0.0009546152247
0.0009617883485
0.000968107062
0.0009734208166
0.0009777112421
0.0009810638975
0.000983624205
0.0009855561094
0.0009870114805
0.0009881118115
0.0009889409518
0.0009895465014
0.0009899469676
0.0009901412432
0.0009901155312
0.00098984228
0.0009892759194
0.00098836991
0.0009870988371
0.000985278634
0.0009844230235
0.0009841007534
0.0009840271457
0.0009840775252
0.0009842038446
0.0009843961886
0.0009846664897
0.0009850438763
0.0009855775685
0.0009863478685
0.0009874932855
0.0009892740211
0.000992315046
574.5137851
569.0009783
394.3497428
201.2301611
51.94394032
7.379567047
0.5332527844
0.01874078402
0.001352300892
0.001004856866
0.0009517030969
0.0009240884756
0.0009089366083
0.0009010839255
0.0008977376765
0.0008968192969
0.000897458491
0.0008994148552
0.0009025038392
0.000906540245
0.0009114605989
0.0009172214432
0.0009237636931
0.0009309828178
0.000938699576
0.0009466444042
0.0009544726613
0.0009618172743
0.0009683619875
0.0009739030548
0.0009783744162
0.0009818326976
0.0009844163145
0.000986299434
0.000987655249
0.0009886322637
0.0009893421203
0.0009898565368
0.0009902109824
0.000990412772
0.0009904509412
0.0009903036143
0.0009899368445
0.0009892982213
0.0009883335284
0.0009870250605
0.0009852657936
0.0009844594824
0.0009841572919
0.0009840928098
0.0009841489111
0.0009842804396
0.0009844783861
0.000984754755
0.0009851384035
0.0009856781648
0.0009864540433
0.0009876048081
0.000989392507
0.0009924505379
573.6380467
559.0415564
359.8419418
153.6704218
32.32942156
4.001499493
0.2636822568
0.01012303539
0.001254434367
0.0009950042242
0.0009479102617
0.0009235788264
0.0009104052829
0.0009038185695
0.000901325719
0.0009010533412
0.0009022769129
0.0009047789333
0.0009083905404
0.000912943579
0.0009183726799
0.0009246165571
0.0009315814199
0.0009391101466
0.0009469596469
0.0009548031572
0.0009622694851
0.0009690114803
0.0009747756734
0.0009794433303
0.0009830308539
0.0009856576916
0.0009874997783
0.0009887464486
0.0009895703977
0.0009901108554
0.0009904666446
0.0009906963063
0.0009908232528
0.0009908442484
0.0009907393166
0.0009904793668
0.0009900249852
0.0009893178578
0.0009882957793
0.0009869432615
0.0009852508235
0.0009844936025
0.0009842116674
0.0009841564736
0.0009842184051
0.0009843552501
0.0009845589753
0.0009848417233
0.0009852321391
0.0009857787137
0.0009865611605
0.000987718388
0.0009895137657
0.0009925864423
570.6996205
544.9786813
316.7826664
109.0101609
20.52582162
2.223984798
0.1379257322
0.00610794527
0.00117639811
0.0009870191488
0.0009454646726
0.0009241472661
0.0009128179565
0.0009074307818
0.0009057580052
0.0009061243571
0.0009079321849
0.0009109828487
0.0009151180313
0.0009201810101
0.0009260959747
0.0009327729999
0.000940071703
0.0009477740476
0.0009555759157
0.0009631123037
0.0009700165746
0.0009759925202
0.0009808683453
0.0009846127736
0.0009873144528
0.0009891399335
0.0009902875022
0.0009909501359
0.0009912927508
0.0009914414939
0.0009914809017
0.0009914562418
0.0009913794773
0.0009912377287
0.0009910029574
0.0009906397276
0.0009901040351
0.0009893326164
0.0009882554369
0.000986852743
0.0009852350037
0.0009845258769
0.0009842640808
0.0009842182661
0.0009842861491
0.0009844284548
0.0009846381678
0.0009849276236
0.0009853253091
0.0009858794154
0.0009866693718
0.0009878341079
0.0009896378066
0.0009927227973
566.0202359
525.6542207
266.9346048
73.65813019
12.04391889
1.211616428
0.07320532399
0.003864190577
0.00111448016
0.0009801584894
0.0009442377939
0.0009256893952
0.0009160793011
0.0009118294729
0.0009109475704
0.0009119494641
0.0009143440249
0.0009179460195
0.0009226012886
0.0009281570425
0.000934516621
0.0009415498554
0.0009490600971
0.0009567675742
0.0009643214337
0.0009713469109
0.0009775144981
0.0009826026047
0.0009865286078
0.0009893414515
0.0009911867579
0.0009922617632
0.0009927737908
0.0009929105917
0.0009928244314
0.00099262634
0.0009923862415
0.0009921366843
0.0009918791148
0.0009915920418
0.0009912403355
0.0009907830444
0.0009901723669
0.0009893409948
0.0009882116772
0.0009867530314
0.0009852193094
0.0009845567258
0.000984314735
0.0009842783326
0.0009843522973
0.0009845002362
0.0009847161724
0.0009850126787
0.0009854181322
0.000985980463
0.0009867788221
0.0009879520417
0.0009897646208
0.0009928596198
560.20725
499.8112075
215.2926972
48.60479052
7.283275838
0.679494478
0.03977451279
0.002588200692
0.001070349367
0.0009748786842
0.0009440111112
0.000928115989
0.0009201160436
0.0009169524854
0.000916840918
0.000918479317
0.0009214623007
0.0009256122073
0.000930772369
0.0009367849331
0.0009435207728
0.0009507991462
0.000958363526
0.000965882268
0.0009729826349
0.000979312562
0.0009846070531
0.0009887318119
0.0009916900302
0.0009935969684
0.00099463811
0.0009950263862
0.000994967588
0.0009946380832
0.0009941746963
0.0009936726751
0.0009931877967
0.0009927408448
0.0009923238414
0.0009919077433
0.0009914512635
0.0009909086966
0.000990229139
0.0009893420496
0.0009881639938
0.0009866438488
0.000985204455
0.0009845865022
0.0009843638308
0.0009843368307
0.0009844170128
0.000984570779
0.0009847931943
0.0009850971041
0.0009855108184
0.0009860820412
0.0009868896483
0.0009880722535
0.000989894182
0.0009929969068
553.7961313
464.1713309
167.5699717
34.48964208
4.634730412
0.3919014168
0.0221718355
0.001890055366
0.001041381615
0.0009712665348
0.0009448496509
0.0009313687978
0.0009249135748
0.0009227855902
0.0009234213312
0.0009256905997
0.0009292539472
0.0009339346918
0.0009395655509
0.0009459721705
0.0009529818605
0.0009603577993
0.0009677896438
0.0009749146059
0.0009813688897
0.0009868527874
0.000991183269
0.0009943144776
0.000996323848
0.0009973758494
0.0009976794564
0.0009974509883
0.0009968870925
0.0009961490099
0.0009953569698
0.0009945907375
0.0009938929048
0.000993273651
0.0009927167077
0.0009921865015
0.000991636452
0.0009910167803
0.0009902740774
0.0009893352592
0.000988112121
0.0009865324986
0.0009851909398
0.0009846154985
0.0009844115626
0.0009843939249
0.0009844804643
0.0009846402681
0.0009848694339
0.0009851811071
0.0009856035683
0.0009861843252
0.0009870019782
0.0009881947966
0.0009900264522
0.0009931346376
547.7108909
417.1684315
126.3997896
23.77238439
2.920869901
0.2262371465
0.01247595504
0.001494301984
0.00102227205
0.0009692335957
0.0009467408276
0.0009354710526
0.0009304490917
0.0009293160221
0.0009306724029
0.0009335599638
0.0009376846842
0.0009428618025
0.0009489037275
0.0009556082165
0.0009627524653
0.0009700467624
0.0009771435273
0.0009836768207
0.0009893221267
0.0009938534661
0.0009971756565
0.0009993229131
0.001000430662
0.001000695285
0.001000335285
0.0009995611949
0.0009985556375
0.0009974629201
0.0009963866992
0.0009953921753
0.000994509981
0.0009937409171
0.0009930615247
0.0009924306434
0.0009917971761
0.0009911078651
0.0009903073016
0.0009893204117
0.0009880555876
0.0009864290146
0.0009851790955
0.0009846439556
0.0009844581168
0.000984449783
0.0009845428225
0.0009847088863
0.0009849450856
0.0009852648864
0.000985696572
0.0009862874799
0.0009871159288
0.0009883197128
0.000990161388
0.0009932727746
543.4075459
360.6104979
92.72705163
15.90645604
1.814222742
0.1283165693
0.00700791052
0.001267610573
0.001009937406
0.0009686597657
0.0009496399032
0.0009403992469
0.000936714731
0.0009365266637
0.0009385787497
0.0009420639503
0.0009467141624
0.0009523272757
0.0009586871252
0.0009655566056
0.000972663613
0.0009796781038
0.0009862395488
0.0009920083845
0.0009967234737
0.001000242987
0.001002555077
0.001003759515
0.001004032134
0.001003585853
0.001002637899
0.001001386854
0.0009999986945
0.0009986004077
0.000997279872
0.0009960889841
0.0009950477417
0.0009941487664
0.0009933624283
0.0009926428259
0.0009919350282
0.0009911828109
0.0009903291898
0.0009892975334
0.0009879936255
0.0009863334741
0.0009851691275
0.0009846720728
0.0009845036706
0.0009845045725
0.0009846042579
0.0009847768126
0.0009850203364
0.0009853486308
0.0009857900089
0.0009863916584
0.0009872316054
0.0009884470336
0.000990298935
0.000993411265
541.8847367
299.2338081
65.92346106
10.79076189
1.128097131
0.07145685294
0.004017796239
0.001145961226
0.00100264598
0.0009694745717
0.0009535336716
0.0009461542874
0.0009437172275
0.0009444194044
0.0009471288426
0.0009511699219
0.0009562809688
0.0009622358653
0.0009687852824
0.0009756553374
0.0009825330732
0.0009890681822
0.0009949146825
0.0009997849411
0.001003495596
0.001005988638
0.001007323582
0.001007648625
0.001007163616
0.00100608566
0.001004623133
0.001002959065
0.001001241852
0.0009995817381
0.0009980520645
0.0009966928292
0.0009955147061
0.0009945032551
0.0009936235907
0.0009928258121
0.0009920517458
0.000991242636
0.0009903402793
0.000989266835
0.0009879256805
0.0009862457422
0.0009851611501
0.0009847000157
0.0009845483916
0.0009845584584
0.0009846649378
0.0009848442207
0.0009850953649
0.0009854325184
0.0009858840462
0.0009864970014
0.0009873491007
0.000988576778
0.0009904390189
0.0009935500412
542.5699054
238.0169312
50.27920943
7.642567776
0.6953017976
0.03824049622
0.00243654433
0.001083635345
0.0009988922008
0.0009716263158
0.000958428507
0.0009527477744
0.0009514604109
0.0009529785337
0.0009562843452
0.0009608106623
0.0009662868709
0.0009724578122
0.0009790402996
0.0009857267844
0.0009921792115
0.000998051754
0.001003038829
0.001006922276
0.001009600347
0.001011090036
0.001011506301
0.001011028897
0.001009868001
0.001008235876
0.001006327317
0.001004308177
0.00100230952
0.001000425999
0.000998717866
0.000997214637
0.0009959188918
0.0009948101363
0.0009938490325
0.0009929823214
0.0009921490926
0.0009912884243
0.0009903411912
0.0009892286466
0.0009878513675
0.0009861655488
0.0009851552133
0.0009847279238
0.0009845924373
0.0009846116008
0.000984725025
0.000984911277
0.0009851703407
0.0009855167166
0.0009859788389
0.0009866036367
0.0009874684935
0.0009887089514
0.0009905815342
0.0009936890214
543.1997307
182.2942608
39.14058455
5.423942605
0.413170069
0.01904029481
0.00163804999
0.001053216093
0.0009977252478
0.0009750568176
0.0009643004769
0.0009601519574
0.0009599018764
0.0009621396958
0.0009659629312
0.0009708801579
0.0009766012158
0.000982838956
0.0009892797092
0.0009955924754
0.001001435857
0.001006493773
0.001010520765
0.001013375779
0.001015033367
0.001015571503
0.001015143852
0.001013947036
0.001012191154
0.00101007767
0.001007785335
0.001005462614
0.00100322422
0.001001150658
0.0009992905905
0.0009976643907
0.0009962676591
0.0009950747335
0.0009940425174
0.0009931149406
0.0009922287844
0.0009913212648
0.0009903325826
0.0009891833728
0.0009877704286
0.000986092546
0.0009851513249
0.000984755916
0.0009846359554
0.0009846641534
0.0009847846755
0.0009849781401
0.0009852454232
0.0009856013806
0.0009860745289
0.0009867116781
0.0009875898483
0.000988843543
0.0009907263546
0.000993828109
543.8233207
144.1036503
30.42356862
3.748402665
0.2268139344
0.00863717065
0.001272954725
0.001039447186
0.0009985384068
0.0009796540821
0.0009710648852
0.0009682856039
0.0009689479088
0.0009718061057
0.000976055289
0.0009812506354
0.000987075863
0.0009932137128
0.0009993297368
0.001005086798
0.001010164154
0.001014296366
0.001017308855
0.001019135878
0.001019816687
0.00101947426
0.001018285703
0.001016452891
0.001014178641
0.0010116502
0.001009029472
0.001006448237
0.001004006237
0.001001771374
0.0009997821612
0.0009980510495
0.0009965676437
0.0009953018803
0.0009942074959
0.0009932260722
0.0009922924431
0.0009913422121
0.0009903151121
0.0009891314617
0.0009876826874
0.0009860263468
0.0009851494646
0.0009847840947
0.0009846790838
0.0009847162626
0.0009848440378
0.0009850449596
0.0009853207612
0.0009856866537
0.0009861712445
0.0009868212247
0.0009877132139
0.0009889805256
0.0009908733535
0.0009939671938
542.3538786
123.892017
24.74862909
2.50824398
0.1103754617
0.00366521858
0.001134251993
0.001033955414
0.001000948333
0.0009852928795
0.0009786258096
0.0009770490568
0.0009784995518
0.0009818757733
0.0009864441558
0.0009917838886
0.0009975530946
0.001003413785
0.001009026207
0.001014067967
0.001018260031
0.001021400571
0.001023387312
0.001024220947
0.001023990773
0.001022849423
0.001020984891
0.001018595918
0.001015873597
0.001012989442
0.001010088826
0.001007288082
0.001004673526
0.001002301974
0.00100020311
0.0009983825486
0.0009968247506
0.0009954959057
0.0009943470846
0.0009933179104
0.0009923415721
0.0009913522638
0.000990289419
0.0009890733871
0.0009875880069
0.0009859665533
0.0009851495954
0.0009848125494
0.0009847219506
0.0009847680662
0.0009849032517
0.0009851118753
0.0009853964923
0.0009857726661
0.0009862690996
0.0009869323598
0.0009878386234
0.0009891198563
0.0009910223846
0.0009941061551
537.0638829
115.2763519
20.39661189
1.559128114
0.04374011339
0.001740594239
0.001092740615
0.001032387095
0.001004735507
0.0009919053844
0.0009868918217
0.0009863534984
0.0009884719925
0.0009922456042
0.000997002246
0.001002329908
0.001007869527
0.001013277062
0.001018225539
0.001022426781
0.001025657687
0.001027784135
0.001028770056
0.001028669692
0.001027607466
0.001025752525
0.001023294323
0.001020422982
0.001017315565
0.001014127679
0.001010989161
0.001008002385
0.001005241799
0.001002754544
0.001000562657
0.0009986658568
0.0009970441895
0.0009956606521
0.0009944640708
0.000993392437
0.0009923775476
0.0009913523493
0.000990256113
0.0009890096407
0.0009874862481
0.0009859127732
0.0009851516712
0.0009848413585
0.0009847646743
0.0009848196933
0.0009849624479
0.0009851790165
0.000985472742
0.0009858595346
0.0009863681934
0.0009870451511
0.000987966093
0.0009892614729
0.0009911732609
0.000994244867
526.9160179
114.3913102
16.61803405
0.8948154753
0.01392270252
0.001249058419
0.001081787423
0.001033181018
0.001009831613
0.0009993638089
0.0009957825557
0.0009961249038
0.0009987680415
0.001002793871
0.0010075833
0.001012727786
0.001017864214
0.001022658811
0.001026814398
0.001030091296
0.001032328447
0.001033455949
0.001033493119
0.001032533733
0.001030724015
0.001028239377
0.001025264263
0.001021977025
0.001018539937
0.001015093366
0.001011752971
0.001008608723
0.001005724677
0.001003139568
0.001000868816
0.000998907053
0.0009972305264
0.0009957995068
0.0009945609294
0.0009934514282
0.0009924016193
0.0009913433282
0.0009902157689
0.0009889407342
0.000987377231
0.0009858646314
0.0009851556412
0.0009848705914
0.0009848073636
0.0009848712629
0.0009850217465
0.0009852465014
0.0009855496234
0.0009859473621
0.000986468609
0.0009871596485
0.0009880956206
0.0009894052883
0.000991325764
0.0009943832001
511.8899812
107.0215702
12.68200955
0.4639029299
0.003844303815
0.001171559465
0.001077544591
0.001035724834
0.001015996374
0.00100757384
0.001005205687
0.001006252116
0.001009255827
0.001013371103
0.001018025285
0.001022816075
0.001027391068
0.001031442259
0.001034715359
0.001037026597
0.001038275772
0.001038448571
0.001037606976
0.001035871213
0.001033398527
0.001030363257
0.001026940838
0.001023296445
0.00101957782
0.001015911245
0.001012399695
0.001009122242
0.001006133892
0.001003466087
0.001001128518
0.0009991114149
0.000997387744
0.0009959154408
0.0009946398459
0.0009934964665
0.0009924149148
0.0009913259901
0.0009901689236
0.0009888672057
0.0009872606922
0.000985821775
0.000985161453
0.000984900309
0.0009848501176
0.0009849228843
0.0009850812574
0.0009853144365
0.0009856272365
0.0009860362364
0.0009865704132
0.0009872758844
0.0009882271839
0.0009895511881
0.0009914797089
0.0009945210127
492.2001311
95.57660053
8.998218069
0.2083004872
0.001693356734
0.001155494753
0.001075700857
0.001039691802
0.001023079282
0.001016397501
0.001015020509
0.001016585045
0.001019775673
0.00102381233
0.001028165355
0.001032447288
0.001036330533
0.001039545289
0.001041887691
0.001043230593
0.001043528158
0.001042810515
0.001041169863
0.001038741891
0.001035686854
0.001032173227
0.00102836534
0.001024414972
0.001020456209
0.00101660263
0.001012946015
0.001009555926
0.001006479508
0.001003741877
0.001001347744
0.0009992835137
0.0009975193083
0.0009960110542
0.0009947027461
0.0009935289592
0.0009924184505
0.0009913010611
0.0009901160764
0.0009887896364
0.0009871362443
0.0009857838755
0.0009851690542
0.0009849305649
0.0009848930261
0.0009849746567
0.0009851410793
0.0009853829164
0.000985705668
0.0009861262304
0.0009866736559
0.0009873938727
0.0009883607399
0.0009896990391
0.0009916349518
0.0009946581395
468.4253387
81.88365017
5.957028993
0.09044345587
0.001427915799
0.001144798119
0.001075892844
0.001044858094
0.00103090079
0.001025669563
0.001025063846
0.001026957943
0.001030161115
0.001033956381
0.001037857066
0.001041501521
0.001044598243
0.001046923253
0.001048324924
0.001048728184
0.001048132125
0.001046599831
0.001044242877
0.001041203967
0.001037640879
0.00103371345
0.001029574155
0.001025361911
0.001021198353
0.001017185784
0.001013406194
0.001009920876
0.001006770145
0.001003973612
0.001001531646
0.0009994273064
0.000997628234
0.0009960886209
0.0009947513256
0.0009935501573
0.0009924131441
0.0009912692118
0.0009900576885
0.0009887086749
0.0009870151889
0.0009857506301
0.0009851783936
0.0009849614056
0.0009849361693
0.0009850266687
0.0009852013
0.0009854520231
0.0009857849903
0.000986217401
0.0009867783691
0.0009875136075
0.0009884962234
0.0009898486941
0.0009917913071
0.0009947944012
440.7706362
68.37040524
3.8089111
0.04015729299
0.001319962435
0.001137617972
0.001077793533
0.001050994805
0.001039271899
0.00103521465
0.001035164298
0.001037202182
0.001040251142
0.001043657485
0.001046979713
0.001049891828
0.00105214542
0.001053564782
0.001054047475
0.001053562752
0.001052144332
0.001049877878
0.001046885711
0.001043311534
0.001039307242
0.001035022734
0.001030598774
0.001026162383
0.001021824067
0.001017676234
0.001013792355
0.00101022654
0.00100701316
0.001004167012
0.001001684656
0.0009995462106
0.0009977171385
0.0009961501271
0.0009947870763
0.0009935611728
0.000992399825
0.0009912310649
0.0009899941809
0.000988624569
0.0009869046365
0.0009857217596
0.0009851894209
0.0009849928706
0.0009849796177
0.0009850789984
0.0009852619953
0.0009855218258
0.0009858652615
0.0009863097887
0.0009868845662
0.0009876350625
0.0009886335469
0.0009899999891
0.0009919485487
0.0009949296211
409.0074676
55.41719134
2.431772588
0.01538927159
0.001269930087
0.001133342298
0.001081110758
0.001057882649
0.001048003388
0.001044855094
0.001045151003
0.001047156542
0.001049901025
0.001052795101
0.001055444815
0.001057566236
0.001058956438
0.00105948596
0.00105909529
0.001057788994
0.001055625751
0.001052705264
0.00104915424
0.001045113436
0.001040727035
0.00103613471
0.001031466194
0.00102683778
0.00102235017
0.001018087147
0.001014114788
0.001010480958
0.001007214831
0.001004326977
0.001001810591
0.000999643185
0.0009977883
0.0009961973121
0.0009948113155
0.0009935629993
0.0009923792492
0.0009911872074
0.0009899259547
0.0009885372619
0.000986803844
0.0009856970073
0.0009852020867
0.0009850249927
0.0009850234322
0.0009851317125
0.0009853232289
0.00098559238
0.000985946524
0.0009864034162
0.0009869922413
0.00098775819
0.0009887725993
0.0009901527411
0.0009921064376
0.0009950636126
373.1361868
43.61528243
1.493413167
0.006521159202
0.001244478529
0.001131412743
0.001085537153
0.001065292911
0.001056901903
0.001054414993
0.001054862677
0.001056678648
0.001058993521
0.001061282616
0.001063200529
0.001064507731
0.001065045228
0.001064724736
0.001063521933
0.001061467914
0.001058638116
0.00105513978
0.001051099646
0.001046653201
0.001041936187
0.001037078408
0.00103219953
0.001027406338
0.001022790971
0.001018429728
0.001014382267
0.001010691002
0.001007380547
0.001004457729
0.001001912752
0.0009997208018
0.0009978437095
0.0009962317057
0.0009948252104
0.0009935565275
0.0009923521093
0.0009911381981
0.0009898534057
0.0009884466543
0.0009867121357
0.0009856761364
0.0009852163423
0.000985057798
0.0009850676646
0.0009851848674
0.0009853850524
0.0009856637275
0.0009860288047
0.0009864982887
0.0009871013682
0.0009878829198
0.0009889132458
0.0009903067474
0.000992264716
0.0009951961813
334.1798063
32.83159582
0.8557798128
0.003227966117
0.00122923461
0.001131373571
0.001090791657
0.001073007113
0.001065781742
0.001063730074
0.001064157281
0.001065653252
0.001067444375
0.001069068773
0.001070228932
0.001070728331
0.001070447626
0.001069333109
0.001067387828
0.001064661729
0.001061240572
0.001057234519
0.001052767602
0.001047968887
0.001042965681
0.001037878638
0.001032818431
0.001027883516
0.001023158596
0.001018713487
0.001014602256
0.001010862544
0.001007514929
0.001004562909
0.001001994001
0.0009997813016
0.0009978851121
0.0009962546581
0.0009948298016
0.0009935425633
0.0009923190475
0.0009910845806
0.0009897769383
0.0009883525729
0.000986628899
0.0009856589282
0.0009852321389
0.0009850913054
0.000985112356
0.0009852385072
0.0009854475039
0.0009857358947
0.0009861121132
0.0009865943913
0.000987211899
0.0009880091571
0.0009890553255
0.000990461783
0.0009924231096
0.0009953271304