/*--------------------------------*- C++ -*----------------------------------*\
  =========                 |
  \\      /  F ield         | OpenFOAM: The Open Source CFD Toolbox
   \\    /   O peration     | Website:  https://openfoam.org
    \\  /    A nd           | Version:  12
     \\/     M anipulation  |
\*---------------------------------------------------------------------------*/
FoamFile
{
    format      ascii;
    class       volScalarField;
    location    "1450";
    object      omega;
}
// * * * * * * * * * * * * * * * * * * * * * * * * * * * * * * * * * * * * * //

dimensions      [0 0 -1 0 0 0 0];

internalField   nonuniform List<scalar> 
16200
(
714173.7981
283106.8355
160489.2003
111273.8694
86554.90838
70391.52738
55405.77467
33577.39583
7668.249475
776.1143209
319.0777675
200.3049938
129.8443981
87.11215116
62.22320574
46.66968275
35.1637638
26.74033509
20.61059703
16.01945939
12.54215801
9.90327675
7.892349768
6.35073406
5.160390914
4.233375663
3.50539361
2.929741683
2.472744033
2.110567829
1.825795014
1.604138468
1.43251854
1.299757804
1.198112654
1.122570686
1.069224156
1.033961633
1.01224835
0.9997452313
0.9929794148
0.9895645511
0.9880432864
0.9876157143
0.9872686698
0.9865213136
0.9854634702
0.9849697914
0.9847726393
0.984710996
0.984720853
0.9847837254
0.9849044074
0.9851026258
0.9854116602
0.9858817848
0.9865882009
0.9876487009
0.9892607444
0.9918109923
750862.6441
298821.5647
169206.2864
117262.1656
90932.59478
72902.32093
54818.04636
26673.76482
3985.687671
596.2589744
322.9790308
204.108959
132.3152144
88.56325547
62.88802018
47.09278824
35.38977187
26.82607765
20.6229603
15.99300326
12.49503421
9.847959474
7.836514749
6.298642389
5.114226705
4.19393168
3.472624196
2.903089167
2.451300876
2.093348228
1.812068617
1.593608938
1.425081365
1.295076356
1.195563151
1.121416987
1.068832546
1.033906836
1.012301512
0.999806851
0.993015909
0.98956822
0.9880113285
0.98754509
0.9872349136
0.986574273
0.9855284524
0.9850363374
0.984844372
0.9847896273
0.9848068251
0.9848765903
0.9850029807
0.9852049972
0.9855152266
0.9859833446
0.9866846584
0.9877388173
0.9893509912
0.9919387903
786180.3325
314074.6462
177675.5535
123075.5767
94848.07249
74836.1857
52334.91908
18893.82857
2087.949862
546.7009801
327.7746355
207.4874689
134.4770076
89.81664607
63.44480327
47.4284064
35.54530764
26.85486138
20.58894424
15.92976416
12.41911835
9.770217922
7.763145668
6.232654951
5.056853445
4.145281474
3.432187246
2.870020773
2.424520533
2.071740359
1.794767344
1.580191312
1.415362748
1.288666455
1.191781973
1.119452139
1.067956992
1.033598374
1.012245867
0.999840469
0.9930639706
0.9896001183
0.9880129714
0.9875046247
0.987211526
0.9866156551
0.9855913878
0.9851027145
0.9849155542
0.9848667257
0.984890329
0.9849663404
0.985098169
0.985304133
0.9856161298
0.9860832377
0.986780731
0.9878298401
0.9894425253
0.9920648502
819043.5308
328218.3036
185677.0335
128631.0745
98177.94542
76194.98284
47071.69755
11626.96843
1285.013412
536.7052685
331.565252
210.1409999
136.1747418
90.79158806
63.85586774
47.65157997
35.61397852
26.81512633
20.50143577
15.82451211
12.31037391
9.666724877
7.669322063
6.150091175
4.985753839
4.085056103
3.381887942
2.828571729
2.390740948
2.044444169
1.772961947
1.563271252
1.402970856
1.280270545
1.186584347
1.116530911
1.066477831
1.032937573
1.0120019
0.9997837614
0.9930758181
0.9896241369
0.9880216944
0.9874790024
0.9871894587
0.9866290773
0.9856423757
0.98516284
0.9849823816
0.9849398998
0.9849698796
0.9850520822
0.9851894634
0.9853997612
0.9857142392
0.9861814055
0.986876429
0.9879218764
0.9895357093
0.9921900343
848950.0164
341251.8055
193119.4208
133837.4991
101202.4827
75645.18712
38132.20715
6443.71633
1009.186075
537.3969698
334.3773702
212.10464
137.4178024
91.48429243
64.1204473
47.75896656
35.59193297
26.70364134
20.35788837
15.67504211
12.16691088
9.53581881
7.553544455
6.049595326
4.899730073
4.01225493
3.32097381
2.778284194
2.349820409
2.011610292
1.74702048
1.54332509
1.388384883
1.27030023
1.180285406
1.112873555
1.064537429
1.0320103
1.011618431
0.9996632333
0.99306534
0.9896472387
0.9880407506
0.9874697912
0.9871738508
0.9866302682
0.985686077
0.9852191827
0.9850463396
0.9850101682
0.9850462504
0.9851344391
0.9852773764
0.985492297
0.9858098773
0.9862780795
0.986971911
0.9880150608
0.9896307478
0.9923145337
875356.3775
353198.0159
200072.8507
138536.6774
103710.4096
72618.2758
29082.92021
3783.587782
927.8032669
539.52859
336.066482
213.2954347
138.1555672
91.86125589
64.21948557
47.73503116
35.46696868
26.51136466
20.15153282
15.47602883
11.98450973
9.374108445
7.413063703
5.928963601
4.797079908
3.925666599
3.248718714
2.718885644
2.301863438
1.973603324
1.717436256
1.520856901
1.37203735
1.2590787
1.173098482
1.108604396
1.062198169
1.03084114
1.011099948
0.9994744196
0.9930251637
0.9896618605
0.9880633902
0.9874726401
0.9871637635
0.9866293268
0.9857216358
0.985271147
0.9851071181
0.9850774471
0.9851195152
0.985213583
0.9853621303
0.9855819739
0.9859032589
0.9863734336
0.9870673098
0.9881095112
0.9897278339
0.9924386511
898043.8324
364274.1198
206735.3357
142512.3933
106034.3836
66564.59871
20621.73878
2529.057313
901.714414
539.7975604
336.5044834
213.7003129
138.378315
91.91043159
64.14264569
47.56893055
35.22892169
26.23000554
19.87586306
15.22239448
11.75934355
9.178772338
7.245860562
5.786857703
4.67707598
3.825126673
3.165456815
2.651098089
2.247824542
1.931445783
1.685169331
1.496685046
1.354571814
1.247075837
1.165342849
1.103925403
1.059578553
1.029493966
1.010477482
0.9992302931
0.9929591933
0.9896677096
0.9880874172
0.98748473
0.9871580469
0.9866262477
0.985750595
0.985319365
0.9851650649
0.9851420245
0.985189969
0.9852898242
0.9854440382
0.9856690882
0.9859946443
0.9864676759
0.9871627774
0.9882053425
0.9898271113
0.9925625804
916784.9532
374685.7924
213298.6676
146352.2041
106234.8218
55610.51371
13386.88433
1979.315621
886.2380249
538.6387864
335.8481604
213.342328
138.0839465
91.61987236
63.87568565
47.24650101
34.86551157
25.85059402
19.52472778
14.91007861
11.48890097
8.948375616
7.051272977
5.623235061
4.54020935
3.711171792
3.072108595
2.576090114
2.188938772
1.886280315
1.651295422
1.47163986
1.336597161
1.234716009
1.157298094
1.099009567
1.056778199
1.028021356
1.009775732
0.9989404003
0.9928694918
0.9896635028
0.9881100918
0.9875028464
0.9871550857
0.9866205069
0.9857738036
0.985364088
0.9852202985
0.9852040394
0.9852578061
0.9853634042
0.985523367
0.9857539083
0.9860842797
0.9865610102
0.9872584656
0.988302663
0.9899286968
0.9926864972
931475.4811
384857.0278
219617.2312
149856.1653
102984.3347
44255.42876
8607.773193
1717.000894
881.4632278
535.7582593
333.9839113
212.1677778
137.2442118
90.97230998
63.40372513
46.75594418
34.36803158
25.36804752
19.09557231
14.53818362
11.17333345
8.683695583
6.830490676
5.43962042
4.387675652
3.586084759
2.971065878
2.496131577
2.127173565
1.839669747
1.616766325
1.446499902
1.318662746
1.222376898
1.149214683
1.094015232
1.053891448
1.026475603
1.009021193
0.9986165791
0.9927602086
0.989649643
0.9881299727
0.9875243664
0.9871535538
0.9866116596
0.9857924544
0.9854057569
0.9852730347
0.9852636778
0.9853232408
0.9854345713
0.9856003858
0.9858367035
0.9861724137
0.9866536448
0.9873545293
0.9884015758
0.9900326787
0.9928105358
942458.2616
394872.4811
225224.1976
153538.0455
95752.07283
33682.8035
5846.674393
1583.620127
873.4906903
531.0971147
330.9284052
210.1853553
135.8652303
89.97009275
62.72024555
46.09139989
33.7323007
24.78111058
18.58907239
14.10859577
10.81511332
8.387398324
6.585334989
5.237846147
4.222703528
3.452699802
2.86496669
2.413498321
2.064339067
1.79295976
1.582622526
1.421896275
1.301196313
1.210347722
1.141284875
1.089065685
1.050993287
1.024899326
1.008236131
0.9982692177
0.9926353038
0.989626847
0.9881461277
0.9875470742
0.9871522909
0.9865992337
0.9858075798
0.9854447625
0.9853234696
0.9853211108
0.9853864725
0.9855035592
0.9856753502
0.9859177337
0.9862592897
0.9867457863
0.9874511234
0.9885021791
0.9901391232
0.9929348036
949948.2805
404899.8337
230442.6482
156025.9244
83041.12782
24029.48942
4270.652076
1504.541339
863.2300849
524.7738856
326.7440261
207.4268608
133.9637792
88.62228354
61.82090362
45.24928659
32.95691222
24.09175692
18.00897292
13.6258684
10.41879141
8.062506709
6.32011997
5.022264096
4.04888603
3.314325781
2.756662138
2.330455043
2.002092792
1.747280466
1.5495975
1.39829533
1.284502215
1.19883261
1.133646679
1.084252214
1.048141341
1.023326628
1.007439216
0.9979075891
0.9924987378
0.9895962588
0.9881582145
0.9875692576
0.9871503991
0.986582833
0.9858201417
0.9854815012
0.9853718154
0.9853765191
0.9854477017
0.9855705967
0.9857485092
0.9859972515
0.9863451457
0.9868376386
0.9875484004
0.9886045651
0.9902480755
0.9930593804
954067.7873
414966.858
235682.9195
153480.5514
68977.27948
16614.2813
3395.939462
1449.299429
848.8028961
516.7789286
321.4517628
203.9121256
131.5560237
86.94107949
60.70294842
44.22860076
32.04388774
23.30566927
17.36204588
13.09674279
9.988813509
7.714712593
6.03956562
4.79726619
3.870275933
3.174484116
2.648966169
2.249060856
1.941821164
1.703501011
1.518209863
1.376001835
1.268769408
1.187957257
1.126387624
1.079635541
1.045375929
1.021782561
1.006644844
0.9975392524
0.9923540097
0.9895591158
0.9881662483
0.9875896377
0.9871472113
0.9865621434
0.9858309468
0.9855163331
0.9854182809
0.9854300839
0.9855071259
0.9856359063
0.9858201027
0.9860755011
0.9864302127
0.9869294007
0.9876465095
0.988708819
0.9903595623
0.9931843226
954999.8095
424802.7608
241428.7773
145318.7603
56270.4292
11861.09521
2911.597616
1406.338047
831.0701314
507.1499934
315.1343553
199.6893367
128.6715635
84.94660273
59.36746412
43.0321704
30.99933162
22.43221426
16.65746199
12.52759405
9.53249474
7.34980898
5.74892875
4.56774926
3.691194783
3.036657708
2.544432202
2.171029211
1.884582032
1.662225417
1.488783277
1.355184491
1.254093614
1.177784953
1.119554973
1.075251682
1.042723109
1.020284521
1.005863668
0.9971701778
0.9922041211
0.9895166601
0.9881704998
0.9876073156
0.9871422702
0.9865369474
0.985840658
0.9855495837
0.9854630725
0.9854819883
0.985564941
0.9856997041
0.9858903624
0.9861527176
0.9865147137
0.9870212656
0.9877455944
0.9888150194
0.990473593
0.993309665
953069.9797
433529.01
248807.4208
131772.7676
42897.38218
8705.377519
2610.409056
1364.799427
810.6995154
494.9005031
307.8312029
194.7966592
125.341585
82.66250796
57.8178223
41.66546592
29.83238727
21.48330606
15.90564427
11.92745439
9.0569236
6.973976685
5.454031736
4.338973531
3.515918213
2.903963277
2.445129915
2.097625423
1.831085233
1.623813032
1.461478191
1.335905492
1.240500141
1.168332249
1.113165464
1.071117467
1.040197518
1.01884355
1.005103091
0.9968048521
0.9920515262
0.9894700407
0.9881713832
0.9876216988
0.9871352889
0.9865071194
0.9858497966
0.9855815391
0.9855063893
0.9855324142
0.9856213396
0.9857622004
0.9859595115
0.9862291269
0.9865988631
0.9871134185
0.9878457924
0.9889232362
0.9905901607
0.9934354226
948863.7386
441083.2156
250441.3045
113786.0616
32052.42484
6720.336857
2411.819777
1322.045634
787.8497073
481.1522547
299.1308624
189.3121302
121.6125781
80.11695295
56.05865216
40.13531274
28.55450439
20.47277482
15.11418279
11.30533093
8.569419056
6.594066052
5.161254351
4.116186087
3.348210166
2.778824298
2.352492232
2.029630882
1.781713426
1.588417217
1.436397232
1.318150449
1.227965585
1.159583632
1.107214565
1.067235984
1.037805342
1.017465818
1.004367919
0.9964465171
0.9918981764
0.9894202783
0.9881693839
0.9876324346
0.9871261141
0.9864726132
0.9858587624
0.9856124484
0.9855484216
0.9855815411
0.9856765105
0.9858235983
0.9860277638
0.9863049447
0.9866828655
0.9872060363
0.9879472333
0.9890335304
0.9907092433
0.9935615925
942917.9239
445140.5871
242225.8198
98591.01248
24166.9991
5489.266791
2272.958796
1279.858808
763.4841667
466.2007118
289.5442752
183.0257907
117.512346
77.32852806
54.09082379
38.44882943
27.17975897
19.41635477
14.29662211
10.67019051
8.077960218
6.217744741
4.877069879
3.903949213
3.190867505
2.662785024
2.267289119
1.967380233
1.736573053
1.556026498
1.413408527
1.301853865
1.216435451
1.151503248
1.101683919
1.063601018
1.03554679
1.016153898
1.003660959
0.9960974015
0.9917455786
0.9893682489
0.9881650057
0.987639351
0.9871146931
0.9864367123
0.9858678542
0.9856425272
0.9855893503
0.9856295441
0.9857306373
0.9858840933
0.9860953238
0.9863803764
0.986766915
0.9872992864
0.9880500377
0.9891459533
0.9908308059
0.9936881552
936121.4791
443583.419
225955.8677
82055.23799
18298.0819
4695.507406
2163.559569
1236.850692
737.5216745
450.0607158
279.1374383
176.1568833
112.934397
74.31775761
51.91847532
36.61835643
25.72722197
18.32369528
13.46496163
10.0315313
7.591669193
5.853086722
4.607146956
3.705550184
3.045548915
2.556553757
2.189730265
1.910856514
1.695564804
1.526522204
1.392399071
1.286919849
1.205837886
1.144043975
1.096547159
1.060200614
1.033418145
1.014907865
1.002983551
0.995758951
0.9915948702
0.9893146888
0.9881587386
0.9876424077
0.9871008778
0.9864038972
0.9858772914
0.9856719623
0.9856293456
0.9856765926
0.9857838973
0.9859438729
0.9861623861
0.9864556166
0.9868511951
0.9873933254
0.9881543163
0.9892605455
0.9909548038
0.9938150757
929820.5983
435188.1031
201555.879
65800.93306
14014.7355
4158.153177
2065.267831
1192.251554
709.9747163
432.8104107
267.9847662
168.7803009
108.0045254
71.06366202
49.54891245
34.66143367
24.22009558
17.21967287
12.6309823
9.399891154
7.120496197
5.507311474
4.355479141
3.522816805
2.912898941
2.460185188
2.119620003
1.859800309
1.658451929
1.499748019
1.373221761
1.273236763
1.196093029
1.13715353
1.091773889
1.057019571
1.031413242
1.013726112
1.002335986
0.9954320165
0.9914468874
0.9892602045
0.9881510401
0.9876416648
0.9870843848
0.9863742641
0.9858872322
0.9857009163
0.9856685678
0.9857228496
0.9858364607
0.9860031155
0.9862291348
0.9865308484
0.9869358775
0.9874882991
0.988260169
0.9893773368
0.9910811807
0.9939423048
924980.7671
420470.6892
176670.1362
52210.3936
11025.06873
3786.943175
1972.533675
1146.340287
681.2721327
414.7004905
256.229131
160.9812576
102.7890144
67.62016143
46.99444099
32.60332647
22.67290863
16.12415456
11.80713064
8.787257557
6.673900783
5.185570931
4.124212843
3.356376503
2.792835513
2.373304691
2.05651501
1.813812571
1.62493599
1.475434246
1.355714576
1.26068834
1.187119847
1.130778921
1.087332626
1.054041337
1.029524628
1.012606016
1.001717859
0.9951170203
0.9913022315
0.9892052895
0.9881423274
0.9876372598
0.9870650207
0.9863478115
0.9858977901
0.9857295319
0.9857071667
0.9857684703
0.9858884897
0.9860619906
0.9862957436
0.9866062437
0.9870211223
0.9875843412
0.9883676835
0.9894963452
0.991209864
0.9940697798
921182.137
400905.6833
158905.4676
41512.95934
8953.217952
3515.820875
1884.671156
1097.769571
651.555177
395.8208897
243.9288989
152.8043044
97.32460314
64.04326804
44.2750903
30.47840426
21.12662163
15.04538255
11.00690022
8.205723981
6.258819572
4.890511152
3.91397033
3.205999684
2.68479678
2.295277398
1.999837056
1.77242547
1.594650319
1.453341729
1.339712288
1.249159917
1.178839783
1.124868798
1.083192406
1.051249101
1.027744263
1.011544357
1.001128297
0.9948140738
0.9911613192
0.9891503389
0.9881329758
0.9876293793
0.9870426627
0.9863244736
0.9859090455
0.9857579347
0.9857452826
0.9858136021
0.9859401382
0.9861206578
0.9863623752
0.9866819625
0.987107077
0.987681573
0.9884769351
0.9896175757
0.9913407609
0.9941974252
916579.8266
378634.2786
142163.3476
32796.10094
7503.790288
3301.876288
1799.070348
1048.03932
620.9752949
376.2861054
231.1765929
144.324702
91.7051756
60.38176262
41.42845797
28.33182684
19.61352394
13.99762913
10.24499177
7.665149214
5.878913686
4.622839939
3.724379103
3.07093025
2.587950983
2.225344229
1.948960327
1.735161671
1.567251685
1.433235165
1.325056041
1.238543494
1.171179651
1.11937533
1.079324088
1.048626694
1.026064116
1.010537687
1.000566174
0.9945230849
0.9910244315
0.989095666
0.9881233234
0.9876182397
0.9870172401
0.9863041468
0.9859210558
0.985786237
0.9857830461
0.985858384
0.9859915512
0.9861792669
0.9864291813
0.9867581526
0.9871938766
0.9877801025
0.9885879853
0.9897410189
0.9914737621
0.9943251529
911311.1395
350436.7054
123224.5821
25554.48966
6471.154564
3114.073163
1714.781938
997.4619521
589.8333351
356.3106807
218.1225316
135.6875703
86.06819212
56.64732218
38.50779258
26.20016613
18.16149787
12.99660433
9.534856032
7.171039503
5.535042528
4.381957645
3.554412062
2.950082694
2.501320252
2.162698779
1.903257933
1.701552832
1.542411823
1.414891771
1.311597317
1.228739432
1.164072457
1.114254728
1.075700778
1.046158941
1.024476437
1.009582514
1.000030221
0.9942438234
0.9908917465
0.9890415137
0.9881136782
0.9876040733
0.9869887152
0.9862867065
0.9859338621
0.9858145392
0.9858205787
0.9859029464
0.9860428645
0.9862379574
0.9864963022
0.9868349497
0.9872816427
0.9878800238
0.9887008813
0.9898666506
0.9916087511
0.9944528631
903735.6863
328320.9169
106088.227
19883.14698
5755.129621
2948.474034
1631.525428
946.8958059
558.6368172
336.1915671
205.0749443
127.1299415
80.35432412
52.84367938
35.57996388
24.14729961
16.79280469
12.05849689
8.885450096
6.724793714
5.226301012
4.166465465
3.402650931
2.842202182
2.423878131
2.106543943
1.862132962
1.671166725
1.519827953
1.39810697
1.299200598
1.219657554
1.157457884
1.109467565
1.072298111
1.043831918
1.022973959
1.008675453
0.9995191229
0.9939759758
0.9907633675
0.9889880646
0.9881043275
0.9875871214
0.9869570641
0.9862720197
0.9859474947
0.9858429317
0.9858579929
0.9859474107
0.9860942046
0.9862968585
0.9865638668
0.9869124767
0.9873704835
0.9879814166
0.9888156556
0.9899944314
0.991745596
0.9945804461
892542.2119
316888.3269
89328.43365
15598.60051
5269.068788
2799.948576
1548.232236
897.1731437
527.8178206
316.6508722
192.1706129
118.4981666
74.62510058
48.96349604
32.72165407
22.22225358
15.52412959
11.19714389
8.299891613
6.325158138
4.950757235
3.974486166
3.2674718
2.745976731
2.354613137
2.056125078
1.825035716
1.643611044
1.499227046
1.382696557
1.287744182
1.211217282
1.151282234
1.104978737
1.069094293
1.041633038
1.021550004
1.007813308
0.9990315828
0.9937191838
0.9906393453
0.9889354488
0.988095549
0.9875676304
0.9869222596
0.9862599525
0.9859619757
0.9858714963
0.9858953923
0.9859918895
0.9861456882
0.9863560889
0.9866319921
0.9869908437
0.987460493
0.9880843458
0.9889323246
0.9901243051
0.9918841395
0.994707785
877015.6625
312838.0004
72782.20135
12704.46283
4947.693693
2665.130123
1469.021456
849.8788904
498.4264154
297.1650409
179.1992528
109.8747225
68.95847928
45.10094838
30.01100404
20.44674629
14.36663403
10.42011894
7.776961405
5.969494892
4.705919273
3.803912876
3.147196001
2.660123901
2.29257459
2.010752194
1.791472856
1.618537629
1.480367845
1.368497779
1.277120618
1.203347678
1.145498345
1.10075742
1.066070124
1.039551127
1.020198559
1.006993143
0.9985663665
0.9934730754
0.9905196969
0.9888837493
0.9880851133
0.9875458533
0.9868842535
0.9862503757
0.985977322
0.9859003067
0.985932872
0.986036486
0.986197422
0.9864157559
0.986700783
0.9870701472
0.9875517503
0.9881888596
0.9890508877
0.9902561953
0.9920242033
0.9948347564
857233.6398
297705.4664
56907.70592
10865.29514
4702.993845
2530.591742
1396.159906
803.9598382
469.0392033
277.6505921
166.2461781
101.3618727
63.4485453
41.36788137
27.50989586
18.83865645
13.32609242
9.727528558
7.312929032
5.654330776
4.488949438
3.652534225
3.040158846
2.58342253
2.236883148
1.969800045
1.761003557
1.595638008
1.463037253
1.355366745
1.26723484
1.195986077
1.140064644
1.096776456
1.063208642
1.037576243
1.018914208
1.006212266
0.9981223095
0.9932372744
0.9904044148
0.9888331037
0.9880718192
0.9875220525
0.9868429582
0.9862431667
0.9859935466
0.9859294291
0.9859705187
0.9860812946
0.9862495031
0.986475956
0.9867703318
0.9871504697
0.987644319
0.9882949899
0.9891713263
0.9903900048
0.9921656167
0.9949612275
833413.4838
273626.6881
43003.38826
9711.534737
4484.839662
2405.633
1324.196183
758.4846431
439.8033733
258.2424595
153.4592704
93.1009314
58.20232635
37.87266201
25.25311036
17.40262385
12.3978027
9.114841266
6.903006305
5.375852804
4.296938462
3.518192288
2.944794433
2.514754531
2.18674926
1.932714916
1.73324107
1.574643066
1.447049698
1.343178002
1.258003859
1.189077811
1.134944913
1.093012209
1.060495063
1.03569967
1.017692154
1.005468254
0.9976983396
0.9930114167
0.9902934754
0.9887836725
0.9880559069
0.9874965071
0.9867982291
0.9862382109
0.9860106591
0.985958923
0.9860084105
0.9861264002
0.9863020178
0.9865367744
0.9868407183
0.9872318796
0.9877382472
0.9884027514
0.9892936026
0.990525618
0.9923082198
0.995087051
806035.8424
242009.6566
32139.84431
9047.264891
4285.90213
2283.689552
1253.82703
713.8751316
410.9694188
239.1399911
141.036908
85.24994912
53.31721873
34.69147351
23.24841117
16.13337191
11.5782151
8.575425942
6.541954355
5.130160521
4.127044652
3.39885235
2.859664988
2.453113222
2.141472001
1.899010089
1.707847714
1.555318787
1.432244028
1.331822489
1.249355444
1.182575314
1.130107691
1.089444172
1.057916552
1.033913804
1.016528169
1.004758942
0.9972934797
0.9927951573
0.9901868442
0.9887355939
0.9880375983
0.9874695239
0.9867550611
0.9862354019
0.9860286664
0.9859888409
0.9860466174
0.9861718783
0.9863550425
0.9865982843
0.9869120089
0.9873144304
0.9878335661
0.9885121402
0.9894176592
0.9906629037
0.9924518273
0.99521207
775184.2589
205298.3908
24874.94576
8594.822911
4090.905822
2165.793919
1185.473192
670.3777191
382.7173089
220.5425269
129.1866471
77.94455684
48.85892811
31.85548799
21.48487154
15.01900282
10.8588744
8.101854655
6.224392857
4.913423335
3.976571939
3.292634411
2.783468164
2.397599867
2.100432036
1.868258581
1.68452869
1.537461483
1.418480115
1.321205282
1.241226652
1.176437146
1.12552561
1.086054546
1.055461965
1.032212015
1.015418534
1.004082398
0.9969068414
0.9925881702
0.9900844793
0.9886889932
0.9880170958
0.9874412316
0.9867166041
0.9862346412
0.9860475727
0.9860192287
0.9860852009
0.986217795
0.9864086426
0.9866605471
0.9869842566
0.98739816
0.9879302897
0.9886231337
0.9895434181
0.9908017132
0.9925962289
0.9953361255
740481.9333
167648.67
20599.46458
8185.850051
3895.22989
2053.114767
1119.722353
628.322816
355.2987112
202.7209058
118.1279395
71.28916521
44.86020141
29.36335533
19.94408804
14.04542421
10.22977655
7.686860063
5.945246444
4.722123375
3.843097098
3.197876671
2.715067018
2.347436895
2.063096876
1.840094835
1.66303232
1.520897571
1.405638625
1.311245509
1.233563831
1.170627997
1.121175393
1.082828224
1.053121851
1.030588655
1.014360048
1.00343694
0.9965376372
0.9923901585
0.9899863388
0.9886439948
0.9879945912
0.9874116225
0.9866825519
0.9862358374
0.9860673794
0.9860501258
0.9861242138
0.9862642066
0.9864628725
0.9867236116
0.9870574997
0.9874830903
0.9880284138
0.9887356893
0.9896707802
0.9909418792
0.9927412017
0.9954590516
701574.7949
134044.0028
17894.12037
7788.801705
3709.962691
1945.875258
1056.719308
587.8324716
328.9028699
185.9261856
108.0132599
65.32748865
41.30324838
27.19061301
18.60282179
13.1968295
9.680220753
7.323177937
5.699602169
4.552940581
3.72437764
3.113063816
2.653435937
2.301928209
2.028992342
1.814194512
1.643135874
1.505473709
1.393614235
1.301871772
1.226319585
1.165116695
1.117036541
1.079751951
1.050887921
1.029038752
1.013349869
1.002821054
0.9961851453
0.9922008393
0.9898923762
0.9886007301
0.9879702725
0.9873806686
0.9866526253
0.986238905
0.9860880851
0.9860815645
0.9861637007
0.9863111594
0.9865177755
0.9867875138
0.9871317624
0.9875692264
0.9881279156
0.9888497434
0.9897996245
0.9910832153
0.9928865078
0.9955806763
658899.1137
105004.7575
16240.97626
7429.176968
3535.791014
1844.692512
996.770549
549.1216772
303.8090953
170.4162982
98.93615115
60.06558552
38.18689469
25.30550301
17.43801336
12.45806057
9.20018808
7.004161663
5.483039601
4.402928359
3.618444432
3.036875758
2.597686485
2.260473163
1.997710359
1.790279004
1.624648309
1.491058554
1.382316845
1.293023057
1.219453454
1.159876664
1.113091633
1.076814508
1.048753178
1.02755809
1.01238556
1.002233421
0.9958487281
0.9920199551
0.9898025462
0.9885593502
0.9879443295
0.9873483069
0.9866265705
0.9862437636
0.9861096849
0.9861135705
0.9862036969
0.9863586895
0.9865733826
0.9868522756
0.9872070524
0.987656555
0.9882287518
0.9889652104
0.9899298063
0.9912255142
0.9930318951
0.9957008243
612516.1841
80861.35192
15162.22153
7107.610114
3373.260611
1750.125257
940.1648244
512.407039
280.3172936
156.3731379
90.91520391
55.47160883
35.48129091
23.67395015
16.4273906
11.81484863
8.780448806
6.723798281
5.291618351
4.269490854
3.52357842
2.968167894
2.54705221
2.222555533
1.968901235
1.768110165
1.607406727
1.477540401
1.371670041
1.284647762
1.212931319
1.154885576
1.109326111
1.074006585
1.046711833
1.026143169
1.011465078
1.001672925
0.9955278349
0.9918472767
0.9897168056
0.9885200391
0.9879169618
0.9873144231
0.9866041558
0.9862503362
0.9861321691
0.9861461604
0.9862442267
0.9864068193
0.9866297098
0.9869179018
0.9872833577
0.9877450404
0.9883308536
0.9890819761
0.9900611522
0.991368543
0.9931770929
0.9958193092
562067.9718
62022.15482
14478.14675
6825.834935
3222.866112
1662.603902
887.1588327
477.9067156
258.6996136
143.8722981
83.90928054
51.48963344
33.14304077
22.26291774
15.5502678
11.2541675
8.412701605
6.476746316
5.121872742
4.150362341
3.438287588
2.905950733
2.500872333
2.187731099
1.942264476
1.747483605
1.591271504
1.464823665
1.361608561
1.276701902
1.206724158
1.150124471
1.105727662
1.071320342
1.044759019
1.024791022
1.010586663
1.001138583
0.9952219719
0.9916825881
0.9896351034
0.9884830242
0.9878883884
0.9872788288
0.986585167
0.9862585485
0.9861555239
0.9861793436
0.9862853053
0.9864555612
0.9866867608
0.9869843828
0.9873606501
0.9878346285
0.9884341322
0.9891999047
0.9901934671
0.9915120518
0.9933218209
0.9959359404
506074.2076
49159.25765
14157.56048
6553.23795
3084.918018
1582.084256
837.7726996
445.7423326
239.1003783
132.8705102
77.82775454
48.04690724
31.12252125
21.04027198
14.78698961
10.76381591
8.089264898
6.258111843
4.97065202
4.043494935
3.361229037
2.849336313
2.458555116
2.155602691
1.917531796
1.728217131
1.576118434
1.452823542
1.352074702
1.269146736
1.200806495
1.145576773
1.102285588
1.068749023
1.042890547
1.02349908
1.009748767
1.000629517
0.994930689
0.9915256822
0.9895573737
0.9884485912
0.9878588637
0.9872412355
0.9865694056
0.9862683282
0.9861797315
0.9862131224
0.9863269383
0.9865049157
0.9867445259
0.9870516936
0.9874388835
0.9879252449
0.9885384762
0.9893188359
0.9903265326
0.9916557713
0.9934657834
0.9960505268
443641.8515
40815.78416
14007.24785
6283.575364
2959.045105
1508.382671
791.9607252
416.017834
221.560102
123.2646051
72.56596643
45.07175708
29.37401526
19.97810595
14.12066377
10.33338926
7.803631838
6.063771987
4.835313365
3.947176732
3.291283211
2.797586028
2.419609391
2.125841364
1.894481555
1.710160681
1.561845593
1.441470759
1.343021579
1.261950983
1.195157899
1.14122927
1.098991433
1.06628733
1.04110314
1.0222653
1.008950131
1.000144995
0.994653601
0.9913763699
0.989483528
0.9884171051
0.9878287036
0.9872012222
0.9865566864
0.9862796034
0.9862047681
0.9862474897
0.9863691202
0.9865548706
0.9868029804
0.987119792
0.987517992
0.9880167932
0.9886437498
0.9894385831
0.9904601058
0.9917994113
0.993608668
0.9961628898
373276.2607
35564.88605
13927.08242
6043.53243
2846.041423
1441.724034
749.8328448
388.8668766
206.0380417
114.9220979
68.01838419
42.49764244
27.85678275
19.05211469
13.53663493
9.95389021
7.550191386
5.890179193
4.713586236
3.859938451
3.22748985
2.750066679
2.383614323
2.098165531
1.872924304
1.69318629
1.548366373
1.430706749
1.334409833
1.255088611
1.18976152
1.137071157
1.095838362
1.063931044
1.039394197
1.02108804
1.008189712
0.9996843955
0.9943903739
0.9912344763
0.9894134352
0.9883890308
0.9877983258
0.9871581904
0.9865468357
0.9862923019
0.9862306043
0.9862824295
0.9864118338
0.9866053995
0.9868620831
0.9871886168
0.9875978883
0.9881091526
0.9887497903
0.989558932
0.9905939177
0.9919426585
0.9937501491
0.9962728546
292241.7713
32326.3487
13859.36003
5829.715834
2744.72627
1381.4542
711.061808
364.1694952
192.335646
107.6456581
64.06579632
40.25658489
26.53169724
18.23948934
13.02133341
9.617078342
7.323850081
5.734136546
4.603436987
3.780471103
3.168997665
2.706219675
2.350200608
2.07232954
1.852695902
1.67718399
1.535607074
1.420482258
1.326206821
1.248538388
1.184603868
1.133093954
1.092821151
1.061677032
1.037761814
1.019966077
1.007466712
0.9992472292
0.9941407403
0.9910998522
0.9893468948
0.9883649595
0.9877683131
0.9871113623
0.9865396889
0.9863063484
0.9862572001
0.9863179113
0.9864550442
0.9866564552
0.9869217688
0.9872580789
0.987678453
0.9882021669
0.988856396
0.9896796266
0.9907276591
0.9920851618
0.9938898767
0.9963802299
193813.1014
30563.68672
13771.51862
5643.818001
2655.91204
1327.770144
675.6690986
341.8964987
180.1893681
101.3018578
60.62104835
38.29723166
25.36833095
17.52241296
12.56410145
9.316454029
7.120577086
5.593107542
4.503248964
3.707732799
3.115128731
2.665600342
2.31907466
2.048138612
1.833666735
1.662067459
1.523510315
1.410759364
1.318387786
1.242284518
1.179675113
1.129291601
1.08993616
1.059523172
1.036204699
1.018898535
1.006780513
0.9988330971
0.9939044755
0.9909723686
0.9892835811
0.9883413737
0.9877395041
0.9870698082
0.9865350883
0.9863216656
0.9862845097
0.9863538954
0.9864987052
0.9867079771
0.9869819565
0.9873280711
0.987759547
0.9882956577
0.9889633413
0.9898003877
0.9908610006
0.9922265547
0.9940274983
0.9964848283
62068.06549
29966.7267
13555.71768
5483.747605
2578.724375
1280.066556
641.9299046
321.1829906
169.4352321
95.72984585
57.59206115
36.56871018
24.33789249
16.88427519
12.1551146
9.046080999
6.936719193
5.464808417
4.411575137
3.640796117
3.065282932
2.627817344
2.289979796
2.025423735
1.815725333
1.647763247
1.512027903
1.401506712
1.310932649
1.236314486
1.174967665
1.125659547
1.08718076
1.057467993
1.034721953
1.01788476
1.00613062
0.9984416654
0.9936813886
0.9908519325
0.9892234339
0.9883178175
0.9877120311
0.9870332155
0.986532882
0.9863381733
0.9863124792
0.9863903313
0.9865427569
0.9867598886
0.9870425467
0.9873984654
0.9878410072
0.9883894203