/*--------------------------------*- C++ -*----------------------------------*\
  =========                 |
  \\      /  F ield         | OpenFOAM: The Open Source CFD Toolbox
   \\    /   O peration     | Website:  https://openfoam.org
    \\  /    A nd           | Version:  12
     \\/     M anipulation  |
\*---------------------------------------------------------------------------*/
FoamFile
{
    format      ascii;
    class       volScalarField;
    location    "1450";
    object      p;
}
// * * * * * * * * * * * * * * * * * * * * * * * * * * * * * * * * * * * * * //

dimensions      [1 -1 -2 0 0 0 0];

internalField   nonuniform List<scalar> 
16200
(
79464.91938
79471.76076
79480.78099
79492.49059
79507.84023
79528.12467
79555.32246
79591.40134
79636.63468
79690.8996
79755.5244
79832.43432
79923.50195
80031.85421
80160.01368
80312.1377
80491.94133
80704.68408
80955.66768
81251.51366
81599.32811
82007.31529
82484.32345
83039.91084
83683.83598
84425.45718
85272.55808
86229.6419
87295.52982
88460.39181
89702.88596
90989.12195
92275.38896
93514.82757
94665.58635
95697.05685
96592.29878
97347.04307
97966.85913
98463.91133
98854.04714
99154.45263
99381.91794
99551.70211
99676.93224
99768.40954
99834.72481
99882.51826
99916.81206
99941.34021
99958.84245
99971.31091
99980.17972
99986.48401
99990.94952
99994.13512
99996.34199
99998.04799
99998.76553
100000.0637
78331.38961
78339.62363
78349.23151
78362.1837
78379.3784
78402.29653
78433.41541
78474.08583
78524.69103
78585.04335
78656.75452
78742.11895
78843.10964
78963.31062
79105.42475
79274.13161
79473.53743
79709.53481
79988.08108
80316.63585
80703.25651
81157.23726
81688.61544
82308.15898
83026.71123
83854.30792
84798.5788
85862.42526
87040.82861
88317.21333
89660.91807
91028.29976
92368.82577
93634.28927
94787.04419
95804.09639
96676.71471
97407.3352
98005.82301
98486.31165
98864.90318
99158.06338
99381.49731
99549.40353
99674.05369
99765.64479
99832.38086
99880.67999
99915.45093
99940.38033
99958.19714
99970.89958
99979.93649
99986.35462
99990.89987
99994.12665
99996.364
99998.07596
99998.76888
100000.0674
77385.40848
77394.59807
77405.38246
77419.96787
77439.42001
77465.50078
77501.01379
77546.57612
77602.58613
77669.16204
77748.20379
77842.42736
77953.88568
78086.71774
78243.88689
78430.70213
78651.79879
78913.8324
79223.56493
79589.40904
80020.47962
80527.22485
81120.89388
81813.38909
82616.37975
83540.00003
84590.65033
85767.84662
87060.17127
88441.49491
89870.0924
91293.19874
92656.53914
93914.73982
95037.97039
96012.98479
96839.95804
97527.81627
98090.13247
98542.37692
98900.35433
99179.34459
99393.56477
99555.79553
99677.1396
99766.92364
99832.74912
99880.6436
99915.27628
99940.19483
99958.05232
99970.80821
99979.89447
99986.35017
99990.92408
99994.16353
99996.41065
99998.12064
99998.79049
100000.1117
76646.46906
76656.47906
76668.98304
76685.62337
76707.87209
76737.90147
76778.41414
76829.5986
76891.85088
76965.90139
77053.78321
77158.73322
77282.89384
77431.02542
77606.3931
77814.9673
78061.9441
78354.75954
78701.02673
79110.17265
79592.47016
80159.6151
80824.09314
81598.77904
82495.67929
83524.04117
84687.3529
85979.24003
87378.89456
88848.33056
90334.70824
91778.96943
93127.73905
94342.96522
95405.52458
96312.93126
97073.94616
97703.07446
98216.63307
98630.65748
98960.1096
99218.70255
99418.87628
99571.7483
99687.03256
99772.98833
99836.44415
99882.89567
99916.66012
99941.05988
99958.60774
99971.1776
99980.15066
99986.5353
99991.06453
99994.27074
99996.49501
99998.18493
99998.81835
100000.1385
76141.05009
76152.26567
76166.89267
76186.01933
76211.66159
76246.55159
76292.96019
76350.84553
76420.5602
76503.557
76601.90909
76719.41329
76858.26967
77023.88279
77219.86262
77452.90607
77728.89412
78056.18595
78443.43714
78901.25213
79441.16543
80076.07755
80819.45834
81684.59939
82682.8575
83820.99648
85097.23548
86496.3648
87985.58785
89514.41161
91021.28978
92445.75046
93740.648
94879.07573
95854.17029
96673.89118
97354.29109
97913.96226
98370.71817
98740.29364
99036.27913
99270.51964
99453.49909
99594.54522
99701.87466
99782.57695
99842.61266
99886.86087
99919.21545
99942.71593
99959.69014
99971.89294
99980.62995
99986.8614
99991.2912
99994.42984
99996.60835
99998.26586
99998.85771
100000.1778
75874.28792
75887.0281
75904.18622
75926.28625
75956.03987
75996.74706
76050.07231
76115.43158
76193.14742
76285.4565
76394.63774
76525.33694
76679.92005
76864.55433
77083.33477
77343.81047
77652.68558
78019.30891
78453.40023
78966.65939
79571.71198
80282.36566
81112.58191
82075.22567
83179.60878
84427.89902
85810.27543
87299.92966
88850.77601
90401.44051
91886.26997
93249.18961
94454.00729
95487.29264
96354.46984
97072.56068
97663.07149
98147.01967
98542.49537
98864.1714
99123.86078
99331.35862
99495.12474
99622.66995
99720.69059
99795.07455
99850.87417
99892.30812
99922.80457
99945.08262
99961.25378
99972.92897
99981.31904
99987.32188
99991.6014
99994.63962
99996.7505
99998.36295
99998.90629
100000.2213
75818.92565
75833.51962
75853.62547
75879.30257
75914.08699
75961.40322
76022.10242
76094.84431
76181.62452
76285.57748
76408.49245
76555.69902
76729.77451
76937.68389
77184.02977
77477.18783
77824.68573
78236.82129
78724.35622
79300.03173
79977.45118
80771.02443
81694.53073
82759.17972
83970.33443
85323.00945
86796.55091
88350.69861
89926.77845
91456.48963
92876.03962
94139.29802
95224.27648
96131.60542
96877.7031
97486.57637
97983.14718
98389.26678
98722.24889
98995.11312
99217.63134
99397.48066
99541.12183
99654.30077
99742.23849
99809.64634
99860.67459
99898.87395
99927.19174
99948.0088
99963.20303
99974.22614
99982.18161
99987.89514
99991.98288
99994.89332
99996.91849
99998.47511
99998.96444
100000.2725
75968.85408
75985.91222
76009.25357
76039.10366
76079.98719
76134.82771
76204.01
76286.27474
76384.45557
76501.70789
76640.20438
76806.07587
77002.0919
77236.05467
77513.16565
77842.67964
78233.05029
78695.58522
79242.12786
79886.37179
80642.58583
81525.09859
82546.33728
83714.13428
85027.61061
86471.9498
88013.42366
89598.07782
91157.65533
92622.65894
93937.32949
95069.72333
96013.40451
96782.05195
97400.88202
97898.53456
98301.41147
98630.85451
98902.60139
99127.6294
99313.54923
99465.95109
99589.39297
99687.96349
99765.49918
99825.59885
99871.54923
99906.25153
99932.17732
99951.36664
99965.45744
99975.73486
99983.18789
99988.56392
99992.42618
99995.18596
99997.11016
99998.60145
99999.03146
100000.3308
76305.39025
76325.43501
76352.47926
76387.2986
76435.50929
76498.51754
76576.64963
76669.44834
76779.48237
76911.21731
77066.70906
77253.0627
77473.3359
77736.20779
78047.58014
78417.62475
78855.77853
79374.32234
79986.04649
80705.2507
81546.23533
82522.24345
83642.91128
84910.74544
86316.16944
87832.07755
89410.58129
90985.92925
92485.41298
93844.86266
95021.78789
96000.7468
96790.34498
97415.12499
97906.47549
98295.38609
98608.09297
98864.40779
99077.95897
99257.48055
99408.42296
99534.39539
99638.1976
99722.40309
99789.58289
99842.31166
99883.07238
99914.15329
99937.57015
99955.03113
99967.93677
99977.40475
99984.30707
99989.31001
99992.92107
99995.51213
99997.32306
99998.741
99999.10704
100000.3966
76796.59188
76820.10107
76851.37953
76892.0597
76948.46202
77020.25225
77107.97361
77212.71907
77336.98437
77485.7975
77661.18588
77871.23863
78119.38443
78415.20658
78765.39732
79181.05871
79672.61299
80253.17548
80936.19719
81736.07191
82666.34071
83738.00608
84956.26444
86316.05481
87796.53464
89356.53857
90934.79004
92457.98659
93855.50254
95074.60582
96089.50161
96901.48498
97532.21044
98014.25302
98382.53548
98668.41946
98896.71169
99085.00534
99244.52821
99381.72595
99499.98099
99601.07749
99686.22897
99756.65317
99813.78795
99859.28454
99894.89373
99922.33818
99943.20722
99958.89404
99970.57061
99979.19103
99985.51151
99990.11696
99993.45824
99995.86688
99997.55495
99998.89286
99999.19083
100000.4702
77427.04219
77454.57443
77490.76124
77538.60479
77604.35936
77686.76874
77786.33313
77904.1123
78043.51255
78210.84546
78408.03733
78644.22013
78923.30864
79255.81224
79649.24775
80115.53693
80665.93003
81314.09188
82073.73268
82958.73303
83980.93683
85147.67281
86457.61832
87895.54659
89427.0904
90996.78742
92533.16891
93961.5734
95220.20473
96272.35049
97110.12332
97749.98473
98223.72284
98568.96652
98821.82424
99012.47965
99163.44031
99289.68905
99399.95735
99498.47298
99586.7034
99664.79149
99732.54734
99789.99638
99837.57829
99876.12518
99906.73188
99930.60824
99948.95191
99962.86295
99973.29773
99981.05413
99986.77633
99990.96971
99994.02906
99996.24555
99997.80365
99999.05611
99999.28268
100000.5519
78173.56139
78205.78808
78247.70584
78303.77508
78378.70174
78471.17824
78583.41768
78717.08658
78874.63805
79063.82899
79286.60269
79553.08637
79867.66052
80241.65028
80683.36331
81205.44303
81819.89298
82540.74542
83381.57698
84354.98111
85469.79323
86727.70612
88118.31522
89613.68949
91164.89533
92704.28772
94155.74694
95450.30392
96540.63722
97408.40674
98062.73301
98532.42171
98856.13554
99073.81586
99220.86953
99325.20806
99406.52477
99477.03961
99543.03632
99606.67232
99667.68742
99724.77715
99776.52961
99821.93628
99860.56908
99892.54288
99918.37243
99938.80884
99954.69508
99966.86242
99976.06718
99982.96047
99988.08009
99991.85505
99994.6258
99996.64391
99998.06716
99999.22992
99999.38241
100000.642
79025.81272
79063.50817
79112.08962
79177.62088
79264.98723
79371.1194
79497.447
79648.60365
79826.27358
80039.5057
80290.22457
80589.62134
80942.669
81361.55787
81855.5242
82437.93995
83121.42235
83919.9193
84846.02847
85909.74102
87115.01069
88455.45289
89908.95642
91433.28213
92966.04499
94432.08991
95757.63104
96885.87683
97787.53087
98462.62458
98934.77585
99241.70799
99425.8348
99527.14256
99578.96577
99606.26819
99625.70218
99646.74861
99673.38822
99705.89993
99742.49686
99780.61847
99817.80278
99852.15499
99882.50065
99908.33295
99929.65892
99946.82362
99960.35231
99970.8327
99978.83765
99984.88226
99989.40463
99992.76159
99995.24163
99997.05817
99998.34363
99999.41347
99999.4896
100000.7407
79973.6882
80017.79144
80074.49975
80151.285
80251.59579
80371.35663
80512.76324
80682.49587
80881.69772
81120.99064
81402.25936
81737.90187
82133.63684
82602.48331
83154.50879
83803.46667
84562.02536
85443.21301
86457.49011
87610.63445
88899.51976
90307.12456
91797.67137
93314.87632
94786.60019
96136.75075
97300.8789
98239.04869
98941.05358
99423.33182
99720.56652
99875.94636
99932.96649
99929.96053
99897.30808
99856.69494
99821.72004
99799.26736
99791.21553
99796.17601
99811.03501
99832.1562
99856.18517
99880.47463
99903.21378
99923.36138
99940.48366
99954.56916
99965.861
99974.72807
99981.57667
99986.79704
99990.73494
99993.67963
99995.87062
99997.48494
99998.63139
99999.60588
99999.60345
100000.8482
80995.8956
81047.78334
81114.02251
81202.05835
81315.0564
81451.04992
81610.66304
81802.58166
82027.34121
82297.41391
82614.5961
82992.4112
83437.23109
83962.64203
84579.25114
85300.75647
86139.30945
87106.16309
88208.27738
89445.19231
90804.17852
92255.3857
93748.95853
95217.30003
96584.41111
97780.41826
98755.82392
99489.75206
99989.88572
100285.8308
100419.6538
100436.945
100380.2171
100285.0128
100178.2854
100078.3727
99995.95322
99935.52637
99897.09534
99877.81648
99873.43816
99879.4127
99891.63428
99906.82195
99922.62627
99937.54963
99950.77806
99961.98902
99971.1767
99978.5148
99984.25943
99988.68716
99992.05881
99994.6011
99996.50769
99997.92123
99998.92892
99999.80622
99999.72333
100000.9647
82098.8619
82160.12383
82236.81753
82338.12927
82465.90057
82620.08869
82800.91695
83018.71679
83272.91804
83578.00756
83935.69138
84360.46795
84859.29741
85446.17887
86132.06622
86930.20517
87851.46847
88903.97829
90089.14292
91397.75818
92805.21434
94267.98883
95724.03619
97099.50553
98321.49204
99332.60869
100101.6188
100626.4403
100929.8151
101050.7476
101035.2744
100928.9367
100771.8259
100596.0388
100424.946
100273.6468
100150.1201
100056.7268
99991.82555
99951.31989
99929.99298
99922.53233
99924.20456
99931.19892
99940.71287
99950.86132
99960.50395
99969.04823
99976.26979
99982.16911
99986.86763
99990.53904
99993.36657
99995.51934
99997.14848
99998.36441
99999.23483
100000.0136
99999.84987
100001.0905
83285.8208
83358.56364
83447.57965
83566.68098
83712.63555
83887.16127
84091.00017
84337.18767
84623.58694
84966.73995
85368.39898
85843.9986
86401.10011
87053.92726
87813.35422
88691.26637
89695.77445
90829.85093
92087.01414
93447.20159
94872.90294
96308.13252
97682.80625
98923.26781
99966.29357
100771.2581
101325.9505
101644.8667
101762.1271
101722.4561
101573.0276
101357.5589
101112.8384
100867.24
100640.6164
100445.0492
100286.0824
100164.1922
100076.3142
100017.2844
99981.07466
99961.73582
99954.01427
99953.65913
99957.48884
99963.29088
99969.64606
99975.72836
99981.1223
99985.67521
99989.38829
99992.34252
99994.6506
99996.42893
99997.78931
99998.81216
99999.54782
100000.2272
99999.98552
100001.2258
84558.41228
84645.3944
84748.49204
84886.56264
85051.22758
85248.61041
85477.62403
85755.06142
86077.14808
86462.42779
86912.7912
87444.42396
88065.22196
88788.96514
89625.44582
90583.74672
91667.4206
92872.34936
94182.36442
95565.49345
96971.95637
98336.52412
99586.7869
100655.86
101495.2243
102082.8198
102424.0307
102546.532
102492.0004
102307.7015
102039.8163
101729.0898
101408.5729
101102.9108
100828.6441
100595.1149
100405.7106
100259.268
100151.5028
100076.3492
100027.1023
99997.28669
99981.22049
99974.28955
99972.99689
99974.85452
99978.20577
99982.02337
99985.72518
99989.02357
99991.81271
99994.09027
99995.9051
99997.32549
99998.42708
99999.26244
99999.86667
100000.4467
100000.134
100001.3711
85916.40964
86020.76322
86137.37903
86294.48914
86480.57006
86705.00475
86963.31404
87276.67766
87639.72687
88072.7355
88577.56606
89170.6176
89859.53049
90656.67218
91569.59494
92603.20812
93755.00299
95012.26835
96348.016
97718.45111
99063.82992
100314.5381
101402.1375
102272.0313
102893.1711
103261.5272
103397.149
103337.0756
103127.0846
102814.4993
102443.062
102049.9155
101664.2663
101307.2024
100992.2353
100726.2673
100510.8001
100343.2571
100218.3165
100129.1556
100068.5082
100029.4673
100006.0009
99993.19689
99987.2972
99985.58302
99986.1961
99987.93616
99990.07608
99992.20948
99994.13552
99995.7772
99997.12569
99998.20552
99999.05915
99999.71346
100000.1903
100000.6721
100000.2962
100001.5266
87374.72408
87499.19648
87630.94672
87810.27371
88019.41143
88274.6788
88566.21618
88919.46036
89327.48057
89811.89629
90374.2805
91030.59242
91787.6535
92655.53628
93638.53109
94736.14849
95938.38396
97222.62315
98550.62728
99868.28957
101109.9208
102207.371
103101.932
103754.8732
104153.0127
104308.0473
104251.0477
104024.7862
103676.3332
103251.3094
102790.1584
102326.1814
101884.8543
101483.9819
101134.3616
100840.7523
100603.0213
100417.3815
100277.6332
100176.3212
100105.7172
100058.5624
100028.5409
100010.4977
100000.46
99995.51629
99993.63784
99993.47591
99994.17744
99995.23183
99996.35394
99997.40001
99998.30916
99999.06625
99999.68329
100000.1636
100000.5175
100000.9034
100000.4681
100001.6924
88942.48525
89090.9499
89242.3525
89448.97244
89682.40994
89970.00181
90296.47064
90691.10476
91145.36981
91681.82361
92301.5998
93019.57164
93841.21961
94773.40559
95815.96889
96961.52745
98191.04268
99471.2226
100753.5128
101976.8142
103074.8241
103986.6341
104667.4538
105095.7
105274.4842
105227.917
104994.408
104619.3866
104149.1421
103626.4763
103088.1298
102563.5918
102074.8554
101636.7635
101257.7172
100940.6086
100683.8971
100482.763
100330.2663
100218.4256
100139.1342
100084.8486
100049.0248
100026.3113
100012.56
100004.6994
100000.5566
99998.6559
99998.03508
99998.09209
99998.46712
99998.95674
99999.45324
99999.90548
100000.2976
100000.6114
100000.8475
100001.1403
100000.6485
100001.8679
90619.84872
90796.05087
90967.32397
91201.49311
91460.48512
91781.70066
92144.41447
92581.41825
93082.59031
93670.95441
94347.18974
95124.29759
96005.61879
96993.50014
98081.70256
99254.36495
100482.5042
101722.7944
102919.1556
104008.2934
104928.8862
105631.826
106088.2843
106293.0217
106262.5962
106029.9338
105637.5213
105131.0805
104554.7332
103947.8638
103343.4282
102767.3044
102238.3179
101768.6826
101364.7038
101027.6575
100754.794
100540.4148
100376.9567
100256.0023
100169.1363
100108.5875
100067.63
100040.7555
100023.6732
100013.1795
100006.9805
100003.492
100001.657
100000.7935
100000.4756
100000.4465
100000.5563
100000.7215
100000.9006
100001.0556
100001.1791
100001.3826
100000.8386
100002.0523
92393.06796
92598.6866
92789.66281
93054.52968
93340.67476
93696.56468
94096.88097
94577.61845
95127.18561
95768.07296
96500.19554
97333.40413
98267.53456
99298.81893
100413.4469
101586.3187
102779.0376
103940.6311
105011.7232
105932.0528
106649.9577
107130.7566
107361.5198
107351.0651
107126.0158
106724.7674
106191.275
105569.898
104901.7764
104222.6581
103561.8454
102941.899
102378.8159
101882.5013
101457.4387
101103.5091
100816.9257
100591.2423
100418.3716
100289.5357
100196.0699
100130.0221
100084.5238
100053.9427
100033.8735
100021.004
100012.9389
100008.0013
100005.0527
100003.3407
100002.381
100001.8691
100001.6175
100001.5129
100001.4907
100001.4948
100001.5118
100001.6303
100001.0349
100002.2454
94263.98931
94494.29981
94698.65929
94994.7881
95312.41352
95707.06457
96148.98187
96676.65766
97277.22459
97971.04351
98756.58135
99639.16465
100613.8006
101669.5629
102784.5051
103924.7956
105044.5981
106088.9097
106999.7671
107724.5139
108224.1524
108479.0216
108490.411
108278.1483
107875.6042
107323.8586
106666.431
105945.2784
105198.1794
104457.2836
103748.4945
103091.3896
102499.4713
101980.6309
101537.7733
101169.5759
100871.3618
100636.048
100455.1064
100319.4618
100220.2493
100149.3754
100099.8614
100065.9792
100043.2319
100028.219
100018.4608
100012.2017
100008.2323
100005.7389
100004.1854
100003.2251
100002.6361
100002.2787
100002.0667
100001.9281
100001.8449
100001.8825
100001.2287
100002.4486
96216.17871
96480.78019
96712.36116
97041.81077
97393.80454
97829.98134
98315.65322
98890.13552
99539.81965
100281.436
101111.2789
102029.2503
103024.6429
104078.9641
105162.4203
106233.9864
107243.3567
108135.6229
108858.5392
109370.2529
109645.5647
109678.7631
109482.7335
109085.1358
108523.2105
107838.6077
107073.1487
106265.8304
105450.9942
104657.3879
103907.8318
103219.259
102602.9888
102065.1622
101607.3166
101227.09
100919.0397
100675.5389
100487.6888
100346.1698
100241.9574
100166.8498
100113.7852
100076.9632
100051.8148
100034.8686
100023.5747
100016.1107
100011.2062
100007.9937
100005.8916
100004.5151
100003.6119
100003.018
100002.6276
100002.3545
100002.1779
100002.1365
100001.4126
100002.6637
98293.60831
98595.95832
98854.47145
99217.35703
99602.19758
100077.2369
100603.4806
101218.9177
101909.6815
102687.8874
103546.7893
104480.1737
105471.0464
106493.4979
107511.0188
108477.849
109342.7876
110054.9928
110571.181
110861.8487
110915.094
110737.0114
110349.1463
109784.1138
109080.7565
108279.8273
107420.7072
106539.2255
105666.4053
104827.8749
104043.7051
103328.5071
102691.6981
102137.899
101667.4611
101277.1218
100960.7774
100710.3355
100516.5848
100370.0053
100261.4474
100182.628
100126.4251
100086.9851
100059.6841
100040.9941
100028.3075
100019.7453
100013.9847
100010.1111
100007.5025
100005.7404
100004.5449
100003.7303
100003.1725
100002.773
100002.5098
100002.3881
100001.5967
100002.8903
100491.4099
100833.6217
101119.2519
101513.8739
101928.0949
102436.5404
102997.586
103645.7622
104366.5937
105166.813
106035.8172
106960.8534
107918.6512
108876.874
109794.358
110623.7341
111316.5126
111829.0968
112128.9888
112199.0325
112038.9783
111664.1142
111101.8632
110387.4441
109559.6626
108657.4523
107717.4023
106772.199
105849.7806
104972.9721
104159.4206
103421.7097
102767.6016
102200.3955
101719.4104
101320.6004
100997.2882
100740.9816
100542.205
100391.275
100278.9451
100196.8739
100137.8982
100096.1274
100066.8968
100046.6343
100032.6848
100023.1221
100016.578
100012.097
100009.0212
100006.9021
100005.4352
100004.4148
100003.7004
100003.183
100002.8398
100002.6351
100001.7924
100003.1238
102797.3002
103176.5077
103484.1758
103909.2987
104351.2405
104887.9456
105476.9259
106147.9074
106885.3114
107689.9062
108546.8252
109436.9584
110331.5339
111193.5922
111979.9999
112645.011
113145.8537
113448.1475
113530.5802
113387.1787
113027.1104
112472.2539
111753.5506
110907.0589
109970.4622
108980.3749
107970.5115
106970.5837
106005.7312
105096.2959
104257.8024
103501.068
102832.414
102253.9865
101764.2025
101358.3302
101029.1929
100767.9524
100564.9101
100410.2497
100294.6513
100209.7344
100148.3103
100104.4651
100073.5051
100051.8247
100036.7305
100026.2566
100018.9958
100013.957
100010.4508
100008.0017
100006.2831
100005.0714
100004.2106
100003.5839
100003.1665
100002.8762
100002.0009
100003.3609
105204.25
105616.3053
105942.853
106392.4044
106856.8442
107413.6575
108020.1948
108700.4366
109437.382
110225.4843
111045.5366
111872.826
112674.5206
113411.3673
114041.0785
114522.2964
114819.9553
114909.5802
114780.3082
114435.5117
113891.4195
113174.2095
112316.5094
111353.9974
110322.5924
109256.3919
108186.3259
107139.3765
106138.1885
105200.9229
104341.2534
103568.4583
102887.6012
102299.8176
101802.7313
101391.0075
101057.0309
100791.6633
100585.017
100427.1684
100308.7442
100221.3405
100157.7564
100112.0659
100079.5566
100056.5982
100040.4668
100029.1633
100021.2475
100015.6969
100011.7944
100009.0407
100007.089
100005.6996
100004.7024
100003.9749
100003.4888
100003.1108
100002.2242
100003.5993
107694.2137
108134.4568
108476.4145
108942.9905
109422.4415
109989.2723
110600.8868
111274.3785
111991.2567
112739.8712
113497.1859
114234.2734
114916.1852
115503.8301
115958.2127
116244.2736
116335.5166
116216.9941
115886.8458
115355.727
114644.7723
113782.6195
112802.266
111738.2403
110624.3818
109492.2736
108370.2521
107282.8461
106250.5009
105289.4726
104411.8221
103625.4845
102934.4204
102338.875
101835.7702
101419.237
101081.2728
100812.4781
100602.8045
100442.2426
100321.3823
100231.8094
100166.322
100118.9912
100085.0948
100060.985
100043.9142
100031.8559
100023.3417
100017.322
100013.0552
100010.0205
100007.8535
100006.2993
100005.1755
100004.3557
100003.8051
100003.339
100002.4622
100003.8367
110252.3506
110713.3136
111065.8902
111541.6114
112026.1336
112589.5636
113190.6278
113838.6457
114513.7484
115198.9844
115868.4905
116490.8212
117030.9055
117451.9439
117719.9729
117807.183
117695.5488
117378.5659
116861.631
116160.7186
115300.0824
114309.4522
113221.3226
112068.6458
110883.0913
109693.8538
108526.9151
107404.6299
106345.5184
105364.1761
104471.2573
103673.52
102973.9523
102372.0099
101863.9894
101443.5449
101102.3303
100830.7164
100618.5186
100455.6597
100332.7067
100241.246
100174.084
100125.2968
100090.1592
100065.0128
100047.0917
100034.3473
100025.287
100018.8377
100014.2361
100010.9428
100008.5771
100006.8704
100005.6293
100004.7256
100004.1139
100003.561
100002.7148
100004.0708
112857.8725
113329.0261
113685.894
114161.245
114639.4339
115183.6406
115756.2135
116358.8533
116970.5172
117569.9837
118129.7685
118617.6215
119000.1072
119244.3007
119322.2307
119213.4518
118907.6436
118405.3188
117717.3976
116863.4931
115869.6073
114765.617
113582.9894
112352.9173
111104.9549
109866.1005
108660.2355
107507.8064
106425.654
105426.9267
104521.0477
103713.7385
103007.1248
102399.9567
101887.9696
101464.3896
101120.5629
100846.6588
100632.3763
100467.5857
100342.8429
100249.7441
100181.1115
100131.0328
100094.7859
100068.707
100050.0171
100036.6494
100027.0911
100020.2488
100015.3403
100011.8091
100009.2603
100007.4127
100006.0636
100005.0843
100004.4136
100003.7771
100002.9817
100004.2986
115493.428
115960.68
116308.8044
116766.1784
117224.8822
117734.4982
118261.2345
118799.917
119328.8338
119823.6959
120256.6904
120596.3469
120812.2258
120876.23
120766.6284
120469.8421
119982.1291
119309.5359
118466.9744
117476.3678
116364.4853
115160.7482
113895.3275
112597.6371
111295.2542
110013.2029
108773.5144
107594.969
106492.9456
105479.329
104562.4609
103747.1449
103034.7362
102423.3504
101908.2158
101482.1711
101136.2865
100860.5524
100644.5694
100478.1682
100351.9032
100257.3881
100187.467
100136.2449
100099.0079
100072.0912
100052.7066
100038.7733
100028.7615
100021.5602
100016.3705
100012.6211
100009.9039
100007.9264
100006.4783
100005.431
100004.7024
100003.9885
100003.2624
100004.5154
118112.8274
118560.3586
118892.3335
119321.139
119747.1943
120207.8594
120673.1769
121131.8144
121562.1306
121938.0965
122232.7639
122416.699
122463.2987
122349.6378
122059.9297
121586.6088
120931.2831
120104.1809
119122.9614
118010.8765
116794.8069
115503.3748
114165.3612
112808.4806
111458.5149
110138.7404
108869.5706
107668.3362
106549.142
105522.766
104596.5947
103774.6135
103057.4848
102442.7492
101925.1734
101497.2442
101149.7818
100872.6182
100655.2702
100487.54
100359.9888
100264.2543
100193.2076
100140.9752
100102.8557
100075.187
100055.1757
100040.7298
100030.3054
100022.7766
100017.3297
100013.3803
100010.5086
100008.4116
100006.8733
100005.7651
100004.9791
100004.1968
100003.5552
100004.7157
120673.7998
121094.4769
121404.0955
121793.2232
122175.045
122573.793
122964.2175
123329.8889
123649.9533
123897.848
124048.365
124074.9047
123955.0254
123670.8384
123211.8727
122575.5925
121767.7999
120801.777
119696.9849
118477.3234
117169.3823
115800.8232
114399.0571
112990.2349
111598.5399
110245.7171
108950.7729
107729.7776
106595.7233
105558.4142
104624.3886
103796.8975
103075.9758
102458.6396
101939.2333
101509.9214
101161.2977
100883.0527
100664.6326
100495.8206
100367.1915
100270.4123
100198.3853
100145.2621
100106.3573
100078.0148
100057.4387
100042.5289
100031.7298
100023.9025
100018.2209
100014.0886
100011.0752
100008.8686
100007.2487
100006.0857
100005.2424
100004.4037
100003.855
100004.8971
123161.1695
123539.8391
123816.5073
124153.7826
124479.8412
124805.7579
125110.9772
125374.9172
125577.9587
125693.9458
125699.9185
125572.4801
125293.278
124849.0246
124233.7968
123449.1318
122504.0373
121413.9697
120199.5147
118884.7798
117495.8463
116059.378
114601.5036
113146.9727
111718.5657
110336.6968
109019.1518
107780.9046
106633.9733
105587.3011
104646.6681
103814.6625
103090.7467
102471.4559
101950.7454
101520.4839
101171.0584
100892.0337
100672.7962
100503.1186
100373.595
100275.9258
100203.048
100149.1414
100109.5392
100080.5937
100059.5095
100044.1803
100033.0412
100024.9425
100019.0469
100014.7477
100011.6048
100009.2978
100007.6048
100006.3919
100005.492
100004.6105
100004.154
100005.0664
125524.3408
125854.7102
126094.4242
126373.5143
126636.8174
126883.1683
127097.1218
127255.1791
127339.2868
127324.3881
127189.9574
126915.8446
126487.4754
125895.5968
125138.069
124219.664
123151.8057
121951.4756
120639.926
119241.21
117780.81
116284.4307
114777.0416
113282.16
111821.3475
110413.8668
109076.4467
107823.1054
106665.0047
105610.3229
104664.1585
103828.4967
103102.2755
102481.5859
101960.0238
101529.1846
101179.2666
100899.7222
100679.8882
100509.5332
100379.2759
100280.8534
100207.2403
100152.6464
100112.4258
100082.9418
100061.4008
100045.6931
100034.2462
100025.901
100019.8107
100015.3595
100012.0982
100009.7
100007.9416
100006.6829
100005.7278
100004.8178
100004.4469
100005.2292
127751.39
128023.2797
128218.6343
128432.9058
128628.1602
128791.5691
128912.3199
128964.8727
128932.6275
128791.9936
128524.84
128114.1195
127548.6239
126822.5526
125936.8647
124898.8816
123721.8455
122423.8078
121026.3977
119553.4794
118029.9292
116480.5753
114929.3669
113398.7526
111909.2437
110479.1104
109124.1651
107857.5919
106689.7969
105628.2746
104677.5073
103838.9291
103110.9941
102489.382
101967.3548
101536.2551
101186.1084
100906.2666
100686.0256
100515.1563
100384.3054
100285.25
100211.0037
100155.8083
100115.0405
100085.076
100063.1252
100047.0764
100035.351
100026.7823
100020.5153
100015.9257
100012.5565
100010.0756
100008.2593
100006.958
100005.9502
100005.0255
100004.7289
100005.3841
129800.1158
130012.2314
130163.5329
130312.9476
130440.4291
130522.7235
130552.8774
130504.3359
130361.8778
130103.6614
129713.8314
129178.2103
128488.5225
127641.8799
126641.7661
125497.517
124223.7589
122839.3093
121366.0056
119827.474
118248.0272
116651.7226
115061.6283
113499.2775
111984.2816
110534.057
109163.6224
107885.4312
106709.2194
105641.8681
104687.2991
103846.4402
103117.2977
102495.1681
101973.0027
101541.91
101191.7568
100911.8055
100691.3186
100520.0742
100388.751
100289.1674
100214.378
100158.6572
100117.4059
100087.0131
100064.6951
100048.339
100036.362
100027.591
100021.1637
100016.4484
100012.9812
100010.4257
100008.5581
100007.2167
100006.1602
100005.232
100004.9942
100005.5334
131656.6065
131809.3325
131919.7955
132007.8139
132070.5265
132076.4334
132021.4233
131878.8264
131634.6471
131268.9069
130767.8133
130119.7614
129318.9895
128365.0492
127263.487
126025.2513
124666.0491
123205.272
121664.881
120068.2695
118439.2576
116801.2444
115176.5512
113585.9344
112048.2389
110580.1481
109195.9922
107907.5835
106724.0619
105651.7548
104694.0726
103851.4756
103121.5538
102499.2466
101977.2153
101546.3508
101196.3747
100916.4693
100695.8708
100524.369
100392.6768
100292.6554
100217.4012
100161.2221
100119.5436
100088.7695
100066.1223
100049.4898
100037.2857
100028.3315
100021.759
100016.9298
100013.3735
100010.7512
100008.8383
100007.4588
100006.3582
100005.4349
100005.2419
100005.6846
133317.2975
133415.6912
133488.4697
133520.0961
133522.2782
133458.0139
133324.9814
133096.9829
132760.9633
132298.762
131698.3783
130950.4572
130051.3701
129002.7106
127811.7278
126490.6868
125056.1704
123528.0307
121928.3232
120280.2452
118607.2085
116932.065
115276.5133
113660.6575
112102.6929
110618.6749
109222.3368
107924.9268
106735.0525
105658.5405
104698.3317
103854.4542
103124.1097
102501.904
101980.2276
101549.7692
101200.1171
100920.3827
100699.7816
100528.1191
100396.1441
100295.7618
100220.1101
100163.5311
100121.475
100090.361
100067.4187
100050.5374
100038.1283
100029.0086
100022.3047
100017.372
100013.7351
100011.0532
100009.1001
100007.6842
100006.5443
100005.6321
100005.4799
100005.8398
134792.9656
134840.4134
134876.099
134856.6734
134803.6395
134676.5348
134473.7353