/*--------------------------------*- C++ -*----------------------------------*\
  =========                 |
  \\      /  F ield         | OpenFOAM: The Open Source CFD Toolbox
   \\    /   O peration     | Website:  https://openfoam.org
    \\  /    A nd           | Version:  12
     \\/     M anipulation  |
\*---------------------------------------------------------------------------*/
FoamFile
{
    format      ascii;
    class       volScalarField;
    location    "1450";
    object      T;
}
// * * * * * * * * * * * * * * * * * * * * * * * * * * * * * * * * * * * * * //

dimensions      [0 0 0 1 0 0 0];

internalField   nonuniform List<scalar> 
16200
(
294.3937621
294.4159605
294.283994
293.9355299
293.2098738
291.6976477
288.4808508
282.6176877
279.2534485
278.9871653
279.0894722
279.182314
279.2976869
279.4249154
279.5742895
279.7452761
279.944363
280.175042
280.4433307
280.7549986
281.1169423
281.5365394
282.0217798
282.5809446
283.2221867
283.9528074
284.7781086
285.699762
286.7136693
287.8075524
288.9590054
290.1354244
291.2971398
292.4035266
293.4198536
294.322116
295.0985119
295.7480951
296.2780261
296.7006212
297.0308061
297.284148
297.475474
297.6180248
297.7230474
297.7997166
297.855286
297.8953416
297.9240985
297.944686
297.9593987
297.9699065
297.9774169
297.9828107
297.9867189
297.9896242
297.9917903
297.9934932
297.9949525
297.9970687
293.5156996
293.4969704
293.3024197
292.8537799
291.9416423
290.0192606
285.9769867
280.0701603
277.9740503
277.8985923
278.004242
278.1067311
278.231613
278.3701074
278.5331268
278.7205861
278.9394362
279.1938864
279.490602
279.8362271
280.2385275
280.7058704
281.2472193
281.8717712
282.5883489
283.4044121
284.3245023
285.3480906
286.4668714
287.6620582
288.9030697
290.149468
291.3567973
292.4844374
293.5021099
294.3926993
295.1513798
295.782646
296.2969647
296.7080158
297.0307251
297.2799335
297.4695118
297.6118146
297.7174031
297.7949872
297.8515386
297.8924956
297.9220112
297.9432023
297.9583762
297.9692242
297.9769786
297.9825397
297.9865625
297.9895372
297.9917618
297.9934925
297.9949619
297.9972124
292.7424013
292.6665875
292.3915507
291.8224172
290.6908688
288.2847115
283.2306005
278.1045465
276.9255377
276.9735203
277.0870383
277.1988061
277.3358156
277.488728
277.6688434
277.8767063
278.1197027
278.4028574
278.733534
279.1193368
279.5689908
280.0919362
280.6981622
281.397731
282.199885
283.111657
284.1357585
285.2677675
286.4928913
287.7834889
289.099462
290.3931731
291.6179574
292.7366271
293.7263439
294.5787379
295.2967127
295.8902421
296.3728182
296.7591206
297.0637175
297.3003802
297.4816872
297.6187802
297.7212268
297.7969968
297.8525477
297.892981
297.9222395
297.943315
297.9584437
297.9692779
297.9770302
297.9825898
297.9866099
297.9895767
297.9917999
297.9935222
297.9949563
297.9971919
292.1249696
291.9840765
291.6150625
290.8954666
289.4815953
286.5045028
280.5473428
276.7111182
276.1801618
276.265242
276.3854791
276.5084181
276.6587904
276.8277777
277.0269613
277.2576895
277.5277986
277.8432287
278.2121054
278.6430571
279.1458108
279.7308613
280.4090951
281.1911036
282.0858951
283.0989692
284.2295315
285.4670308
286.7878203
288.1539531
289.5164702
290.8235762
292.0307105
293.1079817
294.0422674
294.8345299
295.4948654
296.0377415
296.4787017
296.83266
297.1132869
297.3329091
297.5025373
297.6318796
297.7293247
297.8019446
297.8555513
297.8948044
297.9233552
297.9440095
297.9588879
297.9695722
297.9772328
297.9827333
297.9867135
297.98965
297.9918573
297.9935665
297.9949697
297.9972198
291.6730827
291.4641279
290.9942272
290.1013966
288.3241131
284.5748758
278.2922255
275.8766991
275.6959312
275.7942559
275.9215511
276.0575049
276.2233145
276.4108599
276.6318634
276.888627
277.1894483
277.5412703
277.953052
278.4344972
278.9963374
279.6500004
280.4069608
281.2777298
282.2700583
283.3863542
284.6201931
285.9524915
287.3489491
288.7613894
290.1346364
291.4172043
292.5711455
293.5768674
294.4319866
295.1463023
295.7358805
296.2183734
296.6103195
296.9261471
297.178191
297.3770777
297.5320909
297.6513859
297.7420674
297.8102117
297.8608959
297.8982584
297.9255933
297.9454675
297.9598449
297.9702061
297.9776567
297.9830185
297.9869055
297.9897774
297.9919444
297.9936277
297.9949901
297.997236
291.3975244
291.1208269
290.5478823
289.4686224
287.2638398
282.4954462
276.8224823
275.4316436
275.4707247
275.5609758
275.704989
275.8553256
276.0380092
276.2460062
276.4910979
276.7767052
277.1116427
277.5039242
277.9633663
278.5006821
279.1274394
279.855652
280.6967935
281.6603406
282.751353
283.9671784
285.2934391
286.70053
288.1430622
289.5647635
290.9086688
292.1286609
293.1972053
294.1066291
294.8649734
295.4894633
296.0004416
296.4172775
296.7564532
297.0312664
297.2523749
297.4285515
297.5672924
297.6751733
297.7579925
297.8208014
297.8679067
297.9028891
297.9286501
297.9474868
297.961181
297.9710921
297.9782453
297.9834094
297.9871637
297.9899454
297.9920549
297.9937035
297.9950211
297.9972626
291.2894223
290.9404664
290.2540451
288.9496718
286.2206732
280.4283155
275.9266267
275.2074692
275.4403615
275.5646055
275.7209749
275.8879693
276.0900121
276.3214747
276.5941123
276.912538
277.2860736
277.7237602
278.2361963
278.8349347
279.5321089
280.3398338
281.2687755
282.3261168
283.5124579
284.8179156
286.2180795
287.67189
289.1242805
290.5148837
291.7902233
292.9140434
293.8715472
294.6670518
295.3176274
295.8460048
296.2750196
296.62441
296.9097331
297.1426819
297.332035
297.484666
297.6063093
297.7020051
297.7762803
297.8331794
297.8762415
297.9084808
297.9323919
297.9499861
297.962848
297.9722024
297.9789832
297.9838977
297.9874841
297.9901524
297.9921882
297.9937931
297.9950607
297.9972924
291.3486459
290.9224818
290.10739
288.5068611
285.0512159
278.6953931
275.6910014
275.5191276
275.6539117
275.7834952
275.9556259
276.1417795
276.365841
276.6238143
276.927358
277.2823097
277.6985022
278.185958
278.7559889
279.4207808
280.192641
281.0830659
282.1007804
283.249076
284.5220996
285.9006618
287.3489853
288.8151902
290.23785
291.5577103
292.729859
293.7310266
294.5597858
295.2312084
295.7693258
296.2003054
296.5478322
296.8309032
297.0635097
297.2554431
297.4135247
297.5427711
297.6472447
297.7305441
297.7960024
297.8467105
297.8854716
297.9147478
297.9366308
297.9528437
297.9647681
297.973488
297.9798402
297.9844655
297.9878566
297.9903926
297.9923417
297.9938955
297.9951089
297.9973279
291.5676719
291.0676349
290.105247
288.1370641
283.6895321
277.5644791
275.6655791
275.8841264
276.0561613
276.2018367
276.3906681
276.5977441
276.8458028
277.132672
277.4699141
277.864615
278.3271373
278.8683895
279.5002211
280.2350512
281.0846982
282.0590198
283.1633998
284.3954692
285.7409452
287.1697286
288.6345793
290.0752638
291.4288308
292.6425922
293.6841431
294.5445596
295.2348805
295.7788187
296.2050493
296.5412454
296.8105911
297.0305302
297.213083
297.3660056
297.4941902
297.6009028
297.6886662
297.7597627
297.8164337
297.8608915
297.895253
297.9214589
297.9412139
297.9559599
297.9668776
297.9749092
297.9807924
297.9850986
297.988273
297.9906619
297.9925135
297.9940097
297.9951648
297.9973682
291.9133936
291.333451
290.1901889
287.7817033
282.2468141
277.1477657
276.3613053
276.4547558
276.628261
276.7903015
276.9978456
277.2282498
277.5029968
277.8218497
278.1962869
278.6345918
279.1476048
279.7468977
280.4445205
281.2525456
282.181465
283.2383312
284.4236614
285.7275871
287.1256268
288.5760513
290.021721
291.398265
292.6467845
293.7258592
294.6178188
295.327712
295.8770212
296.2955802
296.6144797
296.8612826
297.0576704
297.2190105
297.3551525
297.4718148
297.5720629
297.6575611
297.7294481
297.7888306
297.8369726
297.8752941
297.9052863
297.9284081
297.9460018
297.9592422
297.9691164
297.9764277
297.9818158
297.9857827
297.9887252
297.9909559
297.9927016
297.9941349
297.9952282
297.9974136
292.3714103
291.7005776
290.3111821
287.2767417
280.9438776
277.0595896
276.9942044
277.1596045
277.3459514
277.5269173
277.7552104
278.011456
278.3157441
278.6698075
279.0850418
279.570784
280.1382127
280.7992378
281.5656722
282.4485601
283.4561011
284.5911994
285.8477759
287.2065941
288.6317648
290.0706412
291.4596204
292.7356191
293.8490921
294.7730449
295.5048921
296.0619002
296.4733594
296.7727042
296.9915274
297.156058
297.2858153
297.3938175
297.487706
297.5712517
297.6458453
297.7117194
297.7687931
297.8171411
297.8571672
297.8895885
297.9153354
297.9354297
297.9508805
297.9626136
297.9714333
297.9780106
297.9828898
297.9865054
297.9892061
297.9912706
297.9929041
297.9942702
297.9952987
297.997464
292.9300045
292.1580509
290.4639023
286.5410161
280.0808602
277.7982763
277.8202021
277.9897731
278.1897007
278.391768
278.6432143
278.928093
279.2650225
279.6576262
280.1172051
280.6539583
281.2792441
282.004958
282.8421582
283.8000232
284.8832388
286.0889146
287.4024701
288.7937638
290.2154965
291.6067022
292.9023338
294.0462564
295.0023268
295.7591994
296.3280839
296.7358459
297.01681
297.2057783
297.3333584
297.4236157
297.4935438
297.5537342
297.6096974
297.6634074
297.7147563
297.7627221
297.8061659
297.8442693
297.8766891
297.9035274
297.9252184
297.9423927
297.9557575
297.9660103
297.9737854
297.9796295
297.9839964
297.9872555
297.989709
297.9916023
297.9931193
297.9944147
297.9953759
297.9975195
293.5774839
292.6716609
290.5977626
285.6315185
279.9143866
278.5629769
278.7512579
278.9272051
279.1440693
279.3695919
279.6465787
279.9627151
280.3351708
280.7693602
281.2765357
281.8675769
282.5538122
283.346623
284.2555391
285.2867065
286.439728
287.7040464
289.0548709
290.4506154
291.8343651
293.1412542
294.3105278
295.2977917
296.0824701
296.668228
297.0776354
297.3442112
297.5047652
297.59368
297.6395362
297.6637528
297.6806678
297.6985078
297.7208035
297.7479143
297.7784183
297.8102103
297.8412458
297.869943
297.8953169
297.9169367
297.9348026
297.9491987
297.9605617
297.9693819
297.976138
297.9812611
297.9851203
297.9880234
297.9902282
297.9919479
297.9933456
297.9945677
297.9954595
297.9975801
294.3113234
293.2117135
290.6013831
284.7116521
279.9537985
279.5320974
279.7766412
279.9602077
280.1960767
280.4468689
280.7515732
281.1014829
281.5124816
281.9916132
282.5500465
283.1989805
283.9492442
284.8109122
285.790906
286.8908939
288.1036353
289.4091582
290.7715546
292.1388799
293.448311
294.6366157
295.6526348
296.4667942
297.0742434
297.4915893
297.7497651
297.8861136
297.937822
297.9375598
297.9112423
297.8774368
297.8478637
297.8285367
297.821198
297.8247857
297.8367434
297.8540435
297.8738748
297.8940087
297.9129139
297.929702
297.9439964
297.9557769
297.9652399
297.9726898
297.9784637
297.9828865
297.9862488
297.9888009
297.9907586
297.9923044
297.9935815
297.9947285
297.9955488
297.9976458
295.1192952
293.7597339
290.4147677
284.0603406
280.8011717
280.6016422
280.8756335
281.0738872
281.3317048
281.6109034
281.9469693
282.3345865
282.7884485
283.3168776
283.930744
284.6410361
285.4574611
286.3878563
287.435278
288.5952993
289.8521068
291.1751688
292.5179614
293.8211466
295.0210924
296.061739
296.9053915
297.5383257
297.9698883
298.2267303
298.3451098
298.3637691
298.3186955
298.2400127
298.1506612
298.0663545
297.9963434
297.944631
297.9113772
297.8942894
297.8898446
297.8942377
297.904014
297.9164022
297.9294091
297.9417559
297.9527411
297.9620793
297.9697547
297.9759056
297.9807415
297.9844908
297.9873718
297.9895812
297.9912959
297.9926692
297.9938258
297.9948962
297.995643
297.9977165
295.9899714
294.2587183
290.0677873
283.9815145
281.7483775
281.7687511
282.0507076
282.2681091
282.5511154
282.8621811
283.2333618
283.6624441
284.1629603
284.7441316
285.4162889
286.1896455
287.0720286
288.0678631
289.1747847
290.3805533
291.6594926
292.9705771
294.2589403
295.462365
296.5219055
297.3931313
298.0537079
298.5049146
298.767662
298.8755039
298.867314
298.7813552
298.6513536
298.5044402
298.3605163
298.2325748
298.1276077
298.0478307
297.9920268
297.9568507
297.9379644
297.9309133
297.9317078
297.9371237
297.94478
297.9530669
297.9610042
297.9680761
297.9740808
297.9790091
297.982956
297.9860625
297.9884809
297.9903588
297.9918365
297.9930401
297.9940772
297.99507
297.9957419
297.9977922
296.9115764
294.6965627
289.6879421
284.0711079
282.8831481
283.016753
283.3062359
283.5475957
283.8581022
284.2034789
284.6124635
285.0856665
285.6355052
286.2716869
287.0036185
287.8398928
288.785295
289.8393078
290.9924983
292.2235273
293.4966632
294.7620781
295.9604156
297.0317881
297.9267352
298.6151299
299.0899211
299.3651838
299.4702816
299.4427384
299.3218657
299.1441293
298.9403769
298.7345938
298.5437441
298.3783135
298.2432746
298.1392793
298.0639267
298.0129806
297.9814214
297.9642568
297.9570553
297.9562175
297.9590387
297.9636297
297.9687722
297.9737515
297.9782028
297.9819868
297.9850963
297.9875931
297.9895699
297.991129
297.9923772
297.9934151
297.9943346
297.9952492
297.9958437
297.9978731
297.8251248
295.0605248
289.4435064
284.5725963
284.135495
284.3405264
284.6415706
284.9102161
285.2506194
285.6329271
286.0826246
286.6027873
287.2045824
287.8975209
288.6893263
289.5857904
290.5872748
291.6868821
292.8669684
294.0967883
295.3317569
296.5164049
297.5916153
298.5047179
299.2190383
299.7194666
300.0125899
300.1223447
300.083482
299.9350459
299.7151965
299.4577853
299.1905109
298.9342641
298.7032763
298.5057774
298.3449641
298.2201364
298.1278852
298.0632255
298.0205726
297.9944918
297.9801892
297.9737568
297.972221
297.9734577
297.9760462
297.9791002
297.9821132
297.9848308
297.9871548
297.9890765
297.9906338
297.9918882
297.9929154
297.9937923
297.9945968
297.9954327
297.9959554
297.9979592
298.6335793
295.3697967
289.4445543
285.812428
285.4964287
285.7395865
286.05676
286.3565302
286.7299474
287.1524179
287.6460029
288.2156623
288.870937
289.6202215
290.4686396
291.4180278
292.4631789
293.5898453
294.7717656
295.969544
297.1322074
298.2027757
299.127128
299.8635526
300.3896209
300.704251
300.8250546
300.7827455
300.6147911
300.3598971
300.0540312
299.7280144
299.4063735
299.1070853
298.8419048
298.6170674
298.4342266
298.2915233
298.1846957
298.1081335
298.0557863
298.0218581
298.00126
297.9898318
297.9843774
297.9825766
297.9828369
297.9841246
297.9858098
297.987537
297.9891272
297.9905082
297.991669
297.9926334
297.9934488
297.9941703
297.9948629
297.9956205
297.9960777
297.9980505
299.3110718
295.6600813
289.8592895
286.9396056
286.9609484
287.2242132
287.5603112
287.894267
288.3030453
288.7676442
289.3064489
289.9255743
290.6325349
291.4337191
292.3308443
293.3208294
294.3920084
295.5222319
296.6769485
297.8099401
298.8673503
299.7951661
300.5482548
301.0979686
301.4358307
301.5726177
301.5339866
301.3546119
301.0725715
300.7249549
300.3449508
299.9602283
299.5922811
299.2564226
298.962206
298.7141249
298.5125019
298.3544906
298.2351108
298.1482329
298.0874249
298.046598
298.020425
298.004541
297.9955674
297.9910203
297.9891619
297.9888324
297.9892946
297.9901044
297.991011
297.9918856
297.9926727
297.9933623
297.9939756
297.9945476
297.995132
297.9958125
297.9962084
297.998147
299.9212826
295.9483239
290.4998772
288.3335355
288.5216582
288.7985998
289.1574681
289.5266903
289.9710829
290.4772954
291.0599164
291.7254414
292.4790069
293.3241495
294.2583577
295.2726865
296.3482811
297.4550883
298.5515864
299.5876878
300.510779
301.2738861
301.8434758
302.2043428
302.3603224
302.331296
302.1480969
301.8470491
301.4653289
301.037633
300.5941267
300.1594043
299.7521584
299.3853191
299.0665072
298.7987069
298.5810999
298.410001
298.2798272
298.184019
298.1158336
298.0689469
298.037841
298.0179859
298.0058543
297.9988266
297.9950428
297.9932349
297.9925726
297.9925342
297.9928056
297.9932069
297.993643
297.9940729
297.9944941
297.994923
297.9954032
297.9960085
297.9963456
297.9982481
300.5557821
296.2985137
291.1895102
289.8574592
290.1644946
290.4569857
290.8397567
291.2442438
291.7235518
292.2696888
292.8935021
293.6009576
294.3943277
295.2733163
296.2301927
297.2493272
298.3044826
299.3587108
300.3660332
301.2762436
302.0419721
302.6262315
303.0080586
303.1846174
303.1696301
302.9892633
302.6770713
302.2692992
301.8012445
301.3048238
300.8071741
300.3300117
299.889504
299.4964793
299.1568768
298.87238
298.6411944
298.4589236
298.3194793
298.2159478
298.1413344
298.0891277
298.0536587
298.0302662
298.0153023
298.0060357
298.0005035
297.9973453
297.9956505
297.9948293
297.9945113
297.9944714
297.9945785
297.9947638
297.9950029
297.9952952
297.9956757
297.9962082
297.9964893
297.9983532
301.1986586
296.7885897
292.4101578
291.4949596
291.873539
292.185913
292.593668
293.0335343
293.5474163
294.1318328
294.7939162
295.5379344
296.3625592
297.2625834
298.2242744
299.2251218
300.2323429
301.2042681
302.0938121
302.8544412
303.4471274
303.8463072
304.0430667
304.0449161
303.872793
303.5566253
303.1307785
302.630244
302.087895
301.5327607
300.9890951
300.4759965
300.0073931
299.5922776
299.235134
298.9365266
298.6938263
298.5020339
298.354638
298.2444332
298.1642227
298.1073474
298.0680205
298.0414777
298.0239745
298.0126878
298.0055687
298.0011783
297.9985364
297.9969935
297.9961296
297.995679
297.9954785
297.9954339
297.9955009
297.9956633
297.9959486
297.9964114
297.9966376
297.9984623
301.9084553
297.4357602
293.8041786
293.2201212
293.6409825
293.9783951
294.412423
294.8879668
295.4360927
296.0563461
296.7520541
297.5245733
298.3682111
299.2722067
300.2167041
301.1730672
302.1038157
302.9654759
303.7133127
304.3075415
304.7192324
304.9342204
304.9540582
304.7941661
304.4801873
304.0437703
303.5187353
302.9381089
302.3321145
301.7269709
301.1442789
300.6008011
300.1085024
299.6747815
299.3028658
298.9923571
298.7399119
298.5400189
298.3858122
298.2698475
298.1847666
298.1237961
298.0810586
298.0517106
298.0319309
298.0188219
298.0102632
298.0047489
298.0012388
297.9990312
297.9976622
297.99683
297.9963424
297.9960823
297.995987
297.9960262
297.9962215
297.996617
297.9967849
297.9985761
302.720621
298.5174137
295.3011583
295.0283895
295.4705144
295.8388302
296.2993161
296.8087399
297.3880994
298.038257
298.7586327
299.546815
300.3923503
301.2788815
302.1810394
303.0655841
303.8927855
304.6204199
305.2090253
305.6275026
305.8574089
305.8948411
305.7496849
305.4428578
305.0025989
304.4607683
303.849768
303.2003049
302.5399449
301.8922822
301.2765323
300.707401
300.1951438
299.7457791
299.361449
299.0409259
298.7802531
298.5734833
298.4134532
298.2925231
298.2032075
298.1386461
298.0928943
298.0610485
298.0392281
298.0244755
298.0146109
298.008072
298.0037665
298.0009473
297.9991114
297.9979252
297.99717
297.9967081
297.9964602
297.996383
297.9964936
297.996823
297.9969323
297.998696
303.6103211
299.6486528
296.9611457
296.9221413
297.3721114
297.7719882
298.2557243
298.7930129
299.3961506
300.0657458
300.7972408
301.5839692
302.4106645
303.2558242
304.0897491
304.8766269
305.577123
306.1529694
306.5719838
306.8124664
306.8657473
306.7363977
306.440395
306.0020431
305.4505576
304.8169899
304.131835
303.4233754
302.7166482
302.0328648
301.3891292
300.7983514
300.2693039
299.8068103
299.4120734
299.0831481
298.8155495
298.6029573
298.4379589
298.3127552
298.2197613
298.152053
298.1036378
298.0695683
298.0459187
298.0296838
298.018635
298.0111621
298.0061284
298.0027467
298.0004798
297.9989653
297.9979612
297.997311
297.9969198
297.9967331
297.9967641
297.9970274
297.9970771
297.9988219
304.6006442
300.7578215
298.7556707
298.8892832
299.3403648
299.7673481
300.268833
300.8254282
301.4420887
302.1179417
302.8443778
303.6102869
304.3959257
305.1756247
305.9170495
306.5841228
307.1403708
307.5534787
307.7994909
307.8657697
307.7519934
307.4691976
307.0374082
306.4826364
305.8339318
305.1209188
304.3719761
303.6130207
302.8667648
302.1522969
301.484872
300.8758394
300.332686
299.8591991
299.4557654
299.1198167
298.84641
298.6289053
298.4596799
298.3308051
298.2346205
298.1641567
298.1133891
298.0773402
298.0520511
298.0344795
298.022357
298.0140332
298.008333
298.0044344
298.0017699
297.9999515
297.9987161
297.9978903
297.9973649
297.9970756
297.9970322
297.9972281
297.9972262
297.9989512
305.7218452
301.9676721
300.6555961
300.907424
301.3579589
301.8056786
302.3183652
302.8845933
303.5029914
304.1703091
304.8740131
305.5987996
306.3212735
307.0130671
307.641203
308.171558
308.5724314
308.818551
308.8941615
308.794616
308.5262027
308.1045072
307.5519199
306.8949295
306.161685
305.3800677
304.5763202
303.7741493
302.9941786
302.2536299
301.5661486
300.9417305
300.3867465
299.9040813
299.4934095
299.1516178
298.8733642
298.651733
298.4789239
298.3469039
298.2479563
298.1750822
298.1222381
298.0844279
298.0576697
298.038893
298.0257973
298.0166984
298.0103886
298.0060153
298.0029843
298.000885
297.9994351
297.9984458
297.9977949
297.9974099
297.9972968
297.997424
297.9973839
297.9990803
306.9476075
303.4623763
302.6333376
302.9603454
303.4076098
303.8682596
304.383844
304.9482985
305.554882
306.1974276
306.85986
307.5233753
308.1621474
308.7468285
309.2457358
309.6284714
309.8692467
309.9500393
309.8625416
309.608647
309.199516
308.6536501
307.9945276
307.248285
306.4417534
305.6009676
304.7501316
303.9109458
303.1021879
302.3394518
301.634986
300.9976118
300.4327281
299.9424302
299.5257666
299.1791446
298.8968723
298.6717946
298.4959612
298.3612555
298.2599206
298.1849412
298.1302657
298.0908892
298.062815
298.0429522
298.0289746
298.0191702
298.0123031
298.0074942
298.0041258
298.0017669
298.0001184
297.9989771
297.9982092
297.9977355
297.9975569
297.9976145
297.9975497
297.9992048
308.2449274
305.1091334
304.6594136
305.0318075
305.4710563
305.9351622
306.4435835
306.9932995
307.5731662
308.1740151
308.7768857
309.3605166
309.8980846
310.3609396
310.7202693
310.9505202
311.0321757
310.953981
310.7139096
310.3188671
309.7833497
309.1274939
308.3749698
307.5510547
306.6810741
305.7892498
304.89791
304.0269701
303.1935933
302.4119602
301.6931086
301.0448374
300.4716954
299.9750827
299.5534941
299.2029119
298.9173353
298.6894002
298.5110296
298.3740403
298.2706485
298.1938334
298.1375447
298.0967763
298.067524
298.0466827
298.0319065
298.0214602
298.0140839
298.0088756
298.0051969
298.0025986
298.0007664
297.9994841
297.9986073
297.9980517
297.9978113
297.9977992
297.9977226
297.9993278
309.6110327
306.8670868
306.7074951
307.1015459
307.5282828
307.9848505
308.4746922
308.9958095
309.5336009
310.076269
310.6028834
311.090937
311.514005
311.8455108
312.0605488
312.1388591
312.0669315
311.8393768
311.4591475
310.9367607
310.2888062
309.5361247
308.7019983
307.8105784
306.8856509
305.9497394
305.0234883
304.1252454
303.2707716
302.473023
301.7419853
301.084565
300.504562
300.0027603
299.5771611
299.2233674
298.9351034
298.7048222
298.5243386
298.3854178
298.2802602
298.2018483
298.1441407
298.1021365
298.0718304
298.0501082
298.0346092
298.0235792
298.0157381
298.010164
298.0062002
298.0033814
298.0013795
297.9999667
297.998989
297.9983581
297.9980589
297.9979778
297.9979018
297.9994479
311.0382661
308.7029616
308.7534117
309.1498599
309.5573868
309.9943496
310.4532403
310.9318466
311.4129743
311.8828111
312.3194441
312.7002739
313.0004207
313.1963216
313.2674607
313.1987737
312.9820882
312.6168063
312.1096216
311.4734959
310.7261801
309.8885897
308.9832835
308.0331861
307.0606065
306.0865262
305.1301038
304.2083233
303.3357309
302.5242217
301.782865
301.1177826
300.5321114
300.0260847
299.5972603
299.2409003
298.9504827
298.7182992
298.536073
298.3955294
298.2888625
298.2090656
298.1501124
298.1070127
298.0757647
298.0532503
298.0370976
298.0255374
298.0172725
298.0113637
298.0071382
298.0041166
298.0019583
298.0004248
297.9993538
297.9986541
297.9982984
297.9981505
297.9980867
297.9995636
312.5066132
310.5824267
310.782976
311.1514481
311.5324126
311.9383481
312.354634
312.7783174
313.1904651
313.5759495
313.9128221
314.1793746
314.3530933
314.4139249
314.3457616
314.1382653
313.7877419
313.2973225
312.6763783
311.9394137
311.1046862
310.1927964
309.2254178
308.2242578
307.2102643
306.2030498
305.2204771
304.27835
303.3901653
302.5668964
301.8168103
301.1453357
300.5550173
300.0455931
299.6142199
299.2558505
298.9637416
298.7300418
298.5463963
298.4045008
298.2965512
298.2155573
298.155513
298.1114436
298.0793552
298.0561289
298.0393856
298.0273443
298.0186933
298.0124786
298.0080134
298.0048055
298.0025033
298.0008583
297.9997015
297.9989391
297.9985287
297.9983175
297.9982766
297.999672
313.9718782
312.4662572
312.7393985
313.0825369
313.4291358
313.7941282
314.1579562
314.5166962
314.8505529
315.1438162
315.3753216
315.5249835
315.5731164
315.5032783
315.3034574
314.9673781
314.49494
313.8920647
313.1699565
312.3440079
311.4325561
310.4556719
309.4340999
308.3884029
307.3383101
306.302236
305.2969225
304.3371557
303.4355241
302.6021982
301.8447389
301.167958
300.5738677
300.0617569
299.6284169
299.2685189
298.9751186
298.7402376
298.5554548
298.4124451
298.3034123
298.2213883
298.1603911
298.1154651
298.0826275
298.0587625
298.0414863
298.0290089
298.0200067
298.0135128
298.0088282
298.0054495
298.0030151
298.0012676
298.0000321
297.9992124
297.9987486
297.9984796
297.9984699
297.9997698
315.4336928
314.320006
314.611855
314.9217439
315.2272888
315.5430432
315.846635
316.1331424
316.3826994
316.5796536
316.7042129
316.7383351
316.6652899
316.4720553
316.1502152
315.6968429
315.114628
314.4115174
313.5999186
312.6956672
311.7169243
310.6831393
309.6141576
308.5295051
307.4478406
306.3865423
305.3613873
304.3862849
303.4730361
302.6311084
301.8674376
301.1862824
300.5891727
300.0749874
299.6401823
299.2791705
298.984825
298.7490538
298.5633796
298.419464
298.3095241
298.2266178
298.164791
298.11911
298.0856059
298.0611684
298.043412
298.0305399
298.0212184
298.0144702
298.0095851
298.0060501
298.0034944
298.0016526
298.0003456
297.9994736
297.9989574
297.9986377
297.9986627
297.9998547
316.8751766
316.104008
316.3795329
316.6512377
316.910065
317.1702819
317.4083336
317.6183809
317.7810775
317.881284
317.9009077
317.824092
317.6369415
317.3294921
316.8963608
316.337302
315.6571232
314.8652102
313.9747294
313.0016768
311.9639057
310.880232
309.7696741
308.6508437
307.5414736
306.4580526
305.4155307
304.4270614
303.5037613
302.6544795
301.8855944
301.2008658
300.6013838
300.0856501
299.6498116
299.2880432
298.9930511
298.7566412
298.5702893
298.4256497
298.3149577
298.2313002
298.1687536
298.1224086
298.0883126
298.0633629
298.0451744
298.0319453
298.0223343
298.0153545
298.0102866
298.0066087
298.0039419
298.0020139
298.0006419
297.9997217
297.9991546
297.9987923
297.9988494
297.9999292
318.2802906
317.7865529
318.0263058
318.2559244
318.4645179
318.6656397
318.8357843
318.9683432
319.0448976
319.0510978
318.9706632
318.7898694
318.497396
318.085913
317.5525325
316.8991194
316.1320717
315.2617886
314.3018997
313.2683979
312.178779
311.0512626
309.9041335
308.7552127
307.621441
306.5185483
305.4607767
304.4606277
303.52862
302.6730561
301.8998143
301.212201
300.6109025
300.0940722
299.6575701
299.2953513
298.9999686
298.7631368
298.576292
298.4310869
298.3197783
298.2354853
298.1723167
298.1253893
298.0907685
298.0653612
298.0467843
298.0332331
298.0233597
298.0161694
298.010935
298.0071268
298.0043586
298.0023518
298.0009211
297.9999564
297.9993401
297.9989435
297.9990264
298.0000045
319.6306996
319.3442348
319.5397888
319.7250215
319.8822224
320.0234659
320.1262136
320.183206
320.1771512
320.0946034
319.9210597
319.6447685
319.2566718
318.7516595
318.1288679
317.3918147
316.5480938
315.6088224
314.5879087
313.5012615
312.3660227
311.1998788
310.0204819
308.8449797
307.6896419
306.5695543
305.498353
304.4879759
303.5484182
302.6874956
301.9106352
301.2207289
300.6180904
300.1005493
299.6636991
299.3012903
299.0057351
298.7686663
298.5814872
298.4358534
298.3240466
298.2392197
298.1755156
298.1280786
298.0929935
298.067178
298.0482526
298.0344108
298.0243
298.0169188
298.011533
298.0076061
298.0047453
298.0026669
298.0011833
298.0001769
297.999514
297.9990913
297.9991952
298.0000707
320.910187
320.7606056
320.9112828
321.0519129
321.1590935
321.2425054
321.281014
321.2668138
321.1838228
321.0195353
320.7611232
320.3986076
319.9248783
319.3366739
318.6347677
317.8239766
316.9128073
315.9128996
314.838335
313.7049118
312.5294524
311.3291864
310.1212317
308.9221716
307.7477116
306.6123923
305.5293322
304.5099807
303.5638721
302.698387
301.9185429
301.2268507
300.6232782
300.1053536
299.6684211
299.3060413
299.0104968
298.7733469
298.585968
298.4400226
298.3278197
298.2425477
298.1783843
298.1305022
298.0950068
298.0688274
298.0495894
298.035486
298.0251606
298.0176064
298.0120832
298.0080482
298.005103
298.0029598
298.0014287
298.0003831
297.9996766
297.9992344
297.9993488
298.0001302
322.1049441
322.0254259
322.1373205
322.2358295
322.2965266
322.3262387
322.3054766
322.2260402
322.0730917
321.8350497
321.5006083
321.0613426
320.5117951
319.8502364
319.0787677
318.2032419
317.2328808
316.1797239
315.0579741
313.8833263
312.6723339
311.4418483
310.2085467
308.9885448
307.7970778
306.6482267
305.5546679
304.5274267
303.5756303
302.7062682
301.9239841
301.2309371
300.6267734
300.1087386
299.6719445
299.3097744
299.0143915
298.7772895
298.5898228
298.4436644
298.3311523
298.2455115
298.180955
298.1326848
298.0968268
298.0703233
298.0508052
298.0364662
298.0259469
298.018236
298.0125881
298.0084549
298.005433
298.0032313
298.0016573
298.0005747
297.9998283
297.999371
297.9994896
298.0001879
323.2056552
323.1429863
323.2222592
323.2820466
323.3004756
323.2815263
323.2073848
323.0695136
322.8542416
322.5508285
322.149297
321.6425563
321.0265375
320.3007807
319.4684748
318.5363162
317.5141079
316.4142165
315.2509486
314.039922
312.7974783
311.5401668
310.2843091
309.0456392
307.8390034
306.6780976
305.5752205
304.5410289
303.584289
302.7116374
301.9273754
301.2333362
300.6288654
300.1109444
299.6744668
299.312651
299.0175503
298.7805993
298.5931357
298.4468453
298.3340966
298.2481517
298.1832593
298.1346502
298.0984718
298.0716793
298.05191
298.0373588
298.0266644
298.0188116
298.0130505
298.0088281
298.0057365
298.0034823
298.0018696
298.0007518
297.9999689
297.9995
297.99962
298.0002408
324.1741015
324.1239586
324.1737396
324.1986622
324.1794799
324.1174339
323.9962678