/*--------------------------------*- C++ -*----------------------------------*\
  =========                 |
  \\      /  F ield         | OpenFOAM: The Open Source CFD Toolbox
   \\    /   O peration     | Website:  https://openfoam.org
    \\  /    A nd           | Version:  12
     \\/     M anipulation  |
\*---------------------------------------------------------------------------*/
FoamFile
{
    format      ascii;
    class       volVectorField;
    location    "1450";
    object      U;
}
// * * * * * * * * * * * * * * * * * * * * * * * * * * * * * * * * * * * * * //

dimensions      [0 1 -1 0 0 0 0];

internalField   nonuniform List<vector> 
16200
(
(184.1119755 -7.280501824e-17 -1.499220309)
(219.6147639 3.511816506e-17 -1.42765055)
(239.6100954 -2.437203123e-20 -1.603509923)
(255.3700092 0 -1.777705307)
(269.9952949 0 -1.968886771)
(285.1772005 -2.524155028e-17 -2.20000398)
(301.0255109 2.887323293e-17 -2.522286365)
(313.6347655 6.224641647e-17 -2.903474872)
(317.3453296 -1.210773644e-16 -3.029683594)
(317.3355885 1.083516637e-16 -3.003865511)
(317.0221032 -4.610143853e-17 -3.0574009)
(316.7246916 0 -3.032648874)
(316.3576317 0 -3.091704162)
(315.9534135 -5.35564469e-17 -3.090071167)
(315.4774411 4.469604478e-17 -3.144302016)
(314.9320752 0 -3.171185997)
(314.2955725 0 -3.230013791)
(313.5565538 8.177570514e-19 -3.285389717)
(312.6946886 4.433124796e-17 -3.361991418)
(311.6904644 -3.599670734e-17 -3.448787075)
(310.5200644 0 -3.555191172)
(309.1576209 -2.485920744e-17 -3.679297155)
(307.5744142 2.224417622e-17 -3.824292156)
(305.739776 3.786023093e-17 -3.989289013)
(303.6221541 -3.18046049e-17 -4.172493317)
(301.1912702 -2.720293545e-17 -4.367991306)
(298.4217568 2.287182209e-17 -4.564917104)
(295.2986806 0 -4.745551583)
(291.8252622 0 -4.884563376)
(288.0322862 5.723993569e-17 -4.949887057)
(283.9869003 -3.607474388e-17 -4.907095158)
(279.795715 -1.038583355e-17 -4.728255932)
(275.5966752 0 -4.403139858)
(271.5390719 -4.584684388e-17 -3.946955452)
(267.7585617 5.146889717e-17 -3.399184261)
(264.3571773 -8.87122855e-17 -2.813316213)
(261.394392 7.47939998e-17 -2.242644693)
(258.8887652 0 -1.728516669)
(256.8258765 0 -1.294756765)
(255.1683412 0 -0.9482971264)
(253.8653874 7.748977248e-17 -0.6836662775)
(252.8609098 -1.309647888e-16 -0.4885347955)
(252.0995538 1.102028404e-16 -0.34836822)
(251.5307369 0 -0.2494313296)
(251.1108165 1.567562576e-16 -0.1802370297)
(250.8038071 -1.318954739e-16 -0.1319275005)
(250.5810472 -5.007371498e-20 -0.09802376037)
(250.4203518 1.871070093e-16 -0.07397091346)
(250.3049207 -3.153086277e-16 -0.05664672848)
(250.2222502 2.65575604e-16 -0.04394279816)
(250.1631544 2.238921967e-16 -0.03444439237)
(250.1209398 3.777402922e-16 -0.02720135069)
(250.0907593 -3.18829302e-16 -0.02156924044)
(250.0690759 8.082206421e-16 -0.01711002338)
(250.0533524 -4.557863209e-16 -0.01352397189)
(250.0416321 0 -0.01061074052)
(250.0327981 1.638506743e-16 -0.008161898662)
(250.0256947 0 -0.006114160502)
(250.0197841 -4.753435421e-16 -0.003747794456)
(250.0132023 -3.971170579e-19 -0.003918661612)
(188.4709966 -1.536567144e-16 -4.165612178)
(225.1610571 1.502414601e-16 -4.429884331)
(245.7654513 -5.43574556e-17 -4.928699481)
(261.9903276 -4.881826777e-17 -5.322196005)
(277.1218716 5.047213289e-17 -5.718367742)
(292.8745103 0 -6.166649488)
(308.7434912 0 -6.733340922)
(318.9163727 6.694959148e-17 -7.164203085)
(320.8517863 -6.248712444e-17 -7.247552079)
(320.7033854 0 -7.20950654)
(320.370681 0 -7.275613267)
(320.0514704 0 -7.240846773)
(319.6576576 -6.625188766e-17 -7.304519753)
(319.2222736 5.527519049e-17 -7.296467603)
(318.7074755 -1.416314395e-18 -7.349347981)
(318.1153874 -1.186791432e-18 -7.370296074)
(317.422068 0 -7.422837947)
(316.614381 -2.518425301e-18 -7.469063577)
(315.6696429 0 -7.533656716)
(314.5656678 1.172090349e-18 -7.6048805)
(313.275652 3.993493531e-18 -7.691055441)
(311.7703727 -2.885846796e-17 -7.789366566)
(310.0175895 -1.741792582e-17 -7.901285904)
(307.9831268 3.855533886e-17 -8.023880757)
(305.6324685 0 -8.152209575)
(302.9337788 6.94818289e-18 -8.27607077)
(299.8629127 -1.182375519e-17 -8.378807958)
(296.4108293 0 -8.435525236)
(292.5935575 -3.46404498e-17 -8.412779155)
(288.4631784 1.445677052e-17 -8.270968967)
(284.1151332 -3.774829445e-17 -7.971704869)
(279.6847693 1.07540714e-17 -7.490254634)
(275.3294315 -3.686478801e-17 -6.82839866)
(271.2012336 -1.571948449e-17 -6.020065664)
(267.4220383 0 -5.125301057)
(264.0699754 4.595317673e-17 -4.215195573)
(261.1790703 -3.873579884e-17 -3.355042675)
(258.7473489 0 -2.592314703)
(256.7475665 1.121044426e-16 -1.952167166)
(255.1368928 -9.484479002e-17 -1.43948255)
(253.864462 8.015012498e-17 -1.044618402)
(252.8770074 2.70599606e-16 -0.7499699766)
(252.1229853 -1.138629232e-16 -0.5354228975)
(251.5553777 0 -0.3819402374)
(251.1333177 4.8526566e-16 -0.2733706435)
(250.8227129 -5.443619815e-16 -0.1969913571)
(250.5960536 -3.435483193e-16 -0.1432699778)
(250.4317615 3.854101531e-16 -0.1053237724)
(250.3132947 0 -0.07830773715)
(250.2282054 -2.72791297e-16 -0.05886523988)
(250.1672604 2.295329369e-16 -0.04469172163)
(250.1236805 5.796240605e-16 -0.03420945456)
(250.0925207 3.253721528e-16 -0.0263353175)
(250.0701659 -2.74068618e-16 -0.02032354061)
(250.0539826 9.239805666e-16 -0.01566493708)
(250.0419877 -7.793025685e-16 -0.01200915834)
(250.0329312 -4.93375323e-16 -0.009055680426)
(250.0257252 5.55857343e-16 -0.006691675221)
(250.0197553 1.058118798e-15 -0.004036222255)
(250.0126913 9.803955949e-17 -0.004051358052)
(192.7295232 -1.587041279e-19 -6.937765724)
(230.578817 1.613598657e-16 -7.704760086)
(251.7711054 -2.36112487e-16 -8.514546255)
(268.4717728 1.07549099e-16 -9.154292329)
(284.1336041 1.130731298e-16 -9.787012977)
(300.3304592 -2.557821798e-16 -10.48758384)
(315.7054607 2.83385997e-16 -11.30258527)
(323.0042696 3.679715464e-19 -11.69604084)
(323.7052038 -2.632778365e-16 -11.76032026)
(323.4552572 1.144958112e-16 -11.70521592)
(323.1033382 0 -11.77980308)
(322.7576198 7.8450911e-17 -11.7305799)
(322.3283981 -6.538997933e-17 -11.7942432)
(321.8520797 -2.602674688e-18 -11.7763362)
(321.2875136 4.805317847e-17 -11.82302093)
(320.6362903 3.75452144e-18 -11.83466225)
(319.8722173 -3.269478948e-17 -11.87714794)
(318.9800962 1.727923467e-18 -11.9117178)
(317.9346808 -4.639121196e-17 -11.96220966)
(316.7107705 3.644623646e-17 -12.01669421)
(315.2782197 -2.820936441e-20 -12.08183035)
(313.6040693 -2.093458343e-17 -12.15352707)
(311.6522554 1.749707072e-17 -12.23065977)
(309.3850786 0 -12.30708951)
(306.7656615 -4.234199822e-17 -12.37311524)
(303.762307 6.984452374e-18 -12.41223624)
(300.3554599 3.678939768e-17 -12.39970153)
(296.5476241 2.126367018e-17 -12.30111632)
(292.3756794 1.836744001e-17 -12.07341118)
(287.9218634 -1.481732469e-17 -11.67039909)
(283.315865 1.977109217e-19 -11.05474508)
(278.7210191 -4.472735505e-17 -10.21361475)
(274.3060633 3.810406375e-17 -9.170095337)
(270.2140912 -9.815917912e-17 -7.982862379)
(266.5421431 2.76405386e-17 -6.733309802)
(263.3370839 0 -5.506444584)
(260.6040725 -8.065926834e-17 -4.373728072)
(258.3199049 -6.852785917e-17 -3.38302825)
(256.4451287 -1.594017569e-20 -2.556537354)
(254.932505 4.906026286e-17 -1.894610185)
(253.7321807 -8.25707674e-17 -1.382524439)
(252.7948621 -6.971834697e-17 -0.997545264)
(252.0739913 2.351060436e-16 -0.7146565632)
(251.5273113 2.971409732e-16 -0.5103433958)
(251.1178942 -1.665546888e-16 -0.3645392007)
(250.8145984 2.803126379e-16 -0.2612368658)
(250.5919743 5.890836806e-16 -0.1882581696)
(250.4297969 -3.961159362e-16 -0.1366565574)
(250.3123696 6.657179646e-16 -0.1000234218)
(250.227748 -2.796775637e-16 -0.07384397864)
(250.1669866 -4.698988786e-16 -0.05497107479)
(250.1234633 1.97330209e-16 -0.04122218019)
(250.0923134 -6.630520706e-16 -0.03108451543)
(250.0699648 0 -0.02350799169)
(250.0537929 -1.871152408e-15 -0.0177715303)
(250.0418333 7.85836809e-16 -0.01337448277)
(250.0327928 3.300421277e-16 -0.00992010141)
(250.0256308 -1.386141398e-16 -0.00723871864)
(250.0197764 -9.315523726e-16 -0.004257750949)
(250.0127162 0 -0.004181011583)
(196.6338637 -3.431335967e-16 -9.839755258)
(235.4892647 -1.692459304e-19 -11.21794832)
(257.1980689 0 -12.3309893)
(274.3926134 1.161858925e-19 -13.23811197)
(290.6445396 -1.271736552e-16 -14.13179726)
(307.1338389 1.434540231e-16 -15.10720646)
(321.0243391 -3.013635402e-19 -16.08740058)
(325.6546547 -5.972871958e-19 -16.36102295)
(325.7297231 1.061281567e-18 -16.42355059)
(325.4506681 1.154294649e-16 -16.34941911)
(325.0755905 -9.72319229e-17 -16.43529121)
(324.6988646 1.273545279e-18 -16.37469794)
(324.2297923 -6.787813039e-17 -16.4404747)
(323.7069037 5.846736255e-17 -16.41681792)
(323.0857586 4.760204046e-17 -16.46040211)
(322.3669875 -4.232623313e-17 -16.46681375)
(321.5220245 -4.177522995e-18 -16.50253959)
(320.5332549 0 -16.5285812)
(319.3726346 0 -16.5669972)
(318.0116526 0 -16.60554277)
(316.4165975 -3.806611834e-17 -16.64865975)
(314.55069 1.413184405e-17 -16.69047926)
(312.374296 3.629910088e-17 -16.7264877)
(309.8470925 -2.035241841e-17 -16.7461774)
(306.9317967 2.6091474e-17 -16.73353898)
(303.6003749 1.478795956e-17 -16.66393242)
(299.8434915 -2.538744172e-17 -16.50268385)
(295.6831146 2.135705031e-17 -16.20476557)
(291.1859471 -1.838703515e-17 -15.71850849)
(286.4708331 -3.077829429e-19 -14.99597184)
(281.7011027 2.677325716e-17 -14.00947216)
(277.0586627 4.61465752e-17 -12.76754368)
(272.7086913 0 -11.32083539)
(268.770837 6.743840511e-17 -9.753521021)
(265.3080075 0 -8.164323973)
(262.3325986 0 -6.64589144)
(259.8221036 2.081765182e-16 -5.269734844)
(257.7352898 3.516585846e-17 -4.07950738)
(256.023903 2.391579555e-16 -3.091657446)
(254.6390606 5.056662216e-17 -2.30079891)
(253.5339051 5.542916243e-16 -1.687019089)
(252.6645045 -2.156421718e-16 -1.222987465)
(251.9903186 -1.211420893e-16 -0.8796009315)
(251.4746886 -9.171395944e-16 -0.6297145956)
(251.0853401 -1.756939622e-19 -0.4500916659)
(250.7946986 7.201256149e-16 -0.322029859)
(250.5798903 6.050570731e-16 -0.2311365239)
(250.42246 -1.117648202e-15 -0.1667003536)
(250.30788 -5.117161597e-16 -0.1209470646)
(250.2249533 2.862431174e-16 -0.08833034392)
(250.1651991 -1.200299077e-15 -0.06493915997)
(250.1222793 0 -0.04803414206)
(250.0914988 1.349437175e-15 -0.03570150711)
(250.0693884 1.130397009e-15 -0.02660414658)
(250.0533775 9.464179664e-16 -0.01981836043)
(250.0415417 0 -0.01469928311)
(250.0325749 6.621704271e-16 -0.01075527739)
(250.0254761 6.91550317e-17 -0.007774357193)
(250.019727 -2.078036203e-15 -0.004489125195)
(250.0125788 3.174851213e-15 -0.004313819171)
(200.0996572 -7.267067666e-16 -12.9171454)
(239.8542683 3.728538244e-16 -14.92702039)
(262.0261817 -1.406736942e-16 -16.36177744)
(279.6901228 -6.367510765e-22 -17.5576936)
(296.5374113 0 -18.73685633)
(313.1863473 3.140867971e-19 -20.00781431)
(324.4665089 3.09323445e-21 -21.01333069)
(327.100734 0 -21.15521889)
(326.9320896 -2.199475914e-18 -21.23530907)
(326.627104 -1.180639909e-16 -21.14425219)
(326.2289013 9.916932037e-17 -21.24212817)
(325.8147825 0 -21.17188247)
(325.298594 -7.15151189e-17 -21.23885298)
(324.7206724 -1.946078365e-18 -21.21002192)
(324.0334647 4.553144872e-17 -21.24895035)
(323.2361883 -8.177901155e-17 -21.24892759)
(322.2978356 7.277666775e-17 -21.27534244)
(321.1979735 3.607066251e-18 -21.29003783)
(319.9054842 0 -21.31272299)
(318.3882291 4.114549908e-17 -21.33092231)
(316.6088076 -4.318663918e-17 -21.34625744)
(314.5268394 3.676279189e-17 -21.35018634)
(312.0999594 -3.712639152e-17 -21.33341877)
(309.2870408 0 -21.2792803)
(306.0536553 -1.790752192e-17 -21.16342621)
(302.3806548 0 -20.95105779)
(298.2764216 2.627578552e-17 -20.59614949)
(293.7914258 -2.21060996e-17 -20.04345395)
(289.0298403 0 -19.23675924)
(284.1486719 0 -18.13475988)
(279.3371826 0 -16.72992501)
(274.7806679 0 -15.06037603)
(270.6241379 0 -13.20687535)
(266.9517414 1.053744274e-16 -11.27585351)
(263.7872083 -1.491393943e-16 -9.376785314)
(261.1092855 1.015095324e-16 -7.602922076)
(258.8717573 -1.71624494e-16 -6.020159173)
(257.019993 -1.822061132e-16 -4.664222873)
(255.5008243 -9.201255167e-17 -3.543875695)
(254.2664266 -1.558073849e-16 -2.64736025)
(253.2745929 -5.697945764e-16 -1.949792396)
(252.487714 -2.95549565e-16 -1.419936958)
(251.8718625 4.35667666e-16 -1.02548707)
(251.396424 8.37284336e-16 -0.7365545768)
(251.0341753 -7.038041711e-16 -0.5275140228)
(250.761487 -7.388867074e-16 -0.3775990938)
(250.5584121 -8.683365218e-16 -0.2706790261)
(250.4085762 1.040689204e-15 -0.1946200981)
(250.2988824 1.221652762e-15 -0.1405183931)
(250.2190916 -1.462496269e-16 -0.1019539305)
(250.1613515 1.347161909e-15 -0.07435484302)
(250.1197307 -1.84490795e-15 -0.05449102201)
(250.0897949 -2.914290025e-15 -0.04008954985)
(250.0682426 -1.002676977e-15 -0.02955281162)
(250.0526068 0 -0.02177060659)
(250.0410327 1.595116799e-15 -0.01596423963)
(250.0322354 -4.980877204e-16 -0.01155154031)
(250.0252517 -2.070572391e-16 -0.008285301013)
(250.0196497 1.832990658e-15 -0.004713931405)
(250.0124817 -3.034130192e-15 -0.004448195609)
(203.0101175 1.877632712e-19 -16.14151019)
(243.5752487 0 -18.81030686)
(266.1738653 1.504861936e-19 -20.58272651)
(284.3073463 -1.450408429e-19 -22.09009648)
(301.6990878 -3.146121634e-19 -23.58019705)
(318.1443163 0 -25.13533105)
(326.4980579 7.035507788e-19 -26.03160939)
(327.6711856 -1.301346427e-18 -26.06328017)
(327.3115314 1.129295173e-18 -26.15851881)
(326.9903506 -9.497965112e-19 -26.04763329)
(326.5387533 0 -26.15324385)
(326.0826314 8.473989613e-17 -26.07181365)
(325.514059 -7.076244711e-17 -26.13531208)
(324.8742769 6.12884358e-17 -26.09912086)
(324.1127776 -4.971521036e-17 -26.12998237)
(323.2267082 5.232392407e-18 -26.12152787)
(322.1824769 0 -26.13624633)
(320.9564429 -6.307277512e-17 -26.13735256)
(319.514311 4.977457073e-17 -26.14110958)
(317.8203766 -1.055978573e-17 -26.13402895)
(315.8339841 8.90102083e-18 -26.11367344)
(313.5121121 0 -26.06744802)
(310.8114406 0 -25.9797492)
(307.6930736 0 -25.82600386)
(304.1302401 0 -25.5718)
(300.1196231 -6.362774627e-17 -25.17085509)
(295.6960323 -3.997010105e-19 -24.56595942)
(290.9466967 -2.323258448e-17 -23.69503655)
(286.0166468 2.827716841e-19 -22.50519167)
(281.0953455 1.682227434e-17 -20.97271209)
(276.3832213 -2.928144252e-17 -19.11997646)
(272.0505256 1.246817528e-16 -17.01888272)
(268.2070589 -8.531843656e-17 -14.77773378)
(264.8939533 -7.216941683e-17 -12.51814738)
(262.0956066 1.228125909e-16 -10.35224129)
(259.7615667 -1.04298198e-16 -8.367203998)
(257.8279051 0 -6.618966056)
(256.2320614 -1.879429986e-16 -5.133071676)
(254.9199909 -2.853121696e-16 -3.909818717)
(253.8474591 1.068347524e-16 -2.931196964)
(252.9782678 1.073817782e-19 -2.167956948)
(252.2817461 2.65509434e-16 -1.585790867)
(251.7308187 -5.105946114e-16 -1.150079053)
(251.3010177 4.295209834e-16 -0.8290330672)
(250.9702558 1.442573096e-15 -0.5953719779)
(250.7189604 1.513978852e-16 -0.4268626793)
(250.5302473 -1.269217047e-16 -0.3060964317)
(250.3899684 0 -0.2198569514)
(250.2865972 -1.604470186e-15 -0.1583524999)
(250.2109753 1.491909567e-16 -0.1144566823)
(250.1559805 2.246039221e-15 -0.08304990056)
(250.116169 3.127512518e-15 -0.06048652439)
(250.0874289 4.176334725e-15 -0.04418392487)
(250.066672 0 -0.0323163472)
(250.0515697 0 -0.02360781457)
(250.0403593 -1.605604876e-15 -0.01715930999)
(250.0318002 1.664866391e-16 -0.0123053677)
(250.024967 -2.756069928e-16 -0.008770702371)
(250.0195306 -1.820460782e-15 -0.004935067087)
(250.0123448 -5.849501793e-18 -0.004580439024)
(205.33569 -1.992231876e-19 -19.49356893)
(246.665706 2.169422582e-16 -22.84504082)
(269.686527 -3.389342163e-16 -24.97886914)
(288.3476427 1.653448593e-16 -26.82647385)
(306.2341793 3.526499798e-19 -28.66679327)
(321.5985665 1.923861826e-16 -30.41019273)
(327.2382092 -1.90141282e-16 -31.09766616)
(327.7024247 1.347036752e-18 -31.03433483)
(326.8970112 -1.466111459e-16 -31.13145169)
(326.5470946 1.237144257e-16 -30.99516661)
(326.0545797 -1.61852884e-18 -31.10677581)
(325.5481176 0 -31.01934882)
(324.9179238 -4.903588307e-21 -31.08137329)
(324.2051245 -3.804838554e-18 -31.04156404)
(323.3566286 3.186000806e-18 -31.0656686)
(322.3670329 3.223560432e-17 -31.04976321)
(321.2003008 -3.599552694e-17 -31.05142456)
(319.8295145 0 -31.03534106)
(318.2174086 6.435551274e-18 -31.01339885)
(316.325069 -3.270531483e-17 -30.9705211)
(314.1093226 3.651971029e-17 -30.8994337)
(311.5259243 1.562686152e-17 -30.78239471)
(308.5331639 0 -30.59605532)
(305.0986076 -2.261268321e-17 -30.30624328)
(301.209393 0 -29.86709818)
(296.8861527 -3.942151897e-19 -29.22069869)
(292.198588 2.786589917e-17 -28.3012871)
(287.2757525 4.773050867e-17 -27.04690798)
(282.3004578 -4.090518906e-17 -25.41882547)
(277.481605 0 -23.42195418)
(273.011787 0 -21.11478212)
(269.0286838 9.970686e-19 -18.60179831)
(265.5966118 -7.195429634e-19 -16.01179788)
(262.7118558 3.75143657e-17 -13.47245247)
(260.3236687 -1.589482251e-16 -11.09058676)
(258.3591509 -2.697194314e-17 -8.942050708)
(256.7433222 2.052374246e-16 -7.070114697)
(255.4109155 -2.706320496e-16 -5.489263719)
(254.3104732 2.599475246e-16 -4.19148668)
(253.4032922 2.751357665e-17 -3.153165126)
(252.6600446 -9.237367005e-17 -2.341516617)
(252.057217 3.88442093e-17 -1.720033008)
(251.5745039 6.542803136e-17 -1.252619178)
(251.193417 -9.338905805e-16 -0.9063447456)
(250.8968656 -7.379761489e-16 -0.6529260077)
(250.6692604 0 -0.4691991341)
(250.4967688 1.037962258e-15 -0.3368978289)
(250.3675023 0 -0.2420410448)
(250.2715608 0 -0.174181329)
(250.2009303 0 -0.1256508634)
(250.14928 -4.189611739e-15 -0.09089705437)
(250.1117063 -1.588518728e-15 -0.06593718959)
(250.0844632 -2.82301008e-15 -0.04793188913)
(250.0647099 -2.494820068e-15 -0.03486282464)
(250.0502824 -1.827703295e-15 -0.02531174475)
(250.0395292 0 -0.01827487346)
(250.031272 0 -0.01301278131)
(250.0246251 1.376021616e-16 -0.009226812964)
(250.0193776 1.809387439e-15 -0.00514668102)
(250.0121943 -1.156412773e-17 -0.004710140058)
(207.0436541 2.119667493e-19 -22.98905623)
(249.1272885 0 -27.00181825)
(272.6163094 1.823886345e-19 -29.54417167)
(291.8762509 -1.226301137e-21 -31.76306716)
(310.144167 -2.004686252e-16 -33.99171904)
(323.2946167 2.089917762e-16 -35.71913238)
(326.3799509 0 -36.15765758)
(326.1424386 0 -36.02906638)
(325.7408473 1.500155887e-16 -36.16139259)
(325.3557187 2.097567114e-19 -36.0164799)
(324.8107304 -1.055975975e-16 -36.13059164)
(324.245228 0 -36.03448389)
(323.5440193 2.313784399e-18 -36.08881328)
(322.7472028 6.622593084e-17 -36.04054689)
(321.7995879 -5.547317463e-17 -36.05035322)
(320.6927434 5.486438241e-18 -36.01885658)
(319.3882897 -4.650439102e-18 -35.99734331)
(317.855919 7.846290534e-18 -35.95214431)
(316.0555661 -5.29135982e-17 -35.89009517)
(313.9456038 -3.883659152e-19 -35.79368286)
(311.4815363 8.512560935e-17 -35.64952627)
(308.6202191 -4.787496182e-17 -35.43293091)
(305.3254078 0 -35.11092962)
(301.5767936 -2.925253892e-19 -34.63824714)
(297.3828611 1.967999563e-17 -33.95727516)
(292.7965103 3.373067015e-17 -33.00048898)
(287.9286723 0 -31.69952112)
(282.9498648 0 -30.00278798)
(278.0702422 -2.15019188e-17 -27.89756332)
(273.4996085 1.811691418e-17 -25.42564569)
(269.4031739 0 -22.68239183)
(265.8727322 -1.328743883e-16 -19.79845634)
(262.9229778 1.357205988e-16 -16.91320968)
(260.5087246 -1.918806334e-17 -14.15102172)
(258.5512701 -6.896138966e-19 -11.60690627)
(256.9629886 -2.218205338e-16 -9.341994954)
(255.6642381 -4.445860397e-16 -7.385855877)
(254.591502 4.136528584e-16 -5.742198072)
(253.6985711 -3.327845426e-17 -4.395546119)
(252.9535682 0 -3.317652154)
(252.3344307 -4.73316412e-17 -2.473134977)
(251.8246939 -5.970939732e-16 -1.82412623)
(251.4104971 0 -1.333797484)
(251.0789721 0 -0.9687230275)
(250.8177234 -7.541211381e-16 -0.7001672325)
(250.6149339 0 -0.5044910337)
(250.4596971 -9.265409393e-16 -0.3629336674)
(250.3423246 1.661736741e-15 -0.2610296181)
(250.2545276 -9.261779146e-17 -0.1878852872)
(250.1894462 -2.397523952e-15 -0.1354440369)
(250.1415628 2.193142232e-15 -0.09782898541)
(250.1065389 -3.545946438e-15 -0.07079641489)
(250.0810184 0 -0.05130272099)
(250.0624281 2.373402285e-15 -0.03717302205)
(250.0487863 5.897726722e-15 -0.02687112694)
(250.038565 0 -0.01930485491)
(250.0306615 1.673177392e-16 -0.01367146041)
(250.0242305 -1.374306578e-16 -0.009653416019)
(250.0191907 1.799635307e-15 -0.005349482401)
(250.0120201 5.871414333e-15 -0.004837592887)
(208.1156738 -9.211340557e-16 -26.58233261)
(250.9537132 2.545514774e-16 -31.26912178)
(275.0139907 -2.009134579e-19 -34.26625956)
(294.9083926 4.025759477e-19 -36.89454654)
(313.2031478 4.278815355e-19 -39.51311834)
(323.6973177 -2.21110625e-16 -41.00910321)
(324.7486586 2.05779635e-16 -41.25969744)
(324.4218641 0 -41.08938124)
(323.8875476 1.533468302e-16 -41.24011122)
(323.4587162 2.394000609e-19 -41.07329548)
(322.8572264 -1.062684261e-16 -41.18416761)
(322.225909 0 -41.07715589)
(321.4462693 2.383835421e-18 -41.11716541)
(320.5561388 0 -41.0554147)
(319.4986595 -2.706293161e-20 -41.04369662)
(318.261854 0 -40.98862481)
(316.8050985 -3.821527165e-17 -40.9338306)
(315.0947698 -1.47779857e-19 -40.84679152)
(313.0885646 2.028143591e-17 -40.72820442)
(310.7433545 4.61946064e-17 -40.5566357)
(308.0155129 -4.847072299e-17 -40.3109959)
(304.8664709 -1.669353677e-17 -39.95793329)
(301.2704169 -2.840224918e-17 -39.45371041)
(297.2257519 2.38667959e-17 -38.74172093)
(292.7701426 2.072865613e-17 -37.75421822)
(287.9958766 1.808606419e-17 -36.41894407)
(283.0572423 0 -34.67417843)
(278.1588795 -5.212585805e-17 -32.49080321)
(273.5212802 8.921409566e-17 -29.89220607)
(269.3343837 5.71901911e-17 -26.96018595)
(265.7196748 1.460353476e-16 -23.82187891)
(262.7160466 1.105999198e-16 -20.62391199)
(260.290504 0 -17.50553666)
(258.3636253 0 -14.57982783)
(256.8373832 1.003630719e-16 -11.92560699)
(255.6169447 2.55077845e-16 -9.587852106)
(254.6234474 1.915794102e-16 -7.58276336)
(253.7985142 3.23384806e-16 -5.904371745)
(253.102958 5.462732835e-16 -4.530982737)
(252.5123917 4.599668077e-16 -3.430836206)
(252.0120051 -4.837784644e-17 -2.566874401)
(251.5920182 6.908321494e-16 -1.900619928)
(251.2445246 -1.093042993e-15 -1.395133829)
(250.9617963 -5.734154105e-17 -1.017020786)
(250.7357346 8.171473014e-16 -0.7375377723)
(250.5579994 -8.057372724e-17 -0.532941154)
(250.4204121 6.74182968e-17 -0.38427624)
(250.3153639 -3.60889565e-15 -0.2768299994)
(250.2361123 0 -0.1994439522)
(250.1769232 2.514712208e-15 -0.1438077106)
(250.1330844 -2.094999148e-15 -0.1038185216)
(250.1008264 6.969905722e-15 -0.07504204167)
(250.0771915 -1.808345468e-16 -0.05428003717)
(250.0598839 -2.247241012e-15 -0.03923573664)
(250.0471132 -3.838432099e-15 -0.02827887958)
(250.0374838 -3.367802145e-15 -0.02024515032)
(250.0299764 0 -0.0142797216)
(250.0237869 0 -0.01004974655)
(250.0189726 -3.582160788e-15 -0.005543413961)
(250.0118254 -5.806323242e-15 -0.004962606961)
(208.6524229 6.843860331e-20 -30.26192247)
(252.2998038 -2.771692992e-16 -35.66225043)
(277.0155966 0 -39.16124118)
(297.519578 4.52386399e-19 -42.24866368)
(315.0541049 -9.404912242e-19 -45.1422125)
(322.4919353 0 -46.23053051)
(322.3699915 -2.124734489e-16 -46.37291299)
(321.9703657 1.842024765e-16 -46.16648957)
(321.4169607 -1.24729019e-18 -46.32530952)
(320.9370857 0 -46.14195565)
(320.2716265 3.469675677e-18 -46.24473191)
(319.5651348 9.277511952e-17 -46.12645882)
(318.6970063 -2.152185517e-18 -46.14718384)
(317.7016375 2.672637679e-19 -46.06717504)
(316.520987 -5.836929793e-17 -46.02621785)
(315.139215 0 -45.93774926)
(313.5137948 4.863528197e-18 -45.8365692)
(311.6083167 -8.214912027e-18 -45.69040332)
(309.3793672 -2.807542046e-17 -45.49270824)
(306.7842111 1.162561145e-17 -45.21664112)
(303.7829777 2.02322618e-17 -44.832171)
(300.3458343 5.292052533e-22 -44.29624494)
(296.4630962 0 -43.5541081)
(292.1591196 2.510611021e-17 -42.53888039)
(287.508302 4.365267809e-19 -41.17645663)
(282.6465327 -1.812630136e-17 -39.39785035)
(277.7673366 0 -37.15978585)
(273.0948445 1.071946926e-16 -34.46713801)
(268.8388405 -1.140760347e-16 -31.38502371)
(265.1503127 -5.835921265e-17 -28.03211202)
(262.0966644 -1.326829473e-16 -24.55746736)
(259.6636445 1.523929674e-17 -21.11190998)
(257.7773217 -3.608997474e-17 -17.82499027)
(256.3333896 -3.065432892e-16 -14.79282152)
(255.2231755 -2.934573299e-16 -12.07593575)
(254.3511568 -1.895112934e-16 -9.703382237)
(253.6434313 3.687570969e-16 -7.679307199)
(253.0490479 3.521187493e-16 -5.989632135)
(252.5368098 -1.132841883e-15 -4.607847847)
(252.0899635 -4.397762641e-16 -3.499791805)
(251.7006322 -2.465794436e-17 -2.627564844)
(251.3651873 -4.148543667e-17 -1.952712154)
(251.081091 1.113935652e-15 -1.43868091)
(250.8452151 9.056652741e-16 -1.052514166)
(250.6533102 4.89534552e-17 -0.765804852)
(250.5001739 0 -0.5549941329)
(250.3801152 -2.195615912e-15 -0.4011725097)
(250.2874467 1.834518628e-15 -0.2895722026)
(250.2168741 -9.570290851e-17 -0.2089207969)
(250.1637328 -1.109744229e-20 -0.1507692392)
(250.1240869 1.990535416e-16 -0.1088746202)
(250.0947231 -3.638622969e-15 -0.07867454725)
(250.0730781 0 -0.05686110619)
(250.0571344 2.570230619e-15 -0.04104761677)
(250.045296 -1.247037141e-16 -0.02953214881)
(250.0363033 3.281491153e-15 -0.02109372359)
(250.029225 -2.689031378e-15 -0.01483667822)
(250.0232983 0 -0.01041545284)
(250.0187246 3.567244319e-15 -0.005728418347)
(250.0116085 5.759115223e-15 -0.005084981408)
(208.7102903 -5.214186947e-16 -34.02328646)
(253.2668057 -3.028716793e-16 -40.1851471)
(278.7102857 2.533615289e-16 -44.23797523)
(299.7962237 -4.962396406e-19 -47.84537048)
(315.5414207 -2.578426717e-16 -50.76257133)
(319.7174985 4.865837251e-16 -51.38194698)
(319.3975247 -2.178824568e-16 -51.49777787)
(318.9882464 1.469696591e-18 -51.27318445)
(318.3807933 -1.580858022e-16 -51.44025535)
(317.842786 -3.117487422e-19 -51.23539835)
(317.1064463 1.092840134e-16 -51.31989034)
(316.3155224 -9.792545886e-17 -51.18396088)
(315.3487472 7.9488535e-17 -51.1753996)
(314.2360345 0 -51.06725741)
(312.9187647 -4.955390555e-17 -50.98458894)
(311.3772669 9.514692762e-17 -50.84766317)
(309.5677785 -2.990424938e-17 -50.6812777)
(307.4520624 3.411496561e-17 -50.45210246)
(304.9871205 -2.862805964e-17 -50.14533233)
(302.1329629 -2.474370657e-17 -49.72739849)
(298.8569569 2.061581073e-17 -49.15847101)
(295.1430369 1.784730502e-17 -48.38525668)
(291.0044154 0 -47.34257265)
(286.4991662 0 -45.95606935)
(281.7442263 -4.376755271e-17 -44.15205488)
(276.9179593 -3.819242055e-17 -41.87592893)
(272.241397 0 -39.11527475)
(267.9378344 -1.109302624e-16 -35.91693037)
(264.1851493 -9.542765936e-17 -32.38701137)
(261.0815066 2.027210627e-17 -28.67220372)
(258.6371139 1.210022669e-16 -24.93104663)
(256.7901773 -1.015065942e-16 -21.30740458)
(255.4355587 -1.857586368e-16 -17.91395055)
(254.4538781 3.122986613e-16 -14.82680531)
(253.7335295 2.814974007e-16 -12.08812487)
(253.1833947 2.375955115e-16 -9.712459619)
(252.7373974 -4.258028953e-16 -7.693783711)
(252.3533047 -3.16527862e-16 -6.011654193)
(252.0082203 5.685584347e-16 -4.636129832)
(251.6927783 -2.99261937e-17 -3.531651274)
(251.405511 8.301338857e-16 -2.660183616)
(251.1483128 4.22550667e-17 -1.983796145)
(250.9233906 2.244834674e-20 -1.466698167)
(250.73166 -9.808535118e-16 -1.076672618)
(250.5722628 -4.982070073e-17 -0.785901917)
(250.4427809 -1.461655512e-20 -0.5712289444)
(250.3397542 4.496501791e-15 -0.4139728018)
(250.2592387 0 -0.2994625717)
(250.1972716 -9.710381024e-17 -0.216433655)
(250.1501848 1.617052887e-16 -0.1563933989)
(250.1147752 2.083573547e-15 -0.1130311377)
(250.0883612 0 -0.08171037975)
(250.0687612 0 -0.05905301632)
(250.0542299 -1.524724055e-16 -0.04261104111)
(250.0433639 4.142501028e-15 -0.03063119431)
(250.0350394 1.030077456e-16 -0.02185006527)
(250.0284148 2.610431127e-15 -0.01534197852)
(250.0227682 -1.09676769e-15 -0.01075029596)
(250.0184481 -1.777170716e-15 -0.005904344942)
(250.0113697 -5.739982189e-15 -0.00520435018)
(208.3154868 0 -37.86670709)
(253.9394323 6.444646017e-19 -44.85372973)
(280.1201298 0 -49.52286903)
(301.51557 -2.793834026e-16 -53.65832177)
(314.7888734 7.737403957e-19 -56.31962706)
(316.5887368 5.054621443e-16 -56.54494498)
(315.9246345 -2.233345378e-16 -56.65651357)
(315.4958416 -1.923057835e-16 -56.37969037)
(314.831673 -2.921209515e-18 -56.54847958)
(314.226413 1.395012207e-16 -56.32552742)
(313.4103202 0 -56.38611054)
(312.523986 1.001390604e-16 -56.2289276)
(311.4470365 -8.648089689e-17 -56.18289586)
(310.2041524 6.880537063e-17 -56.03647782)
(308.7368415 -5.039119543e-17 -55.89780565)
(307.0218184 0 -55.69360912)
(305.0147601 -1.024677195e-17 -55.43817911)
(302.676681 -3.50928379e-17 -55.09610826)
(299.9668206 -3.200712439e-19 -54.64369108)
(296.8509654 6.279282882e-17 -54.03950785)
(293.3083082 -2.126083092e-17 -53.23332142)
(289.3429692 -1.810007004e-17 -52.16168847)
(284.9988266 1.571854802e-17 -50.75112017)
(280.3745139 -1.322342217e-17 -48.92547543)
(275.630862 6.92125369e-17 -46.62170026)
(270.9800422 -2.01242695e-17 -43.81232563)
(266.651877 -8.447978011e-17 -40.52573229)
(262.8464153 8.547013488e-17 -36.85257971)
(259.6924366 7.26790473e-17 -32.93273016)
(257.2287756 -1.050909299e-17 -28.92828719)
(255.4121553 -1.052696418e-16 -24.99471041)
(254.1428383 -1.200094209e-16 -21.26006992)
(253.295266 1.890784763e-16 -17.81593165)
(252.7439746 1.712608674e-16 -14.71780104)
(252.3805923 0 -11.9908714)
(252.1219773 0 -9.637341507)
(251.9115567 -4.097131347e-16 -7.64311184)
(251.7163049 3.44789038e-16 -5.983081794)
(251.5214507 5.981176724e-16 -4.625124468)
(251.3245102 -5.027814083e-16 -3.533133815)
(251.1297841 -1.612137559e-15 -2.669500754)
(250.9440273 6.662280344e-16 -1.997194732)
(250.7735716 1.189799353e-15 -1.481455774)
(250.622836 -3.020604272e-17 -1.091017149)
(250.4939098 0 -0.79882849)
(250.3868133 4.233801706e-17 -0.5822898535)
(250.3000598 -2.299176e-15 -0.4230843603)
(250.2312658 5.904693097e-17 -0.3067533104)
(250.1776756 -4.919970811e-17 -0.222135237)
(250.1365352 0 -0.160770264)
(250.1053222 0 -0.1163395094)
(250.0818546 1.127116488e-16 -0.0841776896)
(250.0643136 2.981921248e-15 -0.06087028868)
(250.0512154 -2.3049195e-16 -0.04393285127)