/*--------------------------------*- C++ -*----------------------------------*\
  =========                 |
  \\      /  F ield         | OpenFOAM: The Open Source CFD Toolbox
   \\    /   O peration     | Website:  https://openfoam.org
    \\  /    A nd           | Version:  12
     \\/     M anipulation  |
\*---------------------------------------------------------------------------*/
FoamFile
{
    format      ascii;
    class       volScalarField;
    location    "0.001";
    object      Ma;
}
// * * * * * * * * * * * * * * * * * * * * * * * * * * * * * * * * * * * * * //

dimensions      [];

internalField   nonuniform List<scalar> 
16000
(
0.63059802
0.66241499
0.6571485
0.65755401
0.65486064
0.65454411
0.65271975
0.65180942
0.65038898
0.64920673
0.64785982
0.6465514
0.64517494
0.64377861
0.64233283
0.64085119
0.6393243
0.6377499
0.63612981
0.63446279
0.63274407
0.63097696
0.62915783
0.62728704
0.62536476
0.62339204
0.62136841
0.61929566
0.61717465
0.61500828
0.61279737
0.61054526
0.60825455
0.6059286
0.60356983
0.60117848
0.5987489
0.59626461
0.59369282
0.59098335
0.58808377
0.58498286
0.58177957
0.57875932
0.57639963
0.57513382
0.57498301
0.57549895
0.57613843
0.57661464
0.5768786
0.57699695
0.57704139
0.57705565
0.57705962
0.57706059
0.57706079
0.57706083
0.57706084
0.57706084
0.57706084
0.57706084
0.57706084
0.57706084
0.57706084
0.57706084
0.57706084
0.57706084
0.57706084
0.57706084
0.57706084
0.57706084
0.57706084
0.57706084
0.57706084
0.57706084
0.57706084
0.57706084
0.57706084
0.57706084
0.62900676
0.66609634
0.65801811
0.65964812
0.65558015
0.65582203
0.65332432
0.65251673
0.65080258
0.64954382
0.64801636
0.64658195
0.64506144
0.64353432
0.64195359
0.64034102
0.63868374
0.63697757
0.63522738
0.63343014
0.63157911
0.62968004
0.62772703
0.62572221
0.62366495
0.62155637
0.61939546
0.61718517
0.61492452
0.6126185
0.61026637
0.60787139
0.60543712
0.6029678
0.60046864
0.59794592
0.59540531
0.59284877
0.59027013
0.58765319
0.58497408
0.58222807
0.57947902
0.57692657
0.57496419
0.57402983
0.57419428
0.57501354
0.57589161
0.57650832
0.57684008
0.57698511
0.57703828
0.57705497
0.5770595
0.57706057
0.57706079
0.57706083
0.57706084
0.57706084
0.57706084
0.57706084
0.57706084
0.57706084
0.57706084
0.57706084
0.57706084
0.57706084
0.57706084
0.57706084
0.57706084
0.57706084
0.57706084
0.57706084
0.57706084
0.57706084
0.57706084
0.57706084
0.57706084
0.57706084
0.62709378
0.67040443
0.65831982
0.66188642
0.65611669
0.65701848
0.6537245
0.6530479
0.65097523
0.64965328
0.64792731
0.64636058
0.64468877
0.6430226
0.6413012
0.6395506
0.63775693
0.63591314
0.63402801
0.63209467
0.63010719
0.62807206
0.62598216
0.62384122
0.62165003
0.61940688
0.61711317
0.61477318
0.61238402
0.60995355
0.60748065
0.60496799
0.60242015
0.59983994
0.59723083
0.59459684
0.5919422
0.58926921
0.58657384
0.583849
0.58108499
0.578305
0.57562519
0.57330798
0.5717902
0.57150334
0.57243704
0.57397352
0.57537451
0.57629194
0.57676345
0.57696202
0.57703234
0.57705367
0.57705926
0.57706053
0.57706079
0.57706083
0.57706084
0.57706084
0.57706084
0.57706084
0.57706084
0.57706084
0.57706084
0.57706084
0.57706084
0.57706084
0.57706084
0.57706084
0.57706084
0.57706084
0.57706084
0.57706084
0.57706084
0.57706084
0.57706084
0.57706084
0.57706084
0.57706084
0.62474629
0.67502071
0.65769384
0.66408603
0.65613523
0.65799623
0.65377921
0.65344556
0.65086354
0.64948513
0.64755522
0.64584757
0.64402153
0.64220565
0.64033769
0.63843928
0.63649985
0.63450913
0.6324788
0.63039742
0.6282632
0.62608091
0.62384324
0.62155521
0.61922059
0.61683268
0.61439772
0.61191992
0.60939636
0.60683576
0.60423866
0.60160854
0.59895156
0.59627072
0.59356981
0.590852
0.58812082
0.58537664
0.582612
0.57981676
0.57698089
0.57414399
0.5714741
0.56933088
0.5682611
0.56870977
0.57053737
0.5728929
0.57486473
0.57609211
0.57669829
0.57694435
0.5770284
0.57705297
0.57705917
0.57706053
0.57706079
0.57706083
0.57706084
0.57706084
0.57706084
0.57706084
0.57706084
0.57706084
0.57706084
0.57706084
0.57706084
0.57706084
0.57706084
0.57706084
0.57706084
0.57706084
0.57706084
0.57706084
0.57706084
0.57706084
0.57706084
0.57706084
0.57706084
0.57706084
0.6220373
0.67896546
0.65630677
0.66593427
0.65573186
0.65866999
0.65349279
0.65348599
0.65044586
0.64899152
0.64687035
0.6450085
0.64302784
0.6410511
0.63902959
0.63697277
0.63487648
0.63272823
0.6305399
0.62829769
0.62600506
0.62366349
0.62126663
0.61882108
0.61633216
0.61379093
0.61120777
0.60858497
0.60592358
0.6032294
0.6005057
0.59775854
0.59499333
0.59221334
0.58942294
0.58662469
0.58382137
0.58101045
0.57818269
0.57531924
0.57240436
0.5694923
0.5668069
0.56485288
0.5643248
0.56568053
0.5685769
0.57185198
0.57441549
0.57593558
0.57665524
0.57693545
0.57702732
0.57705306
0.57705927
0.57706056
0.57706079
0.57706083
0.57706084
0.57706084
0.57706084
0.57706084
0.57706084
0.57706084
0.57706084
0.57706084
0.57706084
0.57706084
0.57706084
0.57706084
0.57706084
0.57706084
0.57706084
0.57706084
0.57706084
0.57706084
0.57706084
0.57706084
0.57706084
0.57706084
0.61906795
0.68198383
0.65420748
0.66700008
0.65496352
0.65901882
0.65290647
0.65286691
0.64968836
0.64811104
0.64582806
0.64379753
0.64166121
0.63951433
0.63732931
0.6351025
0.63283545
0.63051597
0.6281535
0.62573602
0.62326978
0.62075374
0.61818433
0.61556923
0.61291213
0.61020879
0.60746972
0.60469544
0.6018933
0.59906543
0.59621828
0.59336068
0.59049622
0.58762861
0.5847628
0.58190155
0.57904589
0.5761901
0.57332332
0.57041396
0.56743066
0.56444116
0.56174453
0.5600411
0.56019564
0.56265221
0.56676642
0.5709967
0.57410506
0.57585531
0.57664502
0.57693803
0.57702956
0.57705395
0.57705952
0.57706062
0.57706081
0.57706083
0.57706084
0.57706084
0.57706084
0.57706084
0.57706084
0.57706084
0.57706084
0.57706084
0.57706084
0.57706084
0.57706084
0.57706084
0.57706084
0.57706084
0.57706084
0.57706084
0.57706084
0.57706084
0.57706084
0.57706084
0.57706084
0.57706084
0.61586453
0.6843699
0.65151502
0.66756847
0.6537715
0.65825413
0.65194465
0.65188696
0.64854267
0.64678591
0.6443744
0.64216257
0.63986503
0.63753954
0.63517697
0.63276641
0.63031173
0.62780409
0.62524954
0.62264086
0.61998347
0.61727685
0.61452163
0.61172451
0.60888723
0.60601456
0.60311371
0.60018584
0.59724211
0.59428446
0.5913221
0.58836346
0.58541137
0.58247048
0.57954578
0.57664075
0.57375449
0.57087923
0.56799531
0.56505683
0.56201521
0.55895917
0.55631396
0.55499636
0.5560667
0.55987111
0.56532404
0.57046459
0.57399659
0.5758722
0.57667187
0.57695208
0.57703472
0.57705544
0.57705988
0.57706069
0.57706082
0.57706083
0.57706084
0.57706084
0.57706084
0.57706084
0.57706084
0.57706084
0.57706084
0.57706084
0.57706084
0.57706084
0.57706084
0.57706084
0.57706084
0.57706084
0.57706084
0.57706084
0.57706084
0.57706084
0.57706084
0.57706084
0.57706084
0.57706084
0.61247049
0.68607391
0.64840861
0.66772784
0.65217624
0.65714624
0.65060046
0.65035387
0.6469795
0.64498947
0.64246365
0.64005621
0.63758157
0.63506352
0.6325033
0.62988985
0.62722666
0.62451017
0.62174384
0.61892517
0.61605795
0.61314512
0.61019076
0.60719967
0.60417504
0.601128
0.59806346
0.59498555
0.59190515
0.5888281
0.58576482
0.58272075
0.57969946
0.57670697
0.57374781
0.57082434
0.5679358
0.5650735
0.5621976
0.55924122
0.55614522
0.5530513
0.5505547
0.54987369
0.55220416
0.55763496
0.564472
0.57036585
0.57412367
0.57598853
0.57673127
0.57697469
0.57704162
0.57705719
0.57706025
0.57706076
0.57706083
0.57706084
0.57706084
0.57706084
0.57706084
0.57706084
0.57706084
0.57706084
0.57706084
0.57706084
0.57706084
0.57706084
0.57706084
0.57706084
0.57706084
0.57706084
0.57706084
0.57706084
0.57706084
0.57706084
0.57706084
0.57706084
0.57706084
0.57706084
0.60861927
0.68704039
0.64514084
0.66641524
0.6502433
0.65534967
0.64883352
0.64829962
0.64494164
0.64268274
0.64002972
0.63741109
0.63473516
0.63200375
0.62922169
0.62638151
0.62348632
0.6205379
0.61753876
0.61448937
0.6113945
0.60826108
0.60509463
0.60190053
0.59868621
0.59546336
0.59223866
0.58901964
0.58581555
0.58263653
0.5794924
0.57638694
0.5733242
0.57031125
0.5673515
0.56444421
0.56159007
0.55877447
0.55593019
0.55296017
0.54981107
0.54672775
0.54458887
0.54491431
0.5489583
0.556266
0.56439104
0.57074894
0.57447552
0.57618373
0.57681109
0.57700083
0.57704867
0.57705878
0.57706055
0.57706081
0.57706083
0.57706084
0.57706084
0.57706084
0.57706084
0.57706084
0.57706084
0.57706084
0.57706084
0.57706084
0.57706084
0.57706084
0.57706084
0.57706084
0.57706084
0.57706084
0.57706084
0.57706084
0.57706084
0.57706084
0.57706084
0.57706084
0.57706084
0.57706084
0.6037657
0.68716577
0.64210493
0.66423095
0.64797597
0.65299374
0.64657042
0.64568308
0.64233827
0.63979603
0.63698196
0.63413522
0.63122934
0.62825821
0.62522757
0.62213391
0.61898169
0.61577718
0.6125234
0.60922319
0.6058852
0.6025187
0.59913038
0.59572988
0.59232785
0.58893446
0.58556095
0.58221734
0.57891214
0.57565704
0.57246093
0.56932845
0.56626329
0.56327129
0.56035459
0.55751119
0.55473853
0.55200156
0.54920171
0.54620716
0.54300923
0.5400534
0.5386025
0.54049907
0.54676407
0.55606099
0.56516714
0.5715769
0.57499379
0.57641858
0.57689477
0.57702511
0.57705452
0.57705995
0.57706075
0.57706083
0.57706084
0.57706084
0.57706084
0.57706084
0.57706084
0.57706084
0.57706084
0.57706084
0.57706084
0.57706084
0.57706084
0.57706084
0.57706084
0.57706084
0.57706084
0.57706084
0.57706084
0.57706084
0.57706084
0.57706084
0.57706084
0.57706084
0.57706084
0.57706084
0.59824037
0.68611968
0.6391378
0.66172703
0.64533479
0.65003057
0.64374692
0.64245243
0.63908087
0.63624591
0.63322236
0.63012261
0.62695296
0.62370988
0.62040012
0.61702367
0.61358763
0.61010216
0.60657238
0.6030045
0.59941154
0.59580419
0.59219197
0.58859004
0.58500981
0.58146232
0.5779634
0.57452378
0.57115244
0.5678598
0.56465316
0.56153945
0.55852162
0.55560147
0.55278123
0.55005733
0.54741721
0.54478853
0.5420254
0.53897756
0.53577613
0.53319337
0.5329751
0.53716647
0.54608621
0.55720382
0.56674119
0.57272195
0.57558284
0.57664879
0.57696706
0.57704367
0.57705847
0.57706065
0.57706085
0.57706084
0.57706084
0.57706084
0.57706084
0.57706084
0.57706084
0.57706084
0.57706084
0.57706084
0.57706084
0.57706084
0.57706084
0.57706084
0.57706084
0.57706084
0.57706084
0.57706084
0.57706084
0.57706084
0.57706084
0.57706084
0.57706084
0.57706084
0.57706084
0.57706084
0.59284097
0.683989
0.63611752
0.65858861
0.64229209
0.64642907
0.64030727
0.63854174
0.63507961
0.63193224
0.62864125
0.6252507
0.62177669
0.61822321
0.61459886
0.61090737
0.60715906
0.60336803
0.59954338
0.59569604
0.59184278
0.58799641
0.58417073
0.58038484
0.57665088
0.57298332
0.56940037
0.56591128
0.56252646
0.55925397
0.5560959
0.55306131
0.5501522
0.54736499
0.54470474
0.54215788
0.53969446
0.53717919
0.53441084
0.5312997
0.52822414
0.52646688
0.52832211
0.53557166
0.54729642
0.55966429
0.56888966
0.5739895
0.57613521
0.57683777
0.57701888
0.57705537
0.57706061
0.57706095
0.57706087
0.57706084
0.57706084
0.57706084
0.57706084
0.57706084
0.57706084
0.57706084
0.57706084
0.57706084
0.57706084
0.57706084
0.57706084
0.57706084
0.57706084
0.57706084
0.57706084
0.57706084
0.57706084
0.57706084
0.57706084
0.57706084
0.57706084
0.57706084
0.57706084
0.57706084
0.58794027
0.68150474
0.63294644
0.65483908
0.63878096
0.64213096
0.63616582
0.63386178
0.63022614
0.62673166
0.62310892
0.61937616
0.61554903
0.61163975
0.60766005
0.60361839
0.59952893
0.59541034
0.59127747
0.58714696
0.5830395
0.57897124
0.57495945
0.57102557
0.56718501
0.56345498
0.55985188
0.5563821
0.55305776
0.54988461
0.54685542
0.54397775
0.5412532
0.5386732
0.53624473
0.5339334
0.53166544
0.52921972
0.52638693
0.52324728
0.52062296
0.5205009
0.52546545
0.53634428
0.55049638
0.56313323
0.57126348
0.57516302
0.57657374
0.57696697
0.57704968
0.57706107
0.57706136
0.57706098
0.57706086
0.57706084
0.57706084
0.57706084
0.57706084
0.57706084
0.57706084
0.57706084
0.57706084
0.57706084
0.57706084
0.57706084
0.57706084
0.57706084
0.57706084
0.57706084
0.57706084
0.57706084
0.57706084
0.57706084
0.57706084
0.57706084
0.57706084
0.57706084
0.57706084
0.57706084
0.58363576
0.67846662
0.62945055
0.65038891
0.6346827
0.63704844
0.63119484
0.6282962
0.62438514
0.62049204
0.61646649
0.61232719
0.60808883
0.60377149
0.59939197
0.59496489
0.59050955
0.58604982
0.58160715
0.57720474
0.57286846
0.56861791
0.56447115
0.56045148
0.55657945
0.55287149
0.54933755
0.54597991
0.54281024
0.53983272
0.53702936
0.53439999
0.53195078
0.52966807
0.52754184
0.52550223
0.52340203
0.52094305
0.51799834
0.51502949
0.51354294
0.51625378
0.52529769
0.53983653
0.55536427
0.567054
0.57347553
0.57607519
0.57686497
0.57704011
0.57706329
0.57706269
0.57706132
0.57706091
0.57706084
0.57706084
0.57706084
0.57706084
0.57706084
0.57706084
0.57706084
0.57706084
0.57706084
0.57706084
0.57706084
0.57706084
0.57706084
0.57706084
0.57706084
0.57706084
0.57706084
0.57706084
0.57706084
0.57706084
0.57706084
0.57706084
0.57706084
0.57706084
0.57706084
0.57706084
0.57980531
0.6745566
0.62547855
0.64514442
0.62984181
0.63107355
0.62523472
0.62169152
0.61738414
0.61301855
0.60850892
0.60388729
0.59917206
0.59439167
0.58957037
0.58473064
0.57989837
0.57510283
0.57037179
0.56573575
0.56122673
0.5568664
0.55267074
0.54866328
0.54486733
0.54129546
0.53794868
0.53482129
0.53191853
0.52924349
0.52677045
0.5244872
0.52241002
0.52051817
0.5187453
0.51695911
0.51492261
0.51235734
0.50939631
0.50715799
0.50800344
0.5148127
0.52848945
0.5458464
0.56113754
0.5707832
0.57519964
0.5766734
0.57702409
0.57706991
0.5770663
0.57706225
0.57706106
0.57706085
0.57706083
0.57706084
0.57706084
0.57706084
0.57706084
0.57706084
0.57706084
0.57706084
0.57706084
0.57706084
0.57706084
0.57706084
0.57706084
0.57706084
0.57706084
0.57706084
0.57706084
0.57706084
0.57706084
0.57706084
0.57706084
0.57706084
0.57706084
0.57706084
0.57706084
0.57706084
0.57625905
0.6695835
0.62103725
0.63899206
0.62407564
0.62404666
0.61807238
0.61382001
0.60897985
0.60404506
0.59896141
0.59377759
0.5885214
0.58323114
0.57794085
0.57268267
0.56749037
0.56239832
0.55743963
0.55265137
0.5480706
0.54371893
0.53960746
0.53575432
0.53217895
0.52888798
0.52587341
0.52311625
0.52060684
0.51834594
0.5163085
0.51446965
0.51284949
0.51141356
0.51000102
0.50838104
0.50625979
0.50356973
0.50098758
0.50051055
0.50516485
0.51716528
0.53510921
0.55349593
0.56682185
0.57376293
0.57632648
0.57699466
0.57708524
0.57707492
0.57706457
0.5770614
0.57706086
0.57706082
0.57706083
0.57706084
0.57706084
0.57706084
0.57706084
0.57706084
0.57706084
0.57706084
0.57706084
0.57706084
0.57706084
0.57706084
0.57706084
0.57706084
0.57706084
0.57706084
0.57706084
0.57706084
0.57706084
0.57706084
0.57706084
0.57706084
0.57706084
0.57706084
0.57706084
0.57706084
0.57276301
0.66331994
0.61576998
0.63171875
0.61712128
0.61569264
0.60939362
0.60434409
0.59883003
0.59321826
0.58747216
0.58165584
0.57581117
0.56998863
0.5642345
0.55859252
0.55310495
0.5478104
0.54274471
0.53794745
0.53345595
0.52928823
0.5254465
0.52193537
0.51876107
0.5159206
0.51339692
0.51115636
0.50916914
0.50743067
0.505926
0.50462038
0.50351378
0.50253594
0.50141199
0.49980991
0.49750938
0.49490807
0.49357406
0.49636756
0.50632112
0.52375475
0.54432426
0.56141045
0.57153195
0.5757228
0.57693352
0.57711474
0.57709333
0.57706984
0.57706219
0.57706085
0.57706079
0.57706082
0.57706083
0.57706084
0.57706084
0.57706084
0.57706084
0.57706084
0.57706084
0.57706084
0.57706084
0.57706084
0.57706084
0.57706084
0.57706084
0.57706084
0.57706084
0.57706084
0.57706084
0.57706084
0.57706084
0.57706084
0.57706084
0.57706084
0.57706084
0.57706084
0.57706084
0.57706084
0.56901954
0.65534675
0.60939209
0.62295439
0.60860038
0.60561431
0.59877637
0.59282366
0.5865005
0.58010674
0.57362386
0.56713035
0.56068623
0.55435713
0.54820375
0.54228186
0.53664047
0.53131878
0.52634916
0.52176462
0.51759321
0.51384247
0.51050053
0.50755164
0.5049804
0.50276729
0.5008848
0.49928965
0.49793677
0.49681438
0.49592042
0.49521119
0.49462742
0.49401814
0.49300597
0.49125275
0.4888807
0.48699205
0.48831578
0.49616965
0.51228701
0.53396182
0.55447372
0.56825796
0.57471524
0.57679909
0.57716179
0.5771289
0.57708099
0.57706396
0.5770608
0.57706069
0.5770608
0.57706083
0.57706084
0.57706084
0.57706084
0.57706084
0.57706084
0.57706084
0.57706084
0.57706084
0.57706084
0.57706084
0.57706084
0.57706084
0.57706084
0.57706084
0.57706084
0.57706084
0.57706084
0.57706084
0.57706084
0.57706084
0.57706084
0.57706084
0.57706084
0.57706084
0.57706084
0.57706084
0.56466532
0.6456197
0.60148769
0.61221929
0.59802104
0.59332404
0.58570406
0.57872282
0.57146516
0.5642013
0.55694119
0.54977984
0.54279831
0.53607846
0.52969343
0.52370563
0.51816274
0.51309495
0.5085198
0.50445016
0.5008915
0.49783101
0.49523768
0.4930732
0.49129726
0.48986841
0.48874652
0.48788737
0.48724577
0.48680595
0.48656948
0.48646925
0.48634115
0.48590846
0.48476564
0.48278218
0.48079957
0.48090836
0.48676326
0.50104079
0.52277982
0.54603012
0.56369775
0.57311011
0.5765093
0.57722031
0.57719137
0.57710321
0.57706797
0.5770607
0.57706043
0.57706073
0.57706082
0.57706084
0.57706084
0.57706084
0.57706084
0.57706084
0.57706084
0.57706084
0.57706084
0.57706084
0.57706084
0.57706084
0.57706084
0.57706084
0.57706084
0.57706084
0.57706084
0.57706084
0.57706084
0.57706084
0.57706084
0.57706084
0.57706084
0.57706084
0.57706084
0.57706084
0.57706084
0.57706084
0.5593284
0.63476063
0.5915664
0.5989706
0.5847534
0.57819894
0.56952402
0.56137029
0.55308022
0.54491384
0.53692189
0.52921772
0.52189974
0.51505785
0.50876479
0.50307317
0.49801193
0.49358609
0.48978337
0.48658265
0.48395488
0.48185863
0.48024105
0.479044
0.47820661
0.47766785
0.47737654
0.47729578
0.47739726
0.47766783
0.47808842
0.47852977
0.47868826
0.47816901
0.47671448
0.47475577
0.47409015
0.47810476
0.49021322
0.51108892
0.53615735
0.55762799
0.57062755
0.57592659
0.57726182
0.57729083
0.57714512
0.57707696
0.57706073
0.57705982
0.57706055
0.5770608
0.57706084
0.57706084
0.57706084
0.57706084
0.57706084
0.57706084
0.57706084
0.57706084
0.57706084
0.57706084
0.57706084
0.57706084
0.57706084
0.57706084
0.57706084
0.57706084
0.57706084
0.57706084
0.57706084
0.57706084
0.57706084
0.57706084
0.57706084
0.57706084
0.57706084
0.57706084
0.57706084
0.57706084
0.55268476
0.62080498
0.57892424
0.58246958
0.56791496
0.5593473
0.54936254
0.53993056
0.53061225
0.52166209
0.5131712
0.50526083
0.49802652
0.49154105
0.48584875
0.48096488
0.47687606
0.47354424
0.47091514
0.46892643
0.46751145
0.4665998
0.46611912
0.46599743
0.4661628
0.46654612
0.46709525
0.46778743
0.46862026
0.46958243
0.47059338
0.47140559
0.47158621
0.47075116
0.4690594
0.46781296
0.47019824
0.47993636
0.49913606
0.5249551
0.54982874
0.56689257
0.57483266
0.57721278
0.57743723
0.57721969
0.57709662
0.57706174
0.57705864
0.57706012
0.57706073
0.57706084
0.57706084
0.57706084
0.57706084
0.57706084
0.57706084
0.57706084
0.57706084
0.57706084
0.57706084
0.57706084
0.57706084
0.57706084
0.57706084
0.57706084
0.57706084
0.57706084
0.57706084
0.57706084
0.57706084
0.57706084
0.57706084
0.57706084
0.57706084
0.57706084
0.57706084
0.57706084
0.57706084
0.57706084
0.54421813
0.60288669
0.56239682
0.56154199
0.54625297
0.53555388
0.52415721
0.51353376
0.50344613
0.49412834
0.48568084
0.47819664
0.47172606
0.46628309
0.46184659
0.45836557
0.45576526
0.4539551
0.45283743
0.45231428
0.45229135
0.45267982
0.45339663
0.45436385
0.45550917
0.45677155
0.4581139
0.45953437
0.46105174
0.4626329
0.46408207
0.46499762
0.4649014
0.46364584
0.46212245
0.46303635
0.47032802
0.48713169
0.51254183
0.54006215
0.56142994
0.57290751
0.57693913
0.57760081
0.57734322
0.57713728
0.57706656
0.57705671
0.57705915
0.57706054
0.57706084
0.57706085
0.57706084
0.57706084
0.57706084
0.57706084
0.57706084
0.57706084
0.57706084
0.57706084
0.57706084
0.57706084
0.57706084
0.57706084
0.57706084
0.57706084
0.57706084
0.57706084
0.57706084
0.57706084
0.57706084
0.57706084
0.57706084
0.57706084
0.57706084
0.57706084
0.57706084
0.57706084
0.57706084
0.57706084
0.53292753
0.57921573
0.5403365
0.53459578
0.51825947
0.50548282
0.49295104
0.48165004
0.47149334
0.46264797
0.45515572
0.44901971
0.44419018
0.4405799
0.43807436
0.43654307
0.43584914
0.43585773
0.43644223
0.4374877
0.43889214
0.44056568
0.44242732
0.4444034
0.44643255
0.44847566
0.4505252
0.45260548
0.45473144
0.45679467
0.45844879
0.45916098
0.4585511
0.45719725
0.45672967
0.46157245
0.47532057
0.49906738
0.52809032
0.55366803
0.56961382
0.57615287
0.57771935
0.57753278
0.57721716
0.57708233
0.57705483
0.57705716
0.57706
0.57706081
0.57706087
0.57706085
0.57706084
0.57706084
0.57706084
0.57706084
0.57706084
0.57706084
0.57706084
0.57706084
0.57706084
0.57706084
0.57706084
0.57706084
0.57706084
0.57706084
0.57706084
0.57706084
0.57706084
0.57706084
0.57706084
0.57706084
0.57706084
0.57706084
0.57706084
0.57706084
0.57706084
0.57706084
0.57706084
0.57706084
0.51707935
0.547601
0.51061272
0.4998307
0.48268771
0.46822154
0.45545742
0.44462325
0.43564059
0.42852815
0.42318238
0.41945333
0.41715152
0.41607245
0.41601175
0.41677676
0.41819343
0.42011004
0.42239794
0.42495003
0.42767746
0.43050446
0.43336344
0.43619654
0.43896486
0.44166054
0.44431488
0.446973
0.44959572
0.45193623
0.45350093
0.4537449
0.45267532
0.45148169
0.45394727
0.4640867
0.48483032
0.51376462
0.54294965
0.56406673
0.57437848
0.57759969
0.57778162
0.57736586
0.57712499
0.57705659
0.57705363
0.57705866
0.57706062
0.57706091
0.57706086
0.57706084
0.57706084
0.57706084
0.57706084
0.57706084
0.57706084
0.57706084
0.57706084
0.57706084
0.57706084
0.57706084
0.57706084
0.57706084
0.57706084
0.57706084
0.57706084
0.57706084
0.57706084
0.57706084
0.57706084
0.57706084
0.57706084
0.57706084
0.57706084
0.57706084
0.57706084
0.57706084
0.57706084
0.57706084
0.49423266
0.50557329
0.47146847
0.45568352
0.43754914
0.42402371
0.41269963
0.40410121
0.39796171
0.39405233
0.39205553
0.39164494
0.39250335
0.39434438
0.39692043
0.40002495
0.40349028
0.40718377
0.41100277
0.41486855
0.41871838
0.42249771
0.42615804
0.42966447
0.43300877
0.43622302
0.4393773
0.44250768
0.4454713
0.44785464
0.44905919
0.44865937
0.44745303
0.44758888
0.45399316
0.47041584
0.49722987
0.52857117
0.55503931
0.57077765
0.57681213
0.57803179
0.57761909
0.57722565
0.57707424
0.57704901
0.5770556
0.57705985
0.5770609
0.57706091
0.57706085
0.57706084
0.57706084
0.57706084
0.57706084
0.57706084
0.57706084
0.57706084
0.57706084
0.57706084
0.57706084
0.57706084
0.57706084
0.57706084
0.57706084
0.57706084
0.57706084
0.57706084
0.57706084
0.57706084
0.57706084
0.57706084
0.57706084
0.57706084
0.57706084
0.57706084
0.57706084
0.57706084
0.57706084
0.57706084
0.46047741
0.4500035
0.41702329
0.40114076
0.38556728
0.37471533
0.36727754
0.36308062
0.361527
0.36209074
0.36426293
0.3676101
0.37177547
0.37647754
0.38149985
0.38667963
0.39189699
0.397066
0.40212702
0.40703836
0.41176638
0.41627813
0.42054367
0.42455038
0.42832478
0.43194464
0.43549897
0.43897328
0.44211073
0.44433235
0.44501128
0.4441443
0.44295787
0.44580864
0.45684497
0.47920161
0.51013365
0.54118472
0.56362449
0.57451282
0.57789603
0.57797434
0.57744235
0.5771381
0.57705148
0.57704974
0.57705754
0.57706055
0.57706098
0.57706089
0.57706084
0.57706084
0.57706084
0.57706084
0.57706084
0.57706084
0.57706084
0.57706084
0.57706084
0.57706084
0.57706084
0.57706084
0.57706084
0.57706084
0.57706084
0.57706084
0.57706084
0.57706084
0.57706084
0.57706084
0.57706084
0.57706084
0.57706084
0.57706084
0.57706084
0.57706084
0.57706084
0.57706084
0.57706084
0.57706084
0.40790105
0.37885006
0.35204413
0.33871144
0.32879604
0.32427729
0.32350329
0.32566135
0.32986193
0.33542757
0.34183618
0.34870982
0.35578098
0.36286498
0.36983681
0.37661389
0.38314395
0.38939677
0.39535752
0.40101907
0.40637302
0.41140474
0.41610015
0.42046773
0.42456857
0.42851716
0.43239694
0.43611187
0.43928082
0.44122785
0.44134405
0.44036111
0.43993553
0.44564423
0.46134447
0.48828236
0.52119676
0.55039021
0.56889205
0.5764348
0.57825639
0.57783816
0.57731619
0.57709106
0.57704383
0.57705173
0.57705881
0.57706089
0.57706098
0.57706087
0.57706084
0.57706084
0.57706084
0.57706084
0.57706084
0.57706084
0.57706084
0.57706084
0.57706084
0.57706084
0.57706084
0.57706084
0.57706084
0.57706084
0.57706084
0.57706084
0.57706084
0.57706084
0.57706084
0.57706084
0.57706084
0.57706084
0.57706084
0.57706084
0.57706084
0.57706084
0.57706084
0.57706084
0.57706084
0.57706084
0.32381914
0.29304882
0.27693
0.2726758
0.27357003
0.27882337
0.28663962
0.29589226
0.30579879
0.31586851
0.32580326
0.33542985
0.34465344
0.35342728
0.3617337
0.36957266
0.37695526
0.38389986
0.39042828
0.39655986
0.40230428
0.40766039
0.41262954
0.41724424
0.42159431
0.42580992
0.42996152
0.4338839
0.43706533
0.43879507
0.43858198
0.43746064
0.4385146
0.44658684
0.46569596
0.49532436
0.52867394
0.5559185
0.57164963
0.57732877
0.57833204
0.57773606
0.577248
0.57706897
0.57704183
0.57705304
0.57705948
0.57706104
0.57706097
0.57706086
0.57706084
0.57706084
0.57706084
0.57706084
0.57706084
0.57706084
0.57706084
0.57706084
0.57706084
0.57706084
0.57706084
0.57706084
0.57706084
0.57706084
0.57706084
0.57706084
0.57706084
0.57706084
0.57706084
0.57706084
0.57706084
0.57706084
0.57706084
0.57706084
0.57706084
0.57706084
0.57706084
0.57706084
0.57706084
0.57706084
0.19794696
0.19666128
0.20130294
0.21315276
0.22844228
0.24464158
0.26066512
0.27593602
0.29025517
0.30357263
0.31591742
0.32734921
0.3379383
0.34775503
0.35686543
0.36533008
0.37320481
0.38054132
0.38738572
0.39377368
0.39972515
0.40524749
0.41035375
0.41509358
0.41957745
0.42394748
0.42825464
0.43228281
0.43546452
0.43705041
0.43675381
0.43584514
0.43742319
0.44670931
0.46720288
0.49778008
0.53114631
0.55764925
0.57247989
0.57762201
0.57837414
0.57772272
0.57723383
0.57706251
0.57704024
0.57705297
0.5770596
0.57706111
0.57706098
0.57706086
0.57706083
0.57706083
0.57706084
0.57706084
0.57706084
0.57706084
0.57706084
0.57706084
0.57706084
0.57706084
0.57706084
0.57706084
0.57706084
0.57706084
0.57706084
0.57706084
0.57706084
0.57706084
0.57706084
0.57706084
0.57706084
0.57706084
0.57706084
0.57706084
0.57706084
0.57706084
0.57706084
0.57706084
0.57706084
0.57706084
0.08426286
0.11135373
0.14532909
0.17573112
0.20281842
0.2265322
0.24745033
0.26601332
0.28261109
0.29755019
0.31107716
0.32338923
0.33464574
0.34497624
0.35448702
0.36326671
0.37139113
0.37892635
0.38592837
0.39243866
0.39847961
0.40405968
0.40919455
0.41394011
0.41841586
0.42276616
0.4270312
0.43098155
0.43400884
0.43537475
0.43476775
0.43280967
0.43398919
0.44239282
0.46231685
0.49292074
0.5272026
0.55522249
0.57153415
0.57741391
0.57849802
0.57782496
0.57727713
0.57707132
0.57703748
0.57705111
0.57705908
0.57706109
0.57706102
0.57706087
0.57706084
0.57706083
0.57706084
0.57706084
0.57706084
0.57706084
0.57706084
0.57706084
0.57706084
0.57706084
0.57706084
0.57706084
0.57706084
0.57706084
0.57706084
0.57706084
0.57706084
0.57706084
0.57706084
0.57706084
0.57706084
0.57706084
0.57706084
0.57706084
0.57706084
0.57706084
0.57706084
0.57706084
0.57706084
0.57706084
0.48547877
0.48959733
0.48953969
0.49197432
0.49517923
0.49845048
0.50149129
0.50442783
0.50714093
0.50978968
0.51231452
0.5147944
0.51720522
0.51955775
0.52185196
0.52411467
0.52635005
0.52855772
0.53073949
0.53289994
0.53504446
0.53717638
0.53930279
0.54142933
0.54356316
0.54571378
0.54789222
0.55011246
0.5523919
0.55475163
0.55721641
0.55981301
0.56256833
0.56550981
0.56864708
0.57193158
0.57523245
0.57832889
0.58093095
0.58269825
0.58349811
0.58334492
0.58243511
0.58116444
0.57978775
0.57863161
0.57783163
0.57737427
0.57716173
0.57708373
0.57706272
0.57705959
0.57706004
0.57706058
0.57706078
0.57706083
0.57706084
0.57706084
0.57706084
0.57706084
0.57706084
0.57706084
0.57706084
0.57706084
0.57706084
0.57706084
0.57706084
0.57706084
0.57706084
0.57706084
0.57706084
0.57706084
0.57706084
0.57706084
0.57706084
0.57706084
0.57706084
0.57706084
0.57706084
0.57706084
0.52873974
0.52417871
0.52276448
0.52313812
0.52352103
0.52423169
0.52496043
0.52598072
0.52704232
0.52822248
0.52947344
0.53079582
0.5321876
0.5336334
0.53513306
0.53668173
0.53827476
0.53991255
0.54159248
0.54331466
0.5450804
0.54688945
0.54874538
0.55065124
0.55261075
0.55463041
0.55671863
0.5588836
0.56113653
0.56349003
0.56595539
0.56853745
0.57122511
0.57398046
0.57674583
0.57942881
0.58187104
0.58386439
0.58521631
0.58587148
0.58576495
0.58498545
0.58369388
0.58213828
0.58059287
0.57926826
0.57829626
0.57768071
0.57734038
0.57717444
0.57710249
0.57707456
0.57706483
0.57706186
0.57706107
0.57706089
0.57706085
0.57706084
0.57706084
0.57706084
0.57706084
0.57706084
0.57706084
0.57706084
0.57706084
0.57706084
0.57706084
0.57706084
0.57706084
0.57706084
0.57706084
0.57706084
0.57706084
0.57706084
0.57706084
0.57706084
0.57706084
0.57706084
0.57706084
0.57706084
0.55239933
0.54418599
0.54320412
0.54353102
0.54370537
0.54420596
0.54455857
0.54511993
0.54566489
0.54632204
0.54703643
0.54781366
0.54866581
0.54958745
0.55057321
0.55162963
0.5527539
0.55394727
0.55520895
0.55654018
0.55794239
0.55941565
0.56096185
0.56258313
0.56427986
0.56605425
0.56790824
0.56984101
0.57184882
0.57392247
0.5760488
0.57820983
0.58037364
0.58247294
0.58438669
0.58599974
0.58720867
0.58795171
0.58815752
0.5877967
0.58693529
0.58563666
0.58403581
0.5823115
0.58067277
0.57930677
0.57831407
0.57768699
0.57734101
0.57717315
0.57710114
0.57707372
0.57706445
0.57706173
0.57706104
0.57706088
0.57706084
0.57706084
0.57706084
0.57706084
0.57706084
0.57706084
0.57706084
0.57706084
0.57706084
0.57706084
0.57706084
0.57706084
0.57706084
0.57706084
0.57706084
0.57706084
0.57706084
0.57706084
0.57706084
0.57706084
0.57706084
0.57706084
0.57706084
0.57706084
0.57194822
0.56347502
0.56265679
0.56286433
0.56281703
0.56304184
0.56316252
0.56344213
0.56371175
0.56406268
0.56446514
0.56492128
0.56543492
0.56601579
0.56665822
0.56736423
0.56813488
0.56897274
0.56987801
0.57085142
0.57189389
0.57300504
0.57418501
0.57543324
0.57674666
0.5781216
0.57955166
0.58102744
0.58253446
0.58405029
0.58553296
0.58692933
0.58819196
0.58927364
0.59011137
0.5906386
0.59078623
0.59052651
0.58989273
0.58890525
0.58760283
0.58603955
0.58429282
0.58249091
0.58080691
0.57940721
0.57838547