/*--------------------------------*- C++ -*----------------------------------*\
  =========                 |
  \\      /  F ield         | OpenFOAM: The Open Source CFD Toolbox
   \\    /   O peration     | Website:  https://openfoam.org
    \\  /    A nd           | Version:  12
     \\/     M anipulation  |
\*---------------------------------------------------------------------------*/
FoamFile
{
    format      ascii;
    class       surfaceScalarField;
    location    "0.001";
    object      phi;
}
// * * * * * * * * * * * * * * * * * * * * * * * * * * * * * * * * * * * * * //

dimensions      [1 0 -1 0 0 0 0];

internalField   nonuniform List<scalar> 
31760
(
-0.00080008177
-0.053540943
0.054631272
-0.0013464412
-0.061540909
0.062202362
-0.0020743236
-0.063723151
0.064655424
-0.0027355422
-0.06687506
0.067772555
-0.003508309
-0.069718623
0.07076893
-0.0042658179
-0.073100522
0.074152194
-0.0050998311
-0.076382087
0.07754264
-0.0059527009
-0.07999094
0.081190104
-0.0068595563
-0.083674636
0.084955977
-0.0078026357
-0.087585731
0.088926996
-0.008793605
-0.091650074
0.093067068
-0.0098285463
-0.095919725
0.097408049
-0.010910945
-0.10038018
0.10194559
-0.012040768
-0.10505182
0.1066955
-0.013219408
-0.10993759
0.111663
-0.014447811
-0.11505031
0.1168605
-0.015727044
-0.12039872
0.12229709
-0.017057821
-0.12599304
0.12798323
-0.018440518
-0.13184576
0.13393101
-0.01987527
-0.13796802
0.14015209
-0.021362384
-0.14437148
0.14665861
-0.022901383
-0.15106987
0.15346411
-0.024491616
-0.15807616
0.16058215
-0.026131869
-0.16540525
0.16802761
-0.027819493
-0.17307294
0.17581576
-0.029552311
-0.18109461
0.1839638
-0.031326581
-0.18948794
0.19248942
-0.033136171
-0.19827218
0.20141167
-0.034973437
-0.2074668
0.21075134
-0.036827987
-0.21709473
0.22053249
-0.038685311
-0.22717954
0.2307799
-0.040525748
-0.23774836
0.24152271
-0.042321966
-0.24883234
0.25279381
-0.044037421
-0.26046632
0.26463032
-0.045622462
-0.27269304
0.27707477
-0.047012818
-0.28556204
0.29017377
-0.048128941
-0.29913092
0.30397561
-0.048880939
-0.31346451
0.31852476
-0.049199305
-0.32862665
0.33384854
-0.049139727
-0.34466062
0.34993123
-0.049131625
-0.3615222
0.36665244
-0.050355037
-0.37896118
0.38369306
-0.054833569
-0.39638301
0.4004796
-0.064442895
-0.41295369
0.41639219
-0.079165197
-0.42821171
0.43130268
-0.096454494
-0.44271253
0.44595578
-0.11284464
-0.45788196
0.46165193
-0.12620002
-0.4750739
0.47943127
-0.13628128
-0.4948379
0.49964638
-0.1439561
-0.51702126
0.52209462
-0.15024873
-0.54120247
0.54640044
-0.15588167
-0.56702888
0.57226603
-0.16123057
-0.59431133
0.59953614
-0.16643986
-0.62299486
0.62817007
-0.17153949
-0.65310011
0.65819155
-0.17651124
-0.68468285
0.68965286
-0.18131876
-0.71781226
0.72261945
-0.18591652
-0.7525646
0.75716231
-0.1902511
-0.78902133
0.7933559
-0.19426305
-0.82726802
0.83127996
-0.19788495
-0.86739494
0.87101684
-0.20104146
-0.90949681
0.91265332
-0.20364766
-0.95367371
0.95627991
-0.20560861
-1.0000313
1.0019923
-0.20681794
-1.0486799
1.0498893
-0.20715713
-1.0997372
1.1000764
-0.20649228
-1.153326
1.1526611
-0.20467969
-1.2095744
1.2077618
-0.20155374
-1.2686222
1.2654962
-0.19692781
-1.330614
1.325988
-0.19059893
-1.3957014
1.3893725
-0.18234549
-1.464043
1.4557896
-0.17191088
-1.5358115
1.5253769
-0.15902217
-1.6111842
1.5982955
-0.14336443
-1.6903524
1.6746947
-0.12459707
-1.7735167
1.7547493
-0.10234218
-1.8608869
1.838632
-0.076175185
-1.9526872
1.9265202
-0.045634194
-2.0491531
2.0186121
-2.1505365
2.1151059
-0.00083196125
-0.052555841
-0.0012753262
-0.061022451
-0.0019594369
-0.06286247
-0.0025413942
-0.066101422
-0.0032518918
-0.068769546
-0.0039390609
-0.072161038
-0.00470465
-0.075328811
-0.0054860236
-0.078903376
-0.0063204887
-0.082505145
-0.0071886113
-0.086360397
-0.0081019056
-0.090351999
-0.0090569554
-0.094553746
-0.010056594
-0.098941088
-0.011101041
-0.10353847
-0.012191954
-0.10834642
-0.013330261
-0.1133785
-0.014516272
-0.11864384
-0.015751469
-0.12415085
-0.017036196
-0.12991343
-0.018370974
-0.1359415
-0.019756306
-0.14224669
-0.021191448
-0.14884335
-0.022676312
-0.15574293
-0.024209759
-0.16296123
-0.025790774
-0.17051297
-0.027415907
-0.17841472
-0.029082291
-0.18668243
-0.030784422
-0.1953364
-0.032516256
-0.20439462
-0.034268117
-0.21388095
-0.036028139
-0.22381745
-0.037779748
-0.23423072
-0.039500094
-0.24515051
-0.041157606
-0.25660941
-0.042707779
-0.2686477
-0.044088804
-0.28131226
-0.045214609
-0.29466163
-0.045973049
-0.30876613
-0.046240157
-0.32370942
-0.045967348
-0.33957429
-0.045421992
-0.35638322
-0.045629827
-0.37397363
-0.048733981
-0.39180629
-0.057203777
-0.40893986
-0.071737332
-0.42462648
-0.089913802
-0.43917101
-0.10767458
-0.45402216
-0.12219152
-0.47076901
-0.1329435
-0.49016785
-0.14086149
-0.51212471
-0.14714317
-0.53619385
-0.1526516
-0.56197915
-0.15784188
-0.58926377
-0.16289395
-0.61798147
-0.16785161
-0.64815161
-0.17270362
-0.67983273
-0.17741832
-0.71309791
-0.1819545
-0.74802847
-0.18626412
-0.78471172
-0.19029333
-0.82323881
-0.19398102
-0.86370725
-0.1972586
-0.90621923
-0.20004862
-0.95088368
-0.20226548
-0.99781444
-0.20381213
-1.0471333
-0.20458172
-1.0989676
-0.20445108
-1.1534566
-0.20328701
-1.2107385
-0.20094022
-1.270969
-0.19724273
-1.3343115
-0.19201027
-1.4009338
-0.1850352
-1.4710181
-0.17608892
-1.5447578
-0.16491482
-1.6223583
-0.15123296
-1.7040343
-0.13472841
-1.7900212
-0.11505593
-1.8805594
-0.091828259
-1.9759149
-0.064623169
-2.0763582
-2.1821949
-0.00082864405
-0.051694277
-0.0011746448
-0.060618796
-0.0018355165
-0.062021511
-0.0023533474
-0.065423876
-0.0030156666
-0.067893811
-0.0036466375
-0.071307711
-0.0043514244
-0.074364215
-0.0050639366
-0.077915603
-0.0058309068
-0.081432419
-0.0066310702
-0.085234068
-0.0074717309
-0.089157895
-0.0083526253
-0.0932946
-0.0092745516
-0.097613532
-0.010239341
-0.10213995
-0.011247589
-0.10687464
-0.012300612
-0.11183042
-0.013399476
-0.11701644
-0.014544979
-0.12244083
-0.015738529
-0.12811719
-0.016980229
-0.13405554
-0.018271231
-0.14026666
-0.019611433
-0.14676551
-0.021000716
-0.15356268
-0.022439448
-0.16067358
-0.023925036
-0.16811476
-0.025457059
-0.17589948
-0.027031532
-0.18404619
-0.028644788
-0.19257354
-0.030290439
-0.20150051
-0.031961328
-0.21084941
-0.033645786
-0.22064392
-0.03532993
-0.23090902
-0.036994108
-0.24167444
-0.038610617
-0.25297238
-0.040141857
-0.26484009
-0.041532736
-0.27732236
-0.042703343
-0.29047403
-0.043536523
-0.30436487
-0.043881418
-0.31908202
-0.043612015
-0.33473064
-0.042851942
-0.35138167
-0.042447319
-0.36895098
-0.044533358
-0.38698151
-0.052018941
-0.40450076
-0.066269326
-0.42055524
-0.085100335
-0.435217
-0.10398246
-0.44989893
-0.11946658
-0.46635639
-0.130771
-0.48550592
-0.13888521
-0.50730634
-0.14516319
-0.53129424
-0.15058951
-0.5570433
-0.15568226
-0.5843212
-0.160647
-0.61305665
-0.16553749
-0.64327036
-0.17034775
-0.67502434
-0.17505053
-0.70839544
-0.17960841
-0.74347065
-0.18397938
-0.78034075
-0.18811426
-0.81910392
-0.19195871
-0.8598628
-0.19545068
-0.90272726
-0.19852134
-0.94781302
-0.20109255
-0.99524323
-0.20307706
-1.0451488
-0.20437643
-1.0976682
-0.20488498
-1.1529481
-0.20447907
-1.2111444
-0.20302107
-1.272427
-0.20036402
-1.3369685
-0.19633528
-1.4049626
-0.19075289
-1.4766005
-0.18340458
-1.5521061
-0.17406172
-1.6317012
-0.16246538
-1.7156306
-0.14833329
-1.8041533
-0.13135052
-1.8975422
-0.11116949
-1.9960959
-0.087398276
-2.1001294
-2.2099785
-0.00083789908
-0.050937617
-0.0011317408
-0.06025674
-0.0017617964
-0.061182383
-0.0022386423
-0.06479883
-0.0028536279
-0.067069827
-0.0034375242
-0.070515427
-0.0040837121
-0.073470738
-0.0047413219
-0.077001299
-0.0054445307
-0.080441076
-0.0061848233
-0.084187609
-0.0069586728
-0.088051579
-0.0077726506
-0.092125216
-0.0086239524
-0.096380953
-0.0095164362
-0.1008397
-0.010449947
-0.10550532
-0.011426893
-0.11038794
-0.01244807
-0.11549814
-0.013514813
-0.12084316
-0.014628001
-0.12643711
-0.015789546
-0.13228801
-0.016999279
-0.13840893
-0.018259005
-0.1448122
-0.019568846
-0.15150942
-0.020928632
-0.15851634
-0.022337952
-0.16584852
-0.023795465
-0.17351922
-0.025298933
-0.18154683
-0.02684484
-0.18995003
-0.028428616
-0.19874714
-0.03004234
-0.20796165
-0.031677091
-0.21761554
-0.033319734
-0.22773455
-0.034952123
-0.23834865
-0.036550235
-0.24948894
-0.038080418
-0.26119219
-0.039494185
-0.27350168
-0.040719416
-0.28646913
-0.041644815
-0.30016008
-0.042106314
-0.31466178
-0.041927303
-0.33008809
-0.041124252
-0.3465402
-0.04039182
-0.3639946
-0.041821559
-0.38206741
-0.048650782
-0.39978715
-0.062778173
-0.41607314
-0.082212309
-0.43083139
-0.10201819
-0.44543592
-0.11824115
-0.46174281
-0.12992673
-0.48076706
-0.13815585
-0.50248897
-0.14442489
-0.52642931
-0.14980958
-0.55214779
-0.15486897
-0.57940795
-0.15982182
-0.60814156
-0.16472546
-0.63837518
-0.16957821
-0.67017322
-0.17435584
-0.7036181
-0.17902614
-0.73880039
-0.18355154
-0.77581536
-0.18788891
-0.81476655
-0.19198974
-0.85576198
-0.1957992
-0.89891781
-0.19925594
-0.94435628
-0.20229044
-0.99220873
-0.20482503
-1.0426142
-0.20677455
-1.0957187
-0.20803659
-1.151686
-0.20850782
-1.2106732
-0.20806225
-1.2728726
-0.20656926
-1.3384615
-0.20387721
-1.4076546
-0.19981114
-1.4806665
-0.19419377
-1.5577235
-0.18681046
-1.6390845
-0.17743495
-1.7250061
-0.16581295
-1.8157753
-0.15165286
-1.9117023
-0.13464677
-2.013102
-0.1144424
-2.1203337
-2.233766
-0.00082683585
-0.050297048
-0.0011181109
-0.059867247
-0.0017195214
-0.06035631
-0.0021758173
-0.064176023
-0.0027325237
-0.066297833
-0.0032740403
-0.069766219
-0.0038597703
-0.072641691
-0.0044897055
-0.076120019
-0.0051323388
-0.079519588
-0.0058201767
-0.083205461
-0.0065332343
-0.087019729
-0.0072873766
-0.091031557
-0.008075929
-0.095228789
-0.0089048789
-0.099622532
-0.0097736215
-0.10422216
-0.010684615
-0.10903473
-0.011639274
-0.11407154
-0.01263952
-0.11933938
-0.013686784
-0.1248523
-0.014782818
-0.1306177
-0.015929169
-0.13664874
-0.017126203
-0.14295837
-0.018375641
-0.1495564
-0.019677927
-0.15645959
-0.021032727
-0.1636831
-0.022439568
-0.1712399
-0.023896705
-0.17914851
-0.025401897
-0.187427
-0.026950002
-0.19609506
-0.028535676
-0.20517437
-0.030150348
-0.21468772
-0.031781296
-0.22466164
-0.033412259
-0.23512527
-0.035021102
-0.24610914
-0.036576527
-0.25765071
-0.038034916
-0.26979195
-0.039331223
-0.28258286
-0.040361295
-0.29608505
-0.040958535
-0.31038468
-0.040917083
-0.32559772
-0.040181257
-0.34184289
-0.039348586
-0.35913296
-0.040492869
-0.37712736
-0.047115434
-0.39487021
-0.061450389
-0.41121318
-0.081539303
-0.42598957
-0.1020625
-0.44056802
-0.11872836
-0.45685368
-0.13056526
-0.47587781
-0.13879784
-0.49760016
-0.14504228
-0.52152588
-0.15042798
-0.54721497
-0.15552397
-0.57444273
-0.16054586
-0.6031522
-0.16555076
-0.63337725
-0.17053731
-0.66518796
-0.17548469
-0.69867092
-0.18036587
-0.73391924
-0.18514764
-0.77103359
-0.18979318
-0.81012102
-0.19425979
-0.85129537
-0.19849988
-0.89467771
-0.20245934
-0.94039682
-0.20607774
-0.98859033
-0.20928697
-1.039405
-0.21200935
-1.0929963
-0.21416252
-1.1495329
-0.21564384
-1.2091918
-0.21635535
-1.272161
-0.21616639
-1.3386505
-0.214951
-1.40887
-0.21255755
-1.48306
-0.20882041
-1.5614607
-0.20355529
-1.6443496
-0.19655689
-1.7320045
-0.18759661
-1.8247356
-0.17642485
-1.922874
-0.16275465
-2.0267722
-0.1462781
-2.1368103
-2.2533919
-0.00080431536
-0.049767815
-0.001088554
-0.059447294
-0.001660321
-0.059549956
-0.0020982186
-0.063552723
-0.0026042972
-0.06557144
-0.0031432545
-0.069012226
-0.0036707658
-0.071868328
-0.0042729685
-0.075268747
-0.0048629742
-0.078654597
-0.0055079703
-0.082272339
-0.0061708211
-0.086046835
-0.0068757025
-0.089998126
-0.0076135228
-0.094140284
-0.0083910248
-0.098471877
-0.0092080382
-0.10300777
-0.010067901
-0.10775174
-0.010972129
-0.11271637
-0.011922854
-0.11790835
-0.012922411
-0.12334033
-0.013972441
-0.12902084
-0.015075233
-0.1349619
-0.016232469
-0.14117652
-0.01744547
-0.14767479
-0.018715236
-0.15447305
-0.020043071
-0.16158526
-0.02142843
-0.16902605
-0.022869348
-0.17681413
-0.024364955
-0.18496551
-0.025910907
-0.19350192
-0.027502291
-0.20244391
-0.02913145
-0.21181484
-0.030786406
-0.2216423
-0.03245272
-0.23195367
-0.034108149
-0.2427812
-0.03572419
-0.25416073
-0.037260218
-0.26613484
-0.038656016
-0.2787528
-0.039812934
-0.29207369
-0.040563805
-0.3061816
-0.040684087
-0.32119434
-0.040079635
-0.33723558
-0.039309361
-0.35433404
-0.040517147
-0.3721655
-0.047439374
-0.38977049
-0.062422085
-0.40598951
-0.083287012
-0.42068054
-0.10430859
-0.43526523
-0.12107971
-0.45164758
-0.13281171
-0.47078577
-0.1409303
-0.49257737
-0.14714224
-0.51650983
-0.15258081
-0.54216342
-0.157792
-0.56933832
-0.16297314
-0.59799629
-0.16817402
-0.62818149
-0.17339345
-0.65996942
-0.17861486
-0.69344964
-0.18381421
-0.7287199
-0.18896433
-0.76588347
-0.19403327
-0.80505208
-0.1989858
-0.84634284
-0.20378087
-0.88988265
-0.20837251
-0.93580517
-0.21270849
-0.98425435
-0.21673
-1.0353835
-0.22037079
-1.0893555
-0.2235567
-1.146347
-0.22620675
-1.2065418
-0.22822229
-1.2701455
-0.22950533
-1.3373674
-0.22993457
-1.4084408
-0.22938169
-1.4836129
-0.22770208
-1.5631403
-0.22473243
-1.6473193
-0.22029311
-1.7364438
-0.21418585
-1.8308428
-0.20618435
-1.9308755
-0.19604601
-2.0369105
-0.18349556
-2.1493607
-2.26866
-0.00078108922
-0.049325553
-0.0010550537
-0.058998132
-0.0015952237
-0.058762583
-0.0020194852
-0.062941195
-0.0024855422
-0.064871344
-0.0030285613
-0.068248566
-0.003514402
-0.071131658
-0.0040862353
-0.074443241
-0.0046374426
-0.07782939
-0.00524944
-0.081374976
-0.0058753054
-0.085116851
-0.0065428752
-0.089010016
-0.0072437049
-0.093098937
-0.0079840936
-0.097370731
-0.0087655943
-0.10184332
-0.0095907615
-0.10651995
-0.010462702
-0.11141183
-0.011383793
-0.11652741
-0.01235666
-0.12187744
-0.013384246
-0.12747096
-0.014468679
-0.13332016
-0.015612768
-0.1394368
-0.016817943
-0.1458325
-0.01808585
-0.15252243
-0.019418322
-0.15951955
-0.020814635
-0.16684105
-0.022275336
-0.17450322
-0.023798279
-0.18252363
-0.025380329
-0.19092375
-0.02701727
-0.19972381
-0.028700962
-0.20894907
-0.030421477
-0.21862564
-0.032164096
-0.22878158
-0.033908917
-0.23944884
-0.035626848
-0.25066468
-0.037280091
-0.26247056
-0.038813422
-0.27491461
-0.040130261
-0.28805676
-0.041058159
-0.30197761
-0.041354296
-0.31679827
-0.040918619
-0.33264364
-0.040351895
-0.34954306
-0.041979977
-0.3671445
-0.049754121
-0.38446161
-0.065879265
-0.40037912
-0.087634403
-0.41488929
-0.10888278
-0.42951923
-0.12538901
-0.4461068
-0.13676179
-0.46545472
-0.14467221
-0.48736037
-0.15086526
-0.51130513
-0.15642542
-0.53690573
-0.16184235
-0.564
-0.16728164
-0.59257436
-0.17278293
-0.62268345
-0.17834419
-0.65440867
-0.18395184
-0.68784205
-0.18958696
-0.72308479
-0.1952272
-0.76024323
-0.20084737
-0.7994319
-0.20641763
-0.84077258
-0.21190484
-0.88439544
-0.2172705
-0.9304395
-0.22247148
-0.97905338
-0.22745877
-1.0303962
-0.23217638
-1.0846379
-0.23656204
-1.1419613
-0.24054646
-1.2025574
-0.24404799
-1.266644
-0.24697799
-1.3344374
-0.2492408
-1.406178
-0.25072213
-1.4821315
-0.251296
-1.5625664
-0.25082944
-1.6477858
-0.24916149
-1.7381118
-0.24611952
-1.8338848
-0.24151691
-1.9354782
-0.2351367
-2.0432907
-0.22674096
-2.1577565
-2.2793349
-0.0007530358
-0.048926643
-0.001025543
-0.058515674
-0.0015174459
-0.058011041
-0.0019758665
-0.06228487
-0.00239983
-0.064197351
-0.0029217052
-0.067495256
-0.0033767431
-0.070424678
-0.0039280457
-0.073636765
-0.0044519003
-0.077034491
-0.0050372966
-0.080508179
-0.0056386765
-0.084218265
-0.0062809411
-0.088055629
-0.0069593622
-0.092090335
-0.0076788574
-0.096302619
-0.0084423031
-0.10071084
-0.0092530979
-0.10531822
-0.01011368
-0.11013594
-0.011028407
-0.11517188
-0.011999923
-0.12043682
-0.013031548
-0.12593982
-0.014126644
-0.13169245
-0.015287686
-0.13770681
-0.016517311
-0.14399463
-0.017818636
-0.15056959
-0.019192032
-0.15744663
-0.020638976
-0.16464174
-0.02215936
-0.17217206
-0.023751824
-0.18005491
-0.025414062
-0.18831153
-0.027141211
-0.19696361
-0.028925954
-0.20603675
-0.030758929
-0.21555601
-0.032626006
-0.22555025
-0.034506665
-0.23605302
-0.03637377
-0.2471008
-0.038191748
-0.25873436
-0.039906581
-0.27100202
-0.041419677
-0.28396489
-0.042549439
-0.29770149
-0.043033882
-0.31233754
-0.04279939
-0.3279968
-0.04259878
-0.34468132
-0.045059395
-0.36198496
-0.054282001
-0.3788664
-0.072035374
-0.39432571
-0.094690364
-0.40859764
-0.11580501
-0.42333614
-0.13166275
-0.44023029
-0.14246518
-0.45985262
-0.15012112
-0.48188784
-0.15634707
-0.5058277
-0.16212077
-0.53134532
-0.16784755
-0.55832439
-0.17365473
-0.58677747
-0.17957033
-0.61676957
-0.18559248
-0.64838675
-0.19171027
-0.68172428
-0.19790991
-0.71688515
-0.20417488
-0.75397827
-0.21048556
-0.79312122
-0.21681934
-0.8344388
-0.22315009
-0.87806469
-0.22944748
-0.92414212
-0.23567745
-0.97282341
-0.24180011
-1.0242735
-0.24777137
-1.0786667
-0.25354015
-1.1361925
-0.25904788
-1.1970496
-0.26423136
-1.2614605
-0.2690206
-1.3296482
-0.27332461
-1.4018739
-0.27705942
-1.4783967
-0.28011538
-1.5595104
-0.28238053
-1.6455207
-0.28372422
-1.7367681
-0.28400182
-1.8336072
-0.28305238
-1.9364276
-0.28069158
-2.0456515
-0.27672583
-2.1617222
-2.2851366
-0.00071084008
-0.048480561
-0.0009973546
-0.057990592
-0.0014249
-0.057323455
-0.0019061936
-0.061565455
-0.0022987056
-0.063555279
-0.0028107299
-0.066745286
-0.0032490145
-0.06973705
-0.0037841933
-0.072848806
-0.0042977664
-0.076255794
-0.0048685257
-0.079662478
-0.0054626388
-0.083335659
-0.0060967517
-0.087119112
-0.0067713638
-0.091096865
-0.0074901625
-0.095247855
-0.008257255
-0.099588864
-0.0090762053
-0.10412389
-0.0099511284
-0.10886271
-0.010885865
-0.11381477
-0.011884246
-0.11898947
-0.012950723
-0.1243955
-0.01408861
-0.13004524
-0.015301864
-0.13594966
-0.016593383
-0.14212174
-0.01796609
-0.1485743
-0.019421923
-0.15532242
-0.020962278
-0.16238243
-0.022587942
-0.16977161
-0.024297289
-0.177508
-0.02608819
-0.18561236
-0.027956114
-0.19410742
-0.029894152
-0.2030191
-0.031891926
-0.2123731
-0.033934946
-0.22219885
-0.03600408
-0.23253024
-0.038073345
-0.24340423
-0.040108864
-0.25486011
-0.04205722
-0.26694611
-0.043810932
-0.27972494
-0.04516439
-0.29328051
-0.045842745
-0.30773969
-0.045846751
-0.323214
-0.046185047
-0.33966153
-0.050002183
-0.35657732
-0.061380681
-0.37286743
-0.081134265
-0.38775376
-0.10449401
-0.40179321
-0.12500996
-0.416736
-0.13986577
-0.43402062
-0.14996962
-0.45394235
-0.1573984
-0.47608688
-0.16375348
-0.49998351
-0.16985595
-0.52537554
-0.17601109
-0.55219775
-0.1823075
-0.58048602
-0.1887627
-0.61031505
-0.19537556
-0.64177395
-0.20213904
-0.6749608
-0.20904506
-0.70997913
-0.21608218
-0.74694115
-0.2232371
-0.78596629
-0.23049444
-0.82718147
-0.23783552
-0.87072361
-0.24523865
-0.91673898
-0.25267795
-0.96538412
-0.26012494
-1.0168265
-0.26754533
-1.0712463
-0.27490158
-1.1288363
-0.28214725
-1.1898039
-0.28923429
-1.2543735
-0.29610205
-1.3227804
-0.30268987
-1.3952861
-0.3089231
-1.4721635
-0.31472011
-1.5537134
-0.31998523
-1.6402556
-0.32461584
-1.7321375
-0.32849528
-1.8297278
-0.33149059
-1.9334323
-0.33345947
-2.0436827
-0.3342293
-2.1609524
-2.2857384
-0.00062570054
-0.047944909
-0.00095662489
-0.05738603
-0.0013240911
-0.056707456
-0.0018111231
-0.060845362
-0.0021871453
-0.062940494
-0.0026980484
-0.066002417
-0.0031364199
-0.069056622
-0.0036676753
-0.072071336
-0.0041894403
-0.075477548
-0.0047612726
-0.078824539
-0.0053664486
-0.082452213
-0.0060119967
-0.086182084
-0.0067036578
-0.090098565
-0.0074445668
-0.094184189
-0.0082396428
-0.098453307
-0.0090933509
-0.10291035
-0.01001035
-0.10756429
-0.010995688
-0.11242506
-0.012053989
-0.11750164
-0.013189526
-0.12280288
-0.014407858
-0.12833976
-0.015711962
-0.13412537
-0.017107069
-0.14017049
-0.018595624
-0.14649007
-0.020179888
-0.15309859
-0.021862438
-0.16001163
-0.023643678
-0.16724828
-0.02552201
-0.17482705
-0.027495486
-0.18276808
-0.029559149
-0.19109538
-0.031705746
-0.19983511
-0.033924861
-0.20901365
-0.036201293
-0.21866208
-0.038516336
-0.22881387
-0.040846074
-0.23950615
-0.043159083
-0.25077658
-0.045397313
-0.26267534
-0.0474339
-0.27526437
-0.049025933
-0.2886386
-0.049908919
-0.30292615
-0.050256324
-0.31821379
-0.051487066
-0.33438759
-0.057314812
-0.35077391
-0.071493956
-0.36633061
-0.093362132
-0.38059209
-0.11695822
-0.39448222
-0.13634488
-0.40974635
-0.14993943
-0.42747132
-0.15933517
-0.44766998
-0.16664869
-0.46986782
-0.173276
-0.49366344
-0.17984388
-0.51887779
-0.18655928
-0.54549501
-0.19347697
-0.57357002
-0.20060828
-0.60318386
-0.20795378
-0.63442843
-0.21551181
-0.66740277
-0.22327863
-0.70221231
-0.23124956
-0.73897021
-0.23941809
-0.77779777
-0.2477751
-0.81882445
-0.25631035
-0.86218837
-0.26501052
-0.90803881
-0.27385998
-0.95653465
-0.28283939
-1.0078471
-0.29192634
-1.0621593
-0.30109423
-1.1196684
-0.31031345
-1.1805847
-0.31954667
-1.2451403
-0.32875422
-1.3135729
-0.33789179
-1.3861486
-0.34689872
-1.4631566
-0.35571903
-1.5448931
-0.36428273
-1.6316919
-0.37251284
-1.7239074
-0.38031372
-1.8219269
-0.38759205
-1.926154
-0.39423119
-2.0370435
-0.40010518
-2.1550784
-2.2807742
-0.00053624432
-0.047385581
-0.00090204147
-0.056685941
-0.0012240459
-0.056147275
-0.0017187715
-0.060131284
-0.0020885601
-0.062344444
-0.0026089263
-0.065258265
-0.0030607445
-0.068372685
-0.0036003883
-0.071294782
-0.0041463426
-0.074685569
-0.0047364359
-0.077978975
-0.005370966
-0.081550848
-0.0060494451
-0.085224122
-0.0067810892
-0.089073285
-0.0075694465
-0.093086848
-0.0084202558
-0.097276665
-0.0093388665
-0.10164746
-0.010330888
-0.10620756
-0.011401853
-0.11096736
-0.012557851
-0.11593484
-0.013804053
-0.12111953
-0.015145432
-0.12653237
-0.016587289
-0.13218574
-0.018133822
-0.13809149
-0.019788599
-0.14426462
-0.021554932
-0.1507192
-0.023434318
-0.15747205
-0.025426971
-0.16454305
-0.027531719
-0.17195092
-0.029745731
-0.17971643
-0.032063113
-0.18786469
-0.034477736
-0.19641998
-0.036977416
-0.20541258
-0.039547571
-0.21487313
-0.042170388
-0.22483523
-0.044824637
-0.23533578
-0.047480296
-0.24641066
-0.050064622
-0.2581141
-0.052412555
-0.2705126
-0.054243254
-0.28370979
-0.055359227
-0.29782155
-0.056177452
-0.31290694
-0.05885504
-0.32870715
-0.067562417
-0.34440339
-0.085041561
-0.35912166
-0.10873351
-0.37279918
-0.13183799
-0.38669545
-0.14959929
-0.40238927
-0.16183837
-0.42055139
-0.17065835
-0.44095301
-0.17805031
-0.46312021
-0.18512736
-0.48674222
-0.19231282
-0.51172124
-0.19973172
-0.53807975
-0.20741526
-0.56588657
-0.21537188
-0.59522715
-0.22360592
-0.62619436
-0.23212086
-0.65888782
-0.24091878
-0.6934144
-0.25000106
-0.72988793
-0.25936771
-0.76843112
-0.2690185
-0.80917367
-0.27895015
-0.85225671
-0.28915871
-0.89783025
-0.2996381
-0.94605525
-0.31037994
-0.99710527
-0.32137348
-1.0511658
-0.33260544
-1.1084364
-0.34405737
-1.1691328
-0.35571203
-1.2334856
-0.36754398
-1.3017409
-0.37952057
-1.374172
-0.39161613
-1.451061
-0.403784
-1.5327253
-0.41597987
-1.619496
-0.42815008
-1.7117372
-0.44024097
-1.809836
-0.45217556
-1.9142194
-0.46387688
-2.0253422
-0.4752586
-2.1436967
-2.2698171
-0.00043604194
-0.046871484
-0.00085529796
-0.05596186
-0.0011470883
-0.055632513
-0.0016617413
-0.059408631
-0.0020341742
-0.061759403
-0.0025720446
-0.06450727
-0.0030498898
-0.067674583
-0.0036107944
-0.070508254
-0.0041969228
-0.073865276
-0.0048246
-0.077107756
-0.0055084767
-0.080612446
-0.0062439976
-0.084221833
-0.0070420711
-0.087995036
-0.0079072975
-0.091926741
-0.0088461316
-0.09602672
-0.0098648497
-0.10029987
-0.010970237
-0.10475388
-0.012169028
-0.109399
-0.013467184
-0.11424387
-0.014871534
-0.11929708
-0.016387292
-0.12457072
-0.018020138
-0.13007629
-0.019774592
-0.1358268
-0.021654522
-0.14183729
-0.023662686
-0.14812239
-0.025800415
-0.15469981
-0.028066916
-0.16159073
-0.030461197
-0.16881321
-0.032978883
-0.17639037
-0.035614233
-0.1843467
-0.038358751
-0.19270707
-0.041201104
-0.20150258
-0.044126742
-0.21076498
-0.047121666
-0.22052572
-0.050167744
-0.2308217
-0.053229309
-0.24168895
-0.056203978
-0.25319021
-0.058871901
-0.26539648
-0.060926232
-0.27841496
-0.06235965
-0.29235318
-0.06405581
-0.30718011
-0.06900374
-0.3224315
-0.081393022
-0.33729809
-0.10228593
-0.35114133
-0.12701156
-0.36438367
-0.14877042
-0.37847648
-0.164587
-0.39466103
-0.17558905
-0.41319048
-0.18410228
-0.4336784
-0.19183011
-0.45571053
-0.19955133
-0.47908144
-0.2075175
-0.50376201
-0.21579393
-0.52980291
-0.22439968
-0.55728041
-0.2333442
-0.58628251
-0.24263712
-0.61690142
-0.2522865
-0.64923844
-0.26230097
-0.68339993
-0.27268869
-0.71950021
-0.28345735
-0.75766246
-0.29461349
-0.79801753
-0.3061634
-0.8407068
-0.31811223
-0.88588143
-0.33046393
-0.93370356
-0.34322153
-0.98434767
-0.35638621
-1.0380011
-0.36995726
-1.0948654
-0.38393189
-1.1551582
-0.39830892
-1.2191086
-0.41307554
-1.2869743
-0.42822706
-1.3590204
-0.44374483
-1.4355432
-0.45961486
-1.5168552
-0.47581847
-1.6032924
-0.49232535
-1.6952303
-0.50910516
-1.7930562
-0.52611826
-1.8972063
-0.54332498
-2.0081355
-0.56067166
-2.12635
-2.2523911
-0.00033519138
-0.046431033
-0.00080869016
-0.055257854
-0.0010933769
-0.055152265
-0.0016380811
-0.058671535
-0.0020281295
-0.061173033
-0.0025945388
-0.063741461
-0.003116051
-0.066946666
-0.0037144707
-0.069697091
-0.004359586
-0.072998929
-0.005048439
-0.076188167
-0.0058056835
-0.079613609
-0.0066263372
-0.083147598
-0.0075216748
-0.086833219
-0.0084978946
-0.090669861
-0.0095623534
-0.094665812
-0.010722404
-0.098826135
-0.01198589
-0.10315805
-0.013360482
-0.10767148
-0.014853428
-0.11237544
-0.016471279
-0.11727933
-0.018220372
-0.12239483
-0.02010578
-0.12773424
-0.022132193
-0.13331102
-0.024303484
-0.13914033
-0.026620906
-0.14523898
-0.029084514
-0.15162543
-0.031693945
-0.15832007
-0.034446317
-0.16534283
-0.037337047
-0.17271745
-0.040357886
-0.18047033
-0.04349968
-0.18862502
-0.046751621
-0.19721255
-0.050099877
-0.20626699
-0.053534663
-0.21581496
-0.057039037
-0.22589305
-0.060560649
-0.23654167
-0.06394466
-0.24783287
-0.066904833
-0.25984705
-0.069226929
-0.27269505
-0.071158185
-0.28641136
-0.074381259
-0.30083022
-0.082678075
-0.31538497
-0.099344437
-0.32930995
-0.12313745
-0.34235481
-0.14769302
-0.35539923
-0.16735563
-0.36985602
-0.18121257
-0.38651137
-0.19131621
-0.40527
-0.19989909
-0.42569948
-0.20824132
-0.44748656
-0.21680704
-0.47052767
-0.22572225
-0.49484453
-0.23502145
-0.52050232
-0.24471897
-0.54758254
-0.25482902
-0.5761724
-0.26536533
-0.60636511
-0.27634325
-0.63826052
-0.28777746
-0.67196572
-0.29968289
-0.70759478
-0.31207541
-0.74526993
-0.32496949
-0.78512345
-0.33838051
-0.82729578
-0.35232364
-0.8719383
-0.36681359
-0.91921361
-0.38186433
-0.96929692
-0.39749011
-1.0223753
-0.41370446
-1.078651
-0.4305209
-1.1383417
-0.44794853
-1.2016809
-0.46599972
-1.2689231
-0.4846831
-1.3403371
-0.504008
-1.4162183
-0.52397908
-1.4968841
-0.54459635
-1.5826751
-0.56586914
-1.6739575
-0.58778811
-1.7711372
-0.61035559
-1.8746388
-0.63355527
-1.9849358
-0.65738014
-2.1025252
-2.2279644
-0.00024802166
-0.046060576
-0.000783391
-0.054532889
-0.0010770944
-0.054684935
-0.0016625475
-0.057908269
-0.0020896023
-0.060564365
-0.0026971161
-0.062947527
-0.0032841553
-0.066166365
-0.0039401636
-0.068840861
-0.0046665205
-0.072064033
-0.005443895
-0.075192814
-0.0063029518
-0.078525897
-0.0072410578
-0.081969082
-0.0082696347
-0.085551698
-0.0093967799
-0.08927602
-0.010630884
-0.093149601
-0.011980581
-0.097177524
-0.013454664
-0.10136701
-0.015061584
-0.10572764
-0.016809163
-0.11026901
-0.018704472
-0.11500144
-0.020752954
-0.11993758
-0.022959437
-0.12508987
-0.025328426
-0.13047214
-0.027861974
-0.13610128
-0.030560586
-0.14199529
-0.033423014
-0.14817394
-0.036446977
-0.15465729
-0.039629295
-0.16146541
-0.042963991
-0.16862374
-0.046441218
-0.17616095
-0.050049802
-0.18410013
-0.053781266
-0.19246886
-0.057625907
-0.20130338
-0.061573783
-0.21062899
-0.065602568
-0.22047711
-0.069617944
-0.23089865
-0.073402116
-0.24197745
-0.076664401
-0.25379644
-0.079331765
-0.26642879
-0.082267298
-0.27984646
-0.088038414
-0.29371866
-0.10061821
-0.30740948
-0.12161091
-0.32035229
-0.14706762
-0.3328024
-0.17014141
-0.34591324
-0.18732477
-0.36081323
-0.19955045
-0.37782316
-0.20927241
-0.39662821
-0.21834678
-0.41684587
-0.22756995
-0.43828291
-0.23717346
-0.46091708
-0.24721533
-0.48479878
-0.2577144
-0.51000227
-0.26868795
-0.53660885
-0.2801555
-0.56470484
-0.29213722
-0.59438339
-0.30465408
-0.62574366
-0.31772872
-0.65889109
-0.33138352
-0.69393998
-0.34564134
-0.73101211
-0.36052646
-0.77023834
-0.37606383
-0.81175841
-0.39227864
-0.85572348
-0.40919633
-0.90229593
-0.42684441
-0.95164884
-0.44524972
-1.00397
-0.46443978
-1.059461
-0.48444282
-1.1183387
-0.50528637
-1.1808374
-0.52700239
-1.2472071
-0.54961887
-1.3177206
-0.5731638
-1.3926734
-0.59766751
-1.4723804
-0.62316266
-1.55718
-0.6496749
-1.6474453
-0.67723458
-1.7435775
-0.70586734
-1.846006
-0.73560818
-1.955195
-0.76647577
-2.0716576
-2.1959374
-0.00018042181
-0.045746473
-0.00079407964
-0.053753863
-0.0011087084
-0.054213977
-0.0017478077
-0.057105514
-0.0022347172
-0.059909755
-0.0028979565
-0.062110785
-0.0035740921
-0.065310013
-0.004311339
-0.067915946
-0.0051432222
-0.071036235
-0.0060402794
-0.074090459
-0.0070350031
-0.077315321
-0.0081290699
-0.080647561
-0.0093344194
-0.084106582
-0.010660894
-0.087696354
-0.012118215
-0.09142404
-0.013715759
-0.095295319
-0.015462901
-0.099317618
-0.017368319
-0.1035006
-0.019439918
-0.1078544
-0.021684258
-0.11239086
-0.024106136
-0.11712377
-0.026708724
-0.12206679
-0.029494761
-0.12723417
-0.032465568
-0.1326434
-0.035619377
-0.13831529
-0.038953975
-0.14426969
-0.042464535
-0.15052775
-0.046145749
-0.15710909
-0.049991124
-0.1640391
-0.053990351
-0.17134888
-0.058132385
-0.17906159
-0.062412064
-0.18720024
-0.066825908
-0.19580127
-0.071359131
-0.20489276
-0.075963406
-0.21449968
-0.080484405
-0.22468601
-0.084650693
-0.23554218
-0.088231942
-0.24715166
-0.091570232
-0.25952788
-0.096266041
-0.27251984
-0.10579221
-0.28565439
-0.1233305
-0.29834465
-0.14782238
-0.31042166
-0.1732026
-0.3225726
-0.19379682
-0.3359505
-0.20863977
-0.35125358