/*--------------------------------*- C++ -*----------------------------------*\
  =========                 |
  \\      /  F ield         | OpenFOAM: The Open Source CFD Toolbox
   \\    /   O peration     | Website:  https://openfoam.org
    \\  /    A nd           | Version:  12
     \\/     M anipulation  |
\*---------------------------------------------------------------------------*/
FoamFile
{
    format      ascii;
    class       volScalarField;
    location    "0.001";
    object      rho;
}
// * * * * * * * * * * * * * * * * * * * * * * * * * * * * * * * * * * * * * //

dimensions      [1 -3 0 0 0 0 0];

internalField   nonuniform List<scalar> 
16000
(
1.0700831
1.1540576
1.1495742
1.1487556
1.1481364
1.1486512
1.148844
1.1494129
1.1499191
1.1505768
1.1512571
1.1520188
1.1528273
1.1536992
1.1546244
1.1556075
1.1566498
1.1577492
1.1589113
1.160137
1.1614289
1.1627906
1.164224
1.1657327
1.1673253
1.1690035
1.170775
1.1726464
1.1746275
1.1767318
1.178975
1.1813776
1.1839659
1.1867765
1.189857
1.1932692
1.1970869
1.2013945
1.2062694
1.2117139
1.2174661
1.2226527
1.2254521
1.2235118
1.2156179
1.2032784
1.190152
1.1795513
1.1726846
1.1690054
1.1673397
1.1666955
1.1664811
1.166419
1.1664033
1.1663998
1.1663991
1.166399
1.166399
1.166399
1.166399
1.166399
1.166399
1.166399
1.166399
1.166399
1.166399
1.166399
1.166399
1.166399
1.166399
1.166399
1.166399
1.166399
1.166399
1.166399
1.166399
1.166399
1.166399
1.166399
1.0691781
1.158323
1.1524377
1.1513523
1.1502425
1.1507708
1.1507466
1.1513238
1.151743
1.1524105
1.1530693
1.1538441
1.1546651
1.1555625
1.1565187
1.1575382
1.1586238
1.1597683
1.1609822
1.1622614
1.1636101
1.1650311
1.166524
1.1680935
1.1697483
1.1714873
1.1733179
1.1752455
1.1772783
1.1794283
1.181708
1.1841332
1.1867242
1.1895104
1.192533
1.1958502
1.1995422
1.2037152
1.2084997
1.2140036
1.2201302
1.226201
1.2304281
1.2299869
1.2227697
1.2097058
1.1948104
1.1823021
1.1740368
1.1695659
1.1675375
1.166755
1.1664964
1.1664224
1.1664039
1.1663999
1.1663991
1.166399
1.166399
1.166399
1.166399
1.166399
1.166399
1.166399
1.166399
1.166399
1.166399
1.166399
1.166399
1.166399
1.166399
1.166399
1.166399
1.166399
1.166399
1.166399
1.166399
1.166399
1.166399
1.166399
1.0704693
1.163145
1.1552917
1.1544038
1.1526634
1.1532494
1.1529385
1.1535386
1.1538277
1.1545071
1.1551297
1.1559139
1.1567436
1.1576639
1.158651
1.1597074
1.1608389
1.162031
1.1633022
1.1646393
1.1660505
1.1675374
1.1690955
1.1707324
1.1724565
1.1742628
1.1761588
1.1781496
1.1802423
1.1824474
1.1847754
1.1872401
1.189857
1.1926512
1.195656
1.1989209
1.2025179
1.2065532
1.2111795
1.2165758
1.2227835
1.2293202
1.2345214
1.2352705
1.2286906
1.215092
1.1987019
1.1845534
1.1750977
1.1699789
1.1676707
1.1667905
1.1665041
1.1664237
1.1664041
1.1663999
1.1663991
1.166399
1.166399
1.166399
1.166399
1.166399
1.166399
1.166399
1.166399
1.166399
1.166399
1.166399
1.166399
1.166399
1.166399
1.166399
1.166399
1.166399
1.166399
1.166399
1.166399
1.166399
1.166399
1.166399
1.0742325
1.1680505
1.1576803
1.1576831
1.1551259
1.1559231
1.1552446
1.1559724
1.1560854
1.1567927
1.1573757
1.1581754
1.1590185
1.1599656
1.1609899
1.1620892
1.1632737
1.1645208
1.1658575
1.1672601
1.1687417
1.1703025
1.1719331
1.1736453
1.1754454
1.1773248
1.1792915
1.1813504
1.1835074
1.1857712
1.1881501
1.1906572
1.1933058
1.1961187
1.199126
1.20237
1.205914
1.2098563
1.2143562
1.2196338
1.2258314
1.232619
1.2384536
1.2400009
1.2337544
1.2195189
1.2017406
1.186185
1.1757865
1.1702049
1.1677248
1.1667976
1.1665032
1.1664227
1.1664037
1.1663998
1.1663991
1.166399
1.166399
1.166399
1.166399
1.166399
1.166399
1.166399
1.166399
1.166399
1.166399
1.166399
1.166399
1.166399
1.166399
1.166399
1.166399
1.166399
1.166399
1.166399
1.166399
1.166399
1.166399
1.166399
1.0805446
1.1726747
1.1595669
1.160805
1.1574616
1.1586338
1.1575693
1.1584245
1.1584167
1.1591808
1.1597381
1.1605716
1.161444
1.1624314
1.163508
1.1646637
1.1659147
1.167231
1.1686457
1.1701269
1.171691
1.1733377
1.1750531
1.1768523
1.1787385
1.1807018
1.1827496
1.1848862
1.1871165
1.1894471
1.1918838
1.1944387
1.197124
1.1999596
1.2029753
1.2062081
1.2097159
1.213587
1.2179809
1.2231414
1.2292811
1.2361707
1.2423341
1.2442297
1.237838
1.2227038
1.2036137
1.1869678
1.1759796
1.170193
1.1676836
1.1667728
1.1664932
1.1664196
1.1664029
1.1663996
1.1663991
1.166399
1.166399
1.166399
1.166399
1.166399
1.166399
1.166399
1.166399
1.166399
1.166399
1.166399
1.166399
1.166399
1.166399
1.166399
1.166399
1.166399
1.166399
1.166399
1.166399
1.166399
1.166399
1.166399
1.089478
1.1767046
1.161074
1.1634571
1.1596323
1.1612019
1.1598123
1.160862
1.1607508
1.1616086
1.1621733
1.163068
1.1639952
1.1650458
1.1661967
1.1674294
1.1687652
1.1701707
1.1716789
1.1732559
1.1749178
1.1766644
1.1784797
1.1803782
1.1823605
1.1844188
1.1865571
1.1887794
1.1910887
1.1934906
1.1959893
1.1985951
1.2013197
1.2041798
1.2072051
1.2104297
1.2139097
1.217726
1.2220358
1.2271046
1.2331952
1.2401204
1.2463558
1.2481007
1.2409471
1.2245062
1.2041451
1.1867843
1.1756291
1.169934
1.1675502
1.1667198
1.1664761
1.166415
1.1664018
1.1663994
1.166399
1.166399
1.166399
1.166399
1.166399
1.166399
1.166399
1.166399
1.166399
1.166399
1.166399
1.166399
1.166399
1.166399
1.166399
1.166399
1.166399
1.166399
1.166399
1.166399
1.166399
1.166399
1.166399
1.166399
1.1008302
1.1799573
1.1621618
1.1660042
1.1615234
1.1635172
1.1619206
1.1632196
1.1630534
1.1640396
1.1646617
1.1656506
1.1666662
1.1678114
1.1690646
1.1704016
1.1718449
1.1733641
1.1749849
1.176678
1.1784555
1.180318
1.1822488
1.184259
1.1863477
1.1885102
1.1907462
1.1930588
1.1954489
1.197922
1.2004817
1.2031365
1.2058978
1.2087795
1.21181
1.2150225
1.2184726
1.22224
1.2264803
1.231492
1.2375633
1.244503
1.2505956
1.2515982
1.2429556
1.2247431
1.2032081
1.1856024
1.1747571
1.1694587
1.1673454
1.1666484
1.1664553
1.1664099
1.1664008
1.1663992
1.166399
1.166399
1.166399
1.166399
1.166399
1.166399
1.166399
1.166399
1.166399
1.166399
1.166399
1.166399
1.166399
1.166399
1.166399
1.166399
1.166399
1.166399
1.166399
1.166399
1.166399
1.166399
1.166399
1.166399
1.1138568
1.1823528
1.1627421
1.1683772
1.1629291
1.1656596
1.1638902
1.1654473
1.1653387
1.1664855
1.1672272
1.1683454
1.1694879
1.1707635
1.1721506
1.1736221
1.1751976
1.1768561
1.1786111
1.1804407
1.1823521
1.1843456
1.1864063
1.18854
1.1907439
1.1930167
1.1953548
1.1977584
1.2002269
1.202767
1.2053823
1.208079
1.2108683
1.2137643
1.2167921
1.2199839
1.223393
1.2271059
1.2312859
1.2362858
1.2424007
1.2493492
1.2549853
1.2545611
1.2435996
1.2232072
1.2007631
1.1835016
1.1734635
1.1688363
1.1671042
1.1665718
1.1664349
1.1664053
1.1663999
1.1663991
1.166399
1.166399
1.166399
1.166399
1.166399
1.166399
1.166399
1.166399
1.166399
1.166399
1.166399
1.166399
1.166399
1.166399
1.166399
1.166399
1.166399
1.166399
1.166399
1.166399
1.166399
1.166399
1.166399
1.166399
1.1265431
1.1839464
1.1630229
1.169789
1.1641394
1.167457
1.1658125
1.1676659
1.1676987
1.1690277
1.1699471
1.1712248
1.1725305
1.1739697
1.1755213
1.1771565
1.1788885
1.1807102
1.1826218
1.1846067
1.1866684
1.1888064
1.1910081
1.1932745
1.1955991
1.1979834
1.2004236
1.2029145
1.205454
1.2080516
1.2107108
1.2134355
1.2162375
1.2191332
1.2221447
1.2253007
1.2286502
1.2322955
1.2364379
1.2414845
1.2477167
1.2545768
1.2593477
1.2566249
1.2424691
1.2197147
1.1969024
1.1806834
1.1719154
1.1681613
1.1668668
1.1665031
1.1664182
1.1664019
1.1663993
1.166399
1.166399
1.166399
1.166399
1.166399
1.166399
1.166399
1.166399
1.166399
1.166399
1.166399
1.166399
1.166399
1.166399
1.166399
1.166399
1.166399
1.166399
1.166399
1.166399
1.166399
1.166399
1.166399
1.166399
1.166399
1.1358708
1.1845894
1.1633121
1.1709766
1.1654602
1.1693466
1.1678387
1.1699876
1.1702364
1.1717613
1.1729076
1.1743732
1.175876
1.1775092
1.1792551
1.1810816
1.1829947
1.1850012
1.1870909
1.1892475
1.1914735
1.1937665
1.1961163
1.1985199
1.2009659
1.2034572
1.2059924
1.2085603
1.2111583
1.2137971
1.2164805
1.2192122
1.222005
1.2248774
1.2278497
1.230943
1.234209
1.2377749
1.2419224
1.2471092
1.2535147
1.260121
1.2632913
1.2571586
1.2390833
1.2142149
1.1918978
1.1774608
1.170318
1.1675315
1.1666675
1.1664509
1.1664069
1.1663998
1.166399
1.166399
1.166399
1.166399
1.166399
1.166399
1.166399
1.166399
1.166399
1.166399
1.166399
1.166399
1.166399
1.166399
1.166399
1.166399
1.166399
1.166399
1.166399
1.166399
1.166399
1.166399
1.166399
1.166399
1.166399
1.166399
1.1418615
1.1835768
1.1637029
1.1723817
1.1670115
1.1713886
1.1700898
1.1725276
1.1730551
1.1747891
1.1762023
1.1778857
1.1796173
1.1814731
1.1834408
1.1854844
1.1876029
1.1898128
1.192099
1.1944414
1.1968418
1.1992961
1.2017946
1.2043328
1.2068936
1.2094794
1.2120932
1.2147196
1.2173556
1.2200107
1.2226902
1.2254001
1.2281547
1.230972
1.23387
1.2368638
1.2400207
1.2435181
1.2477464
1.2531906
1.2597475
1.2656879
1.2661728
1.2553723
1.2330507
1.2069179
1.1862181
1.1742134
1.1688736
1.167025
1.166525
1.1664181
1.1664007
1.1663989
1.1663989
1.166399
1.166399
1.166399
1.166399
1.166399
1.166399
1.166399
1.166399
1.166399
1.166399
1.166399
1.166399
1.166399
1.166399
1.166399
1.166399
1.166399
1.166399
1.166399
1.166399
1.166399
1.166399
1.166399
1.166399
1.166399
1.1462129
1.1815978
1.1643111
1.1740571
1.1688815
1.1736906
1.1726798
1.1753968
1.1762608
1.1782194
1.1799322
1.1818653
1.183856
1.185962
1.1881769
1.1904614
1.192808
1.1952374
1.1977336
1.2002718
1.2028514
1.2054656
1.2081053
1.210765
1.2134236
1.2160811
1.2187453
1.2213996
1.2240407
1.2266765
1.2293147
1.2319654
1.2346443
1.2373651
1.2401408
1.2429912
1.2460236
1.2495151
1.2539583
1.2597527
1.2663233
1.2707012
1.2669294
1.2504363
1.2243011
1.1983867
1.1804801
1.1713123
1.1677366
1.1666785
1.1664405
1.1664016
1.1663982
1.1663987
1.1663989
1.166399
1.166399
1.166399
1.166399
1.166399
1.166399
1.166399
1.166399
1.166399
1.166399
1.166399
1.166399
1.166399
1.166399
1.166399
1.166399
1.166399
1.166399
1.166399
1.166399
1.166399
1.166399
1.166399
1.166399
1.166399
1.1497902
1.181467
1.1655123
1.1761148
1.1711937
1.1763928
1.1757356
1.178716
1.1799685
1.1821706
1.1842088
1.1864241
1.1887035
1.1910876
1.1935732
1.1961205
1.1987153
1.2013766
1.2040895
1.2068263
1.2095805
1.2123426
1.215104
1.217859
1.2205842
1.2232773
1.2259492
1.2285857
1.2311841
1.2337526
1.2363017
1.2388459
1.2414012
1.2439726
1.2465664
1.2492345
1.2521675
1.2557718
1.2606319
1.2668044
1.2727861
1.2741168
1.2643677
1.2418024
1.2133193
1.1895087
1.1753212
1.1690394
1.1669754
1.1664824
1.1664009
1.1663957
1.1663979
1.1663988
1.166399
1.166399
1.166399
1.166399
1.166399
1.166399
1.166399
1.166399
1.166399
1.166399
1.166399
1.166399
1.166399
1.166399
1.166399
1.166399
1.166399
1.166399
1.166399
1.166399
1.166399
1.166399
1.166399
1.166399
1.166399
1.166399
1.1529276
1.1827405
1.1674255
1.1786382
1.1740513
1.1795912
1.1793629
1.1825923
1.1842846
1.1867604
1.1891501
1.1916834
1.1942836
1.1969754
1.1997555
1.2025843
1.2054419
1.2083403
1.2112664
1.2141913
1.2171014
1.2199833
1.2228298
1.2256364
1.2283796
1.2310546
1.2336749
1.2362314
1.2387245
1.2411664
1.2435706
1.245952
1.2483244
1.2506837
1.2530414
1.2555211
1.2584465
1.2623904
1.2677959
1.2740715
1.2782522
1.274401
1.257407
1.2296088
1.201216
1.181313
1.1712387
1.1675204
1.1665581
1.1663953
1.1663887
1.1663956
1.1663984
1.1663989
1.166399
1.166399
1.166399
1.166399
1.166399
1.166399
1.166399
1.166399
1.166399
1.166399
1.166399
1.166399
1.166399
1.166399
1.166399
1.166399
1.166399
1.166399
1.166399
1.166399
1.166399
1.166399
1.166399
1.166399
1.166399
1.166399
1.1557969
1.1848647
1.1700363
1.1817165
1.1775354
1.1833732
1.183662
1.1871397
1.189324
1.1921226
1.194898
1.1977906
1.200746
1.2037747
1.2068688
1.2099899
1.2131127
1.2162395
1.2193578
1.2224398
1.2254648
1.2284158
1.2312877
1.2340786
1.2367683
1.239351
1.2418424
1.2442419
1.2465553
1.2488026
1.2510007
1.253158
1.2552807
1.2573659
1.2594625
1.2618252
1.2649587
1.2694724
1.2753831
1.280851
1.2812215
1.2700972
1.2456091
1.2149618
1.1895042
1.1746714
1.1684728
1.1666958
1.1663802
1.1663721
1.16639
1.1663973
1.1663988
1.166399
1.166399
1.166399
1.166399
1.166399
1.166399
1.166399
1.166399
1.166399
1.166399
1.166399
1.166399
1.166399
1.166399
1.166399
1.166399
1.166399
1.166399
1.166399
1.166399
1.166399
1.166399
1.166399
1.166399
1.166399
1.166399
1.166399
1.1586373
1.1876762
1.1733405
1.1854014
1.1817295
1.1878425
1.1887575
1.1925147
1.1952471
1.1984347
1.2016374
1.2049303
1.2082706
1.2116558
1.2150709
1.2184778
1.2218464
1.2251691
1.2284322
1.23161
1.2346777
1.2376166
1.2404243
1.2431043
1.2456435
1.2480387
1.2503091
1.2524658
1.2545213
1.2565032
1.2584307
1.2602985
1.2621055
1.2638771
1.2657581
1.2681916
1.2718275
1.277043
1.2828453
1.2858499
1.2798393
1.2600657
1.229719
1.1998139
1.1796412
1.1700495
1.1669503
1.1663526
1.1663376
1.1663776
1.166395
1.1663987
1.166399
1.166399
1.166399
1.166399
1.166399
1.166399
1.166399
1.166399
1.166399
1.166399
1.166399
1.166399
1.166399
1.166399
1.166399
1.166399
1.166399
1.166399
1.166399
1.166399
1.166399
1.166399
1.166399
1.166399
1.166399
1.166399
1.166399
1.166399
1.1617764
1.191162
1.1773608
1.1898115
1.1867851
1.1931893
1.1948469
1.1989421
1.2022739
1.2059186
1.2095878
1.2133121
1.2170525
1.2207944
1.2245143
1.2281722
1.2317338
1.2351826
1.2385035
1.2416746
1.2446723
1.2474808
1.2501032
1.2525502
1.2548209
1.2569196
1.2588719
1.2607017
1.2624292
1.2640825
1.2656753
1.267188
1.2686273
1.2701042
1.2719348
1.2747527
1.27914
1.2847512
1.2891729
1.287134
1.2723914
1.244421
1.211852
1.1863523
1.1725167
1.1674248
1.1663179
1.1662742
1.1663522
1.1663899
1.1663984
1.1663992
1.1663991
1.166399
1.166399
1.166399
1.166399
1.166399
1.166399
1.166399
1.166399
1.166399
1.166399
1.166399
1.166399
1.166399
1.166399
1.166399
1.166399
1.166399
1.166399
1.166399
1.166399
1.166399
1.166399
1.166399
1.166399
1.166399
1.166399
1.166399
1.1655457
1.1954637
1.1823386
1.1951787
1.1929451
1.1996719
1.2021848
1.2066881
1.2106588
1.2148201
1.2189857
1.2231552
1.2272871
1.231354
1.2353226
1.2391499
1.242799
1.2462494
1.2494875
1.2524992
1.2552704
1.2577956
1.2600863
1.2621637
1.2640417
1.2657373
1.2672845
1.2687189
1.2700648
1.271339
1.2725401
1.2736455
1.2747136
1.2760185
1.278097
1.2816378
1.286756
1.2917825
1.2926013
1.2825501
1.2582736
1.2250346
1.1948798
1.1761661
1.1682863
1.1663039
1.1661703
1.1663041
1.1663791
1.1663979
1.1663996
1.1663992
1.166399
1.166399
1.166399
1.166399
1.166399
1.166399
1.166399
1.166399
1.166399
1.166399
1.166399
1.166399
1.166399
1.166399
1.166399
1.166399
1.166399
1.166399
1.166399
1.166399
1.166399
1.166399
1.166399
1.166399
1.166399
1.166399
1.166399
1.166399
1.1702163
1.2008174
1.1884924
1.2017706
1.2004898
1.2075648
1.2110456
1.2160447
1.2206884
1.2254128
1.2300857
1.2346811
1.2391488
1.2434487
1.2475399
1.2513801
1.2549369
1.2581952
1.2611512
1.2638059
1.2661629
1.2682337
1.2700424
1.2716211
1.2729992
1.2742084
1.2752913
1.276289
1.2772204
1.2780783
1.278844
1.2795311
1.280324
1.2817204
1.2844246
1.2888488
1.2940452
1.296745
1.2907982
1.270854
1.2387624
1.2051669
1.1812954
1.1697809
1.1663764
1.1660199
1.1662198
1.166357
1.1663964
1.1664005
1.1663996
1.1663991
1.166399
1.166399
1.166399
1.166399
1.166399
1.166399
1.166399
1.166399
1.166399
1.166399
1.166399
1.166399
1.166399
1.166399
1.166399
1.166399
1.166399
1.166399
1.166399
1.166399
1.166399
1.166399
1.166399
1.166399
1.166399
1.166399
1.166399
1.166399
1.1759827
1.2073847
1.1959135
1.2098225
1.2097445
1.2172071
1.2217699
1.2273758
1.2327164
1.2380114
1.243145
1.2480671
1.2527189
1.2570551
1.2610381
1.2646387
1.2678428
1.2706542
1.2730896
1.2751721
1.2769281
1.2783883
1.2795903
1.2805758
1.2813874
1.2820692
1.282668
1.2832181
1.283719
1.2841361
1.2844548
1.2847942
1.2855503
1.2874269
1.2910527
1.2960558
1.2999492
1.2974496
1.2820252
1.2525578
1.2170702
1.1881894
1.1722378
1.1666738
1.1658362
1.1660823
1.1663134
1.166392
1.1664022
1.1664004
1.1663992
1.166399
1.166399
1.166399
1.166399
1.166399
1.166399
1.166399
1.166399
1.166399
1.166399
1.166399
1.166399
1.166399
1.166399
1.166399
1.166399
1.166399
1.166399
1.166399
1.166399
1.166399
1.166399
1.166399
1.166399
1.166399
1.166399
1.166399
1.166399
1.166399
1.1830228
1.2154096
1.2052237
1.2196938
1.2211885
1.2291249
1.2348495
1.2411468
1.2471399
1.2528991
1.2583088
1.2633069
1.267841
1.2718812
1.2754144
1.2784432
1.2809866
1.2830788
1.2847637
1.2860882
1.2870993
1.2878437
1.2883686
1.2887223
1.2889551
1.2891176
1.2892501
1.2893641
1.2894286
1.2893971
1.2893181
1.2895015
1.2905928
1.2933483
1.2978826
1.3024056
1.3027309
1.2917824
1.2660872
1.2304111
1.19715
1.1760918
1.1674409
1.1656652
1.1658796
1.1662301
1.1663795
1.1664045
1.1664022
1.1663997
1.166399
1.166399
1.166399
1.166399
1.166399
1.166399
1.166399
1.166399
1.166399
1.166399
1.166399
1.166399
1.166399
1.166399
1.166399
1.166399
1.166399
1.166399
1.166399
1.166399
1.166399
1.166399
1.166399
1.166399
1.166399
1.166399
1.166399
1.166399
1.166399
1.166399
1.191963
1.2254838
1.2170471
1.2321271
1.2355635
1.2440487
1.2508789
1.2577951
1.2642059
1.2700997
1.2753814
1.2800098
1.2839706
1.2872774
1.289964
1.292078
1.2936782
1.2948306
1.2956029
1.2960595
1.2962594
1.296257
1.2961028
1.2958477
1.2955436
1.2952358
1.2949438
1.2946425
1.2942725
1.2938193
1.2934819
1.2938273
1.2956809
1.2995057
1.3042361
1.3067257
1.300137
1.2790904
1.2450022
1.2085007
1.1819182
1.1690781
1.165622
1.1656036
1.1660832
1.1663472
1.1664062
1.1664055
1.1664007
1.1663991
1.1663989
1.166399
1.166399
1.166399
1.166399
1.166399
1.166399
1.166399
1.166399
1.166399
1.166399
1.166399
1.166399
1.166399
1.166399
1.166399
1.166399
1.166399
1.166399
1.166399
1.166399
1.166399
1.166399
1.166399
1.166399
1.166399
1.166399
1.166399
1.166399
1.166399
1.2038452
1.2385098
1.2324218
1.2480205
1.2537138
1.2626962
1.2702696
1.2773873
1.2836623
1.2890794
1.2936122
1.2972856
1.3001538
1.3022928
1.3037893
1.3047339
1.3052162
1.3053222
1.3051305
1.3047103
1.3041213
1.303416
1.3026437
1.3018543
1.3010939
1.3003885
1.299721
1.2990238
1.2982345
1.2974478
1.2971064
1.2980231
1.3009399
1.3055597
1.3094054
1.3070093
1.2912642
1.2605952
1.2225469
1.1904524
1.1722271
1.165962
1.1652885
1.1658427
1.1662717
1.166402
1.1664107
1.166403
1.1663994
1.1663989
1.1663989
1.166399
1.166399
1.166399
1.166399
1.166399
1.166399
1.166399
1.166399
1.166399
1.166399
1.166399
1.166399
1.166399
1.166399
1.166399
1.166399
1.166399
1.166399
1.166399
1.166399
1.166399
1.166399
1.166399
1.166399
1.166399
1.166399
1.166399
1.166399
1.166399
1.2198687
1.2556543
1.2526697
1.2683864
1.2761471
1.2852336
1.292738
1.299202
1.304476
1.3086196
1.3117124
1.3138705
1.3152225
1.315899
1.3160237
1.3157086
1.3150531
1.3141432
1.3130522
1.3118404
1.3105582
1.3092507
1.307964
1.3067438
1.305623
1.3045957
1.3035951
1.3025186
1.3013563
1.30041
1.3004046
1.3022555
1.3063106
1.310865
1.3121307
1.3021375
1.2767381
1.2394446
1.2026086
1.1778938
1.1672176
1.1650586
1.1654872
1.1661113
1.1663761
1.1664167
1.1664078
1.1664005
1.1663989
1.1663989
1.166399
1.166399
1.166399
1.166399
1.166399
1.166399
1.166399
1.166399
1.166399
1.166399
1.166399
1.166399
1.166399
1.166399
1.166399
1.166399
1.166399
1.166399
1.166399
1.166399
1.166399
1.166399
1.166399
1.166399
1.166399
1.166399
1.166399
1.166399
1.166399
1.166399
1.242373
1.277748
1.2790565
1.2941791
1.3024613
1.3105799
1.3168361
1.3215909
1.3249371
1.3270737
1.3281954
1.3284941
1.3281431
1.3272933
1.3260716
1.3245832
1.3229135
1.3211312
1.3192907
1.3174345
1.3155985
1.31382
1.3121411
1.3106007
1.3092108
1.3079229
1.3066196
1.3051964
1.3037672
1.3028989
1.3035785
1.3065402
1.3112791
1.315017
1.3110356
1.2925546
1.2589624
1.2193642
1.1875508
1.1704711
1.165241
1.1650475
1.1657985
1.1662889
1.1664161
1.1664161
1.1664039
1.1663992
1.1663988
1.1663989
1.166399
1.166399
1.166399
1.166399
1.166399
1.166399
1.166399
1.166399
1.166399
1.166399
1.166399
1.166399
1.166399
1.166399
1.166399
1.166399
1.166399
1.166399
1.166399
1.166399
1.166399
1.166399
1.166399
1.166399
1.166399
1.166399
1.166399
1.166399
1.166399
1.166399
1.2741883
1.3064977
1.3108041
1.3236045
1.3310361
1.3367553
1.3403947
1.3424348
1.3431684
1.3429001
1.3418783
1.3403086
1.3383545
1.3361439
1.3337761
1.3313274
1.3288556
1.3264034
1.3240013
1.3216713
1.3194359
1.3173258
1.3153797
1.3136257
1.3120467
1.3105447
1.3089646
1.3072571
1.3057305
1.3051822
1.3067163
1.3107861
1.3154907
1.3170092
1.3065328
1.2800445
1.2413031
1.2031543
1.1776627
1.1667575
1.1647108
1.1652954
1.1660582
1.1663797
1.1664255
1.1664118
1.1664011
1.1663987
1.1663988
1.1663989
1.166399
1.166399
1.166399
1.166399
1.166399
1.166399
1.166399
1.166399
1.166399
1.166399
1.166399
1.166399
1.166399
1.166399
1.166399
1.166399
1.166399
1.166399
1.166399
1.166399
1.166399
1.166399
1.166399
1.166399
1.166399
1.166399
1.166399
1.166399
1.166399
1.166399
1.3140571
1.340872
1.3464738
1.3546972
1.3586786
1.3606028
1.3607346
1.3596376
1.3576708
1.3551242
1.3522082
1.3490775
1.3458434
1.3425865
1.3393647
1.3362196
1.3331803
1.3302649
1.3274829
1.3248401
1.3223487
1.3200354
1.3179354
1.316061
1.3143567
1.312678
1.3108604
1.3089432
1.3074525
1.3073902
1.30973
1.3144396
1.3187585
1.3166721
1.3001311
1.2675257
1.2267298
1.1919083
1.1719506
1.1651841
1.1646947
1.1655531
1.166216
1.1664173
1.1664253
1.166408
1.1663997
1.1663986
1.1663988
1.166399
1.166399
1.166399
1.166399
1.166399
1.166399
1.166399
1.166399
1.166399
1.166399
1.166399
1.166399
1.166399
1.166399
1.166399
1.166399
1.166399
1.166399
1.166399
1.166399
1.166399
1.166399
1.166399
1.166399
1.166399
1.166399
1.166399
1.166399
1.166399
1.166399
1.166399
1.3600264
1.3768036
1.3802739
1.3822091
1.3813921
1.3791092
1.3758214
1.3719583
1.3677853
1.3634851
1.3591765
1.3549377
1.350819
1.3468527
1.3430597
1.339453
1.336039
1.3328178
1.3297849
1.3269364
1.3242797
1.3218393
1.319645
1.3176894
1.3158807
1.3140437
1.3120309
1.3099732
1.3085569
1.3089283
1.3118798
1.3167427
1.3203375
1.3148709
1.2940066
1.2579728
1.2171275
1.1854524
1.1691121
1.1645831
1.1647766
1.16572
1.1662947
1.1664317
1.1664239
1.1664056
1.166399
1.1663986
1.1663989
1.166399
1.166399
1.166399
1.166399
1.166399
1.166399
1.166399
1.166399
1.166399
1.166399
1.166399
1.166399
1.166399
1.166399
1.166399
1.166399
1.166399
1.166399
1.166399
1.166399
1.166399
1.166399
1.166399
1.166399
1.166399
1.166399
1.166399
1.166399
1.166399
1.166399
1.166399
1.4054186
1.4074662
1.4059916
1.4021168
1.3969977
1.3913604
1.3855357
1.3797407
1.3740915
1.3686525
1.3634562
1.3585168
1.353838
1.3494181
1.3452525
1.3413351
1.3376575
1.3342079
1.3309736
1.327947
1.3251355
1.3225643
1.3202572
1.3181921
1.3162563
1.3142577
1.3120622
1.3098669
1.3084484
1.3090115
1.3123562
1.3174825
1.3202264
1.3135371
1.2911316
1.2542258
1.2138148
1.1833943
1.1682358
1.1643712
1.1647731
1.1657549
1.1663151
1.1664377
1.1664246
1.1664053
1.1663988
1.1663985
1.1663989
1.166399
1.166399
1.166399
1.166399
1.166399
1.166399
1.166399
1.166399
1.166399
1.166399
1.166399
1.166399
1.166399
1.166399
1.166399
1.166399
1.166399
1.166399
1.166399
1.166399
1.166399
1.166399
1.166399
1.166399
1.166399
1.166399
1.166399
1.166399
1.166399
1.166399
1.166399
1.4348144
1.4278632
1.4207271
1.4135926
1.4061111
1.3988323
1.391832
1.3851814
1.3788956
1.3729734
1.3674032
1.3621693
1.3572548
1.3526436
1.3483211
1.3442734
1.3404859
1.3369415
1.3336237
1.3305244
1.3276542
1.3250435
1.3227186
1.3206497
1.3187094
1.3167016
1.3145009
1.3123167
1.310974
1.3117028
1.3151597
1.3204687
1.3245263
1.3186138
1.2970085
1.2601113
1.2184316
1.1859597
1.1690742
1.1643541
1.1645989
1.1656265
1.1662762
1.1664381
1.1664292
1.1664075
1.166399
1.1663984
1.1663988
1.166399
1.166399
1.166399
1.166399
1.166399
1.166399
1.166399
1.166399
1.166399
1.166399
1.166399
1.166399
1.166399
1.166399
1.166399
1.166399
1.166399
1.166399
1.166399
1.166399
1.166399
1.166399
1.166399
1.166399
1.166399
1.166399
1.166399
1.166399
1.166399
1.166399
1.166399
1.2576795
1.1852611
1.174044
1.1723771
1.1717673
1.1709266
1.1698015
1.1686485
1.1674212
1.166216
1.1649529
1.1637035
1.1624104
1.1611249
1.1598139
1.1585008
1.1571721
1.1558351
1.1544828
1.1531127
1.1517245
1.15031
1.1488652
1.1473801
1.1458411
1.1442365
1.1425493
1.1407578
1.1388328
1.1367418
1.1344447
1.1318867
1.1290012
1.1257104
1.1219663
1.1177806
1.1132712
1.1087254
1.1045848
1.1014987
1.100252
1.1014246
1.1055403
1.1126362
1.1220492
1.1326162
1.1429036
1.1516203
1.1580615
1.1622068
1.1645277
1.1656587
1.1661395
1.1663184
1.1663768
1.1663935
1.1663978
1.1663987
1.1663989
1.166399
1.166399
1.166399
1.166399
1.166399
1.166399
1.166399
1.166399
1.166399
1.166399
1.166399
1.166399
1.166399
1.166399
1.166399
1.166399
1.166399
1.166399
1.166399
1.166399
1.166399
1.238736
1.164894
1.159676
1.159299
1.1587453
1.15819
1.1575136
1.1569152
1.1562151
1.155499
1.1547371
1.1539316
1.1530812
1.1521852
1.1512451
1.1502607
1.1492267
1.1481468
1.1470128
1.1458229
1.1445747
1.1432584
1.1418705
1.1403998
1.1388329
1.1371586
1.1353593
1.1334114
1.1312889
1.1289636
1.1264112
1.1236083
1.1205387
1.1171937
1.1136342
1.1100004
1.1064887
1.1033472
1.1009463
1.0996407
1.099717
1.1018648
1.1065402
1.1138084
1.1231906
1.1335995
1.1436564
1.1521442
1.1583903
1.1623914
1.1646196
1.165699
1.1661551
1.1663237
1.1663783
1.1663939
1.1663979
1.1663988
1.1663989
1.166399
1.166399
1.166399
1.166399
1.166399
1.166399
1.166399
1.166399
1.166399
1.166399
1.166399
1.166399
1.166399
1.166399
1.166399
1.166399
1.166399
1.166399
1.166399
1.166399
1.166399
1.2210035
1.1493658
1.1458359
1.1456326
1.1453023
1.1450648
1.1446631
1.1443575
1.1439281
1.1435132
1.1430242
1.1425
1.1419128
1.1412734
1.140572
1.1398138
1.1389866
1.1380945
1.1371274
1.1360836
1.1349596
1.133745
1.132437
1.1310261
1.1295012
1.1278543
1.1260732
1.1241438
1.1220535
1.119794
1.11737
1.1148074
1.1121484
1.1094312
1.1067598
1.1043173
1.1022635
1.1007386
1.099765
1.0995406
1.1005148
1.1031724
1.1080235
1.1152459
1.1244335
1.1345863
1.1443793
1.1526258
1.1586799
1.1625468
1.1646936
1.1657301
1.1661666
1.1663275
1.1663794
1.1663942
1.1663979
1.1663988
1.1663989
1.166399
1.166399
1.166399
1.166399
1.166399
1.166399
1.166399
1.166399
1.166399
1.166399
1.166399
1.166399
1.166399
1.166399
1.166399
1.166399
1.166399
1.166399
1.166399
1.166399
1.166399
1.2039063
1.1353737
1.1327747
1.1326782
1.1323644
1.1321961
1.1318706
1.1316652
1.1313389
1.1310419
1.130673
1.1302792
1.1298286
1.1293307
1.1287763
1.1281659
1.1274903
1.1267497
1.1259362
1.1250461
1.1240777
1.1230228
1.1218821
1.1206505
1.1193228
1.1178977
1.1163723
1.1147463
1.1130224
1.1112167
1.1093487
1.107482
1.105688
1.1040669
1.1027026
1.1016144
1.1007853
1.1003136
1.1003248
1.1008884
1.1023013
1.1051204
1.1099189
1.1169443
1.1258525
1.1356892
1.1451708
1.1531448
1.158987
1.1627092
1.1647698
1.1657618
1.1661783
1.1663313
1.1663805
1.1663945
1.166398
1.1663988
1.166399
1.166399
1.166399
1.166399
1.166399
1.166399
1.166399
1.166399
1.166399
1.166399
1.166399
1.166399
1.166399
1.166399
1.166399
1.166399
1.166399
1.166399
1.166399
1.166399
1.166399
1.166399
1.1875732
1.1223682
1.1201609
1.1201367
1.1198842
1.1198069
1.1195472
1.1194386
1.1191856
1.1189989
1.1187242
1.1184558
1.1181353
1.1177799
1.1173846
1.1169418
1.1164493
1.1159041
1.1153034
1.1146396
1.1139165
1.113127
1.1122771
1.1113695
1.1104076
1.1093981
1.1083496
1.1072745
1.1061841
1.1051339
1.1041607
1.103282
1.1025216
1.1019162
1.1014855
1.1012671
1.1013504
1.1016762
1.1022181
1.1030753
1.1045873
1.1073441
1.111959
1.1187169
1.1273077
1.1368095
1.1459707
1.1536675
1.1592956
1.1628723
1.1648464
1.1657936
1.16619
1.1663351
1.1663816
1.1663948
1.1663981
1.1663988
1.166399
1.166399
1.166399
1.166399
1.166399
1.166399
1.166399
1.166399
1.166399
1.166399
1.166399
1.166399
1.166399
1.166399
1.166399
1.166399
1.166399
1.166399
1.166399
1.166399
1.166399
1.166399
1.1737537
1.1117583
1.109738
1.1097686
1.1095341
1.109552
1.1093442
1.1093451
1.1091789
1.1091166
1.1089735
1.1088494
1.1086936
1.1085007
1.1082858
1.108044
1.1077755
1.1074775
1.1071507
1.1067927
1.1064091
1.1059895
1.105539
1.1050635
1.1045721
1.1040831
1.1036161
1.1031938
1.1028504
1.1025727
1.1023432
1.1021793
1.1021163
1.1022129
1.1024873
1.102907
1.1034412
1.1040549
1.1047452
1.1056324
1.1070754
1.1096794
1.1140695
1.1205429
1.1288074
1.1379666
1.1467985
1.1542091
1.1596158
1.1630416
1.1649259
1.1658267
1.1662022
1.1663391
1.1663828
1.1663951
1.1663981
1.1663988
1.166399
1.166399
1.166399
1.166399
1.166399
1.166399
1.166399
1.166399
1.166399
1.166399
1.166399
1.166399
1.166399
1.166399
1.166399
1.166399
1.166399
1.166399
1.166399
1.166399
1.166399
1.166399
1.1638072
1.104844
1.1028246
1.1029495
1.1027823
1.1028905
1.1027759
1.1028747
1.1028237
1.102861
1.1028509
1.1028439
1.1028177
1.1028021
1.102776
1.1027421
1.1027011
1.1026526
1.1026008
1.1025495
1.1025048
1.1024735
1.1024604
1.1024574
1.1024569
1.1024651
1.1025002
1.1025606
1.1026597
1.10281
1.1030578
1.1033964
1.1038214
1.1043275
1.1049014
1.1055253
1.1061717
1.1068174
1.1074789
1.1082934
1.1096235
1.1120657
1.1162351
1.1224279
1.1303644
1.1391728
1.1476635
1.1547759
1.1599508
1.1632186
1.165009
1.1658613
1.1662149
1.1663432
1.166384
1.1663954
1.1663982
1.1663988
1.166399
1.166399
1.166399
1.166399
1.166399
1.166399
1.166399
1.166399
1.166399
1.166399
1.166399
1.166399
1.166399
1.166399
1.166399
1.166399
1.166399
1.166399
1.166399
1.166399
1.166399
1.166399
1.1579313
1.1020596
1.0999452
1.100187
1.1000633
1.1002915
1.1002241
1.1004391
1.1004649
1.1006308
1.1007317
1.1008672
1.1009968
1.1011356
1.1012765
1.1014227
1.1015748
1.1017319
1.1018954
1.1020681
1.1022457
1.1024309
1.1026305
1.1028554
1.1031152
1.1034128
1.1037444
1.1041154
1.1045289
1.1049877
1.1054898
1.1060335
1.1066142
1.1072227
1.1078468
1.1084718
1.1090821
1.1096693
1.1102619
1.1109987
1.1122291
1.1145262
1.1184857
1.1243992
1.1319999
1.140443
1.1485755
1.1553732
1.1603036
1.1634046
1.1650961
1.1658974
1.1662281
1.1663475
1.1663852
1.1663957
1.1663983
1.1663988
1.166399
1.166399
1.166399
1.166399
1.166399
1.166399
1.166399
1.166399
1.166399
1.166399
1.166399
1.166399
1.166399
1.166399
1.166399
1.166399
1.166399
1.166399
1.166399
1.166399
1.166399
1.166399
1.15516
1.1023849
1.1002493
1.1005716
1.1004715
1.1007614
1.1007349
1.1010131
1.1010932
1.101325
1.1014962
1.1017078
1.1019223