/*--------------------------------*- C++ -*----------------------------------*\
  =========                 |
  \\      /  F ield         | OpenFOAM: The Open Source CFD Toolbox
   \\    /   O peration     | Website:  https://openfoam.org
    \\  /    A nd           | Version:  12
     \\/     M anipulation  |
\*---------------------------------------------------------------------------*/
FoamFile
{
    format      ascii;
    class       volScalarField;
    location    "0.001";
    object      T;
}
// * * * * * * * * * * * * * * * * * * * * * * * * * * * * * * * * * * * * * //

dimensions      [0 0 0 1 0 0 0];

internalField   nonuniform List<scalar> 
16000
(
315.80478
293.17297
294.38511
294.92306
295.22403
295.38642
295.55046
295.68482
295.81794
295.94071
296.06367
296.1842
296.30574
296.42803
296.55272
296.68031
296.8109
296.94614
297.08552
297.2299
297.37978
297.53554
297.69808
297.86803
298.04498
298.23049
298.42493
298.62952
298.84532
299.07343
299.31576
299.57484
299.85411
300.1578
300.49114
300.86037
301.27271
301.73515
302.25069
302.80798
303.35844
303.78231
303.87959
303.45847
302.49973
301.23298
300.00915
299.07685
298.50036
298.20198
298.07109
298.02198
298.00599
298.00144
298.00031
298.00006
298.00001
298
298
298
298
298
298
298
298
298
298
298
298
298
298
298
298
298
298
298
298
298
298
298
316.32999
292.37114
293.92673
294.57282
294.99727
295.19386
295.41815
295.58271
295.75119
295.89881
296.04685
296.18908
296.33061
296.47135
296.61317
296.75725
296.90294
297.05335
297.20652
297.36454
297.52745
297.69572
297.87067
298.05254
298.24071
298.43721
298.64221
298.85686
299.08209
299.31854
299.56779
299.83184
300.11354
300.4164
300.74526
301.10642
301.50837
301.96183
302.47712
303.0544
303.66195
304.19292
304.43301
304.12714
303.1798
301.79941
300.39345
299.29372
298.60266
298.24292
298.08494
298.02598
298.00698
298.00165
298.00034
298.00006
298.00001
298
298
298
298
298
298
298
298
298
298
298
298
298
298
298
298
298
298
298
298
298
298
298
316.2403
291.4929
293.52117
294.16234
294.74081
294.96755
295.26537
295.46409
295.67667
295.85343
296.03096
296.19898
296.36365
296.52618
296.68777
296.85095
297.0139
297.18167
297.35015
297.52356
297.70096
297.88286
298.0714
298.26595
298.46579
298.67362
298.88938
299.11392
299.34824
299.59276
299.84889
300.11833
300.40365
300.70758
301.03438
301.38983
301.7823
302.22402
302.73015
303.31073
303.95054
304.55921
304.91964
304.72468
303.80082
302.32493
300.75177
299.49248
298.69344
298.27741
298.09587
298.02888
298.00761
298.00176
298.00036
298.00006
298.00001
298
298
298
298
298
298
298
298
298
298
298
298
298
298
298
298
298
298
298
298
298
298
298
315.48682
290.62539
293.27841
293.73992
294.51661
294.74306
295.13238
295.34721
295.61431
295.82211
296.03127
296.22734
296.41669
296.60319
296.78607
296.97003
297.15166
297.33817
297.52307
297.7132
297.90624
298.10272
298.30588
298.51392
298.72618
298.94607
299.17322
299.408
299.65151
299.90426
300.16747
300.44261
300.73212
301.03824
301.36452
301.71621
302.10097
302.53118
303.024
303.59706
304.24855
304.90375
305.34807
305.23407
304.31928
302.75309
301.03241
299.63858
298.75408
298.29729
298.1008
298.02969
298.00762
298.00171
298.00033
298.00006
298.00001
298
298
298
298
298
298
298
298
298
298
298
298
298
298
298
298
298
298
298
298
298
298
298
314.03409
289.87751
293.20277
293.40772
294.3747
294.56774
295.05017
295.28624
295.59309
295.83018
296.06931
296.29263
296.50593
296.71636
296.92033
297.12514
297.32569
297.5309
297.73268
297.93981
298.14886
298.36029
298.57834
298.80016
299.02538
299.25763
299.49644
299.74173
299.99461
300.25576
300.52631
300.80743
301.10144
301.41052
301.73748
302.08738
302.46704
302.8887
303.3696
303.93226
304.58442
305.26296
305.7541
305.67172
304.73002
303.06143
301.20962
299.71341
298.77472
298.29853
298.09848
298.02813
298.00698
298.0015
298.00028
298.00005
298.00001
298
298
298
298
298
298
298
298
298
298
298
298
298
298
298
298
298
298
298
298
298
298
298
311.89909
289.33905
293.27105
293.25129
294.32989
294.48818
295.04847
295.29496
295.63918
295.90045
296.16425
296.41102
296.64578
296.87781
297.10128
297.32554
297.54435
297.76716
297.98585
298.20947
298.43436
298.66077
298.89336
299.12895
299.36747
299.61188
299.86213
300.11783
300.37997
300.64925
300.92675
301.21344
301.51134
301.82299
302.15056
302.49895
302.87411
303.28829
303.75942
304.3124
304.9621
305.64914
306.15335
306.04845
305.0261
303.23161
301.2649
299.70547
298.75057
298.27997
298.08903
298.02441
298.00579
298.00119
298.00021
298.00003
298
298
298
298
298
298
298
298
298
298
298
298
298
298
298
298
298
298
298
298
298
298
298
298
309.1648
289.04271
293.49878
293.18347
294.41303
294.53359
295.14615
295.39295
295.76611
296.04513
296.32649
296.59149
296.84453
297.09451
297.33524
297.57683
297.81292
298.05182
298.28714
298.52644
298.76674
299.00798
299.25451
299.5036
299.7554
300.01152
300.27262
300.5383
300.80936
301.08614
301.36969
301.66106
301.96199
302.27539
302.60317
302.94984
303.32041
303.72693
304.19061
304.73624
305.38453
306.07047
306.5463
306.36221
305.19535
303.24716
301.18729
299.61166
298.68301
298.24388
298.07394
298.01923
298.0043
298.00082
298.00013
298.00002
298
298
298
298
298
298
298
298
298
298
298
298
298
298
298
298
298
298
298
298
298
298
298
298
306.04998
288.99794
293.89464
293.20324
294.67176
294.68357
295.3452
295.59206
295.97524
296.26605
296.55814
296.83634
297.10473
297.36912
297.62493
297.88184
298.13443
298.3882
298.63959
298.89394
299.14925
299.40514
299.66502
299.9271
300.19176
300.45911
300.73013
301.00495
301.28427
301.56755
301.85581
302.15053
302.45329
302.76695
303.09376
303.4377
303.80322
304.20158
304.65946
305.20269
305.85351
306.52497
306.93853
306.5974
305.21545
303.09281
300.97503
299.43892
298.58002
298.19561
298.05578
298.01354
298.0028
298.00049
298.00007
298.00001
298
298
298
298
298
298
298
298
298
298
298
298
298
298
298
298
298
298
298
298
298
298
298
298
303.15057
289.20755
294.42555
293.53167
295.04786
294.99287
295.63651
295.87659
296.25935
296.55788
296.85591
297.14389
297.4255
297.70211
297.97142
298.24238
298.51111
298.77917
299.04601
299.31526
299.58533
299.85566
300.12849
300.40285
300.6796
300.95758
301.23733
301.52001
301.80631
302.09469
302.38613
302.68259
302.98564
303.29756
303.62119
303.96036
304.31975
304.71067
305.16455
305.71257
306.36533
307.01183
307.30018
306.7183
305.05501
302.75865
300.63876
299.20498
298.45513
298.14281
298.0376
298.00834
298.00154
298.00023
298.00003
298
298
298
298
298
298
298
298
298
298
298
298
298
298
298
298
298
298
298
298
298
298
298
298
298
301.25767
289.70943
295.01303
293.99411
295.47421
295.36669
295.99541
296.23194
296.60709
296.91189
297.21424
297.51074
297.80467
298.09316
298.37551
298.6603
298.94525
299.22792
299.50986
299.79416
300.07892
300.36342
300.6489
300.93467
301.22235
301.51
301.797
302.0857
302.37675
302.66821
302.96094
303.25712
303.55824
303.86609
304.18345
304.51461
304.86528
305.25061
305.70468
306.26439
306.91921
307.50692
307.59435
306.67239
304.68096
302.24781
300.20479
298.93626
298.32535
298.09316
298.02208
298.0043
298.00066
298.00007
298
298
298
298
298
298
298
298
298
298
298
298
298
298
298
298
298
298
298
298
298
298
298
298
298
298
300.33306
290.69374
295.65108
294.49351
295.93184
295.80137
296.40537
296.64447
297.00981
297.3215
297.62937
297.93506
298.24162
298.54322
298.83941
299.13879
299.44042
299.73868
300.03587
300.33532
300.63462
300.93287
301.23046
301.52653
301.82348
302.11912
302.41138
302.70347
302.99607
303.28765
303.5789
303.87182
304.16779
304.46851
304.77618
305.09596
305.43522
305.81679
306.28115
306.8607
307.50503
307.98168
307.75394
306.39635
304.07159
301.58564
299.71526
298.6646
298.20793
298.05271
298.01074
298.00167
298.00016
298
297.99999
298
298
298
298
298
298
298
298
298
298
298
298
298
298
298
298
298
298
298
298
298
298
298
298
298
299.90556
291.99014
296.31127
295.01365
296.40858
296.28174
296.85482
297.10456
297.46255
297.78363
298.10059
298.41793
298.73871
299.05566
299.36763
299.68311
300.00211
300.31721
300.63013
300.9445
301.25778
301.56887
301.87738
302.18202
302.48578
302.78665
303.08132
303.37321
303.66329
303.95082
304.23653
304.52202
304.80859
305.09814
305.39254
305.6976
306.02485
306.40915
306.8951
307.49238
308.09889
308.35319
307.68871
305.8313
303.23418
300.82503
299.22318
298.42117
298.11499
298.02447
298.00378
298.00028
297.99995
297.99998
298
298
298
298
298
298
298
298
298
298
298
298
298
298
298
298
298
298
298
298
298
298
298
298
298
298
299.77525
292.94637
296.93048
295.5613
296.90328
296.80038
297.34259
297.61067
297.96693
298.30091
298.63174
298.96433
299.30185
299.63686
299.96726
300.30073
300.63786
300.97076
301.29974
301.62818
301.95405
302.27615
302.59325
302.90359
303.21046
303.51236
303.80528
304.0924
304.37505
304.65332
304.92836
305.20151
305.47382
305.74739
306.02436
306.31179
306.6322
307.03022
307.54801
308.15266
308.65441
308.54065
307.30416
304.94861
302.22027
300.04329
298.78055
298.23114
298.05169
298.00788
298.00034
297.99976
297.99991
297.99998
298
298
298
298
298
298
298
298
298
298
298
298
298
298
298
298
298
298
298
298
298
298
298
298
298
298
299.85519
293.67314
297.48955
296.13317
297.41448
297.35726
297.87308
298.16622
298.52856
298.87985
299.22991
299.58229
299.93991
300.29595
300.64754
301.00085
301.3566
301.70738
302.05185
302.39249
302.7282
303.05797
303.37969
303.69118
303.9957
304.29268
304.57812
304.8547
305.12427
305.38737
305.64584
305.90131
306.15396
306.4058
306.6617
306.934
307.25782
307.68725
308.24187
308.80772
309.06176
308.40938
306.52601
303.77784
301.12761
299.328
298.42954
298.10242
298.01552
298.00014
297.9992
297.99973
297.99995
297.99999
298
298
298
298
298
298
298
298
298
298
298
298
298
298
298
298
298
298
298
298
298
298
298
298
298
298
300.12056
294.33306
298.02208
296.73295
297.95369
297.95728
298.45523
298.77909
299.15664
299.53077
299.90587
300.28318
300.66481
301.04474
301.4197
301.79388
302.16777
302.5349
302.89252
303.24183
303.58265
303.91449
304.23467
304.54058
304.83534
305.1196
305.39011
305.64911
305.89917
306.14101
306.37667
306.60847
306.83544
307.06004
307.29419
307.56077
307.90891
308.38298
308.94924
309.38226
309.18343
307.84413
305.34212
302.42349
300.08558
298.7454
298.19231
298.02974
297.99934
297.99781
297.99926
297.99985
297.99998
298
298
298
298
298
298
298
298
298
298
298
298
298
298
298
298
298
298
298
298
298
298
298
298
298
298
298
300.5219
294.98464
298.54741
297.36808
298.53368
298.61054
299.1026
299.46333
299.86592
300.26939
300.67526
301.08241
301.49154
301.89729
302.29617
302.69043
303.08001
303.45946
303.82513
304.17696
304.51551
304.84096
305.15064
305.44193
305.71771
305.97991
306.22669
306.46011
306.68374
306.89844
307.10547
307.30741
307.5031
307.69768
307.91567
308.19523
308.5883
309.10261
309.61061
309.72531
308.87758
306.78288
303.83568
301.0501
299.21127
298.3416
298.05639
297.99789
297.99487
297.99818
297.99963
297.99997
298
298
298
298
298
298
298
298
298
298
298
298
298
298
298
298
298
298
298
298
298
298
298
298
298
298
298
298
300.99214
295.65536
299.09289
298.0549
299.17332
299.33565
299.83586
300.24022
300.67722
301.11638
301.55774
301.99816
302.4366
302.86798
303.28866
303.69913
304.0987
304.48284
304.84766
305.19231
305.51785
305.82526
306.11271
306.37821
306.62449
306.85463
307.06855
307.26851
307.45888
307.64089
307.81422
307.98112
308.14278
308.31141
308.52845
308.84418
309.29201
309.79899
310.11112
309.6633
308.03019
305.26044
302.19076
299.8461
298.5747
298.10557
297.99661
297.98929
297.99591
297.99913
297.99993
298.00001
298.00001
298
298
298
298
298
298
298
298
298
298
298
298
298
298
298
298
298
298
298
298
298
298
298
298
298
298
298
301.49158
296.37542
299.67605
298.82057
299.89904
300.15877
300.68188
301.13646
301.61573
302.09565
302.57515
303.04952
303.51587
303.96901
304.40504
304.82317
305.22217
305.59849
305.94882
306.27238
306.57075
306.84581
307.09733
307.32474
307.53088
307.71966
307.89278
308.05287
308.20442
308.34883
308.48423
308.61303
308.74368
308.90115
309.14223
309.51311
309.99495
310.40284
310.26599
309.07107
306.61672
303.4517
300.65263
298.92306
298.19511
297.99872
297.97996
297.99152
297.99807
297.99984
298.00005
298.00002
298
298
298
298
298
298
298
298
298
298
298
298
298
298
298
298
298
298
298
298
298
298
298
298
298
298
298
298
302.02169
297.18145
300.33717
299.69788
300.74317
301.1099
301.67134
302.18233
302.70963
303.23289
303.74967
304.25398
304.74126
305.20606
305.64443
306.05495
306.43651
306.78691
307.10439
307.38927
307.64398
307.87147
308.07345
308.2512
308.40807
308.5485
308.67556
308.792
308.90131
309.0045
309.09947
309.19151
309.30236
309.47437
309.76755
310.19562
310.63113
310.73919
309.92459
307.85894
304.77141
301.62933
299.41823
298.34788
298.01108
297.96668
297.98368
297.99588
297.99963
298.00012
298.00005
298.00001
298
298
298
298
298
298
298
298
298
298
298
298
298
298
298
298
298
298
298
298
298
298
298
298
298
298
298
298
302.60954
298.10317
301.1343
300.72087
301.74409
302.22454
302.83969
303.41243
303.98976
304.55371
305.10005
305.62195
306.11398
306.571
306.98983
307.36966
307.71056
308.01247
308.27601
308.50338
308.69825
308.86471
309.00622
309.12588
309.2277
309.31638
309.39561
309.46759
309.53368
309.59393
309.64905
309.71288
309.82562
310.04448
310.40482
310.84194
311.10451
310.61666
308.96981
306.10158
302.76571
300.08673
298.59093
298.04775
297.95053
297.97082
297.99158
297.99907
298.00024
298.00013
298.00003
298
298
298
298
298
298
298
298
298
298
298
298
298
298
298
298
298
298
298
298
298
298
298
298
298
298
298
298
298
303.28947
299.19835
302.08437
301.93266
302.95176
303.54984
304.22979
304.86438
305.48497
306.07579
306.63147
307.14563
307.6137
308.03251
308.4012
308.72113
308.99476
309.22483
309.41464
309.56844
309.69115
309.78773
309.86283
309.92087
309.96649
310.00427
310.03738
310.06657
310.09042
310.10871
310.13003
310.18449
310.32887
310.61506
311.02583
311.38887
311.17798
309.94746
307.40865
304.0422
300.94578
298.96688
298.13299
297.93913
297.95151
297.98359
297.99761
298.00038
298.00029
298.00007
298
298
298
298
298
298
298
298
298
298
298
298
298
298
298
298
298
298
298
298
298
298
298
298
298
298
298
298
298
298
304.08315
300.53768
303.26147
303.39627
304.43045
305.143
305.88489
306.56629
307.2058
307.7913
308.31873
308.78476
309.18839
309.5306
309.81446
310.04475
310.22692
310.36646
310.46889
310.53986
310.58496
310.60942
310.61829
310.61671
310.60967
310.60108
310.59237
310.58156
310.56506
310.5464
310.54883
310.62115
310.82599
311.18759
311.58533
311.63834
310.79254
308.66838
305.43308
302.02503
299.53572
298.30911
297.94487
297.92638
297.96946
297.99403
298.00036
298.00059
298.00017
298.00002
298
298
298
298
298
298
298
298
298
298
298
298
298
298
298
298
298
298
298
298
298
298
298
298
298
298
298
298
298
298
305.03165
302.21951
304.75155
305.18656
306.24338
307.05057
307.82429
308.51028
309.11942
309.64631
310.09218
310.4599
310.75449
310.98246
311.15143
311.26958
311.3449
311.38469
311.39549
311.38324
311.35321
311.31017
311.25896
311.20469
311.15207
311.10369
311.05815
311.0103
310.95721
310.91196
310.91681
311.03875
311.32634
311.70232
311.98596
311.49425
309.85392
306.91385
303.35667
300.36635
298.62848
297.99369
297.89504
297.94604
297.9862
297.99957
298.00108
298.00039
298.00006
297.99999
298
298
298
298
298
298
298
298
298
298
298
298
298
298
298
298
298
298
298
298
298
298
298
298
298
298
298
298
298
298
306.29768
304.34981
306.64941
307.36421
308.41088
309.26771
310.00696
310.62407
311.13138
311.53371
311.8408
312.06342
312.21305
312.30115
312.33869
312.33585
312.30161
312.24359
312.16804
312.08003
311.98378
311.88312
311.78224
311.6856
311.59661
311.51543
311.4372
311.35553
311.27363
311.21916
311.25515
311.44788
311.80283
312.18983
312.03889
310.92394
308.44443
304.95569
301.52487
299.18545
298.13887
297.87964
297.91404
297.97038
297.99633
298.0015
298.00083
298.00018
298
297.99999
298
298
298
298
298
298
298
298
298
298
298
298
298
298
298
298
298
298
298
298
298
298
298
298
298
298
298
298
298
298
307.9278
307.0071
308.98769
309.93328
310.95513
311.69716
312.30574
312.76395
313.09399
313.31248
313.43795
313.48755
313.47689
313.41962
313.32745
313.21027
313.07619
312.93172
312.78182
312.63021
312.47985
312.33366
312.19503
312.06729
311.95148
311.84392
311.7364
311.62531
311.52642
311.48314
311.5717
311.86197
312.22453
312.44065
311.81766
309.9495
306.7862
303.10238
300.13021
298.47676
297.91985
297.87211
297.94005
297.98685
298.00088
298.0016
298.00051
298.00005
297.99998
297.99999
298
298
298
298
298
298
298
298
298
298
298
298
298
298
298
298
298
298
298
298
298
298
298
298
298
298
298
298
298
298
309.94007
310.23223
311.95103
312.8104
313.60703
314.15106
314.52466
314.74444
314.84328
314.84675
314.77786
314.6554
314.49468
314.30788
314.10461
313.89245
313.6773
313.46367
313.25487
313.05333
312.86121
312.68082
312.51491
312.36534
312.22997
312.10094
311.96891
311.83447
311.7284
311.7214
311.87271
312.21172
312.6199
312.44253
311.30293
308.74996
305.15779
301.61438
299.18613
298.10964
297.84544
297.89284
297.9641
297.99594
298.00233
298.00126
298.00026
297.99999
297.99998
298
298
298
298
298
298
298
298
298
298
298
298
298
298
298
298
298
298
298
298
298
298
298
298
298
298
298
298
298
298
298
312.46827
313.87887
315.05966
315.69463
316.15374
316.37498
316.44089
316.38515
316.24376
316.04256
315.80165
315.53586
315.25624
314.97089
314.68581
314.4054
314.13285
313.87044
313.61982
313.38244
313.1601
312.95503
312.7695
312.60379
312.45255
312.30462
312.15228
312.00314
311.8966
311.92672
312.16219
312.49019
312.82541
312.31657
310.64002
307.5799
303.8075
300.57952
298.63645
297.93421
297.83664
297.91525
297.97872
298.00032
298.0025
298.00092
298.00012
297.99997
297.99998
298
298
298
298
298
298
298
298
298
298
298
298
298
298
298
298
298
298
298
298
298
298
298
298
298
298
298
298
298
298
298
315.71205
317.51328
318.04925
318.25139
318.26899
318.12287
317.87999
317.57388
317.23148
316.87034
316.50252
316.13611
315.77657
315.42754
315.09145
314.76985
314.46357
314.17293
313.89805
313.63941
313.39852
313.17782
312.97924
312.80152
312.63652
312.47081
312.2976
312.13393
312.03085
312.07974
312.36738
312.71866
312.8402
312.09841
310.03926
306.70112
302.92042
299.97174
298.36317
297.85637
297.84393
297.93047
297.98621
298.00222
298.00237
298.00072
298.00005
297.99996
297.99999
298
298
298
298
298
298
298
298
298
298
298
298
298
298
298
298
298
298
298
298
298
298
298
298
298
298
298
298
298
298
298
319.97227
320.5017
320.38075
320.10202
319.72154
319.26957
318.79163
318.3067
317.82806
317.3629
316.91541
316.48775
316.08099
315.69552
315.33131
314.98801
314.66498
314.36125
314.07588
313.80851
313.56023
313.33337
313.12966
312.94679
312.77443
312.59762
312.41111
312.23772
312.14005
312.20978
312.48028
312.81229
312.8758
311.99836
309.79507
306.37158
302.61784
299.78399
298.27706
297.83035
297.84254
297.93318
297.98805
298.00289
298.00248
298.00071
298.00004
297.99996
297.99999
298
298
298
298
298
298
298
298
298
298
298
298
298
298
298
298
298
298
298
298
298
298
298
298
298
298
298
298
298
298
298
321.76766
321.99841
321.65964
321.03601
320.43007
319.81266
319.21554
318.64275
318.09833
317.58306
317.09679
316.63872
316.20784
315.80304
315.42323
315.06736
314.73431
314.42284
314.13181
313.86078
313.61066
313.38333
313.18015
312.99897
312.82916
312.65569
312.47599
312.31428
312.22869
312.31094
312.63911
313.06325
313.15195
312.39372
310.27402
306.86837
303.02836
300.02508
298.35952
297.84104
297.82731
297.92128
297.98405
298.00247
298.00288
298.00091
298.00007
297.99995
297.99998
298
298
298
298
298
298
298
298
298
298
298
298
298
298
298
298
298
298
298
298
298
298
298
298
298
298
298
298
298
298
298
279.29071
296.17306
298.6956
298.7805
298.55649
298.38464
298.22895
298.07935
297.93033
297.78179
297.6415
297.49708
297.36096
297.22074
297.08472
296.94678
296.81008
296.672
296.53354
296.39423
296.25265
296.10891
295.96157
295.81009
295.65401
295.49145
295.32058
295.13913
294.94492
294.73393
294.50125
294.24115
293.94552
293.60685
293.21944
292.78214
292.30777
291.83405
291.41327
291.13035
291.07233
291.30036
291.86472
292.72339
293.78713
294.9125
295.93993
296.75936
297.33058
297.67806
297.86234
297.94773
297.98242
297.99475
297.99859
297.99966
297.99993
297.99999
298
298
298
298
298
298
298
298
298
298
298
298
298
298
298
298
298
298
298
298
298
298
278.08147
295.64894
296.88576
296.88828
296.86909
296.86117
296.83224
296.78539
296.72517
296.66277
296.5859
296.50645
296.42
296.32858
296.23209
296.13007
296.02373
295.91151
295.79465
295.67235
295.54355
295.40867
295.266
295.11502
294.9551
294.78398
294.59974
294.40076
294.18481
293.94948
293.69136
293.40776
293.09357
292.74935
292.38378
292.00965
291.64553
291.31912
291.08521
290.9665
291.03227
291.35142
291.95427
292.82414
293.8778
294.98092
295.98862
296.79115
297.34953
297.6883
297.86734
297.9499
297.98325
297.99503
297.99868
297.99968
297.99993
297.99999
298
298
298
298
298
298
298
298
298
298
298
298
298
298
298
298
298
298
298
298
298
298
277.42624
294.6864
295.53707
295.55464
295.55068
295.54846
295.53592
295.51322
295.48042
295.4441
295.39639
295.34474
295.28682
295.22191
295.15141
295.0731
294.98895
294.8968
294.79795
294.69118
294.57562
294.45179
294.31801
294.17386
294.01885
293.85114
293.66933
293.47175
293.25658
293.02344
292.77467
292.51368
292.24234
291.96112
291.68264
291.42425
291.21436
291.0564
290.95348
290.9661
291.12483
291.49139
292.10848
292.96929
294.00075
295.07609
296.05506
296.83362
297.374
297.70088
297.87307
297.95222
297.98408
297.99529
297.99875
297.9997
297.99994
297.99999
298
298
298
298
298
298
298
298
298
298
298
298
298
298
298
298
298
298
298
298
298
298
276.84792
293.54648
294.17407
294.1879
294.19891
294.21185
294.2112
294.20273
294.18297
294.1629
294.13018
294.09591
294.05429
294.00734
293.954
293.89344
293.82661
293.75196
293.67009
293.58038
293.4818
293.37501
293.25837
293.13191
292.99563
292.84886
292.69199
292.52577
292.3507
292.16345
291.96714
291.76856
291.57977
291.4102
291.26448
291.14004
291.04634
291.00617
291.02416
291.10641
291.30599
291.6852
292.29321
293.13102
294.13216
295.17498
296.1235
296.87672
297.39843
297.71325
297.87863
297.95443
297.98485
297.99553
297.99882
297.99972
297.99994
297.99999
298
298
298
298
298
298
298
298
298
298
298
298
298
298
298
298
298
298
298
298
298
298
276.30999
292.37024
292.9058
292.92904
292.9434
292.95835
292.96249
292.95994
292.94929
292.93744
292.91669
292.89411
292.86599
292.83378
292.79574
292.75238
292.70344
292.64869
292.58762
292.5211
292.44775
292.36915
292.28429
292.1928
292.09436
291.98859
291.87581
291.75736
291.64347
291.537
291.43819
291.34333
291.25002
291.17151
291.12305
291.11011
291.12275
291.15651
291.22017
291.33232
291.54015
291.91013
292.49605
293.30334
294.26967
295.2773
296.19373
296.92067
297.42323
297.72575
297.88424
297.95667
297.98564
297.99577
297.99889
297.99974
297.99994
297.99999
298
298
298
298
298
298
298
298
298
298
298
298
298
298
298
298
298
298
298
298
298
298
275.91666
291.34008
291.83799
291.86773
291.88803
291.9088
291.92028
291.92727
291.92623
291.92752
291.91872
291.91147
291.89896
291.88305
291.86319
291.84015
291.81313
291.78224
291.74748
291.70956
291.66645
291.62173
291.57619
291.53058
291.48504
291.43976
291.39389
291.34963
291.3021
291.25369
291.2152
291.19279
291.19151
291.20967
291.23628
291.27871
291.33467
291.40053
291.48006
291.5948
291.79387
292.14548
292.70506
293.48001
294.41063
295.38234
296.26596
296.96593
297.4488
297.73867
297.89004
297.95898
297.98646
297.99603
297.99896
297.99975
297.99995
297.99999
298
298
298
298
298
298
298
298
298
298
298
298
298
298
298
298
298
298
298
298
298
298
275.82394
290.61578
291.12273
291.16087
291.18201
291.21448
291.22764
291.24805
291.2523
291.26971
291.2713
291.27922
291.28412
291.28723
291.28934
291.28984
291.28911
291.28786
291.28546
291.28217
291.27786
291.27103
291.25842
291.24259
291.22907
291.22171
291.21962
291.22536
291.23783
291.26199
291.2903
291.32389
291.36701
291.41967
291.48025
291.54642
291.61526
291.68527
291.76216
291.86879
292.05438
292.38633
292.91962
293.6623
294.55678
295.49166
296.34132
297.01322
297.47553
297.75216
297.8961
297.96139
297.98731
297.99629
297.99903
297.99977
297.99995
297.99999
298
298
298
298
298
298
298
298
298
298
298
298
298
298
298
298
298
298
298
298
298
298
276.1709
290.27251
290.81089
290.84949
290.87437
290.90748
290.92917
290.95391
290.96768
290.98985
291.00272
291.02024
291.03663
291.05222
291.06873
291.08535
291.1021
291.11945
291.13736
291.15527
291.17505
291.19745
291.22353
291.25296
291.28429
291.31517
291.34907
291.3867
291.42926
291.47703
291.53008
291.58788
291.64986
291.71504
291.78212
291.84943
291.91533
291.97979
292.04954
292.14727
292.32047
292.63422
293.14209
293.85247
294.70993
295.60654
296.42061
297.06299
297.50365
297.76634
297.90245
297.96392
297.9882
297.99657
297.99911
297.99979
297.99996
297.99999
298
298
298
298
298
298
298
298
298
298
298
298
298
298
298
298
298
298
298
298
298
298
276.90638
290.28027
290.83329
290.8673
290.89682
290.93534
290.96277
290.9944
291.01737
291.04705
291.07049
291.09664
291.12279
291.14963
291.17702
291.2053
291.23462
291.26507
291.29683
291.33043
291.36509
291.40215
291.44131
291.4826
291.52669
291.57349
291.62274
291.6748
291.7297
291.78719
291.84692
291.90847
291.97123
292.03449
292.09749
292.15936
292.21937
292.27814
292.3423
292.43325
292.59595
292.89262
293.37526
294.0526
294.87155
295.72795
296.50444
297.11559
297.53332
297.78127
297.90912
297.96656
297.98912
297.99686
297.99919
297.99981
297.99996
297.99999
298
298
298
298
298
298
298
298
298
298
298
298
298
298
298
298
298
298
298
298
298
298
277.90055
290.52894
291.07381
291.10977
291.13794
291.17836
291.2058
291.24011
291.2646
291.29741
291.32437
291.35471
291.38549
291.41709
291.44978
291.48366
291.51884
291.55543
291.59352
291.63339
291.67447
291.71764
291.7626
291.80908
291.85761
291.90813
291.96014
292.01376
292.06895
292.12542
292.18289
292.24105
292.29955
292.35807
292.41622
292.47354
292.52956
292.58489
292.6455
292.73123
292.88438
293.16426
293.62121
294.2643
295.04286
295.85677
296.59338
297.17132
297.56469
297.79702
297.91614
297.96933
297.99009
297.99716
297.99927
297.99983
297.99997
297.99999
298
298
298
298
298
298
298
298
298
298
298
298
298
298
298
298
298
298
298
298
298
298
279.02663
290.89598
291.41785
291.45131
291.47919
291.51855
291.54666
291.58097
291.60689
291.63983
291.66862
291.69991
291.73193
291.76487
291.7989
291.83411
291.87058
291.90837
291.9475
291.98825
292.02999
292.07347
292.11849
292.16463
292.21234
292.26155
292.31179
292.36311
292.41554
292.46891
292.52304
292.57777
292.63292
292.68829
292.74359
292.79841
292.85223
292.90548
292.96346
293.04451
293.18832
293.45122
293.88172
294.48905
295.22503
295.99384
296.68797
297.23049
297.59792
297.81364
297.92352
297.97224
297.9911
297.99747
297.99936
297.99985
297.99997
297.99999
298
298
298
298
298
298
298
298
298
298
298
298
298
298
298
298
298
298
298
298
298
298
280.20651
291.30055
291.7944
291.82446
291.85114
291.88875
291.91656
291.95
291.97624
292.00837
292.03765
292.06876
292.10069
292.13354
292.16744
292.20245
292.23863
292.27603
292.31463
292.35471
292.39566
292.43813
292.482
292.52681
292.573
292.6205
292.66898
292.71842
292.76891
292.82036
292.87261
292.92556
292.97902
293.0328
293.08656
293.13984
293.19209
293.24359
293.29909
293.3755
293.5099
293.75548
294.15858
294.72843
295.41932
296.14006
296.78874
297.29337
297.63311
297.83117
297.93127
297.97527
297.99215
297.99779
297.99944
297.99987
297.99997
298
298
298
298
298
298
298
298
298
298
298
298
298
298
298
298
298
298
298
298
298
298
298
281.40863
291.70963
292.17888
292.20553
292.23092
292.26671
292.29409
292.32661
292.35301
292.38429
292.41383
292.44472
292.47648
292.50919
292.54293
292.57776
292.61372
292.65086
292.68914
292.72883
292.76942
292.81138
292.85473
292.89898
292.94453
292.99134
293.03918
293.08793
293.1377
293.1884
293.23988
293.29199
293.34453
293.39724
293.44977
293.50166
293.55233
293.60197
293.6549
293.72658
293.85141
294.07919
294.45379
294.98413
295.62705
296.29632
296.89624
297.36025
297.67037
297.84963
297.93938
297.97842
297.99323
297.99812
297.99953
297.9999
297.99998
298
298
298
298
298
298
298
298
298
298
298
298
298
298
298
298
298
298
298
298
298
298
298
282.62342
292.11851
292.57257
292.59632
292.62039
292.65467
292.6817
292.71362
292.7404
292.77121
292.8012
292.83225
292.86423
292.89721
292.93125
292.96638
293.00266
293.04012
293.07871
293.11866
293.15958
293.2018
293.24536
293.28985
293.33556
293.38245
293.43038
293.47914
293.52879
293.57925
293.63034
293.68187
293.73362
293.7853
293.83655
293.88691
293.93585
293.98347
294.03363
294.1004
294.2154
294.42477
294.76949
295.25798
295.8496
296.46356
297.011
297.43134
297.70977
297.86904
297.94785
297.98169
297.99434
297.99845
297.99962
297.99992
297.99998
298
298
298
298
298
298
298
298
298
298
298
298
298
298
298
298
298
298
298
298
298
298
298
283.86396
292.52674
292.98044
293.00273
293.02556
293.05879
293.08577
293.11754
293.14505
293.17586
293.20657
293.2382
293.27081
293.30448
293.33924
293.37513
293.41218
293.45045
293.48984
293.53055
293.57232
293.61532
293.65959
293.70482
293.75118
293.7986
293.847
293.89615
293.946
293.99646
294.04734
294.09842
294.14944
294.2001
294.25003
294.29878
294.34582
294.39122
294.43838
294.49996
294.60471
294.79484
295.10807
295.55194
296.08846
296.64275
297.13352
297.50687
297.75136
297.88938
297.95665
297.98506
297.99548
297.99879
297.99971
297.99994
297.99999
298
298
298
298
298
298
298
298
298
298
298
298
298
298
298
298
298
298
298
298
298
298
298
285.29068
292.92939
293.40653
293.42862
293.45003
293.48246
293.50957
293.54136
293.56978
293.60087
293.6324
293.66485
293.69837
293.73302
293.76883
293.80582
293.84402
293.88347
293.92409
293.96599
294.00905
294.05331
294.09878
294.14525
294.19275
294.24122
294.29057
294.34057
294.39109
294.44198
294.49305
294.54403
294.59461
294.64447
294.69323
294.74041
294.78551
294.82852
294.87241
294.92844
295.02239
295.19227
295.47206
295.86814
296.34519
296.83485
297.26429