/*--------------------------------*- C++ -*----------------------------------*\
  =========                 |
  \\      /  F ield         | OpenFOAM: The Open Source CFD Toolbox
   \\    /   O peration     | Website:  https://openfoam.org
    \\  /    A nd           | Version:  12
     \\/     M anipulation  |
\*---------------------------------------------------------------------------*/
FoamFile
{
    format      ascii;
    class       volScalarField;
    location    "750";
    object      alphat;
}
// * * * * * * * * * * * * * * * * * * * * * * * * * * * * * * * * * * * * * //

dimensions      [1 -1 -1 0 0 0 0];

internalField   nonuniform List<scalar> 
16200
(
0.0004828400757
0.001645645917
0.002738856937
0.003592764731
0.003861355439
0.003408531217
0.002515482594
0.001383153332
0.0007103609614
0.0001966273309
6.118208119e-06
2.674858936e-06
2.424565006e-06
2.388314792e-06
1.888037987e-06
1.627017861e-06
1.42021778e-06
1.274554051e-06
1.180252659e-06
1.119727679e-06
1.085227412e-06
1.073832566e-06
1.08261202e-06
1.109775884e-06
1.154910948e-06
1.219250368e-06
1.306098534e-06
1.421512371e-06
1.575698199e-06
1.785820301e-06
2.081210431e-06
2.513102346e-06
3.173327988e-06
4.233061364e-06
6.029950695e-06
9.26586649e-06
1.545636529e-05
2.794709344e-05
5.422525883e-05
0.0001112384195
0.0002377778868
0.0005234936046
0.00116394776
0.001165520437
0.001165970672
0.001165528822
0.001164523241
0.001164231731
0.001164240754
0.001164345065
0.001164464677
0.001164573105
0.001164665724
0.001164746497
0.001164822371
0.001164902833
0.001164997432
0.001165125386
0.001165295113
0.001165570261
0.0004717672862
0.001594467033
0.002624431362
0.003377443835
0.003483217841
0.002915878339
0.002042059882
0.001013599472
0.0005596499641
4.324028702e-05
2.729458744e-06
2.233114721e-06
2.034388704e-06
1.998336695e-06
1.68003996e-06
1.44441175e-06
1.257438707e-06
1.125878351e-06
1.042423021e-06
9.901457243e-07
9.616421858e-07
9.539313033e-07
9.641350006e-07
9.904211726e-07
1.032309934e-06
1.090872406e-06
1.169144212e-06
1.272783839e-06
1.411393753e-06
1.601044433e-06
1.868808227e-06
2.261276224e-06
2.861247614e-06
3.822466308e-06
5.44760856e-06
8.365172296e-06
1.393194162e-05
2.514318565e-05
4.870039648e-05
9.976765567e-05
0.0002130447279
0.0004687276779
0.001053700068
0.001165361055
0.001165855764
0.001165537325
0.001164528385
0.001164231455
0.001164240331
0.001164346698
0.001164468931
0.001164579779
0.001164674344
0.001164756418
0.001164833153
0.001164913554
0.001165008032
0.001165134948
0.001165304621
0.001165583364
0.0004622594274
0.001546717953
0.002515249561
0.003167268071
0.003114439074
0.002460347815
0.001573215405
0.00073995404
0.0003748545552
1.428156413e-05
2.107802001e-06
1.868769019e-06
1.707903661e-06
1.673666239e-06
1.484152532e-06
1.273311008e-06
1.106127264e-06
9.885378277e-07
9.154642765e-07
8.7078462e-07
8.474694053e-07
8.424557881e-07
8.529105453e-07
8.770000817e-07
9.142614661e-07
9.65752064e-07
1.034455478e-06
1.125944407e-06
1.249632584e-06
1.420968906e-06
1.665252661e-06
2.025013699e-06
2.575021859e-06
3.453766131e-06
4.933742757e-06
7.580240115e-06
1.261209451e-05
2.271560667e-05
4.388685569e-05
8.965667532e-05
0.0001909015993
0.0004188111955
0.000938937823
0.001165287771
0.001165783983
0.001165552583
0.001164546385
0.001164242841
0.001164248787
0.001164354518
0.001164477235
0.001164588967
0.001164684418
0.001164767153
0.001164844304
0.001164924554
0.001165018772
0.001165144801
0.001165314436
0.001165596857
0.0004551862639
0.001502535659
0.002407949193
0.002924580368
0.002742688773
0.002049206361
0.001120537105
0.000546333446
0.000185414544
5.184766146e-06
1.755010606e-06
1.579268801e-06
1.448158619e-06
1.415741032e-06
1.312389646e-06
1.122803652e-06
9.728055592e-07
8.674824178e-07
8.033820913e-07
7.651415911e-07
7.460504241e-07
7.429801408e-07
7.531887028e-07
7.749773395e-07
8.08060376e-07
8.536735896e-07
9.149839943e-07
9.97774226e-07
1.111589806e-06
1.271580701e-06
1.501741207e-06
1.841543753e-06
2.359939099e-06
3.184854014e-06
4.568577967e-06
7.034820126e-06
1.171251097e-05
2.108788435e-05
4.070273698e-05
8.303978902e-05
0.0001765293647
0.0003866079039
0.0008652265323
0.001165314762
0.00116577019
0.001165573624
0.001164579727
0.001164269299
0.001164269339
0.001164371162
0.001164491605
0.001164602135
0.001164696985
0.001164779397
0.001164856301
0.001164936105
0.001165029819
0.001165154992
0.001165324438
0.00116561001
0.0004491414347
0.001461146948
0.002303930948
0.002686357163
0.002383561392
0.001692751619
0.00080461997
0.0004159891669
4.428628174e-05
2.036724828e-06
1.478249213e-06
1.33785532e-06
1.231157704e-06
1.20135168e-06
1.154940356e-06
9.853712763e-07
8.51634491e-07
7.579670951e-07
7.021613756e-07
6.696813408e-07
6.542187664e-07
6.52694129e-07
6.625712667e-07
6.824110355e-07
7.122021108e-07
7.534710493e-07
8.097160947e-07
8.870668787e-07
9.952497732e-07
1.149106463e-06
1.371450303e-06
1.699211916e-06
2.196702784e-06
2.983653753e-06
4.296968403e-06
6.628855072e-06
1.103964541e-05
1.986106546e-05
3.827943419e-05
7.794676326e-05
0.0001653320603
0.0003612091355
0.0008064003436
0.001165416558
0.001165801407
0.001165599407
0.001164624739
0.001164307104
0.001164298942
0.001164394363
0.001164510433
0.001164618178
0.00116471131
0.001164792665
0.001164868855
0.00116494801
0.001165041102
0.001165165485
0.001165334732
0.001165623251
0.000443740807
0.001422082111
0.002201156154
0.002447582772
0.002035582612
0.001327026811
0.0005958540389
0.0002879332818
1.68712685e-05
1.529602096e-06
1.254091663e-06
1.139681838e-06
1.052392705e-06
1.024890096e-06
1.01343358e-06
8.617890101e-07
7.427480167e-07
6.597820166e-07
6.115032293e-07
5.842452632e-07
5.721381636e-07
5.722067774e-07
5.821579594e-07
6.008601109e-07
6.286411149e-07
6.674271507e-07
7.211594895e-07
7.963488579e-07
9.028538103e-07
1.055217228e-06
1.275350504e-06
1.59837292e-06
2.085341811e-06
2.8503637e-06
4.120123505e-06
6.366286907e-06
1.060432735e-05
1.906366355e-05
3.66915103e-05
7.457229012e-05
0.0001578151888
0.0003439184136
0.000765794142
0.001165579829
0.001165872552
0.001165632767
0.001164678517
0.001164354375
0.001164336462
0.001164423469
0.001164533367
0.00116463692
0.00116472732
0.001164806934
0.001164881975
0.001164960276
0.001165052641
0.001165176284
0.001165345313
0.001165636495
0.0004383002371
0.001384322312
0.002097770405
0.002198023055
0.001706094867
0.0009722360665
0.0004473779135
0.0001713954839
5.641064351e-06
1.266392149e-06
1.067577457e-06
9.730821192e-07
9.011729025e-07
8.759813755e-07
8.841691827e-07
7.493514019e-07
6.442632511e-07
5.717459054e-07
5.308339953e-07
5.087603181e-07
5.001003717e-07
5.020241788e-07
5.125370977e-07
5.309011157e-07
5.578843137e-07
5.956708564e-07
6.49090936e-07
7.247231391e-07
8.324519906e-07
9.865447894e-07
1.208869312e-06
1.532459883e-06
2.016569734e-06
2.77153173e-06
4.017498052e-06
6.213429395e-06
1.034685729e-05
1.85817198e-05
3.570735082e-05
7.24224719e-05
0.000152888829
0.0003322731154
0.0007377523945
0.001165786739
0.001165974045
0.001165681499
0.001164738404
0.001164408715
0.00116438009
0.001164457231
0.001164559587
0.001164657848
0.001164744707
0.001164822027
0.001164895573
0.001164972851
0.001165064427
0.001165187382
0.001165356203
0.00116564981
0.0004320603973
0.001345943644
0.00199019544
0.001943956159
0.00141033568
0.0007052925379
0.000346302941
5.626726839e-05
2.336164651e-06
1.066951258e-06
9.090396846e-07
8.308176892e-07
7.717885005e-07
7.49367383e-07
7.671551373e-07
6.484291103e-07
5.567205499e-07
4.943827119e-07
4.60595898e-07
4.435233236e-07
4.382244278e-07
4.420975629e-07
4.535353306e-07
4.722748393e-07
4.993676514e-07
5.381237405e-07
5.930573374e-07
6.711595865e-07
7.823479987e-07
9.407829309e-07
1.167460841e-06
1.496471682e-06
1.984212385e-06
2.739309797e-06
3.978550958e-06
6.15500478e-06
1.024308179e-05
1.837365276e-05
3.524992147e-05
7.134609437e-05
0.0001502431044
0.000325618176
0.0007208597171
0.001166022249
0.001166096395
0.001165739827
0.001164801952
0.001164467995
0.001164428249
0.001164494573
0.001164588401
0.001164680536
0.001164763226
0.001164837811
0.001164909587
0.001164985709
0.001165076456
0.001165198778
0.001165367411
0.001165663201
0.000425162464
0.001304871903
0.001855218765
0.001687702133
0.001131619954
0.0005226264066
0.0002627300704
3.277119796e-05
1.44699912e-06
9.03299392e-07
7.77443275e-07
7.118778326e-07
6.63255663e-07
6.434411493e-07
6.640027077e-07
5.598860713e-07
4.804084014e-07
4.275261848e-07
4.003119685e-07
3.878560445e-07
3.85723386e-07
3.916048783e-07
4.040921435e-07
4.239196355e-07
4.525548522e-07
4.932456176e-07
5.510128697e-07
6.330007877e-07
7.492005443e-07
9.138287995e-07
1.147909845e-06
1.485229799e-06
1.981854691e-06
2.74536079e-06
3.991711654e-06
6.173602998e-06
1.026436222e-05
1.838807e-05
3.521981207e-05
7.113930354e-05
0.0001494419373
0.0003229927413
0.0007129553818
0.001166273051
0.001166230953
0.001165802302
0.001164867241
0.001164530327
0.001164479455
0.001164534444
0.001164619112
0.001164704549
0.001164782616
0.001164854143
0.001164923946
0.001164998817
0.001165088723
0.001165210472
0.001165378944
0.001165676691
0.000417447484
0.001260935555
0.001703658035
0.001435721396
0.0008376613369
0.000393792095
0.0001861691877
1.764590194e-05
1.12105432e-06
7.685701396e-07
6.672003719e-07
6.11876581e-07
5.715676076e-07
5.541943939e-07
5.732845633e-07
4.823995459e-07
4.14109908e-07
3.700387088e-07
3.489318968e-07
3.407925654e-07
3.416910755e-07
3.493971103e-07
3.637786649e-07
3.852572398e-07
4.159370003e-07
4.594254134e-07
5.209666112e-07
6.078489216e-07
7.302111799e-07
9.024825947e-07
1.145957796e-06
1.494507202e-06
2.004425706e-06
2.783311948e-06
4.048466251e-06
6.256937578e-06
1.0391314e-05
1.859147128e-05
3.55542125e-05
7.167639849e-05
0.0001502212953
0.000323822765
0.0007127611284
0.001166528479
0.001166370655
0.001165864342
0.001164932738
0.001164594134
0.001164532437
0.001164575929
0.001164651105
0.001164729495
0.001164802644
0.001164870894
0.001164938588
0.001165012149
0.001165101223
0.001165222467
0.001165390809
0.001165690291
0.0004087258503
0.001213741941
0.001541352522
0.00119640783
0.0006073330459
0.000302453253
0.0001228701136
1.194138567e-05
9.201507797e-07
6.558832703e-07
5.740654333e-07
5.270774227e-07
4.934978857e-07
4.784131781e-07
4.936648021e-07
4.148786705e-07
3.569373309e-07
3.211347763e-07
3.057169122e-07
3.015866878e-07
3.05033391e-07
3.151301247e-07
3.313661861e-07
3.548535039e-07
3.881099896e-07
4.350162401e-07
5.009992763e-07
5.935122287e-07
7.229202129e-07
9.039961917e-07
1.158498713e-06
1.520702338e-06
2.047584557e-06
2.847680316e-06
4.141474416e-06
6.394431786e-06
1.060730469e-05
1.895518713e-05
3.619940045e-05
7.284971107e-05
0.0001523543681
0.0003276132319
0.0007191696967
0.001166780246
0.001166509888
0.001165922198
0.001164997309
0.001164658147
0.001164586133
0.001164618239
0.001164683839
0.001164755026
0.001164823101
0.001164887948
0.001164953455
0.001165025682
0.001165113954
0.001165234764
0.001165403009
0.001165704012
0.0003986389314
0.001162267379
0.001374398651
0.0009582151616
0.0004591710171
0.0002380381984
5.896373277e-05
6.612757664e-06
7.474641948e-07
5.61797132e-07
4.951332371e-07
4.551279732e-07
4.270735366e-07
4.142173563e-07
4.245767842e-07
3.567941177e-07
3.083435573e-07
2.801691698e-07
2.699022245e-07
2.690588308e-07
2.753711502e-07
2.875264328e-07
3.056936736e-07
3.314813518e-07
3.677245426e-07
4.185080102e-07
4.894231738e-07
5.881227615e-07
7.252725654e-07
9.160964178e-07
1.182972598e-06
1.560847214e-06
2.107765312e-06
2.933998278e-06
4.264845556e-06
6.577780299e-06
1.089959382e-05
1.945776966e-05
3.711596214e-05
7.458138447e-05
0.0001556787388
0.00033401176
0.0007313952588
0.001167022272
0.001166644442
0.001165972978
0.001165060133
0.001164721387
0.001164639692
0.001164660731
0.001164716864
0.001164780849
0.001164843805
0.001164905204
0.001164968499
0.001165039394
0.001165126914
0.001165247361
0.001165415546
0.001165717863
0.0003868325944
0.001104076912
0.001201509149
0.0007273947765
0.0003587946586
0.0001855781005
3.025030081e-05
3.397878674e-06
6.090752086e-07
4.82960324e-07
4.284006785e-07
3.943272089e-07
3.708815023e-07
3.601124544e-07
3.652478923e-07
3.073057913e-07
2.674369113e-07
2.461671758e-07
2.404408734e-07
2.426877763e-07
2.513925578e-07
2.654735091e-07
2.856924166e-07
3.14045015e-07
3.536020774e-07
4.086080985e-07
4.848189379e-07
5.901268903e-07
7.355650115e-07
9.368948483e-07
1.217240932e-06
1.612446948e-06
2.181961688e-06
3.038505546e-06
4.413660113e-06
6.800140857e-06
1.125786086e-05
2.008212985e-05
3.82729217e-05
7.681084394e-05
0.0001600688842
0.0003427470566
0.0007488338119
0.00116725033
0.001166771305
0.001166014551
0.001165120647
0.001164783121
0.001164692453
0.001164702889
0.001164749813
0.001164806717
0.001164864605
0.001164922574
0.001164983676
0.001165053271
0.001165140099
0.001165260253
0.001165428422
0.001165731851
0.0003737165141
0.001038123454
0.001026349347
0.0005482599832
0.0002802905919
0.0001390420023
1.841787013e-05
1.873096016e-06
5.030462105e-07
4.157437407e-07
3.722841673e-07
3.429918336e-07
3.23180557e-07
3.141781599e-07
3.141880813e-07
2.650901479e-07
2.330519962e-07
2.180332044e-07
2.159146483e-07
2.213139439e-07
2.320789236e-07
2.480581355e-07
2.70485293e-07
3.016386446e-07
3.447611132e-07
4.042373631e-07
4.860038362e-07
5.982313683e-07
7.52375926e-07
9.648075869e-07
1.259584925e-06
1.673395295e-06
2.267641326e-06
3.158057326e-06
4.583859094e-06
7.055980187e-06
1.167395997e-05
2.08151082e-05
3.964693671e-05
7.949320982e-05
0.0001654329208
0.0003536220586
0.0007710484934
0.001167461702
0.001166888459
0.001166045452
0.001165178486
0.001164842828
0.001164743927
0.001164744319
0.001164782396
0.001164832436
0.001164885378
0.00116493999
0.001164998952
0.0011650673
0.00116515351
0.00116527344
0.001165441637
0.00116574598
0.0003602836323
0.0009665561557
0.0008360715797
0.000424787861
0.000228858887
0.0001016859024
1.295189695e-05
1.087040848e-06
4.196413832e-07
3.578589566e-07
3.228900063e-07
2.984847967e-07
2.817432346e-07
2.744367147e-07
2.699604894e-07
2.290556375e-07
2.04283059e-07
1.948973022e-07
1.962511275e-07
2.040420315e-07
2.166706055e-07
2.345879041e-07
2.59381125e-07
2.935221481e-07
3.403829877e-07
4.0448854e-07
4.919816855e-07
6.113455254e-07
7.745019788e-07
9.984884553e-07
1.308284452e-06
1.741900039e-06
2.362658583e-06
3.29001037e-06
4.772075864e-06
7.340797372e-06
1.214142446e-05
2.164652447e-05
4.122037481e-05
8.259523821e-05
0.0001717037684
0.0003664942759
0.0007977251993
0.001167654843
0.001166994673
0.001166069096
0.001165233437
0.001164900159
0.001164793764
0.001164784729
0.001164814394
0.001164857851
0.001164906024
0.001164957394
0.001165014298
0.00116508147
0.001165167145
0.001165286919
0.001165455197
0.001165760252
0.0003470828157
0.0008874089419
0.0006824763427
0.0003517591998
0.0001947194455
5.73779299e-05
8.585908401e-06
6.862244334e-07
3.534205814e-07
3.078617547e-07
2.795789713e-07
2.59367578e-07
2.457817408e-07
2.401258066e-07
2.319698323e-07
1.986256601e-07
1.805167431e-07
1.757125152e-07
1.804016424e-07
1.901967327e-07
2.045981844e-07
2.245262196e-07
2.518130803e-07
2.890626809e-07
3.397588458e-07
4.085781096e-07
5.018947941e-07
6.285312553e-07
8.009079322e-07
1.036780166e-06
1.362133649e-06
1.816435565e-06
2.465202472e-06
3.432158629e-06
4.975545217e-06
7.650978598e-06
1.265521177e-05
2.256869719e-05
4.298035429e-05
8.609331468e-05
0.0001788348073
0.0003812661564
0.0008286508551
0.001167829085
0.001167089075
0.001166090867
0.001165285401
0.001164954901
0.001164841729
0.001164823912
0.001164845644
0.001164882847
0.001164926468
0.001164974741
0.001165029692
0.001165095773
0.001165181003
0.001165300689
0.001165469113
0.001165774668
0.0003366492646
0.0007996245906
0.0005599642767
0.0002961265305
0.0001640124185
3.206586145e-05
4.14160807e-06
4.709710512e-07
3.005493996e-07
2.655651906e-07
2.425391279e-07
2.256509529e-07
2.146325863e-07
2.106475778e-07
1.996007199e-07
1.732020773e-07
1.611374795e-07
1.606178538e-07
1.677191686e-07
1.792697949e-07
1.954205139e-07
2.174275811e-07
2.472862785e-07
2.87698209e-07
3.422633385e-07
4.158231515e-07
5.150001763e-07
6.489777699e-07
8.30701694e-07
1.078698272e-06
1.420012299e-06
1.89571554e-06
2.573761784e-06
3.582683937e-06
5.192027218e-06
7.983670017e-06
1.321147635e-05
2.357601229e-05
4.491787993e-05
8.997164345e-05
0.0001867959479
0.0003978763266
0.0008636935219
0.001167984408
0.001167170976
0.001166110914
0.001165334364
0.001165006942
0.001164887681
0.001164861732
0.001164876034
0.001164907339
0.001164946653
0.001164991996
0.001165045117
0.001165110205
0.001165195081
0.00116531475
0.001165483389
0.001165789226
0.0003322505388
0.0007060997508
0.0004679155908
0.000250473535
0.0001345009625
1.933558116e-05
2.00730323e-06
3.462301135e-07
2.571290162e-07
2.294300391e-07
2.105226114e-07
1.964071694e-07
1.874475909e-07
1.85020284e-07
1.721327994e-07
1.52229765e-07
1.452798607e-07
1.486684991e-07
1.577165151e-07
1.708655362e-07
1.887603942e-07
2.12883614e-07
2.45339574e-07
2.88915854e-07
3.473371219e-07
4.256203545e-07
5.306463802e-07
6.719783926e-07
8.631134305e-07
1.12337662e-06
1.480975316e-06
1.978668829e-06
2.687094579e-06
3.740113986e-06
5.419744689e-06
8.336676974e-06
1.380739437e-05
2.466459634e-05
4.702719492e-05
9.422089509e-05
0.0001955707001
0.0004162930665
0.0009027875935
0.001168121258
0.001167240067
0.001166129367
0.001165380372
0.001165056254
0.001164931549
0.001164898107
0.001164905489
0.001164931269
0.001164966538
0.001165009136
0.001165060559
0.001165124758
0.00116520938
0.001165329106
0.001165498016
0.001165803923
0.0003369760954
0.0006115018182
0.0003856415529
0.0002167346704
0.0001075106971
1.285040645e-05
9.917214699e-07
2.70338374e-07
2.204425955e-07
1.980991189e-07
1.825910637e-07
1.709450947e-07
1.638636022e-07
1.628817674e-07
1.492239583e-07
1.353747297e-07
1.332161332e-07
1.393546701e-07
1.499956226e-07
1.646381169e-07
1.84269446e-07
2.105130061e-07
2.455511239e-07
2.922600843e-07
3.544905856e-07
4.374443697e-07
5.482697256e-07
6.969266004e-07
8.974863205e-07
1.170115632e-06
1.544241559e-06
2.064421884e-06
2.80420151e-06
3.903283005e-06
5.657324798e-06
8.70837362e-06
1.44410148e-05
2.583205358e-05
4.930528363e-05
9.883720929e-05
0.0002051540726
0.0004365097202
0.0009459235102
0.001168240384
0.001167296327
0.001166146345
0.001165423514
0.001165102862
0.001164973314
0.001164932998
0.001164933966
0.001164954599
0.001164986093
0.00116502614
0.00116507601
0.001165139431
0.0011652239
0.00116534376
0.001165512962
0.001165818755
0.0003521497007
0.0005241423431
0.0003322042937
0.0001956719275
6.348439561e-05
9.099088891e-06
5.199312081e-07
2.200124582e-07
1.894877676e-07
1.712883039e-07
1.586367227e-07
1.491785601e-07
1.437878709e-07
1.441605661e-07
1.305991975e-07
1.222409811e-07
1.240310405e-07
1.321871685e-07
1.441816773e-07
1.60257215e-07
1.816135867e-07
2.099578545e-07
2.475373817e-07
2.973221452e-07
3.632885978e-07
4.508324232e-07
5.673802127e-07
7.233039082e-07
9.332726873e-07
1.218329988e-06
1.609180152e-06
2.152281723e-06
2.924303515e-06
4.071301196e-06
5.90375489e-06
9.097634165e-06
1.511114316e-05
2.707725184e-05
5.175144755e-05
0.0001038213032
0.0002155506283
0.0004585403662
0.0009931382586
0.001168342718
0.001167339933
0.001166161955
0.001165463907
0.001165146833
0.001165012999
0.001164966398
0.001164961447
0.001164977308
0.001165005302
0.001165042998
0.001165091461
0.001165154219
0.00116523864
0.001165358711
0.001165528203
0.001165833712
0.0003757069351
0.00049404017
0.0002937442332
0.0001782114208
3.437443842e-05
3.807192261e-06
3.03587903e-07
1.84530751e-07
1.63815951e-07
1.488218212e-07
1.384729819e-07
1.308562157e-07
1.269744472e-07
1.284558803e-07
1.157943218e-07
1.1209913e-07
1.170774353e-07
1.267306328e-07
1.399485487e-07
1.574305212e-07
1.8049343e-07
2.109000531e-07
2.509614672e-07
3.037427419e-07
3.733523138e-07
4.653870822e-07
5.875637381e-07
7.506801273e-07
9.700258585e-07
1.267553438e-06
1.675298597e-06
2.241717855e-06
3.046816313e-06
4.243519945e-06
6.15833488e-06
9.503764914e-06
1.581723739e-05
2.840014925e-05
5.436699125e-05
0.0001091778616
0.0002267732218
0.0004824171146
0.001044509756
0.001168429293
0.001167371193
0.001166176296
0.001165501686
0.001165188264
0.001165050653
0.001164998326
0.001164987929
0.001164999387
0.001165024154
0.0011650597
0.001165106906
0.001165169119
0.001165253599
0.001165373949
0.001165543723
0.001165848786
0.0004041430754
0.0004377079396
0.0002679582282
0.0001603486497
1.888076689e-05
1.471318677e-06
2.056436409e-07
1.577412454e-07
1.424045398e-07
1.299341574e-07
1.214170762e-07
1.153980911e-07
1.12882761e-07
1.142105653e-07
1.042648331e-07
1.046859265e-07
1.118070536e-07
1.226510073e-07
1.370364872e-07
1.559071891e-07
1.806435807e-07
2.13056476e-07
2.55523274e-07
3.112058282e-07
3.843535208e-07
4.807706091e-07
6.084749815e-07
7.787038616e-07
1.007388091e-06
1.317420033e-06
1.742217924e-06
2.332330027e-06
3.171308926e-06
4.419478255e-06
6.420606149e-06
9.926405217e-06
1.655925944e-05
2.980155272e-05
5.715479703e-05
0.0001149147337
0.0002388414015
0.0005081867447
0.001100149206
0.001168501182
0.001167390485
0.00116618946
0.001165536993
0.001165227264
0.001165086342
0.001165028813
0.001165013426
0.001165020835
0.001165042644
0.001165076243
0.001165122342
0.00116518413
0.001165268774
0.001165389458
0.001165559486
0.001165863967
0.0004386173545
0.0004091878665
0.0002572746147
0.0001399399402
1.113571298e-05
5.374392513e-07
1.5984431e-07
1.36181631e-07
1.241630492e-07
1.137750292e-07
1.06867905e-07
1.023068827e-07
1.008555757e-07
1.007303326e-07
9.552889052e-08
9.923394464e-08
1.078350168e-07
1.197138066e-07
1.352375872e-07
1.554676277e-07
1.818267142e-07
2.161742891e-07
2.609573015e-07
3.194381782e-07
3.960141023e-07
4.967033449e-07
6.298348417e-07
8.070982113e-07
1.045085141e-06
1.36765717e-06
1.8096642e-06
2.423838032e-06
3.297491397e-06
4.598887462e-06
6.690331522e-06
1.03654987e-05
1.733762897e-05
3.128303371e-05
6.011915479e-05
0.0001210425621
0.0002517805626
0.0005359086473
0.001160193331
0.00116855946
0.001167398208
0.001166201538
0.001165569977
0.001165263955
0.001165120147
0.001165057905
0.001165037957
0.001165041661
0.001165060775
0.001165092622
0.001165137765
0.001165199246
0.001165284161
0.001165405217
0.001165575442
0.00116587925
0.0004762914126
0.000401892003
0.0002558507333
9.589040799e-05
5.661572927e-06
2.210280531e-07
1.33907933e-07
1.181075579e-07
1.084242677e-07
1.000465205e-07
9.441325775e-08
9.106663181e-08
9.068230127e-08
9.015835698e-08
8.913496684e-08
9.517219653e-08
1.049056644e-07
1.177393894e-07
1.343685149e-07
1.559115132e-07
1.838281332e-07
2.200288133e-07
2.670331083e-07
3.282082324e-07
4.081044726e-07
5.129608405e-07
6.514263623e-07
8.356554492e-07
1.082919284e-06
1.418076994e-06
1.877458129e-06
2.516069157e-06
3.425199366e-06
4.781611631e-06
6.967469193e-06
1.082125571e-05
1.815316371e-05
3.284682202e-05
6.326555218e-05
0.0001275743407
0.0002656209723
0.0005656526585
0.001169711165
0.001168605177
0.001167394746
0.00116621261
0.001165600783
0.001165298461
0.001165152153
0.001165085652
0.001165061549
0.001165061877
0.001165078548
0.001165108839
0.001165153171
0.001165214466
0.001165299753
0.001165421199
0.001165591541
0.001165894619
0.0005332847737
0.0004109491151
0.0002599492878
4.738290206e-05
1.558929649e-06
1.378968083e-07
1.154210058e-07
1.031163404e-07
9.521901243e-08
8.826526418e-08
8.377189618e-08
8.160495839e-08
8.228081303e-08
8.223670787e-08
8.460013794e-08
9.221570552e-08
1.028382761e-07
1.165738791e-07
1.342636222e-07
1.570602616e-07
1.86460687e-07
2.244282004e-07
2.735580015e-07
3.373257887e-07
4.204398774e-07
5.29366202e-07
6.730824288e-07
8.642195285e-07
1.120746053e-06
1.46854671e-06
1.945478052e-06
2.608912663e-06
3.554338181e-06
4.967598372e-06
7.252084442e-06
1.129403483e-05
1.900690874e-05
3.449554017e-05
6.66002328e-05
0.0001345246339
0.0002803963191
0.0005974962606
0.001169790049
0.001168639357
0.001167380426
0.001166222756
0.001165629551
0.001165330905
0.001165182447
0.001165112109
0.001165084235
0.001165081496
0.001165095969
0.001165124892
0.001165168556
0.001165229784
0.00116531554
0.001165437367
0.001165607853
0.00116591004
0.000589390477
0.0004112382619
0.0002578559868
2.252675711e-05
3.817322373e-07
1.126798781e-07
1.009058856e-07
9.071316361e-08
8.402985167e-08
7.829183555e-08
7.486018783e-08
7.382856422e-08
7.553155982e-08
7.658450372e-08
8.142863978e-08
9.009580235e-08
1.014813326e-07
1.160720509e-07
1.347689805e-07
1.587533949e-07
1.895610398e-07
2.292093449e-07
2.803721782e-07
3.466372181e-07
4.328753016e-07
5.457849229e-07
6.946804055e-07
8.926806399e-07
1.158468892e-06
1.518983348e-06
2.013654792e-06
2.702314467e-06
3.684876924e-06
5.156871122e-06
7.544338197e-06
1.178432388e-05
1.990010072e-05
3.62321299e-05
7.013003282e-05
0.0001419091994
0.0002961428347
0.0006315226312
0.001169854586
0.001168662991
0.00116735549
0.001166232048
0.001165656416
0.001165361409
0.001165211116
0.001165137333
0.001165106045
0.001165100536
0.001165113045
0.001165140781
0.001165183915
0.001165245196
0.001165331508
0.001165453699
0.001165624433
0.001165925473
0.0006451281748
0.000406991619
0.0002461094983
1.135983911e-05
1.495441407e-07
9.798484295e-08
8.880372422e-08
8.032640795e-08
7.46111129e-08
6.991589419e-08
6.749998028e-08
6.757231837e-08
7.025054734e-08
7.270529381e-08
7.920325626e-08
8.862217326e-08
1.007023586e-07
1.160999752e-07
1.357466438e-07
1.60851628e-07
1.929911524e-07
2.342384541e-07
2.87348691e-07
3.560250291e-07
4.453048256e-07
5.621245262e-07
7.161424963e-07
9.209768157e-07
1.196042682e-06
1.569359793e-06
2.081980797e-06
2.796289843e-06
3.816865248e-06
5.34955063e-06
7.844513957e-06
1.229277313e-05
2.083420789e-05
3.805989354e-05
7.386240204e-05
0.0001497449184
0.0003128989307
0.0006678194173
0.001169905958
0.001168677052
0.001167320068
0.001166240555
0.001165681505
0.001165390086
0.001165238247
0.00116516138
0.001165127013
0.001165119015
0.001165129784
0.001165156506
0.001165199245
0.001165260696
0.001165347642
0.001165470172
0.001165641274
0.001165940886
0.0006792416059
0.0004018256678
0.0002216684796
6.761486165e-06
1.132460449e-07
8.611073639e-08
7.8660633e-08
7.15632289e-08
6.665499764e-08
6.290811319e-08
6.150866616e-08
6.265215539e-08
6.622494612e-08
7.008953759e-08
7.763728338e-08
8.765943414e-08
1.003857342e-07
1.165406032e-07
1.37078655e-07
1.6323837e-07
1.966375873e-07
2.39407699e-07
2.943872681e-07
3.653983527e-07
4.576482949e-07
5.783167555e-07
7.374130922e-07
9.490657403e-07
1.233439176e-06
1.619662774e-06
2.150459172e-06
2.89086164e-06
3.950357914e-06
5.545761127e-06
8.152896579e-06
1.282002892e-05
2.181068399e-05
3.998210182e-05
7.780473516e-05
0.0001580485965
0.0003307029529
0.0007064743556
0.001169945244
0.001168682506
0.001167284869
0.001166248338
0.001165704935
0.001165417046
0.001165263919
0.001165184303
0.001165147173
0.001165136949
0.001165146191
0.001165172067
0.00116521454
0.001165276275
0.001165363923
0.001165486769
0.001165658369
0.00116595624
0.0006774380848
0.0004029102198
0.0001862224174
2.660565173e-06
9.396211893e-08
7.626240164e-08
7.010527073e-08
6.412726995e-08
5.992647157e-08
5.709506602e-08
5.672771699e-08
5.88739555e-08
6.320820555e-08
6.831299644e-08
7.654873122e-08
8.709939601e-08
1.004284755e-07
1.172912835e-07
1.386645819e-07
1.65817402e-07
2.004100857e-07
2.446348429e-07
3.014154067e-07
3.746956526e-07
4.69856139e-07
5.943246845e-07
7.584685594e-07
9.769375294e-07
1.270662981e-06
1.669912333e-06
2.219127007e-06
2.986087906e-06
4.085447078e-06
5.745667756e-06
8.469815668e-06
1.336678437e-05
2.283102571e-05
4.200205092e-05
8.196439898e-05
0.0001668368647
0.0003495926983
0.0007475737014
0.00116997342
0.00116867989
0.001167251806
0.001166255455
0.001165726816
0.001165442391
0.001165288211
0.001165206157
0.001165166556
0.001165154357
0.001165162274
0.001165187462
0.001165229794
0.001165291926
0.001165380327
0.001165503469
0.001165675703
0.00116597148
0.0006708383609
0.0004072555412
0.000101476802
9.159455691e-07
8.109503862e-08
6.810853054e-08
6.291175624e-08
5.783747285e-08
5.428017694e-08
5.236257837e-08
5.301187035e-08
5.604104104e-08
6.080127541e-08
6.708734648e-08
7.582343067e-08
8.685536423e-08
1.007450117e-07
1.182677463e-07
1.404231639e-07
1.685118878e-07
2.042378887e-07
2.498564805e-07
3.083781988e-07
3.838710779e-07
4.818922417e-07
6.101220984e-07
7.792929042e-07
1.004586562e-06
1.307719125e-06
1.720124594e-06
2.288012446e-06
3.082011875e-06
4.222203156e-06
5.949404229e-06
8.795551548e-06
1.393364644e-05
2.389656753e-05
4.412271729e-05
8.634811246e-05
0.0001761250071
0.0003696031151
0.0007911975655
0.001169991386
0.001168669611
0.00116722074
0.001166261957
0.001165747248
0.001165466215
0.001165311197
0.00116522699
0.001165185195
0.001165171255
0.00116517804
0.001165202689
0.001165244999
0.001165307636
0.001165396828
0.001165520255
0.001165693256
0.001165986567
0.0006583826408
0.0004080937043
5.638826408e-05
3.502209001e-07
7.157916706e-08
6.133784209e-08
5.68498114e-08
5.25140559e-08
4.958202593e-08
4.859319911e-08
5.01912214e-08
5.395096566e-08
5.921046831e-08
6.623404938e-08
7.537756852e-08
8.685249022e-08
1.012622184e-07
1.193999099e-07
1.422887818e-07
1.712618541e-07
2.080684501e-07
2.5502818e-07
3.152401018e-07
3.928984136e-07
4.937402515e-07
6.257026776e-07
7.99890052e-07
1.032027311e-06
1.344632951e-06
1.770336395e-06
2.357164832e-06
3.178698618e-06
4.360718981e-06
6.157125617e-06
9.130398533e-06
1.452121248e-05
2.500857269e-05
4.634685598e-05
9.096201061e-05
0.0001859268541
0.0003907656112
0.0008374175759
0.001169999981
0.001168652004
0.001167191545
0.001166267893
0.001165766324
0.001165488607
0.001165332944
0.001165246851
0.001165203118
0.001165187658
0.001165193494
0.001165217745
0.001165260149
0.001165323394
0.001165413398
0.001165537109
0.001165711003
0.001166001461
0.0006397364241
0.0003990338839
2.762517362e-05
1.584021102e-07
6.40152959e-08
5.57350774e-08
5.177188776e-08
4.803643761e-08
4.573492353e-08
4.566756743e-08
4.808956471e-08
5.242193607e-08
5.814325404e-08
6.564649591e-08
7.514627914e-08
8.702964375e-08
1.019217575e-07
1.206335117e-07
1.442124142e-07
1.740247173e-07
2.118669099e-07
2.601233349e-07