/*--------------------------------*- C++ -*----------------------------------*\
  =========                 |
  \\      /  F ield         | OpenFOAM: The Open Source CFD Toolbox
   \\    /   O peration     | Website:  https://openfoam.org
    \\  /    A nd           | Version:  12
     \\/     M anipulation  |
\*---------------------------------------------------------------------------*/
FoamFile
{
    format      ascii;
    class       volScalarField;
    location    "750";
    object      Ma;
}
// * * * * * * * * * * * * * * * * * * * * * * * * * * * * * * * * * * * * * //

dimensions      [];

internalField   nonuniform List<scalar> 
16200
(
0.5332380725
0.6358045887
0.6936551564
0.7394877815
0.782508148
0.8282574421
0.8787548865
0.9250010284
0.9418897726
0.942361999
0.9412467602
0.940192401
0.9388940869
0.9374629138
0.9357818234
0.9338570185
0.9316153263
0.9290170398
0.9259938072
0.9224795566
0.9183949323
0.9136542984
0.9081641473
0.9018265686
0.8945439562
0.8862271302
0.8768082918
0.8662598086
0.8546194649
0.842019127
0.8287076156
0.8150517366
0.8015019268
0.7885256427
0.7765317927
0.7658150385
0.7565349016
0.7487257036
0.7423234951
0.7371977613
0.733180722
0.730091753
0.7277552633
0.726012515
0.7247274954
0.7237887349
0.7231078169
0.7226165886
0.7222635738
0.722010572
0.7218295509
0.7217001167
0.7216074989
0.7215409053
0.7214926063
0.7214564166
0.7214293364
0.7214068573
0.721389242
0.721366869
0.5456894225
0.651539029
0.711190961
0.7585237119
0.8033579489
0.8515761524
0.9038464721
0.9437986268
0.9534323494
0.9531408311
0.9519601826
0.9508197073
0.9494236348
0.9478754178
0.9460526096
0.9439563378
0.941508903
0.9386630704
0.9353440245
0.9314768195
0.9269735358
0.921738876
0.9156700793
0.9086606497
0.9006067713
0.8914179206
0.8810341287
0.8694506169
0.8567491542
0.8431292429
0.8289237542
0.8145795399
0.8005962647
0.7874419372
0.7754795638
0.7649308057
0.7558794551
0.7482995564
0.7420902216
0.7371059839
0.7331800292
0.7301410672
0.7278255235
0.7260855687
0.7247936234
0.7238438476
0.7231512248
0.7226493286
0.7222874013
0.7220273506
0.7218409786
0.7217076205
0.7216122035
0.721543734
0.7214941184
0.721457279
0.7214294516
0.7214069264
0.7213890039
0.7213652518
0.5577731864
0.6669196713
0.7284003939
0.7773431989
0.8241805953
0.874768627
0.9278266755
0.9586031046
0.9629891635
0.9621575634
0.9609049615
0.9596647176
0.9581429756
0.9564452756
0.9544456207
0.952138454
0.9494420348
0.9463008006
0.942633145
0.9383545437
0.9333676701
0.9275665783
0.9208381513
0.9130667111
0.9041432744
0.8939805359
0.882536307
0.8698451922
0.856055277
0.8414570609
0.8264825756
0.8116565946
0.7975074076
0.7844727514
0.7728402505
0.7627380223
0.7541637122
0.7470280203
0.741193723
0.7365025186
0.7327910916
0.7299005193
0.7276825279
0.7260037654
0.7247485464
0.7238198674
0.723138834
0.7226429992
0.7222840682
0.7220253973
0.7218396075
0.7217064727
0.72161115
0.7215427662
0.7214932378
0.7214566032
0.7214288011
0.7214065753
0.7213889635
0.7213653433
0.5690033817
0.6811516296
0.7443359137
0.7950725663
0.8442674614
0.8969845147
0.9479905953
0.9689314551
0.9701954132
0.9691989164
0.9678629989
0.9665084399
0.9648495896
0.9629865002
0.9607908593
0.9582484417
0.9552731517
0.9517998937
0.9477393831
0.942996566
0.9374637592
0.9310237649
0.9235533703
0.9149301623
0.9050461198
0.8938283582
0.88126947
0.8674658506
0.852656208
0.8372393517
0.8217453184
0.8067523217
0.7927774128
0.7801885333
0.7691713124
0.7597500443
0.7518382798
0.7452913664
0.7399446611
0.7356343841
0.7322060382
0.7295168686
0.7274367978
0.7258493913
0.7246529761
0.7237612404
0.7231029669
0.722620947
0.7222703216
0.7220166249
0.7218338257
0.7217025115
0.7216083334
0.7215407072
0.7214917108
0.721455521
0.7214279367
0.7214060304
0.7213887112
0.7213649025
0.5793881281
0.6943807366
0.7591905952
0.8117409103
0.8635025281
0.9183305132
0.9628221338
0.9754927103
0.9753131251
0.9742199028
0.9727758384
0.971285182
0.9694654643
0.9674082939
0.9649843696
0.9621691488
0.9588719059
0.955016897
0.9505060318
0.9452325623
0.9390775245
0.931912748
0.9236073687
0.914038137
0.9031082008
0.8907743432
0.8770847526
0.8622225716
0.8465391688
0.8305482104
0.8148591701
0.8000633635
0.7866202479
0.7747924989
0.7646471456
0.7561048235
0.749004763
0.7431593372
0.7383872099
0.7345266637
0.7314366802
0.7289933971
0.7270866688
0.7256183266
0.7245019419
0.7236630777
0.7230392869
0.7225795659
0.7222432966
0.7219988369
0.7218219981
0.7216945523
0.7216029152
0.7215369824
0.7214891496
0.7214537944
0.7214267287
0.7214052626
0.7213883857
0.7213645849
0.5886217789
0.706302396
0.7726786204
0.8270954797
0.8814382748
0.9378332408
0.9728945705
0.9793034976
0.9782363817
0.9770639879
0.9754944276
0.9738499611
0.9718505868
0.9695755641
0.9668953566
0.9637732096
0.9601128089
0.9558264761
0.950806246
0.9449334624
0.9380788109
0.9301061715
0.9208826205
0.9102929958
0.8982647184
0.8848028609
0.8700355579
0.854257811
0.8379470116
0.821719839
0.8062262335
0.7920184388
0.7794531861
0.7686630445
0.7595929948
0.7520708863
0.7458780583
0.7407995374
0.7366491081
0.7332746247
0.7305526221
0.7283800017
0.7266673133
0.7253350142
0.7243122375
0.7235368153
0.7229555306
0.7225240627
0.7222064822
0.7219743595
0.7218056656
0.7216836076
0.721595552
0.721532014
0.7214858122
0.7214515849
0.7214252496
0.7214043079
0.7213879383
0.7213641373
0.5964941851
0.7168197089
0.784800257
0.8413303061
0.8982835792
0.9537843377
0.9787513458
0.98141717
0.9790319696
0.9777439866
0.9760326596
0.9742119976
0.9720077635
0.9694835018
0.9665098974
0.9630367284
0.958961622
0.9541849004
0.9485890771
0.9420450564
0.934415623
0.925560904
0.9153525515
0.9036941385
0.8905539095
0.8760087024
0.8602935804
0.843834785
0.8272321453
0.8111713619
0.7962883933
0.783043079
0.7716553796
0.7621184057
0.754264637
0.7478477197
0.7426105158
0.7383264321
0.7348150475
0.7319399081
0.7295979165
0.7277075548
0.7261999361
0.7250137324
0.7240932974
0.723388577
0.7228556071
0.7224568922
0.7221613948
0.7219441128
0.721785375
0.7216699935
0.7215864201
0.7215258965
0.721481744
0.7214489158
0.721423506
0.721403178
0.7213873944
0.7213636443
0.6028676173
0.7258770422
0.7956541272
0.8546466528
0.9142405941
0.9645857998
0.9808438423
0.9792530959
0.9777591493
0.976344603
0.9744671634
0.9724400462
0.9699978904
0.967185945
0.9638756357
0.9600028062
0.9554588545
0.9501324619
0.9438970342
0.9366144588
0.9281422352
0.9183420137
0.9070994448
0.8943523472
0.8801325591
0.864616566
0.8481700929
0.8313548208
0.8148661841
0.7994052996
0.7855340912
0.7735759887
0.7635969422
0.7554569534
0.7488955858
0.7436149926
0.7393391384
0.7358438871
0.7329632648
0.7305809028
0.7286155996
0.7270073067
0.7257068643
0.7246701745
0.7238559802
0.7232257673
0.7227444972
0.7223813629
0.722110205
0.721909502
0.7217620234
0.7216542728
0.7215758654
0.721518837
0.7214770634
0.7214458541
0.7214215269
0.721401889
0.7213867516
0.7213630743
0.6076879449
0.7334123868
0.8053407441
0.8670310087
0.9286830405
0.9706567895
0.9773880269
0.9763348731
0.9745364153
0.9729549132
0.9708909195
0.9686309437
0.9659214268
0.9627872253
0.9591003736
0.9547822834
0.94971743
0.9437829883
0.9368437226
0.9287548871
0.9193737495
0.9085729405
0.8962671798
0.8824500729
0.8672439433
0.8509508282
0.8340782813
0.817305238
0.8013734828
0.7869358252
0.7744265957
0.7640060354
0.7555871338
0.7489158809
0.7436642367
0.7395060685
0.7361638641
0.733427169
0.7311505993
0.7292404302
0.7276376753
0.7263028792
0.7252052656
0.7243166099
0.7236089069
0.7230543437
0.7226262531
0.7223001886
0.722054702
0.721871688
0.7217363499
0.721636906
0.7215641675
0.7215109998
0.7214718624
0.7214424496
0.7214193338
0.7214004524
0.7213860174
0.7213624376
0.6111715694
0.7397953585
0.8141831348
0.8786062962
0.9402253783
0.9723204543
0.9728748052
0.9713869258
0.9695109019
0.9677420299
0.9654682161
0.9629460575
0.9599355852
0.9564397062
0.952330383
0.9475143871
0.9418688142
0.9352604781
0.9275477988
0.9185845776
0.9082365627
0.896400978
0.8830410042
0.8682309507
0.85220975
0.8354213216
0.8185064796
0.802219888
0.7872857755
0.7742471604
0.7633734015
0.7546549827
0.7478686601
0.7426734478
0.7387004378
0.7356161688
0.7331556173
0.7311300069
0.7294182452
0.7279501946
0.7266884345
0.7256126788
0.7247088771
0.7239631143
0.723359336
0.7228794437
0.722504449
0.7222158147
0.7219965311
0.7218317584
0.7217090602
0.7216183408
0.721551603
0.72150255
0.7214662354
0.7214387539
0.7214169495
0.7213988793
0.7213851948
0.7213617301
0.6134606094
0.7452739642
0.8224407385
0.8898154887
0.9475845296
0.9669525378
0.9664257723
0.9648569009
0.9628277007
0.9608423176
0.9583301781
0.9555111865
0.9521597877
0.948256065
0.9436712697
0.9382983554
0.9320078388
0.924659155
0.9161089298
0.9062171192
0.8948692252
0.8820033913
0.8676534414
0.8520003293
0.8354202757
0.8184993031
0.8019797135
0.7866318986
0.7730956017
0.7617559837
0.752701258
0.7457641927
0.74061271
0.7368487767
0.7340873499
0.7320046816
0.730358284
0.7289859672
0.7277925252
0.7267310709
0.7257844032
0.724949643
0.7242276567
0.7236172033
0.7231128251
0.7227050949
0.7223819475
0.7221302378
0.7219370595
0.7217906315
0.7216807583
0.7215989651
0.7215384142
0.7214936336
0.7214602665
0.7214348132
0.7214143948
0.7213971808
0.7213842879
0.7213609528
0.6145755632
0.7500026883
0.8300737836
0.9000958268
0.9507491123
0.9605174481
0.9584675511
0.9567764544
0.9545759851
0.9523459951
0.9495641602
0.9464110745
0.9426761037
0.9383168647
0.9332036897
0.9272174926
0.920223791
0.9120784644
0.9026421121
0.8917904241
0.8794430463
0.8655991616
0.8503879563
0.8341202929
0.8173182635
0.8006886855
0.7850216755
0.7710345018
0.7592247423
0.7497923803
0.7426494739
0.7374969258
0.7339261828
0.73151078
0.729870107
0.7287026281
0.727794709
0.7270130383
0.7262882607
0.7255954957
0.7249359826
0.7243223278
0.7237684827
0.723284268
0.7228734944
0.7225343715
0.7222609909
0.7220450591
0.7218774069
0.7217490743
0.7216519581
0.7215791148
0.7215248142
0.7214843812
0.7214540322
0.7214306698
0.7214116894
0.7213953683
0.7213833
0.7213601046
0.6145431398
0.7542052466
0.83734071
0.9081817249
0.9468795216
0.9515469912
0.9490645381
0.9472634731
0.9448542022
0.9423482915
0.9392634226
0.9357389288
0.9315789256
0.9267195048
0.9210294408
0.9143792565
0.9066312906
0.8976428041
0.8872865451
0.8754672547
0.8621577941
0.8474426478
0.8315708486
0.8149967308
0.7983769167
0.7824945513
0.7681196026
0.7558510556
0.7460056352
0.73859377
0.7333734409
0.7299471791
0.7278622236
0.726688158
0.7260642717
0.7257193452
0.7254717521
0.7252173384
0.7249114168
0.7245493032
0.7241486849
0.7237357127
0.7233356567
0.7229678765
0.7226441983
0.7223694849
0.722143245
0.7219615013
0.7218184498
0.7217077008
0.7216230795
0.7215590697
0.7215109843
0.7214749056
0.7214475999
0.7214263617
0.7214088511
0.7213934524
0.7213822336
0.7213591851
0.6135313575
0.7580854723
0.844502619
0.9131875135
0.9401556997
0.9410983675
0.9383737085
0.9364146797
0.9337731292
0.9309654864
0.92754737
0.9236167934
0.9189906924
0.9135848559
0.9072662717
0.8998983488
0.8913448355
0.8814729009
0.8701797233
0.8574163173
0.8432309893
0.8278182912
0.8115652166
0.795066113
0.7790766129
0.7643933141
0.7516964251
0.7414170312
0.7336759819
0.7283099929
0.7249558227
0.7231528796
0.7224327475
0.722380017
0.7226642679
0.7230489308
0.7233851012
0.7235966519
0.7236616652
0.7235935535
0.7234244137
0.7231920772
0.7229314913
0.7226701567
0.7224267684
0.7222119348
0.7220298894
0.7218804624
0.7217608522
0.721666989
0.7215944578
0.7215390586
0.7214970758
0.7214653035
0.7214410287
0.7214219226
0.7214058966
0.721391443
0.7213810906
0.721358194
0.6119407673
0.7618505869
0.8510523256
0.9146094289
0.9302691142
0.9294173295
0.9265647438
0.924400324
0.9214939594
0.9183468301
0.9145506033
0.9101637659
0.905014593
0.8990019245
0.8919930682
0.8838501165
0.8744452923
0.8636664294
0.851450041
0.8378134577
0.8229039908
0.8070460871
0.7907685983
0.7747806764
0.7598800404
0.7468062972
0.7360919646
0.7279735589
0.7223836677
0.7190153548
0.7174211905
0.7171099296
0.7176203465
0.718565263
0.7196504945
0.7206755158
0.7215231406
0.7221432524
0.7225344315
0.7227260043
0.7227625091
0.7226917307
0.7225568077
0.7223921295
0.7222222309
0.7220626468
0.7219217035
0.7218025669
0.7217050954
0.7216272977
0.7215663527
0.721519264
0.7214832128
0.7214556561
0.7214343695
0.7214173824
0.7214028415
0.7213893489
0.7213798714
0.721357131
0.6102152505
0.7659456859
0.8559495315
0.9100328333
0.9184229291
0.9166789434
0.9136915942
0.9112630748
0.9080493056
0.904514702
0.9002873339
0.8953891359
0.8896593424
0.8829839179
0.8752330282
0.8662735176
0.8559943151
0.8443172809
0.8312371907
0.8168610043
0.8014567493
0.7854870263
0.7696050598
0.7545876215
0.7412062161
0.7300791141
0.7215542071
0.71567097
0.7121987285
0.7107241196
0.7107512871
0.7117852671
0.7133885783
0.7152103327
0.716995001
0.7185773995
0.7198699653
0.7208461077
0.7215225111
0.7219422919
0.7221606014
0.7222336219
0.7222113647
0.7221340033
0.722031005
0.7219221035
0.7218191507
0.7217282186
0.7216515103
0.7215888861
0.7215389594
0.7214998278
0.721469495
0.7214460306
0.7214276658
0.7214127676
0.7213997009
0.7213871786
0.721378574
0.7213559962
0.6087956776
0.7698864501
0.8582481861
0.9008665827
0.9050443811
0.9028256947
0.8996769323
0.8969389527
0.893384624
0.8894262294
0.8847274221
0.8792761456
0.8729216582
0.8655409255
0.8570105111
0.8472109077
0.8360610329
0.8235358575
0.8097112135
0.7948050946
0.7792172816
0.7635382505
0.7485061957
0.7349027769
0.7234072201
0.7144696139
0.7082403316
0.7045796413
0.7031289325
0.7034064987
0.7048989241
0.707127813
0.7096901053
0.7122750689
0.7146656886
0.7167300652
0.7184075709
0.7196924877
0.7206172593
0.7212368119
0.721615262
0.721815813
0.7218941981
0.7218954138
0.7218530684
0.721790456
0.7217224514
0.7216576485
0.7216003075
0.7215519315
0.7215124192
0.7214808579
0.7214560015
0.7214364826
0.7214209549
0.7214081019
0.7213964882
0.7213849389
0.7213771813
0.7213547895
0.6085025882
0.773104715
0.8574208125
0.8902509786
0.8903627132
0.8878803312
0.8845369988
0.8814524854
0.8775238278
0.8731032379
0.8678889161
0.86183805
0.8548107527
0.8466820543
0.8373432416
0.8267025309
0.8147265244
0.8014636229
0.7870900637
0.7719464774
0.7565588221
0.741615059
0.7278836242
0.7160846655
0.7067526783
0.7001458035
0.6962257659
0.6947051452
0.6951362078
0.697003276
0.6997995605
0.7030770058
0.7064727385
0.709716935
0.71262926
0.7151082773
0.717117375
0.7186690916
0.7198094372
0.7206033596
0.721122484
0.7214358387
0.7216038846
0.7216756134
0.721688091
0.7216676163
0.7216316465
0.7215909557
0.7215516038
0.7215165463
0.7214868299
0.7214624338
0.7214427935
0.7214270573
0.7214142685
0.7214034063
0.7213932153
0.721382632
0.7213756906
0.7213535114
0.6101607708
0.7748823404
0.8535261506
0.8761728489
0.8745360018
0.8718706965
0.8682756641
0.8647959643
0.8604456456
0.8555112318
0.8497273282
0.8430263097
0.8352832984
0.8263820097
0.8162397593
0.8048074982
0.7921157948
0.7783025278
0.7636559206
0.7486387704
0.7338814685
0.720123197
0.7081010123
0.6984157749
0.6914245135
0.6871926069
0.6855183988
0.6860048152
0.6881518853
0.6914380153
0.6953802526
0.6995690162
0.7036836424
0.7074938523
0.7108531628
0.7136874519
0.7159812164
0.717762797
0.7190897862
0.7200355725
0.7206780247
0.721090967
0.7213387379
0.7214736167
0.7215355398
0.7215533317
0.7215466477
0.721528142
0.7215054447
0.7214827925
0.7214622548
0.7214446123
0.7214299182
0.7214177911
0.7214076338
0.7213986995
0.7213898928
0.7213802595
0.7213741616
0.7213521631
0.6139237443
0.7746942835
0.8443340208
0.8607016226
0.8575277697
0.8546557782
0.8507609304
0.8468406793
0.8420269055
0.8365383231
0.8301489167
0.8227742109
0.8143091575
0.8046569221
0.7937714575
0.7816600059
0.7684315638
0.7543261013
0.7397477547
0.7252676621
0.7115836895
0.6994299885
0.6894531483
0.682094052
0.6775209536
0.6756245883
0.6760748856
0.6784034436
0.6820895191
0.6866264645
0.6915660765
0.6965409541
0.7012720458
0.7055659608
0.7093067696
0.7124444824
0.7149819625
0.7169611266
0.7184493949
0.7195272235
0.7202776386
0.720778383
0.7210969507
0.7212883072
0.7213947584
0.721447242
0.7214672788
0.72146914
0.7214618235
0.7214506939
0.72143873
0.7214274317
0.7214174107
0.7214087135
0.7214010739
0.7213939982
0.7213865308
0.721377831
0.7213725514
0.7213507478
0.6188517827
0.772603444
0.8311775726
0.8432685271
0.8392241857
0.8361240721
0.8318945239
0.8275086465
0.8222124351
0.8161566827
0.809156271
0.8011185103
0.7919626306
0.7816219152
0.7700985686
0.7574708137
0.7439404869
0.7298575474
0.7157346877
0.7022215541
0.6900335118
0.6798414708
0.6721545286
0.6672336444
0.6650670467
0.6654014936
0.6678165376
0.671806658
0.6768547854
0.6824832465
0.6882843787
0.6939334692
0.6991908152
0.7038965885
0.7079620042
0.7113581753
0.7141038358
0.7162525082
0.7178799152
0.7190724021
0.719917228
0.720495312
0.7208766935
0.7211185151
0.7212650254
0.7213489228
0.7213933062
0.721413835
0.721420696
0.721420246
0.7214162714
0.7214109163
0.7214052967
0.7213998483
0.7213946088
0.7213893175
0.7213831387
0.7213753539
0.7213708894
0.7213492688
0.6226921958
0.7684595304
0.8171181261
0.8243231958
0.8197024792
0.8163343619
0.8117512989
0.8068838908
0.8010946935
0.7944693287
0.7868632143
0.7781860045
0.7683877055
0.7574451194
0.7454238155
0.7324883279
0.7189432841
0.7052450703
0.6919912832
0.6798657945
0.6695457023
0.661588426
0.6563371423
0.653873331
0.6540294104
0.6564444506
0.6606434812
0.6661115896
0.6723526948
0.6789263488
0.6854674004
0.6916922192
0.6973972594
0.7024527
0.7067936105
0.7104094332
0.7133325586
0.7156264007
0.7173736765
0.7186656174
0.719592935
0.7202390992
0.7206761814
0.72096307
0.7211455963
0.7212579176
0.7213244632
0.7213620817
0.7213819925
0.7213914242
0.7213948794
0.7213950796
0.7213935947
0.7213912143
0.7213882561
0.7213846711
0.721379726
0.7213728395
0.7213691825
0.7213477278
0.6257018432
0.7618237742
0.8000451116
0.8040981633
0.7991178561
0.7954173982
0.7904596169
0.785089025
0.7787877606
0.7715851299
0.7633773722
0.7540908913
0.7437170867
0.7322924862
0.7199607675
0.7069825356
0.693763502
0.6808471528
0.6688774882
0.6585211569
0.6503658307
0.644821037
0.6420559857
0.6419898858
0.6443322435
0.6486506366
0.6544459964
0.6612145908
0.6684923279
0.675879771
0.6830536268
0.6897684875
0.6958533744
0.7012049734
0.7057791687
0.7095812612
0.7126553686
0.7150733244
0.7169237265
0.7183018465
0.7193011911
0.7200072565
0.7204937152
0.7208208373
0.7210357331
0.7211737604
0.7212604668
0.7213137174
0.7213456272
0.7213641899
0.7213745439
0.7213799266
0.7213823174
0.7213828269
0.7213820308
0.7213800713
0.721376302
0.721370302
0.7213674646
0.7213461222
0.6269313896
0.7525727306
0.7812445171
0.7827794551
0.7775209936
0.7734106502
0.7680470306
0.7621445996
0.7553073483
0.7475249358
0.7387367293
0.7289021695
0.7180665224
0.7063389309
0.6939496204
0.681254157
0.668743919
0.6570169602
0.6467175454
0.6384457653
0.6326616788
0.6296116053
0.6293005274
0.6315134781
0.6358722946
0.6419052632
0.6491128299
0.6570163364
0.6651896098
0.673274829
0.680988264
0.6881192493
0.6945257395
0.7001276521
0.7048989613
0.7088586676
0.7120609568
0.7145848301
0.716523826
0.7179765443
0.7190387366
0.7197974861
0.7203277049
0.7206907402
0.7209347228
0.7210959919
0.7212010306
0.7212685712
0.7213115046
0.7213384958
0.7213552468
0.7213654565
0.7213714731
0.7213746986
0.7213759466
0.7213755296
0.7213728765
0.7213677612
0.7213657598
0.7213444526
0.625780786
0.7367930983
0.7607013306
0.760269404
0.7547876857
0.750190312
0.7443968818
0.7379551351
0.730586734
0.7222621261
0.7129671769
0.7027078093
0.6915927515
0.6798107926
0.6676787893
0.6556356347
0.6442320499
0.6340806493
0.6257799622
0.619823845
0.6165234474
0.6159643556
0.6180097006
0.6223431273
0.6285317961
0.6360908225
0.644536978
0.6534249811
0.6623687572
0.6710506206
0.6792232123
0.6867069436
0.693385242
0.6991982941
0.7041357725
0.7082285172
0.7115393695
0.7141534399
0.7161684169
0.7176856322
0.7188026218
0.7196076893
0.720176683
0.7205717723
0.7208418898
0.7210241693
0.721145873
0.7212264705
0.7212795246
0.721314289
0.721336965
0.7213516643
0.7213610665
0.7213668394
0.7213700156
0.7213710565
0.7213694601
0.7213652393
0.72136397
0.7213427513
0.6219299447
0.7198859055
0.7383043019
0.7363636113
0.7307119799
0.7256083462
0.7193978575
0.7124589931
0.7046179726
0.6958461909
0.6861800308
0.6756822499
0.6645316669
0.6529982865
0.6414778322
0.6304716325
0.6205557804
0.6123155208
0.6062641219
0.6027635643
0.6019717461
0.6038295786
0.6080875498
0.6143604032
0.622188595
0.6310935654
0.6406192562
0.6503577667
0.6599627323
0.6691538931
0.6777166953
0.6854990502
0.6924066899
0.6983974534
0.7034746439
0.7076793536
0.7110818849
0.7137725665
0.715852574
0.7174254717
0.718590196
0.7194359643
0.7200393076
0.7204630039
0.7207566026
0.7209578731
0.7210947225
0.721187246
0.7212495866
0.721291514
0.7213196721
0.7213385416
0.7213511002
0.7213592578
0.7213642487
0.7213666617
0.7213660638
0.7213627471
0.7213620947
0.7213410239
0.6151756791
0.7010961787
0.7141536511
0.7110677023
0.7052715309
0.699694715
0.6931064887
0.6857447934
0.6775269927
0.6684428095
0.6585843882
0.6480792814
0.6371788945
0.6262289672
0.6156874752
0.6060891735
0.5979978388
0.5919330684
0.5882944698
0.587301833
0.5889695664
0.5931183382
0.5994168971
0.6074399422
0.6167230514
0.6268073366
0.6372699791
0.647741403
0.6579129569
0.6675384897
0.676432656
0.6844675404
0.6915683572
0.697708324
0.7029026066
0.7072012054
0.710680877
0.7134364211
0.7155719446
0.7171928278
0.7183990865
0.7192805962
0.719914359
0.7203635822
0.7206782759
0.7208967102
0.7210473216
0.7211507339
0.7212215911
0.7212701144
0.72130334
0.7213260781
0.7213415747
0.7213519607
0.7213586557
0.721362354
0.7213627
0.7213602942
0.7213601457
0.7213392854
0.6055881843
0.6809132941
0.6885057047
0.6845299404
0.6785837048
0.6725847703
0.6656716435
0.657978477
0.6495052114
0.6402745981
0.6304383245
0.6201919631
0.6098554933
0.5998366021
0.5906309785
0.5827732865
0.5767789454
0.573072229
0.5719240781
0.57341561
0.5774371328
0.5837170129
0.5918710851
0.6014575376
0.6120227955
0.6231358595
0.6344096782
0.645511932
0.6561687963
0.6661647242
0.675340162
0.6835883692
0.6908515749
0.6971164242
0.7024084451
0.7067854128
0.7103296926
0.713139928
0.7153226924
0.7169848329
0.7182271768
0.7191400449
0.7198007338
0.7202727295
0.7206063712
0.720840315
0.7210034278
0.7211167784
0.7211954416
0.7212500342
0.7212879395
0.721314262
0.7213324889
0.7213449539
0.7213532452
0.721358142
0.7213593818
0.7213578906
0.7213581026
0.7213375601
0.5933898725
0.6579962221
0.6615263276
0.6568402769
0.6507554219
0.6444042286
0.6372451713
0.6293414055
0.6207682098
0.6115928348
0.602027638
0.592333566
0.5828882725
0.5741406897
0.5665951666
0.5607531849
0.5570522691
0.5558031148
0.5571459753
0.5610372347
0.5672674824
0.575500378
0.5853233745
0.5962959327
0.607985699
0.6199938287
0.6319691179
0.6436142261
0.6546868777
0.6649987012
0.674412806
0.6828409816
0.6902403421
0.6966092993
0.701982475
0.7064244657
0.7100225351
0.7128786438
0.7151014414
0.7167989496
0.7180725837
0.7190129318
0.7196974371
0.7201897395
0.7205403956
0.7207883499
0.7209628151
0.721085232
0.7211710457
0.7212312184
0.721273441
0.7213030805
0.7213238406
0.7213382421
0.7213480251
0.7213540336
0.721356123
0.7213555436
0.7213559741
0.7213358635
0.5788497011
0.6329083354
0.6333380552
0.6280847342
0.6219029266
0.6152964645
0.6080012307
0.6000405571
0.5915582991
0.5826726609
0.5736538779
0.5648194896
0.5565878401
0.5494241261
0.5438118829
0.5401910775
0.5389012398
0.5401329566
0.5439043042
0.5500671711
0.5583378857
0.5683400848
0.5796521828
0.5918473521
0.6045205495
0.617306509
0.6298883977
0.6420009511
0.6534301067
0.6640114662
0.6736280124
0.6822077663
0.6897209066
0.6961762045
0.7016163075
0.7061118309
0.7097543394
0.712648668
0.7149052141
0.7166329292
0.717933629
0.7188980209
0.7196035721
0.7201139708
0.7204798979
0.7207405033
0.7209252727
0.7210559558
0.721148315
0.7212136138
0.7212598152
0.7212925199
0.7213156269
0.7213318294
0.7213430017
0.7213500367
0.7213529377
0.7213532589
0.7213537594
0.7213342102
0.5620593378
0.6059478914
0.6040700795
0.5983979909
0.5921686988
0.5854333297
0.5781432714
0.5703103009
0.5621403751
0.5538031425
0.5456189502
0.5379479137
0.53122831
0.5259158057
0.5224469403
0.5211793384
0.5223445858
0.5260166798
0.532107123
0.5403860399
0.5505192937
0.5621108902
0.5747444203
0.5880147243
0.6015469738
0.6150089986
0.6281159757
0.6406315894
0.6523667996
0.6631782872
0.6729664651
0.6816736123
0.6892814265
0.6958078508
0.7013026597
0.7058418121
0.7095206702
0.71244657
0.7147313802
0.7164847754
0.7178088155
0.7187942039
0.7195183293
0.7200448411
0.7204244657
0.7206964881
0.7208906046
0.7210288194
0.7211271653
0.7211971688
0.7212470327
0.7212825662
0.7213078437
0.7213257185
0.7213381806
0.7213461589
0.7213498403
0.7213510376
0.7213514685
0.7213326149
0.5431317554
0.5773221074
0.5737761589
0.5679249956
0.561733155
0.5550246063
0.5479135453
0.5404191403
0.5328027701
0.5252816048
0.5182147923
0.5119880277
0.5070377454
0.503786344
0.5026027741
0.5037499042
0.5073505857
0.5133731195
0.5216417216
0.531867102
0.5436852135
0.556696102
0.5704982602
0.5847126708
0.5989953929
0.6130456837
0.6266079487
0.6394717231
0.651470051
0.6624781295
0.6724116894
0.6812255837
0.6889117218
0.6954962178
0.7010352153
0.7056094472
0.7093176473
0.7122693357
0.714577618
0.7163527185
0.7176968097
0.7187004882
0.7194409801
0.719981823
0.7203737229
0.7206560406
0.7208586295
0.7210037008
0.7211075173
0.7211818337
0.721235065
0.7212732048
0.7213004867
0.7213199118
0.721333566
0.7213424083
0.7213468449
0.7213488779
0.7213491155
0.7213310967
0.5222005733
0.5473065719
0.5426681995
0.5369003805
0.5308574647
0.5243456371
0.5176028262
0.5106668331
0.5038465459
0.4973994804
0.4917097005
0.4871698831
0.4841935822
0.4831500496
0.4843267049
0.4878872883
0.4938523789
0.5020999937
0.5123872463
0.524385566
0.5377175854
0.5519906563
0.5668242644
0.5818674591
0.5968063717
0.6113693631
0.625327165
0.6384922356
0.6507170597
0.6618931102
0.6719496201
0.6808525843
0.6886030169
0.6952343569
0.7008084758
0.7054103965
0.7091418617
0.7121143052
0.71444187
0.7162351825
0.717596418
0.7186159811
0.7193708653
0.7199244364
0.7203273247
0.7206189171
0.7208291781
0.7209804852
0.7210892951
0.7211675608
0.7212238836
0.7212644209
0.7212935505
0.7213144102
0.7213291612
0.7213387929
0.7213439657
0.7213467768
0.7213467211
0.7213296827
0.4994615414
0.516300245
0.5112507595
0.5055871145
0.499822139
0.4936796129
0.487495981
0.481334716
0.4755421995
0.470405817
0.4663187997
0.4636621576
0.4628080393
0.4640578156
0.467610217
0.4735322502
0.4817536137
0.4920793914
0.5042186746
0.5178205586
0.5325069175
0.5478999919
0.5636435877
0.5794149918
0.5949286891
0.6099395516
0.6242418132
0.6376681788
0.6500882416
0.6614078133
0.6715680792
0.6805449604
0.6883476398
0.6950161646
0.7006175896
0.7052408147
0.7089902805
0.7119791025
0.7143222905
0.7161307479
0.7175065605
0.7185398705
0.7193073821
0.7198722393
0.7202849519
0.7205848903
0.7208020913
0.7209590633
0.7210724256
0.7211543028
0.7212134599
0.7212561988
0.7212870291
0.7213092135
0.721324968
0.7213353213
0.7213412157
0.7213447306
0.7213443137
0.721328402
0.4749118045
0.484674851
0.4796741989
0.47424868
0.4688949277
0.4632959759
0.4578609065
0.4526813607
0.4481294575
0.4445101825
0.4422101123
0.4415818683
0.4429416494
0.4465138233
0.4524073514
0.4605999395
0.4709445331
0.4831906093
0.4970160242
0.5120609875
0.5279555628
0.5443415501
0.5608883966
0.5773006399
0.5933189286
0.6087220144
0.6233249894
0.6369784089
0.649566939
0.6610090652
0.6712566039
0.6802943713
0.6881389241
0.6948363081
0.7004582952
0.705097307
0.7088602131
0.71186161
0.7142172267
0.7160381372
0.7174262602
0.7184714178
0.7192499787
0.7198248248
0.7202463081
0.7205537475
0.7207772189
0.7209393308
0.7210568383
0.7211420135
0.7212037649
0.721248522
0.7212809154
0.7213043199
0.7213209871
0.7213320027
0.7213386053
0.7213427327
0.7213419345
0.7213272387
0.4491300676
0.452823439
0.4481918352
0.4431341582
0.4383363241
0.4334550193
0.4289501069
0.4249413735
0.4218150442
0.4198815046
0.4195062853
0.4209998629
0.4246123241
0.4304870854
0.4386470906
0.4489914376
0.4613113872
0.4753168099
0.4906682711
0.5070071975
0.5239778073
0.5412439257
0.5585005582
0.5754777983
0.5919401026
0.607687546
0.6225536623
0.6364047354
0.6491387367
0.6606853935
0.6710060253
0.680093464
0.6879709613
0.6946900383
0.7003267819
0.7049768266
0.7087492364
0.7117599139
0.7141251797
0.7159561873
0.7173546239
0.7184099448
0.7191981459
0.7197818152
0.7202111164
0.7205252884
0.7207544179
0.7209211877
0.7210424645
0.7211306472
0.7211947694
0.7212413734
0.7212752013
0.7212997263
0.7213172187
0.7213288468
0.7213361405
0.7213407757
0.7213396164
0.7213261588
0.4223093755
0.4211372653
0.4170733837
0.4125129629
0.4084046688
0.4043979367
0.4009833358
0.3983061649
0.3967551922
0.3966343709
0.3982756164
0.4019365435
0.4077949653
0.4159136318
0.4262366351
0.4385968233
0.4527384343
0.4683456423
0.4850727255
0.5025695065
0.5204980011
0.5385449279
0.5564298533
0.5739063848
0.5907604517
0.6068110454
0.6219079802
0.6359314124
0.6487910904
0.6604267575
0.6708082719
0.6799357287
0.6878384928
0.6945731087
0.7002196278
0.704876627
0.7086551588
0.7116722777
0.7140447847
0.7158838357
0.7172908326
0.718354827
0.7191514122
0.7197428587
0.7201791177
0.7204993242
0.7207335529
0.7209045381
0.7210292376
0.7211201589
0.7211864442
0.7212347353
0.7212698779
0.7212954278
0.7213136627
0.7213258627
0.7213338218
0.7213388572
0.7213373933
0.7213252012
0.394762473
0.3899697205
0.3865823447
0.3826414306
0.3793387979
0.3763398358
0.3741474331
0.3729286001
0.3730643113
0.3748413061
0.3785471833
0.3843786882
0.3924386277
0.4027126687
0.4150754256
0.4293063292
0.4451160063
0.4621744592
0.480137957
0.4986695154
0.5174508202
0.536191241
0.5546333628
0.5725521692
0.5897527887
0.6060709283
0.6213707702
0.6355447225
0.6485129906
0.6602242784
0.6706561546
0.6798153298
0.6877367779
0.6944816717
0.7001337197
0.7047942008
0.7085759725
0.711597105
0.7139747832
0.7158200987
0.7172341249
0.7183054806
0.7191093354
0.7197076235
0.7201500656
0.7204756745
0.7207144931
0.7208892885
0.7210170921
0.7211105036
0.721178759
0.7212285892
0.721264935
0.7212914181
0.7213103188
0.7213230579
0.7213316455
0.7213369902