/*--------------------------------*- C++ -*----------------------------------*\
  =========                 |
  \\      /  F ield         | OpenFOAM: The Open Source CFD Toolbox
   \\    /   O peration     | Website:  https://openfoam.org
    \\  /    A nd           | Version:  12
     \\/     M anipulation  |
\*---------------------------------------------------------------------------*/
FoamFile
{
    format      ascii;
    class       volScalarField;
    location    "750";
    object      T;
}
// * * * * * * * * * * * * * * * * * * * * * * * * * * * * * * * * * * * * * //

dimensions      [0 0 0 1 0 0 0];

internalField   nonuniform List<scalar> 
16200
(
294.6358325
294.6410032
294.4977301
294.1449919
293.4268999
291.9460419
288.8011858
283.0245419
279.6272519
279.3458041
279.4484973
279.5420929
279.6582324
279.7862934
279.9365708
280.1085052
280.308558
280.540186
280.8093595
281.121793
281.4843116
281.9042018
282.3893205
282.9477476
283.5873244
284.314892
285.1351202
286.0488673
287.0510594
288.1284096
289.2578128
290.4067591
291.5367588
292.6092553
293.591872
294.4626047
295.2109413
295.8364962
296.3464505
296.7528206
297.0700895
297.3133302
297.4968904
297.6335627
297.7342038
297.8076526
297.8608874
297.8992701
297.9268412
297.9465944
297.9607237
297.9708237
297.9780483
297.98324
297.9870021
297.989814
297.9918971
297.9935913
297.9949496
297.997119
293.8569418
293.8253401
293.6260725
293.1818472
292.2893911
290.4171448
286.473103
280.6104839
278.4627953
278.3784985
278.4846174
278.5876419
278.7131369
278.8522581
279.0159118
279.2039689
279.4233166
279.6780847
279.9748259
280.3200404
280.7213018
281.1867248
281.7249348
282.3446875
283.0542477
283.8603995
284.7668983
285.7723383
286.8675548
288.033225
289.2390146
290.4458328
291.611508
292.698032
293.677376
294.5338962
295.2634018
295.8703727
296.3648681
296.7599961
297.0700815
297.3094064
297.4913433
297.6278145
297.7290111
297.8033307
297.8574866
297.8967068
297.9249766
297.9452819
297.95983
297.9702371
297.9776808
297.9830193
297.9868844
297.9897481
297.9918924
297.9935922
297.9949704
297.9972601
293.1767983
293.0966379
292.8266115
292.2735266
291.1750139
288.8309511
283.8881689
278.7573442
277.5198232
277.5639053
277.6779743
277.790001
277.9272662
278.0803465
278.2604952
278.4681726
278.7106409
278.9927715
279.3217201
279.7048265
280.1504732
280.6676721
281.2658868
281.9545646
282.742252
283.6352149
284.6353599
285.7375304
286.9265423
288.1751268
289.444648
290.6899182
291.8671153
292.941543
293.8920065
294.7108411
295.4009073
295.971676
296.4359338
296.8076316
297.1006749
297.3282712
297.5025284
297.6341977
297.7325198
297.8051921
297.8584451
297.8971943
297.925232
297.945431
297.9599348
297.9703253
297.9777622
297.9830945
297.9869532
297.9898016
297.9919464
297.9936254
297.9949736
297.9972402
292.6246289
292.4900646
292.1363147
291.4434599
290.0747436
287.1698217
281.3019378
277.3988683
276.8423516
276.9268574
277.0479617
277.1706773
277.320707
277.4891279
277.6874349
277.9168545
278.1850433
278.4977172
278.862703
279.2882512
279.783618
280.3587383
281.0238536
281.788837
282.6619161
283.6477916
284.7449867
285.9426481
287.2175696
288.5332813
289.8432879
291.09873
292.2577097
293.2921649
294.1898025
294.9515819
295.5870652
296.1099384
296.534919
296.8761667
297.1467176
297.3583871
297.5217779
297.6462702
297.7399831
297.8097648
297.8612397
297.8989109
297.9263013
297.9461129
297.9603841
297.9706331
297.9779813
297.9832549
297.9870724
297.9898867
297.9920167
297.9936733
297.9949945
297.997269
292.1962851
292.0032448
291.5565817
290.697357
288.9724986
285.3058723
279.0599201
276.55971
276.3716048
276.4709665
276.601919
276.7371632
276.9020375
277.0883186
277.3076079
277.5620463
277.8596988
278.2072163
278.6131821
279.0868414
279.6383778
280.2785857
281.0182166
281.8669845
282.8318303
283.9144937
285.1082826
286.3945566
287.7404055
289.0999642
290.4208824
291.6543549
292.7643817
293.7323481
294.5559798
295.2445982
295.8134925
296.2794604
296.6582393
296.9635751
297.2072558
297.3994837
297.5492156
297.6643511
297.7517879
297.8174301
297.8662086
297.9021379
297.9284077
297.9474988
297.9613054
297.9712531
297.9784034
297.9835453
297.9872722
297.9900218
297.9921132
297.9937382
297.9950212
297.9972867
291.9049921
291.6523251
291.1084996
290.0661037
287.9125126
283.2237035
277.5429346
276.0873493
276.1076774
276.2119086
276.3543496
276.5036734
276.6849964
276.8911772
277.1338422
277.4162135
277.7468367
278.1333997
278.5853163
279.1128166
279.7268901
280.4388707
281.2594626
282.1973638
283.2570147
284.435538
285.718962
287.0788852
288.4719175
289.844291
291.141517
292.3193997
293.3514761
294.230323
294.963631
295.567942
296.0627961
296.4667832
296.7957025
297.0622948
297.2767873
297.4476297
297.5820778
297.6865237
297.7666193
297.8272934
297.8727472
297.9064687
297.9312791
297.9494074
297.9625785
297.9721061
297.9789773
297.9839327
297.9875325
297.9901946
297.9922306
297.9938172
297.9950576
297.997315
291.753541
291.4353974
290.782271
289.5168492
286.835885
281.092602
276.5628812
275.8331235
276.0299243
276.1493194
276.3046619
276.4699893
276.6699147
276.8986842
277.1678917
277.4819458
277.8498972
278.280455
278.7838035
279.3709886
280.0535387
280.8428962
281.7490639
282.778722
283.9323211
285.2003519
286.5593934
287.9699726
289.3790434
290.7283303
291.9660703
293.0570612
293.9868559
294.7595685
295.3917305
295.9053913
296.3226907
296.6627374
296.9405598
297.1674347
297.3518288
297.5003913
297.6186964
297.7116668
297.7837376
297.8388754
297.8805498
297.9117113
297.9347969
297.9517666
297.9641607
297.9731675
297.9796893
297.9844097
297.9878499
297.9904031
297.9923682
297.9939096
297.9951017
297.9973467
291.7474499
291.3559643
290.5751231
289.0116697
285.5984377
279.2551622
276.124719
276.0039079
276.1469232
276.2756876
276.4460434
276.6299866
276.8513407
277.1059757
277.4053886
277.7552028
278.1649679
278.6443551
279.2042462
279.8563301
280.6123857
281.4834298
282.4778653
283.5989441
284.8411505
286.1860616
287.5990936
289.029873
290.4185684
291.7073171
292.8521215
293.8300797
294.6396759
295.2955946
295.8213341
296.2424946
296.5822248
296.8590579
297.0866077
297.2743785
297.4289865
297.5553092
297.6573178
297.7385498
297.8022923
297.8515964
297.8892269
297.9176073
297.9387916
297.9544667
297.9659821
297.9743935
297.9805123
297.9849603
297.9882151
297.9906421
297.9925239
297.994014
297.9951535
297.9973842
291.8848789
291.4197521
290.4893521
288.5504462
284.1350369
277.9956544
276.1099183
276.2712662
276.4387543
276.5826906
276.7697573
276.9745333
277.2197616
277.5031217
277.836007
278.2252813
278.6810291
279.2138366
279.8351971
280.5571742
281.3912818
282.3472057
283.4303682
284.6387063
285.9585132
287.3605164
288.798534
290.2134839
291.5434251
292.7363774
293.7602503
294.6060833
295.2846487
295.8192692
296.2381886
296.5686606
296.8334895
297.0498008
297.2293637
297.3797535
297.5057427
297.6105274
297.6965947
297.7662108
297.8216083
297.8649905
297.8984615
297.9239445
297.9431233
297.9574172
297.9679849
297.975748
297.9814247
297.9855716
297.9886208
297.9909079
297.9926961
297.9941296
297.9952124
297.9974266
292.14393
291.596554
290.4811263
288.0932582
282.5616928
277.3988198
276.6181328
276.7209752
276.8941435
277.0545273
277.2602218
277.4882607
277.7601222
278.0754258
278.4455012
278.8784453
279.3848846
279.9761733
280.6641573
281.4607491
282.3763587
283.4180853
284.5866616
285.8726318
287.2521052
288.6840537
290.1120951
291.4725656
292.7070395
293.7743012
294.6566541
295.3589527
295.902403
296.3165322
296.6321229
296.8764515
297.0709452
297.230764
297.3656016
297.4810743
297.5801925
297.6646028
297.7354505
297.7938607
297.8411173
297.8786556
297.9079743
297.9305319
297.9476637
297.960533
297.9701139
297.9771962
297.9824047
297.9862307
297.9890598
297.9911964
297.992883
297.9942556
297.9952783
297.9974743
292.5155891
291.8715283
290.5030885
287.4836619
281.1368778
277.2752835
277.153481
277.3133825
277.4984483
277.6779003
277.9045602
278.1587053
278.4604523
278.8114205
279.222909
279.7041388
280.2661661
280.9207942
281.6797566
282.5540764
283.5520116
284.6766273
285.9221043
287.2695788
288.6836549
290.1121949
291.4919965
292.7602534
293.8675087
294.7866942
295.5150749
296.0697208
296.4797136
296.7782807
296.9968108
297.1613439
297.2912317
297.3993606
297.4932806
297.5767153
297.6510455
297.7165237
297.7731061
297.8209113
297.8603846
297.8922767
297.9175414
297.9372133
297.9523057
297.9637425
297.9723222
297.9787077
297.9834335
297.9869262
297.9895255
297.9915039
297.9930831
297.9943912
297.9953507
297.9975269
292.9968114
292.2443046
290.5614512
286.6411185
280.1552197
277.7921238
277.8744393
278.0435578
278.242618
278.4434365
278.6935854
278.9768229
279.3118363
279.702187
280.1591324
280.6928173
281.3145391
282.0361533
282.8687091
283.8214422
284.8991735
286.0992324
287.4073019
288.7935199
290.2108955
291.5987245
292.8920244
294.0346053
294.9902144
295.7473484
296.3170786
296.7261408
297.0087322
297.1995282
297.3290017
297.4210887
297.492667
297.5542415
297.6112713
297.6657182
297.7174945
297.7656234
297.8090245
297.8469415
297.8790882
297.9056137
297.9269876
297.9438636
297.9569621
297.9669858
297.9745694
297.9802564
297.9844944
297.987648
297.9900119
297.9918273
297.9932948
297.9945354
297.9954294
297.9975846
293.5809845
292.6879966
290.6169105
285.6374435
279.9028918
278.5486942
278.7257946
278.8998801
279.116326
279.3410541
279.6173063
279.9325168
280.3039387
280.7369572
281.2428115
281.8323751
282.5169724
283.3080137
284.2150893
285.2444503
286.3958539
287.6589558
289.0092019
290.4051828
291.7900342
293.098862
294.2707457
295.2610668
296.0491018
296.6383974
297.051452
297.3217322
297.4859829
297.5785085
297.6277913
297.6551489
297.674828
297.6949916
297.7191411
297.7476439
297.7791168
297.8115165
297.8428709
297.8716729
297.8970051
297.9184937
297.9361828
297.9503874
297.9615643
297.9702148
297.9768229
297.9818204
297.9855733
297.9883872
297.9905138
297.9921635
297.9935167
297.9946875
297.9955142
297.9976474
294.2660371
293.1725896
290.5582898
284.645485
279.8810123
279.4431044
279.6890264
279.8721135
280.1080095
280.3585824
280.6631704
281.0128722
281.4236563
281.9025803
282.4608445
283.1097044
283.8600484
284.7220354
285.7026882
286.8037973
288.0182702
289.3262858
290.6920746
292.0637327
293.37823
294.5720545
295.5938034
296.4136725
297.0267186
297.4495186
297.713006
297.8545291
297.9112454
297.9157656
297.8939161
297.8641691
297.8381596
297.8218457
297.8169493
297.8224272
297.8357725
297.8540288
297.8744666
297.89494
297.9139926
297.9307997
297.9450348
297.9567145
297.9660604
297.9733923
297.9790565
297.9833817
297.9866584
297.9891363
297.9910265
297.9925099
297.9937477
297.9948468
297.9956047
297.9977153
295.0394931
293.6792318
290.3210522
283.9374085
280.6186573
280.4721794
280.7455998
280.9433818
281.2014623
281.4807727
281.8171131
282.2050516
282.6593769
283.1884689
283.8032562
284.5148066
285.3329001
286.2654704
287.315693
288.4792833
289.7405649
291.0690727
292.418233
293.72854
294.9360081
295.9841863
296.8351789
297.4751276
297.9133705
298.1766157
298.3011744
298.325826
298.2865376
298.2133719
298.1291727
298.0495503
297.9836649
297.9354622
297.9050839
297.8902598
297.8875216
297.8931406
297.9037494
297.9166639
297.9299708
297.9424594
297.9534827
297.9627961
297.9704128
297.9764902
297.9812497
297.9849263
297.98774
297.989889
297.9915461
297.9928643
297.9939864
297.9950125
297.9957004
297.9977881
295.8856799
294.1476662
289.9351709
283.8132161
281.5964297
281.6084325
281.8904813
282.108152
282.3918012
282.703501
283.0755608
283.5057037
284.0075434
284.5903665
285.2645591
286.0404177
286.9258623
287.9254502
289.0369749
290.2483338
291.5338979
292.8525699
294.1492396
295.3613075
296.4294894
297.3090139
297.9774347
298.4360228
298.7057576
298.820314
298.8186477
298.7390662
298.6152669
298.4743039
298.3359638
298.2131209
298.1126656
298.0367493
297.984134
297.9514972
297.9345569
297.9289379
297.93074
297.9368293
297.9449073
297.9534353
297.9614904
297.9686006
297.9745958
297.9794882
297.9833875
297.9864429
297.9888103
297.99064
297.9920691
297.9932244
297.9942317
297.995184
297.995799
297.9978661
296.7906401
294.5639944
289.530125
283.8920621
282.7016877
282.8376044
283.127992
283.3699875
283.6815441
284.0280644
284.4384688
284.9133476
285.4651898
286.1037899
286.8386351
287.6784376
288.6281096
289.6872746
290.8466246
292.0848617
293.3661455
294.6404097
295.8479443
296.9284012
297.8320863
298.5286745
299.011089
299.2935089
299.4054252
299.3845193
299.2701927
299.0989462
298.9015798
298.7019785
298.5169696
298.3569016
298.2266319
298.126739
298.0547969
298.0065894
297.9771531
297.9615754
297.9555154
297.9554653
297.9588043
297.9637159
297.9690408
297.9741101
297.9785927
297.9823726
297.9854588
297.9879232
297.9898632
297.991385
297.9925928
297.9935886
297.9944826
297.9953601
297.9959051
297.997949
297.6935613
294.9129968
289.2684955
284.3806761
283.9473256
284.1526899
284.4546423
284.7242007
285.0658779
285.4496316
285.9010969
286.4233752
287.0277226
287.7237678
288.519345
289.4203691
290.4273067
291.5333296
292.7207969
293.9588691
295.2027426
296.3966157
297.480988
298.4028241
299.125305
299.6332779
299.933382
300.0497394
300.0172664
299.8751767
299.6617135
299.4107439
299.1498945
298.8999299
298.6749218
298.4829439
298.3270641
298.2064999
298.1178114
298.056031
298.0156286
297.9912489
297.9781885
297.9726312
297.9716879
297.9733079
297.9761307
297.9793169
297.9823946
297.9851346
297.9874559
297.9893609
297.9908938
297.9921204
297.9931145
297.9939551
297.9947381
297.9955408
297.9960204
297.9980369
298.4941788
295.2135264
289.2619189
285.6205092
285.3051536
285.5492942
285.8676197
286.1685588
286.5435235
286.9678123
287.4636116
288.0359398
288.6944312
289.4475964
290.3006568
291.2555279
292.3070474
293.4409536
294.6308808
295.8372339
297.00878
298.0881951
299.0210084
299.7653076
300.2985721
300.6198066
300.7467456
300.7103347
300.5482255
300.2992885
299.9995586
299.6798482
299.3645865
299.0715987
298.8124582
298.5932272
298.4154175
298.2770792
298.1739143
298.1003269
298.0503193
298.018174
297.9988921
297.9884046
297.9836
297.9822315
297.9827671
297.9842207
297.9859979
297.9877692
297.9893739
297.9907517
297.9918985
297.9928434
297.9936323
297.9943224
297.9949975
297.9957261
297.9961437
297.9981297
299.1708212
295.5010074
289.6777849
286.7506172
286.7735534
287.0378195
287.3752772
287.7107081
288.1213497
288.5881611
289.1296229
289.7519167
290.4626364
291.2682613
292.1705757
293.1665294
294.2444484
295.382111
296.544802
297.6860507
298.7517212
299.6874881
300.44795
301.0043917
301.3483083
301.4906508
301.457252
301.2830372
301.0062718
300.6641957
300.2900446
299.9114537
299.5497943
299.2202051
298.9320384
298.6895989
298.4930571
298.3394684
298.2238119
298.1399696
298.0815604
298.0425728
298.0177686
298.0028732
297.9945922
297.9905147
297.9889637
297.9888268
297.989403
297.9902746
297.9912099
297.9920924
297.9928745
297.9935517
297.9941442
297.9946894
297.99526
297.9959159
297.9962723
297.9982273
299.7838284
295.7920338
290.3232718
288.1540348
288.3436448
288.621738
288.9821212
289.3530243
289.7994742
290.3081253
290.8936349
291.562561
292.3201045
293.1698729
294.1093931
295.1297188
296.211945
297.3258974
298.4298502
299.4734553
300.4038085
301.1736841
301.7493829
302.1157191
302.2765819
302.252073
302.0732346
301.7766419
301.3996529
300.9770951
300.5391601
300.1103838
299.7093137
299.3486849
299.0359005
298.7737435
298.5612342
298.3945834
298.2681639
298.1754254
298.1096747
298.0646635
298.0349616
298.0161289
298.0047209
297.9981909
297.9947388
297.9931443
297.9926135
297.9926512
297.9929628
297.9933813
297.9938198
297.9942435
297.9946487
297.9950547
297.9955249
297.9961095
297.9964054
297.9983295
300.425254
296.1493404
291.0248264
289.6904681
289.9990925
290.2928072
290.6771427
291.0833992
291.5648281
292.1134706
292.740225
293.451113
294.2484618
295.1320237
296.0940828
297.1189756
298.1803724
299.2411607
300.2551332
301.1718364
301.9436324
302.5333643
302.9200031
303.1007952
303.0895838
302.9127765
302.6041524
302.2001986
301.736384
301.2447351
300.7523948
300.2809989
299.8465498
299.459663
299.1260465
298.8471719
298.6210767
298.443256
298.3075748
298.2071267
298.1349656
298.0846545
298.0506114
298.0282633
298.0140446
298.0052958
298.0001134
297.9971845
297.9956348
297.9949009
297.9946324
297.9946172
297.9947329
297.9949173
297.9951444
297.9954174
297.9957914
297.996306
297.9965422
297.9984361
301.0762296
296.648853
292.2645883
291.3413832
291.7215757
292.0352035
292.444541
292.8862265
293.4022578
293.9892025
294.6542325
295.4016605
296.2301963
297.134657
298.1012933
299.1075226
300.1204303
301.0981553
301.9933853
302.7593661
303.3568627
303.7602283
303.9605671
303.9655152
303.7961736
303.4827187
303.0597457
302.5624749
302.0239382
301.4732547
300.9346656
300.4271687
299.9645102
299.5554551
299.2042448
298.9112238
298.6735899
298.4862325
298.3425916
298.2354684
298.1577134
298.1027414
298.064851
298.0393654
298.0226211
298.0118657
298.0051094
298.0009601
297.9984735
297.9970267
297.9962196
297.9957998
297.995613
297.9955718
297.9956303
297.9957765
297.9960588
297.9965043
297.9966805
297.9985476
301.7949571
297.308061
293.663386
293.079865
293.5022958
293.8409954
294.2766344
294.7540515
295.3043636
295.9271688
296.6258228
297.4017081
298.249148
299.157377
300.1064865
301.0677334
302.003481
302.8700609
303.6225344
304.2209416
304.6362223
304.8541982
304.8765036
304.7187102
304.4066497
303.9722185
303.4494654
302.8716319
302.269087
301.6681205
301.0903041
300.5522821
300.065823
299.6380851
299.2720444
298.9670769
298.7196624
298.5241766
298.3737042
298.260807
298.1781738
298.119104
298.0778052
298.0495196
298.030506
298.0179368
298.0097494
298.0044844
298.0011371
297.9990323
297.9977257
297.9969291
297.9964593
297.9962061
297.9961051
297.996131
297.9963264
297.9967031
297.9968215
297.9986645
302.6158441
298.4009837
295.1744276
294.9012829
295.3448834
295.7145644
296.1766798
296.6880065
297.2695632
297.9222556
298.6455213
299.4369545
300.2860921
301.1765425
302.0828546
302.9716599
303.803067
304.5346723
305.1268466
305.5483714
305.7807456
305.8200972
305.6764385
305.3708523
304.9317796
304.3913232
303.78211
303.1350477
302.4778355
301.834122
301.2230784
300.6592772
300.1527648
299.7093089
299.3307934
299.0157603
298.7600744
298.5576745
298.4013485
298.2834626
298.196578
298.133907
298.0895888
298.0588045
298.0377523
298.0235435
298.0140553
298.0077709
298.0036335
298.0009218
297.9991526
297.9980055
297.9972714
297.9968194
297.996568
297.9964802
297.9965934
297.9969009
297.9969674
297.9987859
303.5129225
299.5410752
296.8465189
296.8080697
297.259442
297.6606913
298.1460265
298.6851826
299.2904578
299.9624879
300.6967212
301.4864777
302.3164571
303.1650993
304.0026053
304.7930276
305.4968794
306.0757381
306.4972952
306.7397886
306.7945413
306.6661843
306.3708513
305.933018
305.3821074
304.7494073
304.065632
303.3592521
302.6554263
301.9754057
301.336237
300.750683
300.2272968
299.7706426
299.3816595
299.0581695
298.7955082
298.5872421
298.4259102
298.30372
298.2131337
298.1472992
298.1003068
298.067293
298.0444094
298.0287186
298.0180483
298.0108329
298.0059705
298.0026995
298.0005023
297.9990297
297.9980491
297.9974111
297.9970181
297.9968234
297.9968588
297.9970968
297.9971149
297.9989099
304.5131404
300.6572605
298.6533417
298.787853
299.2402061
299.668531
300.1715424
300.7299098
301.348584
302.0266981
302.7556352
303.5242568
304.3127677
305.0954258
305.8397903
306.5096537
307.0684075
307.4836105
307.7312245
307.7985974
307.6854272
307.4028351
306.9710203
306.4161668
305.7675329
305.0549725
304.3070779
303.5499428
302.8063906
302.0955363
301.4325654
300.8286685
300.2911038
299.8233921
299.4256526
299.0950824
298.8265595
298.613332
298.4477298
298.3218323
298.2280265
298.1594148
298.1100547
298.0750516
298.0505229
298.033493
298.0217485
298.0136832
298.0081558
298.0043699
298.0017771
298.0000024
297.9987925
297.9979806
297.9974546
297.9971597
297.9971217
297.9972895
297.9972711
297.9990338
305.6436675
301.8730471
300.5649727
300.8177594
301.2694539
301.7184765
302.2326082
302.8004818
303.4207288
304.0900866
304.7960002
305.5231276
306.2480107
306.9422018
307.5726185
308.1050201
308.5075921
308.754966
308.8313452
308.7321011
308.4635529
308.0413985
307.4882092
306.8306427
306.0970564
305.3155552
304.5125892
303.7120321
302.9346093
302.1975571
301.5144407
300.8950865
300.3456286
299.8686798
299.4636442
299.1271733
298.8537474
298.6363404
298.4671072
298.3380239
298.241422
298.1703742
298.1189188
298.0821413
298.056135
298.0378951
298.0251749
298.0163338
298.0101971
298.0059373
298.0029791
298.0009246
297.9995016
297.9985274
297.997877
297.9974886
297.997381
297.9974785
297.9974347
297.9991539
306.8781862
303.3851072
302.5535198
302.881472
303.329772
303.7916458
304.3085806
304.8745299
305.4827656
306.1271011
306.7914248
307.4568857
308.0975894
308.6841053
309.1846533
309.5687348
309.8104698
309.8917692
309.8043196
309.5500495
309.1401576
308.5932824
307.9330836
307.1858603
306.3786522
305.5377115
304.6874451
303.8497114
303.0433816
302.2840524
301.5838829
300.9515151
300.3921042
299.9074688
299.4963853
299.155026
298.8775232
298.6566141
298.4843059
298.352493
298.2534673
298.1802853
298.1269767
298.0886172
298.0612843
298.0419513
298.0283452
298.0187964
298.0121014
298.007406
298.0041107
298.0017972
298.0001765
297.9990512
297.9982844
297.9978094
297.9976358
297.997663
297.9976053
297.9992719
308.1829055
305.0391496
304.5891346
304.9626551
305.4028301
305.8680375
306.3777019
306.9287609
307.5100723
308.1124502
308.7168867
309.3020653
309.841093
310.3052405
310.6656099
310.8965654
310.9785213
310.9001831
310.659545
310.263553
309.7267523
309.0694336
308.3154453
307.4902197
306.6192923
305.7270969
304.8361608
303.9665491
303.1355105
302.3572185
301.642612
300.9993021
300.4315878
299.9405883
299.5245254
299.1791477
298.8982811
298.674457
298.4995584
298.3654151
298.2642935
298.1892446
298.1342987
298.0945295
298.0660059
298.045686
298.0312758
298.0210817
298.0138757
298.0087801
298.0051742
298.0026214
298.0008175
297.9995517
297.9986766
297.9981216
297.9978849
297.9978427
297.9977822
297.9993874
309.555623
306.8053513
306.6454273
307.0409906
307.4686742
307.926213
308.4171581
308.9394605
309.4784848
310.0224125
310.5502627
311.0394693
311.46354
311.7958271
312.0113529
312.0897935
312.0175885
311.7893322
311.4080153
310.8841957
310.2345263
309.4800092
308.6441022
307.7511038
306.8250126
305.8885591
304.9625838
304.0655767
303.2133767
302.4189232
301.6920945
301.039601
300.4649874
299.9687536
299.5486275
299.1999802
298.9163658
298.6901363
298.5130698
298.3769462
298.2740177
298.1973386
298.1409479
298.0999236
298.0703321
298.0491216
298.0339819
298.0231999
298.0155267
298.0100638
298.0061719
298.0033983
298.0014249
298.0000286
297.9990529
297.9984245
297.9981271
297.9980174
297.997965
297.9994993
310.9895333
308.6490961
308.70349
309.0969221
309.5054251
309.9433038
310.4031537
310.8827659
311.364899
311.8357114
312.2732433
312.6548385
312.9555537
313.1517638
313.2228936
313.1538304
312.9363678
312.5699098
312.0611987
311.4232363
310.6738492
309.8341178
308.9267727
307.9748798
307.0009631
306.0262076
305.0699647
304.1493539
303.2789923
302.470749
301.7335777
301.0733966
300.4930823
299.9925815
299.5691793
299.2179078
298.9320788
298.7038865
298.5250208
298.3872243
298.2827438
298.204645
298.1469813
298.1048408
298.0742923
298.0522787
298.0364779
298.0251607
298.0170604
298.0112608
298.007106
298.0041289
298.0019991
298.0004818
297.9994132
297.9987174
297.9983614
297.9981874
297.9981524
297.9996062
312.4640714
310.5357489
310.7359562
311.1057256
311.4874058
311.8941287
312.3111953
312.7356656
313.1485666
313.5347343
313.8721733
314.139122
314.3130067
314.3737202
314.3051073
314.0967941
313.7450656
313.2530689
312.6302308
311.8910935
311.0539993
310.139718
309.1700903
308.1669593
307.1514912
306.1434991
305.1610359
304.2200346
303.3340553
302.5140371
301.7681234
301.1015321
300.516543
300.0126057
299.5866048
299.2332663
298.9456844
298.7159145
298.5355719
298.3963722
298.2905651
298.2112334
298.1524504
298.1093184
298.0779134
298.0551763
298.0387768
298.0269729
298.0184827
298.0123748
298.0079787
298.0048144
298.0025404
298.0009112
297.999757
297.9989999
297.9985868
297.9983527
297.9983428
297.9997062
313.9341933
312.4256739
312.6995799
313.043166
313.3903262
313.7559232
314.1203449
314.4796559
314.8140203
315.1076893
315.3394497
315.4891671
315.5371017
315.4667656
315.26611
314.9288338
314.4548261
313.8500364
313.1257269
312.2973253
311.3832616
310.403781
309.3797884
308.3319783
307.2803027
306.2433743
305.2381223
304.2794554
303.3800188
302.5499402
301.7966489
301.1247394
300.5359549
300.0292942
299.6012777
299.246353
298.9574179
298.7264049
298.5448666
298.4045005
298.2975657
298.2171672
298.1574021
298.1133912
298.0812203
298.0578321
298.0408911
298.028645
298.0197995
298.0134097
298.0087923
298.0054561
298.0030493
298.0013168
298.0000844
297.9992711
297.998802
297.9985136
297.998534
297.9997967
315.4007487
314.2850239
314.5773553
314.887785
315.1938163
315.5100522
315.8140807
316.100967
316.3508051
316.5479086
316.6724377
316.7063074
316.6327396
316.4386737
316.1156654
315.6607708
315.0766778
314.3713702
313.5573128
312.6503732
311.6688146
310.6322657
309.5607231
308.4738424
307.3905115
306.3283034
305.3031799
304.3291667
303.4181148
302.5794406
301.8199406
301.1436501
300.5518259
300.0430555
299.6135259
299.2574301
298.9674878
298.7355221
298.5530336
298.4117089
298.3038219
298.2225039
298.1618796
298.1170907
298.0842361
298.0602629
298.0428325
298.0301853
298.0210162
298.0143689
298.0095489
298.0060552
298.0035264
298.0016987
298.0003952
297.9995305
297.9990065
297.9986708
297.9987228
297.9998768
316.84649
316.0740099
316.3499897
316.6220997
316.8812913
317.1418514
317.3801774
317.5904159
317.7531816
317.8533015
317.8726379
317.7952959
317.6073384
317.2987686
316.8641826
316.3033244
315.6210071
314.8266603
313.9335046
312.9575658
311.9168094
310.8302343
309.7170001
308.5958495
307.4847496
306.400381
305.3578755
304.3704975
303.4494063
302.6033921
301.8386866
301.1588199
300.5646054
300.054253
299.6236425
299.2667329
298.9760816
298.7434147
298.5601895
298.4180878
298.3094032
298.2272966
298.1659226
298.1204466
298.0869825
298.0624842
298.0446123
298.0316015
298.0221382
298.015256
298.010251
298.0066131
298.0039723
298.0020572
298.0006895
297.9997771
297.9991996
297.9988248
297.998905
297.9999509
318.2554482
317.7609375
318.0010376
318.2309756
318.4398239
318.6411581
318.8114275
318.944006
319.0204373
319.0263395
318.9453901
318.7638303
318.4703031
318.0574512
317.5223711
316.8669234
316.0975178
315.2246018
314.2618552
313.2253
312.1325543
311.0020229
309.8521224
308.7008093
307.5652608
306.4613974
305.4036396
304.4045943
303.474816
302.6225403
301.8534914
301.1707402
300.5746932
300.0632114
299.6318903
299.2744731
298.9833689
298.7502176
298.5664403
298.4237201
298.3143736
298.231594
298.169568
298.1234862
298.0894798
298.0645107
298.0462409
298.0329011
298.0231706
298.0160747
298.0109008
298.0071311
298.0043877
298.0023927
298.0009672
298.0000104
297.9993814
297.9989758
297.9990782
298.0000234
319.6093018
319.3224468
319.5182545
319.7037124
319.8610627
320.0023957
320.10513
320.1619864
320.1556374
320.0726053
319.8983486
319.621084
319.2317213
318.7251273
318.1004281
317.3611413
316.514877
315.5728047
314.5488783
313.459036
312.3205513
311.1512986
309.9690527
308.7911024
307.6339543
306.5128849
305.4417052
304.432453
303.4951518
302.6375432
301.8648927
301.1798511
300.5824493
300.0702246
299.6385084
299.2808441
298.9895052
298.7560543
298.5718838
298.4286822
298.3187923
298.2354415
298.1728501
298.1262355
298.091747
298.0663565
298.0477286
298.0340914
298.0241186
298.0168283
298.0115006
298.0076107
298.0047734
298.0027056
298.0012283
298.0002296
297.9995521
297.999123
297.9992399
298.0000885
320.8918545
320.7421211
320.8929676
321.0337381
321.1409738
321.2243658
321.2627387
321.2482662
321.1648322
320.9998997
320.7406039
320.3769374
319.9017608
319.3117938
318.6078036
317.7946106
316.880741
315.8778906
314.8001818
313.6634418
312.4846361
311.2811842
310.0703185
308.868766
307.6924735
306.5561715
305.4731494
304.4549509
303.5111316
302.6489903
301.8733756
301.1865523
300.5882026
300.0755624
299.6437173
299.286025
298.9946348
298.7610406
298.5766117
298.4330463
298.3227154
298.2388824
298.175802
298.1287194
298.093803
298.0680355
298.0490854
298.0351796
298.0249873
298.0175205
298.0120528
298.0080535
298.0051303
298.0029966
298.001473
298.0004346
297.9997119
297.9992644
297.9993864
298.0001503
322.0893187
322.0097631
322.1217626
322.220338
322.2810087
322.3106065
322.2896036
322.209778
322.0562595
321.8174357
321.4819658
321.0413987
320.4902506
319.8267763
319.0530746
318.1750043
317.2018103
316.1455916
315.0205849
313.8425137
312.6280912
311.394358
310.158095
308.9355647
307.7422529
306.5924269
305.4989296
304.4728751
303.523405
302.6574194
301.8793863
301.1912134
300.5922588
300.0794768
299.6477233
299.2901838
298.9988935
298.7652854
298.5807109
298.4368807
298.3261964
298.2419581
298.1784555
298.1309619
298.0956656
298.0695611
298.0503213
298.0361731
298.025782
298.0181549
298.0125602
298.0084611
298.0054595
298.0032665
298.0017013
298.0006248
297.9998607
297.9993979
297.999523
298.000211
323.1924165
323.1297215
323.2090495
323.2688404
323.2871742
323.2680312
323.1935608
323.0552027
322.8392544
322.5349445
322.1322635
321.6240953
321.0063468
320.2785457
319.4438813
318.5090576
317.483905
316.3808516
315.2142284
313.9996849
312.7537421
311.4931336
310.2342715
308.9930454
307.7845617
306.6226954
305.519909
304.4869423
303.5325688
302.6633287
301.8833403
301.1941809
300.5949056
300.0822056
299.6507219
299.2934802
299.0024108
298.7688928
298.5842641
298.4402509
298.3292866
298.2447085
298.1808412
298.1329864
298.0973527
298.0709465
298.0514462
298.037079
298.0265079
298.0187355
298.0130252
298.0088353
298.0057623
298.003516
298.0019134
298.0008003
297.9999985
297.9995236
297.9996557
298.00026
324.1628894
324.1127281
324.1625216
324.1873948
324.1680606