/*--------------------------------*- C++ -*----------------------------------*\
  =========                 |
  \\      /  F ield         | OpenFOAM: The Open Source CFD Toolbox
   \\    /   O peration     | Website:  https://openfoam.org
    \\  /    A nd           | Version:  12
     \\/     M anipulation  |
\*---------------------------------------------------------------------------*/
FoamFile
{
    format      ascii;
    class       volVectorField;
    location    "750";
    object      U;
}
// * * * * * * * * * * * * * * * * * * * * * * * * * * * * * * * * * * * * * //

dimensions      [0 1 -1 0 0 0 0];

internalField   nonuniform List<vector> 
16200
(
(183.7594824 -7.299013492e-17 -1.498279922)
(219.109572 3.524676024e-17 -1.423290238)
(238.9874846 -2.448455269e-20 -1.597262484)
(254.6252787 0 -1.768701904)
(269.1086246 0 -1.956468178)
(284.1214894 -2.522455677e-17 -2.183358966)
(299.8143459 2.884195492e-17 -2.499527029)
(312.418028 6.224031998e-17 -2.879013231)
(316.2062165 -1.211852659e-16 -3.010908784)
(316.205709 1.085183299e-16 -2.988615043)
(315.8889602 -4.621397291e-17 -3.046649765)
(315.5881115 0 -3.026592719)
(315.2171103 0 -3.0916159)
(314.8085861 -5.374192915e-17 -3.096458731)
(314.3277766 4.485793055e-17 -3.158649753)
(313.7771352 0 -3.194389176)
(313.1349033 0 -3.263674927)
(312.3897655 8.216812692e-19 -3.33084884)
(311.5214462 4.451039829e-17 -3.420919847)
(310.5105232 -3.614417818e-17 -3.522757381)
(309.3333018 0 -3.645783474)
(307.9640989 -2.496319916e-17 -3.787843539)
(306.3745081 2.233954682e-17 -3.951696871)
(304.5344056 3.802340645e-17 -4.135681101)
(302.4131713 -3.194272879e-17 -4.336849533)
(299.9820071 -2.732019719e-17 -4.547771626)
(297.2177053 2.297086147e-17 -4.755822525)
(294.1082827 0 -4.941411167)
(290.6607351 0 -5.077416373)
(286.9100988 5.74598841e-17 -5.130546906)
(282.9270798 -3.621271682e-17 -5.066563486)
(278.8193055 -1.042296539e-17 -4.859763317)
(274.7218102 0 -4.503835762)
(270.777328 -4.595600459e-17 -4.018282078)
(267.1132207 5.159541467e-17 -3.445844433)
(263.8238409 -8.886249765e-17 -2.841550631)
(260.9631526 7.491965653e-17 -2.258631967)
(258.5467457 0 -1.737346367)
(256.5592981 0 -1.300026734)
(254.9638859 0 -0.9521835716)
(253.7109259 7.753155768e-17 -0.6872493588)
(252.7458729 -1.310122708e-16 -0.4921845767)
(252.0150107 1.102412418e-16 -0.3520770662)
(251.4693745 0 -0.2530414766)
(251.0667783 1.567778755e-16 -0.1835770731)
(250.7725211 -1.319126826e-16 -0.1348727124)
(250.5590096 -4.782869355e-20 -0.1005142282)
(250.4049383 1.871188326e-16 -0.07600510833)
(250.2941963 -3.15318433e-16 -0.05826422402)
(250.2148179 2.655843527e-16 -0.04520531844)
(250.1580174 2.238965598e-16 -0.03542025001)
(250.1174005 3.777435997e-16 -0.02795419948)
(250.0883346 -3.188319248e-16 -0.02215109903)
(250.067434 8.082233945e-16 -0.0175614023)
(250.0522735 -4.557875996e-16 -0.01387645659)
(250.0409108 0 -0.01088063669)
(250.0323995 1.638506742e-16 -0.008383234028)
(250.0253195 0 -0.006295415588)
(250.0197842 -4.753431047e-16 -0.003830504776)
(250.0129402 -3.971165105e-19 -0.00415915028)
(187.7619524 -1.541425017e-16 -4.152517458)
(224.1823285 1.508120099e-16 -4.40827894)
(244.6226234 -5.455687812e-17 -4.901972017)
(260.7045284 -4.893397699e-17 -5.2899987)
(275.6917203 5.049353728e-17 -5.680231486)
(291.2989934 0 -6.12221902)
(307.0676518 0 -6.681592259)
(317.3381971 6.701948945e-17 -7.117238259)
(319.3472277 -6.264529005e-17 -7.207572063)
(319.2019664 0 -7.17289107)
(318.8655558 0 -7.244012876)
(318.5429564 0 -7.21440361)
(318.1450739 -6.65685563e-17 -7.284684515)
(317.7053292 5.55493144e-17 -7.283819527)
(317.1857075 -1.424609095e-18 -7.345492597)
(316.5884876 -1.193881719e-18 -7.376197492)
(315.8897897 0 -7.440121286)
(315.0766645 -2.532628988e-18 -7.499062606)
(314.1266605 0 -7.577909607)
(313.0179388 1.181171376e-18 -7.664729641)
(311.7241809 4.018507259e-18 -7.767661984)
(310.2168516 -2.901802575e-17 -7.883419576)
(308.4646886 -1.750972632e-17 -8.012756752)
(306.4348704 3.877151648e-17 -8.151696318)
(304.0946891 0 -8.293983497)
(301.4146264 6.989102686e-18 -8.427907317)
(298.3734193 -1.18909127e-17 -8.535184713)
(294.9655017 0 -8.589267356)
(291.2106961 -3.480224377e-17 -8.555386423)
(287.164178 1.452555491e-17 -8.393708563)
(282.9220473 -3.790220561e-17 -8.067538536)
(278.6164116 1.079174179e-17 -7.555813149)
(274.3975837 -3.698035909e-17 -6.864849377)
(270.408703 -1.576095535e-17 -6.032378661)
(266.7631733 0 -5.120455453)
(263.5329355 4.602900797e-17 -4.200301375)
(260.7486519 -3.879946465e-17 -3.33604746)
(258.4074049 0 -2.573440743)
(256.4826316 1.122019769e-16 -1.935905321)
(254.9330108 -9.490864655e-17 -1.42690346)
(253.7094992 8.019011282e-17 -1.035803565)
(252.7606598 2.707002812e-16 -0.7444287957)
(252.036675 -1.139019439e-16 -0.5324243279)
(251.4920887 0 -0.380732028)
(251.0874157 4.85338321e-16 -0.2733025515)
(250.7897547 -5.444269351e-16 -0.1975619987)
(250.5725988 -3.435766878e-16 -0.144129366)
(250.4151952 3.854312029e-16 -0.1062518375)
(250.3016645 0 -0.07918324377)
(250.2200784 -2.727979867e-16 -0.05963428851)
(250.161601 2.295374686e-16 -0.04534151516)
(250.119754 5.796304125e-16 -0.03474827359)
(250.0898104 3.253739842e-16 -0.02677767103)
(250.0683214 -2.740697283e-16 -0.02068464268)
(250.052748 9.239828574e-16 -0.01596081357)
(250.041182 -7.793034053e-16 -0.01224091404)
(250.0324374 -4.933753284e-16 -0.009259263697)
(250.0253438 5.558571039e-16 -0.006859501728)
(250.0197104 1.058117724e-15 -0.004107256436)
(250.0124389 9.803941364e-17 -0.004296371953)
(191.6203299 -1.59287518e-19 -6.896739838)
(229.1063005 1.619564974e-16 -7.653260491)
(250.108117 -2.368012308e-16 -8.453366552)
(266.658782 1.076856203e-16 -9.085138464)
(282.1907251 1.130478907e-16 -9.710261429)
(298.2986686 -2.554778398e-16 -10.4044221)
(313.6630164 2.832326124e-16 -11.21545385)
(321.1205316 3.683540268e-19 -11.62061138)
(321.8713635 -2.642800304e-16 -11.69177271)
(321.6205032 1.150830374e-16 -11.63971754)
(321.2644428 0 -11.71908665)
(320.9156502 7.891504858e-17 -11.6747727)
(320.4828036 -6.578903253e-17 -11.74464754)
(320.0028111 -2.619065298e-18 -11.73338103)
(319.4344185 4.835539566e-17 -11.78816071)
(318.7794995 3.777865643e-18 -11.80863659)
(318.01208 -3.290709971e-17 -11.86127793)
(317.1173626 1.738029108e-18 -11.90702707)
(316.0706104 -4.66946129e-17 -11.96982867)
(314.8473353 3.668899739e-17 -12.03748957)
(313.4183451 -2.418900595e-20 -12.11635393)
(311.751938 -2.106766778e-17 -12.20173543)
(309.8136598 1.761550938e-17 -12.2917157)
(307.5677922 0 -12.37915346)
(304.9798337 -4.26048998e-17 -12.45317988)
(302.0208989 7.031114727e-18 -12.49595723)
(298.6746703 3.699455629e-17 -12.48128762)
(294.9470414 2.136757343e-17 -12.3734995)
(290.8775462 1.844343704e-17 -12.12909021)
(286.5487792 -1.490229932e-17 -11.70307912)
(282.0870174 1.888025423e-19 -11.06123823)
(277.6482824 -4.488079718e-17 -10.19494848)
(273.391793 3.822050021e-17 -9.131139215)
(269.4514817 -9.839066961e-17 -7.930732152)
(265.9176003 2.770473352e-17 -6.675449018)
(262.8333062 0 -5.449169808)
(260.2027717 -8.076047836e-17 -4.321524019)
(258.0036654 -6.859316607e-17 -3.338471514)
(256.1983931 -1.642861048e-20 -2.52058774)
(254.74189 4.908869445e-17 -1.867047406)
(253.5864216 -8.261728525e-17 -1.362393083)
(252.6845849 -6.974842207e-17 -0.9835359848)
(251.9914695 2.351732522e-16 -0.7053907004)
(251.4662332 2.971964528e-16 -0.504554322)
(251.0731683 -1.665829436e-16 -0.3611674756)
(250.7821737 2.803421756e-16 -0.2594579183)
(250.5686798 5.891303751e-16 -0.1874694243)
(250.4131921 -3.961372902e-16 -0.1364435777)
(250.3006092 6.657427684e-16 -0.1001182374)
(250.2194602 -2.796838495e-16 -0.07408426882)
(250.1611678 -4.69905408e-16 -0.05526570736)
(250.1193922 1.973330375e-16 -0.04152437688)
(250.0894789 -6.630568777e-16 -0.03137030184)
(250.0680173 0 -0.02376698547)
(250.0524715 -1.871157234e-15 -0.01800167437)
(250.0409702 7.858376455e-16 -0.01356303282)
(250.0322346 3.300421719e-16 -0.01010133841)
(250.025236 -1.386141775e-16 -0.007389969612)
(250.0196977 -9.31551643e-16 -0.004322250619)
(250.0124622 0 -0.004427889117)
(195.1766313 -3.445824705e-16 -9.763692779)
(233.6187268 -1.697932216e-19 -11.12616479)
(255.1313672 0 -12.22692986)
(272.1948381 1.163044987e-19 -13.12504534)
(288.3521294 -1.27152795e-16 -14.0114725)
(304.8110047 1.433962461e-16 -14.9818932)
(318.8208434 -3.01828902e-19 -15.96687633)
(323.5925334 -5.988819463e-19 -16.25381664)
(323.6863133 1.066728423e-18 -16.32148523)
(323.4061127 1.161240745e-16 -16.2493416)
(323.0255023 -9.786467456e-17 -16.33852449)
(322.6467653 1.281388837e-18 -16.28133936)
(322.1754155 -6.833209892e-17 -16.35148681)
(321.6505585 5.886331487e-17 -16.33225916)
(321.0277327 4.79264003e-17 -16.38144523)
(320.307965 -4.261717581e-17 -16.39392185)
(319.4630623 -4.206758144e-18 -16.43667386)
(318.4760159 0 -16.470423)
(317.3195672 0 -16.51723456)
(315.966269 0 -16.56454062)
(314.3837776 -3.832457591e-17 -16.61641786)
(312.5370094 1.423284378e-17 -16.66646462)
(310.3883712 3.654000699e-17 -16.70953491)
(307.899946 -2.048860609e-17 -16.73432104)
(305.0372618 2.625403079e-17 -16.72380894)
(301.7754494 1.487575056e-17 -16.65219143)
(298.1083367 -2.55278391e-17 -16.48373688)
(294.0602111 2.147719068e-17 -16.17298591)
(289.6979275 -1.847693082e-17 -15.6691189)
(285.1370112 -2.973465971e-19 -14.92663216)
(280.533697 2.688366494e-17 -13.92137713)
(276.0603639 4.630046811e-17 -12.6653296)
(271.8726802 0 -11.21132654)
(268.082968 6.759535921e-17 -9.643992402)
(264.7499773 0 -8.061044885)
(261.8848828 0 -6.553331063)
(259.466045 2.084126175e-16 -5.190398262)
(257.4542479 3.520279723e-17 -4.014179736)
(255.8036648 2.39319094e-16 -3.039826458)
(254.4677829 5.059253424e-17 -2.261102268)
(253.4018291 5.545175807e-16 -1.657639584)
(252.5636117 -2.157147164e-16 -1.201966884)
(251.914026 -1.211695828e-16 -0.8650638459)
(251.417603 -9.173064245e-16 -0.6200056965)
(251.0430738 -1.689871948e-19 -0.4438419033)
(250.7637187 7.20200162e-16 -0.3181667808)
(250.5573928 6.050980032e-16 -0.2288596717)
(250.4062545 -1.117705354e-15 -0.1654393017)
(250.2962857 -5.117337597e-16 -0.1203129828)
(250.2167019 2.862494554e-16 -0.08806928358)
(250.1593504 -1.200320515e-15 -0.06489218257)
(250.1181474 0 -0.04810563653)
(250.0885941 1.349447431e-15 -0.03583267281)
(250.0673707 1.130402437e-15 -0.02676117092)
(250.0519922 9.464204953e-16 -0.01998187904)
(250.0406307 0 -0.0148440703)
(250.0319644 6.621707976e-16 -0.01091273967)
(250.0250672 6.915496063e-17 -0.007907481527)
(250.0196191 -2.078035076e-15 -0.004545894852)
(250.0123216 3.174848428e-15 -0.004557138003)
(198.4289337 -7.298439622e-16 -12.80356198)
(237.7675926 3.739281753e-16 -14.7946052)
(259.7573751 -1.409165101e-16 -16.21600527)
(277.3222779 -6.491096775e-22 -17.40328026)
(294.1220143 0 -18.57764762)
(310.7928354 3.141668749e-19 -19.84595803)
(322.2452595 3.166450855e-21 -20.8656509)
(325.0219891 0 -21.0161676)
(324.8455186 -2.211389502e-18 -21.09932184)
(324.5443456 -1.187923109e-16 -21.00820199)
(324.1319085 9.979897315e-17 -21.10695406)
(323.7170365 0 -21.0381278)
(323.2001038 -7.197593728e-17 -21.10751468)
(322.6220303 -1.956246723e-18 -21.0808208)
(321.9353313 4.583194733e-17 -21.1227535)
(321.1397357 -8.231611435e-17 -21.12585841)
(320.2047779 7.3260325e-17 -21.15583434)
(319.1108382 3.630094317e-18 -21.1741703)
(317.8278308 0 -21.20049084)
(316.3249393 4.141339502e-17 -21.22204809)
(314.5663875 -4.346869758e-17 -21.24025158)
(312.5137565 3.699579359e-17 -21.24626134)
(310.1270418 -3.736345839e-17 -21.23035398)
(307.3679053 0 -21.17519194)
(304.2050195 -1.801406248e-17 -21.05563255)
(300.6222243 0 -20.83622192)
(296.6299639 2.640465417e-17 -20.47082198)
(292.2787453 -2.221748353e-17 -19.90497218)
(287.6697161 0 -19.08434785)
(282.9534687 0 -17.97037614)
(278.3104101 0 -16.55829293)
(273.916586 0 -14.88804707)
(269.9095122 0 -13.04078375)
(266.3687741 1.055454713e-16 -11.12200097)
(263.3164943 -1.493468852e-16 -9.239451547)
(260.7320351 1.016182868e-16 -7.484449787)
(258.5711057 -1.718033693e-16 -5.921141364)
(256.7815327 -1.823332541e-16 -4.583890589)
(255.3126209 -9.208454157e-17 -3.480532723)
(254.1187503 -1.558875709e-16 -2.598779116)
(253.1595391 -5.70028046e-16 -1.913536139)
(252.3988331 -2.956355337e-16 -1.393601357)
(251.8038567 4.357556804e-16 -1.006866465)
(251.3449236 8.37426677e-16 -0.7237389427)
(250.9955822 -7.038894373e-16 -0.518930016)
(250.7328606 -7.389566527e-16 -0.3720068755)
(250.5373793 -8.683962933e-16 -0.2671400894)
(250.3932518 1.040739986e-15 -0.1924512105)
(250.2877954 1.221692335e-15 -0.1392401062)
(250.2111144 -1.46252733e-16 -0.1012411787)
(250.1556356 1.347184444e-15 -0.07399440821)
(250.1156479 -1.844929074e-15 -0.05434700722)
(250.0868928 -2.914311621e-15 -0.04007376071)
(250.0662013 -1.002681537e-15 -0.02961126201)
(250.0511882 0 -0.02186853062)
(250.0400889 1.595119027e-15 -0.01606553723)
(250.0315862 -4.980880343e-16 -0.01168429752)
(250.0248283 -2.070572538e-16 -0.008399884902)
(250.0195175 1.832989566e-15 -0.004759606566)
(250.0122189 -3.034127607e-15 -0.004683675275)
(201.2752432 1.884476412e-19 -15.99483737)
(241.4530797 0 -18.64447331)
(263.895711 1.505734891e-19 -20.40398529)
(281.9667286 -1.450709203e-19 -21.90457513)
(299.3645996 -3.14328507e-19 -23.39372934)
(315.8931607 0 -24.95051609)
(324.3804619 7.054320767e-19 -25.86694664)
(325.665475 -1.306349644e-18 -25.89985856)
(325.3126391 1.135408543e-18 -25.99732903)
(324.990851 -9.553687681e-19 -25.88624358)
(324.5412135 0 -25.99184192)
(324.0851964 8.523011321e-17 -25.91046629)
(323.5171142 -7.117509794e-17 -25.97486523)
(322.8788247 6.164662323e-17 -25.93862439)
(322.1200034 -5.00063372e-17 -25.96953481)
(321.2384207 5.260691599e-18 -25.96050338)
(320.2011498 0 -25.97429221)
(318.9854661 -6.34382492e-17 -25.97388186)
(317.5581975 5.006607871e-17 -25.97560117)
(315.8850487 -1.0615007e-17 -25.96589413)
(313.9271217 8.953574114e-18 -25.94224747)
(311.6435737 0 -25.89181934)
(308.9937067 0 -25.79861751)
(305.9415011 0 -25.63766654)
(302.4628337 0 -25.37441475)
(298.5560763 -6.389290718e-17 -24.96293488)
(294.2559548 -3.784938565e-19 -24.34700104)
(289.6471291 -2.330239104e-17 -23.46613206)
(284.8692636 2.636926162e-19 -22.26946107)
(280.1042459 1.687600017e-17 -20.73528436)
(275.5442693 -2.934582187e-17 -18.88733393)
(271.3525094 1.249131539e-16 -16.79771781)
(267.6341267 -8.544233832e-17 -14.57382928)
(264.4282955 -7.228331859e-17 -12.33565768)
(261.7196303 1.229709651e-16 -10.19345087)
(259.4592691 -1.044074986e-16 -8.232658729)
(257.5855232 0 -6.507807503)
(256.0381889 -1.880268358e-16 -5.043439921)
(254.7653888 -2.85436359e-16 -3.839238322)
(253.7247124 1.068783772e-16 -2.876904418)
(252.8814087 1.041517162e-19 -2.127154326)
(252.2059156 2.655796901e-16 -1.555829519)
(251.672004 -5.10699045e-16 -1.128580651)
(251.2558683 4.295724042e-16 -0.8139563259)
(250.935965 1.442735018e-15 -0.5850356576)
(250.6931889 1.51409293e-16 -0.4199337852)
(250.5110677 -1.269309119e-16 -0.3015546232)
(250.3758183 0 -0.2169477788)
(250.2762335 -1.604522309e-15 -0.1565359342)
(250.2034278 1.491950073e-16 -0.1133576579)
(250.1505072 2.246073105e-15 -0.08241538734)
(250.1122115 3.12754564e-15 -0.06014993148)
(250.084581 4.17636476e-15 -0.04403401058)
(250.0646416 0 -0.03228289846)
(250.0501406 0 -0.02364327646)
(250.0393956 -1.605607078e-15 -0.01721853973)
(250.0311228 1.66486696e-16 -0.01241317926)
(250.0245306 -2.756070104e-16 -0.00886833547)
(250.0193777 -1.820459937e-15 -0.004967084105)
(250.0120757 -5.849494232e-18 -0.004810561881)
(203.642678 -2.000070292e-19 -19.32004961)
(244.6397525 2.172534118e-16 -22.65532019)
(267.5400233 -3.390526461e-16 -24.77791594)
(286.1756921 1.653287608e-16 -26.62109158)
(304.1141954 3.527201283e-19 -28.46236818)
(319.6266869 1.925405506e-16 -30.21691658)
(325.3235368 -1.905061382e-16 -30.93064488)
(325.789217 1.353123601e-18 -30.86583657)
(325.0976701 -1.473859649e-16 -30.96685174)
(324.7498235 1.24380341e-16 -30.8315137)
(324.2578376 -1.625964145e-18 -30.94117979)
(323.7539002 0 -30.84961281)
(323.1269531 -2.579198942e-21 -30.90825924)
(322.418802 -3.82111327e-18 -30.86395334)
(321.5765778 3.202759164e-18 -30.88345326)
(320.5955122 3.238926123e-17 -30.86223788)
(319.4402577 -3.616760706e-17 -30.85820348)
(318.0848455 0 -30.83585704)
(316.4932115 6.460982086e-18 -30.80708832)
(314.6279872 -3.284444036e-17 -30.75662509)
(312.4479281 3.66855768e-17 -30.67695773)
(309.9110501 1.568341576e-17 -30.55009215)
(306.9780303 0 -30.3526379)
(303.6185042 -2.268580793e-17 -30.05079519)
(299.8207749 0 -29.59956677)
(295.605179 -3.580871041e-19 -28.94224148)
(291.0392659 2.796388259e-17 -28.01448649)
(286.2479266 4.788059614e-17 -26.75589034)
(281.4080481 -4.101811132e-17 -25.12914554)
(276.7218139 0 -23.14007494)
(272.3757698 0 -20.8472488)
(268.5033385 9.423322219e-19 -18.35432848)
(265.1667844 -6.817916349e-19 -15.78862114)
(262.3622586 3.754829948e-17 -13.27605051)
(260.0401819 -1.590680697e-16 -10.92175195)
(258.1294999 -2.698898509e-17 -8.800142805)
(256.5572921 2.053428635e-16 -6.953405732)
(255.26025 -2.707052085e-16 -5.395295436)
(254.1886166 2.60058637e-16 -4.117394657)
(253.305058 2.7519744e-17 -3.095947896)
(252.5812903 -9.239792683e-17 -2.29823967)
(251.994565 3.885321556e-17 -1.687972742)
(251.5251328 6.543754373e-17 -1.229354499)
(251.1549239 -9.340180978e-16 -0.8898041881)
(250.8671864 -7.380526315e-16 -0.6413997712)
(250.6466275 0 -0.461323095)
(250.4796857 1.038015515e-15 -0.331617832)
(250.354725 0 -0.2385678984)
(250.2620761 0 -0.1719415511)
(250.193931 0 -0.1242390746)
(250.1441367 -4.189672255e-15 -0.09003434229)
(250.1079374 -1.588534993e-15 -0.06543584986)
(250.0817143 -2.823029869e-15 -0.04766417294)
(250.0627213 -2.494831009e-15 -0.0347465093)
(250.0488637 -1.827708134e-15 -0.02528942307)
(250.0385579 0 -0.0182943554)
(250.0305762 0 -0.01309589326)
(250.0241777 1.376021427e-16 -0.009309991379)
(250.0192076 1.809386581e-15 -0.00516898934)
(250.0119181 -1.156411299e-17 -0.004938059314)
(205.479672 2.124304886e-19 -22.79860573)
(247.3087607 0 -26.80323174)
(270.7188567 1.821967239e-19 -29.33756793)
(289.9935577 -7.544619516e-22 -31.55642667)
(308.351801 -2.004095445e-16 -33.79091565)
(321.66635 2.091269964e-16 -35.54912048)
(325.2424004 0 -36.00955562)
(324.6522173 0 -35.86785771)
(324.2223555 1.5065386e-16 -35.98987907)
(323.8405908 2.068569523e-19 -35.83952374)
(323.2986614 -1.059737477e-16 -35.95148508)
(322.737624 0 -35.85101247)
(322.0418572 2.323155161e-18 -35.90133815)
(321.2521244 6.645348287e-17 -35.8477543)
(320.3135028 -5.566092647e-17 -35.85185304)
(319.2182463 5.508062158e-18 -35.81357375)
(317.9287531 -4.662383028e-18 -35.78436965)
(316.4157744 7.866017634e-18 -35.73027531)
(314.6405611 -5.308721442e-17 -35.65803693)
(312.5630664 -3.806764879e-19 -35.55000687)
(310.1405443 8.537414345e-17 -35.3928493)
(307.3315426 -4.802669656e-17 -35.16216953)
(304.1011292 0 -34.82569861)
(300.4295489 -2.748994468e-19 -34.33926043)
(296.3247862 1.972952786e-17 -33.64659574)
(291.8379856 3.38199425e-17 -32.6814982)
(287.0769499 0 -31.37675467)
(282.207863 0 -29.68178229)
(277.4358899 -2.152846814e-17 -27.5845469)
(272.9660982 1.8142624e-17 -25.12690148)
(268.9602131 0 -22.40356358)
(265.5082115 -1.330175908e-16 -19.5439899)
(262.6245039 1.358445798e-16 -16.68603371)
(260.2647201 -1.920278345e-17 -13.95250959)
(258.3515899 -6.588422467e-19 -11.43702018)
(256.7991498 -2.219085381e-16 -9.199530995)
(255.5294043 -4.44768381e-16 -7.2687387)
(254.4803028 4.138520123e-16 -5.647781266)
(253.6068523 -3.328940516e-17 -4.320886217)
(252.8781111 0 -3.259739165)
(252.2726924 -4.734045307e-17 -2.429066708)
(251.7745913 -5.971800244e-16 -1.791229766)
(251.3702523 0 -1.309704461)
(251.0470172 0 -0.9514062069)
(250.7926554 -7.541778969e-16 -0.6879473126)
(250.5955006 0 -0.4960198467)
(250.4447969 -9.265886411e-16 -0.3571606188)
(250.3310103 1.661790523e-15 -0.2571599712)
(250.2460045 -9.261991295e-17 -0.185334475)
(250.1830652 -2.397565747e-15 -0.1337930997)
(250.1368059 2.193172118e-15 -0.09678532648)
(250.1030023 -3.545978266e-15 -0.07015987587)
(250.0784011 0 -0.05093511844)
(250.0605053 2.373412604e-15 -0.03698416606)
(250.0473945 5.897742035e-15 -0.02679665219)
(250.037597 0 -0.01928753588)
(250.0299556 1.673178007e-16 -0.01373053193)
(250.0237747 -1.374307021e-16 -0.009722843058)
(250.0190066 1.799634612e-15 -0.005365810739)
(250.0117363 5.87140977e-15 -0.005062861025)
(206.7653367 -9.231848365e-16 -26.3903993)
(249.4380262 2.545476728e-16 -31.07993368)
(273.4636789 -2.008236123e-19 -34.07381792)
(293.409086 4.023059578e-19 -36.7064128)
(311.8184799 4.277828545e-19 -39.33525241)
(322.3478293 -2.211551814e-16 -40.85370148)
(323.4673509 2.060744883e-16 -41.10064714)
(323.2309047 0 -40.9288068)
(322.7058228 1.536854638e-16 -41.08205776)
(322.2806957 2.362141513e-19 -40.91041375)
(321.6828325 -1.064971279e-16 -41.01762805)
(321.0568873 0 -40.90478357)
(320.2838152 2.386823293e-18 -40.93920963)
(319.4021898 0 -40.87015926)
(318.3554812 -2.225475651e-20 -40.85034571)
(317.1324521 0 -40.78567884)
(315.693289 -3.827615765e-17 -40.71993247)
(314.0053795 -1.552388708e-19 -40.62037213)
(312.0275433 2.031357056e-17 -40.48779597)
(309.7178113 4.626490306e-17 -40.30100251)
(307.0336021 -4.85556982e-17 -40.03943483)
(303.9370426 -1.670548785e-17 -39.67054365)
(300.4024341 -2.8435261e-17 -39.15161906)
(296.4275323 2.38987919e-17 -38.42716655)
(292.0485723 2.07472639e-17 -37.43054387)
(287.3556211 1.808119085e-17 -36.09048456)
(282.4999107 0 -34.34601413)
(277.6825103 -5.214240456e-17 -32.16847983)
(273.1205369 8.924059064e-17 -29.5814385)
(269.0013448 5.720318122e-17 -26.66634807)
(265.4450433 1.460822114e-16 -23.54952563)
(262.4903223 1.10630901e-16 -20.37648699)
(260.1048133 0 -17.28520803)
(258.2102007 0 -14.38748072)
(256.7097593 1.004130542e-16 -11.76095151)
(255.5099573 2.551768417e-16 -9.449603027)
(254.5331286 1.916445481e-16 -7.468874906)
(253.7219054 3.23479369e-16 -5.812292923)
(253.0378984 5.463696442e-16 -4.457899687)
(252.4572927 4.600379955e-16 -3.373882343)
(251.9656514 -4.838475458e-17 -2.523290568)
(251.5534055 6.90931393e-16 -1.867865865)
(251.2127501 -1.093143165e-15 -1.370956341)
(250.9359992 -5.734603816e-17 -0.9994860904)
(250.7150779 8.172077493e-16 -0.725036989)
(250.5416784 -8.057758267e-17 -0.5241748399)
(250.4076734 6.742140542e-17 -0.3782242392)
(250.3055262 -3.609004664e-15 -0.2727137615)
(250.2285804 0 -0.1966850443)
(250.1711945 2.514755641e-15 -0.1419869088)
(250.1287467 -2.095022515e-15 -0.1026395589)
(250.0975508 6.969964021e-15 -0.07429963966)
(250.0747291 -1.808354613e-16 -0.05383086473)
(250.0580453 -2.247249391e-15 -0.03898526449)
(250.0457621 -3.838441823e-15 -0.02815844115)
(250.0365285 -3.367806508e-15 -0.02019438802)
(250.0292677 0 -0.01431581225)
(250.0233253 0 -0.01010503276)
(250.0187769 -3.582159425e-15 -0.005553797732)
(250.0115334 -5.806318744e-15 -0.005184791172)
(207.5620088 6.677814923e-20 -30.08230872)
(251.1350799 -2.770003168e-16 -35.49747107)
(275.8571213 0 -38.9985208)
(296.4326075 4.513346818e-19 -42.09416788)
(314.1050404 -9.389348614e-19 -45.01145819)
(321.8456111 0 -46.12295424)
(321.5503943 -2.127566661e-16 -46.26009432)
(321.1406779 1.844321721e-16 -46.04214098)
(320.5878677 -1.245769629e-18 -46.1962784)
(320.1127082 0 -46.00659379)
(319.4519036 3.469596746e-18 -46.10435997)
(318.7519289 9.283257232e-17 -45.97821137)
(317.8916186 -2.159110604e-18 -45.99127474)
(316.9061218 2.633612463e-19 -45.90177232)
(315.737703 -5.839058618e-17 -45.85037642)
(314.3711802 0 -45.7498846)
(312.7646654 4.868700238e-18 -45.63533391)
(310.8824488 -8.22323327e-18 -45.47443733)
(308.6817747 -2.808102208e-17 -45.26096357)
(306.1204479 1.16381074e-17 -44.96852401)
(303.1589163 2.023395398e-17 -44.56780308)
(299.7672908 9.503855064e-21 -44.01667444)
(295.9353367 0 -43.26139143)
(291.6862836 2.510448716e-17 -42.23592785)
(287.0928407 4.16146968e-19 -40.86685604)
(282.2887853 -1.814101982e-17 -39.08582504)
(277.4652271 0 -36.85003447)
(272.8439143 1.07198063e-16 -34.16448033)
(268.632917 -1.141059316e-16 -31.09419679)
(264.9823802 -5.838119936e-17 -27.75751406)
(261.9596796 -1.327235003e-16 -24.30285106)
(259.5511614 1.520564584e-17 -20.8801983)
(257.6838084 -3.609517393e-17 -17.61812211)
(256.2543431 -3.065620571e-16 -14.61167571)
(255.1551181 -2.934858963e-16 -11.9203627)
(254.2915472 -1.895293965e-16 -9.572316439)
(253.5905443 3.68798225e-16 -7.570955488)
(253.001808 3.521603193e-16 -5.901701332)
(252.4946182 -1.133004178e-15 -4.537770934)
(252.052518 -4.398442158e-16 -3.444930037)
(251.6677731 -2.466091396e-17 -2.585363297)
(251.3367758 -4.148915364e-17 -1.920808572)
(251.0569337 1.114036264e-15 -1.414972205)
(250.8250305 9.057199228e-16 -1.035188258)
(250.6367314 4.895642512e-17 -0.7533470818)
(250.4867731 0 -0.5461742338)
(250.3694366 -2.195683295e-15 -0.3950183503)
(250.2790401 1.834569247e-15 -0.2853362998)
(250.2103202 -9.570456056e-17 -0.20604315)
(250.1586606 -1.078462101e-20 -0.148840244)
(250.1201805 1.990581959e-16 -0.1076020357)
(250.0917233 -3.638651595e-15 -0.07785379744)
(250.0707853 0 -0.05634803466)
(250.0553931 2.570240107e-15 -0.04074640869)
(250.0439959 -1.247040805e-16 -0.0293721223)
(250.0353686 3.281495223e-15 -0.02101309498)
(250.0285197 -2.689033127e-15 -0.01485115772)
(250.022833 0 -0.0104567192)
(250.0185194 3.567243034e-15 -0.005733153098)
(250.0113081 5.759110994e-15 -0.005303721702)
(207.9089046 -5.217104706e-16 -33.87192982)
(252.4716829 -3.025198195e-16 -40.06025458)
(277.9564302 2.528489033e-16 -44.12103224)
(299.1200183 -4.956709407e-19 -47.73686363)
(314.9402555 -2.575761839e-16 -50.668391)
(319.1714145 4.863931325e-16 -51.29309564)
(318.9021216 -2.179586301e-16 -51.41135553)
(318.5019134 1.471702146e-18 -51.18329059)
(317.8971764 -1.580932451e-16 -51.34672245)
(317.364065 -3.084295507e-19 -51.1344042)
(316.6324664 1.092130244e-16 -51.21359476)
(315.8481792 -9.785253981e-17 -51.06906242)
(314.8892958 7.942953438e-17 -51.05177131)
(313.7863913 0 -50.93285968)
(312.4809999 -4.950554413e-17 -50.83839076)
(310.9538879 9.506361437e-17 -50.68819047)
(309.1616462 -2.988515798e-17 -50.50746259)
(307.0663878 3.408234547e-17 -50.26303699)
(304.625379 -2.860344034e-17 -49.94048122)
(301.7987235 -2.470585764e-17 -49.50666731)
(298.553628 2.059844469e-17 -48.92239309)
(294.8735277 1.782296694e-17 -48.13517177)
(290.770807 0 -47.0807097)
(286.3023495 0 -45.68536153)
(281.5834838 -4.37521439e-17 -43.87580369)
(276.7908273 -3.815433938e-17 -41.59769575)
(272.1439385 0 -38.83890335)
(267.8650441 -1.108773373e-16 -35.64629411)
(264.1316339 -9.537224545e-17 -32.1259155)
(261.0421218 2.026570813e-17 -28.42436057)
(258.6073192 1.209598544e-16 -24.69984115)
(256.7662529 -1.015093699e-16 -21.09567834)
(255.4146477 -1.857311329e-16 -17.72378661)
(254.433943 3.123246794e-16 -14.65936124)
(253.7132885 2.815251984e-16 -11.94359545)
(253.1622199 2.376218654e-16 -9.590141372)
(252.7152048 -4.25851208e-16 -7.59223457)
(252.3304107 -3.165652121e-16 -5.92890732)
(251.9851953 5.686216147e-16 -4.569913116)
(251.6702953 -2.992856913e-17 -3.479587798)
(251.3842214 8.301856159e-16 -2.619947074)
(251.1287512 4.225781893e-17 -1.953220453)
(250.9059228 2.219303731e-20 -1.443844804)
(250.7164672 -9.809112335e-16 -1.059863702)
(250.559359 -4.98226937e-17 -0.7737285208)
(250.4320481 -1.435364102e-20 -0.5625408316)
(250.330985 4.496625498e-15 -0.4078560122)
(250.2521785 0 -0.2952099146)
(250.1916528 -9.710522947e-17 -0.2135116546)
(250.1457515 1.617073021e-16 -0.1544089114)
(250.111297 2.083593359e-15 -0.1117015049)
(250.0856416 0 -0.08083609162)
(250.0666455 0 -0.05849243971)
(250.0525945 -1.52472824e-16 -0.04226951224)
(250.0421225 4.142509205e-15 -0.03043788316)
(250.0341318 1.030078365e-16 -0.02174323579)
(250.0277182 2.610432724e-15 -0.01533643338)
(250.0223012 -1.096767563e-15 -0.01077774063)
(250.0182355 -1.777170076e-15 -0.005903747918)
(250.0110608 -5.739977953e-15 -0.005419329828)
(207.8044813 0 -37.75480422)
(253.4921899 6.434652115e-19 -44.77590551)
(279.7388222 0 -49.45594749)
(301.2234562 -2.78807319e-16 -53.60217879)
(314.4997041 7.743114513e-19 -56.28222666)
(316.4076972 5.04817634e-16 -56.51070193)
(315.739397 -2.231622143e-16 -56.6209078)
(315.3138758 -1.922078969e-16 -56.33896613)
(314.6521983 -2.91521665e-18 -56.50354216)
(314.0520671 1.393438541e-16 -56.27109313)
(313.2407608 0 -56.32454668)
(312.3608197 9.996918341e-17 -56.15720034)
(311.2910971 -8.632702671e-17 -56.10114834)
(310.0567958 6.867969506e-17 -55.94300609)
(308.5994236 -5.030362257e-17 -55.79190026)
(306.8959609 0 -55.57413579)
(304.9022653 -1.023349566e-17 -55.30433891)
(302.5795013 -3.502820273e-17 -54.9472446)
(299.8869366 -3.175799457e-19 -54.47952226)
(296.7901583 6.268958344e-17 -53.86022774)
(293.2678867 -2.122576133e-17 -53.03967584)
(289.3234641 -1.807841671e-17 -51.95498219)
(284.9997879 1.569403285e-17 -50.53325815)
(280.3943886 -1.320495521e-17 -48.69894629)
(275.6668642 6.911102948e-17 -46.38923749)
(271.0282884 -2.008265779e-17 -43.5765909)
(266.708045 -8.438306871e-17 -40.28953363)
(262.9062479 8.540942496e-17 -36.61894)
(259.7520771 7.264533021e-17 -32.70484094)
(257.2850711 -1.0503445e-17 -28.70956176)
(255.4626904 -1.0524272e-16 -24.78853633)
(254.1859349 -1.199641355e-16 -21.06949136)
(253.3299392 1.890554562e-16 -17.64336363)
(252.7698574 1.712289406e-16 -14.56479208)
(252.3978808 0 -11.85802098)
(252.1313421 0 -9.524338594)
(251.9140475 -4.097014525e-16 -7.548879788)
(251.7132193 3.447887784e-16 -5.905986482)
(251.5142 5.981288007e-16 -4.563191281)
(251.3144825 -5.027963449e-16 -3.484248423)
(251.118236 -1.612214722e-15 -2.631565454)
(250.9320041 6.662517388e-16 -1.968239598)
(250.7618696 1.189839152e-15 -1.459707433)
(250.6119982 -3.02072552e-17 -1.074933555)
(250.4842522 0 -0.7871092858)
(250.3784677 4.233909258e-17 -0.5738687233)
(250.2930219 -2.299232052e-15 -0.417110098)
(250.2254439 5.904786804e-17 -0.3025638705)
(250.1729297 -4.920045286e-17 -0.2192283996)
(250.1327078 0 -0.1587736667)
(250.1022574 0 -0.1149837985)
(250.0794111 1.127122062e-16 -0.08327148375)
(250.0623769 2.981932428e-15 -0.06027692583)
(250.0496904 -2.304925903e-16 -0.0435606555)