/*--------------------------------*- C++ -*----------------------------------*\
  =========                 |
  \\      /  F ield         | OpenFOAM: The Open Source CFD Toolbox
   \\    /   O peration     | Website:  https://openfoam.org
    \\  /    A nd           | Version:  12
     \\/     M anipulation  |
\*---------------------------------------------------------------------------*/
FoamFile
{
    format      ascii;
    class       volScalarField;
    location    "0.033";
    object      alphat;
}
// * * * * * * * * * * * * * * * * * * * * * * * * * * * * * * * * * * * * * //

dimensions      [1 -1 -1 0 0 0 0];

internalField   nonuniform List<scalar> 
16000
(
5.1344167e-07
1.1251125e-05
2.2545027e-05
2.7362197e-05
2.0839391e-05
2.9274815e-05
2.0113746e-05
2.8114094e-05
2.1184948e-05
2.9986677e-05
2.4541608e-05
2.9557504e-05
2.6577649e-05
2.754801e-05
2.6528285e-05
2.6436015e-05
2.6159895e-05
2.6106316e-05
2.6136498e-05
2.6281496e-05
2.6531315e-05
2.6886071e-05
2.7343468e-05
2.7904226e-05
2.8571227e-05
2.9352112e-05
3.025661e-05
3.1300133e-05
3.2501603e-05
3.3881727e-05
3.5463286e-05
3.7276273e-05
3.9359428e-05
4.1760719e-05
4.4539543e-05
4.7767429e-05
5.1530495e-05
5.5932422e-05
6.110229e-05
6.7201636e-05
7.4423632e-05
8.2999547e-05
9.3223766e-05
0.00010546354
0.00012016707
0.00013788467
0.00015931229
0.00018532044
0.00021700044
0.00025572637
0.0003032394
0.00036174952
0.00043403635
0.0005235565
0.00063453728
0.00077207303
0.00094230777
0.0011523067
0.0011978486
0.0011962579
0.0011954654
0.0011957033
0.0011961477
0.0011975513
0.0011994912
0.0012010367
0.00120182
0.0012017757
0.0012011177
0.0012001273
0.0011989519
0.0011974048
0.0011944624
0.0011878151
0.0011776516
0.0011694634
0.0011664324
0.0011664944
0.0011674303
0.0011734573
4.7039442e-07
1.0652296e-05
2.2133158e-05
2.4762431e-05
1.8780726e-05
2.6222872e-05
1.7865932e-05
2.4592321e-05
1.8777477e-05
2.6465611e-05
2.2273139e-05
2.6672254e-05
2.4368127e-05
2.5005233e-05
2.4220054e-05
2.4059761e-05
2.3839863e-05
2.3783282e-05
2.3819942e-05
2.3958393e-05
2.4195665e-05
2.4531113e-05
2.4963458e-05
2.5493315e-05
2.6123467e-05
2.6861107e-05
2.7715037e-05
2.8699404e-05
2.9832366e-05
3.1134432e-05
3.2627307e-05
3.4339004e-05
3.6306089e-05
3.8573866e-05
4.1198998e-05
4.4250073e-05
4.7810266e-05
5.1979258e-05
5.688022e-05
6.2669419e-05
6.9536559e-05
7.7705262e-05
8.7460119e-05
9.9159868e-05
0.00011324571
0.0001302552
0.00015086966
0.00017594259
0.00020654304
0.00024401121
0.00029003424
0.00034674113
0.00041678989
0.00050345614
0.00061068001
0.00074309867
0.00090602283
0.0011051544
0.0011978167
0.0011964147
0.0011956465
0.0011957669
0.0011962811
0.0011978025
0.0011994114
0.0012005984
0.0012010778
0.0012008196
0.0012000449
0.0011989953
0.0011977482
0.0011960252
0.001192695
0.0011854016
0.00117547
0.0011684966
0.0011664786
0.0011672245
0.001167708
0.0011724342
4.181439e-07
1.018011e-05
2.0903382e-05
2.268971e-05
1.680389e-05
2.3107092e-05
1.5909766e-05
2.1365073e-05
1.6876973e-05
2.3214082e-05
2.0323856e-05
2.3777268e-05
2.2134359e-05
2.2437523e-05
2.1843239e-05
2.1650493e-05
2.1472411e-05
2.142273e-05
2.1465226e-05
2.1599743e-05
2.1825569e-05
2.2142286e-05
2.2549138e-05
2.3046871e-05
2.3638104e-05
2.4329761e-05
2.5129955e-05
2.6051698e-05
2.7112091e-05
2.8331302e-05
2.9730278e-05
3.1335396e-05
3.3181314e-05
3.531087e-05
3.7778075e-05
4.0648492e-05
4.4002303e-05
4.7935725e-05
5.2566515e-05
5.8044695e-05
6.4556318e-05
7.2318335e-05
8.1605537e-05
9.2766275e-05
0.00010623384
0.00012253216
0.00014232534
0.00016644626
0.00019593732
0.00023210084
0.00027656363
0.00033136173
0.00039900648
0.00048254343
0.00058555641
0.00071212623
0.00086658722
0.0010531726
0.001197848
0.00119671
0.001196057
0.0011961344
0.0011968492
0.0011981542
0.0011993874
0.0012001951
0.0012003492
0.0011998745
0.0011989886
0.0011978745
0.0011965227
0.0011945413
0.0011906845
0.00118278
0.0011733391
0.0011676192
0.001166548
0.0011681552
0.0011684033
0.0011715402
3.7518104e-07
9.8297079e-06
1.9813432e-05
2.0668246e-05
1.5072886e-05
2.0400554e-05
1.4175171e-05
1.8656325e-05
1.5192451e-05
2.0446313e-05
1.858495e-05
2.1204815e-05
2.0071078e-05
2.011593e-05
1.9665903e-05
1.9464591e-05
1.9321996e-05
1.9284638e-05
1.9335668e-05
1.9470205e-05
1.9688567e-05
1.9990832e-05
2.0376398e-05
2.0846597e-05
2.140359e-05
2.2054379e-05
2.2806542e-05
2.36722e-05
2.4667433e-05
2.5812101e-05
2.7126668e-05
2.8636085e-05
3.0373426e-05
3.2379326e-05
3.4705445e-05
3.7414587e-05
4.0584135e-05
4.4307361e-05
4.8697417e-05
5.3897903e-05
6.009146e-05
6.7489146e-05
7.6356616e-05
8.7030775e-05
9.9936662e-05
0.0001155838
0.00013461674
0.00015784365
0.00018627393
0.00022116405
0.00026406884
0.0003169163
0.00038205044
0.00046226387
0.00056075114
0.00068095771
0.0008263198
0.00099980316
0.0011980808
0.0011972256
0.0011966914
0.0011967998
0.0011975023
0.0011984612
0.0011993299
0.0011997758
0.0011996346
0.0011989767
0.0011979932
0.0011967957
0.0011952842
0.0011929709
0.001188556
0.0011802577
0.0011715855
0.0011669953
0.0011668457
0.0011690137
0.0011692494
0.0011706912
3.3565438e-07
9.5561616e-06
1.8856146e-05
2.0505156e-05
1.4398311e-05
1.8021773e-05
1.2647367e-05
1.6317507e-05
1.3744238e-05
1.8054741e-05
1.703929e-05
1.8875077e-05
1.8126838e-05
1.7988207e-05
1.7645557e-05
1.7455471e-05
1.7343164e-05
1.7320515e-05
1.737986e-05
1.7514841e-05
1.7725791e-05
1.8013895e-05
1.8378404e-05
1.8821748e-05
1.9345541e-05
1.9957062e-05
2.066349e-05
2.1476266e-05
2.2410451e-05
2.3485513e-05
2.4721591e-05
2.6142415e-05
2.7779696e-05
2.9672082e-05
3.1869101e-05
3.4431011e-05
3.7432488e-05
4.0964158e-05
4.5135438e-05
5.0083309e-05
5.5986861e-05
6.3051865e-05
7.153563e-05
8.1762401e-05
9.41482e-05
0.00010918734
0.00012750243
0.00014987259
0.00017726702
0.00021088688
0.00025220083
0.00030300986
0.00036546427
0.00044206933
0.00053559389
0.00064889889
0.00078460641
0.00094473963
0.0011304444
0.0011978714
0.0011974274
0.001197523
0.0011980388
0.0011987348
0.0011992655
0.0011993714
0.001198965
0.0011981434
0.0011970539
0.0011957295
0.0011939872
0.0011912747
0.0011863139
0.0011778988
0.001170189
0.0011666006
0.001167215
0.0011695112
0.0011700444
0.0011698045
3.0688622e-07
9.3793407e-06
1.8061316e-05
2.050399e-05
1.4390755e-05
1.5939222e-05
1.1308349e-05
1.4349962e-05
1.2517435e-05
1.6025698e-05
1.5674824e-05
1.681593e-05
1.6334783e-05
1.6084686e-05
1.5814243e-05
1.5642123e-05
1.5551391e-05
1.5539494e-05
1.560289e-05
1.573548e-05
1.5936968e-05
1.6209884e-05
1.655317e-05
1.6970213e-05
1.7462473e-05
1.8037188e-05
1.8701296e-05
1.9465691e-05
2.0344424e-05
2.1356486e-05
2.2521816e-05
2.3863108e-05
2.5410938e-05
2.7202219e-05
2.9284619e-05
3.1716146e-05
3.4568989e-05
3.7931403e-05
4.1910071e-05
4.6635805e-05
5.2283745e-05
5.9055143e-05
6.7200469e-05
7.7030612e-05
8.8952243e-05
0.00010344455
0.00012110692
0.00014268688
0.00016910794
0.00020150923
0.00024126253
0.00029002889
0.00034975175
0.00042264236
0.00051106818
0.00061737824
0.00074357379
0.00089108603
0.0010605964
0.0011986156
0.001198241
0.0011982628
0.0011985795
0.0011989953
0.0011991992
0.001198994
0.0011983537
0.0011973763
0.0011961525
0.0011946382
0.001192588
0.0011894305
0.0011839952
0.001175755
0.0011691356
0.0011665114
0.0011674564
0.0011697807
0.0011705656
0.0011685257
2.8225996e-07
9.2804575e-06
1.7444902e-05
1.9697881e-05
1.4195364e-05
1.4092953e-05
1.1690588e-05
1.3003563e-05
1.2381494e-05
1.4328513e-05
1.4472006e-05
1.5008342e-05
1.4683158e-05
1.4375907e-05
1.4146881e-05
1.3991868e-05
1.3915297e-05
1.3910529e-05
1.3975124e-05
1.4104137e-05
1.4296261e-05
1.4554893e-05
1.4878939e-05
1.5182961e-05
1.563611e-05
1.6168303e-05
1.6785829e-05
1.749875e-05
1.8319851e-05
1.9267202e-05
2.0360419e-05
2.1621107e-05
2.30787e-05
2.4768338e-05
2.6735817e-05
2.9036889e-05
3.1741175e-05
3.4934278e-05
3.8720598e-05
4.354905e-05
4.8977247e-05
5.549583e-05
6.3350228e-05
7.2838056e-05
8.435588e-05
9.836848e-05
0.0001154518
0.00013632053
0.00016184913
0.00019311133
0.00023137661
0.00027816137
0.00033520217
0.00040443135
0.00048786883
0.00058743664
0.0007047695
0.00084098985
0.00099669339
0.0011724893
0.0011991293
0.0011990164
0.0011991258
0.0011992526
0.0011991415
0.0011986569
0.0011978034
0.0011966582
0.0011952499
0.0011934694
0.0011910405
0.0011874221
0.0011816305
0.0011738339
0.0011683645
0.0011665904
0.0011677253
0.0011698692
0.0011709086
0.0011677384
2.5279461e-07
9.2293486e-06
1.6940676e-05
1.8073747e-05
1.3883816e-05
1.2344615e-05
1.0842138e-05
1.1796336e-05
1.1074539e-05
1.2840947e-05
1.3296558e-05
1.337384e-05
1.3116561e-05
1.2801422e-05
1.2600656e-05
1.2465588e-05
1.2403293e-05
1.2407269e-05
1.2399585e-05
1.2508633e-05
1.2681092e-05
1.2918527e-05
1.3219401e-05
1.3583577e-05
1.4017406e-05
1.4525237e-05
1.5113418e-05
1.5791913e-05
1.6572852e-05
1.7473739e-05
1.8514336e-05
1.9715621e-05
2.1106431e-05
2.2720715e-05
2.4603067e-05
2.6807673e-05
2.94024e-05
3.247094e-05
3.6116275e-05
4.046487e-05
4.5672179e-05
5.1935686e-05
5.9496791e-05
6.9216689e-05
8.0399436e-05
9.4010016e-05
0.00011060189
0.00013085693
0.00015559947
0.00018583865
0.00022274254
0.0002676881
0.00032221906
0.00038801921
0.00046681445
0.00056023443
0.00066968555
0.00079621759
0.0009406144
0.0011036086
0.0012000003
0.0011997641
0.0011996596
0.0011995014
0.0011990978
0.0011983577
0.0011972932
0.0011959459
0.0011942851
0.0011921599
0.0011893009
0.001185242
0.0011792424
0.0011721179
0.0011677868
0.0011667878
0.0011680623
0.0011699888
0.0011712863
0.001167228
2.3148401e-07
9.1889084e-06
1.6478355e-05
1.5806125e-05
1.1516242e-05
1.0779081e-05
8.8494771e-06
1.0024279e-05
1.0043158e-05
1.1592026e-05
1.2078464e-05
1.1852772e-05
1.1626e-05
1.133751e-05
1.1164195e-05
1.0975632e-05
1.0901118e-05
1.0898696e-05
1.0959112e-05
1.1080655e-05
1.1258859e-05
1.1494886e-05
1.1789545e-05
1.2143042e-05
1.2560882e-05
1.3048537e-05
1.3612405e-05
1.4262455e-05
1.5010355e-05
1.5873025e-05
1.6870459e-05
1.8023252e-05
1.9359944e-05
2.0913585e-05
2.2727905e-05
2.4855975e-05
2.7364361e-05
3.033532e-05
3.3870105e-05
3.809275e-05
4.3157007e-05
4.9254766e-05
5.6626013e-05
6.5551681e-05
7.6390257e-05
8.9586413e-05
0.00010660401
0.00012635587
0.00015043733
0.00017979644
0.0002155064
0.00025881754
0.00031110499
0.0003738467
0.00044854489
0.00053662511
0.00063935536
0.00075781028
0.00089295598
0.0010459605
0.0012008574
0.0012004833
0.0012001609
0.0011997306
0.0011990563
0.0011980696
0.0011967743
0.0011951696
0.00119318
0.0011906438
0.001187335
0.0011828936
0.0011768515
0.0011705746
0.0011673251
0.0011670065
0.0011684059
0.0011701301
0.0011714188
0.0011667842
2.1350033e-07
9.147188e-06
1.5758522e-05
1.3627566e-05
9.3802212e-06
9.610737e-06
7.6376131e-06
9.0700647e-06
9.3421089e-06
1.0379163e-05
1.0847767e-05
1.045551e-05
1.0242742e-05
9.8960371e-06
9.7119776e-06
9.6028832e-06
9.5648678e-06
9.5890601e-06
9.6684755e-06
9.8005734e-06
9.9849577e-06
1.0220922e-05
1.0510996e-05
1.0855855e-05
1.1261293e-05
1.173317e-05
1.2278017e-05
1.290595e-05
1.3628332e-05
1.4461539e-05
1.5425855e-05
1.6541828e-05
1.7837944e-05
1.9346649e-05
2.1111147e-05
2.3183806e-05
2.5630323e-05
2.853202e-05
3.1989325e-05
3.612505e-05
4.1090574e-05
4.7073691e-05
5.4312812e-05
6.3081247e-05
7.3728862e-05
8.668605e-05
0.00010247639
0.00012170152
0.00014642269
0.00017506463
0.00020977814
0.00025170376
0.00030207714
0.00036221439
0.00043345567
0.00051709457
0.00061434052
0.00072633875
0.00085428899
0.00099974249
0.0011649484
0.0012011463
0.0012006012
0.0011999127
0.0011989773
0.0011977346
0.0011961675
0.0011942379
0.0011918489
0.0011888626
0.0011851236
0.0011803934
0.0011744774
0.0011691684
0.0011669059
0.0011671111
0.0011686482
0.0011702535
0.0011717145
0.0011663721
1.9682972e-07
9.10255e-06
1.2518659e-05
1.1632274e-05
7.5850778e-06
8.5751454e-06
6.9308176e-06
8.1383532e-06
8.7645937e-06
9.2811749e-06
9.6262699e-06
9.086111e-06
8.8221018e-06
8.5844248e-06
8.4522301e-06
8.3853646e-06
8.3783485e-06
8.4244403e-06
8.5207862e-06
8.6640734e-06
8.8528393e-06
9.0898623e-06
9.3774877e-06
9.7168426e-06
1.0113804e-05
1.057469e-05
1.1106304e-05
1.1718971e-05
1.2423974e-05
1.3237238e-05
1.4107411e-05
1.5186694e-05
1.6442965e-05
1.7907982e-05
1.962434e-05
2.1643641e-05
2.4030653e-05
2.6865645e-05
3.0248114e-05
3.429964e-05
3.9169986e-05
4.5396603e-05
5.2563516e-05
6.1245416e-05
7.178264e-05
8.459151e-05
0.00010018336
0.00011913706
0.00014215067
0.00017004587
0.0002056176
0.00024643385
0.00029525886
0.00035328829
0.0004217532
0.00050187367
0.00059485144
0.00070193191
0.00082455679
0.0009646545
0.0011249941
0.0012017076
0.0012009324
0.0011999921
0.0011987905
0.0011972634
0.0011953695
0.001193049
0.0011902134
0.0011867773
0.0011826705
0.0011777769
0.0011721472
0.0011678708
0.0011664827
0.0011671442
0.0011687419
0.0011702482
0.0011719051
0.0011662232
1.8233902e-07
9.0591274e-06
9.8591145e-06
9.5853941e-06
6.4900038e-06
7.5942956e-06
6.3717234e-06
7.3365387e-06
8.1862057e-06
8.257674e-06
8.2851154e-06
7.8161191e-06
7.6033179e-06
7.4315423e-06
7.3431131e-06
7.3112295e-06
7.3306885e-06
7.3973747e-06
7.5070524e-06
7.6601709e-06
7.8554182e-06
8.0952248e-06
8.3830187e-06
8.7204528e-06
9.1134903e-06
9.5280252e-06
1.0044184e-05
1.0640337e-05
1.1327554e-05
1.2121187e-05
1.3039774e-05
1.4107386e-05
1.5351431e-05
1.6803532e-05
1.850632e-05
2.0511396e-05
2.2883548e-05
2.5702969e-05
2.9069458e-05
3.3104766e-05
3.7958709e-05
4.3817443e-05
5.090749e-05
5.9497578e-05
6.9919825e-05
8.3295629e-05
9.8797234e-05
0.00011760421
0.00014037707
0.00016789767
0.00020104126
0.00024304375
0.0002907069
0.00034714517
0.00041352487
0.0004910402
0.00058092441
0.00068454503
0.00080358501
0.00094034787
0.0010981401
0.0012021003
0.0012010852
0.0011998867
0.001198398
0.0011965447
0.001194269
0.0011915119
0.0011882211
0.0011843812
0.0011800066
0.0011750958
0.0011699104
0.0011666859
0.0011660681
0.0011671084
0.0011686869
0.0011699619
0.0011708447
0.0011662989
1.6944719e-07
9.0137209e-06
7.7874396e-06
8.4169148e-06
5.7724978e-06
6.7083148e-06
5.888833e-06
6.628638e-06
7.4904875e-06
7.0918461e-06
7.0685224e-06
6.7057944e-06
6.5392377e-06
6.4207145e-06
6.369475e-06
6.3675705e-06
6.4102748e-06
6.4950211e-06
6.6188158e-06
6.7824706e-06
6.9855727e-06
7.2307555e-06
7.4902432e-06
7.8227004e-06
8.2102321e-06
8.6583908e-06
9.1762907e-06
9.7738025e-06
1.0462205e-05
1.1257024e-05
1.2176886e-05
1.3245457e-05
1.4491418e-05
1.5946568e-05
1.7653814e-05
1.9665107e-05
2.2045781e-05
2.4876397e-05
2.8257683e-05
3.2312485e-05
3.7190552e-05
4.3076845e-05
5.0201494e-05
5.8829472e-05
6.9288485e-05
8.1975241e-05
9.7366215e-05
0.00011601025
0.00013976348
0.00016709464
0.00019990287
0.00023910919
0.00028843617
0.00034381142
0.00040879702
0.00048460083
0.00057252113
0.00067406733
0.00079117043
0.00092649763
0.0010838913
0.0012022446
0.0012009764
0.0011994972
0.0011976885
0.0011954665
0.0011927723
0.0011895709
0.0011858655
0.0011817115
0.0011771903
0.0011723922
0.0011678676
0.0011656686
0.0011657187
0.001167054
0.0011684883
0.001169413
0.0011701815
0.0011665681
1.5799173e-07
8.9552737e-06
6.2104908e-06
7.3491766e-06
5.1488106e-06
5.9271717e-06
5.482575e-06
5.9139191e-06
6.5958182e-06
6.0794067e-06
5.9981154e-06
5.7344308e-06
5.6109635e-06
5.5368281e-06
5.5184444e-06
5.5434903e-06
5.6079175e-06
5.7103488e-06
5.848648e-06
6.001613e-06
6.2075977e-06
6.4555363e-06
6.7485174e-06
7.0904909e-06
7.4870525e-06
7.9441874e-06
8.4708898e-06
9.0777289e-06
9.776191e-06
1.058192e-05
1.1513568e-05
1.2594911e-05
1.3792363e-05
1.5250846e-05
1.6962346e-05
1.8979003e-05
2.1366775e-05
2.4206459e-05
2.7599483e-05
3.1670051e-05
3.6568599e-05
4.28022e-05
5.0013875e-05
5.8741864e-05
6.9310031e-05
8.2105841e-05
9.7601552e-05
0.00011633561
0.00013892463
0.00016760083
0.00020031586
0.00023930544
0.00028552982
0.00034329118
0.00040757372
0.00048254123
0.00056958905
0.00067038807
0.00078713521
0.00092287559
0.001081952
0.0012020519
0.001200514
0.0011987244
0.0011965632
0.0011939472
0.0011908338
0.0011872299
0.0011832005
0.0011788593
0.0011743243
0.0011697624
0.0011661896
0.0011649474
0.001165568
0.0011671469
0.0011684151
0.0011690533
0.0011698114
0.0011670538
1.4785037e-07
8.8597491e-06
5.0065282e-06
6.4013539e-06
4.5904345e-06
5.2354256e-06
5.1324375e-06
5.1366178e-06
5.6797407e-06
5.1747635e-06
5.068755e-06
4.8876541e-06
4.8051564e-06
4.7694655e-06
4.78104e-06
4.8311705e-06
4.9166065e-06
5.0167784e-06
5.1638219e-06
5.3479735e-06
5.5705628e-06
5.8337205e-06
6.1413361e-06
6.4975795e-06
6.9086979e-06
7.3809599e-06
7.9234001e-06
8.5212645e-06
9.2306606e-06
1.0047825e-05
1.0991298e-05
1.2084661e-05
1.3356696e-05
1.4843474e-05
1.6587938e-05
1.8643033e-05
2.1076432e-05
2.3970241e-05
2.74275e-05
3.1575362e-05
3.6566572e-05
4.259088e-05
4.9873139e-05
5.8683408e-05
6.9344566e-05
8.2929572e-05
9.8630551e-05
0.00011757468
0.00014037013
0.00016770842
0.00020224579
0.00024134129
0.00028762
0.00034211691
0.00040985987
0.00048485891
0.00057210657
0.00067346147
0.00079141123
0.00092940714
0.0010923362
0.0012014476
0.0011996186
0.0011974961
0.0011949683
0.0011919669
0.0011884812
0.0011845677
0.0011803458
0.0011759713
0.0011716029
0.0011675341
0.0011650932
0.0011647103
0.00116581
0.0011675579
0.0011687357
0.0011692843
0.0011698462
0.0011677931
1.3892969e-07
8.5723749e-06
4.1298425e-06
5.5620082e-06
4.0970951e-06
4.6261231e-06
4.5761509e-06
4.4348208e-06
4.7858552e-06
4.3737239e-06
4.2714988e-06
4.1565476e-06
4.1126359e-06
4.1110808e-06
4.1503048e-06
4.2085514e-06
4.3070216e-06
4.4409978e-06
4.6098098e-06
4.8140117e-06
5.055654e-06
5.3374624e-06
5.6638052e-06
6.0391652e-06
6.4553771e-06
6.9437571e-06
7.5027336e-06
8.1426845e-06
8.8766273e-06
9.72005e-06
1.069176e-05
1.1816001e-05
1.3122339e-05
1.4647687e-05
1.6437186e-05
1.8544738e-05
2.1040257e-05
2.4007853e-05
2.7552239e-05
3.1804674e-05
3.6919308e-05
4.3089115e-05
5.0545411e-05
5.9559215e-05
7.0457364e-05
8.3624447e-05
0.00010039457
0.00011967369
0.00014282856
0.00017055895
0.00020362217
0.00024519686
0.00029196116
0.00034702435
0.0004115705
0.00049158561
0.00058011661
0.00068335268
0.00080410678
0.00094628564
0.0011153778
0.0012003837
0.0011982537
0.0011957979
0.0011929231
0.0011895897
0.0011858274
0.0011817384
0.001177482
0.0011732462
0.001169261
0.0011660834
0.0011648331
0.0011650942
0.0011664982
0.0011683323
0.0011695127
0.0011701104
0.0011703657
0.0011685867
1.3129265e-07
8.1275399e-06
3.6361445e-06
4.8231552e-06
3.659874e-06
3.9189754e-06
4.086185e-06
3.7907694e-06
3.9707301e-06
3.6768339e-06
3.5964175e-06
3.5339661e-06
3.5254122e-06
3.5546619e-06
3.6013526e-06
3.6926803e-06
3.8180782e-06
3.9763751e-06
4.1679389e-06
4.3941586e-06
4.657706e-06
4.9616078e-06
5.3002503e-06
5.695539e-06
6.1465396e-06
6.6604956e-06
7.2460932e-06
7.9139663e-06
8.6772537e-06
9.5522284e-06
1.0558048e-05
1.1719657e-05
1.3067521e-05
1.4639797e-05
1.6412325e-05
1.8565672e-05
2.1115227e-05
2.4147561e-05
2.7937194e-05
3.2318392e-05
3.7586274e-05
4.3936693e-05
5.1608534e-05
6.0876986e-05
7.2072084e-05
8.5585545e-05
0.00010187346
0.00012146238
0.00014625079
0.00017457941
0.0002083325
0.00024839516
0.00029855942
0.00035476481
0.00042073215
0.00050281305
0.00059376201
0.00070028421
0.00082557043
0.00097405352
0.00115191
0.0011988636
0.0011964476
0.0011936931
0.0011905335
0.0011869656
0.00118306
0.0011789544
0.0011748371
0.0011709316
0.0011675679
0.0011656776
0.0011653963
0.001165843
0.0011675948
0.0011694184
0.001170591
0.0011711107
0.001170922
0.0011694734
1.25271e-07
7.2735595e-06
3.2175579e-06
4.1558506e-06
3.2828584e-06
3.2675042e-06
3.5964989e-06
3.2059131e-06
3.2683846e-06
3.0812338e-06
3.0312132e-06
3.0115439e-06
3.0260782e-06
3.0748646e-06
3.1616964e-06
3.2819861e-06
3.4336908e-06
3.6167991e-06
3.8325335e-06
4.0827681e-06
4.3640521e-06
4.6904026e-06
5.0619685e-06
5.483888e-06
5.9622816e-06
6.5045526e-06
7.1196799e-06
7.8185828e-06
8.6146482e-06
9.5032467e-06
1.0540213e-05
1.1735167e-05
1.3119344e-05
1.4731641e-05
1.6620354e-05
1.8845341e-05
2.1479829e-05
2.4614444e-05
2.8360092e-05
3.2851557e-05
3.8253061e-05
4.5085461e-05
5.3010763e-05
6.2582459e-05
7.4135852e-05
8.8070743e-05
0.00010485426
0.00012502881
0.00015058817
0.00017973298
0.00021446147
0.00025569454
0.00030743593
0.00036539557
0.00043356658
0.00051360591
0.0006133279
0.00072469275
0.00085645524
0.0010136829
0.0011993985
0.0011969565
0.001194303
0.0011913237
0.0011879807
0.0011843073
0.001180408
0.0011764473
0.0011726456
0.0011692918
0.0011669311
0.0011661611
0.0011661927
0.001167052
0.0011689759
0.0011706168
0.0011715956
0.0011719009
0.0011715345
0.0011703139
1.205977e-07
5.0547231e-06
2.8471094e-06
3.5386298e-06
2.8060477e-06
2.7221575e-06
3.0780015e-06
2.6846402e-06
2.6834782e-06
2.5798292e-06
2.5641821e-06
2.5730508e-06
2.6197639e-06
2.7041595e-06
2.8216517e-06
2.9696189e-06
3.1473994e-06
3.3557378e-06
3.5929101e-06
3.8666619e-06
4.1782614e-06
4.5312913e-06
4.9300965e-06
5.3799497e-06
5.8871951e-06
6.4594587e-06
7.1059694e-06
7.825756e-06
8.6522557e-06
9.5939975e-06
1.0672019e-05
1.1912298e-05
1.3347382e-05
1.5017865e-05
1.6974221e-05
1.9278746e-05
2.2007977e-05
2.5255911e-05
2.9137775e-05
3.37941e-05
3.9395579e-05
4.614767e-05
5.4702462e-05
6.4622483e-05
7.6593236e-05
9.1026974e-05
0.00010840692
0.00012929749
0.00015435351
0.00018598306
0.00022199082
0.00026479491
0.00031552643
0.00037901173
0.00045024376
0.00053418343
0.0006392733
0.0007572741
0.00089779318
0.0010666878
0.0011973954
0.0011947955
0.0011919859
0.0011888871
0.0011854859
0.0011818438
0.0011780913
0.0011744206
0.0011710981
0.0011684954
0.0011672669
0.0011669734
0.0011673002
0.001168713
0.0011703577
0.0011716536
0.0011723187
0.001172522
0.0011719431
0.00117099
1.1550833e-07
4.189972e-06
2.4530316e-06
2.9705515e-06
2.418511e-06
2.2686128e-06
2.5374409e-06
2.226798e-06
2.2081037e-06
2.1681925e-06
2.1824505e-06
2.2272506e-06
2.3115098e-06
2.4278833e-06
2.5736473e-06
2.7478305e-06
2.9507915e-06
3.1813854e-06
3.4457577e-06
3.7452447e-06
4.0829824e-06
4.4627672e-06
4.8891339e-06
5.3674921e-06
5.9043278e-06
6.5074533e-06
7.1779769e-06
7.9405628e-06
8.8037214e-06
9.7849367e-06
1.0906095e-05
1.2194343e-05
1.3683591e-05
1.5416143e-05
1.7444789e-05
1.9834957e-05
2.2666874e-05
2.6038577e-05
3.0070143e-05
3.4907289e-05
4.0727305e-05
4.8091025e-05
5.6632409e-05
6.6942523e-05
7.9386669e-05
9.4394417e-05
0.00011247156
0.00013421153
0.00016179256
0.00019328709
0.0002308963
0.00027569884
0.00032893645
0.00039574637
0.00047101657
0.00056012665
0.00067224654
0.00079901597
0.00095104956
0.001135214
0.0011952341
0.0011925583
0.0011896973
0.0011865967
0.0011832619
0.0011797717
0.0011762768
0.0011730015
0.0011702719
0.0011686532
0.0011680719
0.001168125
0.001168979
0.0011702672
0.0011714891
0.0011723478
0.0011726985
0.0011728912
0.0011722144
0.0011714468
1.1208681e-07
3.3764238e-06
2.1137408e-06
2.3963714e-06
2.1026437e-06
1.8820702e-06
2.0322875e-06
1.837992e-06
1.8346846e-06
1.8458082e-06
1.8912007e-06
1.9756375e-06
2.0921142e-06
2.2364563e-06
2.4075818e-06
2.6057657e-06
2.8308205e-06
3.0867406e-06
3.3754113e-06
3.69967e-06
4.0629113e-06
4.469103e-06
4.9228896e-06
5.4297626e-06
5.9962982e-06
6.6256488e-06
7.3346984e-06
8.1321663e-06
9.0325547e-06
1.0053979e-05
1.1219327e-05
1.2556995e-05
1.4102464e-05
1.589991e-05
1.8004385e-05
2.0484425e-05
2.3424705e-05
2.6927563e-05
3.111895e-05
3.6151043e-05
4.2487759e-05
4.9853418e-05
5.8744171e-05
6.9482774e-05
8.2451625e-05
9.8104883e-05
0.00011697893
0.00013970754
0.0001685409
0.00020157844
0.00024113527
0.00028840355
0.00034477929
0.00041574052
0.00049617872
0.00059195077
0.00071307494
0.00085119148
0.0010181494
0.0011957048
0.0011930951
0.0011904398
0.0011876359
0.0011846437
0.0011814803
0.0011782344
0.0011750743
0.0011722671
0.0011703204
0.0011694219
0.0011691933
0.0011696109
0.0011704998
0.0011714424
0.0011721684
0.0011725808
0.0011726598
0.0011728674
0.0011722425
0.001171385
1.1062196e-07
2.6589451e-06
1.8206304e-06
1.8475233e-06
1.8115914e-06
1.551207e-06
1.6189917e-06
1.5277594e-06
1.5562898e-06
1.6038657e-06
1.6897575e-06
1.806052e-06
1.949043e-06
2.1170461e-06
2.3103305e-06
2.5300957e-06
2.7772485e-06
3.0555743e-06
3.3672182e-06
3.7152576e-06
4.1032216e-06
4.5351727e-06
5.0158221e-06
5.5507117e-06
6.1464646e-06
6.8111258e-06
7.5545969e-06
8.3891521e-06
9.3188085e-06
1.0380404e-05
1.1590062e-05
1.2977549e-05
1.4580099e-05
1.6444045e-05
1.8626825e-05
2.128728e-05
2.4362565e-05
2.8028741e-05
3.241869e-05
3.7693511e-05
4.4047759e-05
5.1715459e-05
6.0979064e-05
7.217723e-05
8.571534e-05
0.00010207802
0.00012184176
0.00014696465
0.00017591936
0.0002107594
0.00025262527
0.00030286351
0.00036650969
0.00043911713
0.0005260345
0.00063023171
0.00076271519
0.00091531434
0.0011014232
0.0011936579
0.0011911543
0.0011886156
0.0011859664
0.0011831725
0.0011802598
0.0011773258
0.0011745687
0.0011724182
0.0011711094
0.0011704784
0.0011704731
0.001170944
0.0011716215
0.0011720547
0.001172229
0.0011722369
0.0011721138
0.0011718856
0.0011716535
0.001170548
1.1222751e-07
2.0468705e-06
1.5766449e-06
1.4278174e-06
1.5140552e-06
1.2735952e-06
1.3162022e-06
1.300094e-06
1.3626925e-06
1.4462091e-06
1.5620105e-06
1.7028025e-06
1.8671397e-06
2.0550935e-06
2.267891e-06
2.5073158e-06
2.775125e-06
3.0745116e-06
3.4080363e-06
3.7788776e-06
4.1906248e-06
4.6473833e-06
5.1539074e-06
5.7157922e-06
6.3397358e-06
7.0338934e-06
7.8083456e-06
8.6756741e-06
9.6516668e-06
1.0756203e-05
1.2014269e-05
1.3457314e-05
1.5124668e-05
1.7065374e-05
1.9340251e-05
2.2024384e-05
2.5210151e-05
2.9011092e-05
3.3565748e-05
3.9043032e-05
4.5648046e-05
5.3628272e-05
6.3279765e-05
7.4961943e-05
8.910601e-05
0.00010711122
0.00012799666
0.00015325716
0.00018379509
0.0002206915
0.0002652379
0.00032197599
0.00038724683
0.00046592135
0.0005608196
0.00068205952
0.00082211849
0.00099297732
0.0011943094
0.0011918706
0.0011895477
0.0011872106
0.0011847915
0.0011822603
0.00117965
0.0011770847
0.0011748863
0.0011732943
0.0011722513
0.0011717402
0.0011716896
0.0011719519
0.0011720696
0.0011719377
0.0011717101
0.001171309
0.0011707808
0.0011702912
0.0011696876
0.0011685318
1.1813825e-07
1.545264e-06
1.3788588e-06
1.1218228e-06
1.3505512e-06
1.0431034e-06
1.1103751e-06
1.1489394e-06
1.2396753e-06
1.3521577e-06
1.4899353e-06
1.6496672e-06
1.8316818e-06
2.0371047e-06
2.2676725e-06
2.5254299e-06
2.8127016e-06
3.13186e-06
3.4860885e-06
3.8784804e-06
4.312658e-06
4.7927627e-06
5.3235967e-06
5.9108235e-06
6.5612395e-06
7.2831405e-06
8.0868106e-06
8.9851852e-06
9.9945548e-06
1.1135532e-05
1.2434055e-05
1.3922866e-05
1.564296e-05
1.7645512e-05
1.9994041e-05
2.2767069e-05
2.6061202e-05
2.999486e-05
3.4712721e-05
4.0391072e-05
4.7568274e-05
5.5924529e-05
6.6041512e-05
7.8303337e-05
9.3174319e-05
0.00011121715
0.0001331143
0.00015969363
0.00019195592
0.00023328384
0.00028119371
0.0003393597
0.00041001241
0.00049589421
0.00060626494
0.0007346348
0.00089172339
0.0010851879
0.0011926557
0.0011904498
0.0011883598
0.0011862793
0.0011841357
0.0011818987
0.0011796156
0.0011775207
0.0011757996
0.0011744394
0.0011734751
0.0011728719
0.0011725015
0.0011721335
0.0011716581
0.001171208
0.0011704552
0.0011696279
0.0011687585
0.0011679585
0.0011672131
0.0011663223
1.2901903e-07
1.2185494e-06
1.2088524e-06
9.7419776e-07
9.8696551e-07
9.1077159e-07
9.7482057e-07
1.0574384e-06
1.1699981e-06
1.3030102e-06
1.4573218e-06
1.6326228e-06
1.8301219e-06
2.0513593e-06
2.2982202e-06
2.5728064e-06
2.8774598e-06
3.2147799e-06
3.5876678e-06
3.9993781e-06
4.4535965e-06
4.954546e-06
5.5071365e-06
6.1171776e-06
6.7916712e-06
7.5362736e-06
8.3658678e-06
9.2918745e-06
1.0340908e-05
1.1518849e-05
1.2859467e-05
1.4396982e-05
1.6174225e-05
1.8244624e-05
2.06745e-05
2.3545813e-05
2.6959471e-05
3.1039291e-05
3.5936776e-05
4.1836934e-05
4.8965377e-05
5.7597039e-05
6.8066715e-05
8.0780197e-05
9.62349e-05
0.00011503767
0.00013915978
0.00016727078
0.00020154082
0.00024336608
0.0002944766
0.00035702669
0.00043369524
0.00053282482
0.00064935077
0.0007928434
0.00097016211
0.001190558
0.0011913894
0.0011894408
0.0011876115
0.0011858048
0.0011839487
0.0011820201
0.0011801434
0.0011784757
0.0011769543
0.001175613
0.0011744507
0.0011734318
0.0011725047
0.0011716281
0.0011706748
0.0011696786
0.0011686185
0.0011675241
0.0011664617
0.0011655257
0.0011647486
0.0011641206
1.5145762e-07
1.2709633e-06
1.0406045e-06
7.4271201e-07
8.0492477e-07
8.1255604e-07
8.9948794e-07
1.0060829e-06
1.1358678e-06
1.284341e-06
1.4526223e-06
1.6416293e-06
1.8528788e-06
2.0880256e-06
2.3489736e-06
2.6378375e-06
2.9569733e-06
3.3090073e-06
3.696876e-06
4.1238773e-06
4.5937419e-06
5.1107361e-06
5.6798107e-06
6.306814e-06
6.9987928e-06
7.7644005e-06
8.6144311e-06
9.5624924e-06
1.062585e-05
1.1826416e-05
1.3191916e-05
1.4757361e-05
1.6566663e-05
1.8674654e-05
2.1149451e-05
2.4075307e-05
2.7556059e-05
3.1719253e-05
3.6721194e-05
4.2753108e-05
5.0048905e-05
5.9317937e-05
7.0148552e-05
8.3323301e-05
9.937462e-05
0.00011895744
0.00014288244
0.00017215706
0.00020804036
0.00025211336
0.00030638006
0.00037682929
0.0004603826
0.0005640506
0.00069291805
0.00085336542
0.0010535733
0.0011925143
0.0011905487
0.0011888431
0.0011872609
0.0011857051
0.0011841159
0.0011825539
0.0011810721
0.0011795968
0.0011780923
0.0011765733
0.0011750596
0.0011735646
0.0011720889
0.001170633
0.0011692119
0.0011678408
0.0011665261
0.0011652863
0.0011641787
0.001163275
0.0011626114
0.0011622357
1.4438985e-07
8.5046521e-07
8.525894e-07
6.3276348e-07
6.918124e-07
7.5455924e-07
8.6103247e-07
9.8523261e-07
1.1286667e-06
1.2902201e-06
1.4711402e-06
1.6726366e-06
1.8962563e-06
2.1437176e-06
2.4169564e-06
2.7181342e-06
3.0496628e-06
3.4141808e-06
3.8147597e-06
4.2547312e-06
4.7378867e-06
5.268551e-06
5.851732e-06
6.4933355e-06
7.2004724e-06
7.9818738e-06
8.8484366e-06
9.8139186e-06
1.0905257e-05
1.2129871e-05
1.3522571e-05
1.5119234e-05
1.696482e-05
1.9115477e-05
2.164097e-05
2.462767e-05
2.8182144e-05
3.2435556e-05
3.754906e-05
4.3720461e-05
5.1192474e-05
6.0263021e-05
7.1298263e-05
8.4751543e-05
0.00010118393
0.00012129465
0.00014595973
0.00017783094
0.00021548748
0.00026203489
0.00031976609
0.00039162021
0.00048139327
0.00059397872
0.00073556868
0.00091383283
0.0011382607
0.0011918797
0.0011901144
0.0011885985
0.0011872076
0.0011858483
0.0011845599
0.0011833648
0.0011820801
0.0011806446
0.0011790218
0.0011772284
0.0011753109
0.0011733299
0.001171352
0.0011694416
0.0011676484