/*--------------------------------*- C++ -*----------------------------------*\
  =========                 |
  \\      /  F ield         | OpenFOAM: The Open Source CFD Toolbox
   \\    /   O peration     | Website:  https://openfoam.org
    \\  /    A nd           | Version:  12
     \\/     M anipulation  |
\*---------------------------------------------------------------------------*/
FoamFile
{
    format      ascii;
    class       volScalarField;
    location    "0.033";
    object      Ma;
}
// * * * * * * * * * * * * * * * * * * * * * * * * * * * * * * * * * * * * * //

dimensions      [];

internalField   nonuniform List<scalar> 
16000
(
0.61540798
0.73294545
0.68803185
0.71269691
0.69761683
0.70460136
0.69885329
0.70043871
0.69778325
0.69737886
0.69577158
0.69466918
0.69328404
0.69193661
0.69050886
0.68903657
0.68750885
0.68592727
0.68429084
0.68259935
0.68085267
0.67905103
0.67719488
0.67528502
0.67332259
0.6713091
0.66924645
0.66713696
0.66498339
0.66278896
0.66055738
0.65829282
0.65599995
0.6536839
0.65135028
0.64900517
0.64665503
0.64430673
0.64196745
0.63964465
0.63734599
0.63507924
0.63285223
0.63067273
0.6285484
0.62648666
0.62449462
0.62257891
0.62074556
0.61899985
0.61734619
0.61578802
0.61432767
0.61296605
0.61170219
0.6105326
0.60945059
0.6084461
0.60750427
0.60660523
0.60572379
0.6048299
0.60389072
0.60287012
0.60173185
0.60044592
0.59898777
0.59734653
0.59552907
0.59356627
0.59152382
0.58951441
0.58769862
0.58624619
0.58526543
0.58489077
0.58517223
0.58502911
0.58513791
0.5832378
0.62003988
0.7383705
0.69171681
0.71755207
0.70167097
0.70908779
0.70292479
0.70460374
0.70178481
0.70129951
0.69961083
0.6983921
0.69691847
0.69545856
0.69392477
0.69233861
0.69069478
0.68899309
0.68723318
0.68541485
0.68353822
0.68160374
0.67961222
0.67756482
0.67546312
0.67330913
0.67110531
0.66885459
0.66656037
0.66422656
0.66185759
0.65945837
0.65703431
0.65459132
0.65213574
0.64967435
0.64721429
0.64476304
0.64232831
0.639918
0.6375401
0.6352026
0.63291339
0.63068018
0.62851042
0.62641117
0.62438903
0.62245002
0.6205994
0.61884151
0.61717966
0.61561602
0.61415156
0.61278588
0.61151685
0.61034008
0.60924819
0.60823037
0.60727142
0.60635136
0.60544546
0.60452477
0.60355786
0.60250911
0.60134505
0.60003635
0.59856108
0.59691161
0.59509903
0.59315862
0.59115848
0.58921037
0.58746974
0.58608952
0.58519218
0.58490814
0.58511504
0.58499463
0.5850769
0.58276223
0.62440625
0.74336248
0.69554147
0.7218433
0.70549915
0.71302143
0.7066999
0.70826998
0.70539866
0.70475838
0.70300492
0.70165044
0.70007612
0.69849271
0.69683811
0.69512494
0.69335037
0.69151398
0.68961563
0.6876554
0.68563377
0.68355158
0.68141008
0.67921096
0.6769564
0.67464902
0.67229198
0.66988896
0.66744416
0.66496233
0.66244876
0.65990927
0.65735015
0.6547782
0.65220063
0.64962503
0.64705928
0.6445115
0.64198995
0.63950296
0.63705877
0.63466549
0.63233097
0.6300627
0.62786772
0.62575253
0.62372303
0.62178436
0.61994081
0.61819562
0.61655083
0.61500718
0.61356408
0.61221951
0.61096973
0.60980896
0.60872879
0.60771706
0.60675784
0.60583108
0.60491187
0.60397305
0.60298469
0.60191308
0.60072807
0.59940237
0.59791746
0.59626937
0.59447367
0.59257064
0.59063224
0.58877098
0.58713548
0.5858675
0.5850887
0.58489315
0.58504329
0.58488725
0.58494071
0.58232294
0.62844976
0.74794982
0.69878397
0.72568783
0.70891604
0.71652778
0.71005393
0.71148519
0.70855934
0.70774158
0.70591115
0.70440482
0.70271232
0.70098953
0.69919671
0.69733959
0.69541731
0.69342945
0.69137623
0.68925812
0.68707603
0.68483131
0.68252576
0.6801617
0.67774198
0.67527002
0.6727498
0.67018589
0.66758346
0.66494826
0.6622866
0.65960535
0.65691185
0.65421388
0.6515196
0.64883744
0.64617603
0.64354412
0.64095041
0.63840351
0.63591179
0.63348326
0.63112549
0.6288455
0.62664967
0.62454366
0.62253236
0.6206198
0.61880904
0.61710203
0.61549943
0.61400049
0.61260302
0.61130331
0.61009596
0.60897355
0.6079265
0.60694145
0.60600141
0.60508669
0.6041718
0.60323254
0.60223946
0.60116206
0.59997316
0.5986481
0.5971716
0.59554272
0.59378046
0.59192879
0.59006258
0.58829427
0.58676603
0.58561474
0.58495477
0.5848233
0.58490352
0.58472398
0.58474889
0.58188803
0.63217841
0.75209297
0.70185076
0.72888233
0.71180727
0.71951306
0.71294617
0.71416677
0.71120761
0.71017607
0.70825735
0.70658073
0.70475005
0.70287093
0.7009213
0.69890272
0.69681529
0.6946589
0.69243409
0.69014175
0.68778329
0.68536064
0.68287627
0.68033329
0.67773543
0.67508706
0.67239325
0.66965969
0.66689275
0.66409942
0.66128725
0.65846434
0.65563921
0.65282075
0.65001812
0.64724063
0.6444976
0.64179829
0.63915171
0.63656655
0.63405102
0.63161279
0.62925882
0.62699533
0.6248277
0.62276042
0.62079707
0.61894024
0.61719148
0.61555122
0.61401855
0.61259113
0.61126512
0.61003508
0.6088939
0.60783235
0.60683966
0.60590101
0.60500018
0.60411471
0.6032219
0.60229825
0.60131489
0.60024525
0.599065
0.59775311
0.59629789
0.59470179
0.59298714
0.59120087
0.58941979
0.58775512
0.58634286
0.58531512
0.5847737
0.58469107
0.58469912
0.58451595
0.58452515
0.58145394
0.63554858
0.75570617
0.70450131
0.73162456
0.71426307
0.72189549
0.71527647
0.7162311
0.71325347
0.71198205
0.70995963
0.70809922
0.70611187
0.70406173
0.7019388
0.69974247
0.69747321
0.69513131
0.69271771
0.69023388
0.68768192
0.68506458
0.68238532
0.67964831
0.67685848
0.67402153
0.67114388
0.66823272
0.66529589
0.66234186
0.65937967
0.6564188
0.65346909
0.65054058
0.64764341
0.64478767
0.64198324
0.63923964
0.63656591
0.63397051
0.63146113
0.62904466
0.62672708
0.62451339
0.62240757
0.62041256
0.61853026
0.61676152
0.61510612
0.61356268
0.6121286
0.61079986
0.60957092
0.60843468
0.60738242
0.60640384
0.60548564
0.60461334
0.60376837
0.60292986
0.60207792
0.60118535
0.60022702
0.59917971
0.59802172
0.5967363
0.59531557
0.59376586
0.5921126
0.5904048
0.58871995
0.58716651
0.58587332
0.58496679
0.58453523
0.58449246
0.58444672
0.58426528
0.58421969
0.58101165
0.63849235
0.7587392
0.70671911
0.73386299
0.71632182
0.72362661
0.71692451
0.7175973
0.71462587
0.7131082
0.71096737
0.70891344
0.70675097
0.70451343
0.70219802
0.69980378
0.69733155
0.69478234
0.69215788
0.6894606
0.6866937
0.68386116
0.68096782
0.67801935
0.67502231
0.67198407
0.66891283
0.66581756
0.66270788
0.65959401
0.65648661
0.65339668
0.65033536
0.64731379
0.64434296
0.64143347
0.63859544
0.63583832
0.63317073
0.6306004
0.62813403
0.62577722
0.62353444
0.621409
0.61940305
0.61751759
0.61575247
0.61410653
0.6125775
0.61116206
0.60985576
0.60865281
0.60754607
0.60652688
0.60558509
0.60470891
0.60388449
0.60309614
0.60232532
0.60155212
0.60075358
0.59990614
0.59898733
0.59797577
0.59685292
0.59560626
0.59423225
0.59274135
0.59116191
0.58954432
0.58796546
0.58652894
0.58535515
0.58456532
0.58423426
0.58422769
0.58415529
0.58397312
0.58381484
0.58057325
0.64100937
0.76120076
0.70851505
0.73561981
0.71793735
0.72474891
0.7182438
0.71861468
0.71539132
0.71356258
0.71127408
0.7090065
0.70663911
0.70418619
0.70164866
0.69902647
0.6963212
0.69353498
0.69067076
0.68773233
0.68472442
0.68165269
0.67852382
0.67534541
0.67212606
0.66887525
0.66560331
0.6623213
0.65904087
0.65577415
0.65253349
0.64933136
0.64618008
0.64309164
0.64007751
0.63714841
0.63431417
0.63158357
0.62896423
0.62646251
0.62408346
0.6218308
0.61970694
0.61771295
0.61584871
0.61411287
0.61250301
0.61101567
0.60964645
0.60838996
0.60723986
0.60618865
0.60522764
0.60434683
0.60353486
0.60277892
0.60206458
0.60137558
0.60069345
0.59999767
0.59926661
0.59847848
0.59761252
0.59664893
0.5955734
0.59437751
0.59306219
0.59164183
0.59014733
0.58862991
0.58716437
0.58584734
0.5847904
0.5841112
0.58387002
0.58389459
0.5838209
0.58364641
0.58333111
0.58013669
0.64317268
0.76314173
0.7099102
0.73691569
0.71900257
0.72562498
0.71874752
0.71842629
0.71541141
0.71332346
0.71083795
0.70832186
0.70570795
0.70300064
0.7002023
0.69731429
0.69433927
0.69128081
0.68814347
0.68493287
0.68165575
0.67831995
0.67493446
0.67150936
0.66805573
0.66458559
0.66111176
0.65764764
0.65420708
0.6508041
0.64745267
0.64416648
0.64095865
0.63784155
0.6348265
0.63192365
0.62914181
0.6264883
0.6239689
0.62158784
0.61934778
0.61724987
0.61529384
0.61347809
0.61179979
0.61025501
0.60883883
0.60754546
0.60636831
0.60530001
0.60433239
0.60345642
0.60266206
0.60193818
0.60127255
0.6006517
0.60006084
0.59948356
0.59890163
0.59829499
0.59764275
0.59692456
0.59612179
0.59521685
0.59419985
0.5930661
0.59182071
0.59048147
0.5890814
0.58767192
0.5863243
0.58512673
0.58418304
0.58360806
0.58344427
0.58349279
0.58344088
0.58329456
0.58283973
0.57969892
0.64500361
0.76454353
0.71079469
0.73769013
0.71934635
0.72498945
0.71854118
0.71790046
0.71472166
0.71228143
0.70954608
0.70674217
0.703837
0.70083202
0.69773026
0.69453487
0.69125019
0.68788174
0.6844363
0.68092194
0.67734805
0.67372533
0.67006574
0.66638239
0.66268939
0.6590017
0.65533489
0.65170485
0.64812757
0.64461877
0.64119364
0.63786655
0.63465073
0.63155806
0.62859883
0.62578161
0.62311314
0.62059825
0.61823995
0.61603941
0.61399613
0.61210806
0.61037175
0.60878252
0.60733464
0.60602147
0.60483562
0.60376904
0.60281314
0.60195876
0.60119621
0.60051515
0.59990449
0.59935231
0.59884583
0.59837131
0.5979139
0.59745741
0.59698407
0.5964746
0.595909
0.59526894
0.59453838
0.59370138
0.59275287
0.59169141
0.59052588
0.58927685
0.58797889
0.58668272
0.58545473
0.58437456
0.58354016
0.58306203
0.58296115
0.58302955
0.5830251
0.58293551
0.58234968
0.57928759
0.64644519
0.76533042
0.71108658
0.73721433
0.71892879
0.72409436
0.71768731
0.71642851
0.71311665
0.71030673
0.70726394
0.704127
0.70088189
0.69753132
0.69407939
0.69053162
0.68689476
0.68317707
0.67938843
0.67554019
0.67164531
0.66771815
0.66377439
0.65983079
0.65590497
0.6520151
0.64817958
0.64441664
0.64074403
0.63717856
0.63373586
0.63042995
0.62727302
0.62427519
0.6214444
0.61878628
0.61630424
0.61399947
0.61187113
0.60991654
0.60813134
0.60650979
0.60504499
0.60372905
0.60255338
0.60150875
0.60058554
0.59977377
0.59906317
0.59844323
0.59790308
0.59743148
0.59701667
0.59664631
0.59630743
0.59598637
0.59566857
0.59533832
0.59497867
0.59457141
0.59409789
0.5935416
0.59288928
0.5921281
0.59125608
0.59027523
0.58919765
0.58804606
0.58685576
0.58567562
0.58456626
0.58359981
0.58286994
0.58247865
0.58242529
0.58251679
0.58258865
0.58257586
0.58179686
0.57893361
0.64741546
0.76533717
0.71069941
0.73555599
0.71778725
0.72217904
0.71586688
0.71401378
0.71047724
0.70725747
0.70384371
0.7003193
0.6966789
0.69292853
0.68907443
0.6851253
0.6810914
0.67698492
0.67281994
0.66861231
0.66437956
0.66014064
0.65591567
0.65172557
0.6475917
0.64353539
0.63957751
0.635738
0.63203541
0.62848646
0.62510572
0.62190525
0.61889446
0.61607998
0.61346566
0.61105269
0.60883975
0.60682327
0.60499772
0.60335591
0.60188933
0.6005884
0.59944282
0.59844174
0.597574
0.59682825
0.5961931
0.59565714
0.59520898
0.59483721
0.59453033
0.59427665
0.59406416
0.5938805
0.59371288
0.59354803
0.59337199
0.59316986
0.59292569
0.59262271
0.59224415
0.59177529
0.59120492
0.59052527
0.58973549
0.58884145
0.5878577
0.58680845
0.58572882
0.58466464
0.58367041
0.5828125
0.58218018
0.58186146
0.58183915
0.58195846
0.582126
0.58219549
0.58127623
0.57863137
0.64783206
0.76446206
0.70946947
0.73341837
0.71589474
0.71927791
0.71300776
0.7104972
0.7066499
0.70297119
0.69911524
0.69513779
0.69103771
0.68682552
0.68251134
0.67810845
0.67363225
0.66910039
0.66453265
0.65995063
0.65537752
0.65083762
0.64635596
0.64195773
0.63766774
0.6335098
0.62950619
0.62567702
0.62203981
0.61860906
0.61539598
0.61240836
0.60965056
0.60712364
0.60482557
0.60275159
0.60089458
0.59924542
0.59779349
0.59652701
0.5954334
0.59449965
0.59371253
0.59305882
0.59252545
0.59209963
0.59176887
0.59152099
0.59134411
0.59122651
0.59115658
0.59112267
0.59111296
0.59111544
0.59111785
0.59110761
0.59107162
0.59099604
0.59086618
0.59066689
0.59038357
0.59000359
0.58951774
0.58892231
0.58821852
0.58741514
0.58652854
0.58558373
0.58461481
0.58366359
0.58277874
0.58202238
0.58147754
0.58121372
0.58120651
0.58135604
0.58162435
0.58178006
0.58077971
0.57834053
0.64765861
0.76260409
0.707299
0.73016226
0.71296004
0.71524565
0.70894193
0.70572921
0.70146103
0.69725327
0.69287139
0.68836134
0.68372619
0.67898247
0.67414649
0.66923822
0.66428013
0.65929709
0.65431604
0.64936551
0.64447513
0.63967493
0.63499471
0.63046323
0.62610749
0.62195191
0.61801776
0.61432257
0.61087976
0.60769845
0.6047835
0.60213562
0.59975173
0.59762538
0.59574725
0.59410573
0.59268739
0.59147758
0.59046086
0.58962138
0.58894327
0.58841089
0.588009
0.58772291
0.58753856
0.58744253
0.58742203
0.58746485
0.58755921
0.58769372
0.58785714
0.58803829
0.58822597
0.58840884
0.58857546
0.58871418
0.588813
0.58885932
0.58883994
0.58874145
0.58855134
0.58825937
0.58785902
0.5873486
0.58673245
0.5860211
0.58523214
0.58439081
0.58352938
0.58268508
0.58190147
0.58123723
0.58076643
0.58053906
0.5805346
0.58071388
0.58107431
0.58127871
0.5802338
0.57799377
0.6468491
0.75960348
0.70412088
0.72575243
0.70887289
0.70992447
0.70347646
0.69949563
0.69467941
0.68984833
0.68484174
0.67970665
0.67445335
0.66910661
0.66369166
0.65823741
0.65277546
0.64733956
0.64196515
0.63668843
0.63154562
0.62657185
0.62180022
0.61726076
0.61297949
0.60897776
0.60527167
0.60187191
0.59878368
0.59600702
0.5935372
0.59136539
0.58947926
0.58786378
0.58650191
0.58537525
0.58446467
0.58375079
0.58321441
0.58283686
0.58260019
0.58248735
0.58248228
0.58256991
0.58273616
0.58296789
0.58325279
0.58357925
0.58393626
0.58431317
0.58469959
0.58508518
0.58545963
0.58581259
0.58613363
0.58641223
0.58663762
0.58679862
0.58688364
0.58688112
0.58678063
0.58657422
0.58625773
0.58583182
0.58530264
0.58468209
0.58398845
0.58324653
0.58248606
0.58173967
0.58104656
0.58046154
0.58004701
0.57983635
0.57981894
0.58001551
0.58045486
0.58068491
0.57961143
0.57756429
0.64533876
0.75521837
0.69994
0.71998085
0.70341073
0.70308723
0.69634329
0.69150105
0.68598913
0.68041717
0.67467532
0.66881777
0.66286609
0.65685585
0.6508239
0.6448106
0.63885872
0.63301244
0.62731635
0.62181393
0.61654636
0.61155093
0.6068599
0.60249945
0.59848903
0.59484098
0.59156069
0.58864691
0.58609245
0.583885
0.5820081
0.58044211
0.57916516
0.57815399
0.57738477
0.57683366
0.57647737
0.57629351
0.57626083
0.57635945
0.57657088
0.57687808
0.57726538
0.57771843
0.57822408
0.57877023
0.57934573
0.57994015
0.58054365
0.58114675
0.58174017
0.58231471
0.58286115
0.58337028
0.58383288
0.58423965
0.58458115
0.58484766
0.58502928
0.58511634
0.58510046
0.58497578
0.58474015
0.58439606
0.58395092
0.5834175
0.58281425
0.58216487
0.58149607
0.58083619
0.58022035
0.57969706
0.57931656
0.57909888
0.57904551
0.57924071
0.5797402
0.57998611
0.57891439
0.57712661
0.64307165
0.74908013
0.69482005
0.71259897
0.69627748
0.69439634
0.68716144
0.68133528
0.67496825
0.66852706
0.66194041
0.65527301
0.64856218
0.64185784
0.6352119
0.62867904
0.62231492
0.61617429
0.61030908
0.60476634
0.59958655
0.59480212
0.5904366
0.58650418
0.58300997
0.57995054
0.57731494
0.57508591
0.57324119
0.57175488
0.5705987
0.56974309
0.56915819
0.56881458
0.56868389
0.56873925
0.56895549
0.56930939
0.56977966
0.57034696
0.57099382
0.57170449
0.5724648
0.57326204
0.57408471
0.57492239
0.57576553
0.57660529
0.57743326
0.57824137
0.57902164
0.57976612
0.58046682
0.58111578
0.58170501
0.58222651
0.5826722
0.58303385
0.5833032
0.58347244
0.58353505
0.58348702
0.58332781
0.58306107
0.58269504
0.58224292
0.58172291
0.58115716
0.58056915
0.57998298
0.57942891
0.57894634
0.57857887
0.57833055
0.57822328
0.57839797
0.57891746
0.57917734
0.57817559
0.57669015
0.63993185
0.74050212
0.68803471
0.70316241
0.68701991
0.68337386
0.67542321
0.66847811
0.66109871
0.65366365
0.64613818
0.63860221
0.63111526
0.62374694
0.61656779
0.60964796
0.60305416
0.59684671
0.59107711
0.58578596
0.58100185
0.57674092
0.5730072
0.56979368
0.56708373
0.56485296
0.56307103
0.56170352
0.56071359
0.56006346
0.55971558
0.55963356
0.55978282
0.56013108
0.56064859
0.56130826
0.56208563
0.56295885
0.56390844
0.56491716
0.56596982
0.56705298
0.56815479
0.56926478
0.57037359
0.57147285
0.57255488
0.57361257
0.57463912
0.57562791
0.57657231
0.57746569
0.57830131
0.57907245
0.57977237
0.58039437
0.5809317
0.58137757
0.58172531
0.58196878
0.58210317
0.5821259
0.58203755
0.58184241
0.58154905
0.58117078
0.58072536
0.5802333
0.57971471
0.57918861
0.57867919
0.57822441
0.57784924
0.57755659
0.57738864
0.57751655
0.57800194
0.57827815
0.57745691
0.5763001
0.63563472
0.72925694
0.67916593
0.69109214
0.67505053
0.66945029
0.66052203
0.6523069
0.64376411
0.63522834
0.62671074
0.61831482
0.61012895
0.60224539
0.59475135
0.58772559
0.58123466
0.57533001
0.57004657
0.56540224
0.56139872
0.55802314
0.5552504
0.55304574
0.5513675
0.5501696
0.54940382
0.54902164
0.54897572
0.54922095
0.54971525
0.55041991
0.55129984
0.55232359
0.55346324
0.55469421
0.55599497
0.55734681
0.55873348
0.56014095
0.56155711
0.56297146
0.56437491
0.56575953
0.56711833
0.56844505
0.56973399
0.57097976
0.57217715
0.57332094
0.57440585
0.57542648
0.57637732
0.57725284
0.57804751
0.57875587
0.57937243
0.57989177
0.58030866
0.58061846
0.58081778
0.58090515
0.58088179
0.58075214
0.58052469
0.5802125
0.57983269
0.57940411
0.57894389
0.57846648
0.57798973
0.57754275
0.57715162
0.57681892
0.57659271
0.57664947
0.57706183
0.57735101
0.57682902
0.57599971
0.62979364
0.71678266
0.66765252
0.67579271
0.65964876
0.6519071
0.64169318
0.63203785
0.62221454
0.61254372
0.60309532
0.59400191
0.58537802
0.57732887
0.56994182
0.56328304
0.55739538
0.55229806
0.54798824
0.54444372
0.54162658
0.53948705
0.53796745
0.53700569
0.53653828
0.53650269
0.53683913
0.53749173
0.53840929
0.53954562
0.54085956
0.54231487
0.54387993
0.54552738
0.5472337
0.54897879
0.55074559
0.55251962
0.55428869
0.55604249
0.55777235
0.55947091
0.56113192
0.56275003
0.56432056
0.56583931
0.56730241
0.56870611
0.57004662
0.57132007
0.57252237
0.57364927
0.57469641
0.57565936
0.57653372
0.57731515
0.57799937
0.57858221
0.57905975
0.57942864
0.57968664
0.5798331
0.57986955
0.57980038
0.57963368
0.57938168
0.57906016
0.57868656
0.5782765
0.57783978
0.57738547
0.57693851
0.57653259
0.57617369
0.57590502
0.5758811
0.5761999
0.57647075
0.57625005
0.57583781
0.62208621
0.70027825
0.65267076
0.6563974
0.6397813
0.62969444
0.61791088
0.60670937
0.59563269
0.58499734
0.57492896
0.56557632
0.55705518
0.54945232
0.54282064
0.53717973
0.53251861
0.52880021
0.52596717
0.52394769
0.52266129
0.52202367
0.52195079
0.52236176
0.52318098
0.52433932
0.52577474
0.52743241
0.52926445
0.53122955
0.53329234
0.53542283
0.53759575
0.53978993
0.54198781
0.54417482
0.54633901
0.54847056
0.55056147
0.55260522
0.5545965
0.55653095
0.55840502
0.56021569
0.5619604
0.56363679
0.56524261
0.56677552
0.56823305
0.56961243
0.57091068
0.57212458
0.57325078
0.57428586
0.57522642
0.57606917
0.57681093
0.57744866
0.57797964
0.57840164
0.57871334
0.57891474
0.57900761
0.57899635
0.57888859
0.57869498
0.57842902
0.57810703
0.57774416
0.57734549
0.57691209
0.57647099
0.57605535
0.57568574
0.5754089
0.57532108
0.57553381
0.57574457
0.57573963
0.57594665
0.61187762
0.67884232
0.6328325
0.6315003
0.61398054
0.60142513
0.58799954
0.57541018
0.56344434
0.5523962
0.54240623
0.53359423
0.52602551
0.51971852
0.51464818
0.51075377
0.50794809
0.5061266
0.50517583
0.50498039
0.50542825
0.50641443
0.50784323
0.50962929
0.51169784
0.51398435
0.51643378
0.5189997
0.52164329
0.52433234
0.52704038
0.52974575
0.53243094
0.53508183
0.5376872
0.54023818
0.54272782
0.54515077
0.54750294
0.54978123
0.55198336
0.55410761
0.55615273
0.55811777
0.56000193
0.5618044
0.5635243
0.5651605
0.56671158
0.56817579
0.56955108
0.57083514
0.5720255
0.57311965
0.57411507
0.57500941
0.57580048
0.57648632
0.57706527
0.57753615
0.57789843
0.57815263
0.57830086
0.57834752
0.57829976
0.57816708
0.57795971
0.57769199
0.57737643
0.57701511
0.57661031
0.57619551
0.57579057
0.57541415
0.57515025
0.57501907
0.57515476
0.57531302
0.57547925
0.57619175
0.5979987
0.65035316
0.60622383
0.59933488
0.58062907
0.56571333
0.55105609
0.53776716
0.52581181
0.51540508
0.50661921
0.49947135
0.49391197
0.48984255
0.48712923
0.48561767
0.4851458
0.4855538
0.48669113
0.48842086
0.49062177
0.49318884
0.49603267
0.49907822
0.50226326
0.50553673
0.50885706
0.51219079
0.51551114
0.51879692
0.52203154
0.52520215
0.52829894
0.53131462
0.53424385
0.53708289
0.53982926
0.54248145
0.5450387
0.54750078
0.54986791
0.55214056
0.55431937
0.55640501
0.55839812
0.56029915
0.5621083
0.56382543
0.56545001
0.56698115
0.56841761
0.56975788
0.57100027
0.57214303
0.57318444
0.57412296
0.57495731
0.57568655
0.57631006
0.57682759
0.57723939
0.57754651
0.57775125
0.5778575
0.57787191
0.57780365
0.57765922
0.5774487
0.57717967
0.57685949
0.5765041
0.57613194
0.57575839
0.57541161
0.57515893
0.57506495
0.57512411
0.5752861
0.57560672
0.57635963
0.57852046
0.61246421
0.57064092
0.55808887
0.53868041
0.52184106
0.50709031
0.49451203
0.48407378
0.47581859
0.46964991
0.46540922
0.46288692
0.4618506
0.46206408
0.46330241
0.46536099
0.46806013
0.47124627
0.47479096
0.47858857
0.48255346
0.48661699
0.49072475
0.49483402
0.49891162
0.50293206
0.50687605
0.51072922
0.5144811
0.51812434
0.52165405
0.52506723
0.52836236
0.53153908
0.53459788
0.53753987
0.54036661
0.54307998
0.54568201
0.54817486
0.55056066
0.55284152
0.55501937
0.55709593
0.55907261
0.56095048
0.56273016
0.5644119
0.56599552
0.56748052
0.56886609
0.57015121
0.57133478
0.57241576
0.57339338
0.57426722
0.57503727
0.5757039
0.5762678
0.57672999
0.57709187
0.5773558
0.57752575
0.57760649
0.57760256
0.57752208
0.57737148
0.57715954
0.576895
0.57658784
0.57625593
0.5759255
0.57563274
0.57543256
0.57536296
0.5754163
0.57558271
0.57594312
0.57660119
0.55080353
0.56266878
0.52469101
0.50639696
0.48589685
0.47052621
0.45764179
0.44783866
0.44085376
0.43644569
0.43427028
0.43396623
0.43517812
0.43758159
0.44089393
0.4448776
0.44933843
0.45412102
0.45910314
0.46418997
0.46930892
0.47440502
0.47943725
0.48437543
0.48919782
0.49388915
0.49843916
0.50284141
0.50709234
0.51119061
0.51513651
0.51893157
0.52257818
0.52607937
0.52943859
0.53265955
0.53574607
0.538702
0.54153117
0.54423728
0.54682389
0.54929437
0.55165187
0.55389922
0.55603895
0.55807317
0.56000358
0.56183146
0.5635577
0.56518277
0.56670681
0.56812964
0.56945083
0.57066987
0.57178638
0.57280028
0.57371193
0.57452212
0.57523213
0.57584358
0.57635821
0.57677787
0.57710472
0.57734155
0.57749168
0.57755875
0.57754676
0.57746026
0.57730666
0.57709597
0.57684193
0.57656189
0.57628087
0.57604156
0.575892
0.57585281
0.57590906
0.57606037
0.57636079
0.57681878
0.51074611
0.49835592
0.46136073
0.44356906
0.42625138
0.41413365
0.40588911
0.40130496
0.39973064
0.40058323
0.40329703
0.40738769
0.41245537
0.41818364
0.42432874
0.43070698
0.43718237
0.44365583
0.45005636
0.45633398
0.4624544
0.46839491
0.47414131
0.47968562
0.48502438
0.49015736
0.49508669
0.4998161
0.50435043
0.50869525
0.5128566
0.51684073
0.52065399
0.52430268
0.52779298
0.53113088
0.53432212
0.53737216
0.54028617
0.543069
0.5457252
0.54825898
0.55067419
0.5529743
0.55516237
0.55724101
0.55921242
0.56107836
0.56284027
0.56449919
0.56605588
0.56751079
0.56886412
0.57011599
0.57126658
0.57231633
0.57326611
0.57411743
0.57487244
0.5755336
0.57610339
0.57658408
0.57697763
0.57728551
0.57750874
0.57764823
0.57770561
0.57768412
0.57758972
0.57743182
0.57722348
0.57698421
0.57674527
0.57654992
0.57643733
0.57641569
0.57646041
0.57655986
0.57674147
0.57697317
0.44947891
0.41709581
0.38754485
0.37278809
0.36202129
0.35726302
0.35672218
0.35948406
0.36456202
0.37120002
0.37881565
0.38698664
0.39541433
0.40389296
0.41228396
0.42049633
0.42847242
0.43617759
0.44359306
0.4507108
0.45753006
0.46405488
0.47029244
0.47625182
0.48194327
0.48737761
0.49256583
0.49751887
0.50224745
0.50676192
0.51107222
0.51518784
0.51911777
0.52287051
0.52645407
0.52987594
0.53314312
0.53626213
0.53923902
0.54207939
0.54478843
0.54737089
0.54983109
0.55217292
0.55439981
0.55651474
0.55852021
0.56041837
0.56221099
0.56389959
0.56548552
0.56697
0.56835414
0.56963871
0.57082414
0.57191094
0.57290039
0.57379487
0.57459726
0.57531049
0.57593745
0.57648065
0.57694163
0.57732055
0.57761653
0.57782762
0.5779523
0.57799141
0.57794924
0.57783451
0.57766109
0.57745084
0.5772378
0.57706518
0.57696648
0.57694022
0.57695042
0.57696974
0.57701063
0.57706731
0.35429218
0.32096251
0.30343985
0.29899711
0.30039359
0.30665291
0.31580518
0.3265902
0.33813843
0.34990125
0.36154482
0.37287439
0.3837832
0.39421886
0.40416224
0.41361412
0.42258687
0.43109928
0.43917338
0.44683246
0.45409988
0.46099841
0.46754979
0.47377458
0.47969206
0.4853202
0.49067573
0.49577419
0.50063
0.50525651
0.50966612
0.51387031
0.51787972
0.52170421
0.5253529
0.5288342
0.5321559
0.53532515
0.53834856
0.54123218
0.54398159
0.54660189
0.54909772
0.55147325
0.55373221
0.5558778
0.55791278
0.55983939
0.56165949
0.56337472
0.56498688
0.5664981
0.56791049
0.56922544
0.57044361
0.57156631
0.57259626
0.57353612
0.5743874
0.57515248
0.57583522
0.57643827
0.57696205
0.57740611
0.5777679
0.57804383
0.57822898
0.57832132
0.57832302
0.57824126
0.57808991
0.57789243
0.57768535
0.57751236
0.5774033
0.57734963
0.57730726
0.57724144
0.57716555
0.57710186
0.21578605
0.21453643
0.219922
0.23328735
0.25054441
0.26887567
0.28708303
0.30451918
0.32095679
0.33633268
0.35067246
0.36403673
0.37649938
0.38813579
0.39901781
0.40921158
0.41877695
0.42776756
0.43623128
0.4442108
0.45174416
0.45886537
0.46560482
0.4719898
0.47804485
0.48379213
0.48925165
0.4944416
0.4993785
0.50407744
0.50855219
0.51281537
0.51687855
0.52075235
0.52444652
0.52797001
0.53133103
0.53453712
0.53759519
0.54051157
0.54329206
0.54594197
0.5484661
0.55086878
0.55315388
0.55532472
0.5573841
0.55933425
0.56117698
0.562914
0.56454729
0.56607921
0.56751196
0.56884754
0.57008891
0.57124134
0.57231072
0.5732969
0.57419573
0.57500869
0.57574099
0.57639405
0.57696658
0.57746729
0.57788345
0.57821466
0.57845281
0.5785902
0.57862884
0.57857372
0.57843654
0.57824333
0.57803149
0.57784565
0.57771403
0.57762405
0.57752688
0.57738532
0.57722398
0.5771059
0.091638174
0.12144727
0.15875578
0.19229487
0.22233294
0.24877652
0.27224571
0.29320484
0.31206922
0.32916428
0.34475242
0.35904388
0.37220935
0.38438855
0.39569709
0.40623154
0.41607324
0.42529134
0.43394502
0.44208535
0.44975667
0.45699772
0.46384254
0.47032122
0.47646048
0.48228416
0.48781365
0.49306816
0.49806508
0.50282015
0.50734769
0.51166073
0.5157712
0.51968999
0.52342708
0.52699161
0.53039195
0.53363577
0.53673009
0.53968133
0.54249535
0.54517739
0.54773212
0.55016359
0.55247526
0.55467016
0.5567511
0.55872095
0.56058282
0.56233979
0.56399441
0.56554848
0.56700416
0.56836534
0.56963664
0.5708201
0.57191446
0.57292301
0.57385492
0.57471398
0.57549559
0.57619375
0.57681024
0.57735394
0.57782261
0.57820283
0.57849585
0.57867583
0.5787475
0.57873203
0.57861247
0.57842937
0.57821711
0.57802329
0.57787642
0.57776215
0.5776297
0.57744298
0.57723674
0.5771005
0.014008139
0.31067738
0.4733658
0.51525496
0.52344458
0.524174
0.5241231
0.52523597
0.52667707
0.52815894
0.52959735
0.53103682
0.53243223
0.53381914
0.53520848
0.53660902
0.53801827
0.539437
0.54086452
0.54229925
0.54373897
0.54518124
0.54662356
0.54806333
0.54949799
0.55092499
0.55234189
0.55374631
0.55513597
0.55650867
0.55786227
0.55919469
0.56050387
0.56178781
0.56304448
0.56427187
0.565468
0.56663085
0.56775843
0.56884877
0.56989992
0.57090998
0.57187714
0.57279968
0.57367606
0.57450495
0.5752853
0.57601651
0.57669853
0.57733208
0.57791887
0.57846194
0.57896604
0.57943798
0.57988716
0.58032589
0.58076996
0.58123896
0.5817565
0.58234957
0.58304665
0.58387523
0.58485564
0.58600159
0.58729265
0.58871018
0.59012484
0.59152179
0.59254397
0.59346625
0.59338986
0.59329864
0.59128465
0.59022573
0.58575971
0.58584855
0.58048421
0.5844675
0.57789282
0.588454
0.085703436
0.39986935
0.51899551
0.5395204
0.54002578
0.53884358
0.53820607
0.53847659
0.53874114
0.53913442
0.53961584
0.54026069
0.54101226
0.5418435
0.5427321
0.54367494
0.5446633
0.54569417
0.54676177
0.54786091
0.5489868
0.55013501
0.55130144
0.55248216
0.55367351
0.55487198
0.55607424
0.55727708
0.55847744
0.55967236
0.56085897
0.56203447
0.56319614
0.56434128
0.56546729
0.56657156
0.56765156
0.56870478
0.56972879
0.5707212
0.57167973
0.57260216
0.57348646
0.57433072
0.5751333
0.57589281
0.57660823
0.57727902
0.57790528
0.5784879
0.57902882
0.57953134
0.58000043
0.58044317
0.58086913
0.58129081
0.58172405
0.58218832
0.58270673
0.58330506
0.58400973
0.58484483
0.58582666
0.5869625
0.58822765
0.58959226
0.59093239
0.59221493
0.59312609
0.59388441
0.59369644
0.59342098
0.59135928
0.59014654
0.58575094
0.58576808
0.58060118
0.58455808
0.57812076
0.58858741
0.18748068
0.47783113
0.53440989
0.54599106
0.54469946
0.54442083
0.54451165
0.54523835
0.54573599
0.54639575
0.54699555
0.54766458
0.5483334
0.54903671
0.54976692
0.55052526
0.55130881
0.55211996
0.552957
0.55381859
0.55470324
0.55560933
0.55653499
0.55747816
0.55843666
0.55940815
0.56039021
0.56138029
0.56237579
0.56337404
0.56437231
0.56536785
0.56635786
0.56733953
0.56831004
0.56926655
0.57020626
0.57112639
0.57202419
0.57289702
0.57374229
0.57455758
0.57534059
0.57608926
0.57680181
0.57747677
0.57811309
0.57871025
0.57926842
0.57978861
0.58027289
0.58072473
0.58114925
0.58155367
0.58194761
0.58234359
0.58275735
0.583208
0.5837179
0.58431138
0.58501265
0.58584247
0.58681326
0.58792671
0.58915371
0.5904556
0.59171226
0.59287926
0.5936757
0.59427732
0.59397895
0.59354922
0.59142052
0.59006867
0.58575069
0.58569302
0.58072984
0.58463596
0.57835522
0.58870239
0.26367625
0.51629735
0.54770494
0.55483125
0.55239014
0.55316557
0.55310542
0.55384955
0.55410866
0.55463714
0.55503531
0.55554016
0.55602685
0.55654586
0.55708124
0.55763528
0.55820852
0.558804
0.55942105
0.56005939
0.56071875
0.56139871
0.56209843
0.5628169
0.56355289
0.56430494
0.56507138
0.56585037
0.56663989
0.56743777
0.56824169
0.56904921
0.56985778
0.57066474
0.57146736
0.57226286
0.5730484
0.57382115
0.57457829
0.57531703
0.57603468
0.57672869
0.57739665
0.57803642
0.57864613
0.57922429
0.57976986
0.58028236
0.58076203
0.58120999
0.58162846
0.58202103