/*--------------------------------*- C++ -*----------------------------------*\
  =========                 |
  \\      /  F ield         | OpenFOAM: The Open Source CFD Toolbox
   \\    /   O peration     | Website:  https://openfoam.org
    \\  /    A nd           | Version:  12
     \\/     M anipulation  |
\*---------------------------------------------------------------------------*/
FoamFile
{
    format      ascii;
    class       volScalarField;
    location    "0.033";
    object      omega;
}
// * * * * * * * * * * * * * * * * * * * * * * * * * * * * * * * * * * * * * //

dimensions      [0 0 -1 0 0 0 0];

internalField   nonuniform List<scalar> 
16000
(
1092.4044
2215.8839
1100.7573
662.81692
468.27122
324.70543
247.56171
186.32788
150.3964
121.33337
103.18779
88.097286
77.135679
67.885402
60.384094
54.049861
48.708507
44.152201
40.238035
36.850099
33.901912
31.320599
29.046118
27.030602
25.235424
23.630571
22.191074
20.897633
19.733966
18.685268
17.738078
16.881704
16.107631
15.40866
14.778665
14.211977
13.703286
13.247565
12.840576
12.478775
12.158249
11.874848
11.625528
11.407564
11.217905
11.053399
10.911574
10.7901
10.686764
10.599473
10.52633
10.465551
10.415188
10.373057
10.336777
10.304319
10.274905
10.249715
10.230858
10.216583
10.206634
10.203739
10.205736
10.215967
10.228703
10.240138
10.248081
10.251975
10.253025
10.252651
10.25105
10.245955
10.229368
10.18382
10.112325
10.050238
10.016275
10.002049
10.00318
10.042353
1133.9521
2203.5367
1094.0061
663.21139
468.50286
328.09726
248.72221
188.36683
151.27793
122.43512
103.76279
88.702248
77.517949
68.22248
60.627008
54.240568
48.848978
44.255721
40.312391
36.901287
33.935033
31.340418
29.056442
27.034426
25.234731
23.62694
22.185382
20.890366
19.725659
18.676713
17.729818
16.873913
16.100325
15.401725
14.772013
14.205575
13.697209
13.241841
12.83504
12.473354
12.153161
11.870107
11.62098
11.403157
11.213771
11.049531
10.907915
10.786601
10.683392
10.59619
10.523066
10.462289
10.411983
10.370084
10.334289
10.302488
10.273562
10.248323
10.229323
10.21645
10.207771
10.205176
10.208951
10.218298
10.229221
10.238819
10.24509
10.247759
10.248047
10.247094
10.244636
10.237694
10.217354
10.167039
10.096525
10.041551
10.014578
10.004252
10.004844
10.035214
1173.8984
2202.618
1081.2346
659.48709
465.02507
328.5388
247.61078
188.5862
150.82695
122.61899
103.60815
88.731471
77.41817
68.132298
60.499219
54.100709
48.696913
44.097754
40.152664
36.742229
33.778667
31.188843
28.911194
26.896742
25.105087
23.505707
22.072478
20.78542
19.628289
18.586898
17.647493
16.798746
16.031901
15.339525
14.715554
14.154416
13.651037
13.200398
12.797899
12.440042
12.12357
11.844025
11.598018
11.382928
11.196139
11.034267
10.894742
10.775252
10.673629
10.587796
10.515797
10.455934
10.406384
10.365192
10.330182
10.299316
10.271349
10.246685
10.227713
10.216045
10.209155
10.207677
10.212154
10.22035
10.229611
10.237299
10.241843
10.243331
10.242896
10.241266
10.23761
10.228267
10.203667
10.148466
10.08025
10.032729
10.013594
10.009144
10.008142
10.031354
1212.056
2207.4306
1070.3396
655.92506
461.03471
328.58426
246.14895
188.64302
150.19759
122.68428
103.38376
88.688549
77.268502
67.987363
60.324935
53.916789
48.50485
43.902823
39.958987
36.552022
33.59358
31.010819
28.741519
26.736604
24.95479
23.365527
21.942264
20.664724
19.516563
18.48399
17.553295
16.712868
15.953883
15.26878
14.651537
14.096606
13.599031
13.153902
12.756483
12.403108
12.090937
11.815468
11.573133
11.361213
11.177408
11.01826
10.881139
10.763737
10.663913
10.579638
10.508917
10.450089
10.401376
10.360931
10.326712
10.296782
10.269857
10.246024
10.227247
10.216196
10.21078
10.210042
10.214247
10.221419
10.229025
10.234874
10.237886
10.238386
10.23728
10.234801
10.229557
10.217332
10.188221
10.129731
10.065778
10.025591
10.013287
10.013477
10.013519
10.026991
1248.2806
2222.6074
1060.6367
651.75121
456.12544
327.88532
243.9368
188.17227
149.15608
122.45055
102.95497
88.457458
76.971463
67.70216
60.029294
53.623137
48.214873
43.619656
39.685746
36.290016
33.343405
30.773671
28.517947
26.527304
24.759609
23.184379
21.774704
20.510068
19.373938
18.352946
17.433547
16.603857
15.85502
15.179331
14.57082
14.023951
13.53387
13.095815
12.705007
12.357462
12.050784
11.780497
11.542904
11.335053
11.155015
10.999299
10.865205
10.750432
10.652855
10.570526
10.501409
10.443882
10.396208
10.356645
10.323287
10.29432
10.268508
10.245743
10.227536
10.216504
10.212236
10.211953
10.215727
10.221741
10.227718
10.231853
10.233516
10.233126
10.231259
10.227609
10.220273
10.204679
10.171138
10.111275
10.053163
10.020563
10.012232
10.015917
10.017628
10.022687
1282.4187
2245.5703
1054.0583
648.33381
451.30916
326.5148
241.14166
187.25824
147.8064
121.95914
102.37027
88.061645
76.547818
67.294842
59.627592
53.233812
47.839317
43.259329
39.342734
35.964959
33.036005
30.484466
28.246899
26.274528
24.524716
22.966971
21.574083
20.325374
19.204035
18.1971
17.29133
16.474556
15.737935
15.073593
14.475623
13.938495
13.457433
13.027834
12.645
12.304533
12.004394
11.740231
11.508313
11.305313
11.129699
10.978
10.847448
10.735746
10.640768
10.560687
10.493418
10.437393
10.390909
10.352326
10.319877
10.291883
10.267181
10.245569
10.228107
10.216962
10.213339
10.213366
10.216564
10.221326
10.225687
10.228271
10.228743
10.227465
10.224609
10.219344
10.209388
10.190114
10.152695
10.093578
10.042524
10.016625
10.010657
10.01694
10.021486
10.017629
1314.3817
2274.4127
1052.2087
645.27575
446.86394
324.47314
237.95324
185.92392
146.22424
121.21392
101.64072
87.499885
75.99439
66.76403
59.11747
52.746805
47.376086
42.819857
38.927778
35.574669
32.669318
30.141225
27.926637
25.976174
24.248152
22.711518
21.338782
20.109194
19.005593
18.015363
17.125712
16.324175
15.60197
14.951029
14.365517
13.839907
13.369485
12.94978
12.576313
12.24437
11.95185
11.694734
11.469421
11.272075
11.10152
10.954396
10.827871
10.719661
10.627604
10.550042
10.484837
10.430483
10.385316
10.347795
10.316296
10.289275
10.265666
10.245216
10.228635
10.217561
10.213914
10.214151
10.216663
10.220169
10.22302
10.224215
10.223573
10.221272
10.217051
10.209643
10.196604
10.173592
10.133218
10.076831
10.033409
10.013333
10.009156
10.017014
10.023728
10.010828
1344.2773
2306.6867
1052.8886
642.0485
442.5321
321.78509
235.12718
184.28955
144.64396
120.24277
100.78859
86.782683
75.314711
66.114061
58.500947
52.163242
46.825479
42.301243
38.439823
35.117796
32.241961
29.742546
27.55602
25.629149
23.926906
22.415201
21.066193
19.859163
18.776513
17.805877
16.935068
16.1513
15.445918
14.810619
14.239647
13.727481
13.269461
12.86121
12.498507
12.177235
11.893439
11.64425
11.426425
11.235622
11.070712
10.928661
10.806606
10.702266
10.613402
10.538585
10.475615
10.423068
10.379315
10.342919
10.312401
10.286352
10.263801
10.24448
10.228859
10.218126
10.21407
10.214191
10.215959
10.218258
10.219736
10.21965
10.217846
10.214237
10.208156
10.198077
10.181652
10.155127
10.112953
10.061
10.025332
10.01029
10.007738
10.016344
10.024139
10.006454
1372.2428
2340.0033
1053.1822
638.1089
437.92994
318.37458
231.69435
182.30973
142.72967
119.07063
99.817056
85.913577
74.504441
65.34254
57.774612
51.478641
46.182757
41.699107
37.871449
34.5868
31.746628
29.281467
27.128872
25.234582
23.562647
22.080084
20.758627
19.577728
18.519338
17.571206
16.721929
15.958407
15.272182
14.654673
14.100216
13.603295
13.159311
12.763973
12.413129
12.102643
11.828817
11.588501
11.379025
11.196138
11.037435
10.900892
10.783773
10.683635
10.598201
10.526309
10.46571
10.41507
10.372806
10.337579
10.308063
10.282978
10.261434
10.243162
10.228475
10.218243
10.213616
10.213365
10.214392
10.215546
10.215748
10.214391
10.211233
10.205893
10.197412
10.184233
10.164352
10.134818
10.092121
10.04594
10.017734
10.006611
10.006334
10.015759
10.024141
10.001519
1398.3705
2372.4803
1046.0921
632.97525
431.53403
314.35593
227.24971
179.8208
140.66421
117.72283
98.716158
84.888902
73.555765
64.441965
56.930754
50.680392
45.434252
41.000296
37.221383
33.982976
31.186177
28.761907
26.648979
24.791776
23.154915
21.70582
20.415868
19.264815
18.234161
17.311585
16.486573
15.74586
15.081213
14.483713
13.947796
13.467952
13.039637
12.658651
12.321001
12.02262
11.759736
11.529071
11.328454
11.153355
11.001494
10.87086
10.759442
10.663803
10.582049
10.513217
10.455092
10.406431
10.365709
10.331677
10.303164
10.279019
10.258413
10.241081
10.227245
10.217486
10.212379
10.211536
10.211813
10.211863
10.210807
10.208059
10.203217
10.19565
10.184287
10.167781
10.144658
10.112873
10.070944
10.031455
10.010107
10.002891
10.004846
10.015237
10.025451
9.9963904
1422.8052
2402.8349
1037.084
626.6922
423.51808
309.97795
222.36286
177.15066
138.53432
116.18802
97.471821
83.700876
72.456541
63.391611
55.946705
49.763894
44.5817
40.209314
36.487926
33.304687
30.55901
28.182349
26.115291
24.300957
22.704157
21.292985
20.038676
18.921342
17.922065
17.028271
16.230021
15.514713
14.874107
14.298858
13.78351
13.322554
12.911508
12.546242
12.222938
11.937622
11.686614
11.466448
11.275315
11.108653
10.96404
10.839431
10.733359
10.642512
10.56495
10.499273
10.443738
10.397103
10.357953
10.325115
10.297575
10.274316
10.254556
10.238029
10.224887
10.215489
10.21014
10.208485
10.207962
10.20689
10.20448
10.20009
10.193144
10.182884
10.168336
10.14856
10.122708
10.089654
10.049729
10.017496
10.002494
9.9990678
10.002984
10.014045
10.025693
9.9932034
1445.669
2431.8371
1023.8985
619.15036
413.85654
305.21827
217.30806
174.20856
136.38135
114.47705
96.056431
82.319898
71.169024
62.185654
54.826717
48.726271
43.621665
39.32311
35.669818
32.550958
29.864895
27.542969
25.528096
23.762509
22.211129
20.842132
19.627791
18.548229
17.584125
16.722653
15.952389
15.265104
14.65105
14.100347
13.60763
13.167384
12.775208
12.427017
12.119205
11.847916
11.609594
11.40134
11.220112
11.06223
10.925236
10.806964
10.706406
10.620346
10.546645
10.484218
10.431573
10.387027
10.349457
10.317784
10.291146
10.268679
10.249641
10.233755
10.221119
10.211954
10.206381
10.20391
10.202466
10.200152
10.196176
10.189805
10.180352
10.16709
10.149335
10.126664
10.098852
10.065651
10.028985
10.004268
9.9950751
9.9951822
10.000547
10.011007
10.018794
9.9905704
1467.229
2460.0323
1006.5995
610.12234
403.34774
300.03442
212.18935
171.06892
134.19255
112.568
94.402943
80.729835
69.699102
60.81859
53.56465
47.564089
42.55174
38.339884
34.765962
31.721173
29.103639
26.844161
24.887583
23.176962
21.676919
20.352675
19.182748
18.145197
17.220165
16.395082
15.658506
15.001784
14.416621
13.892577
13.424331
13.006334
12.634327
12.304235
12.012702
11.756085
11.53075
11.333727
11.162838
11.014058
10.884978
10.773689
10.678595
10.597394
10.527741
10.468445
10.418301
10.376081
10.340111
10.30955
10.283695
10.261874
10.243404
10.227978
10.215662
10.206574
10.200693
10.197414
10.194855
10.19108
10.185252
10.176566
10.164342
10.148045
10.127405
10.102514
10.073648
10.04129
10.00959
9.9922908
9.9883019
9.9916088
9.9975291
10.00577
10.011846
9.9881821
1487.7515
2483.8065
984.98644
600.68592
392.4344
294.47224
207.09163
167.73652
131.89414
110.36469
92.495429
78.920704
68.034472
59.282612
52.154716
46.272731
41.368694
37.257486
33.775275
30.81431
28.274937
26.08654
24.192115
22.542774
21.100796
19.830725
18.710249
17.719273
16.837384
16.05212
15.35186
14.72816
14.173626
13.678047
13.235841
12.841349
12.490556
12.179353
11.904624
11.663084
11.45119
11.265868
11.105303
10.965641
10.844379
10.739429
10.649778
10.573357
10.508112
10.452037
10.404252
10.363919
10.329725
10.300237
10.275011
10.253638
10.235551
10.220394
10.208204
10.199017
10.192697
10.188546
10.184625
10.179133
10.171181
10.159979
10.144981
10.125961
10.103095
10.076906
10.047999
10.017535
9.992865
9.982494
9.9831527
9.9892341
9.9954141
10.001696
10.005875
9.986942
1507.4787
2498.6009
959.02315
590.55663
381.1375
288.57817
202.09985
164.13731
129.36346
107.87609
90.30654
76.875252
66.16299
57.567786
50.589616
44.847119
40.069551
36.073389
32.696835
29.826917
27.375591
25.268133
23.44978
21.869429
20.492166
19.2817
18.215793
17.275358
16.440389
15.698295
15.037259
14.448784
13.924857
13.459023
13.044037
12.673939
12.345093
12.053343
11.795715
11.569425
11.371044
11.198234
11.047867
10.917184
10.803797
10.705344
10.620908
10.54887
10.487397
10.434898
10.389448
10.350745
10.317872
10.28958
10.264853
10.243689
10.225771
10.210687
10.198435
10.188971
10.182057
10.176912
10.171398
10.163976
10.153767
10.140096
10.12265
10.10156
10.077402
10.051037
10.023467
9.9968334
9.9803548
9.975967
9.9807724
9.9890833
9.9958509
10.001217
10.002521
9.986724
1526.6301
2495.5604
928.95185
579.81863
369.5093
282.35676
197.21074
160.14176
126.51981
105.05682
87.8064
74.570778
64.068541
55.662855
48.861723
43.281397
38.651196
34.781211
31.525732
28.767325
26.41761
24.401946
22.668158
21.164725
19.858507
18.713736
17.707376
16.819336
16.034313
15.33801
14.718256
14.167169
13.677002
13.24138
12.854142
12.508728
12.201992
11.929811
11.689142
11.477929
11.292479
11.130798
10.990492
10.868538
10.762849
10.671382
10.592076
10.524214
10.466076
10.416578
10.373744
10.336512
10.304604
10.277093
10.252922
10.23175
10.213771
10.198583
10.186107
10.176223
10.168567
10.16231
10.155075
10.145676
10.133318
10.117532
10.098295
10.07607
10.051749
10.026494
10.001851
9.9817929
9.9734139
9.9736007
9.9815136
9.9913807
9.9988661
10.003582
10.002092
9.9868241
1545.3894
2453.5686
895.85496
568.48988
357.61393
275.72498
192.11125
155.72535
123.24495
101.85865
84.96093
71.982205
61.734807
53.55773
46.963907
41.565445
37.105482
33.392075
30.277805
27.646099
25.411956
23.499511
21.859425
20.44071
19.209072
18.134741
17.192604
16.362832
15.629842
14.981123
14.403845
13.89068
13.434228
13.028619
12.668736
12.347746
12.06277
11.809977
11.585986
11.389465
11.216705
11.065723
10.934902
10.821202
10.7225
10.63711
10.563312
10.499437
10.444311
10.397372
10.356639
10.321033
10.289787
10.262714
10.238764
10.217589
10.199344
10.183918
10.171125
10.160763
10.152309
10.144884
10.135995
10.124817
10.11071
10.093466
10.073353
10.051118
10.027923
10.005231
9.9852288
9.9741708
9.9713868
9.9743245
9.9851176
9.9954872
10.003078
10.006817
10.001815
9.9886462
1563.6468
2413.3685
862.61305
556.54733
345.4586
268.13829
186.88153
150.78242
119.41987
98.222
81.734066
69.084576
59.145617
51.243347
44.882774
39.710232
35.4534
31.92079
28.969069
26.481236
24.375936
22.57784
21.036526
19.709633
18.560815
17.560553
16.685063
15.914963
15.234753
14.633767
14.099088
13.623703
13.200678
12.824254
12.489504
12.192162
11.928103
11.694116
11.487257
11.30474
11.144222
11.003367
10.88133
10.775399
10.683257
10.603332
10.534099
10.474138
10.422122
10.377312
10.338273
10.303834
10.273254
10.246278
10.222346
10.201052
10.182448
10.166744
10.153643
10.14289
10.133771
10.125212
10.114982
10.102491
10.087305
10.06948
10.049551
10.028506
10.007768
9.9891921
9.9762648
9.9720863
9.9714287
9.9793072
9.9906589
10.000404
10.007169
10.009363
10.00287
9.991046
1580.9046
2373.3168
828.55276
543.65305
332.93271
259.35385
181.32382
145.19346
114.93218
94.084191
78.091231
65.856037
56.281098
48.704015
42.643039
37.737571
33.718357
30.393295
27.624407
25.296563
23.32813
21.65435
20.222638
18.991668
17.92786
17.003228
16.194967
15.484669
14.856656
14.300825
13.807659
13.368852
12.978104
12.630214
12.32074
12.045634
11.801243
11.584443
11.39259
11.223334
11.07456
10.944182
10.830225
10.731396
10.6453
10.570404
10.505287
10.448675
10.399393
10.356341
10.318588
10.284996
10.254851
10.227713
10.203595
10.182071
10.163287
10.147406
10.134146
10.123227
10.11383
10.104297
10.093261
10.080143
10.064721
10.047278
10.028584
10.009847
9.9927274
9.9794395
9.9737797
9.9721878
9.976406
9.9866725
9.9969132
10.005306
10.010669
10.011343
10.004309
9.9940789
1596.4656
2304.5347
792.89521
529.27525
319.25299
249.21575
175.11671
138.81641
109.67918
89.384805
74.005234
62.275738
53.157541
45.987154
40.280519
35.685826
31.938158
28.844381
26.271458
24.116932
22.299321
20.755514
19.436345
18.302987
17.324246
16.474262
15.731352
15.077508
14.500642
13.98961
13.535797
13.131673
12.771302
12.449908
12.163638
11.9091
11.682991
11.482283
11.304504
11.147344
11.008912
10.887565
10.781877
10.689412
10.608749
10.538354
10.47685
10.423013
10.37576
10.334438
10.297526
10.264381
10.234372
10.207161
10.182812
10.161139
10.142338
10.126566
10.11347
10.102678
10.093336
10.083446
10.072271
10.05932
10.044539
10.028381
10.011789
9.9961236
9.9832351
9.9764847
9.9745756
9.9772494
9.9849637
9.9944223
10.002833
10.009411
10.013281
10.013401
10.006571
9.9976413
1609.2858
2236.0057
754.63982
512.8162
304.79455
237.53621
167.7755
131.48103
103.58184
84.091668
69.468094
58.383482
49.836362
43.151532
37.854842
33.608091
30.159259
27.31131
24.951161
22.97724
21.313768
19.901781
18.695128
17.657752
16.761241
15.982487
15.300547
14.701678
14.172573
13.703031
13.285743
12.913759
12.581598
12.284768
12.019728
11.783686
11.574103
11.387917
11.222974
11.077032
10.94818
10.83545
10.736376
10.649638
10.57373
10.507264
10.448902
10.397483
10.352009
10.311613
10.275236
10.242257
10.212227
10.184939
10.160477
10.138884
10.120385
10.105129
10.092707
10.082548
10.07357
10.064026
10.053442
10.041444
10.028093
10.013935
9.9999969
9.9878222
9.9804075
9.9781666
9.9797885
9.9854819
9.993668
10.001479
10.007451
10.011952
10.014457
10.015172
10.009771
10.001654
1616.62
2152.5754
713.58826
492.5489
289.30277
224
158.80766
123.04372
96.636946
78.249924
64.562705
54.287683
46.4151
40.2845
35.441033
31.566499
28.42787
25.841222
23.697191
21.904707
20.393618
19.110148
18.012159
17.066589
16.2474
15.533981
14.909701
14.36062
13.875449
13.443745
13.059492
12.716549
12.409968
12.135603
11.889993
11.670437
11.47553
11.302158
11.148497
11.012656
10.892776
10.787064
10.694037
10.612268
10.540413
10.477232
10.421487
10.371898
10.327881
10.288127
10.251996
10.218992
10.188881
10.161676
10.137356
10.116208
10.09845
10.084153
10.072936
10.064034
10.055766
10.047277
10.037987
10.027634
10.016333
10.004648
9.993749
9.9862743
9.9832684
9.9836037
9.9874406
9.9941154
10.00166
10.006873
10.010316
10.012981
10.014498
10.014819
10.012174
10.00519
1613.3704
2050.7195
669.20175
466.12601
272.59562
208.24459
147.95893
113.52369
88.994293
71.986734
59.477212
50.138302
43.015421
37.483357
33.117995
29.626314
26.798469
24.47189
22.539671
20.921956
19.5557
18.39299
17.396318
16.536143
15.789067
15.136543
14.56379
14.058716
13.611312
13.213473
12.858495
12.541161
12.257095
12.002692
11.774897
11.571081
11.38899
11.226757
11.08259
10.954892
10.842141
10.742761
10.654982
10.577543
10.509109
10.448527
10.39501
10.347008
10.303691
10.264347
10.228357
10.195303
10.165292
10.13822
10.114402
10.094134
10.077648
10.064776
10.055139
10.047819
10.040945
10.034095
10.026698
10.018508
10.00964
10.000794
9.9939413
9.9904603
9.9897676
9.9918168
9.9963406
10.002317
10.007025
10.009809
10.011475
10.012238
10.012505
10.012089
10.009613
10.003774
1593.1419
1920.5256
621.70011
432.86473
254.68186
190.05453
135.44748
103.24738
81.008279
65.634032
54.437751
46.104739
39.763482
34.843311
30.958807
27.844912
25.315562
23.236211
21.502793
20.046772
18.812974
17.759561
16.853856
16.070001
15.387283
14.789056
14.262128
13.796333
13.382778
13.014332
12.684826
12.389651
12.124891
11.887342
11.674301
11.483448
11.312743
11.160347
11.024586
10.903912
10.796968
10.702893
10.619552
10.545777
10.480334
10.422066
10.369913
10.322903
10.280075
10.240879
10.205062
10.172152
10.142253
10.115643
10.092691
10.073773
10.058924
10.048009
10.040411
10.034649
10.029687
10.024888
10.019747
10.013983
10.007747
10.002449
9.9992408
9.9978876
9.9985146
10.000888
10.004152
10.007064
10.008988
10.009904
10.00981
10.009055
10.008004
10.006862
10.005315
10.002271
1547.225
1762.1603
572.28906
393.58872
236.47728
169.70407
121.96671
92.848898
73.146684
59.524954
49.674857
42.350665
36.778251
32.450375
29.025628
26.270042
24.02023
22.160113
20.605381
19.292907
18.175642
17.217518
16.390459
15.672247
15.044994
14.49397
14.006325
13.573883
13.188738
12.845303
12.537418
12.261047
12.012679
11.789439
11.588891
11.408944
11.247755
11.103662
10.975137
10.860748
10.759142
10.669024
10.589119
10.51801
10.454593
10.39775
10.346531
10.300297
10.257923
10.218963
10.183124
10.150388
10.120927
10.095081
10.07337
10.055971
10.043
10.034183
10.028766
10.024922
10.0221
10.019507
10.016643
10.01337
10.01047
10.008629
10.007473
10.007001
10.007143
10.007698
10.008242
10.008347
10.008192
10.007162
10.005864
10.004355
10.002899
10.001842
10.001238
10.00055
1467.2991
1601.4394
521.99792
353.23983
211.99111
149.96628
108.48034
83.035002
65.879737
53.98211
45.408812
39.033939
34.172128
30.381696
27.367796
24.92966
22.927385
21.261528
19.860191
18.670626
17.652354
16.774552
16.013058
15.348712
14.766089
14.252636
13.798035
13.393759
13.032895
12.7097
12.419408
12.158276
11.923151
11.71143
11.520902
11.349653
11.195986
11.05835
10.935296
10.825454
10.72753
10.640362
10.563164
10.494166
10.432375
10.376734
10.326312
10.280307
10.23809
10.199194
10.163496
10.131103
10.102417
10.077676
10.057329
10.041658
10.030668
10.023944
10.020267
10.018397
10.017672
10.017217
10.016493
10.016118
10.016754
10.016895
10.016632
10.015766
10.014306
10.012317
10.009929
10.007355
10.004849
10.002622
10.000698
9.9990626
9.9978693
9.9974582
9.9980194
9.9992819
1355.1255
1519.34
474.85551
304.81326
187.61318
131.4185
96.282843
74.345884
59.591508
49.305358
41.862326
36.309777
32.052151
28.710354
26.03431
23.854477
22.052723
20.544506
19.266994
18.176617
17.238444
16.425862
15.717844
15.097579
14.551444
14.068323
13.639037
13.256049
12.913255
12.606075
12.329445
12.080096
11.85514
11.652205
11.46927
11.304584
11.156587
11.023854
10.905049
10.798892
10.704136
10.61954
10.543867
10.476061
10.415037
10.359821
10.309551
10.263553
10.22148
10.182752
10.147395
10.11559
10.087692
10.064118
10.045221
10.031188
10.021931
10.016913
10.014611
10.0143
10.015218
10.016669
10.018784
10.021632
10.02391
10.025116
10.024816
10.022905
10.019519
10.015025
10.009982
10.005058
10.000831
9.9976138
9.995417
9.9941108
9.9936764
9.9942693
9.9959958
9.9985967
1222.2204
1282.3365
433.88224
261.66508
164.92521
115.94907
86.193346
67.329676
54.618966
45.697801
39.193697
34.297737
30.509108
27.508699
25.085502
23.095873
21.439265
20.043581
18.855949
17.836753
16.955868
16.189816
15.519997
14.931388
14.411662
13.950587
13.539866
13.172549
12.842911
12.546234
12.278654
12.036947
11.818459
11.620964
11.442565
11.281616
11.136644
11.006297
10.889311
10.78449
10.690741
10.607258
10.532339
10.46503
10.404279
10.349152
10.298827
10.252659
10.210222
10.171344
10.136088
10.104718
10.077604
10.055113
10.037496
10.024801
10.016813
10.012834
10.011272
10.011834
10.013906
10.017264
10.022164
10.026699
10.029993
10.031442
10.030739
10.027864
10.023033
10.016726
10.009723
10.002981
9.9973622
9.9933775
9.9910779
9.9902363
9.990648
9.992211
9.9948545
9.9982571
1102.6086
1136.5864
400.47673
230.35248
147.96359
104.58847
78.729061
62.219844
51.062764
43.165626
37.34994
32.930584
29.479158
26.722496
24.478727
22.623236
21.068197
19.750232
18.622606
17.65016
16.805921
16.068797
15.421997
14.852034
14.348386
13.900332
13.500376
13.141944
12.819648
12.529015
12.266357
12.028634
11.813326
11.618325
11.441839
11.282307
11.138334
11.008634
10.891994
10.787247
10.693256
10.608911
10.533138
10.464881
10.403148
10.347034
10.295766
10.248754
10.205637
10.166308
10.130891
10.099679
10.073035
10.051267
10.0345
10.022588
10.015112
10.011321
10.009852
10.010142
10.012743
10.018131
10.024672
10.030033
10.033491
10.034785
10.033888
10.030724
10.025219
10.017848
10.009619
10.001701
9.995173
9.9907035
9.9883467
9.9877828
9.9887691
9.9911217
9.9943619
9.9981207
1047.5385
1098.4614
375.68032
212.94323
136.88124
96.904879
73.179657
58.161382
48.03153
40.853519
35.552548
31.506161
28.332558
25.787224
23.707387
21.981142
20.529399
19.29492
18.235413
17.319018
16.521281
15.823062
15.209075
14.666877
14.186166
13.758332
13.376103
13.033373
12.725023
12.446794
12.195157
11.967198
11.760505
11.573067
11.403181
11.249375
11.110338
10.984866
10.871823
10.770108
10.678646
10.596376
10.52226
10.455303
10.394579
10.339269
10.2887
10.242376
10.2
10.161481
10.126921
10.096574
10.070774
10.049856
10.033948
10.022776
10.015734
10.011633
10.009492
10.009073
10.009914
10.018323
10.0272
10.032902
10.035794
10.036305
10.035984
10.033235
10.027078
10.018851
10.009936
10.001392
9.9943577
9.9895842
9.9872449
9.9866602
9.9869708
9.990435
9.9942272
9.9980718
28257.164
78027.87
34660.153
9600.9106
1256.8864
589.90915
421.18513
337.3487
278.31031
226.36881
185.92809
154.63566
131.31941
113.41091
99.429404
88.310113
79.108651
71.174927
64.277556
58.309364
53.130844
48.602956
44.616831
41.088373
37.954538
35.152859
32.639794
30.376911
28.3338
26.486227
24.813039
23.295296
21.916804
20.66358
19.524781
18.490959
17.553441
16.704455
15.936923
15.244563
14.621824
14.062934
13.562789
13.116915
12.720783
12.370001
12.060641
11.78865
11.550359
11.342382
11.161531
11.004956
10.870112
10.754895
10.657348
10.57575
10.507978
10.452264
10.407877
10.376779
10.363667
10.360064
10.359012
10.356711
10.349677
10.334974
10.313141
10.289167
10.270266
10.260557
10.262191
10.268155
10.281894
10.293511
10.262404
10.292928
10.218473
10.264743
10.077874
10.169285
22485.873
52626.708
21265.186
4313.6678
922.82628
510.44581
385.68034
307.89305
253.14782
204.11552
169.26994
141.68389
121.69545
105.93272
93.589873
83.62944
75.204549
67.847107
61.457172
55.927333
51.107192
46.872172
43.129835
39.806692
36.84286
34.187046
31.799421
29.643998
27.693931
25.927281
24.32442
22.867829
21.54267
20.336108
19.238417
18.240772
17.33506
16.514047
15.771104
15.100369
14.496616
13.954296
13.468643
13.03542
12.650254
12.308957
12.007798
11.74286
11.510662
11.307986
11.131813
10.979477
10.848572
10.737169
10.643086
10.564235
10.498718
10.444813
10.401806
10.372709
10.361275
10.357884
10.356083
10.351932
10.342192
10.324959
10.30213
10.279439
10.26337
10.25699
10.261058
10.269517
10.282912
10.294031
10.265767
10.291896
10.220272
10.260577
10.079853
10.164204
32367.133
28317.115
10916.669
2134.3251
791.88402
482.85074
376.19026
292.78794
241.25971
193.42529
162.39867
135.82234
117.43232
102.33632
90.709446
81.196726
73.078914
65.98707
59.853001
54.539697
49.897341
45.813423
42.201475
38.990876
36.122541
33.550897
31.237286
29.146594
27.253883
25.538011
23.98001
22.563068
21.273048
20.097666
19.027819
18.054942
17.171244
16.369799
15.644224
14.988902
14.398799
13.868492
13.393444
12.969557
12.592557
12.258404
11.963505
11.704038
11.476669
11.278307
11.106069
10.95742
10.830078
10.722134
10.631311
10.555195
10.491585
10.439071
10.397029
10.369596
10.359078
10.355588
10.352617
10.346278
10.333831
10.314529
10.291441
10.270595
10.257508
10.254398
10.260326
10.27106
10.284012
10.294503
10.269135
10.290893
10.221757
10.255819
10.081734
10.159033
38650.987
22184.811
7362.843
1386.901
729.51716
461.45295
364.26337
277.40203
231.61098
183.77474
156.25837
130.16011
113.45391
98.899418
88.005121
78.885704
71.065534
64.23342
58.338771
53.224338
48.747434
44.804781
41.314346
38.208563
35.431501
32.936915
30.692238
28.662387
26.823857
25.156105
23.640802
22.261772
21.005502
19.860207
18.817361
17.868594
17.006424
16.224196
15.51575
14.875692
14.299161
13.78085
13.316447
12.901974
12.533257
12.2064
11.917947
11.664164
11.441868
11.24809
11.080069
10.935388
10.811908
10.707531
10.61996
10.546727
10.485225
10.433956
10.392704
10.366736
10.356767
10.352925
10.348422
10.339681
10.324671
10.303815
10.281136
10.262543
10.252526
10.252864
10.260153
10.272068
10.285173
10.294894
10.272424
10.290039
10.223049
10.250212
10.083576
10.153702
42120.412
20058.59
5371.6332
1174.5777
702.50714
442.51511
355.60482
266.25279
225.06277
176.53516
152.00165
125.82009
110.53875
96.220141
85.910735
77.034615
69.436595
62.805485
57.094745
52.131976
47.783219
43.951473
40.557423
37.535607
34.831902
32.402527
30.212855
28.233552
26.440477
24.813419
23.334519
21.988078
20.761052
19.642024
18.622934
17.695506
16.852523
16.087536
15.394555
14.768369
14.204249
13.696978
13.242445
12.836763
12.475839
12.155915
11.87365
11.625384
11.408078
11.218863
11.055085
10.914424
10.79479
10.693941
10.60952
10.538902
10.479526
10.429465
10.388795
10.363985
10.354351
10.349766
10.343406
10.332179
10.314888
10.293074
10.271438
10.255383
10.248471
10.251709
10.260555
10.273272
10.286355
10.295155
10.27565
10.289353
10.223937
10.243779
10.085317
10.148206
44563.243
18778.42
4206.1306
1112.4977
685.38482
427.13653
349.51444
257.81669
220.24583
170.84647
148.6853
122.22065
108.1758
93.964339
84.153493
75.443879
68.034122
61.571563
56.011778
51.174088
46.93259
43.194317
39.881928
36.931657
34.29097
31.917289
29.775926
27.840694
26.087414
24.496241
23.049644
21.732295
20.531535
19.436232
18.438733
17.530791
16.705437
15.956381
15.277771
14.664551
14.112099
13.615271
13.170142
12.77289
12.419497
12.106332
11.830152
11.587363
11.375055
11.190449
11.030985
10.894445
10.778567
10.681161
10.599733
10.531541
10.473987
10.425272
10.385056
10.361123
10.351667
10.345958
10.337507
10.323844
10.304674
10.282529
10.262481
10.249131
10.245347
10.250642
10.26138
10.274723
10.287511
10.295276
10.278776
10.288871
10.224259
10.236539
10.086891
10.142479
46421.784
16678.572
3416.015
1071.3963
673.25966
416.26203
344.57129
251.30938
216.43308
166.41938
146.05203
119.27209
106.25493
92.084841
82.672128
74.074142
66.824287
60.502473
55.066446
50.332267
46.180578
42.521064
39.277907
36.388674
33.802058
31.476577
29.378693
27.480718
25.762129
24.202584
22.784654
21.49328
20.316105
19.242228
18.264345
17.374191
16.565028
15.830687
15.165429
14.564327
14.022847
13.535902
13.099738
12.710575
12.364464
12.057888
11.787688
11.550319
11.342998
11.163025
11.007953
10.875383
10.763197
10.669095
10.590456
10.52445
10.468497
10.420984
10.381289
10.358029
10.348537
10.341393
10.330728
10.314812
10.29425
10.2724
10.254368
10.243808
10.243249
10.250201
10.262504
10.276263
10.288578
10.295269
10.281733
10.288591
10.223898
10.228408
10.088086
10.136377
47793.809
14075.953
2913.8365
1046.6387
663.66369
407.70915