/*--------------------------------*- C++ -*----------------------------------*\
  =========                 |
  \\      /  F ield         | OpenFOAM: The Open Source CFD Toolbox
   \\    /   O peration     | Website:  https://openfoam.org
    \\  /    A nd           | Version:  12
     \\/     M anipulation  |
\*---------------------------------------------------------------------------*/
FoamFile
{
    format      ascii;
    class       volScalarField;
    location    "0.033";
    object      rho;
}
// * * * * * * * * * * * * * * * * * * * * * * * * * * * * * * * * * * * * * //

dimensions      [1 -3 0 0 0 0 0];

internalField   nonuniform List<scalar> 
16000
(
1.0553141
1.0877324
1.0758102
1.0839907
1.0801985
1.083626
1.0826496
1.0844766
1.0846145
1.0858208
1.0864606
1.0874676
1.0883328
1.0893172
1.0902986
1.0913308
1.0923937
1.0934951
1.0946333
1.0958093
1.0970231
1.0982748
1.0995645
1.1008919
1.1022564
1.1036575
1.1050943
1.1065654
1.1080695
1.1096049
1.1111695
1.1127611
1.114377
1.1160144
1.1176704
1.1193415
1.1210242
1.1227148
1.1244095
1.1261043
1.1277951
1.1294777
1.1311482
1.1328024
1.1344364
1.1360463
1.1376282
1.1391785
1.1406935
1.1421693
1.143602
1.1449876
1.1463217
1.1475994
1.1488151
1.1499625
1.1510337
1.1520211
1.1529153
1.1537064
1.154383
1.154933
1.1553455
1.155605
1.1556903
1.1555962
1.1553168
1.1548652
1.1542767
1.1536168
1.1529897
1.1525353
1.1523912
1.1526723
1.1535146
1.1551819
1.1579516
1.1612871
1.1629287
1.1644357
1.052253
1.0852233
1.072661
1.081437
1.0774248
1.0811172
1.080046
1.0820393
1.0821753
1.0834823
1.0841756
1.0852581
1.0861983
1.0872578
1.0883205
1.0894343
1.0905829
1.0917721
1.093001
1.0942702
1.0955795
1.0969291
1.0983185
1.0997472
1.1012145
1.1027193
1.1042601
1.1058356
1.1074436
1.109082
1.1107482
1.1124394
1.1141525
1.1158841
1.1176306
1.1193882
1.1211527
1.12292
1.1246857
1.1264456
1.1281952
1.12993
1.131646
1.1333387
1.1350044
1.1366389
1.1382387
1.1398001
1.1413196
1.1427937
1.1442188
1.1455911
1.1469065
1.1481606
1.1493481
1.1504629
1.1514973
1.1524432
1.1532909
1.1540298
1.1546482
1.1551344
1.1554792
1.1556673
1.155687
1.1555364
1.1552161
1.1547442
1.1541592
1.1535272
1.1529504
1.1525635
1.1525016
1.1528903
1.1538818
1.1557046
1.1585125
1.1616492
1.1631192
1.1645662
1.0494884
1.0829457
1.0700856
1.0791063
1.0749495
1.0788462
1.0777474
1.0798626
1.08004
1.0814324
1.0821995
1.0833598
1.084386
1.0855286
1.086682
1.0878872
1.0891313
1.0904186
1.0917483
1.0931208
1.0945357
1.0959926
1.097491
1.0990298
1.1006078
1.1022236
1.1038753
1.1055609
1.1072777
1.1090231
1.1107939
1.1125867
1.1143978
1.1162231
1.1180584
1.1198993
1.1217413
1.1235796
1.1254095
1.1272264
1.1290255
1.1308023
1.1325525
1.1342718
1.1359562
1.1376021
1.1392058
1.140764
1.1422735
1.143731
1.1451333
1.1464769
1.147758
1.1489724
1.1501152
1.1511806
1.152162
1.15305
1.1538351
1.1545066
1.1550517
1.1554608
1.1557245
1.1558282
1.1557693
1.1555487
1.1551759
1.1546758
1.154092
1.1534924
1.1529761
1.15267
1.1527086
1.1532248
1.1543768
1.1563338
1.1591092
1.1620488
1.1633523
1.1646681
1.0470295
1.0808855
1.0675906
1.0770223
1.0727282
1.0768498
1.0757326
1.0779842
1.0782131
1.0797019
1.0805562
1.0818047
1.0829309
1.0841692
1.0854266
1.0867364
1.088089
1.089487
1.0909299
1.0924175
1.0939492
1.0955242
1.0971416
1.0987999
1.1004975
1.1022324
1.1040022
1.1058041
1.1076351
1.1094916
1.1113699
1.1132658
1.1151748
1.1170923
1.1190134
1.120933
1.1228461
1.1247474
1.1266319
1.1284946
1.1303308
1.1321357
1.1339051
1.1356349
1.1373213
1.138961
1.1405506
1.1420873
1.1435681
1.1449903
1.1463511
1.1476473
1.1488755
1.1500319
1.151112
1.1521102
1.1530208
1.1538346
1.1545417
1.1551319
1.155592
1.1559162
1.1560922
1.1561092
1.1559701
1.1556796
1.155255
1.1547282
1.1541483
1.1535849
1.1531331
1.1529115
1.1530515
1.1536939
1.1549846
1.1570193
1.1597279
1.1624641
1.1636302
1.164752
1.0448892
1.0791469
1.0654766
1.0752032
1.0708017
1.0751746
1.0740597
1.0764497
1.0767508
1.0783427
1.0793034
1.0806508
1.0818922
1.0832392
1.0846131
1.0860397
1.0875121
1.0890319
1.0905986
1.0922115
1.0938699
1.0955727
1.0973184
1.099105
1.1009304
1.1027918
1.1046862
1.10661
1.1085593
1.1105299
1.1125169
1.1145154
1.1165202
1.1185259
1.1205267
1.1225171
1.1244915
1.1264443
1.1283702
1.130264
1.132121
1.1339367
1.1357071
1.1374283
1.1390971
1.1407106
1.142266
1.1437609
1.1451932
1.1465606
1.1478606
1.1490907
1.1502478
1.1513286
1.1523287
1.153243
1.1540657
1.1547886
1.1554037
1.1558975
1.1562615
1.1564914
1.1565715
1.1564979
1.1562759
1.1559152
1.1554398
1.1548882
1.1543146
1.1537906
1.1534078
1.1532769
1.1535248
1.1542892
1.1556848
1.1577448
1.1603636
1.1628861
1.1639429
1.1648203
1.0431253
1.0777598
1.0637599
1.0738126
1.0693059
1.0738913
1.0727875
1.0753228
1.0757205
1.0774242
1.0785086
1.0799627
1.0813295
1.082794
1.0842931
1.0858458
1.0874476
1.0890992
1.0908001
1.0925492
1.0943454
1.0961867
1.0980712
1.0999961
1.1019584
1.1039545
1.1059803
1.1080312
1.1101024
1.1121885
1.1142838
1.1163824
1.118478
1.1205646
1.1226358
1.1246853
1.1267073
1.1286959
1.1306457
1.1325516
1.1344092
1.1362144
1.1379636
1.1396536
1.1412819
1.1428463
1.1443449
1.145776
1.147138
1.1484295
1.1496486
1.1507932
1.1518607
1.1528481
1.1537513
1.1545661
1.1552856
1.1559042
1.1564117
1.1567957
1.1570574
1.1571828
1.1571608
1.1569943
1.1566893
1.1562611
1.1557392
1.1551673
1.1546038
1.1541222
1.1538107
1.1537727
1.1541277
1.1549979
1.1564593
1.1585084
1.161015
1.1632869
1.1642157
1.1648933
1.0417762
1.0767735
1.0624712
1.0728315
1.0682782
1.0730517
1.0719707
1.0746662
1.0751778
1.0769857
1.0782004
1.0797626
1.0812623
1.0828539
1.0844892
1.086181
1.0879261
1.0897243
1.0915744
1.0934747
1.0954232
1.0974171
1.0994535
1.1015285
1.1036379
1.1057771
1.1079406
1.1101229
1.1123177
1.1145185
1.1167185
1.1189107
1.1210882
1.1232438
1.1253709
1.1274628
1.1295133
1.1315167
1.1334678
1.1353619
1.1371951
1.1389641
1.1406661
1.1422989
1.143861
1.145351
1.1467682
1.1481116
1.1493808
1.1505748
1.1516927
1.1527327
1.1536928
1.1545701
1.1553609
1.1560609
1.1566645
1.1571651
1.1575558
1.1578284
1.1579726
1.157983
1.157856
1.1575949
1.1572082
1.1567167
1.1561539
1.1555672
1.1550182
1.1545813
1.1543416
1.154395
1.1548493
1.1558018
1.1572927
1.1593056
1.1616774
1.1636487
1.1645017
1.1650302
1.0407821
1.0761377
1.0615657
1.0722846
1.0676403
1.0726513
1.0716694
1.074482
1.0750713
1.0769779
1.078348
1.080038
1.0816925
1.0834341
1.0852276
1.0870808
1.0889908
1.0909567
1.0929763
1.0950469
1.0971656
1.0993284
1.1015311
1.1037685
1.1060351
1.1083246
1.1106304
1.1129453
1.1152618
1.1175721
1.1198682
1.1221423
1.1243864
1.1265931
1.1287552
1.1308661
1.1329196
1.1349106
1.1368343
1.1386871
1.140466
1.1421687
1.1437938
1.1453402
1.1468078
1.1481964
1.1495063
1.1507378
1.1518912
1.1529666
1.1539633
1.1548806
1.1557165
1.1564685
1.1571332
1.1577064
1.1581827
1.158556
1.1588194
1.1589654
1.158988
1.1588853
1.1586534
1.1582975
1.1578324
1.157283
1.1566855
1.1560902
1.1555604
1.1551699
1.1549996
1.1551377
1.1556765
1.1566835
1.1581741
1.1601342
1.162346
1.1639904
1.1648597
1.1652858
1.0401063
1.0758073
1.0610013
1.0721421
1.0673778
1.0726628
1.0716079
1.074531
1.0753779
1.0774324
1.0789929
1.0808391
1.0826758
1.0845955
1.0865735
1.0886139
1.0907139
1.0928712
1.0950826
1.0973443
1.0996519
1.1019999
1.1043826
1.1067931
1.1092243
1.1116681
1.1141162
1.1165599
1.1189902
1.121398
1.1237743
1.1261105
1.1283982
1.1306295
1.1327976
1.1348961
1.1369196
1.1388638
1.1407253
1.1425016
1.1441913
1.1457937
1.1473089
1.1487376
1.1500809
1.1513402
1.152517
1.1536127
1.1546285
1.1555653
1.156423
1.1572012
1.1578983
1.1585121
1.1590393
1.1594756
1.1598162
1.1600553
1.1601869
1.1602045
1.1601032
1.1598833
1.1595474
1.1590991
1.1585604
1.1579589
1.1573333
1.1567357
1.1562294
1.1558856
1.1557798
1.1559914
1.1565945
1.1576275
1.1590942
1.160988
1.1630155
1.1643278
1.1652436
1.1656191
1.0397875
1.0758218
1.0608123
1.0723503
1.0674398
1.0729403
1.0720758
1.0752257
1.0762387
1.0784401
1.0802217
1.0822523
1.0842985
1.0864254
1.088616
1.0908711
1.0931873
1.0955607
1.0979868
1.1004601
1.1029742
1.105522
1.1080955
1.1106859
1.113284
1.1158798
1.1184631
1.1210236
1.1235508
1.1260346
1.1284653
1.1308336
1.1331313
1.135351
1.1374862
1.1395319
1.141484
1.1433399
1.1450978
1.1467575
1.1483193
1.1497846
1.1511554
1.1524341
1.1536236
1.1547266
1.1557459
1.1566839
1.1575426
1.1583234
1.1590269
1.1596527
1.1601995
1.1606652
1.1610464
1.161339
1.1615385
1.1616395
1.1616368
1.161525
1.1613003
1.1609658
1.1605304
1.1599941
1.1593881
1.1587412
1.1580943
1.1575002
1.1570203
1.1567217
1.1566733
1.1569442
1.1575879
1.1586184
1.1600406
1.1618507
1.1636751
1.1646828
1.1656125
1.1659855
1.0398729
1.0762399
1.0610282
1.0728812
1.0680032
1.0737392
1.0731533
1.0764233
1.0777078
1.0800837
1.0821208
1.0843705
1.0866571
1.0890234
1.0914571
1.0939563
1.0965161
1.0991309
1.1017941
1.1044979
1.1072336
1.1099915
1.1127612
1.1155315
1.1182906
1.1210266
1.1237273
1.126381
1.128976
1.1315015
1.1339476
1.1363054
1.1385673
1.1407271
1.1427802
1.1447233
1.1465547
1.1482741
1.1498825
1.1513819
1.1527751
1.1540659
1.1552581
1.1563562
1.1573644
1.158287
1.1591276
1.1598896
1.1605755
1.161187
1.1617248
1.1621887
1.1625774
1.1628886
1.163119
1.1632647
1.163321
1.1632832
1.1631469
1.162908
1.1625641
1.1621202
1.1615899
1.1609742
1.1603086
1.1596237
1.1589622
1.1583761
1.1579239
1.157667
1.1576666
1.1579799
1.158639
1.1596403
1.1609968
1.1626982
1.1643068
1.1650742
1.1660091
1.1663729
1.0404485
1.0771365
1.0617521
1.0739234
1.0691797
1.0751732
1.0748142
1.0782865
1.0798862
1.0824646
1.0847917
1.0872987
1.08986
1.0925008
1.0952108
1.0979854
1.1008175
1.1036988
1.1066198
1.1095696
1.1125366
1.1155078
1.1184698
1.1214088
1.1243104
1.1271607
1.129946
1.1326533
1.1352706
1.1377872
1.140194
1.1424835
1.1446501
1.14669
1.1486014
1.1503841
1.1520396
1.1535707
1.1549814
1.1562766
1.1574618
1.1585428
1.1595258
1.1604165
1.1612208
1.1619436
1.1625895
1.1631622
1.1636644
1.164098
1.1644635
1.1647605
1.1649876
1.1651421
1.1652208
1.1652197
1.1651343
1.1649604
1.1646942
1.1643333
1.1638773
1.1633317
1.1627119
1.1620281
1.1613117
1.1605968
1.1599265
1.1593515
1.158926
1.158705
1.1587413
1.1590779
1.1597272
1.1606762
1.1619462
1.163509
1.1649036
1.165528
1.1664325
1.166816
1.0415412
1.0785604
1.0630216
1.0754981
1.0710262
1.077246
1.0772291
1.0808869
1.0828622
1.0856844
1.0883408
1.0911508
1.0940276
1.0969833
1.100007
1.1030908
1.106224
1.1093945
1.112589
1.1157928
1.1189904
1.1221653
1.1253009
1.1283804
1.1313874
1.1343063
1.1371225
1.139823
1.1423966
1.1448344
1.1471296
1.1492777
1.1512766
1.1531266
1.1548298
1.15639
1.1578125
1.1591038
1.1602711
1.1613221
1.1622647
1.1631069
1.1638561
1.1645195
1.1651036
1.1656141
1.1660556
1.1664319
1.1667456
1.1669981
1.1671898
1.1673197
1.1673861
1.167386
1.1673159
1.1671719
1.1669496
1.1666453
1.1662559
1.1657805
1.1652212
1.164585
1.1638848
1.1631419
1.1623838
1.1616463
1.1609722
1.1604095
1.1600078
1.1598149
1.1598743
1.160214
1.1608301
1.161708
1.1628738
1.1642715
1.1654588
1.1660189
1.1668587
1.1673549
1.043184
1.0805303
1.0648686
1.0777943
1.0735619
1.0800469
1.0804573
1.084332
1.0867456
1.0898672
1.0929004
1.0960675
1.0993084
1.1026242
1.1060014
1.1094269
1.1128853
1.1163596
1.1198318
1.1232826
1.1266922
1.1300404
1.1333075
1.1364743
1.1395231
1.1424379
1.145205
1.1478134
1.1502549
1.1525244
1.1546196
1.1565412
1.1582921
1.1598778
1.1613051
1.1625825
1.1637192
1.1647253
1.1656109
1.1663861
1.1670605
1.1676435
1.1681435
1.1685683
1.1689244
1.1692176
1.1694523
1.1696317
1.1697581
1.1698322
1.1698536
1.169821
1.1697319
1.1695832
1.169371
1.1690913
1.16874
1.1683138
1.1678104
1.1672301
1.1665769
1.1658596
1.1650931
1.1642997
1.1635083
1.1627546
1.1620801
1.1615294
1.1611466
1.1609724
1.1610402
1.1613631
1.161926
1.1627191
1.1637716
1.164999
1.1659774
1.1664389
1.1673299
1.1680382
1.0454486
1.0831167
1.0673953
1.0808009
1.0769379
1.0836843
1.0846274
1.0887582
1.0916795
1.0951742
1.0986439
1.1022305
1.105889
1.1096106
1.1133763
1.117167
1.1209613
1.1247366
1.1284691
1.1321345
1.1357086
1.139168
1.1424907
1.1456568
1.1486495
1.1514552
1.1540641
1.1564701
1.1586711
1.1606684
1.1624664
1.1640722
1.1654952
1.1667462
1.1678372
1.1687809
1.1695901
1.1702775
1.1708552
1.1713349
1.1717273
1.1720421
1.172288
1.1724723
1.1726015
1.1726806
1.1727132
1.172702
1.1726481
1.1725515
1.172411
1.1722246
1.1719893
1.1717014
1.1713568
1.1709514
1.1704814
1.1699439
1.1693375
1.1686637
1.1679278
1.1671404
1.166318
1.1654836
1.1646664
1.1639016
1.1632284
1.1626873
1.162317
1.1621513
1.1622128
1.1625017
1.1629966
1.1636979
1.1646376
1.1657021
1.1664788
1.1668963
1.1678736
1.1688501
1.0483937
1.0863641
1.0707335
1.0846301
1.0812569
1.0882901
1.0898967
1.0943572
1.0978682
1.1018258
1.1057994
1.1098682
1.1139931
1.1181554
1.1223295
1.1264886
1.1306043
1.1346469
1.1385865
1.1423939
1.1460415
1.1495046
1.1527622
1.1557974
1.1585984
1.1611585
1.1634756
1.1655523
1.1673949
1.1690134
1.1704199
1.1716288
1.1726553
1.1735156
1.1742256
1.1748011
1.1752574
1.1756085
1.1758675
1.1760465
1.1761561
1.1762055
1.1762028
1.1761546
1.1760663
1.1759417
1.1757837
1.1755935
1.1753714
1.1751163
1.1748263
1.1744983
1.174129
1.1737141
1.1732493
1.1727305
1.1721539
1.1715172
1.1708198
1.1700644
1.1692576
1.1684113
1.1675428
1.1666756
1.1658387
1.1650659
1.1643935
1.1638578
1.1634924
1.1633241
1.163366
1.1636074
1.1640257
1.1646346
1.1654604
1.1663639
1.166974
1.1673975
1.1685698
1.1696841
1.0520794
1.0902828
1.0750403
1.0894045
1.086715
1.0941
1.0965207
1.1014079
1.1055899
1.1100994
1.1146384
1.11924
1.1238637
1.12848
1.1330539
1.1375488
1.1419274
1.1461526
1.1501896
1.1540067
1.1575777
1.1608817
1.1639046
1.1666387
1.1690829
1.1712416
1.1731243
1.1747445
1.1761186
1.1772652
1.1782041
1.1789554
1.1795392
1.1799751
1.1802813
1.1804753
1.1805727
1.1805878
1.1805334
1.1804206
1.1802591
1.1800569
1.1798207
1.179556
1.1792665
1.178955
1.1786228
1.1782699
1.1778955
1.1774975
1.177073
1.1766184
1.1761294
1.1756017
1.1750305
1.1744117
1.1737418
1.1730188
1.172243
1.1714181
1.1705518
1.1696567
1.1687507
1.1678574
1.1670048
1.1662248
1.1655506
1.1650145
1.164645
1.1644628
1.164473
1.1646568
1.164999
1.1655193
1.1662291
1.1669807
1.1674841
1.1679674
1.1692872
1.1704622
1.0566786
1.0949582
1.0804899
1.0954502
1.0936439
1.1014492
1.1048274
1.1102386
1.1151601
1.1203008
1.1254554
1.130621
1.1357476
1.1407909
1.1457028
1.1504356
1.1549442
1.1591882
1.1631338
1.1667553
1.1700358
1.1729674
1.1755503
1.1777923
1.1797073
1.181314
1.1826345
1.1836933
1.1845156
1.185127
1.1855525
1.1858159
1.1859397
1.1859443
1.1858485
1.1856692
1.1854211
1.1851172
1.1847689
1.1843855
1.1839749
1.1835437
1.1830966
1.1826374
1.1821684
1.1816907
1.1812043
1.180708
1.1801997
1.1796764
1.1791344
1.1785694
1.1779766
1.1773511
1.1766882
1.1759834
1.1752336
1.1744373
1.1735955
1.1727126
1.171797
1.1708618
1.1699252
1.1690099
1.1681432
1.1673544
1.1666737
1.1661291
1.1657452
1.1655374
1.165503
1.1656276
1.1659013
1.1663322
1.1669304
1.1675448
1.1679755
1.1685158
1.1699005
1.1710615
1.0625005
1.1008251
1.0875151
1.1031279
1.102402
1.1106695
1.115151
1.121204
1.1269341
1.1327768
1.1385755
1.1442928
1.1498615
1.1552199
1.1603082
1.1650735
1.1694725
1.1734732
1.1770557
1.1802123
1.1829464
1.1852708
1.1872061
1.1887784
1.1900177
1.1909559
1.1916259
1.1920599
1.1922887
1.1923416
1.1922452
1.1920241
1.1917002
1.1912928
1.190819
1.1902936
1.1897293
1.1891368
1.188525
1.1879011
1.187271
1.186639
1.1860081
1.1853803
1.1847562
1.1841355
1.1835167
1.1828976
1.182275
1.181645
1.1810031
1.1803445
1.1796639
1.1789561
1.1782158
1.177439
1.1766224
1.175765
1.1748684
1.1739375
1.172981
1.1720123
1.1710491
1.1701135
1.1692309
1.1684286
1.1677336
1.1671705
1.1667601
1.1665149
1.1664313
1.1664908
1.1666852
1.1670385
1.1675257
1.1680147
1.1683827
1.1689349
1.1702645
1.1713775
1.069753
1.1087786
1.0963221
1.1126676
1.1133572
1.1221713
1.1279228
1.1347685
1.1413644
1.1479299
1.1543192
1.1604613
1.1662735
1.1716858
1.1766419
1.1811015
1.185042
1.1884572
1.1913558
1.1937589
1.1956968
1.1972063
1.1983282
1.1991047
1.1995781
1.1997889
1.1997754
1.1995729
1.1992134
1.1987253
1.1981342
1.1974621
1.1967281
1.1959488
1.195138
1.1943076
1.1934672
1.1926247
1.1917865
1.1909573
1.1901408
1.1893391
1.1885536
1.1877843
1.1870305
1.1862904
1.1855614
1.1848401
1.1841226
1.1834042
1.1826799
1.1819441
1.1811913
1.1804157
1.179612
1.1787759
1.1779045
1.1769969
1.1760549
1.1750838
1.1740924
1.1730936
1.1721047
1.1711465
1.1702426
1.1694178
1.168697
1.1681017
1.1676492
1.1673506
1.1672038
1.1671915
1.1673123
1.1675751
1.1679452
1.1683016
1.1685879
1.1690957
1.1702866
1.1713468
1.0785341
1.1184523
1.1075013
1.1245836
1.1271381
1.136636
1.1437823
1.1515232
1.1589356
1.1660823
1.1728145
1.1790446
1.1846968
1.1897209
1.1940917
1.197807
1.2008848
1.2033588
1.2052741
1.2066828
1.2076403
1.2082028
1.2084246
1.2083568
1.2080465
1.2075363
1.2068638
1.2060623
1.2051606
1.2041834
1.203152
1.2020843
1.2009951
1.199897
1.1988003
1.1977131
1.196642
1.1955919
1.1945667
1.1935688
1.1925995
1.1916594
1.1907479
1.1898637
1.1890047
1.1881678
1.1873496
1.1865458
1.1857517
1.1849622
1.1841716
1.183374
1.1825633
1.1817334
1.1808787
1.1799949
1.1790787
1.1781295
1.1771492
1.176143
1.1751193
1.1740906
1.1730731
1.1720861
1.171151
1.1702909
1.1695281
1.1688814
1.1683646
1.1679916
1.1677673
1.1676657
1.1676995
1.1678557
1.1680859
1.1682851
1.168461
1.168881
1.1698763
1.1707443
1.0895457
1.130804
1.121942
1.1398246
1.1446887
1.1549554
1.1634302
1.1719482
1.1798637
1.1871527
1.1936938
1.1994269
1.2043248
1.2083939
1.2116676
1.2141997
1.216057
1.2173137
1.2180458
1.2183278
1.2182298
1.2178159
1.217144
1.2162647
1.2152222
1.2140545
1.2127939
1.2114677
1.2100986
1.2087058
1.2073047
1.2059082
1.2045267
1.2031684
1.2018398
1.2005456
1.1992895
1.1980738
1.1968998
1.195768
1.194678
1.1936285
1.1926177
1.191643
1.190701
1.189788
1.1888996
1.1880309
1.1871769
1.1863317
1.1854893
1.1846434
1.1837875
1.182915
1.1820201
1.1810979
1.180145
1.1791606
1.1781462
1.1771066
1.1760499
1.1749877
1.1739349
1.1729091
1.1719301
1.1710184
1.1701948
1.1694756
1.1688732
1.1684051
1.1680821
1.1678718
1.1677799
1.1678157
1.1678786
1.167923
1.1679678
1.1682283
1.1688973
1.1694478
1.1042929
1.1469154
1.1409139
1.1594571
1.1669736
1.1779002
1.1872308
1.1959671
1.2036711
1.2103209
1.2158824
1.2203795
1.2238711
1.2264422
1.2281933
1.22923
1.2296575
1.2295748
1.2290724
1.2282307
1.2271198
1.2258
1.2243221
1.2227289
1.2210559
1.2193323
1.2175823
1.2158254
1.2140772
1.2123505
1.2106552
1.2089991
1.2073882
1.2058268
1.204318
1.2028637
1.2014649
1.2001217
1.1988336
1.1975993
1.1964168
1.1952837
1.194197
1.1931529
1.1921474
1.1911761
1.1902339
1.1893157
1.1884157
1.187528
1.1866462
1.1857634
1.1848729
1.1839676
1.1830411
1.1820879
1.1811042
1.1800883
1.1790412
1.1779672
1.1768735
1.1757707
1.1746724
1.1735949
1.1725558
1.1715742
1.1706704
1.1698616
1.1691608
1.1685778
1.168116
1.1677882
1.1675676
1.1674325
1.1673228
1.1671917
1.1670707
1.1671203
1.1674009
1.1676724
1.1243982
1.1680868
1.1658463
1.184506
1.1943853
1.2054444
1.2146201
1.2225012
1.2289265
1.2339627
1.2377051
1.2402899
1.2418684
1.2425941
1.2426131
1.242058
1.2410455
1.2396761
1.2380342
1.2361903
1.2342021
1.2321167
1.2299722
1.2277991
1.2256218
1.2234595
1.2213275
1.2192376
1.2171988
1.2152179
1.2132999
1.2114482
1.2096652
1.2079519
1.2063088
1.2047354
1.2032307
1.2017931
1.2004204
1.1991102
1.1978592
1.1966641
1.1955209
1.1944253
1.1933725
1.1923577
1.1913754
1.19042
1.1894857
1.1885662
1.1876548
1.1867445
1.1858278
1.1848975
1.1839464
1.1829679
1.1819574
1.1809119
1.1798316
1.1787197
1.1775826
1.17643
1.175274
1.1741287
1.1730106
1.1719392
1.1709345
1.170014
1.1691925
1.1684819
1.1678887
1.1674072
1.1670325
1.166724
1.166427
1.1661119
1.1658237
1.1656519
1.165629
1.1657142
1.1523467
1.1951186
1.1978433
1.2158622
1.2261354
1.2360112
1.2436409
1.2494179
1.2534707
1.2560355
1.2573467
1.2576334
1.2571019
1.2559314
1.254273
1.2522509
1.249966
1.2474989
1.2449136
1.2422603
1.2395784
1.2368983
1.2342436
1.2316323
1.2290778
1.2265904
1.2241774
1.221844
1.2195938
1.2174288
1.21535
1.2133576
1.2114509
1.2096288
1.2078895
1.2062309
1.2046504
1.2031452
1.2017119
1.2003472
1.1990471
1.1978073
1.1966234
1.1954904
1.1944033
1.1933567
1.1923451
1.1913625
1.190403
1.18946
1.1885268
1.1875961
1.1866601
1.1857109
1.1847405
1.1837413
1.1827069
1.1816331
1.1805183
1.1793645
1.1781771
1.1769648
1.1757385
1.1745117
1.1733004
1.1721233
1.1710006
1.1699524
1.1689962
1.1681446
1.1674051
1.1667776
1.1662455
1.1657689
1.1653013
1.1648263
1.1643851
1.1640382
1.1638169
1.1637855
1.1907646
1.2297943
1.2357313
1.251039
1.2602155
1.2671852
1.27165
1.2741534
1.2750543
1.2747148
1.2734318
1.2714506
1.2689663
1.2661312
1.2630633
1.2598523
1.2565664
1.2532569
1.249962
1.2467102
1.2435222
1.2404133
1.237394
1.2344718
1.2316514
1.2289357
1.2263262
1.223823
1.2214255
1.2191323
1.2169417
1.2148513
1.2128585
1.2109604
1.2091539
1.2074355
1.2058017
1.2042488
1.2027727
1.2013692
1.2000339
1.1987621
1.1975488
1.1963887
1.1952765
1.1942066
1.1931732
1.1921703
1.1911918
1.1902311
1.1892812
1.1883348
1.1873838
1.1864197
1.1854336
1.1844168
1.1833612
1.1822605
1.1811111
1.1799128
1.1786697
1.1773898
1.1760839
1.1747652
1.1734497
1.1721566
1.170908
1.1697269
1.168633
1.1676415
1.1667612
1.1659909
1.1653127
1.1646898
1.1640833
1.1634869
1.1629416
1.1625
1.1621913
1.1621013
1.2378549
1.2705128
1.2778368
1.2877127
1.2927255
1.2951845
1.2954825
1.2942641
1.2919604
1.2889143
1.2853767
1.2815321
1.2775141
1.2734187
1.2693143
1.2652494
1.2612579
1.2573632
1.2535812
1.249922
1.246392
1.2429944
1.2397304
1.2365998
1.2336012
1.2307323
1.2279905
1.2253725
1.2228751
1.2204944
1.2182269
1.2160686
1.2140156
1.2120639
1.2102094
1.208448
1.2067754
1.2051873
1.2036792
1.2022466
1.2008845
1.1995879
1.1983516
1.1971701
1.1960378
1.1949489
1.1938975
1.1928776
1.1918827
1.1909064
1.1899415
1.1889805
1.1880152
1.1870369
1.1860365
1.1850044
1.1839306
1.1828063
1.1816247
1.180383
1.1790832
1.1777323
1.1763413
1.1749251
1.1735019
1.1720925
1.1707201
1.1694102
1.1681857
1.1670642
1.1660566
1.1651624
1.1643637
1.1636271
1.1629213
1.1622486
1.1616536
1.1611888
1.1608783
1.160767
1.2914281
1.3123581
1.317132
1.3196661
1.3190526
1.3165856
1.3128817
1.3084281
1.3035453
1.2984496
1.2932851
1.2881461
1.2830944
1.2781694
1.2733955
1.2687871
1.2643516
1.260092
1.2560081
1.2520977
1.2483573
1.2447824
1.2413682
1.2381095
1.2350009
1.2320372
1.229213
1.2265231
1.2239624
1.2215259
1.2192087
1.2170061
1.2149132
1.2129255
1.2110383
1.2092471
1.2075473
1.2059341
1.2044029
1.2029487
1.2015666
1.2002513
1.1989973
1.1977991
1.1966509
1.1955469
1.1944809
1.1934467
1.1924379
1.1914478
1.1904692
1.1894944
1.1885153
1.1875241
1.1865125
1.1854702
1.1843849
1.1832449
1.1820416
1.1807689
1.1794238
1.1780105
1.1765415
1.1750339
1.1735085
1.1719951
1.1705139
1.1690918
1.1677544
1.1665225
1.1654092
1.1644156
1.1635254
1.1627086
1.1619409
1.1612318
1.1606308
1.1601882
1.1599121
1.1597974
1.3438696
1.3475913
1.3466942
1.342465
1.3368679
1.3305132
1.3238722
1.3171864
1.3106034
1.304203
1.2980288
1.2921016
1.286429
1.2810106
1.2758414
1.2709136
1.2662182
1.2617455
1.2574857
1.2534291
1.2495663
1.2458884
1.2423869
1.2390536
1.235881
1.232862
1.2299896
1.2272575
1.2246596
1.22219
1.2198432
1.2176139
1.2154969
1.2134872
1.2115798
1.2097699
1.2080528
1.2064235
1.2048772
1.2034089
1.2020134
1.2006855
1.1994196
1.1982102
1.1970514
1.1959373
1.1948619
1.1938188
1.1928017
1.1918034
1.1908168
1.1898341
1.1888481
1.1878512
1.1868347
1.1857867
1.1846934
1.1835476
1.1823421
1.1810643
1.1797022
1.1782516
1.1767236
1.175159
1.1735477
1.1719466
1.1703838
1.1688756
1.1674487
1.16613
1.1649346
1.1638667
1.1629119
1.1620425
1.1612389
1.1605156
1.1599255
1.1595182
1.159285
1.1591685
1.3778121
1.3705223
1.3634595
1.3554555
1.3471325
1.3388777
1.3308697
1.3231844
1.3158528
1.3088795
1.3022572
1.2959724
1.2900086
1.2843485
1.2789751
1.2738717
1.269023
1.2644144
1.2600324
1.2558647
1.2518998
1.2481271
1.2445369
1.2411201
1.2378683
1.2347737
1.2318292
1.2290279
1.2263634
1.2238297
1.221421
1.2191318
1.2169569
1.2148912
1.2129296
1.2110674
1.2092995
1.2076213
1.2060277
1.2045137
1.2030743
1.2017041
1.2003977
1.1991493
1.1979531
1.1968031
1.1956932
1.1946167
1.1935669
1.1925367
1.1915192
1.1905074
1.1894933
1.1884672
1.1874191
1.1863419
1.1852316
1.1840753
1.1828546
1.1815556
1.1801691
1.17869
1.1771197
1.1754932
1.1738356
1.17211
1.1704789
1.1688975
1.1673984
1.1660098
1.1647437
1.1636195
1.1626173
1.1617109
1.1608817
1.1601478
1.1595639
1.1591775
1.1589681
1.1588483
1.1706349
1.1696505
1.1823587
1.192452
1.1971292
1.1982537
1.1983471
1.1980871
1.1979983
1.1978223
1.1974745
1.1969841
1.196379
1.1957249
1.1950214
1.1942756
1.1934915
1.1926764
1.1918355
1.1909735
1.1900949
1.1892033
1.1883021
1.1873945
1.186483
1.1855699
1.1846574
1.1837473
1.1828413
1.1819409
1.1810475
1.1801623
1.1792865
1.1784212
1.1775674
1.1767259
1.1758976
1.1750834
1.174284
1.1735003
1.172733
1.1719831
1.1712515
1.1705393
1.1698478
1.1691784
1.1685328
1.167913
1.1673213
1.1667604
1.1662332
1.1657431
1.1652936
1.1648885
1.1645316
1.1642267
1.1639779
1.1637895
1.1636663
1.1636135
1.1636382
1.1637469
1.1639458
1.1642343
1.1646103
1.1650372
1.1655003
1.165873
1.166182
1.1661472
1.1660237
1.1652196
1.164438
1.1625872
1.161141
1.1583724
1.1574184
1.1554972
1.1580244
1.1594749
1.1659192
1.1730085
1.1864894
1.1932427
1.1948678
1.1946487
1.1940819
1.1937507
1.1933309
1.1928983
1.1924102
1.1919148
1.1913813
1.1908248
1.1902341
1.1896204
1.1889804
1.1883185
1.187636
1.186935
1.1862172
1.1854845
1.1847388
1.1839821
1.183216
1.1824425
1.1816633
1.1808803
1.180095
1.1793092
1.1785245
1.1777425
1.1769646
1.1761923
1.175427
1.1746699
1.1739224
1.1731857
1.1724609
1.1717492
1.1710517
1.1703697
1.1697045
1.1690573
1.1684296
1.1678232
1.1672399
1.1666818
1.1661514
1.1656515
1.1651853
1.1647563
1.1643682
1.164025
1.1637305
1.1634887
1.1633035
1.1631787
1.1631183
1.1631264
1.1632086
1.1633691
1.1636117
1.1639336
1.1643292
1.1647632
1.1652146
1.1655668
1.1658332
1.1657626
1.1655394
1.1647565
1.1638718
1.1620312
1.1605652
1.1579204
1.1571167
1.1553829
1.1580552
1.1596189
1.1633802
1.1744542
1.1836504
1.1890866
1.1895822
1.1890251
1.1884091
1.188067
1.1876595
1.1873043
1.1868886
1.1864918
1.1860545
1.1856158
1.1851503
1.1846727
1.184174
1.183659
1.1831264
1.1825772
1.182012
1.1814316
1.1808371
1.1802295
1.1796099
1.1789796
1.17834
1.1776924
1.1770382
1.176379
1.1757163
1.1750516
1.1743865
1.1737225
1.1730612
1.1724042
1.1717528
1.1711086
1.170473
1.1698474
1.1692334
1.1686323
1.1680456
1.1674751
1.1669222
1.166389
1.1658773
1.1653897
1.1649286
1.164497
1.1640984
1.1637363
1.1634147
1.1631375
1.162909
1.1627329
1.1626131
1.162553
1.162556
1.1626245
1.162763
1.1629735
1.1632574
1.1636099
1.1640229
1.1644617
1.1649011
1.1652333
1.165462
1.1653604
1.1650632
1.164279
1.1633051
1.1614734
1.160001
1.157489
1.1568388
1.1553007
1.1580953
1.1597511
1.1579512
1.1704857
1.1798214
1.1838537
1.1833642
1.1830449
1.1825579
1.1823605
1.1819934
1.1817279
1.1813806
1.1810813
1.180736
1.180405
1.1800478
1.1796874
1.1793097
1.1789212
1.1785187
1.178103
1.1776739
1.1772312
1.1767752
1.1763063
1.1758249
1.1753316
1.1748273
1.174313
1.1737897
1.1732585
1.1727207
1.1721777
1.171631
1.1710819
1.1705321
1.169983
1.1694362
1.1688933
1.1683559
1.1678256
1.1673039
1.1667926
1.1662934
1.1658079
1.165338
1.1648858
1.1644533
1.1640432
1.163658
1.163301
1.1629756
1.1626856
1.162435
1.1622281
1.1620689
1.1619615
1.1619095
1.1619159
1.1619832
1.1621131
1.162308
1.1625681
1.1628923
1.1632742
1.1637032
1.1641451
1.1645717
1.1648833
1.1650759
1.1649473
1.1645909
1.1637691
1.1627335
1.1609102
1.1594434
1.1570734
1.1565812
1.1552412
1.1581544
1.1598724
1.1508709
1.1656077
1.1742627
1.1774946
1.1767932
1.176811
1.1764042
1.1763774
1.1761045
1.1759869
1.1757512
1.1755859
1.1753572
1.1751528
1.1749172
1.1746829
1.1744309
1.1741696
1.1738942
1.1736062
1.1733051
1.1729907
1.1726632
1.1723228
1.1719697
1.1716043
1.1712273
1.1708393
1.170441
1.1700335
1.1696176
1.1691945
1.1687654
1.1683318
1.1678948
1.1674561
1.1670172
1.1665795
1.1661448
1.1657147
1.1652908
1.1648749
1.1644688
1.1640742
1.1636932
1.1633278
1.1629802
1.1626531
1.1623492
1.1620717
1.1618241
1.1616105
1.1614347
1.1613013
1.1612143
1.1611777
1.161195
1.1612688
1.1614011
1.1615922
1.1618429
1.1621515
1.1625149
1.1629246
1.1633679
1.1638115
1.1642247
1.164516
1.1646737
1.1645176
1.1641259
1.1632172
1.1621607
1.1603481
1.158896
1.1566764
1.1563398
1.1551907
1.1582346
1.1599979
1.1445002
1.1612202
1.1688097
1.1715904
1.1707548
1.1710227
1.1706562
1.1707759
1.1705697
1.1705726
1.1704228
1.1703677
1.1702334
1.1701341
1.1699988
1.1698678
1.1697191
1.1695632
1.169394
1.1692134
1.169021
1.1688169
1.168601
1.1683733
1.1681341
1.1678833
1.1676214
1.1673487
1.1670658
1.1667732
1.1664717
1.1661623
1.1658458
1.1655236
1.1651967
1.1648666
1.1645346
1.1642022
1.163871
1.1635425
1.1632185
1.1629007
1.1625907
1.1622906
1.1620021
1.1617274
1.1614687
1.1612286
1.1610099
1.1608159
1.16065
1.160516
1.1604183
1.160361
1.1603483
1.1603843
1.1604721
1.160614
1.1608112
1.1610633
1.1613691
1.1617253
1.1621266
1.1625629
1.1630194
1.1634634
1.1638627
1.1641339
1.1642575
1.1640547
1.163659
1.1626778
1.1615888
1.1597896
1.1583606
1.1562975
1.1561085
1.1551382
1.1583294
1.1601426
1.1387644
1.157512
1.1636923
1.1662417
1.1653148
1.1657752
1.1654107
1.1656383
1.1654677
1.165558
1.1654632
1.1654885
1.1654265
1.1654124
1.1653582
1.1653039
1.1652321
1.1651579
1.1650741
1.164982
1.1648809
1.1647703
1.1646499
1.1645195
1.1643791
1.1642287
1.1640682
1.1638981
1.1637185
1.1635299
1.1633328
1.1631281
1.1629164
1.1626988
1.1624762
1.1622499
1.1620211
1.1617912
1.1615615
1.1613337
1.1611093
1.1608899
1.1606771
1.1604728
1.1602788
1.160097
1.1599298
1.1597795
1.159649
1.1595412
1.1594597
1.1594082
1.1593909
1.1594118
1.1594752
1.1595848
1.1597437
1.1599538
1.1602158
1.1605282
1.1608881
1.1612908
1.1617288
1.1621903
1.1626588
1.1631023
1.1634873
1.1637382
1.1638269
1.1635708
1.1631597
1.1621459
1.1610183
1.1592378
1.1578405
1.1559367
1.1558861
1.155101
1.1584397
1.160308
1.1336211
1.1543104
1.159002
1.1614739
1.1604378