/*--------------------------------*- C++ -*----------------------------------*\
  =========                 |
  \\      /  F ield         | OpenFOAM: The Open Source CFD Toolbox
   \\    /   O peration     | Website:  https://openfoam.org
    \\  /    A nd           | Version:  12
     \\/     M anipulation  |
\*---------------------------------------------------------------------------*/
FoamFile
{
    format      ascii;
    class       volScalarField;
    location    "600";
    object      alphat;
}
// * * * * * * * * * * * * * * * * * * * * * * * * * * * * * * * * * * * * * //

dimensions      [1 -1 -1 0 0 0 0];

internalField   nonuniform List<scalar> 
16200
(
0.0004841707731
0.001647079062
0.002741862556
0.003598496194
0.003873541606
0.003425066082
0.0025315117
0.001396483814
0.0007142537298
0.0002071353211
6.4249522e-06
2.711629457e-06
2.457572205e-06
2.423014565e-06
1.905467022e-06
1.641484197e-06
1.431993725e-06
1.284733829e-06
1.189801663e-06
1.129262158e-06
1.095222382e-06
1.084617319e-06
1.094342912e-06
1.122502194e-06
1.168646183e-06
1.234052666e-06
1.32214677e-06
1.439212576e-06
1.595841279e-06
1.809790463e-06
2.111258323e-06
2.552821041e-06
3.228719223e-06
4.314982694e-06
6.159539725e-06
9.48681131e-06
1.586283814e-05
2.874725352e-05
5.588744203e-05
0.0001148277461
0.0002457472514
0.0005415334391
0.001164356623
0.001165764061
0.001166104087
0.001165551042
0.001164554685
0.001164278678
0.001164285616
0.001164382466
0.001164494048
0.001164595526
0.001164682621
0.001164759228
0.001164831924
0.001164910218
0.001165002684
0.001165130282
0.001165297195
0.00116557499
0.0004732610563
0.00159695215
0.00262936394
0.003386253556
0.003499084478
0.002935388265
0.002059573598
0.001024555038
0.0005652523949
4.539577932e-05
2.781174822e-06
2.26531113e-06
2.063176102e-06
2.028055467e-06
1.694323872e-06
1.456134183e-06
1.266899673e-06
1.134037538e-06
1.050189563e-06
9.980601361e-07
9.701291731e-07
9.632773289e-07
9.744905034e-07
1.001867815e-06
1.044931054e-06
1.10483009e-06
1.18476539e-06
1.290683606e-06
1.432627029e-06
1.627258425e-06
1.902426448e-06
2.305897954e-06
2.922679721e-06
3.911126363e-06
5.583753555e-06
8.590542872e-06
1.433593499e-05
2.592232284e-05
5.029381654e-05
0.0001031691742
0.0002205291414
0.0004855473501
0.001092082655
0.001165612636
0.001166001304
0.001165571428
0.001164562773
0.001164280941
0.00116428733
0.001164385856
0.001164499718
0.001164603317
0.001164692117
0.001164769797
0.001164843231
0.001164921273
0.001165013608
0.001165139959
0.001165306845
0.001165588096
0.0004639009317
0.001550393659
0.002522187079
0.003179057765
0.003133211866
0.002480847854
0.001595872836
0.000749858383
0.0003827092122
1.459780543e-05
2.138785759e-06
1.896380983e-06
1.732488439e-06
1.698653913e-06
1.495442591e-06
1.282494131e-06
1.11353453e-06
9.949965137e-07
9.218294095e-07
8.775374422e-07
8.550010598e-07
8.510262103e-07
8.626684176e-07
8.880486704e-07
9.267331948e-07
9.798964896e-07
1.050739974e-06
1.145170362e-06
1.273038693e-06
1.450314237e-06
1.702958107e-06
2.074560176e-06
2.641984318e-06
3.548158739e-06
5.075053036e-06
7.808491478e-06
1.301256253e-05
2.347476633e-05
4.541909952e-05
9.289567573e-05
0.0001979737038
0.0004346073746
0.0009747930255
0.001165538043
0.001165935269
0.001165597694
0.001164582048
0.001164293484
0.001164296903
0.001164394716
0.001164508951
0.001164613299
0.001164702856
0.001164781055
0.001164854818
0.001164932567
0.00116502463
0.001165149924
0.001165316792
0.001165601606
0.0004568546748
0.001507459709
0.002417039146
0.002941295424
0.002763319618
0.002068260448
0.001140315788
0.0005532881982
0.0001921709843
5.464908226e-06
1.779962574e-06
1.602556416e-06
1.468968566e-06
1.43668133e-06
1.321280634e-06
1.130079154e-06
9.78822557e-07
8.729595364e-07
8.091081609e-07
7.715485567e-07
7.534828863e-07
7.516500224e-07
7.6321454e-07
7.864605121e-07
8.211715818e-07
8.687440789e-07
9.325894433e-07
1.018807231e-06
1.137312178e-06
1.303685637e-06
1.542518276e-06
1.894305829e-06
2.430029616e-06
3.281877472e-06
4.711194795e-06
7.261234264e-06
1.210386656e-05
2.182099129e-05
4.216932252e-05
8.611982648e-05
0.0001832213704
0.0004014975755
0.0008989160368
0.001165553941
0.001165919677
0.00116562914
0.00116461486
0.001164319424
0.001164317238
0.001164411417
0.001164523552
0.001164626784
0.001164715765
0.001164793618
0.001164867117
0.001164944342
0.001165035907
0.001165160217
0.001165326912
0.001165614791
0.0004507109653
0.001467173979
0.002314794384
0.002704297986
0.002404456649
0.001710787525
0.0008173676324
0.0004226169606
4.666070112e-05
2.085686623e-06
1.498986983e-06
1.357272211e-06
1.248685466e-06
1.218872553e-06
1.162213656e-06
9.914473751e-07
8.568912344e-07
7.630260735e-07
7.077351031e-07
6.761395597e-07
6.618432655e-07
6.6164588e-07
6.729516782e-07
6.943439391e-07
7.259127266e-07
7.693536045e-07
8.283813197e-07
9.09380331e-07
1.022378099e-06
1.18260876e-06
1.41348162e-06
1.752954363e-06
2.267306184e-06
3.080317907e-06
4.437478203e-06
6.849516528e-06
1.141742994e-05
2.056335975e-05
3.967653304e-05
8.086912512e-05
0.0001716632709
0.0003752656782
0.0008381512301
0.001165638206
0.001165943227
0.001165665074
0.00116465812
0.001164355563
0.001164345702
0.001164433986
0.00116454212
0.001164642807
0.001164730206
0.00116480706
0.001164879873
0.001164956417
0.001165047379
0.001165170802
0.001165337313
0.00116562807
0.0004451422515
0.001428833677
0.002213177056
0.002465932759
0.002055480514
0.001348261581
0.0006058743114
0.0002945639379
1.722095422e-05
1.55277473e-06
1.271183566e-06
1.155705983e-06
1.067061825e-06
1.039493198e-06
1.01966882e-06
8.671100153e-07
7.475375228e-07
6.645815218e-07
6.169480381e-07
5.906540968e-07
5.79752004e-07
5.811723421e-07
5.92593571e-07
6.129213915e-07
6.425758461e-07
6.836222512e-07
7.401761215e-07
8.189602678e-07
9.301108853e-07
1.088570115e-06
1.316867314e-06
1.651146852e-06
2.154349693e-06
2.94439632e-06
4.256064893e-06
6.578534199e-06
1.096576104e-05
1.973266311e-05
3.801825004e-05
7.734147412e-05
0.0001638056342
0.0003572039442
0.0007957797849
0.001165779346
0.001166001558
0.001165702035
0.001164709299
0.001164400263
0.001164381306
0.001164461857
0.00116456435
0.001164661214
0.001164746114
0.00116482136
0.0011648931
0.001164968798
0.001165059069
0.001165181681
0.001165347988
0.001165641358
0.0004395547994
0.001391487088
0.002110298488
0.002216331122
0.00172398164
0.0009878845357
0.0004544756398
0.0001763804143
6.122402507e-06
1.283926131e-06
1.081937307e-06
9.86482018e-07
9.135693477e-07
8.882111149e-07
8.897551431e-07
7.541455331e-07
6.486737929e-07
5.762817669e-07
5.360810405e-07
5.150139167e-07
5.075772764e-07
5.108570172e-07
5.228369454e-07
5.428097042e-07
5.716169978e-07
6.115809971e-07
6.67651915e-07
7.466325442e-07
8.586879248e-07
1.018495961e-06
1.248529655e-06
1.582868307e-06
2.082528197e-06
2.861412895e-06
4.147279385e-06
6.415629504e-06
1.06904119e-05
1.921648724e-05
3.696472311e-05
7.504499373e-05
0.0001585597606
0.0003448471441
0.0007661297478
0.001165961704
0.001166086948
0.001165739301
0.001164766074
0.001164451426
0.001164422467
0.001164493935
0.001164589525
0.001164681558
0.001164763222
0.001164836363
0.001164906722
0.001164981441
0.00116507097
0.001165192846
0.001165358962
0.001165654722
0.000433176418
0.001353378929
0.002002943236
0.001960810531
0.001425829875
0.0007163406516
0.0003516389496
5.950174642e-05
2.384327763e-06
1.081236981e-06
9.21264394e-07
8.421882025e-07
7.823581631e-07
7.597042789e-07
7.723412364e-07
6.529036872e-07
5.609248313e-07
4.988171347e-07
4.657998314e-07
4.497553683e-07
4.45646043e-07
4.507847391e-07
4.63549259e-07
4.837179215e-07
5.124423934e-07
5.531120893e-07
6.104172272e-07
6.915542236e-07
8.067202548e-07
9.704842259e-07
1.204459859e-06
1.543689795e-06
2.046285599e-06
2.824193496e-06
4.101338808e-06
6.346414494e-06
1.056832254e-05
1.897463645e-05
3.644068013e-05
7.383053207e-05
0.0001556174254
0.0003375385994
0.0007477714297
0.001166171854
0.001166192404
0.00116578492
0.001164826263
0.001164507161
0.00116446779
0.001164529273
0.001164617036
0.001164703465
0.001164781316
0.001164851956
0.001164920688
0.001164994322
0.001165083084
0.001165204297
0.001165370244
0.001165668166
0.0004260797399
0.001312441855
0.001868808969
0.001702824763
0.001147788548
0.0005306415824
0.0002671720938
3.36192858e-05
1.46189007e-06
9.153979e-07
7.879181807e-07
7.216426044e-07
6.724184827e-07
6.523913764e-07
6.691013791e-07
5.643483949e-07
4.846779839e-07
4.320738247e-07
4.056047246e-07
3.940896364e-07
3.929898072e-07
3.999243191e-07
4.135064307e-07
4.344986442e-07
4.644810447e-07
5.068214327e-07
5.66685434e-07
6.514115911e-07
7.712648668e-07
9.408615914e-07
1.181826071e-06
1.528862482e-06
2.039648801e-06
2.824865957e-06
4.1071804e-06
6.35405879e-06
1.057154512e-05
1.895656362e-05
3.634775039e-05
7.34954351e-05
0.0001545436384
0.0003343173447
0.0007385392979
0.001166397647
0.001166310164
0.001165834043
0.001164888126
0.001164565778
0.001164515953
0.001164566939
0.001164646269
0.001164726553
0.00116480017
0.001164868014
0.001164934938
0.001165007415
0.001165095406
0.001165216036
0.001165381844
0.001165681711
0.0004180848051
0.001268288576
0.001716351959
0.001448753615
0.0008495405789
0.0003989282191
0.0001889689659
1.7836274e-05
1.125312177e-06
7.786177214e-07
6.761049363e-07
6.202340456e-07
5.795306667e-07
5.620091201e-07
5.783468798e-07
4.868688528e-07
4.183997204e-07
3.745711017e-07
3.540886898e-07
3.46710564e-07
3.484191351e-07
3.569575045e-07
3.721821824e-07
3.945951053e-07
4.264028126e-07
4.713235155e-07
5.347301672e-07
6.240923742e-07
7.498158144e-07
9.26719995e-07
1.176679445e-06
1.534448026e-06
2.05784029e-06
2.857363599e-06
4.156620159e-06
6.426643209e-06
1.068111137e-05
1.91292287e-05
3.662357216e-05
7.391421848e-05
0.0001550737002
0.0003346059306
0.000737144019
0.00116662921
0.0011664338
0.001165882554
0.00116495026
0.001164625847
0.001164565813
0.001164606112
0.001164676674
0.001164750475
0.00116481958
0.001164884425
0.001164949422
0.001165020697
0.001165107937
0.001165228066
0.001165393769
0.001165695368
0.000409058706
0.001220535552
0.001552375051
0.001207429669
0.0006147972127
0.0003058165928
0.000124314574
1.194361658e-05
9.223868161e-07
6.638268007e-07
5.813403219e-07
5.339310515e-07
5.0011101e-07
4.848922605e-07
4.982240538e-07
4.188997359e-07
3.608072646e-07
3.252295261e-07
3.103329248e-07
3.068081288e-07
3.108928859e-07
3.216210785e-07
3.385295974e-07
3.627960453e-07
3.970209987e-07
4.451846742e-07
5.128359899e-07
6.076006659e-07
7.401016127e-07
9.254921354e-07
1.186090718e-06
1.55702168e-06
2.096700651e-06
2.91639439e-06
4.242523456e-06
6.553816674e-06
1.088063423e-05
1.946420747e-05
3.721459499e-05
7.497909004e-05
0.0001569797884
0.0003379058931
0.000742468584
0.001166858767
0.001166558137
0.00116592707
0.001165011607
0.001164686208
0.001164616404
0.001164646084
0.001164707771
0.001164774925
0.001164839361
0.00116490109
0.001164964091
0.00116503415
0.001165120678
0.001165240392
0.001165406025
0.001165709147
0.0003987135147
0.001168287465
0.001383542883
0.0009678197651
0.0004631120763
0.0002398516341
5.946772116e-05
6.569158152e-06
7.501121433e-07
5.679296791e-07
5.008285682e-07
4.60405435e-07
4.321333924e-07
4.190923934e-07
4.281209316e-07
3.599277502e-07
3.114343223e-07
2.835377318e-07
2.737511317e-07
2.734289155e-07
2.802380297e-07
2.928841687e-07
3.116010074e-07
3.380542673e-07
3.75139385e-07
4.270291918e-07
4.99435597e-07
6.001793039e-07
7.401717781e-07
9.35004972e-07
1.207599164e-06
1.593718115e-06
2.152773038e-06
2.997608238e-06
4.359126443e-06
6.727408354e-06
1.11575054e-05
1.994014635e-05
3.808135997e-05
7.661173411e-05
0.0001600979175
0.0003438604242
0.0007537156405
0.001167080509
0.00116667922
0.001165964953
0.001165071396
0.001164745952
0.001164666948
0.001164686269
0.001164739152
0.001164799639
0.001164859356
0.001164917922
0.001164978905
0.001165047758
0.001165133627
0.001165253013
0.001165418616
0.001165723055
0.0003867115845
0.001109215402
0.001208800654
0.000734641235
0.0003591420555
0.0001858491537
3.016415013e-05
3.331783011e-06
6.108937733e-07
4.871172386e-07
4.322806147e-07
3.979222907e-07
3.743377181e-07
3.634225954e-07
3.677163789e-07
3.09549649e-07
2.697653691e-07
2.488183839e-07
2.435246409e-07
2.462107957e-07
2.553069412e-07
2.697767754e-07
2.904454229e-07
3.19362184e-07
3.596483921e-07
4.156267462e-07
4.93167845e-07
6.003276296e-07
7.483729426e-07
9.534191919e-07
1.239117666e-06
1.642099865e-06
2.223116592e-06
3.097318843e-06
4.501590971e-06
6.940661153e-06
1.150148149e-05
2.053999063e-05
3.919278735e-05
7.875108314e-05
0.0001643010508
0.0003521941263
0.0007702706952
0.001167290314
0.001166794162
0.00116599425
0.001165129086
0.001164804395
0.001164716834
0.001164726196
0.001164770486
0.001164824398
0.00116487943
0.001164934846
0.001164993829
0.001165061511
0.001165146786
0.001165265923
0.001165431546
0.001165737101
0.0003734557656
0.001042352262
0.001032064845
0.0005516184898
0.0002818420871
0.000139544366
1.841474209e-05
1.843112551e-06
5.046331704e-07
4.185178668e-07
3.747632127e-07
3.45324363e-07
3.254702426e-07
3.163620036e-07
3.158858919e-07
2.666827362e-07
2.347921664e-07
2.200852827e-07
2.183334308e-07
2.240632871e-07
2.351316517e-07
2.514241919e-07
2.742179662e-07
3.058415569e-07
3.495906549e-07
4.099213266e-07
4.928724467e-07
6.067716307e-07
7.633011709e-07
9.79170381e-07
1.278948724e-06
1.700091519e-06
2.305238095e-06
3.212428512e-06
4.66591092e-06
7.188095585e-06
1.190445894e-05
2.125057775e-05
4.052539623e-05
8.13517494e-05
0.0001694958366
0.000362706038
0.0007916869952
0.001167485444
0.001166900969
0.001166019943
0.001165184324
0.001164861043
0.001164765604
0.001164765501
0.001164801508
0.001164849026
0.001164899475
0.001164951803
0.001165008835
0.001165075398
0.001165160156
0.00116527912
0.001165444819
0.001165751287
0.0003599259922
0.0009699403915
0.0008405951103
0.0004266574391
0.0002297145889
0.0001018042302
1.295631834e-05
1.072460189e-06
4.210709776e-07
3.597333394e-07
3.246499336e-07
2.9998914e-07
2.832071999e-07
2.757797943e-07
2.71052529e-07
2.3012584e-07
2.055405312e-07
1.964415626e-07
1.980860602e-07
2.061175247e-07
2.189728385e-07
2.371377391e-07
2.62227224e-07
2.967594988e-07
3.441570246e-07
4.090105326e-07
4.975549905e-07
6.184207935e-07
7.837532736e-07
1.010915779e-06
1.325386205e-06
1.7659163e-06
2.397015041e-06
3.340324178e-06
4.848754595e-06
7.465245768e-06
1.235999523e-05
2.206171202e-05
4.206142264e-05
8.438004128e-05
0.0001756139218
0.0003752502903
0.0008176418163
0.001167664257
0.001166997985
0.001166043563
0.001165236899
0.001164915559
0.001164812925
0.001164803909
0.001164832016
0.001164873385
0.001164919403
0.001164968743
0.0011650239
0.001165089413
0.00116517374
0.001165292601
0.001165458441
0.001165765616
0.0003466708525
0.0008899628135
0.0006856472224
0.0003519518952
0.000194866238
5.719912719e-05
8.428022266e-06
6.772416531e-07
3.542075598e-07
3.088411918e-07
2.80493603e-07
2.601832641e-07
2.464824542e-07
2.40733056e-07
2.32538706e-07
1.992740806e-07
1.813896641e-07
1.768477124e-07
1.817420377e-07
1.917034079e-07
2.062661335e-07
2.263820804e-07
2.53905825e-07
2.914838592e-07
3.426375717e-07
4.121033853e-07
5.063466878e-07
6.343268103e-07
8.086855018e-07
1.047493258e-06
1.377220949e-06
1.838054396e-06
2.496648542e-06
3.47881747e-06
5.047377915e-06
7.768518226e-06
1.286305786e-05
2.296568727e-05
4.378786068e-05
8.781195035e-05
0.0001826075841
0.0003897264038
0.0008479145606
0.001167825967
0.001167084046
0.001166065283
0.001165286709
0.001164967731
0.001164858572
0.001164841227
0.00116486186
0.001164897369
0.001164939147
0.001164985628
0.001165039006
0.001165103553
0.001165187536
0.001165306369
0.001165472412
0.001165780087
0.0003362509139
0.0008014648511
0.0005615652573
0.0002968871992
0.0001642773595
3.195642138e-05
4.071183526e-06
4.670032685e-07
3.007860643e-07
2.658577073e-07
2.428325751e-07
2.259121579e-07
2.148923064e-07
2.107547888e-07
1.998259499e-07
1.735669582e-07
1.617263684e-07
1.614116779e-07
1.686442079e-07
1.802998628e-07
1.965621713e-07
2.187092037e-07
2.487593851e-07
2.894428546e-07
3.443916985e-07
4.185005432e-07
5.184874598e-07
6.536643753e-07
8.37193805e-07
1.087909121e-06
1.433327664e-06
1.915218636e-06
2.602631155e-06
3.626097968e-06
5.2595509e-06
8.095067698e-06
1.34098007e-05
2.39568599e-05
4.569560393e-05
9.163134828e-05
0.0001904458146
0.0004060705548
0.0008823669245
0.001167970424
0.001167158448
0.001166085262
0.001165333733
0.001165017444
0.001164902404
0.001164877322
0.001164890933
0.0011649209
0.001164958656
0.00116500243
0.001165054142
0.001165117813
0.001165201544
0.001165320423
0.001165486713
0.001165794698
0.0003318915243
0.0007074013204
0.000468891875
0.0002508769776
0.0001345960317
1.927448813e-05
1.976201686e-06
3.444298191e-07
2.571183158e-07
2.29409397e-07
2.105159649e-07
1.963823842e-07
1.874194925e-07
1.848789373e-07
1.721380078e-07
1.523898441e-07
1.456396084e-07
1.491634972e-07
1.582894165e-07
1.715028348e-07
1.894746274e-07
2.137024564e-07
2.4631323e-07
2.901021857e-07
3.488365738e-07
4.2757944e-07
5.333085388e-07
6.757116147e-07
8.68495261e-07
1.131286895e-06
1.492752558e-06
1.99633176e-06
2.713717648e-06
3.780692406e-06
5.483496283e-06
8.442697297e-06
1.399738904e-05
2.503132082e-05
4.777879246e-05
9.582862091e-05
0.0001991113549
0.0004242489807
0.00092092798
0.001168097922
0.001167220851
0.001166103642
0.001165378008
0.001165064659
0.001164944344
0.001164912112
0.001164919164
0.001164943925
0.001164977895
0.001165019128
0.001165069296
0.001165132192
0.001165215764
0.001165334762
0.001165501322
0.001165809446
0.0003366849988
0.0006123610322
0.0003859494696
0.00021687351
0.0001073941012
1.281596289e-05
9.755451979e-07
2.692923762e-07
2.202303123e-07
1.978551656e-07
1.823548461e-07
1.706933307e-07
1.636020473e-07
1.625351296e-07
1.49051975e-07
1.353650793e-07
1.33368135e-07
1.395916346e-07
1.502788429e-07
1.649621435e-07
1.846451191e-07
2.109638739e-07
2.461179102e-07
2.929835582e-07
3.554620284e-07
4.387976205e-07
5.502311305e-07
6.998475391e-07
9.019198862e-07
1.176913948e-06
1.554702996e-06
2.080509832e-06
2.828899565e-06
3.941426795e-06
5.717832748e-06
8.809769975e-06
1.462385276e-05
2.618663463e-05
5.00343172e-05
0.0001003996709
0.0002085985915
0.0004442533795
0.0009635838977
0.001168209061
0.001167271185
0.001166120553
0.001165419612
0.001165109391
0.001164984368
0.001164945557
0.001164946512
0.001164966409
0.001164996837
0.001165035707
0.001165084463
0.001165146686
0.001165230199
0.001165349388
0.00116551623
0.001165824324
0.0003519669178
0.00052441269
0.0003319709831
0.0001956123481
6.322728097e-05
8.961979434e-06
5.121356375e-07
2.19208866e-07
1.890464057e-07
1.708283204e-07
1.581902212e-07
1.487312349e-07
1.433383163e-07
1.436567436e-07
1.303026452e-07
1.221067152e-07
1.240180008e-07
1.322218626e-07
1.442411443e-07
1.603386398e-07
1.817240105e-07
2.101143261e-07
2.477676107e-07
2.976630117e-07
3.638191499e-07
4.516780951e-07
5.687518355e-07
7.255399446e-07
9.369063557e-07
1.224191234e-06
1.618534268e-06
2.167045903e-06
2.947383816e-06
4.107396917e-06
5.961531886e-06
9.195140785e-06
1.528797055e-05
2.742162468e-05
5.246139172e-05
0.0001053450145
0.0002189115826
0.000466096507
0.001010368243
0.001168304625
0.001167309569
0.001166136113
0.00116545865
0.001165151693
0.001165022489
0.001164977644
0.001164972955
0.00116498833
0.001165015468
0.001165052156
0.001165099636
0.001165161295
0.001165244853
0.001165364305
0.00116553142
0.001165839327
0.0003756812661
0.0004945237243
0.0002939546991
0.0001782728505
3.423446242e-05
3.753181599e-06
3.004932933e-07
1.837886606e-07
1.632307288e-07
1.482346581e-07
1.379068179e-07
1.303023478e-07
1.26447858e-07
1.278477549e-07
1.154419955e-07
1.118935402e-07
1.169459228e-07
1.266183995e-07
1.398420426e-07
1.573268132e-07
1.803965466e-07
2.108203113e-07
2.509170677e-07
3.037703229e-07
3.735184647e-07
4.658109043e-07
5.884440084e-07
7.523455232e-07
9.72994328e-07
1.272637953e-06
1.683738381e-06
2.255392949e-06
3.068568551e-06
4.277935264e-06
6.213872659e-06
9.598091385e-06
1.598916878e-05
2.873620332e-05
5.50612425e-05
0.0001106691759
0.0002300627991
0.0004898094566
0.001061356101
0.001168385513
0.001167336251
0.001166150434
0.001165495248
0.001165191648
0.001165058744
0.001165008385
0.001164998489
0.001165009681
0.001165033778
0.00116506847
0.001165114813
0.001165176019
0.001165259724
0.001165379504
0.001165546859
0.001165854449
0.0004042261304
0.0004379362013
0.0002680675369
0.0001603674452
1.880750732e-05
1.452382602e-06
2.042997092e-07
1.570451873e-07
1.41792269e-07
1.293242743e-07
1.208269228e-07
1.148412453e-07
1.123261777e-07
1.137051193e-07
1.039068579e-07
1.044382142e-07
1.115931029e-07
1.224341261e-07
1.368076855e-07
1.556633914e-07
1.803855816e-07
2.127892775e-07
2.552593069e-07
3.109785989e-07
3.842211098e-07
4.808469531e-07
6.089505514e-07
7.799003084e-07
1.009812448e-06
1.321873157e-06
1.74991983e-06
2.3451325e-06
3.192002817e-06
4.45255886e-06
6.474371897e-06
1.001823276e-05
1.672737494e-05
3.013113242e-05
5.783668519e-05
0.0001163798854
0.0002420715237
0.0005154382799
0.001116656083
0.001168452672
0.001167351547
0.001166163615
0.001165529536
0.001165229351
0.00116509319
0.001165037807
0.001165023124
0.00116503046
0.001165051764
0.001165084645
0.001165129991
0.001165190854
0.001165274813
0.001165394961
0.001165562511
0.001165869681
0.0004387629715
0.0004093113659
0.0002573622373
0.0001398774187
1.109471615e-05
5.303258829e-07
1.590298973e-07
1.355447016e-07
1.235803165e-07
1.131932624e-07
1.063152333e-07
1.017639121e-07
1.003130322e-07
1.002583016e-07
9.518593953e-08
9.895726069e-08
1.075624601e-07
1.194219974e-07
1.349191721e-07
1.551188659e-07
1.814444698e-07
2.157596003e-07
2.605185771e-07
3.190047121e-07
3.956388242e-07
4.964964863e-07
6.299814813e-07
8.079154432e-07
1.047073139e-06
1.371609233e-06
1.816787788e-06
2.43596537e-06
3.317375479e-06
4.630955445e-06
6.742765998e-06
1.04554785e-05
1.750297381e-05
3.160794186e-05
6.079195773e-05
0.0001224877108
0.0002549630066
0.0005430419632
0.001169544599
0.001168507064
0.001167355798
0.001166175753
0.001165561653
0.001165264912
0.001165125897
0.001165065945
0.001165046877
0.001165050674
0.001165069426
0.001165100681
0.001165145166
0.001165205801
0.001165290115
0.001165410644
0.001165578357
0.001165884997
0.000476455534
0.0004019687877
0.0002559068665
9.556136881e-05
5.599635055e-06
2.187095164e-07
1.332849638e-07
1.175288035e-07
1.078836795e-07
9.951520902e-08
9.389016104e-08
9.055369379e-08
9.017100137e-08
8.973107626e-08
8.880877163e-08
9.487410855e-08
1.045911125e-07
1.17394161e-07
1.339852187e-07
1.554845777e-07
1.83350127e-07
2.194981421e-07
2.664551818e-07
3.276088955e-07
4.075334116e-07
5.125260429e-07
6.513098063e-07
8.361718973e-07
1.084565818e-06
1.421643667e-06
1.884146251e-06
2.527699868e-06
3.444500773e-06
4.812965077e-06
7.018986296e-06
1.091000886e-05
1.831674972e-05
3.316882566e-05
6.393251308e-05
0.0001290056187
0.0002687674934
0.0005726902795
0.001169635268
0.001168549644
0.001167349326
0.001166186936
0.001165591732
0.00116529844
0.001165156938
0.001165092845
0.001165069769
0.001165070332
0.001165086768
0.001165116576
0.001165160337
0.001165220856
0.001165305622
0.001165426528
0.001165594462
0.001165900368
0.0005335068235
0.0004110428447
0.0002599953718
4.721377035e-05
1.538228835e-06
1.370039135e-07
1.148764204e-07
1.026016764e-07
9.471394527e-08
8.776764861e-08
8.32827047e-08
8.112811148e-08
8.180833819e-08
8.185487055e-08
8.428550119e-08
9.190058513e-08
1.024945204e-07
1.161911233e-07
1.338334756e-07
1.565744812e-07
1.859083664e-07
2.238060816e-07
2.72869637e-07
3.365941633e-07
4.197128391e-07
5.287505969e-07
6.727591968e-07
8.64503174e-07
1.122133968e-06
1.471829821e-06
1.951857634e-06
2.620207047e-06
3.573263378e-06
4.998512127e-06
7.303072271e-06
1.138215431e-05
1.916971853e-05
3.481638045e-05
6.726458426e-05
0.0001359482052
0.0002835187991
0.0006044610218
0.001169711119
0.001168581348
0.001167332404
0.001166197245
0.001165619904
0.001165330048
0.001165186391
0.001165118554
0.001165091828
0.001165089447
0.001165103794
0.00116513233
0.0011651755
0.001165236017
0.001165321326
0.001165442593
0.001165610853
0.001165915768
0.0005896659373
0.0004113342524
0.0002578907029
2.244845221e-05
3.761513646e-07
1.121248055e-07
1.004071928e-07
9.023908862e-08
8.356067756e-08
7.782941808e-08
7.440876649e-08
7.339308373e-08
7.510298109e-08
7.624342621e-08
8.112061802e-08
8.976899446e-08
1.011183274e-07
1.156632129e-07
1.343045362e-07
1.582222144e-07
1.88950778e-07
2.28515149e-07
2.795967091e-07
3.458011011e-07
4.320257012e-07
5.450283243e-07
6.941986138e-07
8.927899235e-07
1.159669931e-06
1.522071889e-06
2.019837905e-06
2.713415754e-06
3.703612907e-06
5.187598131e-06
7.595160769e-06
1.187237719e-05
2.006309262e-05
3.655353255e-05
7.079502123e-05
0.0001433313191
0.0002992534273
0.000638438041
0.001169773334
0.001168603096
0.001167305219
0.001166206756
0.001165646296
0.001165359846
0.001165214335
0.001165143121
0.001165113082
0.001165108034
0.00116512051
0.001165147945
0.001165190652
0.00116525128
0.001165337215
0.001165458821
0.001165627522
0.001165931168
0.0006454266773
0.0004070695371
0.0002461356118
1.133058921e-05
1.488112883e-07
9.749872804e-08
8.835334666e-08
7.989443504e-08
7.418106625e-08
6.949294047e-08
6.709171408e-08
6.718284836e-08
6.98680294e-08
7.239667518e-08
7.889941629e-08
8.828884045e-08
1.003272621e-07
1.156730392e-07
1.352565755e-07
1.602850138e-07
1.923357692e-07
2.334878881e-07
2.865050957e-07
3.55107235e-07
4.443603039e-07
5.612603195e-07
7.155427722e-07
9.20961593e-07
1.197118576e-06
1.572331129e-06
2.088066039e-06
2.807325743e-06
3.835581303e-06
5.380324003e-06
7.895513816e-06
1.238130602e-05
2.099832226e-05
3.838358124e-05
7.453131427e-05
0.0001511719941
0.0003160102098
0.0006747100088
0.001169823003
0.001168615797
0.001167269472
0.001166215538
0.001165671023
0.001165387936
0.001165240844
0.001165166597
0.00116513356
0.001165126107
0.001165136922
0.00116516342
0.001165205789
0.001165266639
0.001165353273
0.001165475197
0.001165644464
0.001165946535
0.000679399922
0.0004019016169
0.0002216872109
6.748944688e-06
1.127020618e-07
8.568650791e-08
7.826021601e-08
7.11747333e-08
6.626610232e-08
6.252757266e-08
6.114673901e-08
6.230948663e-08
6.588611155e-08
6.980397004e-08
7.733710066e-08
8.732341648e-08
1.000033346e-07
1.16101017e-07
1.365692084e-07
1.626444079e-07
1.959473119e-07
2.386136417e-07
2.934909112e-07
3.644175793e-07
4.566315534e-07
5.773728425e-07
7.367296238e-07
9.489683147e-07
1.234442853e-06
1.622583989e-06
2.156533204e-06
2.901946066e-06
3.969207589e-06
5.576796488e-06
8.204397793e-06
1.290956974e-05
2.197685047e-05
4.030980815e-05
7.848092872e-05
0.0001594872584
0.000333828079
0.0007133660829
0.001169861124
0.0011686203
0.001167235929
0.001166223651
0.001165694197
0.001165414419
0.001165265994
0.001165189029
0.001165153291
0.001165143682
0.001165153037
0.001165178753
0.001165220904
0.001165282088
0.001165369481
0.001165491702
0.001165661667
0.001165961817
0.0006775828358
0.0004030100744
0.000186228551
2.654847873e-06
9.351781576e-08
7.589480588e-08
6.975174374e-08
6.377993573e-08
5.957759104e-08
5.675716252e-08
5.641155031e-08
5.857440074e-08
6.292099576e-08
6.804274827e-08
7.625239399e-08
8.676305752e-08
1.000418164e-07
1.168428226e-07
1.381406543e-07
1.652030416e-07
1.996931238e-07
2.438077048e-07
3.004787059e-07
3.736672088e-07
4.687858328e-07
5.933242121e-07
7.57730002e-07
9.767935993e-07
1.271639675e-06
1.672841538e-06
2.225266083e-06
2.99732278e-06
4.104570311e-06
5.777165805e-06
8.522127105e-06
1.345784864e-05
2.300017062e-05
4.233553413e-05
8.265133077e-05
0.0001682940299
0.0003527455744
0.000754494325
0.001169888604
0.001168617021
0.001167204455
0.001166231154
0.001165715918
0.001165439387
0.001165289852
0.001165210465
0.001165172303
0.001165160774
0.00116516886
0.001165193944
0.001165235993
0.001165297619
0.001165385817
0.001165508319
0.001165679115
0.001165976974
0.0006709744705
0.000407353797
0.0001013505945
9.130864136e-07
8.07245391e-08
6.779034595e-08
6.259912833e-08
5.752636811e-08
5.396817886e-08
5.206540013e-08
5.273729686e-08
5.577773156e-08
6.054534608e-08
6.682730316e-08
7.553104851e-08
8.651993231e-08
1.003559725e-07
1.17813128e-07
1.398887962e-07
1.678829123e-07
2.035007342e-07
2.490045103e-07
3.074112445e-07
3.828074293e-07
4.807837889e-07
6.090841698e-07
7.785232088e-07
1.004426218e-06
1.308707491e-06
1.723112206e-06
2.294283861e-06
3.093488781e-06
4.241728186e-06
5.981553035e-06
8.848969803e-06
1.402674111e-05
2.406962084e-05
4.446377374e-05
8.704936781e-05
0.0001776079481
0.0003727985491
0.0007981770532
0.001169906289
0.001168606323
0.001167174928
0.001166238096
0.001165736279
0.001165462927
0.001165312487
0.001165230948
0.001165190625
0.001165177397
0.001165184397
0.00116520899
0.001165251048
0.001165313221
0.001165402256
0.001165525029
0.001165696783
0.001165991961
0.0006585132467
0.0004081914868
5.632303369e-05
3.488646692e-07
7.126008815e-08
6.106003361e-08
5.657131227e-08
5.223334902e-08
4.930312547e-08
4.833330788e-08
4.995169064e-08
5.371590575e-08
5.897538126e-08
6.598123017e-08
7.508898508e-08
8.651849832e-08
1.008719676e-07
1.189411457e-07
1.417471309e-07
1.706222528e-07
2.073161476e-07
2.541578505e-07
3.142510956e-07
3.918095301e-07
4.926063e-07
6.246430019e-07
7.991091272e-07
1.031875923e-06
1.345666097e-06
1.773426394e-06
2.363628425e-06
3.190500602e-06
4.380764504e-06
6.190103223e-06
9.185211189e-06
1.461684024e-05
2.51864747e-05
4.669733187e-05
9.168132694e-05
0.0001874432513
0.0003940194448
0.0008444884275
0.001169914967
0.001168588502
0.001167147233
0.001166244523
0.001165755367
0.00116548512
0.001165333958
0.001165250522
0.00116520828
0.001165193565
0.00116519965
0.001165223886
0.001165266062
0.001165328882
0.001165418767
0.001165541817
0.001165714644
0.001166006736
0.0006398485324
0.0003991126281
2.748160027e-05
1.578488065e-07
6.372704664e-08
5.548498379e-08
5.152034195e-08
4.778100458e-08
4.548561282e-08
4.544027019e-08
4.787771027e-08
5.220770258e-08
5.79214056e-08
6.539918552e-08
7.486114413e-08
8.66972494e-08
1.01531034e-07
1.201720693e-07
1.436656739e-07
1.733768426e-07
2.111033714e-07
2.592397124e-07
3.209787522e-07