/*--------------------------------*- C++ -*----------------------------------*\
  =========                 |
  \\      /  F ield         | OpenFOAM: The Open Source CFD Toolbox
   \\    /   O peration     | Website:  https://openfoam.org
    \\  /    A nd           | Version:  12
     \\/     M anipulation  |
\*---------------------------------------------------------------------------*/
FoamFile
{
    format      ascii;
    class       volScalarField;
    location    "600";
    object      k;
}
// * * * * * * * * * * * * * * * * * * * * * * * * * * * * * * * * * * * * * //

dimensions      [0 2 -2 0 0 0 0];

internalField   nonuniform List<scalar> 
16200
(
440.4548109
502.6633701
458.2685614
415.6371449
360.6074396
276.9341753
157.873501
47.6105424
5.690978423
0.205778618
0.002289011202
0.00102103679
0.0009745611076
0.0009490816209
0.0009349070366
0.000926481266
0.0009210095562
0.0009177399641
0.0009160753902
0.0009155286982
0.0009158499124
0.00091689156
0.0009185602269
0.0009208021183
0.000923590587
0.0009269147878
0.0009307686469
0.0009351389247
0.0009399920161
0.0009452600958
0.0009508293105
0.0009565370405
0.0009621850391
0.0009675685392
0.0009725099082
0.0009768817528
0.0009806134766
0.0009836842579
0.0009861100841
0.0009879290685
0.0009891879879
0.0009899276962
0.0009901686105
0.0009898894741
0.0009889761586
0.0009870928093
0.0009848249839
0.0009838572458
0.0009834750398
0.0009833505877
0.00098334797
0.0009834190059
0.0009835574478
0.0009837804449
0.0009841225869
0.0009846386645
0.0009854097386
0.0009865660922
0.0009883188956
0.0009910936603
459.9937118
519.2149343
466.6037299
415.5648867
349.4782825
251.0692906
121.8399058
28.31673325
2.397042389
0.05623310854
0.001185716752
0.001004389986
0.0009628548942
0.0009396239456
0.0009267466333
0.0009192106335
0.0009144029549
0.000911653388
0.0009104259565
0.0009102675524
0.0009109520459
0.0009123501987
0.0009143827342
0.0009170064997
0.0009202021033
0.0009239623326
0.0009282800017
0.0009331341405
0.0009384745562
0.0009442071586
0.0009501853763
0.0009562157702
0.0009620815433
0.0009675782719
0.000972546605
0.000976887936
0.0009805612745
0.0009835693677
0.000985942347
0.0009877244146
0.0009889628155
0.0009896972793
0.000989948562
0.0009897041149
0.0009888795146
0.0009871897182
0.0009849071096
0.0009839335311
0.0009835537666
0.0009834357116
0.0009834408675
0.0009835194991
0.0009836643277
0.000983891573
0.0009842351634
0.0009847490072
0.0009855146854
0.0009866639632
0.000988417052
0.000991232955
478.9410304
534.4006831
472.9918091
412.6462195
333.6224492
219.7222979
86.8160573
14.99986625
0.8577309223
0.01321703604
0.001071773475
0.0009900829751
0.0009524205875
0.0009312925535
0.0009196506533
0.0009129585731
0.0009087929808
0.0009065552152
0.0009057649898
0.0009060018299
0.0009070623286
0.0009088343336
0.0009112519933
0.0009142824119
0.0009179130919
0.0009221393513
0.0009269499215
0.0009323102551
0.0009381448416
0.0009443236262
0.0009506603479
0.0009569302407
0.0009629049198
0.0009683919692
0.000973262279
0.0009774549048
0.000980963624
0.000983816678
0.0009860586926
0.0009877390608
0.0009889042154
0.0009895906716
0.0009898164502
0.0009895720987
0.0009887962201
0.0009872671498
0.0009849868422
0.0009840117758
0.0009836343354
0.0009835212477
0.0009835326641
0.0009836177466
0.0009837683129
0.0009839997243
0.0009843451777
0.000984857785
0.0009856193083
0.0009867629056
0.0009885165212
0.0009913699237
496.6101475
547.112778
476.6256821
405.6503682
311.6892277
182.6981537
56.37059983
6.986637744
0.2610376821
0.002978619438
0.001040274967
0.0009773428932
0.000943254091
0.0009241218846
0.0009136641611
0.0009077728652
0.0009042258191
0.000902488128
0.0009021308558
0.0009027653134
0.0009042101932
0.0009063697516
0.0009091913043
0.0009126517347
0.0009167437962
0.0009214614877
0.0009267828266
0.0009326504763
0.0009389533579
0.0009455176349
0.0009521164557
0.0009585019348
0.0009644488586
0.0009697923198
0.0009744445835
0.0009783874146
0.0009816495694
0.0009842823926
0.0009863420049
0.0009878801688
0.0009889402375
0.000989553449
0.000989732724
0.0009894671915
0.0009887101233
0.0009872957196
0.0009850464806
0.0009840810345
0.0009837098155
0.0009836027482
0.0009836205051
0.0009837119367
0.0009838682847
0.0009841042185
0.0009844522448
0.0009849647611
0.0009857235499
0.0009868629931
0.000988617817
0.0009915060516
513.0003257
557.6652122
477.4592795
394.8293237
285.0189119
142.9841839
33.02975926
2.968457398
0.07218890125
0.001308465393
0.001021414999
0.0009661009568
0.0009353346599
0.0009180923221
0.0009087716274
0.0009036464618
0.0009007018373
0.0008994594692
0.0008995376056
0.0009005791218
0.0009024249732
0.0009049957006
0.0009082511504
0.0009121758196
0.0009167633144
0.000921999438
0.0009278423044
0.000934201149
0.0009409197817
0.000947776725
0.0009545104327
0.0009608649406
0.0009666366468
0.0009717031544
0.0009760259432
0.0009796305712
0.0009825777004
0.0009849373895
0.0009867732275
0.0009881363447
0.0009890649223
0.0009895834202
0.0009896981557
0.0009893937078
0.0009886307418
0.0009872930239
0.0009850944084
0.0009841456318
0.0009837826841
0.0009836818031
0.0009837055177
0.0009838029231
0.0009839649124
0.0009842055753
0.0009845567622
0.0009850702111
0.0009858275991
0.0009869643718
0.0009887211319
0.0009916414104
527.7433956
565.8924646
475.1127406
378.9824983
252.1704068
103.895515
18.73114338
1.202373596
0.01993830988
0.001129416837
0.001005833858
0.0009563234731
0.0009286527638
0.0009131983458
0.0009049675594
0.0009005766367
0.0008982207161
0.0008974725268
0.0008979939939
0.0008994596438
0.0009017321917
0.0009047466749
0.0009084722836
0.0009128963198
0.0009180068303
0.0009237733254
0.0009301240562
0.0009369243994
0.0009439665783
0.0009509844636
0.0009576960554
0.0009638580904
0.0009693077062
0.0009739765156
0.0009778779578
0.000981077942
0.0009836629236
0.0009857156315
0.0009873024265
0.0009884707178
0.000989251652
0.0009896618555
0.0009897002599
0.0009893450223
0.0009885579976
0.0009872576609
0.0009851290061
0.0009842043654
0.0009838522026
0.0009837580438
0.0009837875946
0.0009838907668
0.0009840583555
0.0009843039928
0.0009846589304
0.0009851742984
0.0009859315924
0.0009870671614
0.0009888266886
0.000991776382
540.5067518
571.930408
469.6162871
356.9562715
212.4646105
69.77505018
9.959088384
0.4726743948
0.005667257291
0.001081510129
0.0009922665141
0.0009479818303
0.0009231958946
0.0009094337655
0.0009022508434
0.0008985719974
0.0008968008472
0.000896555844
0.0008975382298
0.0008994529112
0.0009021822231
0.000905672528
0.0009098984005
0.0009148449809
0.0009204882511
0.0009267726166
0.0009335855842
0.0009407393917
0.0009479737379
0.0009549895615
0.0009615058842
0.0009673148
0.0009723098367
0.0009764821446
0.0009798943912
0.0009826458327
0.0009848409623
0.0009865687471
0.0009878938668
0.0009888573758
0.0009894820109
0.0009897759782
0.0009897306131
0.0009893168297
0.0009884934942
0.0009871978368
0.0009851528468
0.000984258181
0.0009839187896
0.0009838317608
0.000983867024
0.0009839757781
0.0009841489354
0.0009843997803
0.0009847590265
0.0009852772431
0.0009860356947
0.0009871714828
0.0009889346388
0.0009919111603
550.932106
575.640984
460.5884678
329.253488
168.9755723
42.46179768
4.982634607
0.1882888196
0.002189230649
0.001056513167
0.0009806120759
0.0009410890271
0.0009189863516
0.0009068260055
0.0009006528029
0.0008976706239
0.0008964846314
0.0008967535181
0.0008982128719
0.0009005962436
0.0009038035206
0.0009077900004
0.0009125323485
0.0009180081685
0.0009241727712
0.0009309338921
0.000938126929
0.0009455061821
0.0009527669148
0.0009595980057
0.0009657450103
0.0009710554707
0.0009754884606
0.0009790934926
0.0009819750907
0.000984256648
0.0009860524913
0.0009874518134
0.0009885138531
0.0009892713279
0.000989737722
0.000989912647
0.0009897800435
0.0009893034998
0.000988436734
0.0009871323487
0.000985167269
0.0009843073514
0.0009839824646
0.0009839029922
0.0009839439285
0.0009840581572
0.0009842369017
0.0009844932035
0.0009848573033
0.0009853792565
0.0009861400674
0.0009872774494
0.0009890451113
0.0009920459422
558.7907896
576.5235035
445.9446792
294.5486938
125.5904289
24.58621766
2.407626127
0.08131087676
0.001593730728
0.001037782535
0.0009708349798
0.0009356511082
0.000916036997
0.0009053868815
0.0009001804581
0.0008978763657
0.0008972707739
0.0008980580604
0.0009000039291
0.0009028694874
0.0009065701429
0.0009110669602
0.0009163335105
0.0009223315892
0.0009289838801
0.0009361483115
0.0009436003529
0.0009510408864
0.0009581394977
0.0009646000951
0.0009702191948
0.0009749133135
0.0009787083686
0.0009817051684
0.0009840397501
0.000985849792
0.0009872518754
0.0009883304364
0.0009891364835
0.000989693158
0.0009900043698
0.0009900613041
0.0009898409829
0.0009893000233
0.0009883854288
0.0009870604614
0.0009851742138
0.0009843524747
0.0009840434162
0.0009839718615
0.0009840184722
0.0009841381239
0.0009843225132
0.000984584534
0.0009849540192
0.0009854805571
0.0009862448762
0.0009873851711
0.0009891582017
0.0009921808715
564.3197674
574.6221393
424.9196778
252.1378127
85.76047127
13.89150518
1.135930721
0.03673086832
0.001398899934
0.001022078109
0.0009627922594
0.0009315763848
0.0009142735258
0.0009050474725
0.0009007651765
0.000899122343
0.0008990934682
0.000900405281
0.0009028501972
0.0009062154595
0.0009104280946
0.0009154486027
0.0009212385967
0.0009277329183
0.0009348090522
0.0009422650274
0.0009498168856
0.0009571280161
0.0009638694373
0.0009697879116
0.0009747492851
0.0009787438649
0.0009818584776
0.0009842341464
0.0009860269872
0.0009873797639
0.0009884050376
0.0009891787986
0.0009897420461
0.0009901077969
0.0009902705029
0.0009902133478
0.0009899070775
0.0009893019911
0.0009883374576
0.0009869813743
0.0009851753761
0.0009843940737
0.0009841018055
0.0009840384743
0.000984090802
0.0009842158813
0.0009844060145
0.0009846740331
0.0009850494267
0.000985581362
0.0009863502866
0.0009874947535
0.0009892739823
0.0009923160655
567.7095301
569.8167973
397.5740837
204.498371
53.21174774
7.561145495
0.539788277
0.01819277125
0.001317987536
0.001008836686
0.0009563452144
0.0009287559922
0.0009136003452
0.0009057204651
0.0009023266572
0.0009013376243
0.0009018906164
0.0009037409462
0.0009067033885
0.0009105882047
0.0009153284951
0.0009208761318
0.0009271695084
0.0009341036735
0.000941500809
0.0009490967145
0.000956559144
0.0009635393656
0.0009697400218
0.0009749736277
0.0009791845574
0.0009824331547
0.0009848559521
0.0009866213336
0.0009878945905
0.0009888158857
0.0009894891017
0.0009899794043
0.0009903169166
0.0009905045539
0.0009905277595
0.0009903623102
0.0009899733961
0.00098930582
0.0009882910626
0.0009868944041
0.000985172364
0.0009844326944
0.000984157829
0.0009841029595
0.0009841610748
0.0009842916333
0.0009844876457
0.0009847619568
0.0009851437735
0.0009856818861
0.0009864564623
0.0009876062964
0.0009893925026
0.0009924516105
568.8896438
561.3220644
363.4344631
156.3028
32.74986745
4.039278096
0.2624698863
0.00968781897
0.001232936241
0.0009977603652
0.0009513750225
0.0009271084887
0.0009139538809
0.0009073538224
0.000904822232
0.0009044886509
0.0009056353888
0.0009080414504
0.0009115377071
0.0009159530379
0.0009212206736
0.0009272760866
0.0009340227524
0.0009413029171
0.0009488777153
0.0009564288132
0.0009635974254
0.0009700529066
0.000975556764
0.0009800012907
0.000983408816
0.0009858992835
0.0009876450148
0.0009888291202
0.0009896167933
0.0009901398179
0.0009904903531
0.0009907215175
0.0009908524244
0.0009908763328
0.000990770349
0.0009905035319
0.0009900362478
0.0009893086806
0.000988244827
0.0009867989993
0.0009851665516
0.0009844688376
0.0009842116889
0.0009841654569
0.0009842294515
0.0009843655808
0.0009845676402
0.0009848485531
0.0009852373008
0.0009857823398
0.000986563563
0.0009877198911
0.0009895137919
0.0009925875676
567.8216581
548.1698037
320.255898
111.0782579
20.31776066
2.204301642
0.1338395259
0.005731006256
0.00116094571
0.0009887254717
0.0009478235713
0.0009266032467
0.0009153145866
0.0009099311391
0.000908234434
0.0009085562684
0.0009103043258
0.0009132768118
0.0009173142242
0.0009222584327
0.0009280335416
0.0009345490237
0.0009416633961
0.0009491574237
0.0009567324052
0.0009640343707
0.0009707077925
0.0009764696075
0.0009811593976
0.0009847528591
0.000987341483
0.0009890904531
0.0009901936448
0.0009908378867
0.0009911811702
0.0009913430454
0.0009914023189
0.0009913997556
0.0009913438597
0.0009912189562
0.0009909946104
0.0009906338867
0.0009900930262
0.00098930844
0.0009881976658
0.0009866947696
0.0009851590894
0.0009845029605
0.0009842635947
0.0009842261194
0.0009842961
0.0009844379245
0.0009846462261
0.0009849340626
0.0009853302421
0.0009858829276
0.0009866717429
0.0009878356195
0.0009896378614
0.000992723975
564.734804
529.2878125
269.7338487
74.35908574
12.13844585
1.207086765
0.07129307108
0.003681101392
0.001106479721
0.0009811832572
0.0009456565904
0.0009272227874
0.0009176665068
0.0009134314434
0.0009125355461
0.000913505229
0.0009158536119
0.0009193933149
0.000923970002
0.0009294291071
0.0009356723587
0.0009425704092
0.000949929179
0.0009574695992
0.0009648446193
0.0009716907652
0.0009776883503
0.0009826253635
0.0009864277334
0.0009891486289
0.0009909345487
0.0009919804154
0.0009924888866
0.0009926418688
0.0009925852852
0.0009924242926
0.000992223834
0.0009920126763
0.0009917894611
0.0009915304552
0.0009911985266
0.000990751457
0.000990142004
0.0009893035553
0.000988148779
0.0009865909019
0.0009851508981
0.0009845354655
0.0009843137547
0.0009842851083
0.0009843611927
0.0009845088634
0.0009847236254
0.0009850187175
0.0009854228224
0.0009859838463
0.0009867811493
0.0009879535543
0.0009897647064
0.0009928608495
560.2154578
503.6543938
217.4962284
48.89866102
7.299683132
0.6739106624
0.03855815259
0.002485900028
0.00106570415
0.0009752565075
0.0009446975242
0.0009288834319
0.0009209406205
0.0009177958616
0.0009176755794
0.0009192903023
0.0009222382346
0.0009263400416
0.0009314396423
0.0009373770561
0.0009440224289
0.0009511928424
0.0009586369019
0.0009660284057
0.0009729954944
0.0009791949838
0.0009843713684
0.0009883971876
0.0009912820041
0.000993143612
0.0009941671741
0.0009945629127
0.0009945319704
0.0009942452322
0.0009938336876
0.0009933872867
0.0009929574028
0.0009925615884
0.0009921895621
0.0009918104651
0.000991381303
0.0009908552472
0.0009901821441
0.0009892929691
0.0009880970383
0.0009864910914
0.0009851426936
0.000984566702
0.0009843623739
0.0009843425914
0.0009844249051
0.000984578594
0.0009848000532
0.0009851027409
0.0009855152571
0.0009860852843
0.0009868919215
0.00098807376
0.0009898943067
0.0009929981881
554.8752425
467.8874233
169.3396539
34.35151243
4.61316803
0.3849947744
0.0212652043
0.001828058791
0.001038319132
0.0009710683047
0.0009448903552
0.0009315032832
0.0009250928569
0.000922991032
0.0009236267243
0.0009258828935
0.0009294228472
0.0009340690382
0.0009396551575
0.0009460057351
0.0009529489722
0.0009602457062
0.0009675876049
0.0009746207293
0.0009809814603
0.0009863757472
0.0009906301286
0.0009937038553
0.0009956789481
0.0009967214515
0.0009970393235
0.0009968460724
0.000996333823
0.0009956586651
0.0009949353965
0.0009942389227
0.0009936078645
0.0009930495832
0.0009925458891
0.0009920597208
0.0009915430104
0.0009909449333
0.0009902129282
0.0009892760397
0.0009880413922
0.0009863963367
0.0009851350153
0.0009845969695
0.0009844096499
0.0009843987389
0.0009844874134
0.0009846473095
0.0009848757175
0.0009851863466
0.0009856077513
0.0009861874199
0.0009870041886
0.0009881962922
0.0009900266258
0.0009931359698
549.6689379
420.4011239
127.3035146
23.90658228
2.917890049
0.223084265
0.01206216382
0.001465963598
0.001020227945
0.0009685630144
0.000946256886
0.0009350797778
0.0009301105621
0.0009290042762
0.0009303686009
0.0009332516141
0.0009373622578
0.0009425162865
0.0009485286917
0.000955196523
0.000962296382
0.0009695379104
0.0009765739435
0.0009830439413
0.0009886274198
0.0009931017725
0.000996380601
0.0009985023034
0.0009996054565
0.0009998875299
0.0009995656253
0.0009988474898
0.0009979113701
0.0009968966867
0.0009959019673
0.0009949878742
0.0009941813886
0.000993480802
0.000992861026
0.0009922796659
0.0009916843019
0.0009910206618
0.0009902342138
0.0009892524516
0.0009879810054
0.0009863072496
0.0009851282586
0.0009846265234
0.0009844557724
0.0009844537213
0.0009845488931
0.000984715198
0.0009849508179
0.0009852697377
0.0009857004991
0.0009862904206
0.0009871180685
0.0009883211946
0.0009901616073
0.0009932741562
546.0683425
363.2920894
93.27750643
15.96525373
1.811933203
0.1266474311
0.00681040347
0.001254105744
0.001008194318
0.0009676066231
0.0009487415087
0.0009395880955
0.0009359558092
0.0009357966422
0.0009378612049
0.00094135089
0.0009459985535
0.0009516020821
0.0009579484597
0.0009648004497
0.0009718839925
0.0009788672689
0.0009853925519
0.0009911196846
0.0009957969653
0.0009992848105
0.001001578328
0.001002781142
0.0010030712
0.001002662279
0.001001770003
0.001000590229
0.000999284675
0.0009979756352
0.000996746075
0.0009956435845
0.0009946847446
0.0009938599
0.000993138016
0.0009924721569
0.0009918061949
0.0009910828903
0.0009902461175
0.0009892221282
0.0009879152402
0.00098622415
0.0009851227049
0.0009846555815
0.0009845009211
0.0009845077067
0.0009846095161
0.0009847824417
0.0009850255451
0.0009853531067
0.0009857936827
0.0009863944415
0.0009872336675
0.0009884484988
0.0009902991767
0.0009934126934
545.1266028
301.327726
66.18387918
10.81443699
1.123967208
0.07031088257
0.00391139519
0.001138671561
0.001000881316
0.0009681010708
0.0009522953515
0.000944998261
0.0009426138018
0.000943347997
0.000946078497
0.0009501364736
0.0009552600627
0.000961222336
0.0009677742759
0.000974642624
0.0009815132984
0.0009880337103
0.0009938610602
0.0009987063937
0.001002397107
0.00100487749
0.001006212125
0.001006553047
0.001006101538
0.001005075446
0.001003681428
0.001002099835
0.00100047489
0.0009989122677
0.0009974805462
0.0009962155816
0.0009951248048
0.0009941916765
0.0009933800836
0.0009926392529
0.0009919099129
0.0009911322705
0.0009902489282
0.0009891851646
0.0009878436297
0.0009861471463
0.0009851185477
0.0009846843298
0.0009845452659
0.0009845608591
0.0009846694499
0.0009848492156
0.0009851000803
0.0009854366347
0.000985887472
0.0009864996255
0.0009873510805
0.0009885782239
0.0009904392476
0.0009935515128
546.2518759
239.5686937
50.38014583
7.651242486
0.691745703
0.03755461271
0.002385782331
0.001079439644
0.0009970111605
0.0009699944233
0.0009569209584
0.0009513219809
0.0009500918755
0.0009516482763
0.0009549868462
0.0009595423621
0.0009650443463
0.0009712368557
0.0009778351228
0.0009845303139
0.0009909864123
0.000996855162
0.001001833411
0.001005705415
0.001008376441
0.001009867129
0.001010296179
0.001009847185
0.001008731319
0.001007161505
0.001005330738
0.001003402212
0.001001502857
0.0009997228323
0.0009981177273
0.0009967130324
0.0009955082172
0.0009944808278
0.0009935904428
0.0009927830658
0.0009919967696
0.0009911695596
0.0009902430397
0.0009891417715
0.0009877658426
0.0009860761987
0.000985115915
0.0009847129283
0.0009845889664
0.0009846133367
0.0009847288559
0.0009849156864
0.0009851745944
0.0009855204908
0.000985982024
0.0009866061018
0.000987470389
0.0009887103761
0.0009905817197
0.0009936905327
547.0968255
183.3234713
39.34407916
5.438455095
0.4115927881
0.01875451026
0.001618720798
0.001050359257
0.0009957316369
0.0009732493158
0.0009626099977
0.0009585434145
0.0009583538152
0.0009606364191
0.0009645008872
0.0009694556174
0.0009752104987
0.0009814774905
0.0009879417422
0.0009942691313
0.001000122117
0.001005182548
0.001009207096
0.001012060144
0.001013719503
0.001014268048
0.001013862345
0.001012702753
0.001011000081
0.00100895637
0.001006748506
0.001004522275
0.001002388266
0.001000422527
0.0009986691233
0.000997144488
0.0009958412157
0.0009947317988
0.0009937721792
0.0009929056659
0.0009920680934
0.0009911955618
0.0009902289061
0.0009890922392
0.0009876816474
0.0009860111697
0.0009851148869
0.0009847415151
0.0009846321717
0.0009846652906
0.0009847878882
0.0009849820123
0.0009852492475
0.0009856048319
0.0009860774821
0.0009867139859
0.00098759166
0.0009888449448
0.0009907264736
0.0009938296593
547.7799904
144.938356
30.57945136
3.759759177
0.2261340598
0.008530362409
0.001265510135
0.001037003277
0.0009964795387
0.0009777521693
0.0009692720686
0.0009665724044
0.0009672941997
0.0009702005981
0.0009744945834
0.0009797308603
0.000985593182
0.000991763178
0.000997904826
0.001003679456
0.001008768773
0.001012906403
0.001015920321
0.001017751011
0.001018439338
0.001018113602
0.001016953265
0.001015163781
0.001012948495
0.001010495134
0.001007963664
0.001005483144
0.001003149175
0.001001025212
0.0009991452108
0.0009975177509
0.0009961295175
0.0009949486991
0.0009939281782
0.0009930090202
0.000992125176
0.0009912110859
0.0009902070071
0.0009890369099
0.0009875908742
0.0009859518601
0.0009851155092
0.0009847702104
0.000984675021
0.0009847168643
0.0009848466926
0.0009850483415
0.0009853241885
0.000985689802
0.0009861739758
0.0009868233782
0.0009877149442
0.0009889818974
0.0009908733715
0.0009939687865
546.2504029
124.6797679
24.88298322
2.514718074
0.1098747343
0.003620850689
0.001130385605
0.001031625263
0.0009988687913
0.0009833521306
0.0009767866697
0.0009752828431
0.000976791727
0.0009802168215
0.0009848306082
0.0009902118952
0.0009960185793
0.001001911242
0.001007548475
0.001012608088
0.001016811665
0.001019958058
0.001021948036
0.001022788559
0.00102256946
0.00102144886
0.001019616751
0.001017275285
0.001014615958
0.001011810653
0.001009002731
0.001006305732
0.001003801799
0.001001543293
0.0009995553696
0.0009978398268
0.0009963782817
0.0009951352639
0.0009940610882
0.0009930949582
0.0009921692413
0.0009912169194
0.0009901778277
0.0009889761624
0.0009874933763
0.0009858980356
0.0009851178033
0.0009847991193
0.000984717643
0.0009847681926
0.000984905406
0.0009851148121
0.0009853995544
0.0009857755319
0.0009862716199
0.0009869343638
0.0009878402754
0.0009891211809
0.0009910222644
0.0009941077936
540.8288928
116.0915403
20.51017525
1.562560747
0.04345380627
0.001725752622
0.001089976673
0.001030110977
0.001002663353
0.0009899592534
0.0009850364446
0.0009845676763
0.000986743074
0.0009905654654
0.0009953671196
0.001000735536
0.001006311192
0.001011748525
0.001016719283
0.001020936384
0.001024176491
0.00102630772
0.001027297398
0.001027205565
0.001026156458
0.001024324784
0.001021901765
0.001019080771
0.001016039182
0.00101293284
0.001009889492
0.001007008632
0.001004360493
0.001001987741
0.0009999079055
0.0009981169392
0.0009965921143
0.0009952948501
0.0009941733094
0.0009931651573
0.00099220143
0.0009912138136
0.0009901418438
0.0009889104055
0.0009873889927
0.0009858494457
0.0009851217738
0.0009848283341
0.0009847601565
0.0009848194012
0.000984964156
0.0009851815518
0.0009854754705
0.0009858621388
0.0009863705144
0.0009870470115
0.0009879676697
0.0009892627261
0.000991173013
0.0009942465464
530.4905426
115.1748326
16.7050545
0.8968455467
0.01381998159
0.001244066326
0.001079278984
0.001030958971
0.001007780838
0.0009974289322
0.0009939333317
0.0009943427863
0.0009970417002
0.001001115815
0.001005948907
0.001011131882
0.001016301183
0.001021121738
0.001025295634
0.001028584945
0.001030828246
0.001031958724
0.001031999436
0.00103104923
0.001029253666
0.001026793768
0.001023855623
0.001020620668
0.001017251424
0.00101388835
0.001010644931
0.001007608158
0.001004837823
0.001002368162
0.001000210107
0.0009983545699
0.0009967750927
0.0009954304482
0.0009942669976
0.0009932211402
0.0009922227938
0.0009912024768
0.0009900995156
0.0009888400807
0.0009872775115
0.0009858058367
0.0009851274141
0.0009848579359
0.0009848026702
0.0009848706059
0.0009850230597
0.0009852486766
0.0009855520487
0.0009859497254
0.0009864707427
0.0009871613727
0.0009880971241
0.0009894064476
0.000991325471
0.0009943849012
515.2219872
107.6942307
12.74403236
0.4650780078
0.003818000203
0.001168634169
0.001075125948
0.001033557021
0.001013983454
0.001005668794
0.001003382146
0.001004493262
0.001007550891
0.001011712517
0.001016407288
0.00102123252
0.001025835634
0.001029907681
0.001033194147
0.001035513578
0.00103676597
0.001036939683
0.001036101006
0.001034374433
0.001031916293
0.001028906557
0.001025522261
0.001021931498
0.00101828219
0.001014700564
0.001011287332
0.001008118481
0.001005244701
0.001002692909
0.001000468331
0.0009985575182
0.0009969308043
0.0009955447048
0.0009943440747
0.0009932642779
0.0009922342937
0.000991183571
0.0009900512812
0.0009887656684
0.0009871586297
0.0009857669585
0.0009851347093
0.0009848879956
0.0009848452828
0.0009849219131
0.0009850822238
0.000985316291
0.0009856293882
0.0009860383796
0.0009865723722
0.0009872774806
0.000988228616
0.000989552243
0.0009914794592
0.0009945227062
495.2561402
96.07466787
9.03760856
0.2088311235
0.001689509514
0.001152754636
0.001073380406
0.001037593234
0.001021121318
0.001014539706
0.00101323936
0.001014864758
0.00101810563
0.001022184661
0.001026573355
0.001030884193
0.00103478976
0.001038019596
0.001040370084
0.001041717052
0.001042015112
0.00104129629
0.001039657706
0.001037238551
0.001034198065
0.001030710364
0.001026941362
0.001023045599
0.001019157279
0.00101538977
0.001011832499
0.001008551833
0.001005590551
0.001002969216
0.001000688098
0.000998729971
0.0009970623944
0.0009956399543
0.0009944062483
0.0009932958008
0.000992236806
0.0009911577144
0.0009899975543
0.0009886877049
0.0009870343119
0.0009857325701
0.000985143639
0.000984918575
0.0009848880835
0.0009849734185
0.0009851417442
0.0009853844873
0.0009857075744
0.0009861281736
0.0009866754527
0.0009873953499
0.000988362102
0.0009896999913
0.0009916347793
0.0009946597997
471.1923323
82.29218873
5.981724288
0.09064117887
0.001424444481
0.001142221399
0.001073677951
0.001042840075
0.001029010146
0.001023870914
0.001023335715
0.00102528522
0.001028533278
0.001032365324
0.001036295548
0.0010399626
0.00104307547
0.001045409717
0.001046814475
0.001047218276
0.00104662003
0.001045084558
0.001042728746
0.001039698077
0.00103614933
0.001032247997
0.001028148126
0.001023991244
0.001019899042
0.001015973454
0.001012294024
0.001008918737
0.001005883494
0.001003203329
0.001000874196
0.0009988755754
0.0009971726167
0.0009957182524
0.0009944550331
0.0009933168117
0.0009922311294
0.0009911254863
0.0009899387213
0.0009886067096
0.0009869203604
0.0009857024422
0.0009851541787
0.0009849497274
0.0009849311515
0.0009850252079
0.0009852017054
0.0009854533454
0.0009857866786
0.0009862191641
0.0009867800164
0.0009875149752
0.0009884975173
0.0009898495512
0.0009917912193
0.0009947960081
443.2449729
68.69802382
3.823468637
0.04020730782
0.001316793019
0.001135195515
0.001075685105
0.001049061551
0.00103745378
0.001033480112
0.001033493261
0.001035580028
0.001038667555
0.001042104282
0.0010454495
0.001048377825
0.001050641574
0.001052064723
0.001052546195
0.001052059123
0.001050635851
0.001048364388
0.001045372477
0.001041805885
0.001037815629
0.001033557287
0.001029173178
0.001024792791
0.001020526625
0.001016466556
0.001012683514
0.00100922819
0.001006130494
0.001003400628
0.001001030766
0.0009989974987
0.0009972638753
0.0009957814047
0.0009944917697
0.0009933282977
0.0009922179923
0.000991087432
0.0009898751413
0.0009885226067
0.0009868161008
0.0009856763575
0.0009851663008
0.0009849814977
0.0009849745563
0.0009850773563
0.0009852621805
0.0009855229324
0.0009858667575
0.0009863113905
0.0009868860767
0.0009876363305
0.0009886347743
0.0009900007611
0.0009919485503
0.0009949311505
411.1976558
55.66828355
2.440261032
0.01537899629
0.001267025802
0.001131061392
0.001079103995
0.001056032146
0.001046256886
0.001043183993
0.001043536143
0.001045583688
0.001048360199
0.001051278166
0.001053944499
0.001056076131
0.001057471023
0.001057999557
0.001057604197
0.001056293154
0.001054122462
0.001051195364
0.001047643832
0.001043609947
0.001039237269
0.001034671149
0.001030042882
0.001025471069
0.001021056347
0.001016881799
0.001013010866
0.001009487884
0.001006337525
0.001003565745
0.001001161387
0.0009990984953
0.0009973382727
0.0009958310009
0.0009945176487
0.000993331146
0.0009921980643
0.000991044073
0.0009898071736
0.0009884353083
0.0009867209122
0.0009856541114
0.0009851799747
0.0009850139232
0.0009850183576
0.0009851299278
0.0009853232304
0.0009855933015
0.0009859478522
0.0009864048752
0.0009869936272
0.0009877593683
0.0009887737622
0.0009901534384
0.0009921065275
0.0009950650417
375.0503678
43.80469049
1.498593654
0.006511754324
0.001241803193
0.001129258738
0.001083624196
0.001063519656
0.001055222487
0.001052803263
0.001053300171
0.00105515144
0.001057492029
0.001059798887
0.001061727566
0.001063039614
0.001063577022
0.001063251541
0.001062041325
0.001059980405
0.001057140873
0.001053634589
0.001049593329
0.001045153165
0.001040449613
0.001035618102
0.001030779889
0.001026043896
0.00102150214
0.001017230048
0.001013284547
0.001009704418
0.001006509728
0.001003702683
0.00100126917
0.0009991809698
0.0009973976546
0.0009958684453
0.0009945337298
0.0009933261566
0.0009921719625
0.0009909959114
0.0009897351812
0.0009883446775
0.000986634222
0.0009856355108
0.0009851951674
0.000985047033
0.0009850626054
0.0009851829755
0.0009853849038
0.0009856644923
0.0009860299883
0.0009864996221
0.0009871026416
0.0009878840182
0.0009889143461
0.0009903073801
0.0009922648913
0.0009951974913
335.8050693
32.96482583
0.8585944468
0.003218151885
0.001226739784
0.001129329642
0.001088962512
0.001071304483
0.001064163641
0.001062172178
0.001062641997
0.001064167
0.001065977982
0.001067614592
0.001068780343
0.001069279952
0.00106899511
0.001067872351
0.001065917507
0.001063182491
0.00105974979
0.001055734697
0.001051266174
0.001046473165
0.00104148324
0.001036422588
0.001031403509
0.001026526424
0.001021875851
0.001017520556
0.001013511787
0.001009883447
0.001006651532
0.001003814908
0.00100135682
0.0009992470243
0.0009974436444
0.0009958949823
0.0009945409621
0.0009933140565
0.0009921402635
0.0009909434415
0.0009896595449
0.0009882504964
0.0009865555039
0.0009856203733
0.0009852118427
0.0009850808485
0.0009851073394
0.0009852365411
0.0009854472362
0.0009857365294
0.0009861131739
0.0009865956155
0.0009872130717
0.0009880101854
0.0009890563661
0.0009904623615
0.0009924233652