/*--------------------------------*- C++ -*----------------------------------*\
  =========                 |
  \\      /  F ield         | OpenFOAM: The Open Source CFD Toolbox
   \\    /   O peration     | Website:  https://openfoam.org
    \\  /    A nd           | Version:  12
     \\/     M anipulation  |
\*---------------------------------------------------------------------------*/
FoamFile
{
    format      ascii;
    class       volScalarField;
    location    "600";
    object      Ma;
}
// * * * * * * * * * * * * * * * * * * * * * * * * * * * * * * * * * * * * * //

dimensions      [];

internalField   nonuniform List<scalar> 
16200
(
0.531608216
0.6337764564
0.6913711927
0.7369652669
0.7797191609
0.8251371112
0.875268108
0.9213567106
0.9383847744
0.9388885821
0.9377654216
0.9367048568
0.9354001735
0.9339630785
0.9322762314
0.930346931
0.9281023943
0.9255036483
0.9224829298
0.9189748334
0.9149006415
0.9101753722
0.9047062963
0.89839647
0.8911497721
0.8828794445
0.8735214112
0.8630533899
0.8515202025
0.8390617366
0.8259336101
0.8125045992
0.7992193893
0.7865320235
0.7748339387
0.7644028169
0.7553853594
0.7478080909
0.7416039607
0.7366425841
0.7327585425
0.7297747908
0.7275198999
0.7258393509
0.7246010616
0.7236969984
0.7230416124
0.7225690571
0.7222296428
0.7219865288
0.7218126868
0.7216884547
0.721599607
0.7215357243
0.7214894278
0.7214545291
0.7214285589
0.7214062795
0.721389706
0.7213665969
0.5436110285
0.6489332492
0.7082687181
0.7553275078
0.7998727211
0.8477513738
0.8996762371
0.9396499642
0.9494343803
0.9491579649
0.9479695977
0.9468238475
0.9454221499
0.943868881
0.9420412728
0.9399415577
0.9374925195
0.9346477213
0.9313330803
0.9274745079
0.922985049
0.9177705662
0.9117298928
0.9047586907
0.8967561718
0.8876359672
0.8773434883
0.8658806297
0.8533367765
0.8399183505
0.8259611616
0.8119075016
0.7982440882
0.7854204557
0.7737806596
0.7635311852
0.7547465079
0.7473967086
0.7413810069
0.7365562508
0.7327592318
0.7298226481
0.7275870782
0.7259086281
0.7246633533
0.7237485756
0.7230819575
0.722599246
0.7222514062
0.7220016688
0.7218228307
0.7216949685
0.7216035517
0.7215379926
0.7214905078
0.7214551219
0.721428437
0.7214062724
0.7213893718
0.7213649708
0.5552414
0.6637287347
0.7248371933
0.7734755613
0.8200095851
0.8702876279
0.923088163
0.9540269583
0.9585404687
0.9577126304
0.9564528414
0.9552083403
0.9536822216
0.9519809632
0.9499783112
0.9476698826
0.9449746037
0.9418379109
0.9381792596
0.9339154362
0.9289507413
0.9231812722
0.9164966137
0.9087844632
0.8999400041
0.8898810065
0.8785713256
0.8660525365
0.8524796044
0.838146939
0.8234836707
0.8090027226
0.7952134969
0.7825328735
0.771230896
0.7614243364
0.7531059434
0.7461864244
0.7405314879
0.7359869536
0.7323939327
0.7295976881
0.7274538626
0.7258326283
0.7246214819
0.7237261787
0.7230701837
0.7225929871
0.7222478586
0.7219993698
0.7218210721
0.7216934412
0.7216021497
0.7215367289
0.7214893677
0.7214542675
0.7214276121
0.721405848
0.7213892544
0.721365037
0.5660235638
0.6774106684
0.7401907712
0.7906032083
0.8394874188
0.8919395901
0.9429107988
0.9640542
0.9653832703
0.9643849865
0.9630435977
0.9616865758
0.9600256229
0.9581617925
0.9559666871
0.9534274211
0.950458894
0.9469973791
0.9429551733
0.9382391646
0.9327440421
0.9263554056
0.9189534167
0.9104195431
0.9006502807
0.8895781363
0.8772019866
0.8636247777
0.8490898324
0.8339948708
0.8188601253
0.8042457843
0.7906471372
0.7784123674
0.767713421
0.7585681013
0.7508894068
0.744535935
0.7393479697
0.7351669066
0.7318429637
0.7292374197
0.7272236637
0.7256882427
0.7245321145
0.7236712489
0.723036402
0.7225720131
0.7222345795
0.7219907084
0.7218152062
0.7216892991
0.7215991149
0.721534454
0.7214876358
0.7214530327
0.7214265985
0.7214052342
0.7213889323
0.7213645658
0.5760430645
0.6902227771
0.7546198247
0.8068625218
0.8583444433
0.912947434
0.9575771829
0.9704665329
0.9703137037
0.9692173235
0.9677702522
0.9662798923
0.9644614916
0.9624077356
0.9599894727
0.9571837027
0.953901051
0.9500675139
0.945587025
0.9403552108
0.934255875
0.9271639521
0.9189522316
0.9095016967
0.898720498
0.886571311
0.8731085398
0.8585201237
0.8431576922
0.8275273584
0.8122224893
0.7978129471
0.7847371072
0.7732417466
0.7633853463
0.7550867934
0.7481882945
0.7425076658
0.7378695881
0.734117874
0.7311160707
0.7287439377
0.7268942198
0.7254711259
0.7243902734
0.723579004
0.7229764298
0.7225328784
0.7222088517
0.7219736136
0.7218036974
0.7216814338
0.7215936639
0.7215306331
0.7214849489
0.7214511963
0.7214252724
0.7214044039
0.7213885467
0.7213642132
0.5850957938
0.7019673178
0.7679441475
0.8220797554
0.8761941572
0.9324473923
0.9677305668
0.9743315773
0.9732913959
0.9721105456
0.9705401235
0.9688984991
0.9669036253
0.9646358611
0.9619660213
0.9588590222
0.9552201228
0.950963556
0.9459835527
0.9401639843
0.9333785354
0.92549461
0.9163836462
0.9059356005
0.8940835637
0.8808383796
0.8663327966
0.8508628383
0.8349003165
0.8190482499
0.8039367313
0.790096703
0.7778674515
0.7673709231
0.758548626
0.7512304712
0.7452031182
0.7402581404
0.7362156138
0.7329287117
0.7302780603
0.7281635988
0.7264981325
0.7252038824
0.7242114572
0.7234599793
0.7228973852
0.7224803694
0.7221738815
0.721950223
0.7217879627
0.7216707775
0.7215864017
0.7215256574
0.7214815458
0.7214489108
0.7214236998
0.7214033939
0.721388047
0.7213637274
0.5929821739
0.7125321363
0.7801380587
0.8364131447
0.893176604
0.9486890386
0.9738171246
0.9765470764
0.9743245128
0.9730410747
0.9713308778
0.969515308
0.9673182899
0.9648044084
0.9618448067
0.9583909402
0.9543421079
0.9496006367
0.9440514424
0.9375683238
0.9300176699
0.921263923
0.9111838914
0.8996866731
0.8867456973
0.8724417566
0.8570111626
0.8408764205
0.8246265147
0.8089297567
0.7944019937
0.7814849643
0.770386351
0.7610939039
0.7534407278
0.7471850612
0.7420762664
0.7378945158
0.7344653671
0.7316571141
0.7293700989
0.7275251866
0.7260551168
0.724899747
0.7240043843
0.7233198172
0.7228028606
0.7224167371
0.7221310571
0.7219213782
0.7217685024
0.7216576201
0.7215774903
0.7215196146
0.721477468
0.7214461989
0.7214218859
0.7214022164
0.7213874578
0.7213631932
0.5994941285
0.7217790021
0.7912117349
0.849992852
0.9094531059
0.9599287089
0.9764048667
0.9749539788
0.973427469
0.9720162196
0.9701421236
0.9681224568
0.96569025
0.9628917043
0.9595988091
0.9557491328
0.9512359672
0.9459503257
0.9397685338
0.9325560018
0.9241743914
0.9144898272
0.9033926201
0.8908249036
0.8768218529
0.861561254
0.845406382
0.8289110948
0.8127568871
0.7976268575
0.7840654512
0.7723828338
0.7626379123
0.7546896176
0.7482809005
0.7431198151
0.7389370877
0.7355149689
0.7326928026
0.7303582227
0.7284327553
0.7268580884
0.7255861092
0.7245733913
0.7237791753
0.7231653987
0.7226974721
0.7223450403
0.7220823812
0.7218883739
0.7217461415
0.7216424787
0.7215672473
0.7215126955
0.7214728244
0.7214431234
0.7214198574
0.7214008876
0.721386776
0.7213625805
0.6045092566
0.7295887273
0.8012149151
0.862753974
0.9243570695
0.9664593893
0.9734363654
0.9724431985
0.9706535107
0.9690783954
0.9670201702
0.9647703852
0.9620741644
0.9589573266
0.955292703
0.9510036174
0.9459767643
0.9400919565
0.9332171173
0.9252110441
0.9159348311
0.9052646918
0.8931184704
0.8794920838
0.8645091341
0.8484707738
0.8318791885
0.8154027137
0.7997684801
0.7856132158
0.7733579477
0.763154664
0.7549136325
0.7483827133
0.7432387581
0.7391619046
0.7358810672
0.733191477
0.7309522643
0.7290729282
0.7274965264
0.7261847518
0.7251073726
0.7242363985
0.7235439409
0.7230023097
0.7225850068
0.7222678077
0.7220295165
0.7218522858
0.721721564
0.7216257789
0.7215559307
0.7215050516
0.7214676994
0.7214397308
0.7214176334
0.7213994182
0.7213860081
0.7213619001
0.608227479
0.7363218765
0.8104766267
0.8748083671
0.9364963538
0.9689447182
0.9694994336
0.9680269358
0.9661520332
0.9643913542
0.962125872
0.9596169303
0.9566236541
0.9531500358
0.9490691013
0.9442896429
0.9386909976
0.9321423543
0.9245047181
0.9156345884
0.905400601
0.8937026098
0.8805058685
0.8658855545
0.8500799899
0.8335303058
0.8168699804
0.8008417278
0.7861563029
0.7733441213
0.7626656541
0.7541073289
0.7474462065
0.7423448423
0.7384397685
0.7354035667
0.732976997
0.7309761566
0.7292836631
0.7278318792
0.7265848226
0.7255228531
0.724632047
0.7238983676
0.7233055683
0.7228354055
0.7224688295
0.7221873329
0.7219740009
0.7218141275
0.7216954252
0.721607935
0.7215437958
0.7214968354
0.7214621799
0.7214360691
0.7214152348
0.7213978178
0.721385156
0.7213611487
0.6108337555
0.7422615239
0.8192822325
0.8866286204
0.9444866503
0.9640745233
0.963649403
0.9620935745
0.9600685463
0.9580926941
0.9555908109
0.9527873851
0.9494561968
0.9455783521
0.9410261762
0.935694453
0.9294556328
0.9221710484
0.9136993381
0.9039023802
0.8926676569
0.8799350884
0.8657400755
0.8502638196
0.8338800542
0.8171697775
0.8008670574
0.7857307215
0.7723894382
0.7612196801
0.752304542
0.745475703
0.7404031884
0.7366932133
0.7339661185
0.7319036695
0.7302684231
0.7289022776
0.7277130132
0.72665562
0.7257138291
0.7248849969
0.7241697833
0.7235665447
0.7230693887
0.7226685309
0.7223516604
0.7221055049
0.7219171222
0.7217747602
0.7216682896
0.7215893082
0.7215310673
0.7214881816
0.7214563433
0.7214321809
0.7214126802
0.7213960962
0.7213842226
0.7213603277
0.612342847
0.7475306288
0.8275431835
0.8976245474
0.9483556302
0.9584923043
0.9563294345
0.9546518242
0.9524572049
0.9502383881
0.9474685504
0.9443324109
0.9406186189
0.9362854924
0.931204303
0.9252576085
0.9183128255
0.9102277655
0.9008650938
0.8901020861
0.8778595277
0.8641370655
0.8490644412
0.832952371
0.8163191937
0.7998646662
0.7843709389
0.7705457829
0.7588784934
0.7495637702
0.7425112847
0.737422627
0.7338922108
0.731497915
0.7298641476
0.7286942645
0.7277789712
0.7269883571
0.7262554459
0.7255567256
0.7248939624
0.7242796762
0.7237273542
0.7232461994
0.7228394026
0.7225046525
0.7222356508
0.7220238513
0.7218599431
0.7217349082
0.7216406397
0.7215702123
0.7215179436
0.7214792113
0.7214502601
0.7214281055
0.7214099875
0.721394265
0.7213832102
0.7213594361
0.6127453792
0.7523033541
0.8354435092
0.9064383831
0.9459260821
0.9500138449
0.9475616807
0.9457737724
0.9433697693
0.9408740691
0.93779983
0.9342901616
0.9301486045
0.9253118119
0.919649519
0.9130337557
0.9053286632
0.8963932137
0.8861018273
0.8743605402
0.8611430066
0.8465333194
0.830779425
0.8143342443
0.7978506456
0.7821042585
0.7678580771
0.7557044207
0.7459542014
0.7386149603
0.7334440135
0.7300454489
0.7279697392
0.7267905919
0.7261518466
0.725786585
0.7255169147
0.7252415199
0.7249176069
0.7245414609
0.7241309827
0.723711991
0.7233090988
0.7229408876
0.7226184263
0.7223459336
0.7221224175
0.721943551
0.7218033032
0.7216951559
0.721612873
0.7215509104
0.7215045939
0.7214700291
0.7214439925
0.7214238779
0.7214071725
0.7213923361
0.7213821216
0.7213584735
0.6121652602
0.7567414656
0.8432112117
0.912039448
0.9390451132
0.9401705134
0.9374525457
0.935499483
0.9328611527
0.9300611602
0.9266514825
0.9227333935
0.9181235151
0.9127379622
0.9064444399
0.899107346
0.8905916158
0.8807654598
0.8695270687
0.8568284717
0.842718624
0.8273920174
0.8112334985
0.7948337444
0.7789455256
0.764359648
0.7517503226
0.7415443858
0.7338587434
0.7285286191
0.7251910635
0.7233873373
0.7226522092
0.7225740617
0.722826574
0.7231769787
0.7234796196
0.7236607674
0.7237000236
0.7236114657
0.7234271684
0.7231844485
0.7229174553
0.7226527962
0.7224083089
0.7221938677
0.7220131229
0.7218654801
0.7217478447
0.721655962
0.7215853086
0.7215316189
0.7214911602
0.721460725
0.721437595
0.7214195291
0.7214042502
0.7213903195
0.7213809591
0.7213574395
0.6109610765
0.7610127406
0.85033791
0.9140276356
0.9299209621
0.9289878058
0.9261381079
0.9239814217
0.92107903
0.9179397637
0.9141523467
0.9097777748
0.9046440034
0.8986497745
0.8916628248
0.8835459002
0.8741721151
0.8634300936
0.8512571101
0.8376709955
0.8228190277
0.8070253442
0.7908170869
0.774898813
0.7600659288
0.7470549319
0.7363930526
0.7283139969
0.7227477647
0.7193865967
0.7177838145
0.7174500241
0.7179270104
0.7188310606
0.7198717142
0.720851857
0.721657179
0.7222396289
0.7225990248
0.7227651312
0.7227822899
0.7226976394
0.7225534203
0.7223830476
0.7222101298
0.7220494032
0.7219085508
0.7217902578
0.7216940392
0.7216176744
0.721558196
0.721512511
0.7214777592
0.7214513747
0.7214311147
0.7214150865
0.7214012345
0.7213882242
0.7213797171
0.7213563343
0.6095973655
0.7655694184
0.8557581719
0.9103075197
0.9184129767
0.9166984487
0.9137148412
0.9112919635
0.9080808654
0.9045517009
0.9003301982
0.8954402365
0.8897208952
0.8830579933
0.8753222699
0.8663813013
0.8561247614
0.8444748309
0.8314262135
0.8170855452
0.8017205197
0.7857926648
0.769954127
0.7549794319
0.7416370288
0.7305438796
0.7220434432
0.7161729785
0.7127001844
0.711211105
0.7112108103
0.7122060714
0.7137622306
0.7155316005
0.7172620914
0.7187916415
0.7200352893
0.7209682634
0.7216082772
0.7219987183
0.7221944154
0.7222508104
0.7222169484
0.722131974
0.7220243818
0.7219130627
0.7218091834
0.7217182943
0.7216422168
0.7215805477
0.7215317243
0.721493723
0.7214644857
0.7214420413
0.7214245921
0.7214105746
0.7213981395
0.7213860573
0.7213783833
0.7213551581
0.6085295117
0.769932804
0.858484572
0.9011844264
0.9054465063
0.9032326666
0.9000811383
0.8973451069
0.8937901534
0.8898329491
0.8851356913
0.8796878423
0.8733387469
0.8659651409
0.8574440242
0.847656274
0.8365210441
0.8240129942
0.8102070687
0.7953204532
0.7797530615
0.7640948458
0.749082981
0.7355000953
0.7240210558
0.7150949787
0.7088690551
0.7052014135
0.703732413
0.7039797698
0.7054310297
0.7076094105
0.7101145284
0.7126386657
0.7149680474
0.7169736913
0.7185973727
0.7198350133
0.720719932
0.7213072043
0.7216605325
0.7218423154
0.7219072741
0.7218993418
0.7218511252
0.7217850472
0.721715269
0.7216498341
0.7215925929
0.7215447591
0.7215060323
0.7214753588
0.7214514147
0.7214327771
0.7214180618
0.7214060152
0.7213949778
0.7213838237
0.721376985
0.7213539116
0.6085415463
0.7735131815
0.8580217686
0.8909754675
0.8910644253
0.8885861368
0.8852403006
0.8821562918
0.8782262155
0.8738055351
0.86859149
0.8625422707
0.855517892
0.8473927232
0.8380578818
0.827421461
0.8154499522
0.8021914975
0.7878219939
0.772681642
0.7572967581
0.7423556971
0.7286265705
0.7168308877
0.7074988777
0.7008871084
0.6969553266
0.6954138029
0.6958140633
0.6976398069
0.7003852
0.7036037222
0.7069350875
0.7101123731
0.7129583539
0.7153743717
0.7173260753
0.7188275115
0.7199254523
0.7206849044
0.721177014
0.7214699601
0.7216231634
0.7216845324
0.721690115
0.7216653225
0.7216268807
0.7215849941
0.7215452929
0.7215104242
0.7214812177
0.7214574964
0.7214386054
0.7214236245
0.7214115533
0.7214014278
0.7213917603
0.7213815289
0.7213755302
0.721352596
0.6104808541
0.7755991055
0.8544303115
0.8771269172
0.8754891976
0.8728278536
0.8692298813
0.8657498248
0.8613973296
0.8564611866
0.8506752479
0.8439723684
0.8362273289
0.8273229288
0.8171760526
0.8057375179
0.7930378404
0.7792150018
0.7645578327
0.7495298171
0.7347613599
0.7209923228
0.7089604017
0.6992657497
0.6922630417
0.6880151156
0.6863190007
0.6867751343
0.6888829129
0.6921200991
0.6960046993
0.7001286477
0.7041738336
0.7079128245
0.7112021699
0.7139704328
0.716204269
0.7179334298
0.7192161833
0.7201259102
0.7207399531
0.7211312572
0.7213631044
0.7214866814
0.7215409002
0.7215536896
0.7215439643
0.7215237965
0.7215003735
0.72147761
0.7214573451
0.7214401919
0.721426103
0.7214146184
0.7214050921
0.7213968298
0.7213884957
0.7213791766
0.7213740098
0.721351213
0.614511637
0.7756735081
0.8456159133
0.8618736331
0.8586905075
0.8558201736
0.851920503
0.8479968048
0.843177476
0.837682649
0.8312858067
0.8239026801
0.8154278573
0.8057636901
0.7948637909
0.782735532
0.7694880958
0.7553618378
0.7407618458
0.7262607104
0.7125563024
0.7003834011
0.6903894383
0.6830128408
0.6784212397
0.6765020721
0.6769241235
0.6792164494
0.6828577097
0.6873406474
0.6922180508
0.6971240675
0.7017822086
0.7060019182
0.709670258
0.7127398618
0.7152156764
0.7171409543
0.7185837244
0.7196243832
0.7203453961
0.7208236071
0.7211254459
0.7213047835
0.7214029011
0.7214498401
0.7214663769
0.7214661947
0.7214578401
0.7214463467
0.7214344535
0.7214234842
0.7214139422
0.7214057868
0.7213986998
0.7213922367
0.7213851925
0.7213767704
0.7213724368
0.7213497644
0.6196726318
0.773758677
0.8324382833
0.8445828763
0.8405309385
0.8374278902
0.8331906447
0.8287974587
0.8234917876
0.8174251305
0.8104121381
0.8023602202
0.7931882874
0.7828289093
0.7712840894
0.7586323047
0.7450757848
0.7309651618
0.7168143144
0.7032740761
0.6910606297
0.6808452554
0.673137444
0.6681952378
0.6660065605
0.6663146608
0.6686979065
0.6726482988
0.6776481932
0.683219395
0.6889552958
0.6945328063
0.6997148268
0.7043443815
0.7083356577
0.7116623506
0.7143452193
0.7164390616
0.7180201543
0.7191747414
0.7199894947
0.720544422
0.720908496
0.7211377675
0.7212754662
0.7213533974
0.721393917
0.7214120945
0.7214176611
0.7214166369
0.721412562
0.7214073986
0.7214021484
0.7213971525
0.7213923956
0.7213876625
0.7213818589
0.7213743208
0.7213708198
0.7213482504
0.6236631425
0.7697298417
0.8184994672
0.8257104127
0.8210788191
0.8177060368
0.8131140564
0.8082373061
0.8024366857
0.7957980363
0.7881766835
0.7794823347
0.7696646378
0.7586997865
0.7466531829
0.73368972
0.7201146362
0.7063853565
0.693100905
0.6809459479
0.6705991656
0.6626178965
0.6573450117
0.6548591218
0.6549920418
0.657379424
0.6615450272
0.6669715888
0.6731624847
0.6796768753
0.686150751
0.692302208
0.6979303631
0.7029082819
0.7071740006
0.7107195136
0.7135791878
0.7158176608
0.7175181562
0.7187717693
0.7196686029
0.7202912074
0.7207105889
0.7209845505
0.7211579135
0.7212639489
0.7213263477
0.7213613702
0.7213797791
0.7213884632
0.7213916752
0.7213919503
0.7213907402
0.7213887338
0.7213861959
0.7213831198
0.7213785034
0.7213718439
0.7213691828
0.7213466699
0.6267615868
0.7631522829
0.8014533795
0.8055082621
0.8005182255
0.7968119571
0.7918446978
0.7864636422
0.7801498816
0.7729326699
0.7647081822
0.7554028227
0.7450076334
0.7335585747
0.7211992759
0.7081909189
0.6949401639
0.6819918703
0.6699914984
0.6596064816
0.6514261127
0.6458592173
0.6430740146
0.6429869931
0.6453067619
0.6495976315
0.6553591882
0.6620855093
0.6693120083
0.676639016
0.6837444845
0.6903848526
0.6963918732
0.7016651619
0.7061635696
0.7098949249
0.712905278
0.7152676391
0.7170710694
0.7184106732
0.7193793303
0.7200616115
0.7205301283
0.720844074
0.7210495603
0.7211810678
0.7212634133
0.7213138774
0.7213441199
0.7213617943
0.7213717866
0.7213771461
0.721379731
0.7213805459
0.7213801153
0.7213786201
0.7213751352
0.7213693591
0.7213675439
0.7213450321
0.6280490575
0.7539383682
0.7826535767
0.784189472
0.7789208716
0.7748031905
0.7694292721
0.763515111
0.7566641044
0.748865699
0.7400591505
0.7302039229
0.7193449777
0.7075910747
0.6951726679
0.6824462349
0.6699044094
0.6581467588
0.6478188964
0.6395216328
0.633716103
0.6306474179
0.6303189545
0.6325132761
0.6368510669
0.6428575149
0.6500316613
0.6578928343
0.6660144332
0.6740385792
0.681682901
0.6887387069
0.6950667558
0.7005899401
0.7052852019
0.7091740468
0.7123125507
0.7147808463
0.7166728946
0.7180870985
0.7191185664
0.7198534524
0.7203656122
0.7207153273
0.720949742
0.7211043297
0.7212048518
0.7212694619
0.7213105993
0.7213365898
0.7213528825
0.7213629875
0.7213691296
0.7213726011
0.721374167
0.7213741741
0.721371764
0.7213668857
0.7213657924
0.7213433675
0.6269317974
0.7381511163
0.7620947912
0.7616597867
0.7561678922
0.7515617007
0.7457570314
0.7393022096
0.731918547
0.723576267
0.7142611673
0.7039792923
0.6928392959
0.6810298949
0.6688685073
0.6567952115
0.6453621087
0.635183264
0.6268583298
0.6208815607
0.6175643508
0.6169909687
0.6190223889
0.623340059
0.6295097837
0.6370437489
0.645457275
0.6543032528
0.6631952626
0.6718157404
0.6799188038
0.6873269658
0.6939265295
0.6996607004
0.7045221188
0.7085441054
0.7117913493
0.7143500475
0.7163182704
0.7177971245
0.718883487
0.719664729
0.7202156484
0.7205973611
0.7208578257
0.7210333228
0.7211504037
0.7212279667
0.7212791275
0.7213128035
0.7213349436
0.7213494714
0.721358942
0.7213649096
0.7213683627
0.7213697915
0.7213683998
0.7213644307
0.7213639747
0.7213416653
0.6230915146
0.7212162794
0.7396619173
0.737716185
0.7320540507
0.7269401898
0.7207173403
0.7137640514
0.7059063483
0.6971154934
0.6874279191
0.6769066672
0.6657307447
0.6541703731
0.6426220699
0.6315884635
0.621646978
0.6133841421
0.6073140304
0.6037984698
0.6029949287
0.6048431052
0.6090908868
0.6153510683
0.6231625921
0.6320441323
0.6415381551
0.6512351169
0.6607884007
0.6699180469
0.6784110951
0.686117684
0.6929464889
0.6988584074
0.7038597066
0.7079939328
0.7113331917
0.7139688531
0.7160024334
0.7175372435
0.7186715457
0.7194936221
0.7200789595
0.7204892946
0.7207732164
0.7209676549
0.7210998172
0.721189236
0.7212496134
0.7212903861
0.7213179476
0.7213365918
0.7213491716
0.7213574801
0.7213627134
0.7213654814
0.721365054
0.721362005
0.7213620688
0.7213399481
0.6163234844
0.7023841314
0.715456386
0.7123636375
0.7065566962
0.7009687405
0.6943674894
0.6869907154
0.6787557167
0.6696522007
0.6597724715
0.6492445027
0.6383201045
0.6273454443
0.6167794083
0.6071580356
0.599046297
0.5929648676
0.5893137298
0.5883118953
0.58997316
0.5941168969
0.6004089909
0.6084224123
0.6176911149
0.6277535887
0.6381855423
0.6486159339
0.6587359558
0.6682999329
0.677124227
0.6850832707
0.6921052831
0.6981665755
0.7032852688
0.7075137878
0.7109306455
0.7136316354
0.7157211641
0.7173043294
0.7184804578
0.7193384867
0.7199543805
0.7203903174
0.7206953613
0.7209069566
0.7210528522
0.7211531188
0.7212219661
0.7212692871
0.7213018699
0.7213243407
0.72133982
0.7213503199
0.7213572286
0.7213612524
0.7213617385
0.7213596165
0.7213600733
0.7213382336
0.6067001338
0.682142301
0.6897383592
0.6857549086
0.6797981175
0.6737878339
0.6668617699
0.6591538077
0.6506638709
0.6414148458
0.6315586917
0.6212914866
0.6109337675
0.600893795
0.5916681921
0.5837927996
0.5777840553
0.5740670622
0.5729125988
0.5744005476
0.5784208038
0.5847000493
0.5928511726
0.6024308616
0.6129838301
0.6240765829
0.6353206164
0.6463823144
0.6569877916
0.666922149
0.6760276493
0.6842000142
0.691384533
0.6975709737
0.7027878059
0.7070951953
0.7105772142
0.713333451
0.7154707361
0.7170956052
0.7183081805
0.719197842
0.7198408547
0.7202996883
0.7206237497
0.7208508835
0.721009282
0.7211194705
0.7211960973
0.7212494559
0.7212866851
0.7213127083
0.7213308872
0.7213434354
0.7213519172
0.7213571125
0.7213584662
0.7213572729
0.7213579868
0.7213365368
0.5944523766
0.6591496183
0.6626811802
0.6579868864
0.6518922573
0.6455300675
0.6383586548
0.6304410387
0.6218524574
0.6126603971
0.6030776262
0.5933656609
0.5839027972
0.5751386294
0.5675783999
0.5617245953
0.5580155588
0.5567625064
0.5581049608
0.5619979287
0.568231869
0.576468173
0.5862914041
0.5972597922
0.6089391687
0.620928313
0.6328745916
0.6444795333
0.6555008959
0.665751122
0.6750952419
0.6834476143
0.6907684628
0.6970593449
0.7023578058
0.7067307944
0.7102672292
0.713069965
0.7152478648
0.7169086094
0.7181528929
0.7190703597
0.7197374277
0.7202167325
0.7205579129
0.7207991165
0.7209688942
0.7210881537
0.7211719216
0.7212308427
0.7212723669
0.7213016841
0.7213223725
0.7213368319
0.7213467872
0.7213530692
0.7213552509
0.7213549804
0.7213558138
0.7213348754
0.5798567018
0.6339874682
0.6344142851
0.6291517118
0.622960888
0.6163441922
0.609037436
0.601064167
0.5925682464
0.5836681035
0.5746345118
0.5657856758
0.5575406213
0.5503652329
0.5447438492
0.5411172224
0.5398254779
0.541059363
0.5448357329
0.5510052544
0.5592841879
0.5692933958
0.5806085289
0.5928018254
0.6054662798
0.6182343784
0.6307878758
0.64286054
0.6542384344
0.6647581355
0.6743046459
0.6828086555
0.6902434959
0.6966211008
0.7019870177
0.7064141728
0.7099957302
0.7128373669
0.7150496492
0.7167411573
0.7180129697
0.718954847
0.7196432371
0.7201408362
0.7204974214
0.7207513606
0.7209314906
0.7210590388
0.7211493574
0.7212133989
0.7212588893
0.7212912567
0.721314274
0.7213305141
0.7213418453
0.7213491303
0.721352107
0.7213527441
0.7213535591
0.7213332665
0.563012215
0.6069544264
0.6050728225
0.5993883789
0.5931499635
0.5864052169
0.5791046458
0.5712603701
0.5630786421
0.554729325
0.5465333289
0.538851541
0.532122941
0.5268038331
0.5233314244
0.5220638791
0.5232331413
0.526912996
0.5330133882
0.5413035259
0.5514489652
0.5630507086
0.5756896966
0.5889601216
0.6024850153
0.6159300936
0.6290091349
0.6414850145
0.6531689112
0.6639186335
0.6736367089
0.6822681779
0.6897979285
0.6962470773
0.7016682708
0.7061397333
0.709758369
0.7126323015
0.7148735232
0.716591307
0.7178869591
0.7188502326
0.7195575035
0.7200714409
0.7204418815
0.720707343
0.7208968862
0.7210320037
0.7211283269
0.7211970773
0.7212462262
0.7212814139
0.721306589
0.7213244858
0.7213370973
0.7213453033
0.7213490489
0.7213505662
0.7213512304
0.7213317267
0.5440268036
0.5782536007
0.5746747395
0.5688430887
0.5626417327
0.5559240933
0.5488035058
0.5412991505
0.5336729052
0.5261423074
0.5190669597
0.5128333338
0.5078785938
0.5046256754
0.5034440279
0.5045968147
0.5082070137
0.5142423669
0.5225253449
0.5327660409
0.5445997697
0.5576235099
0.5714331981
0.5856494236
0.5999259287
0.6139599809
0.6274946036
0.6403186764
0.6522655557
0.6632117122
0.6730750813
0.6818133635
0.6894216903
0.695929355
0.7013953405
0.7059025962
0.709551338
0.712451818
0.7147172199
0.716457335
0.7177735662
0.7187555563
0.7194795246
0.7200080402
0.7203909337
0.7206668132
0.7208649097
0.7210069339
0.721108756
0.7211818325
0.7212343517
0.7212721433
0.7212993142
0.72131875
0.7213325481
0.7213415961
0.7213460905
0.7213484462
0.7213488395
0.7213302735
0.5230342388
0.5481643592
0.5435255398
0.5377457801
0.5316952
0.5251752179
0.518424343
0.5114803058
0.504652465
0.4981989093
0.4925041427
0.4879615098
0.4849853241
0.4839452679
0.4851290696
0.4887005412
0.4946801739
0.5029451232
0.5132506725
0.5252678881
0.5386185103
0.5529067404
0.5677496263
0.5827960485
0.5977296543
0.6122769199
0.6262072193
0.639332504
0.6515056649
0.662619587
0.6726057947
0.6814332096
0.6891060945
0.695661068
0.7011628045
0.7056984908
0.7093712898
0.712293311
0.7145787287
0.7163377059
0.7176716315
0.7186699533
0.7194086641
0.7199501727
0.7203442481
0.7206295391
0.7208354009
0.7209837216
0.7210905744
0.7211676205
0.7212232404
0.7212634321
0.7212924458
0.721313309
0.7213282012
0.7213380169
0.7213432448
0.7213463812
0.7213464131
0.7213289307
0.5002370244
0.5170890873
0.5120317285
0.5063627087
0.5005914739
0.4944424701
0.4882526544
0.4820856309
0.4762882712
0.4711485086
0.4670601866
0.4644048381
0.4635553492
0.4648134143
0.4683778761
0.4743156169
0.4825560526
0.4929031448
0.5050641514
0.5186880495
0.5333956074
0.5488057782
0.5645601032
0.5803359065
0.5958449983
0.6108404682
0.6251152257
0.6385016133
0.6508697249
0.6621269159
0.6722167463
0.6811181368
0.6888435414
0.6954361817
0.7009658752
0.7055236304
0.7092152444
0.7121544511
0.7144562449
0.716231035
0.7175801047
0.7185926364
0.7193443397
0.719897413
0.7203015188
0.7205953039
0.7208082089
0.7209622639
0.7210737136
0.7211543978
0.7212128663
0.7212552663
0.7212859789
0.7213081636
0.721324059
0.7213345742
0.7213405247
0.7213443678
0.721343992
0.7213277224
0.4756301105
0.4853970586
0.4803913808
0.4749598001
0.4696006748
0.4639966117
0.458557171
0.4533741717
0.4488202404
0.445200773
0.4429031019
0.4422802343
0.4436490229
0.447234052
0.4531442055
0.4613568911
0.4717245945
0.4839954501
0.4978455628
0.5129152762
0.5288332919
0.5452379692
0.5617967417
0.5782143563
0.5942285473
0.6096164099
0.6241917521
0.6378049046
0.65034113
0.6617205825
0.6718975336
0.6808598658
0.688627425
0.6952494214
0.7008003461
0.705374671
0.7090805572
0.7120331616
0.7143481513
0.7161360756
0.717498035
0.7185228891
0.7192860177
0.719849369
0.7202624613
0.7205639044
0.7207831909
0.7209424622
0.7210581076
0.7211421214
0.7212032031
0.7212476315
0.7212799079
0.7213033134
0.7213201227
0.7213312771
0.7213379414
0.721342402
0.7213416223
0.7213265594
0.4497926315
0.4534827889
0.4488469105
0.4437844021
0.4389824949
0.4340976491
0.4295903366
0.4255805582
0.4224550405
0.4205245532
0.4201553959
0.4216583287
0.4252839773
0.4311758696
0.4393566975
0.4497250992
0.4620717198
0.476104912
0.4914836592
0.5078497445
0.5248457128
0.5421318136
0.5594013684
0.5763847622
0.5928432998
0.6085755439
0.6234137863
0.6372242182
0.6499055045
0.6613891601
0.6716390376
0.6806510955
0.688451889
0.695096089
0.7006624548
0.7052486104
0.7089648458
0.711927565
0.714252981
0.7160516922
0.7174245527
0.7184600527
0.7192332052
0.7198056761
0.7202268095
0.7205351489
0.7207602109
0.7209242219
0.7210436919
0.721130749
0.721194224
0.7212405121
0.7212742259
0.7212987563
0.7213163925
0.7213281355
0.7213355027
0.7213404772
0.7213392922
0.7213255144
0.4229182655
0.4217376934
0.4176708702
0.4131065682
0.4089955265
0.4049869017
0.4015719099
0.398896117
0.3973487809
0.397234238
0.3988851017
0.4025592052
0.408434762
0.4165745273
0.4269221807
0.4393099572
0.4534813609
0.46911892
0.4858755581
0.5034016035
0.5213570889
0.5394250508
0.5573237316
0.5748069932
0.5916574744
0.6076927652
0.622761487
0.6367438301
0.6495503356
0.6611226464
0.6714332295
0.6804853616
0.6883117212
0.6949719834
0.7005488227
0.7051427429
0.7088659554
0.7118359577
0.714169398
0.7159768473
0.71735886
0.7184035206
0.7191854456
0.719765995
0.7201943141
0.7205088566
0.7207391397
0.720907452
0.7210304037
0.7211202386
0.721185902
0.7212338922
0.7212689255
0.7212944888
0.7213128685
0.7213251592
0.7213332104
0.721338588
0.7213370649
0.721324582
0.3953198842
0.3905151095
0.3871259854
0.3831823387
0.3798783633
0.376879223
0.3746884838
0.3734734604
0.3736156023
0.3754020256
0.3791209513
0.3849692713
0.3930500583
0.4033488601
0.4157397293
0.4300013534
0.4458435564
0.4629346019
0.4809296406
0.4994922907
0.5183019817
0.537064297
0.5555208423
0.5734467639
0.590643859
0.6069464812
0.6222176864
0.63635004
0.6492646399
0.6609121958
0.6712729586
0.6803568696
0.6882022229
0.6948732989
0.7004563767
0.705054598
0.7087819119
0.7117567735
0.7140961699
0.7159105797
0.7173002148
0.718352725
0.71914231
0.7197300049
0.7201647378
0.7204848543
0.7207198521
0.7208920636
0.7210181812
0.7211105478
0.7211782092
0.7212277547
0.721263998
0.7212905058
0.7213095504
0.7213223571
0.7213310617
0.7213367444