/*--------------------------------*- C++ -*----------------------------------*\
  =========                 |
  \\      /  F ield         | OpenFOAM: The Open Source CFD Toolbox
   \\    /   O peration     | Website:  https://openfoam.org
    \\  /    A nd           | Version:  12
     \\/     M anipulation  |
\*---------------------------------------------------------------------------*/
FoamFile
{
    format      ascii;
    class       volScalarField;
    location    "600";
    object      nut;
}
// * * * * * * * * * * * * * * * * * * * * * * * * * * * * * * * * * * * * * //

dimensions      [0 2 -1 0 0 0 0];

internalField   nonuniform List<scalar> 
16200
(
0.0005102357194
0.001735585867
0.002887395428
0.003784404679
0.004063145268
0.003574330979
0.002613589846
0.001413082282
0.0007136633904
0.0002065192155
6.403211241e-06
2.701619705e-06
2.446784479e-06
2.410255561e-06
1.893555756e-06
1.629184012e-06
1.41915238e-06
1.270951859e-06
1.174556112e-06
1.11200867e-06
1.075317185e-06
1.061232798e-06
1.066443825e-06
1.088787731e-06
1.127466988e-06
1.183284969e-06
1.25900218e-06
1.359944085e-06
1.495266377e-06
1.680468444e-06
1.942004357e-06
2.325918912e-06
2.914538621e-06
3.861167514e-06
5.468017477e-06
8.362844876e-06
1.389970112e-05
2.506373898e-05
4.852822027e-05
9.938470334e-05
0.0002121603953
0.0004666176384
0.001002125313
0.001002256665
0.001001755599
0.001000703425
0.0009994303715
0.0009988931752
0.0009986840481
0.0009986135221
0.0009985997685
0.0009986089463
0.0009986284015
0.000998654999
0.0009986900138
0.0009987379276
0.0009988050728
0.0009989034515
0.0009990482617
0.0009992764518
0.0005033108435
0.001697958226
0.002793402796
0.003591561964
0.003699462922
0.003083516992
0.002134502872
0.001039990926
0.000568930591
4.562616008e-05
2.79453898e-06
2.274700649e-06
2.070064689e-06
2.032790081e-06
1.696369742e-06
1.455827751e-06
1.264505957e-06
1.129628332e-06
1.043624194e-06
9.890395514e-07
9.581912228e-07
9.477513178e-07
9.54475633e-07
9.761891691e-07
1.012070825e-06
1.062819358e-06
1.131014483e-06
1.221713781e-06
1.343631304e-06
1.511347867e-06
1.749284339e-06
2.099273579e-06
2.6355468e-06
3.495955044e-06
4.951852839e-06
7.566349361e-06
1.25536015e-05
2.259036436e-05
4.365792722e-05
8.927761415e-05
0.0001903693312
0.0004183551983
0.0009396134163
0.001002128535
0.001001674976
0.001000729659
0.0009994450253
0.0009989010115
0.0009986895806
0.0009986189307
0.000998605931
0.0009986160783
0.0009986364182
0.000998663633
0.000998698995
0.000998746789
0.0009988136308
0.0009989113673
0.0009990562827
0.0009992881451
0.000497058222
0.00166055085
0.002698566766
0.003394501326
0.00333260145
0.002617485811
0.00165530213
0.0007634354089
0.0003875334197
1.477120941e-05
2.163056612e-06
1.916397045e-06
1.749197699e-06
1.713119555e-06
1.506281351e-06
1.28974519e-06
1.117728132e-06
9.96509425e-07
9.207839498e-07
8.737982189e-07
8.48226266e-07
8.406516593e-07
8.478917267e-07
8.677980649e-07
8.996113603e-07
9.44086161e-07
1.003848833e-06
1.083978398e-06
1.193080207e-06
1.34516913e-06
1.563015023e-06
1.884749987e-06
2.377411523e-06
3.165306701e-06
4.49311109e-06
6.868128182e-06
1.138286218e-05
2.044195764e-05
3.940589841e-05
8.035996366e-05
0.0001708618265
0.0003744155936
0.000838634286
0.001002032348
0.001001603788
0.001000746841
0.0009994604934
0.0009989122952
0.0009986986316
0.0009986271454
0.0009986140824
0.0009986245089
0.0009986452145
0.0009986727093
0.0009987081983
0.0009987558121
0.000998822297
0.0009989194498
0.0009990643435
0.0009992992216
0.0004924634137
0.001624022627
0.00260048286
0.003156641933
0.002951491428
0.002187077758
0.00118128527
0.0005648405994
0.0001955698244
5.557159988e-06
1.809372856e-06
1.627588626e-06
1.490395906e-06
1.455805931e-06
1.336971945e-06
1.141466709e-06
9.866017013e-07
8.776905647e-07
8.110792477e-07
7.70722602e-07
7.495879652e-07
7.441835202e-07
7.514341984e-07
7.693626288e-07
7.974432484e-07
8.366762805e-07
8.899274488e-07
9.625001165e-07
1.063098481e-06
1.205408212e-06
1.410963566e-06
1.715111392e-06
2.179646952e-06
2.919397049e-06
4.160951905e-06
6.374461155e-06
1.057228083e-05
1.898102883e-05
3.655778754e-05
7.445826039e-05
0.0001580724205
0.0003458090129
0.0007732368907
0.001001953069
0.001001532698
0.001000738111
0.0009994665221
0.0009989205966
0.000998707045
0.0009986354182
0.0009986223829
0.0009986330014
0.0009986539657
0.0009986816796
0.0009987172773
0.0009987647699
0.0009988309716
0.0009989276655
0.0009990725874
0.000999310326
0.0004880248397
0.001587418253
0.002500394388
0.002912187925
0.002573796476
0.001808234433
0.0008448756848
0.0004325190008
4.765961887e-05
2.129417278e-06
1.529361955e-06
1.383387958e-06
1.271247109e-06
1.239142773e-06
1.179653666e-06
1.004318215e-06
8.659648771e-07
7.689425292e-07
7.108583396e-07
6.764724466e-07
6.59140442e-07
6.554303054e-07
6.625124503e-07
6.78721017e-07
7.038535379e-07
7.392274969e-07
7.88026352e-07
8.558447874e-07
9.515024731e-07
1.088359617e-06
1.286856649e-06
1.580033526e-06
2.025476954e-06
2.730569604e-06
3.907953822e-06
5.999311551e-06
9.955248443e-06
1.786379e-05
3.436435181e-05
6.987221816e-05
0.0001480331708
0.0003231157672
0.0007208193272
0.001001892996
0.001001466944
0.001000713292
0.0009994676927
0.0009989281796
0.0009987160255
0.0009986444442
0.0009986312645
0.0009986418386
0.0009986628642
0.0009986906734
0.0009987263222
0.0009987737171
0.0009988396883
0.000998936028
0.0009990810033
0.000999321338
0.0004833968922
0.00155011645
0.002396280476
0.002660070395
0.00220071369
0.001420163215
0.0006250531668
0.0003019742951
1.763717877e-05
1.58913454e-06
1.299827132e-06
1.180420586e-06
1.088469557e-06
1.058671034e-06
1.036612323e-06
8.795503718e-07
7.562561855e-07
6.702210727e-07
6.198747455e-07
5.908651513e-07
5.769958115e-07
5.749714157e-07
5.82248091e-07
5.974969152e-07
6.208586843e-07
6.540270457e-07
7.00579793e-07
7.664297141e-07
8.604806516e-07
9.957935436e-07
1.19197299e-06
1.480394934e-06
1.915641575e-06
2.599876653e-06
3.73626105e-06
5.747498917e-06
9.543010161e-06
1.711747465e-05
3.289350437e-05
6.677415593e-05
0.0001411829989
0.0003074528725
0.0006842114679
0.001001848238
0.001001406333
0.001000671431
0.000999462915
0.0009989341785
0.0009987249614
0.0009986538155
0.0009986404655
0.0009986508583
0.0009986718147
0.0009986996366
0.0009987353068
0.0009987826384
0.0009988484469
0.0009989445401
0.0009990896202
0.0009993323403
0.0004779749859
0.001511296181
0.002286569674
0.002390707765
0.001842301187
0.001034538977
0.0004679066412
0.0001809036611
6.273551418e-06
1.315179053e-06
1.107177568e-06
1.008221904e-06
9.323372035e-07
9.048461057e-07
9.045719856e-07
7.647785291e-07
6.558619394e-07
5.806117141e-07
5.37860683e-07
5.141987444e-07
5.038846812e-07
5.037910803e-07
5.116952674e-07
5.266690064e-07
5.492802471e-07
5.814805275e-07
6.276394518e-07
6.937202282e-07
7.886196364e-07
9.25116364e-07
1.12272277e-06
1.41092068e-06
1.842550918e-06
2.516170804e-06
3.628660964e-06
5.590556692e-06
9.284790517e-06
1.664471446e-05
3.194674227e-05
6.473994869e-05
0.0001365846325
0.0002967004702
0.0006585401765
0.001001816226
0.001001351637
0.00100061704
0.0009994534929
0.000998938961
0.0009987339103
0.0009986635095
0.0009986499586
0.0009986600471
0.0009986808181
0.0009987085788
0.000998744246
0.0009987915465
0.0009988572596
0.0009989532088
0.0009990984462
0.0009993433327
0.0004709394174
0.001469206176
0.002168219873
0.002110897773
0.001516754509
0.0007448888276
0.0003611861598
6.097878813e-05
2.443078578e-06
1.106884381e-06
9.420489455e-07
8.599605327e-07
7.975434663e-07
7.728957213e-07
7.83935265e-07
6.608310499e-07
5.658360253e-07
5.011937824e-07
4.65841259e-07
4.473473655e-07
4.404572589e-07
4.422889588e-07
4.510308275e-07
4.662486315e-07
4.88822703e-07
5.217225193e-07
5.690438567e-07
6.370904353e-07
7.347480833e-07
8.746549989e-07
1.075513687e-06
1.367640084e-06
1.801241807e-06
2.473077458e-06
3.576511487e-06
5.515846143e-06
9.160436786e-06
1.641054159e-05
3.145884122e-05
6.364077212e-05
0.0001339725184
0.0002902938218
0.0006425774835
0.001001793655
0.001001302449
0.001000560654
0.0009994400399
0.0009989425235
0.0009987427146
0.0009986733709
0.0009986596316
0.0009986693369
0.0009986898402
0.0009987174878
0.000998753141
0.0009988004467
0.0009988661345
0.0009989620399
0.0009991074925
0.0009993543375
0.0004623898613
0.001421807883
0.002017727031
0.001825942207
0.001211795961
0.000547791014
0.0002736549526
3.44066999e-05
1.495063375e-06
9.350810235e-07
8.038295622e-07
7.3503724e-07
6.836213223e-07
6.617679414e-07
6.769497837e-07
5.691615086e-07
4.869841835e-07
4.322151179e-07
4.036387836e-07
3.898157012e-07
3.860177826e-07
3.896907489e-07
3.992800215e-07
4.153213625e-07
4.391030821e-07
4.735565408e-07
5.232014502e-07
5.944361749e-07
6.961695519e-07
8.410470778e-07
1.04774983e-06
1.346257645e-06
1.786353631e-06
2.46358586e-06
3.570029847e-06
5.508576303e-06
9.145517864e-06
1.637096809e-05
3.134451614e-05
6.330145934e-05
0.0001329715415
0.0002874056728
0.0006344615201
0.001001777579
0.001001257355
0.001000501729
0.0009994235224
0.0009989450584
0.0009987513237
0.0009986833036
0.0009986694058
0.000998678679
0.0009986988581
0.0009987263585
0.0009987619975
0.0009988093476
0.0009988750814
0.00099897104
0.000999116766
0.0009993653645
0.0004522517168
0.00136912762
0.001845355818
0.001544511248
0.0008880702043
0.0004089996939
0.0001929582289
1.819645538e-05
1.147044384e-06
7.925780768e-07
6.872285574e-07
6.293052159e-07
5.867723024e-07
5.675980149e-07
5.823887074e-07
4.885405346e-07
4.180880764e-07
3.724581841e-07
3.500740838e-07
3.404999569e-07
3.395597939e-07
3.448529941e-07
3.560537502e-07
3.734483198e-07
3.989206858e-07
4.357123922e-07
4.885052023e-07
5.637825433e-07
6.705478638e-07
8.216007726e-07
1.035819458e-06
1.343194993e-06
1.793584245e-06
2.482276147e-06
3.601955108e-06
5.558236384e-06
9.223396758e-06
1.649715433e-05
3.154956401e-05
6.36133317e-05
0.0001333531042
0.0002875384124
0.0006330829866
0.001001765402
0.001001215046
0.001000439694
0.0009994047768
0.0009989467256
0.0009987596815
0.0009986932114
0.0009986792023
0.0009986880236
0.0009987078479
0.000998735185
0.0009987708203
0.0009988182579
0.0009988841098
0.000998980216
0.0009991262723
0.0009993764241
0.00044053835
0.001311283878
0.001659560263
0.001277034347
0.0006355706091
0.0003115022384
0.0001263811326
1.213193346e-05
9.359178234e-07
6.725422548e-07
5.880069381e-07
5.389663124e-07
5.036377063e-07
4.869353353e-07
4.986798249e-07
4.176319925e-07
3.580482458e-07
3.209884681e-07
3.043479476e-07
2.986931058e-07
3.001440361e-07
3.075822756e-07
3.203858154e-07
3.394953079e-07
3.671545758e-07
4.0682521e-07
4.63321645e-07
5.432396523e-07
6.557522864e-07
8.139350901e-07
1.037037765e-06
1.355347053e-06
1.819197679e-06
2.524431221e-06
3.6659675e-06
5.655706532e-06
9.379704976e-06
1.676428796e-05
3.202742704e-05
6.448299711e-05
0.0001349203758
0.0002902623263
0.000637480513
0.001001755003
0.001001174426
0.001000374053
0.0009993845995
0.0009989477078
0.0009987677624
0.0009987030214
0.000998688957
0.00099869733
0.0009987167902
0.0009987439638
0.0009987796155
0.000998827187
0.0009988932297
0.0009989895747
0.000999136015
0.000999387523
0.0004270168025
0.001247662298
0.001468551623
0.001013037948
0.0004734093637
0.0002427204812
6.01319033e-05
6.636392474e-06
7.56799699e-07
5.720326782e-07
5.035128471e-07
4.618271693e-07
4.323189454e-07
4.179470721e-07
4.253744691e-07
3.560471989e-07
3.064887693e-07
2.773571913e-07
2.659213484e-07
2.634921251e-07
2.67619262e-07
2.7688913e-07
2.91365358e-07
3.124494056e-07
3.426439204e-07
3.855631195e-07
4.461447335e-07
5.311377687e-07
6.499538159e-07
8.160403881e-07
1.049158567e-06
1.380127041e-06
1.860100429e-06
2.58618365e-06
3.756968228e-06
5.793788919e-06
9.60337949e-06
1.715370681e-05
3.274375361e-05
6.584251843e-05
0.0001375315307
0.0002952695675
0.0006469674272
0.001001744698
0.001001134601
0.001000304395
0.0009993636623
0.0009989481711
0.0009987755532
0.000998712676
0.0009986986179
0.0009987065644
0.0009987256697
0.0009987526933
0.0009987883896
0.0009988361445
0.0009989024506
0.0009989991217
0.0009991459964
0.0009993986667
0.0004114260651
0.001176112691
0.001272107145
0.0007594471902
0.0003634038243
0.0001869258017
3.030935094e-05
3.344088956e-06
6.121728199e-07
4.87225037e-07
4.314707197e-07
3.961684787e-07
3.715789253e-07
3.594700174e-07
3.622162551e-07
3.034314686e-07
2.629263853e-07
2.409069939e-07
2.339919777e-07
2.345348892e-07
2.408572719e-07
2.51820427e-07
2.680565421e-07
2.9131797e-07
3.242985296e-07
3.707270516e-07
4.356646084e-07
5.260547786e-07
6.516106157e-07
8.262274791e-07
1.07029048e-06
1.415349104e-06
1.913675408e-06
2.664269987e-06
3.870689418e-06
5.96654013e-06
9.885436781e-06
1.765050277e-05
3.367147137e-05
6.763888405e-05
0.0001410766248
0.0003023223878
0.0006610142801
0.001001733203
0.001001094873
0.001000230405
0.0009993425182
0.0009989482653
0.0009987830534
0.0009987221343
0.0009987081451
0.0009987157013
0.0009987344757
0.000998761374
0.0009987971504
0.0009988451407
0.0009989117821
0.0009990088608
0.000999156217
0.0009994098583
0.0003942553022
0.001095851499
0.001074815684
0.0005623634733
0.0002821887443
0.0001392701397
1.83633685e-05
1.835568147e-06
5.01683042e-07
4.152138522e-07
3.709357578e-07
3.408328828e-07
3.201741292e-07
3.099956484e-07
3.081128978e-07
2.587207289e-07
2.263569808e-07
2.106480503e-07
2.072543818e-07
2.107318128e-07
2.188945316e-07
2.315036624e-07
2.496147442e-07
2.752250588e-07
3.111716847e-07
3.612874723e-07
4.30769733e-07
5.267926611e-07
6.594255788e-07
8.430731297e-07
1.098905266e-06
1.459165567e-06
1.977716585e-06
2.755959314e-06
4.003606559e-06
6.169146645e-06
1.02187708e-05
1.824316214e-05
3.47901044e-05
6.983264564e-05
0.0001454747751
0.0003112471342
0.0006792358615
0.001001719575
0.001001054712
0.001000157214
0.0009993215968
0.0009989481168
0.0009987902704
0.0009987313685
0.0009987175102
0.0009987247224
0.0009987432015
0.0009987700085
0.0009988059061
0.0009988541856
0.0009989212332
0.0009990187953
0.0009991666772
0.0009994210998
0.0003767130497
0.001009958882
0.0008647075259
0.0004288131299
0.0002277920987
0.0001007618758
1.281133962e-05
1.058859334e-06
4.149235017e-07
3.53673986e-07
3.183470562e-07
2.932421764e-07
2.758185405e-07
2.674191751e-07
2.615040468e-07
2.207056014e-07
1.957794621e-07
1.856513459e-07
1.855583735e-07
1.9120066e-07
2.009818597e-07
2.152398387e-07
2.353383493e-07
2.634332383e-07
3.024627902e-07
3.563700519e-07
4.305170166e-07
5.323377508e-07
6.722998414e-07
8.653684488e-07
1.133488793e-06
1.510005701e-06
2.050356047e-06
2.858956972e-06
4.15279593e-06
6.39769024e-06
1.059773264e-05
1.892275947e-05
3.608414187e-05
7.239447698e-05
0.0001506666743
0.0003219176069
0.0007013536349
0.001001703152
0.001001013407
0.001000086842
0.0009993012184
0.0009989478293
0.0009987972173
0.0009987403624
0.0009987266945
0.0009987336161
0.0009987518443
0.0009987786013
0.0009988146655
0.0009988632896
0.0009989308128
0.0009990289285
0.000999177376
0.000999432391
0.000359464045
0.0009167803632
0.0006956269913
0.0003490571864
0.0001914993335
5.610718415e-05
8.258544878e-06
6.623658045e-07
3.456741383e-07
3.006328613e-07
2.722369639e-07
2.516395883e-07
2.374130586e-07
2.307621428e-07
2.216639603e-07
1.887278779e-07
1.70518754e-07
1.648578141e-07
1.678437429e-07
1.752488358e-07
1.865356889e-07
2.024757713e-07
2.246462861e-07
2.553075939e-07
2.974762366e-07
3.552186852e-07
4.340944313e-07
5.418207214e-07
6.892917498e-07
8.920776685e-07
1.172970503e-06
1.566533938e-06
2.13001762e-06
2.971347164e-06
4.315853963e-06
6.649020162e-06
1.101790733e-05
1.968253814e-05
3.754220215e-05
7.530342853e-05
0.0001566108175
0.000334246699
0.0007271768994
0.001001683512
0.001000970296
0.001000019782
0.0009992816093
0.0009989474848
0.0009988039102
0.000998749109
0.0009987356876
0.0009987423765
0.0009987604044
0.0009987871582
0.0009988234378
0.0009988724625
0.0009989405287
0.0009990392635
0.000999188311
0.0009994437305
0.0003451071443
0.0008157421414
0.0005612539519
0.0002905466745
0.0001597949213
3.103605918e-05
3.948890992e-06
4.519993912e-07
2.904313867e-07
2.559795786e-07
2.330459061e-07
2.159667922e-07
2.045040843e-07
1.995109193e-07
1.880127988e-07
1.621638158e-07
1.499021589e-07
1.482850906e-07
1.534272995e-07
1.623336818e-07
1.750835114e-07
1.927451978e-07
2.170346368e-07
2.50282251e-07
2.955952088e-07
3.571760147e-07
4.408024822e-07
5.544950894e-07
7.095944843e-07
9.223221725e-07
1.216362018e-06
1.627623971e-06
2.215384402e-06
3.091548016e-06
4.490829182e-06
6.920641129e-06
1.147591553e-05
2.051753577e-05
3.915628491e-05
7.854536451e-05
0.0001632801189
0.0003481788696
0.0007565857276
0.001001660422
0.001000924846
0.0009999563145
0.0009992629198
0.0009989471467
0.0009988103673
0.0009987576081
0.0009987444855
0.0009987510024
0.000998768885
0.0009987956862
0.0009988322325
0.0009988817141
0.0009989503879
0.0009990498027
0.0009991994758
0.0009994551152
0.0003367839072
0.0007104148289
0.0004613272457
0.0002422545553
0.0001295200251
1.851842865e-05
1.895819803e-06
3.296279084e-07
2.454294186e-07
2.182966978e-07
1.995946772e-07
1.853998855e-07
1.76061299e-07
1.726770613e-07
1.597150335e-07
1.403297492e-07
1.329850657e-07
1.349440365e-07
1.417800772e-07
1.520288753e-07
1.662212752e-07
1.85619929e-07
2.12031073e-07
2.478404498e-07
2.962698152e-07
3.616671438e-07
4.500348527e-07
5.697156821e-07
7.325154242e-07
9.553324439e-07
1.262828905e-06
1.69233546e-06
2.305370069e-06
3.218272986e-06
4.676165815e-06
7.210623548e-06
1.196925847e-05
2.142429648e-05
4.092120215e-05
8.211177852e-05
0.0001706593505
0.0003636844598
0.000789518128
0.001001633789
0.001000876639
0.00099989656
0.0009992452408
0.0009989468628
0.0009988166078
0.0009987658652
0.0009987530899
0.0009987594961
0.0009987772913
0.0009988041932
0.0009988410588
0.0009988910533
0.0009989603966
0.0009990605476
0.0009992108608
0.0009994665406
0.000337358944
0.0006061185495
0.0003737919786
0.0002070042424
0.000102179206
1.217254422e-05
9.249620395e-07
2.54646214e-07
2.076539751e-07
1.859122463e-07
1.706628553e-07
1.589999422e-07
1.515688482e-07
1.496424885e-07
1.362555451e-07
1.227582836e-07
1.198853398e-07
1.242924106e-07
1.324816699e-07
1.439670514e-07
1.595795676e-07
1.807012541e-07
2.091993391e-07
2.475284914e-07
2.990268154e-07
3.681985548e-07
4.612729531e-07
5.869322423e-07
7.574652864e-07
9.904841378e-07
1.311678725e-06
1.759897041e-06
2.399094472e-06
3.350495825e-06
4.870652404e-06
7.51752454e-06
1.249618834e-05
2.240064213e-05
4.283414611e-05
8.599892788e-05
0.0001787433214
0.000380755724
0.0008259611954
0.001001603621
0.001000825358
0.000999840522
0.0009992286185
0.0009989466684
0.0009988226509
0.0009987738897
0.0009987615063
0.0009987678631
0.00099878563
0.0009988126876
0.0009988499259
0.0009989004884
0.0009989705608
0.0009990714993
0.0009992224572
0.0009994780015
0.0003477487747
0.0005110272414
0.0003165993171
0.000184304682
5.943721429e-05
8.408921712e-06
4.795032757e-07
2.046363467e-07
1.759173634e-07
1.583592029e-07
1.459997722e-07
1.365683795e-07
1.308456174e-07
1.302622246e-07
1.172671021e-07
1.08979556e-07
1.096913877e-07
1.158403985e-07
1.251499305e-07
1.378018517e-07
1.548080989e-07
1.776192878e-07
2.081531268e-07
2.489515321e-07
3.034565458e-07
3.763419998e-07
4.740699309e-07
6.056758628e-07
7.839515815e-07
1.027252878e-06
1.362347641e-06
1.82969052e-06
2.495863601e-06
3.48742358e-06
5.073383069e-06
7.84032771e-06
1.305560627e-05
2.344548448e-05
4.489431691e-05
9.020705126e-05
0.0001875351741
0.0003994030357
0.0008659427617
0.001001569995
0.001000770769
0.000999788125
0.0009992130663
0.0009989465889
0.0009988285155
0.0009987816936
0.0009987697428
0.0009987761107
0.000998793909
0.000998821178
0.0009988588425
0.0009989100269
0.000998980886
0.0009990826584
0.0009992342551
0.0009994894913
0.0003654977205
0.0004738967894
0.000275998921
0.0001657381339
3.17663788e-05
3.475089184e-06
2.775490059e-07
1.692174627e-07
1.497653521e-07
1.354428404e-07
1.254069398e-07
1.178416317e-07
1.136424405e-07
1.140945396e-07
1.022200524e-07
9.82382342e-08
1.017514199e-07
1.091496998e-07
1.194481024e-07
1.332273445e-07
1.515979112e-07
1.760545797e-07
2.085680652e-07
2.517702698e-07
3.092079994e-07
3.857325162e-07
4.8804882e-07
6.255564859e-07
8.115699522e-07
1.065216463e-06
1.414389404e-06
1.901235059e-06
2.595147809e-06
3.628467128e-06
5.283717191e-06
8.17838545e-06
1.364697365e-05
2.45586768e-05
4.710265281e-05
9.473984337e-05
0.0001970452952
0.0004196525404
0.0009095263372
0.001001533036
0.001000712695
0.0009997392415
0.000999198575
0.0009989466422
0.0009988342201
0.0009987892908
0.00099877781
0.0009987842477
0.0009988021368
0.000998829673
0.0009988678167
0.0009989196757
0.0009989913762
0.0009990940234
0.0009992462408
0.0009995010029
0.0003868549648
0.0004123186588
0.0002475335014
0.0001470194053
1.721200233e-05
1.325949205e-06
1.860081967e-07
1.425003672e-07
1.281739376e-07
1.163828527e-07
1.081826347e-07
1.022250927e-07
9.933153787e-08
9.981854825e-08
9.04910302e-08
9.018204646e-08
9.551451183e-08
1.038761261e-07
1.151028003e-07
1.299839039e-07
1.496821896e-07
1.75732096e-07
2.101618061e-07
2.556892645e-07
3.159785977e-07
3.960607699e-07
5.028944175e-07
6.462532105e-07
8.399927994e-07
1.10403837e-06
1.467454109e-06
1.974159956e-06
2.696546954e-06
3.773196123e-06
5.501219376e-06
8.531334858e-06
1.42701854e-05
2.574080688e-05
4.94614644e-05
9.960376308e-05
0.0002072899357
0.0004415432478
0.0009568042445
0.001001492902
0.001000650998
0.0009996937128
0.0009991851197
0.0009989468406
0.000998839782
0.0009987966958
0.0009987857194
0.0009987922838
0.0009988103222
0.0009988381808
0.0009988768558
0.0009989294405
0.0009990020341
0.0009991055881
0.0009992583976
0.0009995125283
0.0004127488763
0.0003785057069
0.0002339544048
0.0001263998781
1.000814656e-05
4.77116665e-07
1.426473407e-07
1.211410943e-07
1.099988654e-07
1.002748119e-07
9.367352978e-08
8.911611692e-08
8.724895467e-08
8.655260865e-08
8.151858853e-08
8.404538228e-08
9.059241069e-08
9.977388352e-08
1.118967922e-07
1.278492437e-07
1.488281753e-07
1.764103174e-07
2.126843061e-07
2.604548598e-07
3.23512011e-07
4.070699247e-07
5.18349765e-07
6.675096013e-07
8.689640393e-07
1.143461605e-06
1.521281076e-06
2.048196348e-06
2.799780549e-06
3.921326742e-06
5.725643229e-06
8.899074086e-06
1.49255314e-05
2.699312577e-05
5.19742893e-05
0.0001048077144
0.0002182904831
0.0004651252879
0.001002149577
0.001001449773
0.001000585559
0.0009996513637
0.0009991726658
0.0009989471919
0.0009988452178
0.0009988039239
0.000998793483
0.0009988002288
0.0009988184738
0.0009988467094
0.0009988859666
0.0009989393261
0.0009990128607
0.0009991173432
0.0009992707093
0.0009995240564
0.0004403416763
0.0003650476339
0.0002290444044
8.509391469e-05
4.977141324e-06
1.938094213e-07
1.177301392e-07
1.034098906e-07
9.450943858e-08
8.673941949e-08
8.137274448e-08
7.798459849e-08
7.711678096e-08
7.616884889e-08
7.479824407e-08
7.927678518e-08
8.672733753e-08
9.66562449e-08
1.096438968e-07
1.266257584e-07
1.488293639e-07
1.77877136e-07
2.159201873e-07
2.658529555e-07
3.315961023e-07
4.185518362e-07
5.342117417e-07
6.891285609e-07
8.982929059e-07
1.183301402e-06
1.575690243e-06
2.123166984e-06
2.904675253e-06
4.072705728e-06
5.956909956e-06
9.281731142e-06
1.561364632e-05
2.831745767e-05
5.464571298e-05
0.0001103626677
0.0002300726228
0.0004904580639
0.001002121776
0.001001403849
0.001000516249
0.0009996120131
0.0009991611725
0.000998947701
0.0009988505425
0.0009988109898
0.0009988011134
0.000998808093
0.0009988266002
0.0009988552658
0.0009988951544
0.000998949336
0.0009990238557
0.0009991292783
0.0009992831726
0.0009995355733
0.00048434286
0.0003669135102
0.0002290120199
4.140861254e-05
1.346367584e-06
1.195153021e-07
9.986760917e-08
8.882804978e-08
8.162005545e-08
7.523569678e-08
7.097293731e-08
6.869188952e-08
6.878841003e-08
6.832681987e-08
6.983479619e-08
7.559278577e-08
8.373760421e-08
9.43666473e-08
1.081795759e-07
1.261402151e-07
1.495080357e-07
1.799528075e-07
2.19690367e-07
2.717071416e-07
3.400586457e-07
4.303398019e-07
5.503203508e-07
7.109576532e-07
9.27834658e-07
1.223420684e-06
1.630551567e-06
2.198948492e-06
3.011118386e-06
4.227252635e-06
6.1950344e-06
9.679564313e-06
1.633536576e-05
2.971597572e-05
5.748099546e-05
0.0001162809995
0.000242665115
0.0005176078768
0.001002090405
0.001001355353
0.001000442917
0.0009995754812
0.0009991505963
0.0009989483699
0.0009988557703
0.000998817908
0.0009988086224
0.000998815886
0.0009988347093
0.0009988638565
0.0009989044238
0.0009989594725
0.0009990350168
0.0009991413832
0.0009992957873
0.0009995470649
0.0005255217467
0.0003606411233
0.0002234755772
1.93793384e-05
3.239984779e-07
9.623373574e-08
8.586254407e-08
7.683363593e-08
7.080497347e-08
6.559226635e-08
6.233771729e-08
6.109353729e-08
6.209588106e-08
6.260402058e-08
6.615602901e-08
7.27410937e-08
8.147349586e-08
9.276193514e-08
1.07354865e-07
1.262398753e-07
1.507112637e-07
1.824855664e-07
2.238461373e-07
2.778735958e-07
3.487621948e-07
4.423038575e-07
5.665540426e-07
7.328845081e-07
9.574861858e-07
1.263725827e-06
1.685780926e-06
2.275467205e-06
3.119053257e-06
4.384953706e-06
6.440115758e-06
1.009294637e-05
1.709169601e-05
3.119113918e-05
6.048593106e-05
0.0001225761683
0.0002560990377
0.0005466462415
0.001002055691
0.001001304529
0.00100036536
0.0009995415929
0.0009991408924
0.000998949199
0.0009988609138
0.0009988246922
0.0009988160217
0.0009988236169
0.0009988428083
0.0009988724869
0.0009989137781
0.0009989697368
0.0009990463402
0.0009991536476
0.0009993085424
0.0009995585165
0.0005644106244
0.0003502387316
0.0002097540601
9.622603986e-06
1.260551343e-07
8.229401244e-08
7.429028473e-08
6.687901399e-08
6.179151942e-08
5.757217005e-08
5.525709099e-08
5.4989421e-08
5.682347841e-08
5.850797282e-08
6.338123433e-08
7.054339646e-08
7.980602776e-08
9.171327932e-08
1.070389116e-07
1.267942923e-07
1.523105432e-07
1.853507553e-07
2.282679971e-07
2.84239876e-07
3.576028198e-07
4.543501679e-07
5.828298157e-07
7.548379679e-07
9.871888734e-07
1.304171692e-06
1.741347884e-06
2.352710025e-06
3.228493663e-06
4.54588047e-06
6.692360924e-06
1.052239341e-05
1.788384887e-05
3.274572964e-05
6.366686738e-05
0.0001292626562
0.0002704074768
0.000577648825
0.001002017845
0.001001251657
0.001000284666
0.0009995101817
0.0009991320159
0.0009989501872
0.0009988659841
0.0009988313549
0.0009988233221
0.0009988312944
0.0009988509037
0.0009988811613
0.0009989232193
0.0009989801282
0.0009990578199
0.0009991660599
0.0009993214229
0.0009995699122
0.0005828527026
0.0003392515799
0.000185755555
5.636595895e-06
9.386905176e-08
7.11061747e-08
6.468856901e-08
5.856744119e-08
5.426066282e-08
5.092651089e-08
4.952066584e-08
5.016845086e-08
5.274015854e-08
5.556577426e-08
6.125319097e-08
6.887142485e-08
7.862411357e-08
9.110961626e-08
1.071210479e-07
1.276951051e-07
1.54199953e-07
1.884469578e-07
2.328599617e-07
2.907170018e-07
3.664993178e-07
4.664065125e-07
5.990847899e-07
7.767649959e-07
1.016900163e-06
1.344726877e-06
1.797233299e-06
2.430672776e-06
3.339460521e-06
4.710110645e-06
6.951981978e-06
1.096842377e-05
1.87130326e-05
3.438251746e-05
6.703013645e-05
0.0001363549489
0.000285623618
0.0006106917323
0.001001977067
0.001001197009
0.001000209779
0.0009994810899
0.0009991239231
0.0009989513321
0.0009988709915
0.0009988379078
0.0009988305335
0.000998838926
0.0009988590009
0.000998889883
0.0009989327482
0.0009989906449
0.0009990694482
0.0009991786072
0.0009993344134
0.0009995812325
0.0005701869231
0.0003339323393
0.0001534062041
2.180044635e-06
7.657234483e-08
6.191270256e-08
5.667628351e-08
5.159355395e-08
4.796325381e-08
4.545962041e-08
4.494422917e-08
4.642055808e-08
4.961151549e-08
5.340078477e-08
5.960843142e-08
6.762280904e-08
7.783048687e-08
9.085485154e-08
1.075078131e-07
1.288527742e-07
1.56294219e-07
1.916949647e-07
2.3755013e-07
2.972413748e-07
3.753970666e-07
4.784278383e-07
6.152840582e-07
7.986410876e-07
1.046606667e-06
1.385389838e-06
1.853448785e-06
2.509383424e-06
3.452009175e-06
4.877759927e-06
7.219233155e-06
1.143160131e-05
1.958050084e-05
3.610431012e-05
7.058207656e-05
0.0001438674468
0.0003017803249
0.0006458501523
0.001001933541
0.001001140522
0.001000140294
0.0009994541697
0.0009991165714
0.0009989526305
0.0009988759446
0.0009988443615
0.0009988376649
0.0009988465184
0.0009988671044
0.0009988986541
0.0009989423641
0.0009990012834
0.0009990812153
0.0009991912753
0.0009993474962
0.0009995924572
0.0005538224277
0.0003314156712
8.207439746e-05
7.371551945e-07
6.497860326e-08
5.436734724e-08
5.000819586e-08
4.575837082e-08
4.273262543e-08
4.103082495e-08
4.136221078e-08
4.354528619e-08
4.706725152e-08
5.176272734e-08
5.834219954e-08
6.671525124e-08
7.734442879e-08
9.086990403e-08
1.081230213e-07
1.30194609e-07
1.585250781e-07
1.950319638e-07
2.422822468e-07
3.037634908e-07
3.842540028e-07
4.903794132e-07
6.314006794e-07
8.204471061e-07
1.076297304e-06
1.426157871e-06
1.910000709e-06
2.588859906e-06
3.566179285e-06
5.048920471e-06
7.494330654e-06
1.191242185e-05
2.048737725e-05
3.791365701e-05
7.432850238e-05
0.0001518134649
0.0003189081751
0.0006831943771
0.001001887456
0.001001082129
0.00100007584
0.0009994292834
0.0009991099202
0.0009989540781
0.0009988808508
0.0009988507252
0.0009988447242
0.0009988540775
0.0009988752176
0.0009989074751
0.000998952065
0.0009990120385
0.0009990931091
0.0009992040483
0.0009993606516
0.0009996035666
0.0005332104977
0.0003261933686
4.484198197e-05
2.769228765e-07
5.639820216e-08
4.815398096e-08
4.444681877e-08
4.087308394e-08
3.841854609e-08
3.750328884e-08
3.859931057e-08
4.135016321e-08
4.525006968e-08
5.049731028e-08
5.737653535e-08
6.60782018e-08
7.709716892e-08
9.108869848e-08
1.089041663e-07
1.316619717e-07
1.6083996e-07
1.98411515e-07
2.470168184e-07
3.10250814e-07
3.93045315e-07
5.022440973e-07
6.474254339e-07
8.421820576e-07
1.105979534e-06
1.467047416e-06
1.966915271e-06
2.669140859e-06
3.6820321e-06
5.223705643e-06
7.777506421e-06
1.241137818e-05
2.14347325e-05
3.98129317e-05
7.827475479e-05
0.0001602051281
0.0003370348402
0.0007227877367
0.001001839001
0.001001021734
0.001000016074
0.0009994063023
0.0009991039303
0.0009989556704
0.0009988857164
0.0009988570072
0.0009988517183
0.0009988616076
0.0009988833426
0.0009989163453
0.0009989618474
0.0009990229029