/*--------------------------------*- C++ -*----------------------------------*\
  =========                 |
  \\      /  F ield         | OpenFOAM: The Open Source CFD Toolbox
   \\    /   O peration     | Website:  https://openfoam.org
    \\  /    A nd           | Version:  12
     \\/     M anipulation  |
\*---------------------------------------------------------------------------*/
FoamFile
{
    format      ascii;
    class       volScalarField;
    location    "600";
    object      omega;
}
// * * * * * * * * * * * * * * * * * * * * * * * * * * * * * * * * * * * * * //

dimensions      [0 0 -1 0 0 0 0];

internalField   nonuniform List<scalar> 
16200
(
709915.9743
280678.7711
158713.4747
109828.9375
85351.25309
69458.63804
54842.19234
33692.68938
7974.317444
797.6517764
317.8240288
199.1759971
129.0871486
86.62827937
61.98904903
46.42359487
34.9084437
26.48357396
20.36567601
15.790312
12.33273341
9.715783001
7.727471315
6.208018168
5.038666937
4.131091781
3.420763457
2.860821637
2.417508441
2.066999916
1.792006461
1.578460348
1.413514661
1.286165773
1.188783567
1.116473815
1.065465884
1.031798639
1.01109899
0.9991924247
0.992752653
0.989505181
0.9880686554
0.9876606548
0.9872429562
0.9863989513
0.985386288
0.98494741
0.984770951
0.9847158744
0.9847268156
0.9847889002
0.9849083465
0.9851054126
0.9854134649
0.9858829201
0.9865886402
0.9876490974
0.9892604126
0.9918112836
744697.3067
295430.9105
167037.7543
115705.8937
89810.89269
72149.39947
54555.50859
27227.8657
4213.242225
603.0435869
321.5553645
203.0765732
131.6081406
88.10406567
62.68444248
46.87056263
35.15315307
26.583657
20.39003456
15.77387903
12.29406171
9.667553427
7.677449445
6.160537413
4.996006679
4.094186577
3.389744747
2.835325677
2.396817862
2.050286836
1.778646115
1.568210654
1.406295006
1.281652895
1.186360651
1.115409816
1.065133526
1.03178075
1.011174627
0.9992680849
0.9927982894
0.9895146028
0.988037135
0.9876019698
0.9872259349
0.9864699317
0.9854540116
0.9850160524
0.9848443257
0.9847957828
0.9848137659
0.9848824994
0.9850074659
0.9852081727
0.9855173264
0.985984654
0.9866852585
0.9877392485
0.9893507194
0.9919390717
778025.2861
309873.3915
175275.1924
121563.134
93979.52453
74312.4009
52447.25765
19647.85242
2213.308269
548.0885854
326.5068009
206.5491521
133.8182084
89.37979765
63.26380579
47.22324592
35.32183644
26.62226853
20.36447345
15.71797998
12.22461787
9.59547094
7.608890337
6.098488028
4.941724227
4.047871454
3.351030351
2.803536042
2.371034808
2.02951231
1.762067358
1.555406174
1.397066204
1.275608665
1.182833409
1.113607461
1.0643522
1.031520601
1.011139899
0.9993082909
0.9928463916
0.9895440358
0.9880366742
0.9875650233
0.9872129403
0.9865303689
0.9855185359
0.9850832556
0.9849160741
0.9848733356
0.9848976511
0.9849725676
0.9851029161
0.9853075138
0.9856184012
0.9860846596
0.9867814437
0.9878303058
0.9894422993
0.9920651415
809178.5967
323536.7616
183283.5314
127320.7593
97594.0871
75993.74021
47719.7179
12369.22019
1334.754393
535.9967041
330.405764
209.2632577
135.5448856
90.36478855
63.68174579
47.45100207
35.39397636
26.58524765
20.27982684
15.61605026
12.11958259
9.495833552
7.518790627
6.019312106
4.873572161
3.990154139
3.302871773
2.763958917
2.338941269
2.003749385
1.741621897
1.539626304
1.385563292
1.267857881
1.178072173
1.110960345
1.063030971
1.030941436
1.010932179
0.9992636956
0.9928589863
0.9895641198
0.9880405123
0.9875384611
0.9871970486
0.9865675231
0.9855722616
0.9851444027
0.9849833547
0.9849467887
0.9849774268
0.9850585103
0.9851943901
0.9854032958
0.9857166459
0.986182924
0.9868772374
0.9879223763
0.9895355247
0.9921903395
838017.3872
336488.0957
190953.5878
132864.3684
100940.6662
75835.57723
39094.22398
6863.183797
1022.939924
536.0170309
333.2460048
211.245705
136.7932168
91.05287468
63.93664849
47.55020828
35.36579583
26.46949274
20.13415737
15.46664439
11.97789295
9.367805114
7.406437196
5.922392514
4.791044994
3.920671139
3.245071477
2.716573257
2.300688735
1.973300256
1.717718555
1.521322438
1.372215044
1.258761266
1.172351487
1.107660445
1.061294429
1.030118925
1.010594941
0.9991582474
0.9928488609
0.9895814761
0.9880520523
0.9875243279
0.9871826006
0.9865892977
0.9856190606
0.985201591
0.9850474599
0.9850170486
0.9850537958
0.9851409035
0.9852823688
0.9854959113
0.9858123695
0.986279669
0.9869727951
0.9880155928
0.9896305992
0.9923148567
864129.065
348688.5397
198270.9225
137962.3139
103727.6852
73157.44691
29967.28019
3981.708429
929.6247164
537.8886635
334.8850487
212.4305367
137.5216864
91.41569357
64.0138143
47.5090682
35.22839609
26.26892325
19.92333075
15.26669449
11.7971959
9.20950406
7.270300167
5.806515763
4.693235295
3.838815065
3.177310132
2.661320927
2.256433149
1.938469763
1.690737853
1.50087982
1.357356053
1.248573292
1.165842236
1.103808949
1.059194268
1.029074138
1.01013279
0.9989890876
0.992810616
0.9895904209
0.9880662789
0.987519851
0.9871697087
0.9865952305
0.9856583884
0.9852544707
0.9851082537
0.9850841488
0.9851269086
0.9852199682
0.9853671057
0.9855856123
0.9859057988
0.9863750735
0.9870682539
0.988110072
0.9897277167
0.9924389935
887157.5835
360267.9258
205380.2657
142346.3625
106138.7903
67445.54988
21284.34928
2612.85146
899.6217648
538.1133995
335.2926291
212.8080973
137.7242846
91.44547913
63.90857057
47.32219173
34.97658283
25.97953477
19.64436878
15.0138842
11.57576093
9.019677461
7.109517966
5.671160882
4.579929431
3.744661909
3.099933265
2.598769097
2.206881307
1.900008504
1.661393027
1.478919766
1.341487244
1.237668455
1.158804022
1.09957271
1.056829644
1.027861153
1.009572388
0.9987676615
0.9927479687
0.9895910468
0.9880816821
0.9875232639
0.987159213
0.9865890719
0.9856915343
0.9853036266
0.9851660982
0.9851484023
0.9851970809
0.9852960284
0.9854489218
0.985672699
0.9859971964
0.9864693454
0.9871637666
0.9882059281
0.9898270212
0.9925629439
906747.7657
371393.5392
212427.0115
146495.9999
106657.1976
57004.20801
13795.19805
1996.866814
884.4438479
536.768436
334.5445589
212.4072582
137.4092043
91.13947609
63.6149491
46.98219489
34.60338713
25.59641716
19.29419519
14.70643113
11.31271169
8.797993685
6.924080533
5.516556336
4.451584873
3.638518175
3.013499588
2.52967416
2.152872595
1.858723644
1.630493327
1.456082513
1.325089684
1.226389533
1.151466865
1.095096115
1.054284646
1.026524811
1.008935077
0.9985024424
0.992662981
0.9895825113
0.9880961725
0.9875322074
0.9871510198
0.9865792193
0.9857192325
0.9853493352
0.9852211688
0.9852100004
0.985264546
0.9853693518
0.985528101
0.9857574494
0.9860868145
0.9865626911
0.9872594869
0.9883032688
0.9899286301
0.9926868829
922678.1811
382383.5515
219276.8004
150223.5986
103639.9137
44882.47713
8798.036008
1718.299766
879.0870952
533.8308267
332.6619675
211.2300445
136.572816
90.49164683
63.12462841
46.48153129
34.1031012
25.11677806
18.87202597
14.34467427
11.00889401
8.545430525
6.714986715
5.343774396
4.308841448
3.522025546
2.91978632
2.455767516
2.095940523
1.815854646
1.5987801
1.433000503
1.308617824
1.215054043
1.144044122
1.090515382
1.051640993
1.025110632
1.008244028
0.9982038672
0.9925593898
0.9895652736
0.9881086191
0.9875445846
0.9871442377
0.9865654732
0.9857424723
0.9853920057
0.9852737042
0.9852691619
0.985329546
0.9854402067
0.9856049251
0.9858401408
0.9861749062
0.9866553207
0.9873555709
0.9884021974
0.9900326322
0.9928109446
935131.501
393335.1677
225403.4541
153899.5957
96569.47262
33964.58575
5886.925516
1579.862783
871.0160173
529.1451923
329.6136853
209.2643603
135.2122684
89.50096177
62.43163808
45.81549994
33.47282026
24.54034246
18.3789963
13.93035217
10.66614519
8.26373824
6.48309322
5.153725472
4.15405023
3.397297042
2.820850217
2.37888012
2.037575916
1.772531725
1.567148213
1.410219004
1.292445604
1.203917218
1.136706664
1.085940598
1.048965813
1.023656804
1.007519205
0.9978812682
0.992440782
0.9895400211
0.9881182622
0.9875585536
0.9871380396
0.9865475956
0.9857621246
0.985432004
0.985323921
0.9853260872
0.9853923059
0.9855088456
0.9856796626
0.9859210408
0.9862617195
0.986747443
0.9874521748
0.9885028128
0.9901390943
0.992935236
944277.4411
404292.5983
230958.723
156625.7911
83722.79488
24273.16585
4271.114412
1499.577237
860.7103868
522.8487056
325.475552
206.5497145
133.348852
88.17860111
61.53407339
44.98188966
32.71147228
23.8684602
17.81754513
13.46629363
10.28721802
7.954381228
6.231373733
4.949716155
3.990034822
3.267062993
2.71912045
2.30098661
1.979251798
1.72977645
1.536270643
1.388170919
1.276857627
1.193170412
1.129583741
1.081457018
1.046312703
1.022194891
1.006777789
0.9975431301
0.9923107584
0.9895077793
0.9881248002
0.9875726272
0.9871317497
0.986525391
0.9857790129
0.9854696965
0.9853720414
0.9853809776
0.985453046
0.9855755129
0.9857525731
0.986000409
0.9863474967
0.9868392641
0.9875494527
0.9886052081
0.990248062
0.9930598367
950085.677
415151.7194
236447.6863
154291.1598
69178.7488
16641.68626
3382.554971
1445.115388
846.7922462
514.9337967
320.2646938
203.1012697
130.994159
86.53264351
60.42735184
43.97733028
31.81834512
23.10396426
17.19176384
12.95686056
9.874684241
7.621544466
5.963512393
4.73542925
3.82034772
3.134488787
2.617174191
2.224008166
1.922287843
1.688434042
1.506662827
1.367164903
1.262047015
1.182941588
1.122763343
1.077124776
1.043721028
1.020749022
1.006033467
0.997196546
0.9921725506
0.9894696512
0.9881282184
0.987585642
0.9871248342
0.9864987141
0.9857938494
0.9855054207
0.9854182812
0.9854340298
0.9855119792
0.9856404433
0.9858239054
0.9860784954
0.9864324726
0.9869309848
0.9876475549
0.988709469
0.9903595626
0.9931848028
952567.8006
425635.1373
242220.9246
146261.9908
55909.59505
11792.38833
2891.202614
1402.280902
829.2843162
505.5176722
314.0455293
198.955529
128.1687554
84.57602897
59.10823572
42.80044521
30.79579252
22.25311358
16.50839692
12.40668629
9.434525408
7.270168259
5.684221813
4.515399383
3.649055325
3.002887408
2.517475593
2.149633783
1.867756437
1.649138735
1.478679662
1.347395065
1.248127284
1.173305015
1.116298709
1.072982696
1.041217885
1.01933678
1.005296747
0.9968472672
0.9920289744
0.989426746
0.988128715
0.9875967343
0.9871168978
0.9864674825
0.9858072397
0.9855394866
0.9854628504
0.9854854374
0.9855693126
0.9857038628
0.9858938988
0.9861555405
0.9865168735
0.9870228
0.9877466265
0.9888156735
0.9904736062
0.9933101687
951970.3564
434801.1002
249693.2879
132226.0233
43015.34381
8667.233103
2598.980569
1362.287405
809.2217402
493.8213064
306.8613139
194.1437779
124.8953481
82.32623486
57.57643446
41.45373962
29.65061115
21.32592854
15.77638674
11.8236915
8.973193758
6.906118796
5.3991448
4.294745819
3.480331974
2.875333672
2.422107804
2.079177185
1.816428573
1.6123079
1.452528914
1.328958474
1.235147487
1.164292207
1.110215274
1.069052237
1.038820112
1.017970084
1.004575264
0.9964997506
0.9918823752
0.9893800968
0.9881266136
0.9876052937
0.9871076644
0.9864358202
0.9858196813
0.9855721723
0.9855059504
0.9855353895
0.985625247
0.9857659887
0.9859627819
0.9862317741
0.9866009166
0.9871148967
0.9878468057
0.988923891
0.9905901878
0.9934359498
948857.8649
442699.5019
251525.7725
114032.5648
32045.37459
6688.151222
2404.418113
1320.249493
786.667273
480.267344
298.4444777
188.723532
121.2130293
79.80900816
55.83551291
39.94333071
28.39353001
20.33544503
15.00270388
11.21634833
8.497789542
6.536215016
5.1146507
4.078686075
3.317942711
2.754302463
2.332585893
2.013508924
1.768768642
1.578162145
1.428361409
1.311877179
1.223108884
1.155903428
1.104517985
1.065341786
1.036536612
1.016656338
1.00387428
0.9961573287
0.991734653
0.9893306288
0.9881223043
0.9876109174
0.9870967074
0.9864054305
0.9858315745
0.9856037254
0.9855477737
0.9855840701
0.9856799768
0.9858270295
0.9860307732
0.9863074155
0.9866848086
0.9872074533
0.9879482231
0.989034183
0.9907092879
0.9935621429
943827.257
446975.2411
243434.5648
98412.27674
24089.73414
5456.064415
2267.306423
1278.492411
762.5518785
465.4965377
288.9923785
182.6170254
117.1546822
77.04435334
53.88605433
38.27569266
27.03793408
19.29682756
14.20043554
10.5935333
8.016357548
6.168207778
4.837254918
3.871833408
3.164777942
2.641459287
2.249801776
1.953069476
1.72496827
1.546755457
1.406096531
1.296119329
1.211979782
1.148117614
1.099197579
1.061850383
1.034370404
1.015399472
1.003197159
0.9958223918
0.991587304
0.9892791425
0.9881161999
0.9876133809
0.9870836284
0.9863768247
0.9858432359
0.9856343646
0.9855885023
0.9856316567
0.9857336888
0.9858871844
0.9860980803
0.9863826727
0.9867687461
0.9873006384
0.9880510003
0.9891466015
0.9908308723
0.9936887285
937788.2187
445430.9172
226819.8097
82281.38323
18260.21769
4679.358504
2161.12275
1236.22711
736.9539328
449.5703503
278.7210473
175.8313093
112.6794025
74.04975196
51.73012696
36.46202908
25.60225803
18.21940006
13.38143899
9.964893937
7.538251755
5.810292481
4.57271477
3.677612583
3.022663085
2.53767202
2.174099809
1.897946954
1.685006754
1.518026809
1.385662556
1.281617951
1.201708019
1.140900577
1.094235806
1.058570881
1.032320424
1.01420089
1.002545822
0.995496579
0.991441481
0.989226316
0.988108707
0.9876125981
0.9870681192
0.9863503388
0.9858549128
0.9856642832
0.985628308
0.9856783201
0.9857865624
0.985946643
0.9861649003
0.9864577424
0.9868529138
0.98739461
0.9881552482
0.9892611879
0.9909548907
0.9938156713
932092.6578
436961.6
202193.7948
65902.80092
13989.59892
4150.55655
2064.438002
1192.07238
709.645591
432.4606113
267.659803
168.5117109
107.7863644
70.84016687
49.37465085
34.51968118
24.10944273
17.12772004
12.55753274
9.341229761
7.073664669
5.469836032
4.325192232
3.498054445
2.892438996
2.443159083
2.105410991
1.847975572
1.648714588
1.491865825
1.366946318
1.268285155
1.192230013
1.134210875
1.089609193
1.055492269
1.030382873
1.013060209
1.001921117
0.9951809409
0.99129805
0.9891727113
0.9881002085
0.9876085843
0.9870499537
0.9863261756
0.9858667969
0.9856936521
0.9856673521
0.9857242233
0.9858387683
0.9860055854
0.9862314189
0.9865328094
0.9869374852
0.9874895148
0.9882610671
0.9893779723
0.9910812777
0.9939429215
927745.2761
422106.4714
177060.7262
52242.58627
10999.96028
3782.685099
1972.417546
1146.350357
681.1003167
414.4483429
255.9707064
160.7543714
102.5973576
67.43081415
46.83163654
32.47328331
22.5734642
16.04143707
11.74139155
8.734893385
6.632270725
5.152183695
4.097062532
3.3340058
2.774208612
2.357690594
2.043399541
1.802833758
1.615846554
1.468043676
1.349812732
1.256023573
1.183477794
1.12800432
1.085291977
1.052601522
1.028552332
1.011975881
1.001323142
0.9948760906
0.9911576483
0.9891187887
0.9880910566
0.9876014261
0.9870289771
0.9863044401
0.9858790365
0.9857226227
0.9857057857
0.9857695213
0.9858904691
0.9860641816
0.9862978108
0.9866080467
0.9870226211
0.9875854872
0.9883685457
0.9894969725
0.9912099557
0.9940704161
924307.5676
402400.1432
159129.0414
41514.09722
8935.342419
3514.50528
1885.154607
1097.987293
651.5270708
395.6494079
243.7204205
152.6054092
97.14858355
63.87672323
44.11977718
30.35650373
21.03501808
14.96998529
10.94701143
8.158352189
6.221220241
4.860218982
3.889181041
3.185434358
2.667564335
2.280748586
1.987572663
1.762114705
1.586080538
1.446350812
1.334117463
1.244733274
1.175383081
1.122236582
1.081257821
1.049884732
1.026822467
1.010945607
1.000751465
0.9945823122
0.9910207304
0.9890649179
0.9880815711
0.9875912579
0.9870050899
0.9862851679
0.9858917464
0.9857513298
0.9857437499
0.9858143606
0.9859418179
0.9861225913
0.9863642394
0.9866836152
0.9871084702
0.9876826493
0.9884777606
0.9896181941
0.9913408339
0.9941980796
919869.5622
379844.7996
142551.5687
32813.54126
7497.486357
3302.965869
1800.072135
1048.425485
621.0483929
376.1598441
230.990148
144.1340579
91.55366375
60.20690938
41.27659739
28.21501653
19.52712158
13.92749469
10.18971503
7.621738057
5.84439951
4.594889729
3.701378909
3.051744309
2.571794657
2.211663159
1.937369402
1.72538699
1.559105508
1.426574441
1.31971758
1.234317564
1.167880657
1.116865337
1.077481269
1.047328078
1.02518665
1.009966707
1.000205336
0.9942996654
0.9908876132
0.9890113925
0.9880720437
0.9875782458
0.9869782334
0.9862683476
0.9859050159
0.9857798941
0.9857813759
0.9858588791
0.9859929589
0.986180964
0.9864308567
0.9867596634
0.987195168
0.9877811098
0.9885887742
0.9897416276
0.9914738061
0.994325825
914629.8674
351520.2451
123536.617
25573.21714
6471.481295
3116.172699
1716.034299
997.9017615
589.9337302
356.1834891
217.9283364
135.513877
85.90191674
56.45954604
38.35707961
26.08702435
18.07875761
12.93054928
9.483398332
7.130753461
5.502897488
4.355803596
3.532791679
2.931971923
2.486011444
2.149693532
1.89221065
1.692216965
1.534617272
1.40850868
1.306476576
1.224685402
1.160909649
1.111851083
1.073938337
1.044918268
1.02363827
1.009036326
0.9996838012
0.9940280498
0.9907585072
0.9889584401
0.9880627442
0.9875625757
0.9869483726
0.9862539371
0.9859189151
0.9858084238
0.9858187857
0.9859032058
0.9860440267
0.9862394388
0.986497803
0.9868363273
0.9872828367
0.9878809635
0.9887016347
0.9898672464
0.991608751
0.9944535544
906987.0478
329399.9685
106358.2591
19894.94065
5757.538815
2950.800126
1632.731885
947.3033747
558.7133851
336.0333762
204.8854186
126.9290385
80.1697554
52.65303934
35.43030306
24.03764333
16.71308798
11.99599011
8.837207279
6.686983324
5.196012258
4.14172348
3.38212247
2.82495022
2.409252792
2.094089776
1.85153416
1.66219738
1.512330843
1.391961527
1.294267927
1.215753114
1.154414427
1.107157712
1.070606939
1.042642869
1.02217098
1.008151596
0.9991858085
0.9937672611
0.9906335443
0.9889062306
0.9880539292
0.9875444472
0.9869154795
0.9862418753
0.9859334998
0.9858370164
0.9858560921
0.9859474609
0.9860951465
0.9862981442
0.9865652071
0.9869137302
0.9873715849
0.9879822908
0.9888163748
0.9899950068
0.9917455352
0.9945811582
895676.8143
318017.5121
89546.72048
15609.5909
5273.107554
2802.348542
1549.410581
897.5223921
527.8475311
316.4833533
191.9366348
118.2668323
74.4219982
48.77049154
32.57452653
22.11631981
15.44732569
11.13793027
8.254345319
6.289351177
4.921967414
3.950887888
3.247832408
2.7294287
2.340552626
2.044130767
1.814815003
1.634954055
1.49198626
1.376758095
1.282976655
1.207445029
1.14834486
1.102752676
1.06746706
1.040490478
1.020778834
1.007309742
0.9987102739
0.9935170318
0.9905127996
0.9888548832
0.9880454328
0.9875240704
0.9868795171
0.9862320908
0.9859488148
0.9858657597
0.985893399
0.9859917554
0.9861464338
0.9863571979
0.9866331857
0.9869919823
0.9874615069
0.988085157
0.988933011
0.9901248494
0.9918840227
0.9947085156
879997.4117
313901.8581
72944.00755
12717.3854
4952.535713
2667.45749
1470.121532
850.2182153
498.3682734
296.9285299
178.9156676
109.6123555
68.73886249
44.90775841
29.86846604
20.34518169
14.29284181
10.36393904
7.733693127
5.935359241
4.678377719
3.781267996
3.128300123
2.644167409
2.278991951
1.999150156
1.781577506
1.610151924
1.47335183
1.36274252
1.272500319
1.199693901
1.142656508
1.098607124
1.064500887
1.038450851
1.019456406
1.006508168
0.9982561383
0.9932770645
0.9903963107
0.988804488
0.9880341236
0.9875016675
0.9868404233
0.9862245075
0.9859648963
0.9858947325
0.9859308015
0.9860361914
0.9861979939
0.9864167065
0.9867018432
0.98707118
0.987552682
0.9881896111
0.9890515422
0.9902566986
0.9920240669
0.9948354972
860031.1747
298618.8311
57026.51054
10878.8994
4707.747949
2532.867859
1397.084677
804.1648595
468.8775266
277.3358287
165.9101816
101.0707195
63.21634371
41.1777273
27.3735881
18.74186391
13.25531129
9.674075804
7.271625199
5.62162878
4.462475259
3.63070423
3.021899873
2.567974542
2.223713587
1.958539414
1.751393486
1.587492019
1.456221488
1.349776032
1.262747604
1.192439857
1.137309873
1.094695417
1.06169254
1.036514779
1.018198748
1.005744453
0.9978223792
0.9930470436
0.9902840864
0.9887552256
0.9880202169
0.9874774755
0.9867980931
0.9862190482
0.9859817738
0.9859240055
0.9859683859
0.9860808616
0.9862499223
0.9864767656
0.9867712718
0.9871514057
0.987645174
0.9882956854
0.9891719496
0.9903904624
0.9921654996
0.9949619654
836008.6205
274311.9456
43086.6919
9724.096766
4489.092524
2407.585911
1324.914005
758.5350688
439.5240291
257.8430207
153.072398
92.78676031
57.9628586
37.68870622
25.12377506
17.31066541
12.3303159
9.0638222
6.863431587
5.34440625
4.271396121
3.497073122
2.927092168
2.499752273
2.173943483
1.92175666
1.723885262
1.566712139
1.440414845
1.337736988
1.253638339
1.185630347
1.132270328
1.090995095
1.059028077
1.034674123
1.017001433
1.005016393
0.9974080392
0.9928266544
0.9901761145
0.9887072468
0.9880039153
0.9874517541
0.9867534165
0.9862156366
0.9859994709
0.9859536417
0.9860062302
0.9861258497
0.9863023043
0.9865374592
0.9868415504
0.9872327278
0.987739031
0.9884033946
0.9892941954
0.9905260307
0.9923081369
0.9950877748
808424.3757
242569.8025
32202.12869
9058.140296
4289.67422
2285.294904
1254.318673
713.7577967
410.5639316
238.6557732
140.6068941
84.92151512
53.07611509
34.51584578
23.12604502
16.04603837
11.51385723
8.526593561
6.503923494
5.099829066
4.102328754
3.378363474
2.842457386
2.43850802
2.128991624
1.88832364
1.698721713
1.547583338
1.425774595
1.326519185
1.245102423
1.179219416
1.127507629
1.08748656
1.056495323
1.032921739
1.015860531
1.004322001
0.997012234
0.9926155913
0.9900723694
0.9886606823
0.9879854082
0.9874247531
0.9867133687
0.9862141988
0.9860180064
0.9859836968
0.986044404
0.9861712298
0.9863552148
0.9865988597
0.9869127452
0.9873151994
0.9878342843
0.9885127355
0.9894182222
0.9906632749
0.9924517819
0.9952127709
777367.8331
205724.3811
24923.82012
8603.846233
4094.166019
2167.044441
1185.731492
670.087706
382.1842846
219.981403
128.7267088
77.6115542
48.62104696
31.68908792
21.36910719
14.93597539
10.79740004
8.055001341
6.1877531
4.884093025
3.952597931
3.272711809
2.76670589
2.383353051
2.088246485
1.857819518
1.675612857
1.529905694
1.412163501
1.316029862
1.237078529
1.17316686
1.122995355
1.084152723
1.054083652
1.031251355
1.014772558
1.003659487
0.9966341499
0.9924135601
0.9899728157
0.9886156528
0.9879648705
0.987396459
0.9866776759
0.9862146634
0.9860373944
0.986014219
0.9860829682
0.9862170667
0.986408718
0.9866610277
0.9869849083
0.9873988583
0.9879309479
0.9886236854
0.9895439522
0.9908020472
0.9925962231
0.9953367928
742472.0185
167971.1866
20641.93537
8192.880784
3897.98189
2054.025559
1119.750061
627.8622017
354.6442406
202.0986516
117.6536374
70.96014204
44.6316008
29.20619402
19.8344393
13.96635787
10.17093664
7.641805107
5.909867544
4.693699576
3.81979494
3.178467908
2.69870973
2.333516943
2.051181209
1.829883218
1.654310566
1.513508423
1.399464396
1.306189783
1.22951424
1.167438314
1.118710954
1.080979029
1.051784019
1.02965761
1.013734502
1.003027281
0.9962730599
0.9922202885
0.9898774152
0.9885722798
0.987942476
0.9873668505
0.9866460855
0.9862169618
0.9860576447
0.9860452495
0.9861219753
0.9862634154
0.986462867
0.9867240107
0.9870580777
0.9874837258
0.9880290173
0.9887362016
0.9896712861
0.9909421805
0.992741235
0.9954596752
703381.4402
134290.5611
17933.91513
7793.592193
3712.306479
1946.489369
1056.526175
587.207229
328.1401131
185.2640068
107.5387887
65.00851377
41.08588811
27.04223108
18.49878739
13.12138863
9.623784692
7.279761555
5.665371857
4.525343391
3.701688212
3.094125102
2.637450082
2.288308984
2.017325898
1.804193806
1.634594833
1.498240341
1.387573641
1.296928827
1.222363123
1.162003349
1.1146345
1.077952657
1.049588458
1.028135761
1.012743672
1.002423961
0.9959282907
0.9920355132
0.9897861234
0.9885306938
0.9879183981
0.9873358829
0.9866183635
0.9862210279
0.9860787627
0.9860768222
0.9861614689
0.9863103211
0.986517704
0.9867878441
0.9871322768
0.9875698067
0.9881284698
0.9888502208
0.9898001031
0.9910834884
0.992886579
0.995581248
660508.0916
105182.7428
16278.61498
7432.427131
3537.721886
1845.050499
996.3683705
548.3389547
302.9573544
169.7363397
98.47219437
59.7603226
37.98137445
25.16523526
17.3391015
12.38592563
9.145943316
6.962240366
5.449859128
4.376088074
3.596316831
3.018369739
2.582043638
2.247132555
1.986275711
1.780475255
1.616276683
1.483971756
1.376402432
1.288186963
1.215585464
1.156835964
1.110749019
1.075062731
1.047490226
1.026681771
1.011797754
1.001848285
0.9955992439
0.9918589916
0.9896988942
0.988491047
0.9878928164
0.9873034738
0.9865942939
0.9862267972
0.9861007491
0.9861089637
0.9862014838
0.9863578184
0.9865732588
0.9868525487
0.9872075128
0.9876570875
0.9882292618
0.988965657
0.9899302589
0.9912257638
0.9930320019
0.9957013357
613953.1082
80997.25165
15180.36893
7111.886578
3374.658726
1750.224489
939.5630495
511.47641
279.4009985
155.6944016
90.46867404
55.18171767
35.28728284
23.54107408
16.33313059
11.74571974
8.728200101
6.683242591
5.259399546
4.243345385
3.501968235
2.950062198
2.531727869
2.209474517
1.957683441
1.758491407
1.599194812
1.47059224
1.365875356
1.279913353
1.209147723
1.151914278
1.1070403
1.072300207
1.045483735
1.025292288
1.010894802
1.001299193
0.9952853998
0.9916905048
0.9896156809
0.9884535256
0.9878659247
0.9872694856
0.9865736768
0.9862342061
0.9861235988
0.9861416914
0.9862420434
0.9864059288
0.986629546
0.9869181282
0.987283773
0.9877455316
0.9883313243
0.9890823962
0.9900615805
0.9913687734
0.9931772302
0.9958197546
563334.7931
62124.9486
14494.99253
6829.221663
3223.857995
1662.426385
886.3587524
476.8419954
257.7456968
143.208792
83.4839079
51.21536056
32.95974408
22.13672371
15.46021788
11.18776697
8.362270721
6.437439267
5.090536341
4.124856192
3.417155717
2.888216932
2.485845025
2.174893107
1.931250537
1.738039426
1.583210846
1.458007208
1.355927938
1.272064612
1.203021328
1.147219681
1.103496299
1.069657455
1.043564275
1.023964456
1.010033131
1.000775751
0.9949862889
0.9915298442
0.9895364258
0.9884183608
0.9878379415
0.9872337025
0.9865563245
0.9862431913
0.9861473018
0.9861750152
0.9862831621
0.9864546633
0.9866865684
0.9869845725
0.9873610286
0.9878350845
0.9884345683
0.9892003024
0.9901938733
0.9915122663
0.9933219782
0.9959363231
507171.2269
49241.3064
14173.05012
6556.192081
3085.581768
1581.672187
836.7890628
444.5659321
238.1347001
132.2313633
77.42488277
47.78765762
30.94898059
20.92010124
14.70074675
10.69989258
8.040491857
6.219948856
4.940127307
4.018579088
3.340541104
2.831949356
2.443805933
2.142993245
1.906710339
1.718938406
1.568201607
1.446132674
1.346503113
1.264602481
1.197181169
1.142735877
1.100106539
1.067127887
1.041727785
1.022695799
1.00921126
1.00027712
0.994701481
0.9913768075
0.9894610524
0.9883858442
0.9878091279
0.9871958033
0.9865420609
0.9862536897
0.986171843
0.9862089372
0.9863248444
0.9865040213
0.986744315
0.9870518555
0.9874392327
0.9879256712
0.9885388821
0.9893192152
0.990326919
0.9916559711
0.9934659475
0.9960508641
444569.0787
40884.16855
14021.41038
6286.007383
2959.407675
1507.748457
790.803467
414.7548987
220.6030334
122.6547019
72.18531899
44.8265033
29.20927464
19.86335954
14.0378643
10.27171758
7.756373571
6.026659631
4.805537301
3.922807778
3.271008781
2.780523722
2.405121628
2.113447625
1.883842477
1.701039285
1.554065962
1.434899992
1.337554487
1.257496049
1.191607091
1.138449864
1.096862724
1.064706333
1.039971084
1.021484348
1.008427977
0.9998025993
0.9944306061
0.9912312081
0.9893894566
0.9883563471
0.9877798156
0.9871553268
0.9865307192
0.9862656369
0.9861972009
0.9862434505
0.9863670839
0.9865539892
0.9868027601
0.9871199341
0.9875183187
0.9880171946
0.9886441297
0.9894389483
0.9904604741
0.9917995966
0.9936088309
0.9961631981
374030.5602
35623.83035
13939.59622
6045.523192
2846.135274
1440.881496
748.5119332
387.5443654
205.1038134
114.3431684
67.65876314
42.26519114
27.69995283
18.94225574
13.45695425
9.894269395
7.504320868
5.85403468
4.684503054
3.836077847
3.207601946
2.733309457
2.369373277
2.085975961
1.862458535
1.684214894
1.540717931
1.424251089
1.329043079
1.25071957
1.186282456
1.134350999
1.093758146
1.062388671
1.038291648
1.020328514
1.00768228
0.9993515903
0.9941733415
0.9910928721
0.9893214846
0.988330342
0.9877504507
0.9871116248
0.9865221412
0.9862789668
0.9862233477
0.9862785387
0.9864098625
0.9866045397
0.9868618615
0.9871887462
0.9875981986
0.9881095334
0.9887501485
0.9895592868
0.9905942692
0.9919428302
0.9937503085
0.9962731413
292814.2497
32378.79589
13869.90704
5831.323474
2744.575212
1380.412746
709.585618
362.8127349
191.4332202
107.0983611
63.7258983
40.03584075
26.38199497
18.13405248
12.94449016
9.559334248
7.279257256
5.698888241
4.574998191
3.757084986
3.149472602
2.689750394
2.336193245
2.060333716
1.84239523
1.668355925
1.528084317
1.4141371
1.320936542
1.244252024
1.181193931
1.130430919
1.090787669
1.060171835
1.036687624
1.019227116
1.006973397
0.9989236214
0.9939294281
0.9909616511
0.9892569044
0.9883078202
0.9877216629
0.9870671497
0.9865161748
0.9862936087
0.9862502445
0.9863141706
0.9864531441
0.9866556243
0.9869215529
0.987258202
0.9876787523
0.9882025306
0.9888567365
0.9896799744
0.9907279946
0.9920853222
0.9938900296
0.9963805001
194180.4867
30613.36264
13779.67596
5645.095986
2655.536471
1326.53652
674.0444461
340.5267584
179.3276633
100.7849176
60.29917316
38.08708545
25.22506548
17.42099031
12.48984915
9.26043401
7.077165459
5.558692349
4.475411258
3.684790957
3.095945279
2.649403406
2.305288785
2.036326992
1.823523563
1.65337653
1.516108098
1.404520374
1.31321032
1.238077761
1.176331788
1.126683638
1.087947709
1.058053752
1.03515776
1.018179306
1.006300732
0.9985183068
0.9936986469
0.9908374188
0.9891954061
0.9882851143
0.9876940398
0.987027764
0.9865126727
0.9863094893
0.9862778462
0.9863503062
0.9864968814
0.9867071813
0.9869817521
0.9873281936
0.9877598397
0.9882960073
0.9889636683
0.989800731
0.9908613205
0.9922267051
0.9940276385
0.9964850932
62095.61689
30014.8731
13560.75553
5484.741329
2578.140398
1278.644137
640.1768519
319.8339397
168.6170561
95.24124446
57.28659393
36.36818548
24.20047632
16.78651972
12.08324282
8.991654283
6.894405544
5.431170943
4.384299708
3.618271857
3.04642205
2.61187826
2.276403768
2.013787591
1.805732585
1.639203639
1.504741354
1.395369757
1.305844476
1.232184364
1.171688505
1.123104651
1.085235674
1.056032977
1.033701177
1.01718445
1.005663805
0.9981353218
0.9934808107
0.9907200834
0.9891369727
0.9882623969
0.9876677018
0.9869931746
0.9865114915
0.9863265312
0.9863060992
0.9863868939
0.9865410136
0.9867591328
0.987042359
0.987398592
0.9878412968
0.9883897586
0.9890706903