/*--------------------------------*- C++ -*----------------------------------*\
  =========                 |
  \\      /  F ield         | OpenFOAM: The Open Source CFD Toolbox
   \\    /   O peration     | Website:  https://openfoam.org
    \\  /    A nd           | Version:  12
     \\/     M anipulation  |
\*---------------------------------------------------------------------------*/
FoamFile
{
    format      ascii;
    class       volScalarField;
    location    "600";
    object      p;
}
// * * * * * * * * * * * * * * * * * * * * * * * * * * * * * * * * * * * * * //

dimensions      [1 -1 -2 0 0 0 0];

internalField   nonuniform List<scalar> 
16200
(
80117.16488
80124.02037
80133.03045
80144.72963
80160.06883
80180.32016
80207.41699
80243.36582
80288.47596
80342.62097
80407.11194
80483.87858
80574.79584
80683.00377
80811.02836
80963.05536
81142.81299
81355.60221
81606.75362
81902.9328
82251.27367
82659.9876
83137.85924
83694.24717
84338.47445
85079.13586
85922.8542
86872.52129
87924.86096
89067.61848
90277.34076
91519.39567
92751.50483
93930.28059
95018.32918
95989.22135
96829.03695
97535.19509
98113.81193
98576.87554
98939.6177
99218.40875
99429.144
99586.20378
99701.90748
99786.35205
99847.53881
99891.62955
99923.27195
99945.91135
99962.07334
99973.59209
99981.78905
99987.6192
99991.74574
99994.70216
99996.70785
99998.39763
99998.81964
100000.4095
79151.32582
79159.58975
79169.19354
79182.13448
79199.3187
79222.20516
79253.21967
79293.79861
79344.35422
79404.67266
79476.34381
79561.66812
79662.61239
79782.76935
79924.82941
80093.48047
80292.80384
80528.68089
80807.02057
81135.21707
81521.19933
81974.04253
82503.40594
83119.45956
83832.17479
84650.41216
85580.28497
86622.78898
87770.69775
89005.44328
90295.5874
91598.84955
92868.25957
94060.39649
95142.25027
96094.29594
96909.7515
97591.68657
98149.69322
98597.17062
98949.28365
99221.54215
99428.72479
99584.18538
99699.438
99784.0278
99845.60966
99890.154
99922.21247
99945.19476
99961.62012
99973.33017
99981.66137
99987.57513
99991.76609
99994.73377
99996.77834
99998.43191
99998.84733
100000.4106
78357.50711
78366.67748
78377.44637
78391.9993
78411.40961
78437.42618
78472.83348
78518.30138
78574.25781
78640.78465
78719.74692
78813.85512
78925.13159
79057.69336
79214.44697
79400.65932
79620.86873
79881.6291
80189.53398
80552.76759
80980.09734
81481.47539
82067.46429
82749.07457
83536.85785
84439.56365
85461.8844
86601.35795
87844.72278
89165.01944
90521.67771
91865.36441
93146.73631
94325.44325
95375.57015
96286.15316
97058.1401
97700.15342
98224.87756
98646.68516
98980.28733
99239.97494
99439.08819
99589.64594
99702.08489
99785.16188
99845.99497
99890.21334
99922.16293
99945.13715
99961.59254
99973.34051
99981.70398
99987.63841
99991.84651
99994.80709
99996.86501
99998.48479
99998.89004
100000.4546
77722.00358
77731.93428
77744.35551
77760.89152
77783.00813
77812.85477
77853.16294
77904.12827
77966.14737
78039.89711
78127.34443
78231.71362
78355.09793
78502.2078
78676.20746
78882.97934
79127.5527
79417.16274
79759.11391
80162.42056
80636.79693
81193.23781
81843.37216
82599.03477
83470.93992
84466.74178
85588.11619
86827.01203
88161.79027
89555.35931
90957.95999
92315.30541
93579.20991
94715.91874
95708.98979
96556.96478
97268.38824
97856.81025
98337.3062
98724.66308
99032.73726
99274.31313
99461.05961
99603.44895
99710.64438
99790.43441
99849.24556
99892.23662
99923.44696
99945.97615
99962.16127
99973.74252
99981.99932
99987.86298
99992.02385
99994.94243
99996.98044
99998.55811
99998.9358
100000.4834
77247.82875
77258.86704
77273.29767
77292.20033
77317.5694
77352.0919
77398.09967
77455.5085
77524.64113
77606.92183
77704.36689
77820.7532
77958.21762
78122.09764
78315.84914
78546.01385
78818.20959
79140.47578
79521.03033
79969.94677
80498.10944
81117.6378
81841.02634
82680.32482
83645.35856
84741.19955
85964.55439
87299.44485
88713.73562
90159.50065
91579.47514
92918.19381
94132.97161
95199.93792
96113.61661
96881.9823
97520.22627
98045.66178
98474.759
98822.03289
99100.06747
99319.90646
99491.40238
99623.37172
99723.60387
99798.82211
99854.67087
99895.75855
99925.75112
99947.50095
99963.18509
99974.44198
99982.48561
99988.20802
99992.27357
99995.12291
99997.11834
99998.64797
99998.9907
100000.5258
76943.11471
76955.55788
76972.38249
76994.10502
77023.38324
77063.45834
77116.10395
77180.76015
77257.79665
77349.41485
77457.74484
77587.27444
77740.24295
77922.71148
78138.55951
78395.12706
78698.81162
79058.62104
79483.83732
79985.62901
80575.9242
81267.6015
82073.40309
83004.73104
84069.37902
85268.24518
86590.86282
88010.87634
89484.18924
90952.96237
92355.99017
93641.50055
94776.51749
95749.33584
96565.73121
97242.09491
97798.76975
98255.43513
98628.91576
98932.80723
99178.07841
99373.88315
99528.20041
99648.16512
99740.16623
99809.8261
99861.96417
99900.59366
99928.96504
99949.64704
99964.62702
99975.41823
99983.15186
99988.66766
99992.59359
99995.34688
99997.2791
99998.75328
99999.05266
100000.5732
76805.82658
76819.99198
76839.62251
76864.76711
76898.88035
76945.45265
77005.63599
77077.78531
77163.5007
77265.86821
77386.85521
77531.72966
77702.91005
77907.26569
78149.19503
78436.88238
78777.55718
79181.1619
79657.95866
80220.02572
80880.07826
81651.41124
82546.53014
83575.39851
84742.41764
86042.17172
87454.3309
88940.01053
90443.18628
91899.1842
93248.01413
94446.67853
95475.12605
96334.66477
97041.3996
97618.4036
98089.39102
98474.98508
98791.41154
99050.80827
99262.28745
99433.05003
99569.22035
99676.29381
99759.29226
99822.75261
99870.66776
99906.44316
99932.89556
99952.2908
99966.40882
99976.62246
99983.9682
99989.22391
99992.9739
99995.60828
99997.46055
99998.87244
99999.12231
100000.629
76835.1708
76851.66347
76874.39911
76903.5762
76943.60527
76997.51462
77065.37203
77145.99906
77242.65118
77358.1077
77494.38145
77657.57539
77850.30043
78080.25189
78352.39576
78675.75221
79058.40327
79511.19393
80045.33795
80673.75696
81409.83139
82266.97879
83256.80721
84386.54551
85655.03986
87047.68894
88531.67731
90054.83226
91551.55854
92955.46405
94213.58448
95295.92345
96196.96323
96930.37875
97520.74256
97995.70083
98380.55433
98695.60567
98955.71548
99171.18165
99349.13264
99494.83403
99612.63524
99706.48304
99780.10745
99837.01111
99880.38871
99913.04923
99937.37581
99955.32579
99968.46367
99978.01353
99984.90991
99989.86235
99993.40669
99995.9027
99997.66111
99999.00437
99999.19922
100000.6924
77028.08294
77047.43961
77073.76136
77107.77102
77155.03407
77217.27338
77294.50439
77386.02009
77494.34553
77624.0262
77776.99065
77960.26402
78176.70724
78434.8742
78740.39114
79103.15107
79532.17533
80039.26471
80636.62995
81337.95177
82156.92227
83106.28212
84195.3609
85426.58412
86790.49333
88260.44911
89789.69677
91314.32588
92763.91195
94076.59317
95211.67193
96154.71198
96914.56663
97515.41676
97987.90912
98362.1154
98663.33941
98910.55748
99116.72263
99290.0716
99435.72683
99557.10153
99656.8933
99737.62336
99801.83211
99852.06263
99890.76032
99920.16608
99942.24353
99958.64655
99970.72422
99979.54934
99985.95133
99990.56785
99993.88352
99996.22549
99997.87893
99999.14823
99999.28336
100000.7637
77365.367
77388.08816
77418.57339
77458.37263
77513.72648
77584.01098
77670.01622
77773.09311
77895.33916
78041.70005
78214.10479
78420.58357
78664.31774
78954.73429
79298.22483
79705.61977
80186.98988
80755.11925
81423.11968
82205.05757
83114.15617
84161.16406
85351.18302
86679.28867
88124.97257
89647.6584
91187.21699
92672.01483
94033.15132
95219.38343
96205.91458
96994.42512
97606.45177
98074.0741
98431.50293
98709.30999
98931.54257
99115.14097
99270.8284
99404.70296
99519.944
99618.24267
99700.79474
99768.83647
99823.83506
99867.46176
99901.47371
99927.58315
99947.35758
99962.16016
99973.13044
99981.19199
99987.06916
99991.3266
99994.39667
99996.57243
99998.11232
99999.30337
99999.37462
100000.843
77832.36214
77859.05454
77894.38803
77941.20684
78005.83994
78087.13271
78185.41731
78301.74096
78439.42362
78604.58864
78798.96995
79031.66569
79306.35155
79633.42368
80020.17118
80478.35313
81019.01268
81655.63799
82401.74965
83271.06977
84275.32681
85421.77432
86709.05716
88122.09521
89627.0168
91169.09828
92677.85198
94079.89038
95314.56341
96345.98248
97166.7348
97793.33031
98257.28424
98595.72042
98844.11562
99031.9925
99181.24662
99306.35381
99415.67427
99513.2036
99600.30197
99677.098
99743.44836
99799.45105
99845.62103
99882.85048
99912.27509
99935.12389
99952.59743
99965.78587
99975.62938
99982.90756
99988.24228
99992.12595
99994.93892
99996.93961
99998.35962
99999.46898
99999.47296
100000.9305
78428.21793
78459.60707
78500.69167
78555.94847
78630.56351
78722.53915
78833.31291
78964.94483
79120.14942
79306.66787
79526.25971
79789.09799
80099.41248
80468.5059
80904.5183
81419.96178
82026.62937
82738.3545
83568.52009
84529.65486
85630.66254
86873.40172
88247.57305
89725.34235
91258.27477
92779.5199
94213.6298
95492.39095
96569.17096
97426.02999
98072.27844
98536.62945
98857.43528
99074.17337
99221.70292
99327.37969
99410.39669
99482.57431
99549.92267
99614.45146
99675.86356
99732.89813
99784.23727
99828.98498
99866.82271
99897.95564
99922.96595
99942.64709
99957.86469
99969.45658
99978.17624
99984.66692
99989.45228
99992.9547
99995.5038
99997.32349
99998.61927
99999.64404
99999.57833
100001.0263
79144.91266
79181.8534
79229.74529
79294.60348
79380.52683
79484.84239
79610.19955
79760.12017
79936.26241
80147.79236
80396.48088
80693.55113
81043.79287
81459.35442
81949.29945
82526.9072
83204.6782
83996.50848
84914.9835
85970.11633
87165.93704
88496.29473
89939.38341
91453.15971
92975.49956
94431.81488
95748.69238
96869.66126
97765.84302
98437.47182
98908.23223
99215.72146
99402.05517
99506.80412
99562.8212
99594.58878
99618.33583
99643.21752
99673.00879
99707.90004
99746.11721
99785.18455
99822.76792
99857.11372
99887.18186
99912.57815
99933.39702
99950.04367
99963.08154
99973.118
99980.73407
99986.44556
99990.68339
99993.8031
99996.08555
99997.72089
99998.8899
99999.82754
99999.69056
100001.1308
79983.41863
80026.87341
80082.95992
80159.11113
80258.88421
80378.13302
80518.85311
80687.88578
80886.12355
81124.20965
81403.89584
81737.62232
82130.95955
82596.96881
83145.68062
83790.9125
84545.37213
85422.14181
86431.72183
87579.92053
88863.71347
90266.17606
91751.87766
93264.92468
94733.07382
96080.33656
97242.4996
98179.73838
98882.13995
99366.29523
99666.91677
99827.07685
99889.99507
99893.62495
99867.90642
99834.08951
99805.39801
99788.43765
99784.92613
99793.4263
99810.87124
99833.73774
99858.82262
99883.63976
99906.53018
99926.58136
99943.46157
99957.23291
99968.18862
99976.72767
99983.27325
99988.22339
99991.92239
99994.66281
99996.67914
99998.12902
99999.1702
100000.0187
99999.80958
100001.2441
80920.49516
80971.84381
81037.70671
81125.7435
81238.66531
81373.99489
81532.64865
81723.50895
81947.0316
82215.73995
82531.33859
82907.46394
83350.42824
83873.91876
84488.54198
85208.05246
86044.61266
87009.50811
88109.7612
89345.06687
90702.93988
92153.67429
93647.46253
95116.95998
96485.8559
97684.00319
98662.14934
99399.52226
99904.04873
100205.5057
100345.9876
100370.9846
100322.7482
100236.4578
100138.6468
100047.2401
99972.56796
99918.87986
99886.04634
99871.2011
99870.16189
99878.51307
99892.31566
99908.46332
99924.77028
99939.87894
99953.08781
99964.15787
99973.14246
99980.2534
99985.77069
99989.98431
99993.15844
99995.52678
99997.28023
99998.54541
99999.45893
100000.2167
99999.93651
100001.3663
81951.38711
82012.27991
82088.78001
82189.48176
82316.45005
82470.44727
82650.97009
82868.45254
83122.29634
83427.08888
83784.43956
84208.94248
84707.48254
85294.09978
85979.7045
86777.5755
87698.66996
88751.30981
89937.19124
91247.37808
92657.40484
94123.81471
95584.3747
96964.8906
98192.29073
99208.85178
99983.59277
100514.6289
100824.9314
100953.7128
100947.0444
100850.3733
100703.5308
100538.2495
100377.483
100235.9249
100121.2178
100035.4881
99976.97871
99941.58676
99924.17931
99919.58805
99923.25651
99931.55711
99941.85872
99952.42384
99962.23189
99970.781
99977.91271
99983.67173
99988.20888
99991.71571
99994.38273
99996.38915
99997.88507
99998.96787
99999.75483
100000.421
100000.0737
100001.4977
83084.44088
83156.97132
83245.8803
83364.98835
83511.16256
83685.87313
83889.95974
84136.46067
84423.16244
84766.71237
85168.76138
85644.82391
86202.41137
86855.8185
87615.96973
88494.90647
89500.94777
90637.34364
91897.94356
93262.88441
94694.54146
96136.67646
97518.91627
98766.83771
99817.34043
100629.6328
101191.716
101518.4036
101644.0563
101613.635
101474.35
101269.8163
101036.55
100802.5473
100587.2359
100402.2877
100252.9141
100139.3634
100058.4653
100005.0594
99973.2104
99957.12079
99951.71999
99952.94543
99957.79166
99964.19854
99970.87146
99977.08005
99982.47961
99986.96633
99990.57499
99993.40792
99995.5883
99997.2451
99998.49048
99999.39442
100000.0568
100000.6314
100000.2211
100001.6384
84319.91361
84406.84689
84510.04574
84648.35239
84813.20988
85010.89034
85240.22819
85518.08403
85840.58925
86226.41785
86677.40316
87209.85914
87831.72374
88556.94616
89395.4813
90356.6261
91444.1397
92654.07293
93970.3428
95360.97298
96775.92898
98149.55389
99408.97262
100486.7161
101334.4368
101930.1582
102279.4556
102410.4263
102365.0099
102190.7174
101933.7577
101634.7523
101326.4583
101033.1216
100770.8427
100548.5452
100369.2819
100231.6638
100131.3061
100062.1525
100017.5963
99991.31836
99977.82316
99972.68753
99972.59313
99975.20709
99979.00031
99983.0445
99986.83171
99990.12657
99992.86001
99995.05377
99996.76968
99998.09068
99999.09374
99999.82332
100000.3639
100000.8481
100000.3761
100001.7884
85648.76554
85753.29556
85870.28068
86027.87513
86214.3515
86439.20051
86697.99257
87012.03734
87375.88645
87809.98289
88316.1881
88911.06579
89602.35037
90402.58441
91319.47241
92358.08336
93516.03969
94780.67977
96124.90058
97504.63307
98859.88818
100120.5705
101217.7064
102096.5694
102726.0958
103102.5913
103246.3415
103194.8679
102994.2304
102691.9856
102331.8859
101950.9202
101577.9741
101233.7106
100931.183
100676.8641
100471.9162
100313.537
100196.3073
100113.417
100057.702
100022.4136
100001.7079
99990.8648
99986.30583
99985.46855
99986.62387
99988.67256
99990.96394
99993.14633
99995.058
99996.64805
99997.92266
99998.92267
99999.69252
100000.253
100000.6754
100001.0709
100000.5376
100001.9479
87088.51603
87213.38044
87345.36639
87525.03316
87734.86351
87991.01578
88283.56746
88638.15044
89047.77539
89534.23333
90099.1159
90758.53216
91519.39703
92391.91912
93380.50208
94484.7504
95694.70851
96987.72503
98325.35824
99653.08987
100904.9323
102012.2707
102915.9507
103577.3945
103983.3623
104146.0401
104096.8069
103878.9312
103539.774
103125.1623
102675.5254
102223.9745
101795.6355
101407.8609
101070.9722
100789.2862
100562.3262
100386.0789
100254.2485
100159.3954
100093.8951
100050.6486
100023.5283
100007.5713
99998.98409
99995.01195
99993.75568
99993.96874
99994.8759
99996.02289
99997.16537
99998.18719
99999.04406
99999.7385
100000.2848
100000.6821
100000.9907
100001.2997
100000.7055
100002.1166
88649.54108
88798.59611
88950.60924
89158.18152
89392.65593
89681.58268
90009.57496
90406.10511
90862.59313
91401.76092
92024.77503
92746.64135
93572.93271
94510.61797
95559.62604
96712.62948
97950.5807
99240.05799
100532.1928
101765.5111
102873.2715
103794.1696
104483.1579
104918.9086
105104.6115
105064.9124
104838.5903
104471.5554
104010.3853
103498.0522
102971.2536
102459.2514
101983.6588
101558.8404
101192.7039
100887.6888
100641.9058
100450.3087
100305.8629
100200.6046
100126.5325
100076.2636
100043.4416
100022.9066
100010.6887
100003.8724
100000.4146
99998.9419
99998.57061
99998.75605
99999.18039
99999.66884
100000.1315
100000.5361
100000.8689
100001.1094
100001.309
100001.5335
100000.879
100002.2949
90331.27559
90508.27706
90680.32019
90915.51784
91175.65433
91498.33224
91862.72623
92301.82192
92805.45696
93396.80963
94076.60517
94857.95802
95744.29987
96738.06908
97833.09439
99013.52389
100250.2839
101499.8068
102705.629
103804.0927
104733.3891
105444.1465
105907.4824
106118.4785
106093.9016
105867.2175
105481.3231
104982.3906
104414.8209
103818.1278
103225.1947
102661.6342
102145.8641
101689.5954
101298.6248
100973.7665
100711.919
100507.1573
100351.8259
100237.5268
100155.9516
100099.4896
100061.6023
100036.9713
100021.4829
100012.0884
100006.6227
100003.6038
100002.0535
100001.3475
100001.1027
100001.0916
100001.1834
100001.3137
100001.4433
100001.5338
100001.6298
100001.7709
100001.0551
100002.4834
92112.8995
92319.4272
92511.23056
92777.29467
93064.72537
93422.24888
93824.4332
94307.47369
94859.73864
95503.85645
96239.80402
97077.53276
98016.97012
99054.41911
100176.0903
101356.8138
102558.0016
103728.3519
104808.0846
105736.5775
106461.7609
106948.8606
107185.0715
107179.5607
106959.2603
106563.0905
106035.4398
105421.0821
104761.4219
104092.295
103442.9009
102835.4994
102285.6536
101802.7439
101390.7321
101049.0301
100773.498
100557.4641
100392.7516
100270.6041
100182.4654
100120.5441
100078.1579
100049.8634
100031.4302
100019.6995
100012.4038
100007.9678
100005.3313
100003.8001
100002.9328
100002.455
100002.1984
100002.07
100002.0066
100001.9542
100001.9523
100002.0102
100001.2297
100002.6824
93994.28588
94225.60701
94430.85307
94728.31149
95047.39665
95443.87422
95887.86423
96418.06717
97021.59116
97718.921
98508.59698
99396.02497
100376.2741
101438.4348
102560.5007
103708.4777
104836.2596
105888.4797
106806.7976
107538.2449
108043.5712
108303.1603
108318.57
108109.979
107711.135
107163.6193
106511.3986
105796.8059
105057.8667
104326.7779
103629.3116
102984.7107
102406.0202
101900.5872
101470.7841
101114.8144
100827.6479
100601.9786
100429.1921
100300.2379
100206.3609
100139.6285
100093.2473
100061.6764
100040.5919
100026.745
100017.7821
100012.0483
100008.4121
100006.1177
100004.6722
100003.7587
100003.1757
100002.8038
100002.5577
100002.3698
100002.2757
100002.2492
100001.4075
100002.8897
95958.42134
96224.19539
96456.82847
96787.72543
97141.33729
97579.55262
98067.53378
98644.80492
99297.75003
100043.1947
100877.4947
101800.5942
102801.7933
103862.5472
104952.9248
106031.6717
107048.1804
107947.1902
108676.1348
109192.9447
109472.3516
109508.7454
109315.3939
108920.296
108361.1163
107679.979
106919.1593
106117.9928
105311.0481
104527.0823
103788.757
103112.6398
102509.5715
101985.132
101540.3181
101172.2904
100875.2549
100641.3652
100461.6405
100326.7891
100227.8983
100156.9274
100106.9991
100072.4981
100049.0266
100033.263
100022.7817
100015.8598
100011.3041
100008.3045
100006.3225
100005.0032
100004.1149
100003.5143
100003.0955
100002.7798
100002.599
100002.4861
100001.5957
100003.1031
98049.68477
98353.46142
98613.26837
98977.76293
99364.34137
99841.57577
100370.3126
100988.7304
101682.9609
102465.182
103328.6849
104267.254
105263.8458
106292.4394
107316.3334
108289.5063
109160.4591
109878.0326
110398.7007
110692.8713
110748.6971
110572.4059
110186.0021
109622.4253
108920.9727
108122.8434
107267.8736
106392.196
105527.0413
104698.0119
103924.9937
103222.2047
102598.5643
102058.1182
101600.6706
101222.4807
100917.0964
100676.2104
100490.5344
100350.5802
100247.3119
100172.6084
100119.531
100082.4096
100056.7893
100039.2897
100027.4258
100019.4167
100014.0157
100010.3652
100007.8859
100006.189
100005.0156
100004.2007
100003.619
100003.1835
100002.9212
100002.7203
100001.796
100003.3213
100263.5124
100607.192
100894.0245
101290.3502
101706.3915
102217.1227
102780.7533
103431.9818
104156.3372
104960.571
105834.0893
106764.1012
107727.2408
108691.0173
109614.0457
110448.6924
111146.194
111662.6837
111965.5191
112037.5783
111878.7046
111504.3764
110942.5132
110228.6423
109402.0417
108502.0668
107565.7578
106626.0737
105711.14
104843.7236
104041.2622
103315.9204
102674.946
102121.0505
101653.002
101266.2766
100953.8531
100707.0302
100516.2612
100371.8986
100264.8121
100186.8229
100130.9505
100091.4858
100063.9309
100044.8594
100031.7366
100022.7331
100016.5554
100012.3045
100009.3647
100007.3168
100005.8777
100004.8623
100004.1274
100003.5801
100003.2413
100002.9511
100002.0093
100003.5423
102585.8807
102966.6432
103275.5707
103702.4494
104146.2603
104685.3027
105276.8929
105950.8832
106691.7228
107500.1639
108361.3149
109256.0029
110155.329
111022.1506
111813.1039
112482.1949
112986.4134
113291.1666
113375.1083
113232.3782
112872.225
112316.8052
111597.5638
110750.8458
109814.8188
108826.498
107820.0427
106825.409
105867.9053
104967.7843
104140.3387
103395.9432
102740.3895
102175.2261
101698.3162
101304.4525
100986.1198
100734.2777
100539.1628
100390.9993
100280.5867
100199.7074
100141.3549
100099.7949
100070.4986
100050.0036
100035.7352
100025.8222
100018.9314
100014.1269
100010.7612
100008.3876
100006.7013
100005.4985
100004.6199
100003.969
100003.5581
100003.178
100002.2361
100003.7639
105009.5927
105423.2215
105750.999
106202.2414
106668.4395
107227.5117
107836.5994
108519.7085
109259.8844
110051.5491
110875.4298
111706.7247
112512.455
113253.1679
113886.3512
114370.4309
114670.1442
114760.8714
114631.8218
114286.5004
113741.2032
113022.4858
112163.4636
111200.0727
110168.7297
109103.9135
108036.9931
106995.1686
106001.2352
105073.2361
104224.5917
103464.1158
102796.329
102221.7609
101737.4804
101337.6807
101014.4147
100758.3498
100559.5403
100408.1083
100294.8029
100211.3839
100150.8321
100107.3991
100076.5356
100054.752
100039.441
100028.6967
100021.1514
100015.8372
100012.0779
100009.4025
100007.4865
100006.1089
100005.0959
100004.3497
100003.8701
100003.4007
100002.4765
100003.984
107515.0167
107956.8865
108300.1995
108768.5657
109249.6839
109818.6333
110432.7251
111108.937
111828.7951
112580.6303
113341.3101
114081.7869
114766.9558
115357.5264
115814.2978
116102.0354
116194.0899
116075.4414
115744.3838
115211.6791
114498.557
113634.0996
112651.7681
111586.3189
110472.1072
109341.0785
108222.0028
107139.603
106114.4563
105162.6746
104296.0446
103522.0171
102843.9974
102261.6181
101771.2467
101366.5465
101039.1914
100779.5954
100577.6598
100423.4262
100307.6101
100221.9621
100159.4613
100114.3549
100082.0814
100059.1316
100042.8724
100031.3687
100023.2232
100017.4399
100013.3172
100010.3624
100008.2334
100006.6931
100005.5547
100004.7215
100004.1761
100003.6191
100002.7305
100004.2009
110086.214
110548.8666
110903.2485
111381.5901
111868.0803
112433.4367
113036.7679
113687.3208
114365.1282
115053.1966
115725.5543
116350.6112
116893.1397
117316.1575
117585.524
117673.2966
117561.339
117243.144
116724.312
116020.8836
115157.2714
114163.6708
113073.0171
111918.4672
110732.2248
109543.83
108379.6924
107262.3396
106210.4047
105238.3142
104356.428
103571.0015
102884.4566
102295.631
101800.2682
101391.5608
101060.8474
100798.3217
100593.7564
100437.131
100319.1416
100231.5404
100167.3143
100120.7138
100087.1724
100063.1677
100046.0464
100033.8494
100025.1539
100018.9393
100014.4816
100011.2686
100008.9425
100007.2508
100005.996
100005.0838
100004.4745
100003.8335
100002.9977
100004.4125
112707.7349
113180.5857
113537.9786
114014.0684
114494.3898
115040.7535
115615.5344
116220.5156
116834.5723
117436.4139
117998.4695
118488.3464
118872.4532
119117.7033
119195.9799
119086.7421
118779.5964
118275.113
117584.439
116727.2217
115729.6803
114622.1659
113436.5613
112204.2499
110955.3334
109717.1439
108513.984
107366.4527
106291.4848
105302.0365
104407.217
103612.2282
102918.6196
102324.5191
101825.1117
101413.1686
101079.7305
100814.7986
100608.0377
100449.3809
100329.5163
100240.2072
100174.4557
100126.5222
100091.8415
100066.8833
100048.9788
100036.1494
100026.9503
100020.3396
100015.5734
100012.1222
100009.6138
100007.7816
100006.4193
100005.4361
100004.7639
100004.0443
100003.2774
100004.6169
115355.9328
115824.6804
116174.0392
116632.8688
117092.9751
117604.3389
118132.9138
118673.5255
119204.3868
119701.0968
120135.7389
120476.7056
120693.4015
120757.5883
120647.4215
120349.2577
119859.3143
119183.7465
118337.6988
117343.1055
116226.993
115019.274
113750.5033
112450.2779
111146.7332
109865.22
108628.1822
107454.5342
106359.7293
105355.4382
104449.6693
103646.691
102947.2729
102348.9058
101846.2706
101431.7594
101096.1465
100829.2644
100620.688
100460.3167
100338.8405
100248.0418
100180.9438
100131.8227
100096.1192
100070.2997
100051.6844
100038.2785
100028.6189
100021.6449
100016.5951
100012.9245
100010.248
100008.2854
100006.8245
100005.7774
100005.043
100004.2525
100003.5673
100004.811
117987.1854
118436.1664
118769.1729
119199.3739
119626.8281
120089.0161
120555.9088
121016.1223
121447.9352
121825.226
122120.9246
122305.4737
122352.1273
122237.8403
121946.7428
121471.2298
120812.8963
119982.123
118996.7937
117880.1496
116659.3658
115363.5769
114021.9078
112662.2536
111310.9682
109991.6491
108725.1116
107528.8035
106416.8842
105399.8967
104484.8752
103675.2553
102971.1053
102369.3392
101864.1808
101447.6786
101110.3676
100841.9324
100631.8725
100470.0652
100347.2108
100255.1165
100186.8324
100136.6544
100100.0336
100073.4369
100054.1771
100040.2464
100030.1661
100022.8593
100017.549
100013.6767
100010.8455
100008.7622
100007.2115
100006.1071
100005.3105
100004.459
100003.8634
100004.9909
120559.2206
120981.2218
121291.8
121682.1532
122065.1822
122465.2052
122856.8883
123223.7474
123544.8485
123793.5412
123944.4901
123970.9824
123850.4494
123564.9022
123103.8129
122464.6257
121653.1552
120682.8722
119573.4409
118348.73
117035.6675
115662.4489
114256.7764
112844.9883
111451.8591
110099.4466
108807.1471
107591.1322
106464.4281
105436.5845
104513.7682
103698.6671
102990.7139
102386.2976
101879.2247
101461.2309
101122.6354
100852.9924
100641.7393
100478.7408
100354.7141
100261.4971
100192.1702
100141.0533
100103.6109
100076.3137
100056.47
100042.062
100031.5979
100023.9867
100018.4377
100014.3803
100011.4067
100009.2121
100007.5804
100006.4244
100005.5653
100004.6646
100004.1604
100005.1608
123056.6893
123436.5223
123714.0203
124052.3303
124379.3891
124706.3093
125012.4676
125277.2088
125480.8411
125597.1171
125602.9568
125474.8594
125194.3614
124748.0921
124130.0936
123341.9002
122392.5553
121297.7317
120078.1849
118757.9794
117363.5846
115922.2129
114460.223
113002.5764
111572.6582
110191.1868
108876.3251
107643.1339
106503.6442
105466.5258
104537.1689
103717.5856
103006.6293
102400.2079
101891.7449
101472.6901
101133.1675
100862.616
100650.4228
100486.4475
100361.4304
100267.244
100197.0027
100145.0528
100106.8754
100078.9476
100058.5756
100043.7341
100032.9203
100025.0311
100019.2635
100015.0368
100011.9324
100009.6353
100007.9312
100006.728
100005.8066
100004.8706
100004.4554
100005.3256
125428.9833
125760.3427
126000.7548
126280.6718
126544.7507
126791.8237
127006.3912
127164.8709
127249.1416
127234.0518
127098.9689
126823.6424
126393.4027
125798.9289
125038.0649
124115.5955
123042.9992
121837.4942
120520.4621
119115.9157
117649.771
116148.289
114636.6099
113138.5054
111676.1352
110269.0668
108934.3908
107686.1992
106535.6448
105490.6144
104555.7982
103732.5937
103019.323
102411.4513
101902.0489
101482.303
101142.1605
100870.9592
100658.0451
100493.2803
100367.4328
100272.4128
100201.3716
100148.6842
100109.8502
100081.3553
100060.5059
100045.2712
100034.1391
100025.9962
100020.0291
100015.6475
100012.4232
100010.0321
100008.2641
100007.017
100006.0345
100005.0781
100004.744
100005.4831
127664.2403
127936.92
128132.823
128347.7029
128543.5028
128707.3546
128828.4039
128881.0197
128848.5388
128707.275
128438.9981
128026.5676
127458.6911
126729.5161
125840.0016
124797.4938
123615.3043
122311.7347
120908.5053
119429.4503
117899.9171
116345.2969
114789.6582
113255.7498
111764.6612
110334.9779
108982.8567
107721.5421
106561.4087
105509.6427
104570.2996
103744.2149
103029.2212
102420.374
101910.4167
101490.2952
101149.7952
100878.1652
100664.7191
100499.3273
100372.7891
100277.0555
100205.3164
100151.9768
100112.557
100083.5527
100062.2724
100046.6812
100035.26
100026.8861
100020.737
100016.2143
100012.8799
100010.4032
100008.5792
100007.2904
100006.2496
100005.2865
100005.0174
100005.6347
129720.2269
129932.9349
130084.6458
130234.4598
130362.2672
130444.7422
130474.8981
130426.087
130283.0306
130023.7905
129632.4143
129094.6437
128402.126
127551.9358
126547.5727
125398.4037
124119.1375
122728.8533
121249.4427
119704.5065
118118.8765
116517.1767
114922.5466
113356.8498
111840.274
110390.5574
109023.0426
107750.231
106581.8049
105524.3202
104581.2538
103752.9252
103036.7134
102427.2938
101917.1069
101496.8756
101156.2393
100884.3679
100670.5508
100504.6714
100377.564
100281.2217
100208.8747
100154.9591
100115.0169
100085.5554
100063.8863
100047.9726
100036.2888
100027.7048
100021.39
100016.7386
100013.3036
100010.7494
100008.8767
100007.5474
100006.4527
100005.4923
100005.2704
100005.7871
131583.0595
131736.197
131846.9452
131935.1756
131998.0132
132003.8633
131948.5868
131805.421
131560.3197
131193.2044
130690.193
130039.6064
129235.6133
128277.7405
127171.5662
125928.0704
124563.0585
123096.1954
121549.4499
119946.1898
118310.8309
116667.3303
115038.0216
113444.0145
111904.7604
110437.2527
109056.1256
107773.2276
106597.622
105535.2955
104589.1954
103759.1647
103042.1615
102432.5076
101922.3615
101502.2406
101161.6509
100889.6937
100675.6403
100509.3915
100381.8188
100284.9589
100212.0828
100157.6585
100117.2506
100087.3786
100065.359
100049.1533
100037.2314
100028.4563
100021.991
100017.2226
100013.6954
100011.0717
100009.1567
100007.7875
100006.6437
100005.6921
100005.5135
100005.9452
133249.2369
133347.8843
133420.839
133452.5127
133454.64
133390.1097
133256.5753
133027.747
132690.5211
132226.6353
131624.0114
130873.2206
129970.5728
128917.6501
127721.7444
126395.1501
124954.5712
123420.1397
121813.8529
120158.9048
118479.3947
116798.7019
115138.4621
113519.188
111959.7059
110476.3603
109083.1706
107791.4098
106609.5865
105543.1709
104594.6238
103763.3473
103045.9072
102436.2961
101926.41
101506.5765
101166.1804
100894.263
100680.0833
100513.563
100385.6124
100288.3127
100214.9757
100160.1017
100119.2781
100089.0375
100066.7016
100050.2316
100038.0936
100029.145
100022.5429
100017.6679
100014.0566
100011.3711
100009.4193
100008.0103
100006.8224
100005.8857
100005.7594
100006.0978
134729.6447
134777.1957
134812.9515
134793.4313
134740.1866
134612.6353