/*--------------------------------*- C++ -*----------------------------------*\
  =========                 |
  \\      /  F ield         | OpenFOAM: The Open Source CFD Toolbox
   \\    /   O peration     | Website:  https://openfoam.org
    \\  /    A nd           | Version:  12
     \\/     M anipulation  |
\*---------------------------------------------------------------------------*/
FoamFile
{
    format      ascii;
    class       volScalarField;
    location    "0.026";
    object      k;
}
// * * * * * * * * * * * * * * * * * * * * * * * * * * * * * * * * * * * * * //

dimensions      [0 2 -2 0 0 0 0];

internalField   nonuniform List<scalar> 
16000
(
0.047675161
0.02074442
0.02134271
0.016251658
0.013810272
0.012530314
0.011757611
0.011304051
0.010991231
0.01078442
0.010630895
0.01051714
0.010428391
0.010358473
0.010302425
0.010257328
0.010220871
0.010191366
0.010167633
0.010148604
0.010133226
0.010121161
0.01011197
0.010105226
0.010100522
0.010097656
0.010096418
0.010096667
0.010098284
0.010101158
0.01010519
0.010110303
0.010116445
0.010123582
0.010131695
0.010140773
0.010150816
0.010161833
0.010173841
0.010186865
0.010200921
0.010216006
0.010232102
0.010249155
0.010267068
0.010285698
0.010304873
0.010324393
0.010344046
0.010363622
0.010382931
0.010401816
0.010420165
0.01043793
0.010455133
0.010471883
0.01048836
0.010504794
0.010521389
0.0105382
0.010554893
0.010570378
0.010582334
0.010586749
0.010578044
0.010551478
0.010508149
0.010460934
0.010435579
0.010451284
0.010510163
0.010532726
0.010477862
0.010364805
0.010284022
0.01024174
0.010230799
0.010202658
0.010143482
0.010157042
0.044768335
0.019840883
0.019983251
0.015725274
0.0134827
0.012327868
0.011603815
0.011190685
0.010896893
0.010706435
0.010563035
0.010457824
0.010375451
0.010311004
0.010259475
0.010218263
0.010185268
0.010158899
0.010137969
0.010121559
0.010108494
0.010098597
0.0100915
0.010086732
0.010084031
0.010083051
0.010083655
0.010085695
0.010089055
0.010093629
0.010099315
0.010106029
0.010113713
0.010122324
0.010131836
0.01014223
0.010153502
0.010165652
0.010178692
0.01019264
0.010207505
0.010223276
0.010239924
0.010257388
0.010275565
0.010294306
0.010313434
0.010332751
0.010352045
0.010371111
0.010389764
0.010407857
0.010425296
0.010442052
0.010458176
0.010473804
0.010489146
0.010504434
0.010519844
0.010535369
0.010550586
0.010564232
0.01057363
0.010574268
0.010560759
0.010530472
0.010487099
0.010444471
0.010426433
0.010451189
0.010508936
0.010522095
0.01045174
0.010339429
0.010260451
0.010231493
0.010235594
0.010210248
0.010153108
0.010165072
0.041311371
0.019228141
0.018846535
0.015185829
0.013148506
0.012115844
0.01144584
0.01107374
0.010801714
0.010628695
0.010496215
0.010399985
0.010324446
0.010265762
0.010219084
0.010182005
0.010152627
0.010129566
0.010111592
0.010097798
0.010087282
0.010079696
0.010074852
0.010072094
0.010071466
0.010072442
0.010074957
0.01007885
0.010084009
0.01009033
0.010097711
0.010106062
0.010115316
0.010125423
0.010136348
0.010148066
0.010160565
0.01017384
0.010187894
0.010202738
0.010218373
0.010234782
0.010251924
0.010269729
0.010288087
0.010306842
0.010325814
0.010344803
0.010363603
0.010382018
0.010399875
0.010417045
0.010433458
0.01044911
0.010464081
0.010478537
0.010492704
0.010506815
0.010521002
0.010535164
0.010548734
0.010560192
0.010566405
0.010562135
0.010542616
0.010508287
0.010465201
0.010427853
0.010418138
0.010453242
0.010506314
0.010507772
0.010423747
0.010312124
0.010237044
0.010220839
0.010236333
0.010216784
0.010158499
0.010156114
0.038273759
0.018848599
0.017809696
0.014703822
0.012847018
0.011923158
0.011302664
0.010967633
0.010716011
0.010558766
0.010436735
0.010348819
0.010279791
0.01022655
0.010184529
0.010151452
0.010125503
0.010105499
0.01009041
0.010079072
0.010071126
0.010065773
0.010063174
0.01006252
0.010063753
0.010066657
0.010071031
0.010076726
0.010083627
0.010091631
0.010100634
0.010110541
0.010121274
0.010132776
0.010145003
0.010157922
0.010171513
0.010185765
0.010200674
0.010216243
0.010232467
0.010249323
0.010266762
0.010284707
0.010303045
0.010321616
0.010340237
0.010358712
0.010376842
0.010394444
0.01041136
0.010427485
0.01044277
0.010457241
0.010471003
0.010484243
0.010497199
0.010510092
0.010522997
0.010535694
0.010547416
0.010556281
0.010558696
0.010548748
0.010523392
0.010486321
0.010444705
0.010413173
0.010411395
0.010454574
0.010502152
0.010488573
0.010392422
0.010283488
0.010215453
0.010211388
0.010229378
0.010222418
0.0101739
0.010143633
0.034999749
0.018728553
0.017118753
0.014259614
0.012567656
0.011742716
0.011169595
0.01086908
0.010637388
0.010494952
0.01038315
0.010303171
0.010240503
0.010192527
0.010155043
0.010125933
0.010103418
0.010086267
0.010073992
0.010065298
0.010059858
0.010056732
0.010056247
0.010057771
0.010060859
0.010065684
0.010071901
0.010079376
0.010087988
0.010097633
0.010108204
0.010119598
0.010131733
0.010144538
0.010157963
0.010171967
0.010186523
0.010201612
0.010217226
0.01023336
0.010250005
0.010267133
0.01028469
0.010302596
0.010320734
0.010338945
0.010357045
0.010374842
0.01039215
0.010408797
0.010424649
0.010439621
0.010453693
0.010466917
0.010479422
0.010491415
0.010503139
0.010514793
0.010526371
0.010537486
0.010547089
0.010552828
0.010550559
0.010534212
0.010503929
0.010465444
0.010426251
0.010401052
0.010406077
0.010453457
0.010493235
0.01046364
0.010357681
0.010252423
0.010195912
0.010202944
0.010227264
0.010225654
0.01018406
0.010128953
0.032633198
0.018798232
0.016611037
0.013854262
0.01231087
0.011575799
0.011047792
0.010778928
0.010566343
0.010437555
0.010335661
0.010263186
0.010206682
0.010163789
0.010130692
0.01010545
0.010086433
0.010072108
0.010062396
0.010056703
0.010053533
0.01005318
0.01005421
0.010057733
0.010062988
0.010069701
0.010077741
0.010086963
0.010097241
0.010108466
0.010120527
0.010133317
0.010146743
0.010160729
0.010175215
0.010190152
0.010205508
0.010221258
0.010237389
0.010253892
0.010270754
0.010287948
0.010305417
0.010323078
0.010340815
0.010358472
0.010375867
0.010392817
0.010409145
0.010424699
0.010439366
0.010453085
0.010465861
0.010477774
0.010488979
0.010499699
0.010510178
0.01052057
0.010530744
0.010540073
0.010547099
0.010549111
0.010541078
0.010518366
0.01048477
0.010446163
0.010410413
0.01039146
0.010401911
0.010449787
0.010477594
0.010430699
0.01031968
0.010221733
0.010178983
0.010194164
0.010223221
0.010227513
0.010194264
0.010117818
0.030864271
0.018979311
0.01623193
0.013483397
0.012074153
0.011421577
0.010936498
0.010696651
0.010502225
0.010386096
0.010293833
0.010228543
0.010178071
0.01014017
0.010111396
0.010089919
0.010074381
0.010063234
0.010055804
0.010052834
0.010051531
0.010053348
0.010057529
0.01006312
0.010070308
0.010078909
0.010088748
0.010099676
0.010111561
0.010124288
0.010137743
0.010151813
0.010166397
0.010181413
0.010196793
0.010212483
0.010228445
0.01024465
0.010261084
0.010277735
0.01029459
0.010311623
0.01032878
0.010345977
0.010363102
0.010380004
0.01039651
0.010412444
0.010427644
0.010441976
0.010455348
0.010467722
0.01047913
0.010489678
0.010499549
0.010508982
0.010518207
0.010527295
0.010535923
0.010543138
0.010546966
0.0105447
0.010529775
0.010502016
0.010466549
0.010428712
0.010396649
0.010382958
0.010398631
0.010443348
0.010455668
0.01039314
0.01028048
0.01019325
0.010164032
0.010184929
0.010215973
0.010226748
0.01020139
0.010110151
0.028339088
0.019205884
0.015825094
0.013143947
0.011855905
0.011279458
0.010834293
0.01062069
0.01044468
0.010340511
0.010257627
0.010199286
0.010154743
0.010121788
0.010097336
0.010079574
0.010067332
0.0100598
0.010054899
0.010052711
0.010055356
0.010060395
0.010066246
0.010073918
0.010083086
0.010093551
0.010105146
0.010117716
0.010131122
0.010145244
0.010159963
0.01017516
0.010190732
0.010206588
0.010222657
0.010238881
0.010255217
0.010271638
0.010288128
0.010304677
0.010321275
0.010337898
0.010354499
0.010370997
0.010387287
0.010403228
0.010418657
0.010433409
0.010447338
0.010460328
0.010472305
0.010483254
0.010493232
0.010502372
0.010510885
0.010519019
0.010526967
0.010534669
0.010541508
0.010546067
0.010546651
0.010538645
0.010516963
0.010485908
0.010449394
0.010412868
0.010383813
0.010373859
0.010395069
0.010434875
0.010429094
0.010352271
0.010242197
0.01016756
0.010150454
0.010175952
0.01020756
0.010220004
0.010205726
0.010102061
0.026499233
0.019407697
0.015222688
0.012832332
0.011655131
0.011147996
0.010741589
0.010552539
0.010394189
0.010301098
0.010227308
0.01017571
0.010136993
0.010108934
0.010088808
0.010074843
0.01006581
0.010061101
0.010060294
0.010062445
0.010066496
0.010072532
0.010080744
0.0100905
0.010101613
0.010113892
0.010127166
0.010141277
0.010156079
0.010171445
0.010187251
0.010203378
0.010219719
0.01023618
0.010252688
0.010269183
0.010285625
0.010301986
0.010318254
0.010334425
0.010350492
0.010366441
0.010382229
0.010397786
0.010413014
0.010427785
0.010441953
0.010455366
0.010467892
0.010479432
0.010489929
0.010499389
0.010507891
0.010515595
0.010522734
0.010529552
0.01053617
0.010542333
0.010547086
0.010548753
0.010544705
0.010529509
0.010503746
0.010470003
0.010433039
0.010398122
0.010371405
0.010363859
0.010390598
0.010423114
0.010402322
0.01031082
0.010206536
0.010144073
0.010137607
0.010166467
0.010198077
0.010212328
0.010205731
0.010093098
0.02492647
0.019586806
0.014610788
0.01254534
0.011472652
0.011028728
0.010659569
0.010493003
0.010350951
0.010268141
0.010203168
0.010158158
0.01012518
0.010101986
0.010086174
0.010076138
0.010070715
0.010069423
0.010071227
0.010075459
0.010082232
0.010091012
0.01010139
0.010113188
0.010126184
0.010140184
0.010155013
0.01017051
0.010186523
0.01020292
0.010219577
0.010236375
0.010253209
0.010269984
0.01028663
0.010303089
0.010319325
0.010335317
0.01035106
0.010366557
0.010381809
0.010396809
0.010411526
0.010425899
0.010439842
0.010453245
0.010465979
0.010477909
0.010488918
0.010498918
0.01050787
0.010515795
0.010522793
0.010529048
0.010534801
0.010540271
0.010545463
0.010549862
0.010552089
0.010550182
0.010540313
0.010519984
0.010489925
0.010453842
0.010416971
0.010383671
0.010359465
0.010355451
0.010390018
0.010410587
0.01037995
0.010272446
0.01017414
0.010123227
0.010125081
0.010156061
0.010187536
0.010202821
0.010198096
0.010083221
0.023437274
0.019749668
0.014093177
0.012283546
0.011308775
0.010922031
0.01058786
0.010441082
0.010315096
0.010241957
0.010185538
0.010147018
0.010119722
0.0101014
0.010089909
0.010083812
0.010082078
0.010083732
0.010088429
0.010095696
0.010104985
0.010116018
0.010128554
0.010142309
0.010157067
0.010172628
0.010188817
0.01020547
0.010222434
0.010239573
0.010256767
0.010273905
0.010290887
0.010307624
0.010324051
0.01034012
0.010355804
0.010371093
0.010385992
0.010400512
0.010414665
0.010428451
0.010441849
0.01045481
0.010467264
0.010479118
0.010490267
0.010500594
0.010509994
0.010518392
0.010525757
0.010532124
0.010537611
0.010542416
0.010546774
0.010550842
0.010554466
0.010556835
0.010556233
0.010549903
0.010534653
0.010509111
0.010475054
0.010437292
0.010400776
0.010368787
0.010347201
0.010351342
0.010392347
0.010400614
0.01035197
0.010240402
0.010145626
0.010104717
0.010112675
0.010144415
0.010175125
0.010190241
0.010183237
0.010072274
0.022112581
0.019898448
0.013642866
0.012046988
0.011162926
0.010826651
0.010526286
0.010397469
0.01028687
0.010222926
0.010174832
0.010142765
0.010121129
0.010107719
0.010100601
0.010098407
0.010100179
0.01010526
0.010112988
0.010122923
0.010134707
0.010148027
0.010162591
0.01017814
0.010194454
0.010211326
0.010228583
0.010246063
0.010263615
0.010281112
0.010298439
0.010315501
0.010332211
0.010348495
0.010364299
0.01037959
0.010394355
0.010408599
0.010422338
0.010435593
0.010448381
0.010460712
0.010472572
0.010483925
0.010494718
0.010504878
0.010514323
0.010522958
0.01053069
0.010537452
0.010543217
0.01054803
0.010552019
0.010555384
0.010558333
0.010560928
0.010562806
0.010562829
0.010558882
0.010547947
0.010527397
0.010496835
0.010459358
0.010420445
0.010384475
0.010353897
0.010337736
0.010358581
0.010392382
0.010394092
0.010324145
0.010215545
0.010122094
0.010088253
0.010100468
0.010131939
0.01016039
0.010173689
0.010162299
0.010061001
0.020912696
0.019972973
0.013226745
0.011833693
0.011034517
0.010743013
0.010474981
0.010362413
0.010266588
0.010211536
0.010171593
0.010145998
0.010130044
0.0101216
0.010118918
0.010120735
0.010126147
0.010134474
0.010145173
0.010157803
0.010171987
0.010187401
0.010203773
0.010220841
0.010238381
0.010256189
0.010274096
0.010291949
0.01030961
0.010326967
0.010343927
0.010360415
0.010376369
0.010391736
0.010406483
0.010420594
0.010434078
0.010446953
0.010459246
0.010470984
0.010482187
0.010492866
0.010503017
0.010512613
0.010521618
0.010529983
0.01053765
0.010544547
0.010550593
0.010555721
0.010559906
0.010563193
0.010565713
0.010567656
0.01056918
0.010570216
0.010570169
0.010567577
0.010559962
0.010544327
0.010518586
0.010483439
0.010443179
0.01040368
0.010368768
0.010342129
0.010337275
0.010371608
0.010394586
0.010387643
0.010303661
0.010197108
0.010103911
0.010073965
0.010088848
0.010120028
0.010143869
0.010153419
0.010146497
0.010050366
0.019832385
0.019955413
0.012850296
0.011642313
0.01092287
0.010671119
0.010434141
0.010336374
0.010254747
0.01020845
0.010176555
0.010157495
0.010147278
0.010143874
0.010145686
0.010151535
0.010160564
0.010172133
0.010185705
0.010200841
0.010217173
0.010234383
0.01025219
0.010270342
0.010288619
0.010306828
0.010324812
0.010342441
0.010359606
0.010376222
0.010392229
0.010407584
0.010422258
0.010436228
0.010449486
0.010462039
0.010473916
0.010485149
0.01049577
0.010505802
0.010515262
0.010524159
0.010532489
0.010540239
0.010547391
0.010553919
0.010559791
0.010564955
0.01056934
0.010572877
0.01057553
0.010577341
0.010578436
0.010578981
0.010579061
0.010578455
0.010576318
0.010570881
0.010559452
0.010539136
0.010508478
0.010469311
0.010427029
0.010387849
0.010355772
0.010337522
0.010345537
0.01038516
0.010399706
0.01038057
0.010289898
0.010184601
0.010091614
0.010063897
0.010078541
0.010110681
0.010130079
0.010134144
0.010127348
0.010041355
0.018856491
0.019619696
0.012510506
0.011472315
0.010827891
0.010611239
0.010404081
0.010320006
0.010252081
0.010214575
0.010190686
0.010178256
0.010173848
0.010175541
0.010181864
0.010191709
0.010204258
0.010218884
0.010235068
0.010252373
0.010270435
0.010288934
0.010307601
0.010326195
0.01034452
0.010362408
0.010379736
0.010396412
0.01041237
0.010427572
0.010441998
0.010455648
0.010468529
0.010480653
0.010492039
0.010502719
0.010512738
0.010522135
0.010530937
0.010539156
0.010546793
0.01055385
0.010560324
0.010566212
0.010571516
0.010576235
0.01058036
0.010583856
0.010586655
0.010588678
0.010589876
0.01059028
0.010590001
0.010589175
0.010587796
0.010585475
0.010581119
0.010572701
0.010557402
0.01053254
0.010497375
0.010454874
0.010411492
0.010373969
0.01034659
0.010337901
0.010363213
0.010397064
0.010404799
0.010371037
0.010281336
0.010177857
0.01008528
0.010058066
0.010071225
0.010104951
0.010123546
0.010120436
0.01011056
0.010033252
0.017971404
0.01859786
0.012205538
0.011322856
0.010749884
0.010563835
0.010385415
0.010314323
0.010259698
0.010231116
0.010215238
0.010209517
0.010210947
0.010217716
0.010228455
0.010242117
0.010257908
0.010275215
0.010293527
0.010312413
0.010331516
0.010350535
0.010369226
0.010387387
0.010404863
0.010421543
0.010437354
0.010452264
0.010466265
0.010479373
0.010491619
0.010503045
0.010513694
0.010523608
0.010532833
0.010541422
0.010549431
0.010556896
0.010563825
0.010570207
0.010576025
0.010581268
0.010585933
0.010590027
0.010593571
0.010596588
0.010599086
0.010601037
0.010602366
0.01060298
0.010602815
0.010601887
0.010600295
0.010598127
0.010595276
0.010591168
0.010584478
0.010572975
0.010553818
0.010524647
0.010485499
0.010440468
0.010397049
0.010362552
0.010343805
0.010345996
0.010379229
0.010403894
0.010406856
0.010360675
0.010276924
0.01017684
0.010085989
0.010055363
0.010066734
0.010102073
0.010123506
0.010123584
0.010092371
0.010026093
0.017171218
0.017248685
0.011938475
0.011194022
0.010687913
0.01052993
0.010379263
0.010320782
0.010279075
0.010259565
0.010251672
0.010252656
0.010259835
0.010271503
0.010286367
0.010303426
0.010321905
0.010341201
0.01036082
0.010380353
0.010399481
0.010417946
0.010435565
0.010452206
0.010467787
0.010482275
0.010495673
0.010508016
0.010519362
0.010529785
0.01053936
0.010548166
0.010556273
0.010563746
0.010570648
0.010577046
0.010582999
0.01058853
0.010593618
0.010598221
0.010602302
0.010605844
0.010608841
0.010611303
0.010613262
0.010614758
0.010615809
0.010616381
0.010616384
0.010615705
0.01061427
0.010612089
0.01060924
0.010605754
0.010601399
0.010595408
0.010586238
0.010571531
0.010548549
0.010515382
0.010472893
0.010426306
0.01038441
0.01035567
0.010344629
0.010357279
0.010391388
0.010407639
0.01040541
0.010351871
0.010275789
0.010181209
0.010093593
0.010057293
0.010062463
0.010099056
0.010123318
0.010123937
0.010076079
0.010020331
0.016451849
0.016412011
0.011713216
0.011086247
0.010643066
0.010510937
0.010387145
0.01034108
0.010311918
0.010301565
0.010301551
0.01030908
0.01032171
0.010337821
0.010356176
0.010375816
0.010395993
0.010416137
0.010435808
0.010454663
0.010472461
0.01048904
0.010504312
0.010518248
0.010530867
0.010542224
0.010552404
0.010561512
0.010569665
0.010576981
0.010583571
0.010589536
0.01059496
0.010599914
0.010604467
0.01060869
0.010612635
0.010616306
0.010619651
0.010622599
0.010625101
0.010627139
0.010628699
0.010629779
0.010630405
0.010630618
0.010630435
0.010629807
0.010628624
0.010626758
0.010624136
0.010620766
0.010616699
0.010611887
0.010605945
0.0105979
0.010586028
0.010567952
0.010541201
0.010504475
0.010459522
0.010412663
0.010373796
0.010352104
0.010348059
0.010367686
0.01039923
0.010409696
0.010398724
0.010346118
0.01027727
0.010190476
0.010107386
0.010064038
0.010064076
0.01009672
0.010119742
0.010109671
0.010064919
0.01001638
0.015805007
0.015417761
0.011521242
0.011000096
0.010616206
0.010508574
0.010410729
0.010377158
0.010360174
0.010358934
0.010366496
0.010380085
0.010397446
0.010417029
0.01043767
0.010458478
0.010478787
0.01049812
0.010516158
0.010532686
0.010547596
0.010560861
0.010572521
0.010582662
0.010591406
0.010598894
0.010605281
0.010610725
0.010615381
0.010619395
0.010622894
0.010625984
0.010628748
0.01063125
0.01063355
0.010635705
0.010637758
0.010639695
0.010641444
0.010642915
0.010644057
0.010644851
0.010645267
0.010645264
0.01064484
0.010644024
0.010642815
0.010641141
0.010638877
0.010635899
0.010632144
0.010627616
0.010622321
0.010616097
0.010608384
0.010598013
0.010583152
0.010561555
0.010531239
0.010491708
0.010445624
0.010400122
0.010365631
0.010351485
0.010352045
0.010375702
0.010402662
0.01041005
0.010388835
0.010342792
0.010281363
0.010204036
0.010126745
0.010076519
0.010069014
0.010093534
0.010113523
0.010101139
0.010056734
0.010013919
0.015225269
0.014754294
0.011365111
0.010936452
0.010608358
0.010525138
0.010452288
0.01043145
0.010426141
0.010433566
0.010447863
0.010466347
0.010486943
0.010508222
0.010529163
0.010549036
0.010567352
0.010583818
0.010598303
0.010610778
0.010621302
0.010629997
0.010637026
0.010642581
0.010646863
0.010650073
0.010652407
0.010654049
0.010655168
0.010655911
0.010656406
0.010656749
0.010657008
0.010657229
0.010657448
0.0106577
0.010658014
0.010658375
0.01065871
0.010658921
0.010658954
0.010658774
0.01065831
0.010657492
0.010656272
0.010654644
0.010652567
0.010649944
0.010646654
0.010642596
0.010637718
0.010632005
0.010625384
0.010617558
0.01060779
0.010594773
0.010576704
0.010551669
0.010518398
0.010477334
0.01043196
0.010389748
0.010360869
0.010351946
0.010356039
0.010381243
0.010403364
0.010407046
0.010385761
0.01034317
0.010288144
0.010220461
0.010149356
0.010094459
0.010077331
0.010093106
0.010108716
0.01009493
0.010050545
0.010012321
0.014707632
0.01400843
0.011241753
0.010898162
0.010621592
0.010564079
0.010514968
0.010506747
0.01051196
0.010526639
0.010545764
0.010566861
0.01058813
0.010608401
0.01062693
0.010643272
0.010657216
0.010668719
0.010677878
0.010684858
0.010689874
0.010693171
0.010695004
0.010695623
0.010695271
0.010694168
0.010692517
0.010690498
0.010688267
0.010685957
0.010683677
0.010681505
0.01067949
0.010677651
0.010675996
0.010674534
0.010673279
0.01067223
0.010671333
0.010670489
0.010669634
0.010668656
0.010667459
0.010665997
0.010664141
0.010661824
0.010658953
0.010655416
0.010651111
0.010645964
0.010639925
0.010632929
0.010624802
0.010615115
0.010603015
0.010587185
0.010566036
0.01053819
0.010503201
0.010462398
0.010419681
0.01038201
0.010358789
0.01035274
0.010360574
0.010385134
0.010403332
0.010405704
0.010386841
0.010348298
0.010299288
0.010238464
0.010173115
0.010116926
0.010091911
0.010096697
0.010104637
0.010087355
0.010046545
0.010011362
0.014252325
0.013435306
0.011155848
0.010889922
0.010662872
0.010629555
0.010601936
0.010604926
0.01061809
0.010637038
0.010657622
0.010677793
0.010696222
0.010712174
0.010725312
0.010735564
0.010743031
0.010747929
0.010750548
0.0107512
0.010750202
0.010747859
0.010744459
0.010740262
0.010735501
0.010730383
0.010725084
0.010719756
0.010714526
0.010709498
0.010704753
0.010700348
0.010696308
0.010692634
0.010689307
0.010686311
0.010683644
0.010681315
0.010679301
0.010677495
0.010675778
0.010674072
0.01067224
0.010670141
0.010667643
0.010664625
0.010660956
0.010656505
0.010651179
0.010644919
0.010637649
0.010629241
0.010619433
0.010607719
0.010593248
0.010574868
0.010551385
0.010522036
0.010487096
0.010448437
0.010409863
0.010377169
0.010358212
0.010354654
0.010365624
0.010387839
0.01040413
0.010406264
0.010391214
0.010357652
0.010314947
0.01026077
0.010199762
0.010144485
0.010112048
0.010102503
0.01009958
0.010080406
0.010044644
0.010011816
0.013865123
0.012980843
0.011109927
0.01091608
0.010752189
0.010724721
0.010714273
0.010724769
0.010741307
0.010759814
0.010777232
0.010792187
0.010804002
0.010812484
0.010817739
0.010820039
0.010819745
0.010817247
0.010812939
0.010807192
0.010800343
0.01079269
0.010784493
0.010775976
0.010767332
0.010758721
0.010750278
0.010742115
0.010734321
0.010726963
0.010720094
0.010713744
0.010707922
0.010702614
0.010697788
0.010693405
0.010689439
0.010685887
0.010682749
0.010679986
0.010677461
0.010674949
0.010672251
0.010669294
0.010666009
0.010662207
0.010657707
0.01065234
0.010645998
0.010638608
0.010630063
0.010620192
0.010608705
0.010595111
0.010578698
0.010558611
0.010534106
0.010504934
0.01047176
0.010436535
0.010402686
0.010374941
0.01035925
0.010357016
0.010368161
0.010389362
0.010405573
0.01040856
0.010397951
0.010370344
0.010333538
0.010286265
0.010230024
0.010174631
0.010132353
0.010108432
0.01009444
0.010074978
0.010044439
0.010012943
0.013554928
0.012616221
0.01110808
0.010978226
0.010861896
0.010848779
0.010848215
0.010859961
0.010873592
0.010886002
0.010895384
0.010901182
0.010903391
0.0109023
0.010898346
0.010892011
0.010883771
0.010874063
0.010863275
0.01085174
0.010839744
0.010827523
0.010815274
0.010803158
0.010791307
0.01077983
0.010768813
0.010758325
0.010748415
0.01073912
0.010730462
0.010722449
0.010715074
0.010708316
0.010702134
0.010696478
0.010691294
0.010686541
0.010682192
0.010678217
0.010674526
0.010670931
0.01066724
0.010663371
0.010659223
0.010654553
0.01064916
0.010642859
0.010635511
0.010627014
0.010617252
0.010606068
0.010593208
0.010578292
0.010560807
0.010540201
0.010516065
0.010488414
0.010457981
0.010426456
0.010396597
0.010372414
0.010359264
0.010357613
0.010367962
0.010387789
0.010405338
0.010410401
0.010406161
0.010384875
0.010352705
0.010311604
0.010260559
0.010204636
0.010153827
0.010116739
0.010093109
0.010072538
0.010045406
0.01001419
0.013338982
0.012353759
0.011152891
0.011082072
0.011001826
0.010993108
0.01099345
0.010998978
0.011003233
0.011004499
0.011002169
0.010996403
0.010987663
0.010976498
0.010963459
0.010949044
0.010933686
0.010917744
0.010901515
0.010885235
0.010869096
0.010853248
0.010837811
0.01082288
0.010808526
0.010794807
0.010781765
0.01076943
0.010757823
0.010746951
0.010736813
0.010727401
0.010718693
0.010710659
0.010703259
0.010696435
0.010690124
0.010684248
0.010678731
0.010673497
0.010668481
0.010663619
0.010658812
0.010653898
0.01064868
0.010642969
0.010636561
0.010629265
0.010620921
0.010611406
0.010600624
0.010588468
0.010574765
0.010559258
0.010541606
0.010521443
0.010498506
0.010472841
0.010445096
0.010416797
0.010390353
0.010368716
0.010356095
0.010354294
0.01036348
0.010381146
0.010400345
0.010410278
0.010411485
0.010398768
0.010370189
0.010333293
0.010287751
0.01023488
0.010180988
0.010134625
0.010100563
0.010074822
0.010047936
0.010015937
0.013215112
0.012192265
0.011257747
0.011216607
0.011156632
0.011144011
0.011135359
0.01112787
0.011117981
0.011105258
0.011089882
0.011072359
0.011053255
0.01103309
0.011012307
0.010991262
0.01097024
0.010949459
0.010929084
0.010909239
0.010890018
0.010871486
0.010853694
0.010836676
0.010820455
0.010805047
0.010790459
0.010776693
0.010763745
0.010751603
0.010740251
0.010729666
0.010719818
0.010710672
0.010702181
0.010694293
0.01068694
0.010680045
0.01067352
0.010667275
0.010661212
0.010655228
0.010649213
0.010643049
0.010636603
0.010629716
0.010622207
0.010613891
0.010604605
0.010594228
0.010582683
0.010569902
0.010555779
0.010540134
0.010522713
0.010503226
0.010481463
0.010457493
0.010431854
0.010405771
0.010381457
0.010361629
0.010349458
0.01034634
0.010352889
0.010368115
0.010387925
0.010404125
0.010409987
0.010408004
0.010384835
0.01035014
0.010308806
0.010261398
0.010210306
0.010161002
0.010118732
0.010084475
0.010052941
0.010018124
0.013154127
0.012123737
0.011425767
0.011365231
0.01130947
0.011282394
0.01125775
0.01123362
0.011208354
0.011182029
0.011154961
0.011127554
0.011100169
0.011073095
0.011046553
0.011020701
0.010995648
0.010971469
0.01094821
0.010925898
0.010904545
0.010884153
0.010864717
0.010846228
0.010828672
0.010812035
0.010796298
0.010781443
0.010767448
0.010754289
0.01074194
0.01073037
0.010719543
0.010709419
0.010699952
0.010691086
0.010682759
0.010674899
0.010667422
0.010660235
0.010653233
0.010646306
0.010639339
0.01063221
0.01062479
0.010616939
0.010608506
0.010599337
0.010589286
0.010578238
0.010566118
0.010552869
0.010538407
0.01052257
0.010505135
0.010485858
0.010464577
0.010441394
0.010416914
0.010392254
0.010369136
0.010350156
0.010337678
0.010332955
0.010336727
0.010348685
0.010366721
0.01038584
0.010399593
0.010403479
0.010395508
0.010364354
0.010325868
0.010283461
0.010237497
0.010189597
0.010143062
0.01010045
0.010060943
0.010020489
0.013168102
0.012086117
0.011583542
0.01150378
0.011436072
0.011390236
0.011348179
0.011308721
0.011270623
0.011233762
0.011198132
0.011163791
0.011130785
0.011099139
0.011068855
0.011039919
0.011012304
0.010985976
0.010960896
0.010937021
0.010914311
0.010892723
0.010872219
0.010852757
0.010834303
0.010816819
0.010800271
0.010784626
0.01076985
0.010755909
0.010742771
0.010730401
0.010718761
0.010707814
0.010697515
0.010687814
0.010678655
0.010669968
0.010661675
0.010653685
0.010645898
0.010638205
0.010630491
0.010622638
0.010614525
0.010606021
0.010596985
0.010587268
0.010576718
0.010565211
0.010552661
0.010539007
0.010524155
0.010507925
0.0104901
0.01047053
0.010449198
0.010426229
0.010402089
0.010377774
0.01035476
0.010335613
0.01032205
0.010315259
0.010316054
0.010324497
0.010339351
0.010357767
0.010375223
0.010387019
0.010388981
0.010376747
0.010342556
0.010303968
0.010262094
0.010215905
0.010166892
0.010117549
0.010069685
0.010022864
0.013263969
0.012118153
0.011704947
0.01160423
0.011521196
0.011459055
0.011403865
0.01135386
0.011307483
0.011264135
0.011223412
0.01118505
0.011148844
0.011114628
0.01108226
0.011051614
0.01102258
0.010995058
0.010968961
0.010944207
0.010920724
0.010898447
0.010877314
0.010857272
0.010838269
0.010820257
0.010803191
0.010787029
0.01077173
0.010757253
0.01074356
0.010730613
0.010718374
0.010706806
0.010695867
0.010685514
0.010675697
0.010666354
0.010657416
0.010648797
0.0106404
0.010632118
0.010623836
0.010615433
0.010606788
0.010597779
0.010588282
0.010578166
0.010567293
0.010555525
0.010542743
0.010528859
0.01051378
0.010497375
0.010479469
0.010459911
0.010438636
0.010415724
0.010391554
0.01036693
0.010343187
0.010322733
0.010307474
0.010298494
0.010296261
0.010300603
0.01031099
0.010326263
0.010343627
0.010359203
0.010368855
0.010368577
0.010353871
0.010321831
0.010284635
0.010242662
0.010192709
0.010135278
0.01007455
0.010020632
0.013388023
0.012173143
0.011772525
0.011654476
0.011561878
0.01149111
0.011429732
0.011375108
0.011325299
0.011279361
0.011236662
0.011196769
0.011159361
0.011124184
0.011091035
0.011059742
0.011030162
0.01100217
0.010975657
0.01095053
0.010926703
0.010904103
0.010882663
0.01086232
0.010843019
0.010824709
0.010807339
0.010790864
0.010775239
0.010760421
0.010746369
0.010733044
0.010720405
0.010708417
0.010697039
0.010686229
0.010675942
0.010666119
0.010656694
0.010647586
0.0106387
0.010629931
0.010621165
0.010612281
0.010603158
0.010593675
0.01058372
0.010573185
0.010561968
0.010549922
0.010536917
0.010522855
0.010507627
0.010491155
0.01047332
0.010453972
0.010432994
0.010410367
0.010386284
0.010361318
0.010336673
0.01031477
0.010298158
0.010289406
0.010287523
0.010287521
0.010289647
0.010300181
0.01031696
0.010333862
0.010347116
0.010352514
0.010347115
0.01032939
0.010299845
0.010259833
0.01021049
0.010149525
0.010081158
0.010020317
84.688424
442.43938
153.44569
18.778142
0.52985241
0.022758904
0.020347449
0.019896094
0.019472396
0.018413802
0.017108583
0.015970069
0.015081788
0.014482515
0.014057599
0.013664046
0.013278876
0.012939023
0.012658633
0.012426656
0.012229622
0.012059425
0.011911264
0.011781522
0.01166718
0.011565736
0.011475195
0.011393973
0.011320827
0.011254776
0.011195009
0.011140821
0.011091592
0.011046794
0.011006003
0.010968875
0.010935115
0.010904458
0.010876655
0.010851475
0.010828705
0.010808133
0.010789537
0.010772691
0.010757365
0.010743317
0.0107303
0.010718084
0.010706493
0.010695424
0.010684848
0.010674776
0.010665207
0.010656074
0.010647249
0.010638671
0.010630617
0.010624057
0.010620804
0.010623899
0.010616664
0.010610764
0.010618211
0.010651735
0.010698768
0.010748804