/*--------------------------------*- C++ -*----------------------------------*\
  =========                 |
  \\      /  F ield         | OpenFOAM: The Open Source CFD Toolbox
   \\    /   O peration     | Website:  https://openfoam.org
    \\  /    A nd           | Version:  12
     \\/     M anipulation  |
\*---------------------------------------------------------------------------*/
FoamFile
{
    format      ascii;
    class       volScalarField;
    location    "0.026";
    object      Ma;
}
// * * * * * * * * * * * * * * * * * * * * * * * * * * * * * * * * * * * * * //

dimensions      [];

internalField   nonuniform List<scalar> 
16000
(
0.63900086
0.75551701
0.71105658
0.73514443
0.72035836
0.72709094
0.72147576
0.7229007
0.72028871
0.7197864
0.71814952
0.71698028
0.71553643
0.7141223
0.71262419
0.71107749
0.70947087
0.70780596
0.70608143
0.70429669
0.70245121
0.70054462
0.69857678
0.69654777
0.69445793
0.69230793
0.69009873
0.68783167
0.68550848
0.68313125
0.68070249
0.67822508
0.67570226
0.6731376
0.67053497
0.66789849
0.66523251
0.66254152
0.65983015
0.65710307
0.6543649
0.65162015
0.64887306
0.6461275
0.64338684
0.64065386
0.6379306
0.63521829
0.63251725
0.62982683
0.62714534
0.62446999
0.6217969
0.61912105
0.61643626
0.61373522
0.61100971
0.60825085
0.60545022
0.60260166
0.5997038
0.59676349
0.59379983
0.59084995
0.58797675
0.58527738
0.58288903
0.58099767
0.57980223
0.57943098
0.58007111
0.58149475
0.58319379
0.58447462
0.58484505
0.58400527
0.58058829
0.58096388
0.57112734
0.5773005
0.64288622
0.76020246
0.71384595
0.73922501
0.72359807
0.73081323
0.72473453
0.72628453
0.72348027
0.72290679
0.72117559
0.7198883
0.71834805
0.71681571
0.71520422
0.71353612
0.71180529
0.71001172
0.70815476
0.70623391
0.70424894
0.70219982
0.70008678
0.69791032
0.69567128
0.69337083
0.69101052
0.68859228
0.68611848
0.68359192
0.68101581
0.67839381
0.67572991
0.6730285
0.67029424
0.66753206
0.66474706
0.66194447
0.65912959
0.65630767
0.65348385
0.65066304
0.64784977
0.6450481
0.64226148
0.63949265
0.63674351
0.63401506
0.6313073
0.62861917
0.62594855
0.62329216
0.62064558
0.61800325
0.6153584
0.61270319
0.61002883
0.60732609
0.60458627
0.60180317
0.59897581
0.59611192
0.5932322
0.59037603
0.5876089
0.58502986
0.58277741
0.58103951
0.57999251
0.57977065
0.58052818
0.58198505
0.58361855
0.58478309
0.58499019
0.58369769
0.5809057
0.57980788
0.5716737
0.57700784
0.64647999
0.76447199
0.71685567
0.74267943
0.72657917
0.73393719
0.7276929
0.72912767
0.72626377
0.72553002
0.72372376
0.7222946
0.72064414
0.71897982
0.71723844
0.71543401
0.71356303
0.71162523
0.70962023
0.70754785
0.70540818
0.70320157
0.70092869
0.69859053
0.69618848
0.69372429
0.69120021
0.68861889
0.6859835
0.68329766
0.68056549
0.67779153
0.67498074
0.67213844
0.66927024
0.66638196
0.66347958
0.66056912
0.65765657
0.65474778
0.65184833
0.64896345
0.64609787
0.64325568
0.64044024
0.63765404
0.63489863
0.63217456
0.62948128
0.62681717
0.62417943
0.62156415
0.61896627
0.61637957
0.6137967
0.6112093
0.60860818
0.60598392
0.60332793
0.60063442
0.59790325
0.59514356
0.59237825
0.58964974
0.58702704
0.58461239
0.58254706
0.58100833
0.58015785
0.5801534
0.58104595
0.5825424
0.58409527
0.58508487
0.5850577
0.5835593
0.58101778
0.57895325
0.57182639
0.57697344
0.64966843
0.76829233
0.71935942
0.74552039
0.72897558
0.73657197
0.73015183
0.73145769
0.72852688
0.72761501
0.72571983
0.72413409
0.72235719
0.7205467
0.71866023
0.71670512
0.71467981
0.71258387
0.71041721
0.70817992
0.70587245
0.70349557
0.70105046
0.69853869
0.69596234
0.69332394
0.69062658
0.68787386
0.68506993
0.68221947
0.67932768
0.67640021
0.67344314
0.67046287
0.66746605
0.66445951
0.66145009
0.65844458
0.65544961
0.65247149
0.64951611
0.64658884
0.64369433
0.64083649
0.63801828
0.63524169
0.63250766
0.629816
0.62716539
0.62455337
0.62197634
0.61942958
0.61690726
0.61440248
0.61190735
0.60941305
0.60691024
0.60438957
0.60184292
0.59926528
0.59665762
0.59403056
0.591409
0.58883774
0.58638811
0.58416438
0.58230553
0.58097007
0.58032399
0.58052407
0.5815412
0.58305859
0.58452713
0.58534106
0.58508524
0.58343213
0.58098237
0.57835573
0.57203502
0.57708405
0.65241555
0.77158783
0.72150899
0.74794366
0.73099939
0.73860937
0.73204144
0.73317286
0.73020355
0.72908257
0.72709166
0.72533574
0.7234184
0.72145006
0.71940507
0.7172862
0.71509282
0.71282459
0.71048167
0.70806455
0.70557415
0.70301186
0.70037959
0.69767977
0.6949154
0.6920901
0.68920809
0.68627418
0.68329381
0.68027297
0.67721818
0.67413641
0.67103501
0.66792161
0.66480397
0.6616899
0.6585871
0.65550303
0.65244478
0.64941892
0.64643141
0.64348743
0.64059128
0.6377463
0.63495476
0.63221779
0.62953537
0.62690629
0.6243282
0.62179758
0.61930983
0.61685929
0.6144393
0.61204226
0.60965973
0.60728263
0.60490162
0.60250777
0.60009381
0.59765599
0.59519686
0.59272894
0.5902793
0.58789495
0.58564903
0.5836462
0.58201972
0.58091592
0.58051362
0.58090285
0.58204589
0.58357514
0.58495361
0.58558819
0.58511592
0.58335769
0.58091951
0.57793052
0.57218609
0.57731418
0.6547163
0.77431281
0.72321065
0.74989714
0.73261009
0.7400292
0.73332841
0.73422989
0.73124092
0.72990174
0.72780768
0.72587335
0.72380113
0.72166207
0.71944256
0.717143
0.71476338
0.71230385
0.70976512
0.70714837
0.70445538
0.70168848
0.69885065
0.6959455
0.69297737
0.68995123
0.68687279
0.6837484
0.68058506
0.67739033
0.67417227
0.67093935
0.6677003
0.66446401
0.66123934
0.65803501
0.65485937
0.65172033
0.64862515
0.64558034
0.64259149
0.63966322
0.63679903
0.63400128
0.6312711
0.6286084
0.62601184
0.62347889
0.62100589
0.61858807
0.61621969
0.61389406
0.61160367
0.60934026
0.60709497
0.60485858
0.60262201
0.60037708
0.59811779
0.59584214
0.59355474
0.59127041
0.58901848
0.58684785
0.58483256
0.58307587
0.58170675
0.5808643
0.58070797
0.58129472
0.58255356
0.58408951
0.58537941
0.58585175
0.58520558
0.58335424
0.58089278
0.57760741
0.5724007
0.57765657
0.65661135
0.77649886
0.7245006
0.75140218
0.73382566
0.74089102
0.73429442
0.73499372
0.73173087
0.73010338
0.72788414
0.72575228
0.72349831
0.72116367
0.7187427
0.71623526
0.71364204
0.71096398
0.70820268
0.70536035
0.7024399
0.69944495
0.69637991
0.69324994
0.69006101
0.68681986
0.683534
0.68021163
0.6768616
0.67349326
0.6701164
0.66674107
0.6633774
0.66003546
0.65672505
0.65345554
0.65023563
0.64707327
0.64397544
0.64094806
0.63799586
0.63512234
0.63232969
0.62961877
0.62698911
0.62443899
0.6219654
0.61956421
0.61723023
0.61495731
0.61273849
0.61056606
0.6084317
0.6063266
0.60424164
0.6021677
0.60009624
0.59802019
0.59593522
0.59384155
0.59174638
0.58966712
0.58763544
0.58570186
0.58394046
0.58245141
0.58135691
0.58082053
0.58089684
0.58170097
0.58306659
0.58461368
0.58582687
0.58616313
0.58538575
0.58345486
0.58093137
0.57740478
0.57273797
0.57813894
0.65817097
0.77818565
0.72537582
0.75248264
0.73449647
0.74155322
0.73451867
0.73457076
0.73152717
0.72967899
0.7272923
0.72493078
0.72245683
0.71989181
0.71723442
0.71448497
0.71164482
0.70871596
0.7057011
0.70260378
0.69942841
0.69618028
0.6928656
0.68949151
0.68606604
0.68259809
0.67909734
0.67557417
0.67203952
0.66850472
0.66498135
0.661481
0.65801507
0.65459457
0.65122987
0.64793053
0.64470509
0.64156091
0.63850405
0.63553917
0.63266949
0.62989673
0.62722115
0.6246416
0.62215554
0.6197592
0.61744765
0.61521492
0.6130542
0.61095791
0.6089179
0.60692553
0.60497185
0.60304767
0.60114388
0.59925172
0.59736353
0.59547369
0.59357999
0.59168528
0.58979967
0.58794334
0.58615016
0.58447194
0.58298198
0.58177789
0.58098385
0.58073101
0.58106081
0.58210565
0.58358059
0.58514999
0.58630773
0.58654339
0.58567489
0.58368641
0.58106094
0.57732892
0.57325792
0.57878816
0.65943618
0.7793704
0.72580409
0.75308938
0.73452707
0.74073297
0.73409383
0.73389263
0.73070928
0.72852576
0.72592841
0.72330463
0.72057164
0.71773927
0.71480833
0.71178023
0.70865741
0.70544321
0.70214196
0.69875901
0.69530076
0.69177472
0.68818948
0.68455466
0.68088087
0.67717963
0.67346318
0.66974436
0.66603635
0.66235253
0.65870615
0.65511012
0.65157672
0.6481174
0.64474247
0.64146098
0.63828048
0.63520694
0.63224464
0.62939617
0.62666242
0.62404264
0.62153456
0.61913448
0.61683742
0.61463727
0.612527
0.61049876
0.60854411
0.60665417
0.60481976
0.60303154
0.60128014
0.59955634
0.59785129
0.59615697
0.59446696
0.59277747
0.59108873
0.58940652
0.58774402
0.58612416
0.5845827
0.5831723
0.58196572
0.58105874
0.58057019
0.58061584
0.58126341
0.58248736
0.58408283
0.58569039
0.58681834
0.58699466
0.58608171
0.58406892
0.58130774
0.57740904
0.57400106
0.57962628
0.66035932
0.77998854
0.72571913
0.75253274
0.73386907
0.73974483
0.7330974
0.73234989
0.72906422
0.72653549
0.72367939
0.72075744
0.71772365
0.71458309
0.71133787
0.70799109
0.70454687
0.70101054
0.69738866
0.69368907
0.68992092
0.6860946
0.68222177
0.67831519
0.67438863
0.67045662
0.6665343
0.66263709
0.65878045
0.65497953
0.6512489
0.64760222
0.64405194
0.64060905
0.63728288
0.63408089
0.63100856
0.62806941
0.62526492
0.62259467
0.62005642
0.6176463
0.61535894
0.61318775
0.61112507
0.6091624
0.60729058
0.60550005
0.60378096
0.60212334
0.60051732
0.59895317
0.59742149
0.59591334
0.59442055
0.59293619
0.59145546
0.58997672
0.5885029
0.58704284
0.58561273
0.58423798
0.58295594
0.58181984
0.58090252
0.58029925
0.58012345
0.58047271
0.58139464
0.5828249
0.58454536
0.58620918
0.58733825
0.58749743
0.58659667
0.58461161
0.58169312
0.5776699
0.57497383
0.58072949
0.66084633
0.77988187
0.72503139
0.75072083
0.73254972
0.73779979
0.73126085
0.72995399
0.72650886
0.72359945
0.72042911
0.71716445
0.71378172
0.71028569
0.7066799
0.70296979
0.6991619
0.69526441
0.691287
0.68724091
0.68313891
0.67899522
0.67482531
0.67064577
0.66647396
0.6623278
0.65822534
0.6541845
0.65022255
0.64635587
0.64259947
0.63896673
0.63546904
0.63211566
0.62891348
0.62586701
0.62297836
0.62024732
0.61767153
0.61524668
0.61296672
0.61082415
0.60881028
0.6069155
0.6051295
0.60344156
0.60184072
0.600316
0.59885652
0.59745171
0.59609137
0.59476585
0.59346611
0.59218392
0.59091217
0.58964542
0.58838078
0.58711904
0.58586595
0.58463333
0.58344016
0.58231401
0.58129354
0.58043255
0.57980415
0.57950236
0.57963209
0.58027808
0.58145946
0.5830837
0.58492924
0.58666544
0.58783075
0.58801293
0.58717179
0.58528404
0.58219687
0.57810769
0.57616923
0.58207433
0.66082624
0.77895825
0.72361239
0.74867452
0.73061024
0.73498382
0.72851357
0.72659373
0.72291976
0.71959138
0.71604325
0.71238112
0.70859334
0.70468696
0.70066794
0.69654492
0.69232805
0.6880295
0.68366329
0.67924528
0.67479295
0.67032523
0.6658622
0.66142473
0.65703405
0.65271136
0.64847733
0.64435163
0.64035244
0.63649603
0.63279637
0.62926484
0.62591
0.6227375
0.61975007
0.61694765
0.61432754
0.6118847
0.60961202
0.60750068
0.6055405
0.60372025
0.60202799
0.60045136
0.59897781
0.59759485
0.59629023
0.5950521
0.59386913
0.59273063
0.59162665
0.59054804
0.58948658
0.58843518
0.58738815
0.58634186
0.58529561
0.58425273
0.58322174
0.58221724
0.58126063
0.5803813
0.57961911
0.57902843
0.57868216
0.57867129
0.57909119
0.58000968
0.58142368
0.5832232
0.58518938
0.58700874
0.58821259
0.58845801
0.58772305
0.58599871
0.58276809
0.57861266
0.57755468
0.58346109
0.66028314
0.77717331
0.72138773
0.74556312
0.7277877
0.73117798
0.72473612
0.722154
0.71815993
0.71435886
0.71035938
0.7062326
0.70197368
0.69759363
0.69310238
0.68851328
0.68384171
0.67910542
0.67432426
0.66951997
0.66471583
0.65993627
0.6552064
0.65055149
0.64599635
0.64156475
0.63727881
0.63315841
0.62922069
0.62547963
0.62194577
0.61862608
0.61552392
0.61263921
0.60996867
0.60750614
0.60524299
0.60316859
0.60127069
0.59953591
0.59795009
0.59649869
0.59516706
0.59394074
0.59280563
0.59174821
0.59075566
0.58981595
0.58891794
0.58805141
0.58720715
0.58637704
0.58555409
0.58473269
0.58390892
0.58308118
0.58225108
0.58142448
0.58061245
0.57983203
0.57910665
0.5784672
0.57795459
0.57762332
0.57754495
0.5778052
0.57848804
0.5796451
0.58125745
0.58320705
0.58527833
0.58717722
0.58845918
0.58874303
0.58816897
0.58664095
0.58349292
0.57936666
0.57888163
0.58458459
0.65919142
0.77441062
0.71829105
0.74146899
0.72397907
0.72625851
0.71977134
0.71647195
0.71205008
0.70770508
0.70316891
0.69849704
0.6936906
0.68876649
0.68374097
0.67863421
0.67346878
0.6682698
0.66306439
0.65788137
0.65275056
0.64770229
0.64276653
0.63797223
0.63334644
0.62891357
0.62469472
0.62070708
0.61696358
0.61347268
0.61023834
0.60726026
0.60453416
0.60205227
0.59980384
0.59777573
0.59595295
0.59431928
0.59285768
0.5915508
0.59038131
0.58933226
0.58838724
0.58753066
0.58674783
0.58602508
0.58534982
0.58471058
0.58409703
0.58350003
0.58291159
0.582325
0.58173488
0.58113738
0.58053055
0.57991494
0.57929444
0.57867726
0.57807673
0.57751179
0.57700751
0.57659595
0.57631859
0.57622936
0.5763967
0.57689918
0.57780878
0.57916342
0.58093444
0.58300246
0.58515703
0.58711846
0.58848966
0.58882622
0.5884492
0.58710155
0.58413332
0.58028577
0.58014484
0.58546917
0.65748259
0.7704942
0.7142843
0.73619615
0.71902217
0.720058
0.71341994
0.70933443
0.70435686
0.69937298
0.69419984
0.68889002
0.68345291
0.67791365
0.67229752
0.66663376
0.66095415
0.65529284
0.64968554
0.64416891
0.6387795
0.63355281
0.62852222
0.62371792
0.61916598
0.61488761
0.61089859
0.60720905
0.60382348
0.60074097
0.59795569
0.59545751
0.59323274
0.59126484
0.5895352
0.58802386
0.58671009
0.58557299
0.58459189
0.58374673
0.58301834
0.58238861
0.58184063
0.5813588
0.58092887
0.58053791
0.58017437
0.57982801
0.57948991
0.57915242
0.57880921
0.57845527
0.57808705
0.57770265
0.57730215
0.57688822
0.57646692
0.57604846
0.57564793
0.57528572
0.57498789
0.57478723
0.57472516
0.57485386
0.57523718
0.57594555
0.57703973
0.57854709
0.5804341
0.58258514
0.58479735
0.58679518
0.58824496
0.58876931
0.58854499
0.58736335
0.58462942
0.58119059
0.58126995
0.58603358
0.65511216
0.76519218
0.70944815
0.72958856
0.71271198
0.71235125
0.70541081
0.70044187
0.69475969
0.68902023
0.68309991
0.67705599
0.67090956
0.66469654
0.65845392
0.6522225
0.64604541
0.63996736
0.63403341
0.62828764
0.6227716
0.61752302
0.61257434
0.6079518
0.60367464
0.59975484
0.59619715
0.59299947
0.59015355
0.5876459
0.58545867
0.58357076
0.58195874
0.58059778
0.57946246
0.57852739
0.57776777
0.57715979
0.57668092
0.57631013
0.57602794
0.57581658
0.57565989
0.5755434
0.5754542
0.57538095
0.57531377
0.57524419
0.57516509
0.5750707
0.57495655
0.57481953
0.57465804
0.57447211
0.57426383
0.57403783
0.57380202
0.57356822
0.57335272
0.5731767
0.57306656
0.57305517
0.5731831
0.57349958
0.57406305
0.57493606
0.57616968
0.57778355
0.57974281
0.58193898
0.58418195
0.58620521
0.58769747
0.58841559
0.58834939
0.58741694
0.58495075
0.58199901
0.58223456
0.58619408
0.65201691
0.75809672
0.70346067
0.72136283
0.70473322
0.70278648
0.69535304
0.68938112
0.68283652
0.67621659
0.66944191
0.66257893
0.65566478
0.64874991
0.6418866
0.63513024
0.62853706
0.62216255
0.61605924
0.61027476
0.60484992
0.59981735
0.5952005
0.59101332
0.58726033
0.58393734
0.5810324
0.57852707
0.57639776
0.57461714
0.57315538
0.57198136
0.57106362
0.57037119
0.56987418
0.56954428
0.56935498
0.56928185
0.56930254
0.56939682
0.56954656
0.56973559
0.56994965
0.57017629
0.57040472
0.57062574
0.57083161
0.57101595
0.57117373
0.57130118
0.57139581
0.57145644
0.57148336
0.57147847
0.57144566
0.57139127
0.57132463
0.57125866
0.57121025
0.5712006
0.57125586
0.57140829
0.5716966
0.57216613
0.57287026
0.57386452
0.57519181
0.57686647
0.57885524
0.58105904
0.58330364
0.58534503
0.5869156
0.5878171
0.5879698
0.58723777
0.58506318
0.58262943
0.58298782
0.58586423
0.64804203
0.74858607
0.69585165
0.71106551
0.69462976
0.69089542
0.68274778
0.6756428
0.66807976
0.66045704
0.65273554
0.64499659
0.63730002
0.62971634
0.62231681
0.61517252
0.60835093
0.60191309
0.59591095
0.59038547
0.58536521
0.5808661
0.57689164
0.57343405
0.57047575
0.56799116
0.56594862
0.56431228
0.5630438
0.56210384
0.56145328
0.56105418
0.56087046
0.56086839
0.56101687
0.56128757
0.56165492
0.56209608
0.56259081
0.56312128
0.56367191
0.56422921
0.56478163
0.56531933
0.5658341
0.5663192
0.56676925
0.56718012
0.56754891
0.56787385
0.5681544
0.56839121
0.5685863
0.56874322
0.56886739
0.56896646
0.56905074
0.56913364
0.56923197
0.56936634
0.56956212
0.56985022
0.57026629
0.57085189
0.57165639
0.57272885
0.57410532
0.57579747
0.57777633
0.57995483
0.58217704
0.5842249
0.58587337
0.58696307
0.58735257
0.58679839
0.58499754
0.58305439
0.58346159
0.58514447
0.64290308
0.73689308
0.68618187
0.69815996
0.681836
0.67612945
0.66700313
0.65861424
0.64988027
0.64114844
0.6324281
0.6238243
0.61542619
0.60732721
0.59961544
0.59237054
0.5856596
0.5795345
0.57403015
0.56916426
0.56493795
0.56133759
0.55833702
0.55590031
0.55398444
0.55254188
0.5515229
0.55087745
0.55055665
0.55051388
0.55070557
0.5510916
0.55163554
0.55230471
0.55307006
0.553906
0.55479015
0.55570308
0.55662807
0.55755076
0.558459
0.55934257
0.56019299
0.56100338
0.56176824
0.56248338
0.56314577
0.56375348
0.56430565
0.5648024
0.56524495
0.56563557
0.56597776
0.56627645
0.56653821
0.56677157
0.56698729
0.5671987
0.56742192
0.56767649
0.56798647
0.56838038
0.56889049
0.56955584
0.570422
0.57153173
0.57291617
0.57458723
0.57652251
0.5786492
0.58083145
0.58288072
0.58461072
0.58587758
0.58650206
0.58618682
0.58480537
0.58334117
0.58355481
0.5841457
0.63627381
0.72355443
0.67389817
0.68206702
0.6656393
0.6577676
0.64735146
0.63750896
0.62748731
0.6176149
0.60796132
0.59866075
0.58982863
0.58157128
0.57397662
0.5671113
0.56101812
0.55571606
0.55120162
0.54745174
0.54442734
0.54207737
0.54034274
0.53915985
0.53846367
0.53819014
0.53827795
0.53866974
0.53931288
0.54015981
0.54116807
0.54230022
0.54352353
0.54480964
0.54613415
0.54747623
0.5488182
0.55014515
0.55144466
0.5527064
0.55392194
0.55508452
0.55618883
0.55723087
0.5582078
0.55911782
0.55996012
0.56073476
0.56144271
0.56208577
0.56266662
0.56318891
0.56365732
0.56407778
0.56445763
0.56480581
0.56513304
0.56545202
0.56577775
0.5661283
0.56652563
0.56699544
0.56756775
0.56827941
0.56917117
0.57028069
0.57163747
0.57325533
0.57512013
0.57717501
0.5793045
0.58135069
0.5831672
0.58461191
0.58546672
0.58544216
0.58449352
0.58348196
0.58348477
0.58302315
0.62782311
0.70629753
0.65816017
0.66188428
0.64499021
0.63474799
0.62275984
0.6113636
0.60008696
0.58925164
0.57898365
0.56943313
0.5607164
0.55292075
0.54609897
0.5402703
0.53542296
0.53151888
0.52849938
0.52629126
0.52481245
0.5239771
0.52369954
0.52389733
0.52449333
0.52541695
0.52660476
0.52800061
0.52955537
0.53122658
0.53297781
0.53477808
0.53660126
0.53842545
0.54023242
0.54200714
0.54373727
0.54541283
0.54702582
0.54856998
0.55004052
0.55143395
0.55274792
0.55398107
0.55513296
0.55620391
0.55719504
0.55810815
0.55894571
0.55971092
0.56040766
0.5610406
0.56161528
0.56213827
0.56261725
0.56306114
0.56348015
0.56388599
0.56429222
0.56471505
0.56517398
0.56569247
0.56629872
0.5670262
0.56791148
0.56898969
0.57029019
0.57182963
0.5736031
0.57557
0.57763637
0.57967504
0.58157772
0.58320192
0.58429977
0.58460143
0.58408461
0.58342749
0.58353384
0.58168367
0.61689658
0.68406889
0.63757417
0.63619511
0.61841514
0.60568742
0.59206023
0.57927766
0.56711939
0.5558827
0.54570842
0.53671691
0.52897323
0.5224954
0.51725731
0.51319707
0.51022596
0.50823781
0.50711746
0.50674779
0.50701508
0.5078127
0.50904339
0.51062035
0.51246743
0.51451882
0.51671829
0.5190183
0.52137901
0.52376729
0.5261558
0.52852217
0.53084824
0.53311936
0.53532391
0.53745273
0.53949875
0.54145667
0.54332262
0.54509402
0.54676934
0.54834799
0.54983017
0.5512168
0.55250944
0.55371024
0.55482187
0.55584753
0.55679095
0.55765635
0.55844851
0.55917281
0.55983533
0.5604429
0.56100317
0.56152463
0.56201663
0.56248964
0.56295564
0.56342887
0.56392671
0.56447038
0.56508569
0.56580314
0.56665649
0.56767946
0.568902
0.57034441
0.57200984
0.57387218
0.57586415
0.57789334
0.57987122
0.5816529
0.58299031
0.5836477
0.58360254
0.58325642
0.58282982
0.5807244
0.60236417
0.65479631
0.61022816
0.60325485
0.5843121
0.56921386
0.55436714
0.54089762
0.52876793
0.51819405
0.50924772
0.50194552
0.49623662
0.49202113
0.48916339
0.48750726
0.48688873
0.48714611
0.48812703
0.48969285
0.49172074
0.49410422
0.49675251
0.49958934
0.50255131
0.50558629
0.50865176
0.51171333
0.51474343
0.51772014
0.52062621
0.52344825
0.52617603
0.5288019
0.53132033
0.53372749
0.53602096
0.53819947
0.54026273
0.54221122
0.54404614
0.54576929
0.54738295
0.5488899
0.55029332
0.55159676
0.55280415
0.55391977
0.55494825
0.55589457
0.55676409
0.55756262
0.55829646
0.55897241
0.55959776
0.56018027
0.56072822
0.56125069
0.5617581
0.5622629
0.56278044
0.56332982
0.5639345
0.56462241
0.56542498
0.56637506
0.56750369
0.56883482
0.57037857
0.5721228
0.57402632
0.57602503
0.57803923
0.57993674
0.58149723
0.58249483
0.58284639
0.58270228
0.58205052
0.57983898
0.58221503
0.61613652
0.57394029
0.56126803
0.54167084
0.52462925
0.50971224
0.49697775
0.48639237
0.4779984
0.47169775
0.46733027
0.46468427
0.46352526
0.46361489
0.46472614
0.46665243
0.46921227
0.47225043
0.47563699
0.47926494
0.48304742
0.48691468
0.49081127
0.49469354
0.49852745
0.5022867
0.50595128
0.50950616
0.51294032
0.51624592
0.51941768
0.52245231
0.52534815
0.52810475
0.53072269
0.53320332
0.53554863
0.53776113
0.53984376
0.54179984
0.54363302
0.54534723
0.54694664
0.54843567
0.54981896
0.55110135
0.5522879
0.55338387
0.55439471
0.55532614
0.55618415
0.55697501
0.55770524
0.55838154
0.55901076
0.55960005
0.56015714
0.56069091
0.56121217
0.56173448
0.56227493
0.56285474
0.56349946
0.56423856
0.56510397
0.56612718
0.56733471
0.56874242
0.57035015
0.57213785
0.57406344
0.5760571
0.57800169
0.57971455
0.5809897
0.58167656
0.58173435
0.58105204
0.57908377
0.55386869
0.56558445
0.52735912
0.50888492
0.48819216
0.47267981
0.45965866
0.44973043
0.44262966
0.43811308
0.435834
0.43542871
0.43653923
0.4388389
0.44204284
0.44591159
0.45024927
0.45489899
0.45973716
0.46466778
0.46961716
0.47452938
0.47936251
0.48408553
0.48867592
0.49311771
0.49739997
0.50151564
0.50546065
0.50923321
0.51283324
0.516262
0.51952172
0.52261538
0.52554649
0.52831897
0.53093702
0.53340508
0.53572775
0.5379098
0.53995612
0.54187172
0.54366172
0.54533134
0.54688589
0.54833077
0.54967149
0.55091361
0.55206278
0.55312476
0.5541054
0.55501069
0.55584671
0.55661953
0.55733515
0.55799949
0.55861854
0.55919876
0.55974764
0.56027448
0.56079114
0.56131282
0.56185869
0.56245215
0.56312066
0.56389447
0.56480408
0.56587626
0.56712992
0.56857307
0.57020079
0.5719903
0.57388785
0.57579062
0.57754449
0.57897465
0.57992476
0.58026705
0.57984745
0.57840346
0.51320069
0.50061211
0.46334537
0.44542795
0.42797706
0.41574243
0.40739507
0.40271908
0.4010602
0.40183249
0.4044671
0.408477
0.4134599
0.41909736
0.42514383
0.43141411
0.43777093
0.44411406
0.45037147
0.4564923
0.4624414
0.46819527
0.47373898
0.47906384
0.48416574
0.48904384
0.49369967
0.49813646
0.5023586
0.50637129
0.51018027
0.51379161
0.51721159
0.52044652
0.52350274
0.52638655
0.52910417
0.53166173
0.53406534
0.53632102
0.53843476
0.54041252
0.54226024
0.54398386
0.54558929
0.54708247
0.5484693
0.54975569
0.55094752
0.55205066
0.55307099
0.55401438
0.55488663
0.55569331
0.5564397
0.5571308
0.55777155
0.55836719
0.55892392
0.55944957
0.55995443
0.56045196
0.56095941
0.56149808
0.56209314
0.56277236
0.56356345
0.56449052
0.56557144
0.56681791
0.56823582
0.56981861
0.57152918
0.57328181
0.57494975
0.57640507
0.57755049
0.57828756
0.57844275
0.57779461
0.45128171
0.41869951
0.3889825
0.37411843
0.36325488
0.35842006
0.35781272
0.360515
0.36553596
0.3721163
0.37967079
0.38777495
0.39612826
0.40452352
0.41282089
0.42092835
0.42878732
0.43636234
0.44363388
0.4505932
0.45723887
0.46357427
0.46960594
0.47534238
0.48079323
0.48596875
0.49087943
0.49553573
0.49994798
0.50412621
0.50808012
0.51181906
0.51535198
0.51868747
0.52183372
0.5247986
0.52758964
0.53021413
0.5326791
0.53499141
0.53715776
0.53918472
0.54107876
0.54284627
0.54449354
0.54602681
0.54745223
0.54877587
0.55000372
0.55114169
0.55219561
0.55317119
0.55407389
0.5549088
0.55568054
0.55639328
0.557051
0.55765781
0.55821864
0.55873996
0.55923055
0.55970227
0.56017049
0.56065435
0.56117652
0.56176197
0.5624347
0.56321372
0.56411155
0.56513816
0.56630551
0.56762109
0.56906471
0.57056783
0.57203323
0.5734036
0.57470336
0.57594299
0.57693012
0.57727248
0.35550854
0.32202053
0.30439204
0.29988736
0.30123366
0.30745415
0.31657234
0.32732366
0.33883501
0.35055528
0.36214871
0.37341917
0.38425877
0.39461424
0.40446567
0.41381317
0.42266847
0.43104975
0.43897846
0.44647731
0.45356909
0.46027599
0.4666192
0.47261871
0.47829327
0.48366033
0.48873615
0.49353584
0.49807344
0.50236204
0.50641381
0.51024012
0.5138516
0.5172582
0.52046926
0.52349359
0.52633953
0.52901503
0.5315277
0.53388486
0.53609363
0.53816092
0.54009349
0.54189798
0.54358091
0.54514861
0.54660732
0.54796316
0.54922216
0.55039026
0.55147319
0.55247643
0.55340512
0.55426396
0.55505702
0.55578781
0.55645948
0.55707522
0.55763884
0.55815556
0.55863279
0.55908082
0.55951325
0.55994709
0.5604026
0.56090174
0.56146426
0.56210291
0.56282294
0.56362934
0.56453594
0.56555997
0.56669431
0.56788655
0.56907595
0.57030163
0.57175055
0.57355991
0.57547815
0.57684717
0.21645035
0.21513946
0.22048736
0.23383844
0.25108801
0.26941349
0.28761077
0.30503017
0.32144239
0.33678322
0.35107748
0.36438516
0.37677965
0.38833586
0.39912519
0.40921333
0.41865964
0.42751729
0.43583368
0.44365099
0.45100675
0.45793444
0.46446394
0.47062202
0.47643272
0.4819177
0.48709653
0.491987
0.49660529
0.5009662
0.50508335
0.50896923
0.51263542
0.51609263
0.51935086
0.52241943
0.52530711
0.52802221
0.53057264
0.53296597
0.5352095
0.53731031
0.53927528
0.54111116
0.54282455
0.54442183
0.54590915
0.54729263
0.54857864
0.54977309
0.55088146
0.55190894
0.55286057
0.55374075
0.55455325
0.55530114
0.55598707
0.55661363
0.55718378
0.5577016
0.55817313
0.55860743
0.55901718
0.55941805
0.55982695
0.56025999
0.56073091
0.56124926
0.56181787
0.56243768
0.5631202
0.56388606
0.56473501
0.56562262
0.56652663
0.56758636
0.5691628
0.57155339
0.57438532
0.57645664
0.091855063
0.12170006
0.15905329
0.19263611
0.22269951
0.24915734
0.27262759
0.2935759
0.31241758
0.32947823
0.34502025
0.35925374
0.37234919
0.38444607
0.3956597
0.40608625
0.41580671
0.42488978
0.43339422
0.44137062
0.44886284
0.45590911
0.46254299
0.46879405
0.47468853
0.48024979
0.48549877
0.4904543
0.49513344
0.49955165
0.50372308
0.50766068
0.51137635
0.51488111
0.51818516
0.52129801
0.52422858
0.52698527
0.52957608
0.53200866
0.53429037
0.53642831
0.53842941
0.54030046
0.54204822
0.54367919
0.5451994
0.54661436
0.54793262
0.54915795
0.55029701
0.55135444
0.55233583
0.55324537
0.55408669
0.55486261
0.55557543
0.55622718
0.55682007
0.5573571
0.55784325
0.55828726
0.55870235
0.55910368
0.55950269
0.55990527
0.5603278
0.56078655
0.56127559
0.56178189
0.56230736
0.56288292
0.56355216
0.56423618
0.56492935
0.56586301
0.56750849
0.57026683
0.57369583
0.57628852
0.0094636685
0.28727642
0.47647653
0.53241018
0.54453979
0.54514253
0.54458232
0.54580435
0.54724216
0.54882697
0.55036014
0.55194148
0.55335249
0.5548166
0.55624915
0.55770273
0.55916496
0.56063334
0.56210807
0.56358863
0.56507389
0.56656235
0.56805227
0.56954173
0.57102864
0.57251085
0.57398614
0.57545228
0.57690702
0.57834811
0.5797733
0.58118035
0.58256698
0.58393093
0.58526991
0.58658161
0.58786367
0.58911372
0.59032928
0.59150781
0.59264668
0.59374313
0.59479429
0.5957971
0.59674833
0.5976445
0.59848188
0.59925641
0.59996374
0.60059923
0.60115781
0.60163414
0.60202246
0.60231643
0.60250901
0.60259236
0.60255801
0.6023967
0.60209787
0.60164998
0.60104034
0.60025371
0.59927352
0.59807711
0.59664443
0.59493464
0.5929266
0.59053206
0.5877513
0.58450806
0.58097827
0.57746252
0.57451493
0.5730416
0.57318819
0.5748794
0.57768349
0.57969586
0.58066993
0.57681869
0.053310751
0.37623897
0.53314509
0.56375804
0.56551262
0.56316419
0.56206872
0.56207862
0.56225667
0.56250577
0.56285413
0.56334538
0.56398837
0.5647218
0.56552493
0.56638666
0.56730298
0.56827118
0.56928638
0.57034332
0.57143718
0.57256335
0.57371742
0.5748951
0.57609226
0.57730489
0.57852911
0.57976115
0.58099735
0.58223415
0.5834681
0.58469579
0.5859139
0.58711918
0.5883084
0.58947837
0.59062593
0.59174791
0.59284112
0.59390233
0.59492827
0.59591558
0.59686078
0.5977603
0.59861036
0.59940701
0.60014604
0.60082299
0.60143311
0.60197138
0.60243251
0.60281089
0.60310053
0.60329492
0.60338693
0.60336876
0.60323204
0.60296773
0.60256548
0.6020142
0.60130146
0.60041252
0.59933129
0.59803616
0.59650661
0.5947035
0.5926021
0.59012127
0.58726039
0.58397574
0.58043946
0.57706465
0.57428409
0.5731652
0.57333989
0.57560164
0.57795545
0.58016259
0.58052003
0.57684782
0.12137383
0.45855464
0.55746973
0.57240782
0.5714335
0.56999401
0.56978414
0.57021378
0.57052442
0.57092681
0.5713337
0.57180796
0.57230797
0.572859
0.57345271
0.57409212
0.574774
0.575498
0.57626208
0.57706392
0.57790118
0.57877135
0.57967178
0.58059962
0.58155193
0.58252565
0.58351764
0.58452469
0.58554352
0.58657082
0.58760322
0.58863733
0.58966973
0.59069697
0.59171558
0.59272205
0.59371285
0.59468442
0.59563314
0.59655533
0.59744725
0.59830506
0.59912482
0.59990246
0.60063375
0.60131427
0.60193939
0.60250421
0.60300363
0.60343228
0.60378459
0.6040547
0.6042364
0.60432303
0.60430736
0.60418162
0.60393754
0.6035662
0.60305747
0.60240056
0.60158322
0.60059117
0.59940875
0.59801509
0.59638936
0.59449342
0.59230003
0.58973512
0.58679941
0.58348254
0.57995115
0.57672568
0.5741032
0.57333262
0.57355066
0.57627526
0.57823392
0.58063294
0.58036675
0.57687122
0.20303314
0.51555397
0.57150175
0.58091371
0.57823224
0.57785582
0.5778794
0.57835859
0.57858184
0.57895067
0.57927432
0.57966754
0.58007601
0.58052226
0.58099162
0.58149006
0.58201587
0.58257109
0.58315528
0.58376787
0.58440823
0.58507552
0.58576862
0.58648618
0.58722664
0.58798819
0.58876882
0.58956633
0.59037832
0.5912022
0.59203524
0.59287454
0.59371706
0.59455961
0.5953989
0.5962315
0.59705387
0.59786235
0.59865319
0.5994225
0.60016628
0.60088042
0.60156065
0.60220255
0.60280152
0.60335277
0.60385131
0.60429191
0.60466911
0.60497729
0.60521059
0.60536292
0.60542787
0.60539861
0.60526786