/*--------------------------------*- C++ -*----------------------------------*\
  =========                 |
  \\      /  F ield         | OpenFOAM: The Open Source CFD Toolbox
   \\    /   O peration     | Website:  https://openfoam.org
    \\  /    A nd           | Version:  12
     \\/     M anipulation  |
\*---------------------------------------------------------------------------*/
FoamFile
{
    format      ascii;
    class       volScalarField;
    location    "0.026";
    object      nut;
}
// * * * * * * * * * * * * * * * * * * * * * * * * * * * * * * * * * * * * * //

dimensions      [0 2 -1 0 0 0 0];

internalField   nonuniform List<scalar> 
16000
(
4.5810849e-07
9.6261715e-06
1.9245284e-05
2.320306e-05
1.7932809e-05
2.4353734e-05
1.7470003e-05
2.381709e-05
1.8865334e-05
2.5809994e-05
2.2011836e-05
2.5585167e-05
2.3460272e-05
2.3979432e-05
2.32071e-05
2.3056596e-05
2.2821617e-05
2.2754878e-05
2.2767695e-05
2.2877176e-05
2.3076102e-05
2.3363376e-05
2.3736255e-05
2.4194466e-05
2.4739528e-05
2.5376921e-05
2.6114098e-05
2.6963245e-05
2.7939037e-05
2.9056968e-05
3.0333947e-05
3.1792643e-05
3.3462286e-05
3.5378647e-05
3.7585387e-05
4.013405e-05
4.3085329e-05
4.651084e-05
5.049867e-05
5.5156715e-05
6.0608609e-05
6.6996571e-05
7.4497287e-05
8.3321075e-05
9.3708149e-05
0.00010593496
0.00012033159
0.00013727927
0.00015721413
0.00018063149
0.00020809042
0.00024021362
0.00027767851
0.00032121328
0.00037158825
0.0004296188
0.00049617635
0.0005722561
0.00065920744
0.00075902612
0.00087489566
0.0010115536
0.0010362394
0.0010363711
0.0010358014
0.0010342726
0.001031834
0.001029144
0.0010276631
0.0010285445
0.001031697
0.001032833
0.0010295146
0.0010230982
0.0010184222
0.0010157955
0.0010149639
0.0010130932
0.0010094844
0.0010096991
4.1807068e-07
9.1979277e-06
1.9193835e-05
2.0865387e-05
1.6220851e-05
2.1873126e-05
1.5538532e-05
2.0899006e-05
1.6670722e-05
2.2810609e-05
1.9920636e-05
2.3050832e-05
2.1425239e-05
2.1703666e-05
2.1098102e-05
2.0901707e-05
2.070343e-05
2.0631787e-05
2.0644027e-05
2.0742389e-05
2.0924194e-05
2.1188138e-05
2.1531989e-05
2.1955478e-05
2.2459733e-05
2.3049627e-05
2.3731527e-05
2.4516277e-05
2.5417696e-05
2.6450809e-05
2.7631146e-05
2.8979164e-05
3.0521664e-05
3.2291482e-05
3.4329165e-05
3.6682846e-05
3.9409575e-05
4.2576026e-05
4.62634e-05
5.0573155e-05
5.5623492e-05
6.1546972e-05
6.8508629e-05
7.6708259e-05
8.637617e-05
9.7773984e-05
0.00011121634
0.0001270693
0.00014575407
0.0001677511
0.00019360569
0.00022393149
0.00025940131
0.00030074504
0.00034874271
0.00040422952
0.00046810874
0.00054142457
0.00062554988
0.00072251324
0.00083554055
0.00096939353
0.0010356891
0.0010355908
0.0010347537
0.0010330405
0.0010306059
0.0010281711
0.0010271156
0.0010284789
0.001031541
0.0010321436
0.0010279946
0.0010216259
0.0010170188
0.0010151792
0.0010151798
0.0010134814
0.0010100088
0.0010100648
3.751871e-07
8.875547e-06
1.8242196e-05
1.9163042e-05
1.4584382e-05
1.9309053e-05
1.3860774e-05
1.8195033e-05
1.5012023e-05
2.0019667e-05
1.8161903e-05
2.0507675e-05
1.937569e-05
1.9413477e-05
1.8946639e-05
1.873424e-05
1.8567074e-05
1.8501453e-05
1.8516467e-05
1.8608692e-05
1.8776962e-05
1.9020155e-05
1.9336468e-05
1.9725814e-05
2.0189138e-05
2.0731104e-05
2.1357343e-05
2.2077593e-05
2.2904684e-05
2.3853227e-05
2.4937834e-05
2.617722e-05
2.7596168e-05
2.9224989e-05
3.1101467e-05
3.3270601e-05
3.5786252e-05
3.8711271e-05
4.2121081e-05
4.6110704e-05
5.0794009e-05
5.6296261e-05
6.2772498e-05
7.0412696e-05
7.9439778e-05
9.0103977e-05
0.00010270775
0.0001176059
0.00013520967
0.00015599154
0.00018049139
0.000209325
0.00024317631
0.00028279935
0.0003290137
0.00038271282
0.00044488658
0.0005166902
0.00059961789
0.00069582414
0.00080865322
0.00094316014
0.0010352108
0.0010348289
0.0010336642
0.0010317489
0.0010293302
0.0010271933
0.0010266205
0.0010285274
0.0010313281
0.0010312412
0.0010263585
0.0010200391
0.0010156489
0.0010145224
0.001015194
0.001013824
0.001010196
0.0010094455
3.3897583e-07
8.627016e-06
1.7364719e-05
1.912348e-05
1.4157764e-05
1.7109124e-05
1.2384451e-05
1.5923689e-05
1.3538487e-05
1.7657554e-05
1.6579536e-05
1.8274479e-05
1.7503965e-05
1.7373678e-05
1.7010162e-05
1.6800545e-05
1.6659781e-05
1.6603221e-05
1.6621838e-05
1.6709481e-05
1.6865982e-05
1.7090486e-05
1.7381803e-05
1.774029e-05
1.8166485e-05
1.8665357e-05
1.9241912e-05
1.9905022e-05
2.066657e-05
2.1540844e-05
2.2541868e-05
2.3686903e-05
2.4999142e-05
2.6506781e-05
2.824535e-05
3.0257243e-05
3.2593701e-05
3.5314761e-05
3.8491469e-05
4.2213081e-05
4.6590527e-05
5.1744024e-05
5.7821112e-05
6.5003596e-05
7.3510226e-05
8.3583715e-05
9.5518313e-05
0.0001096621
0.00012642133
0.00014626669
0.00016973855
0.0001974617
0.00023013854
0.00026855625
0.00031358562
0.00036619575
0.00042748496
0.0004987547
0.00058167065
0.00067856886
0.00079298048
0.00093031885
0.0010347002
0.0010340071
0.001032534
0.0010304753
0.0010281311
0.0010263163
0.0010261902
0.0010285137
0.0010310521
0.0010300838
0.0010245487
0.0010183778
0.0010143875
0.001013953
0.0010147039
0.0010141292
0.0010111152
0.0010085655
3.0265558e-07
8.4699123e-06
1.6709806e-05
1.8928335e-05
1.4049911e-05
1.5165755e-05
1.1180706e-05
1.401359e-05
1.2279479e-05
1.5635495e-05
1.5193504e-05
1.629161e-05
1.5788621e-05
1.5544535e-05
1.5252733e-05
1.5054075e-05
1.4931354e-05
1.4881128e-05
1.4899892e-05
1.4981108e-05
1.5124598e-05
1.5330217e-05
1.5597162e-05
1.5926288e-05
1.6318017e-05
1.6777287e-05
1.7308726e-05
1.7920485e-05
1.8623493e-05
1.9431673e-05
2.0358674e-05
2.1420564e-05
2.2639237e-05
2.404109e-05
2.5659739e-05
2.7535343e-05
2.9716831e-05
3.2262039e-05
3.5238812e-05
3.8730914e-05
4.284689e-05
4.7703361e-05
5.3442142e-05
6.0237229e-05
6.8304631e-05
7.7881624e-05
8.9255926e-05
0.00010277059
0.00011882844
0.00013790088
0.00016053064
0.000187354
0.00021909491
0.00025657847
0.00030073476
0.00035262256
0.00041347322
0.00048477418
0.00056843199
0.00066707412
0.00078456615
0.00092685946
0.0010341568
0.0010331339
0.0010314071
0.0010292612
0.0010270422
0.0010255782
0.0010258382
0.0010283589
0.0010304451
0.0010286103
0.0010225587
0.001016576
0.0010132259
0.0010134437
0.0010145499
0.001014245
0.001011557
0.0010076492
2.7582037e-07
8.3801646e-06
1.6180761e-05
1.8130745e-05
1.3870442e-05
1.3470972e-05
1.1482558e-05
1.2670032e-05
1.2208527e-05
1.394814e-05
1.3990929e-05
1.4558996e-05
1.4220996e-05
1.3908583e-05
1.3657309e-05
1.3470464e-05
1.3358593e-05
1.3312099e-05
1.3329223e-05
1.3404149e-05
1.3535666e-05
1.3725043e-05
1.3970325e-05
1.4273868e-05
1.4635862e-05
1.5060941e-05
1.5553576e-05
1.6121372e-05
1.677435e-05
1.752607e-05
1.8390021e-05
1.9381346e-05
2.0520948e-05
2.1833771e-05
2.3351913e-05
2.5113729e-05
2.7166254e-05
2.9565658e-05
3.237789e-05
3.5682036e-05
3.9584532e-05
4.4199976e-05
4.9666855e-05
5.6152105e-05
6.3870731e-05
7.3057323e-05
8.3995522e-05
9.7026191e-05
0.00011255138
0.0001310473
0.00015306276
0.00017925002
0.00021035974
0.0002472616
0.00029095477
0.00034260199
0.00040359115
0.00047563685
0.00056095764
0.00066258937
0.00078492949
0.00093467649
0.0010335325
0.0010322004
0.0010303014
0.0010281322
0.0010260981
0.0010249865
0.0010255513
0.0010280663
0.001029472
0.001026661
0.0010203928
0.0010147919
0.0010122132
0.0010129215
0.0010143368
0.0010143261
0.0010120173
0.0010070382
2.5520664e-07
8.3306497e-06
1.5745475e-05
1.6738692e-05
1.3193755e-05
1.1836858e-05
1.0443807e-05
1.1433413e-05
1.092812e-05
1.2469034e-05
1.283689e-05
1.2990381e-05
1.2729549e-05
1.239717e-05
1.2172994e-05
1.2003494e-05
1.1903711e-05
1.1864092e-05
1.1882504e-05
1.1954394e-05
1.20777e-05
1.22548e-05
1.2484085e-05
1.269102e-05
1.3019517e-05
1.3408392e-05
1.386153e-05
1.4385848e-05
1.4990317e-05
1.5687824e-05
1.6491712e-05
1.7416266e-05
1.8481515e-05
1.9711049e-05
2.1135602e-05
2.279193e-05
2.472533e-05
2.6990388e-05
2.9651997e-05
3.3035017e-05
3.6768018e-05
4.1193377e-05
4.6448629e-05
5.2694611e-05
6.0146096e-05
6.903757e-05
7.9650856e-05
9.2327046e-05
0.00010746935
0.00012556253
0.00014716454
0.00017294755
0.00020369344
0.0002403225
0.0002839124
0.00033574432
0.00039738663
0.00047082454
0.0005586678
0.00066449891
0.00079347082
0.00095334468
0.0010328231
0.0010312436
0.0010292402
0.0010271027
0.0010252733
0.001024464
0.0010253068
0.0010276246
0.0010281507
0.0010244784
0.0010181543
0.0010131192
0.0010113133
0.0010123253
0.0010138151
0.0010142389
0.0010123293
0.0010066112
2.2943804e-07
8.2988659e-06
1.5314822e-05
1.4917285e-05
1.1039235e-05
1.0335307e-05
8.5701519e-06
9.7324916e-06
9.663528e-06
1.1249471e-05
1.1667039e-05
1.152669e-05
1.1303607e-05
1.0989284e-05
1.0791421e-05
1.0644866e-05
1.0560677e-05
1.0531652e-05
1.049076e-05
1.0546482e-05
1.0655447e-05
1.0815976e-05
1.1026278e-05
1.1285999e-05
1.1599212e-05
1.1968657e-05
1.2398329e-05
1.2895111e-05
1.3467454e-05
1.4127874e-05
1.4889984e-05
1.5767634e-05
1.6780462e-05
1.7951218e-05
1.9309865e-05
2.0892169e-05
2.274242e-05
2.491426e-05
2.7472371e-05
3.0494478e-05
3.4073955e-05
3.8327917e-05
4.3394924e-05
4.984981e-05
5.711531e-05
6.5806716e-05
7.6206774e-05
8.8659314e-05
0.00010357101
0.00012143958
0.000142836
0.0001684573
0.00019912254
0.00023581053
0.00027968942
0.00033217692
0.00039505001
0.00047061292
0.00056195284
0.00067335024
0.0008109708
0.00098402209
0.0010320476
0.0010302946
0.0010282302
0.0010261618
0.0010245034
0.0010239091
0.0010250218
0.0010270782
0.0010265817
0.0010221369
0.0010159494
0.0010115961
0.0010104926
0.0010117591
0.0010132264
0.0010136242
0.0010124756
0.0010061132
2.1025673e-07
8.259995e-06
1.4797672e-05
1.3130061e-05
9.0641084e-06
9.2296803e-06
7.4002075e-06
8.7903796e-06
8.9197198e-06
1.0055902e-05
1.0517325e-05
1.0185e-05
9.9786147e-06
9.6990072e-06
9.5256488e-06
9.336288e-06
9.243606e-06
9.2105389e-06
9.2303109e-06
9.2992247e-06
9.41352e-06
9.5739695e-06
9.7804739e-06
1.0032459e-05
1.0333793e-05
1.0688056e-05
1.1099363e-05
1.1574659e-05
1.2122043e-05
1.2753628e-05
1.3483397e-05
1.4324993e-05
1.5297948e-05
1.6424444e-05
1.7733997e-05
1.926182e-05
2.1051641e-05
2.3156661e-05
2.564116e-05
2.8582343e-05
3.207427e-05
3.6232524e-05
4.1199167e-05
4.7133834e-05
5.4239197e-05
6.2762319e-05
7.3636345e-05
8.5994349e-05
0.00010082657
0.00011864821
0.00014004798
0.00016575351
0.00019662832
0.00023371948
0.00027830042
0.00033194777
0.00039668068
0.00047517617
0.00057109062
0.00068956669
0.00083805221
0.0010278642
0.0010312517
0.0010293504
0.0010272592
0.0010252783
0.0010237489
0.0010232832
0.001024676
0.001026345
0.0010250213
0.001019781
0.0010138752
0.001010198
0.0010097082
0.0010111591
0.0010125884
0.0010130185
0.0010123934
0.0010055851
1.9395719e-07
8.2191866e-06
1.2501513e-05
1.145459e-05
7.3924677e-06
8.2619296e-06
6.6879558e-06
7.8721787e-06
8.3231477e-06
8.9988608e-06
9.3893401e-06
8.969112e-06
8.7678792e-06
8.4435671e-06
8.261372e-06
8.141485e-06
8.0813224e-06
8.0724335e-06
8.1090605e-06
8.1887955e-06
8.3091199e-06
8.4711015e-06
8.6753633e-06
8.921859e-06
9.214729e-06
9.5579904e-06
9.9559315e-06
1.0415679e-05
1.094512e-05
1.1555986e-05
1.2262673e-05
1.3078924e-05
1.4024386e-05
1.5120934e-05
1.639795e-05
1.7890474e-05
1.9642093e-05
2.1706075e-05
2.4147197e-05
2.7043316e-05
3.0488887e-05
3.4599515e-05
3.9521076e-05
4.5414117e-05
5.248489e-05
6.0984614e-05
7.1215985e-05
8.3521072e-05
9.9228418e-05
0.0001171864
0.0001388075
0.00016485665
0.00019625126
0.00023411912
0.00027985771
0.00033523044
0.00040253926
0.00048489587
0.00058662437
0.00071390336
0.00087584094
0.0010321711
0.0010304324
0.0010283865
0.0010262967
0.0010244025
0.0010230006
0.001022732
0.0010245557
0.0010255773
0.0010236762
0.001017589
0.0010119755
0.0010089445
0.0010089343
0.0010105019
0.0010119263
0.0010124367
0.001011987
0.0010050026
1.7897518e-07
8.177169e-06
9.95724e-06
9.3118883e-06
6.3429408e-06
7.3457701e-06
6.1179656e-06
7.082445e-06
7.7603476e-06
8.0260443e-06
8.2932763e-06
7.7805931e-06
7.5334571e-06
7.3054387e-06
7.1684127e-06
7.0859193e-06
7.0535053e-06
7.0652996e-06
7.1167918e-06
7.2068548e-06
7.3333671e-06
7.4978584e-06
7.7019252e-06
7.9458514e-06
8.2338713e-06
8.5704592e-06
8.9601958e-06
9.4104447e-06
9.9290793e-06
1.0527509e-05
1.1162266e-05
1.1954307e-05
1.2874129e-05
1.3943295e-05
1.5191064e-05
1.6652373e-05
1.8370769e-05
2.0399686e-05
2.2804582e-05
2.566432e-05
2.9074882e-05
3.3414904e-05
3.8347414e-05
4.4266328e-05
5.1381536e-05
5.9949487e-05
7.0287026e-05
8.2751216e-05
9.7787411e-05
0.00011594219
0.00013913324
0.00016580285
0.00019805262
0.00023710663
0.00028450947
0.00034224532
0.00041294708
0.00050023294
0.00060921034
0.0007472929
0.00092568332
0.0010314924
0.0010295447
0.0010273931
0.0010253173
0.0010234917
0.001022236
0.0010224602
0.0010245936
0.0010249218
0.0010220059
0.0010157345
0.0010102881
0.0010078218
0.0010081652
0.0010097659
0.001011151
0.0010116933
0.0010111058
0.0010043671
1.6579419e-07
8.132653e-06
7.9522583e-06
8.2282303e-06
5.649771e-06
6.5141588e-06
5.6181524e-06
6.3876572e-06
7.2000647e-06
7.1232006e-06
7.1108091e-06
6.678245e-06
6.4749402e-06
6.3054315e-06
6.2070766e-06
6.1559576e-06
6.1474894e-06
6.1777723e-06
6.2431425e-06
6.3433486e-06
6.4769944e-06
6.6457919e-06
6.8520633e-06
7.0966003e-06
7.3837291e-06
7.684782e-06
8.064786e-06
8.5048421e-06
9.0127263e-06
9.5994495e-06
1.0278209e-05
1.1066192e-05
1.1982511e-05
1.304887e-05
1.4294935e-05
1.5756176e-05
1.74769e-05
1.9511546e-05
2.1927325e-05
2.4805351e-05
2.8244691e-05
3.2367895e-05
3.7322877e-05
4.3283466e-05
5.0465578e-05
5.964866e-05
7.020767e-05
8.2967508e-05
9.8390986e-05
0.00011705898
0.00013967027
0.00016865344
0.00020212721
0.00024282338
0.00029246134
0.00035328691
0.00042832079
0.00052177129
0.00063966665
0.00079091669
0.00098932962
0.0010307429
0.0010286045
0.0010263776
0.0010243248
0.001022575
0.0010216268
0.0010227193
0.0010244993
0.0010244641
0.0010203812
0.0010142713
0.001008876
0.0010068144
0.0010074139
0.0010089825
0.0010102433
0.0010107008
0.0010098505
0.0010037153
1.5398362e-07
8.0703488e-06
6.3989928e-06
7.2191122e-06
5.0468443e-06
5.7747977e-06
5.1868331e-06
5.7666394e-06
6.5295696e-06
6.0961233e-06
6.044455e-06
5.7120022e-06
5.5497834e-06
5.4279695e-06
5.3631185e-06
5.3393823e-06
5.3525222e-06
5.4000359e-06
5.4790871e-06
5.5900935e-06
5.7323274e-06
5.907624e-06
6.0927815e-06
6.3355561e-06
6.6206427e-06
6.9519521e-06
7.3361933e-06
7.7804623e-06
8.2927834e-06
8.8844107e-06
9.5687431e-06
1.0362807e-05
1.1287058e-05
1.2363645e-05
1.3622904e-05
1.5101221e-05
1.6844214e-05
1.8907857e-05
2.1361864e-05
2.4290673e-05
2.7796684e-05
3.2006276e-05
3.7077308e-05
4.3190056e-05
5.0570378e-05
5.9496027e-05
7.0307705e-05
8.3409501e-05
0.00010016724
0.00011956199
0.00014311315
0.0001717492
0.00020859952
0.00025145027
0.00030397037
0.00036871592
0.00044916299
0.00055020807
0.00067897074
0.00084617962
0.001031971
0.0010299352
0.0010276356
0.001025369
0.0010233716
0.0010218523
0.0010215746
0.0010233578
0.0010245407
0.0010240265
0.0010191772
0.0010131567
0.0010077593
0.0010059264
0.0010066952
0.0010082322
0.0010092436
0.0010095074
0.0010089362
0.0010030954
1.4345654e-07
7.9947218e-06
5.1805343e-06
6.3173507e-06
4.4982917e-06
5.1090756e-06
4.8167356e-06
5.1294778e-06
5.6997257e-06
5.204701e-06
5.1096361e-06
4.8661096e-06
4.7425899e-06
4.6607212e-06
4.6257262e-06
4.6267674e-06
4.6601636e-06
4.7244626e-06
4.8175888e-06
4.9218956e-06
5.0686157e-06
5.2483074e-06
5.4631142e-06
5.7158537e-06
6.010594e-06
6.3516441e-06
6.7456592e-06
7.2004028e-06
7.7241628e-06
8.3284032e-06
9.0267089e-06
9.8364098e-06
1.0729499e-05
1.1817523e-05
1.3091289e-05
1.4588143e-05
1.635531e-05
1.8450468e-05
2.0946033e-05
2.3930482e-05
2.7510861e-05
3.2060893e-05
3.7304193e-05
4.3637957e-05
5.1299586e-05
6.0579726e-05
7.184421e-05
8.5526772e-05
0.00010215335
0.00012349728
0.00014827599
0.00017849489
0.00021542572
0.00026320599
0.00031934338
0.0003889566
0.00047605886
0.0005863511
0.00072824145
0.00091465294
0.0010313258
0.0010290893
0.0010266718
0.0010244241
0.0010225922
0.0010215565
0.001021921
0.0010240747
0.0010247743
0.0010235307
0.0010183482
0.0010123633
0.0010069744
0.0010052853
0.0010060459
0.0010076209
0.0010084126
0.0010084126
0.0010078318
0.0010025696
1.3405866e-07
7.8304933e-06
4.2478795e-06
5.5092834e-06
4.0085685e-06
4.5159375e-06
4.4891537e-06
4.4366387e-06
4.8693255e-06
4.4100273e-06
4.2991207e-06
4.1287007e-06
4.042085e-06
3.9948741e-06
3.9871081e-06
4.0111309e-06
4.0639585e-06
4.1285068e-06
4.2308697e-06
4.3627653e-06
4.525002e-06
4.7190343e-06
4.947701e-06
5.2140344e-06
5.5226858e-06
5.8782501e-06
6.2874779e-06
6.7382528e-06
7.2742877e-06
7.8918458e-06
8.6046442e-06
9.4301341e-06
1.0389568e-05
1.1509575e-05
1.2821699e-05
1.4364863e-05
1.618894e-05
1.8354397e-05
2.0937363e-05
2.4032028e-05
2.7751949e-05
3.2239288e-05
3.7663919e-05
4.4233167e-05
5.2199884e-05
6.2391788e-05
7.4241021e-05
8.8664372e-05
0.00010623332
0.00012765308
0.00015524326
0.00018744013
0.00022693122
0.00027554508
0.00033892422
0.00041447936
0.00050964873
0.00063107246
0.00078866037
0.00099788218
0.001030636
0.0010282264
0.0010257502
0.001023601
0.0010220292
0.0010215254
0.00102282
0.0010246152
0.0010249693
0.0010228612
0.0010177999
0.0010118865
0.0010065353
0.0010049066
0.0010055884
0.001007213
0.0010079873
0.0010076263
0.0010068736
0.0010020948
1.2571964e-07
7.465572e-06
3.6472036e-06
4.7913781e-06
3.5694373e-06
3.9876787e-06
3.9755895e-06
3.8084626e-06
4.0751191e-06
3.7079565e-06
3.6044312e-06
3.4923674e-06
3.4403334e-06
3.4237272e-06
3.4408773e-06
3.4736523e-06
3.5391718e-06
3.6332897e-06
3.7552125e-06
3.9051702e-06
4.0845983e-06
4.2954764e-06
4.5410723e-06
4.824721e-06
5.1398587e-06
5.510798e-06
5.9360464e-06
6.4234332e-06
6.9827928e-06
7.6258018e-06
8.3666524e-06
9.2236672e-06
1.0219182e-05
1.1381107e-05
1.2743596e-05
1.4347458e-05
1.6245917e-05
1.8503131e-05
2.1199439e-05
2.4436251e-05
2.8333546e-05
3.3043398e-05
3.8750728e-05
4.5676813e-05
5.4095689e-05
6.4341115e-05
7.7503684e-05
9.2843237e-05
0.00011156885
0.00013446315
0.000162479
0.00019871534
0.0002413196
0.00029398937
0.00035948138
0.00044576292
0.00055056788
0.00068520142
0.00086126719
0.0010321481
0.0010299127
0.0010273657
0.0010248951
0.0010229224
0.0010218359
0.0010218562
0.0010236337
0.0010248723
0.0010249806
0.001022174
0.001017476
0.0010117321
0.0010064963
0.0010047199
0.0010052896
0.001006991
0.0010079124
0.0010077729
0.0010057742
0.0010016729
1.1854278e-07
7.0764067e-06
3.2088859e-06
4.1488494e-06
3.1779465e-06
3.3675662e-06
3.5210984e-06
3.2337948e-06
3.3602504e-06
3.0986364e-06
3.0164795e-06
2.9505442e-06
2.9298804e-06
2.9406105e-06
2.9659106e-06
3.0275685e-06
3.1167149e-06
3.2321807e-06
3.3740733e-06
3.5433517e-06
3.7419979e-06
3.9722836e-06
4.2298421e-06
4.5315347e-06
4.8765851e-06
5.2705436e-06
5.7200756e-06
6.233356e-06
6.8204991e-06
7.4940445e-06
8.2687785e-06
9.1639963e-06
1.0203305e-05
1.1416363e-05
1.2785105e-05
1.4449133e-05
1.6421702e-05
1.8771452e-05
2.1713226e-05
2.5124059e-05
2.9238864e-05
3.4220332e-05
4.0270591e-05
4.7628858e-05
5.6591249e-05
6.7523168e-05
8.0871839e-05
9.718627e-05
0.00011819066
0.00014285022
0.00017311506
0.00021035331
0.00025876085
0.0003162635
0.00038808533
0.00048323033
0.00059934921
0.00074935794
0.00094664401
0.0010315504
0.001029151
0.0010265177
0.0010241377
0.0010224861
0.0010218371
0.0010224106
0.0010242233
0.0010250143
0.0010247901
0.0010216138
0.0010173254
0.0010118879
0.0010068513
0.0010047845
0.0010049989
0.0010067564
0.0010078642
0.001007776
0.0010047705
0.0010013298
1.1275045e-07
5.9552842e-06
2.8317873e-06
3.5629129e-06
2.8386578e-06
2.7948625e-06
3.0702098e-06
2.7148249e-06
2.7472906e-06
2.578123e-06
2.5237039e-06
2.4952594e-06
2.4955794e-06
2.5242355e-06
2.583887e-06
2.6705341e-06
2.782338e-06
2.9191462e-06
3.081819e-06
3.2717646e-06
3.4864004e-06
3.7364226e-06
4.0220059e-06
4.3471473e-06
4.716619e-06
5.1362056e-06
5.6129385e-06
6.1553873e-06
6.7740852e-06
7.4660606e-06
8.2741939e-06
9.2067355e-06
1.0288573e-05
1.1550846e-05
1.303245e-05
1.478196e-05
1.6859308e-05
1.9339342e-05
2.2314654e-05
2.5899274e-05
3.0234364e-05
3.5748125e-05
4.2201696e-05
5.0069099e-05
5.967178e-05
7.1409306e-05
8.5773754e-05
0.00010337345
0.00012610907
0.00015284241
0.00018574947
0.00022636401
0.00027937118
0.00034253184
0.00042174356
0.00052195568
0.00065629173
0.00082378061
0.0010329756
0.0010308753
0.001028342
0.0010256961
0.0010234974
0.0010222373
0.0010219523
0.0010229105
0.0010245741
0.0010250819
0.0010242449
0.0010212541
0.0010173144
0.0010123207
0.001007552
0.0010051038
0.0010049824
0.0010065545
0.0010076655
0.0010068899
0.0010041013
0.0010010913
1.0774783e-07
4.2593637e-06
2.4823044e-06
3.0194295e-06
2.410294e-06
2.3147094e-06
2.599202e-06
2.2532583e-06
2.2368595e-06
2.1395392e-06
2.1156821e-06
2.112751e-06
2.1411583e-06
2.2002136e-06
2.2859261e-06
2.3960233e-06
2.5298825e-06
2.6880423e-06
2.8692754e-06
3.0794722e-06
3.3197055e-06
3.592822e-06
3.902278e-06
4.2522683e-06
4.6478456e-06
5.0950946e-06
5.6013992e-06
6.1667478e-06
6.8167119e-06
7.5587904e-06
8.4100609e-06
9.3917297e-06
1.053051e-05
1.1859939e-05
1.3422055e-05
1.5269256e-05
1.7466648e-05
2.0095156e-05
2.3255334e-05
2.7071827e-05
3.1698892e-05
3.7326393e-05
4.4516463e-05
5.2968286e-05
6.3307323e-05
7.5972613e-05
9.1507056e-05
0.0001105855
0.00013405043
0.00016442121
0.00020037427
0.00024488304
0.00030020995
0.00037281794
0.00046047653
0.00057172817
0.00072129419
0.00090815313
0.0010323493
0.0010301047
0.0010275008
0.0010249333
0.0010229877
0.001022158
0.0010220876
0.0010232545
0.0010246719
0.0010250516
0.001023571
0.0010210164
0.0010174592
0.001012996
0.0010085494
0.001005701
0.0010051815
0.0010063173
0.0010072697
0.0010063643
0.0010036164
0.0010009384
1.0259073e-07
3.5193814e-06
2.1249947e-06
2.5190747e-06
2.0588271e-06
1.9120157e-06
2.11799e-06
1.8488008e-06
1.8215576e-06
1.7790259e-06
1.7816933e-06
1.8097661e-06
1.8698242e-06
1.9556652e-06
2.0649745e-06
2.1969314e-06
2.3518273e-06
2.5289631e-06
2.7329969e-06
2.9651268e-06
3.2279159e-06
3.5244608e-06
3.8584563e-06
4.234307e-06
4.6572963e-06
5.1337985e-06
5.6655317e-06
6.2713794e-06
6.9589743e-06
7.7428173e-06
8.6411556e-06
9.6767875e-06
1.0878404e-05
1.2282106e-05
1.3933381e-05
1.5889268e-05
1.8220686e-05
2.1015614e-05
2.4383517e-05
2.8459804e-05
3.34127e-05
3.9734413e-05
4.7174657e-05
5.6281487e-05
6.7447528e-05
8.1156532e-05
9.8008834e-05
0.00011875283
0.00014566207
0.00017749388
0.00021688274
0.00026578174
0.0003267376
0.00040691596
0.00050400248
0.00062747835
0.00079366916
0.0010013539
0.0010315719
0.0010292486
0.0010266757
0.0010242856
0.0010226481
0.0010221419
0.0010221991
0.0010234778
0.0010246425
0.0010247699
0.0010234166
0.0010209656
0.0010177712
0.0010138443
0.0010097464
0.0010065947
0.0010055372
0.0010062298
0.0010069675
0.001005979
0.00100324
0.0010008344
9.879247e-08
2.8127316e-06
1.8147327e-06
2.0165638e-06
1.7671535e-06
1.5666392e-06
1.6752169e-06
1.5065315e-06
1.4947081e-06
1.4956819e-06
1.525319e-06
1.5863834e-06
1.6730493e-06
1.7819052e-06
1.9121005e-06
2.0639113e-06
2.2374066e-06
2.435673e-06
2.6603617e-06
2.9138574e-06
3.1990014e-06
3.5191097e-06
3.8780625e-06
4.2804447e-06
4.7317472e-06
5.235257e-06
5.8040784e-06
6.4460034e-06
7.1733104e-06
8.0014233e-06
8.9499341e-06
1.0043375e-05
1.1312683e-05
1.2796785e-05
1.4544759e-05
1.6618502e-05
1.9095625e-05
2.2071756e-05
2.5666548e-05
3.0027701e-05
3.556969e-05
4.2110107e-05
5.0117227e-05
5.9940987e-05
7.2012598e-05
8.6867075e-05
0.000105169
0.00012774938
0.00015705268
0.00019185372
0.00023502588
0.00028875253
0.00035588516
0.00044428291
0.00055160157
0.00068823466
0.00087205182
0.0010326738
0.0010306789
0.0010283672
0.0010259365
0.0010237872
0.0010224667
0.0010221035
0.001022327
0.0010236242
0.0010245592
0.0010246479
0.0010234423
0.0010211919
0.0010183346
0.0010147981
0.0010110107
0.0010077558
0.0010062462
0.0010063804
0.0010066914
0.0010055131
0.0010029882
0.0010007666
9.6589637e-08
2.1966186e-06
1.5448e-06
1.5373349e-06
1.4985213e-06
1.2716387e-06
1.3151798e-06
1.2336422e-06
1.24965e-06
1.281665e-06
1.3445708e-06
1.431599e-06
1.5398065e-06
1.6679411e-06
1.8163286e-06
1.986046e-06
2.1780698e-06
2.3953705e-06
2.6398866e-06
2.9142558e-06
3.2215041e-06
3.5651148e-06
3.9491297e-06
4.3783032e-06
4.8583176e-06
5.3960756e-06
6.0000851e-06
6.6809274e-06
7.4437729e-06
8.3178328e-06
9.3186088e-06
1.0472525e-05
1.1812986e-05
1.3382082e-05
1.5232726e-05
1.7500884e-05
2.0151873e-05
2.33436e-05
2.7207212e-05
3.1905169e-05
3.7638636e-05
4.4656278e-05
5.3266766e-05
6.3852565e-05
7.6888324e-05
9.2964361e-05
0.00011281566
0.00013856021
0.00016918103
0.0002071573
0.00025437109
0.00031324773
0.00039060909
0.00048398566
0.00060207035
0.0007524407
0.00095437167
0.0010317213
0.0010297431
0.0010275478
0.0010253469
0.0010234709
0.0010223603
0.0010220998
0.0010225512
0.0010236999
0.0010245152
0.0010245944
0.0010236943
0.0010216467
0.0010191518
0.0010160015
0.0010124537
0.0010092339
0.0010073084
0.00100666
0.0010063532
0.0010050806
0.0010028514
0.0010007796
9.6763054e-08
1.6704765e-06
1.3165886e-06
1.1699242e-06
1.2287634e-06
1.0249116e-06
1.0510147e-06
1.0322264e-06
1.0767854e-06
1.1383296e-06
1.2253046e-06
1.3320141e-06
1.4574729e-06
1.601905e-06
1.7664426e-06
1.9526608e-06
2.1622003e-06
2.3976805e-06
2.6614039e-06
2.9561572e-06
3.2850986e-06
3.6518463e-06
4.0605951e-06
4.5162806e-06
5.0248081e-06
5.5933627e-06
6.2308287e-06
6.9483188e-06
7.7598428e-06
8.6831581e-06
9.7407856e-06
1.0961356e-05
1.2381116e-05
1.4045877e-05
1.6013315e-05
1.8355843e-05
2.1164168e-05
2.4551888e-05
2.8660517e-05
3.3666307e-05
3.9788295e-05
4.7297825e-05
5.6529753e-05
6.7902353e-05
8.1934341e-05
0.00010009155
0.00012170389
0.00014846862
0.00018166742
0.00022292508
0.00027431349
0.00034167501
0.000422721
0.00052471478
0.00065375229
0.00082594187
0.0010324074
0.0010307303
0.001028851
0.0010268464
0.0010249113
0.0010233101
0.0010223623
0.0010221589
0.0010226379
0.0010237236
0.0010245197
0.0010246329
0.0010240189
0.0010222919
0.0010201265
0.0010173789
0.0010141069
0.0010108838
0.0010084067
0.0010069513
0.0010060114
0.0010047255
0.0010028128
0.0010008344
1.0011405e-07
1.2403472e-06
1.1273371e-06
9.0101395e-07
1.0718754e-06
8.2144708e-07
8.6991787e-07
8.9603486e-07
9.634058e-07
1.04806e-06
1.1525161e-06
1.2744461e-06
1.4143147e-06
1.5731953e-06
1.7526391e-06
1.9544538e-06
2.1806942e-06
2.43353e-06
2.7157129e-06
3.0300604e-06
3.379846e-06
3.7688222e-06
4.2013453e-06
4.6825485e-06
5.2185825e-06
5.8169426e-06
6.4869135e-06
7.2401773e-06
8.0915097e-06
9.0597262e-06
1.0168738e-05
1.1449051e-05
1.2939374e-05
1.4688732e-05
1.6758959e-05
1.9227815e-05
2.2192752e-05
2.57756e-05
3.012833e-05
3.5440201e-05
4.2230236e-05
5.0288759e-05
6.0210265e-05
7.2450553e-05
8.7576084e-05
0.00010629338
0.00012948627
0.00015826389
0.00019402065
0.00024075578
0.00029669191
0.0003666177
0.00045431834
0.0005647536
0.00071134749
0.00089038334
0.0010313618
0.0010297812
0.0010280477
0.0010262464
0.00102453
0.0010231219
0.0010223068
0.0010221487
0.0010225963
0.0010235864
0.0010244506
0.0010246545
0.0010243954
0.0010230504
0.001021126
0.0010187364
0.0010157653
0.0010125196
0.0010095635
0.0010073654
0.0010058905
0.0010045576
0.0010028447
0.0010008971
1.0674629e-07
9.6245867e-07
9.6214588e-07
7.6235474e-07
7.6533658e-07
7.0210522e-07
7.4886096e-07
8.1021203e-07
8.9482007e-07
9.9560723e-07
1.1133102e-06
1.2479304e-06
1.4006138e-06
1.5727596e-06
1.7660522e-06
1.9823732e-06
2.2238321e-06
2.4927869e-06
2.7918888e-06
3.1241315e-06
3.4929232e-06
3.9021803e-06
4.3564601e-06
4.8611465e-06
5.4227106e-06
6.0471441e-06
6.7469544e-06
7.5331883e-06
8.4283144e-06
9.4414968e-06
1.0602817e-05
1.1944821e-05
1.3508829e-05
1.5347177e-05
1.7525924e-05
2.0128141e-05
2.3257993e-05
2.7045775e-05
3.1654146e-05
3.7285944e-05
4.419394e-05
5.2693021e-05
6.3175231e-05
7.6127104e-05
9.2157401e-05
0.00011202583
0.00013789757
0.00016877715
0.00020719076
0.00025505633
0.00031481238
0.00038958566
0.00048341876
0.00060730739
0.00075786201
0.00094904355
0.0010303522
0.0010288856
0.001027297
0.0010256722
0.0010241426
0.0010228715
0.0010220926
0.0010219075
0.0010223239
0.0010231928
0.0010241404
0.0010245953
0.0010246295
0.0010237941
0.0010220289
0.0010198883
0.0010172401
0.0010141665
0.001011032
0.0010083155
0.0010062689
0.0010046617
0.0010029707
0.001000988
1.2141878e-07
9.6347963e-07
8.0278117e-07
5.6518293e-07
6.0932453e-07
6.1337838e-07
6.7836524e-07
7.58456e-07
8.5661639e-07
9.6968143e-07
1.0987419e-06
1.2446876e-06
1.4088902e-06
1.5928484e-06
1.7982831e-06
2.0271172e-06
2.2815101e-06
2.5638881e-06
2.8769866e-06
3.2239004e-06
3.6081522e-06
4.033786e-06
4.5055006e-06
5.028838e-06
5.6104521e-06
6.2584807e-06
6.9830451e-06
7.7969025e-06
8.716287e-06
9.7619394e-06
1.096037e-05
1.234546e-05
1.3960323e-05
1.5859654e-05
1.8112552e-05
2.0805996e-05
2.4049143e-05
2.7978615e-05
3.2765099e-05
3.8621576e-05
4.5813706e-05
5.5061165e-05
6.6085393e-05
7.9721252e-05
9.66173e-05
0.00011758357
0.00014363577
0.00017605016
0.00021643458
0.00026681854
0.00032978075
0.000412382
0.00051204195
0.00063746508
0.00079589247
0.00099671819
0.0010293781
0.0010280053
0.0010265309
0.0010250267
0.0010236139
0.0010224427
0.0010216887
0.0010214294
0.0010216992
0.0010224441
0.0010234379
0.001024235
0.0010245039
0.0010243123
0.0010227984
0.001020761
0.0010183731
0.0010156133
0.001012632
0.0010097509
0.0010072506
0.0010051765
0.0010032374
0.0010011061
1.1133875e-07
6.2224392e-07
6.3685727e-07
4.6837032e-07
5.1225661e-07
5.5932825e-07
6.393371e-07
7.3308256e-07
8.4203901e-07
9.6562293e-07
1.104987e-06
1.2612558e-06
1.4358289e-06
1.6302664e-06
1.8463341e-06
2.0860177e-06
2.3515515e-06
2.6454235e-06
2.9705016e-06
3.3299709e-06
3.7274676e-06
4.1671596e-06
4.653881e-06
5.1933244e-06
5.7923173e-06
6.4592028e-06
7.2043552e-06
8.0408596e-06
8.9920566e-06
1.006908e-05
1.1303857e-05
1.2731589e-05
1.4397057e-05
1.635708e-05
1.8683452e-05
2.1466609e-05
2.4820117e-05
2.888627e-05
3.3843077e-05
3.9912975e-05
4.7373699e-05
5.657179e-05
6.7939532e-05
8.2018256e-05
9.9484606e-05
0.00012118644
0.00014818691
0.00018341354
0.00022566917
0.00027841143
0.00034433153
0.00042684324
0.00053032246
0.00066042637
0.00082449617
0.0010296573
0.0010284196
0.0010270876
0.001025676
0.001024249
0.0010229012
0.0010217766
0.0010210067
0.0010206615
0.0010207826
0.0010213524
0.0010222514
0.0010232044
0.0010238733
0.0010240208
0.0010234026
0.0010215018
0.0010192842