/*--------------------------------*- C++ -*----------------------------------*\
  =========                 |
  \\      /  F ield         | OpenFOAM: The Open Source CFD Toolbox
   \\    /   O peration     | Website:  https://openfoam.org
    \\  /    A nd           | Version:  12
     \\/     M anipulation  |
\*---------------------------------------------------------------------------*/
FoamFile
{
    format      ascii;
    class       volScalarField;
    location    "0.026";
    object      p;
}
// * * * * * * * * * * * * * * * * * * * * * * * * * * * * * * * * * * * * * //

dimensions      [1 -1 -2 0 0 0 0];

internalField   nonuniform List<scalar> 
16000
(
88182.4
88311.103
88323.089
88459.598
88486.79
88615.463
88667.414
88785.179
88860.758
88972.896
89066.724
89178.99
89286.806
89403.606
89522.447
89646.74
89775.161
89908.294
90046.023
90188.432
90335.527
90487.311
90643.761
90804.829
90970.442
91140.501
91314.873
91493.398
91675.882
91862.099
92051.788
92244.655
92440.375
92638.588
92838.907
93040.916
93244.18
93448.239
93652.626
93856.863
94060.472
94262.982
94463.939
94662.909
94859.49
95053.319
95244.078
95431.509
95615.412
95795.66
95972.202
96145.067
96314.368
96480.297
96643.115
96803.124
96960.63
97115.911
97269.091
97420.118
97568.627
97713.876
97854.733
97989.716
98117.191
98235.749
98344.56
98443.116
98533.894
98614.818
98690.924
98760.275
98826.663
98890.962
98945.624
99003.761
99157.371
98864.412
99673.345
98554.916
87839.079
87984.949
87994.515
88143.259
88172.122
88311.664
88366.239
88495.253
88574.848
88697.2
88797.598
88918.959
89035.281
89161.147
89289.456
89423.462
89562.008
89705.563
89854.043
90007.496
90165.909
90329.256
90497.483
90670.506
90848.216
91030.468
91217.087
91407.861
91602.544
91800.851
92002.461
92207.017
92414.126
92623.362
92834.269
93046.364
93259.144
93472.088
93684.668
93896.353
94106.618
94314.953
94520.87
94723.911
94923.659
95119.743
95311.848
95499.721
95683.177
95862.108
96036.487
96206.374
96371.918
96533.356
96691.011
96845.267
96996.54
97145.238
97291.699
97436.098
97578.348
97718.013
97854.231
97985.711
98110.884
98228.277
98336.682
98435.09
98526.503
98608.504
98685.301
98757.323
98827.348
98893.116
98949.771
99034.956
99119.082
98931.496
99609.551
98573.32
87527.581
87688.825
87698.338
87860.166
87889.233
88042.908
88099.672
88241.29
88326.155
88459.246
88567.783
88699.017
88825.243
88961.301
89100.353
89245.311
89395.21
89550.392
89710.789
89876.408
90047.214
90223.147
90404.12
90590.013
90780.673
90975.91
91175.494
91379.157
91586.589
91797.436
92011.307
92227.769
92446.35
92666.549
92887.83
93109.638
93331.398
93552.526
93772.434
93990.542
94206.286
94419.126
94628.553
94834.101
95035.356
95231.956
95423.607
95610.082
95791.229
95966.976
96137.336
96302.408
96462.385
96617.55
96768.274
96915.003
97058.235
97198.485
97336.241
97471.882
97605.584
97737.212
97866.224
97991.627
98112.087
98226.199
98332.581
98430.82
98521.39
98605.41
98683.095
98757.335
98829.765
98897.074
98959.073
99048.74
99095.056
98974.171
99556.93
98572.851
87256.357
87428.302
87438.825
87615.785
87644.6
87814.487
87873.494
88029.43
88120.419
88265.732
88383.823
88526.178
88663.745
88811.234
88962.274
89119.358
89281.727
89449.62
89622.983
89801.797
89986.006
90175.52
90370.213
90569.922
90774.44
90983.515
91196.852
91414.105
91634.883
91858.748
92085.218
92313.768
92543.837
92774.833
93006.135
93237.108
93467.103
93695.475
93921.583
94144.809
94364.56
94580.283
94791.47
94997.667
95198.482
95393.592
95582.744
95765.761
95942.545
96113.08
96277.433
96435.759
96588.3
96735.387
96877.433
97014.928
97148.424
97278.512
97405.785
97530.775
97653.867
97775.19
97894.509
98011.172
98124.175
98232.268
98334.383
98430.446
98519.077
98602.146
98680.692
98756.489
98830.373
98899.915
98966.283
99051.782
99073.487
99003.564
99511.383
98556.879
87028.051
87214.952
87222.797
87418.509
87446.253
87633.945
87694.977
87866.85
87965.094
88123.732
88252.732
88406.891
88556.762
88716.419
88880.255
89050.312
89226.047
89407.618
89594.973
89788.061
89986.786
90191.007
90400.542
90615.155
90834.563
91058.428
91286.36
91517.916
91752.599
91989.865
92229.123
92469.742
92711.057
92952.375
93192.989
93432.18
93669.235
93903.452
94134.157
94360.707
94582.506
94799.012
95009.745
95214.292
95412.316
95603.557
95787.832
95965.04
96135.161
96298.252
96454.453
96603.983
96747.142
96884.308
97015.93
97142.53
97264.691
97383.046
97498.25
97610.935
97721.633
97830.678
97938.107
98043.611
98146.54
98245.93
98341.054
98432.451
98517.514
98598.855
98676.784
98753.022
98826.92
98896.894
98967.201
99043.734
99048.283
99020.103
99464.633
98526.777
86842.257
87047.072
87052.472
87269.616
87296.541
87504.846
87569.207
87759.056
87864.561
88035.976
88176.283
88342.36
88505.307
88678.016
88855.766
89040.103
89230.628
89427.398
89630.32
89839.279
90054.105
90274.58
90500.43
90731.323
90966.871
91206.622
91450.067
91696.639
91945.715
92196.623
92448.648
92701.04
92953.019
93203.796
93452.571
93698.558
93940.991
94179.135
94412.301
94639.857
94861.234
95075.937
95283.549
95483.735
95676.246
95860.918
96037.67
96206.502
96367.492
96520.79
96666.622
96805.278
96937.118
97062.563
97182.096
97296.255
97405.636
97510.884
97612.676
97711.688
97808.532
97903.676
97997.369
98089.592
98180.036
98268.159
98353.682
98437.603
98516.752
98594.169
98669.636
98744.188
98816.079
98883.945
98954.846
99021.141
99014.089
99025.16
99413.298
98480.384
86695.212
86920.775
86923.413
87165.331
87191.045
87423.768
87489.886
87696.59
87810.743
87996.112
88150.182
88330.119
88508.524
88696.619
88890.617
89091.584
89299.206
89513.438
89734.122
89961.059
90193.988
90432.588
90676.469
90925.177
91178.19
91434.916
91694.701
91956.829
92220.531
92484.989
92749.351
93012.74
93274.266
93533.044
93788.205
94038.911
94284.372
94523.855
94756.697
94982.314
95200.211
95409.982
95611.319
95804.006
95987.921
96163.031
96329.386
96487.109
96636.395
96777.501
96910.742
97036.485
97155.145
97267.181
97373.097
97473.436
97568.786
97659.779
97747.078
97831.351
97913.229
97993.246
98071.784
98149.043
98225.047
98299.838
98373.802
98445.788
98516.173
98587.548
98657.89
98727.735
98794.643
98857.595
98925.041
98979.797
98966.853
99017.712
99348.763
98411.722
86581.506
86831.459
86830.299
87101.709
87123.61
87381.219
87450.179
87676.775
87804.333
88006.696
88178.282
88374.942
88571.821
88778.2
88991.223
89211.552
89438.912
89673.162
89914.055
90161.285
90414.472
90673.159
90936.813
91204.82
91476.492
91751.067
92027.714
92305.546
92583.623
92860.972
93136.599
93409.504
93678.699
93943.229
94202.181
94454.708
94700.038
94937.491
95166.482
95386.533
95597.275
95798.448
95989.899
96171.577
96343.526
96505.874
96658.826
96802.649
96937.663
97064.235
97182.768
97293.698
97397.486
97494.618
97585.603
97670.974
97751.293
97827.151
97899.165
97967.954
98034.115
98098.183
98160.601
98221.717
98281.844
98341.396
98400.61
98459.065
98519.518
98579.88
98641.14
98702.188
98760.617
98815.653
98876.267
98917.058
98903.759
98994.514
99262.403
98313.238
86501.842
86780.404
86775.243
87081.038
87098.738
87384.959
87462.952
87712.947
87856.71
88077.717
88269.966
88485.916
88704.071
88931.633
89166.528
89409.072
89658.958
89915.915
90179.572
90449.473
90725.075
91005.746
91290.761
91579.306
91870.486
92163.33
92456.802
92749.818
93041.259
93329.994
93614.895
93894.862
94168.842
94435.849
94694.983
94945.444
95186.547
95417.729
95638.556
95848.722
96048.049
96236.479
96414.067
96580.967
96737.421
96883.742
97020.301
97147.514
97265.827
97375.707
97477.635
97572.099
97659.591
97740.604
97815.632
97885.18
97949.761
98009.905
98066.151
98119.04
98169.092
98216.796
98262.6
98306.934
98350.289
98393.26
98436.365
98480.181
98525.932
98572.121
98620.272
98668.289
98714.381
98757.952
98808.203
98831.685
98821.932
98951.318
99145.815
98180.407
86462.856
86774.711
86765.422
87108.628
87127.233
87446.826
87535.842
87810.843
87975.096
88216.943
88433.504
88671.9
88914.513
89166.542
89426.496
89694.388
89969.812
90252.332
90541.394
90836.346
91136.424
91440.762
91748.388
92058.237
92369.161
92679.946
92989.327
93296.013
93598.71
93896.146
94187.095
94470.404
94745.014
95009.983
95264.499
95507.898
95739.67
95959.459
96167.061
96362.421
96545.616
96716.845
96876.41
97024.701
97162.172
97289.329
97406.708
97514.862
97614.344
97705.704
97789.476
97866.179
97936.309
98000.342
98058.741
98111.954
98160.429
98204.609
98244.935
98281.841
98315.751
98347.075
98376.233
98403.69
98430.01
98455.856
98481.897
98508.934
98537.176
98567.13
98598.314
98629.142
98658.796
98687.476
98723.282
98725.417
98720.276
98885.073
98993.369
98007.731
86472.932
86824.249
86811.056
87196.264
87218.112
87573.743
87677.003
87978.856
88168.355
88433.537
88678.308
88942.862
89213.531
89493.732
89782.319
90079.017
90383.241
90694.325
91011.467
91333.736
91660.078
91989.318
92320.176
92651.28
92981.194
93308.435
93631.508
93948.929
94259.262
94561.148
94853.331
95134.692
95404.265
95661.26
95905.074
96135.289
96351.679
96554.195
96742.951
96918.209
97080.356
97229.884
97367.362
97493.42
97608.721
97713.946
97809.772
97896.86
97975.844
98047.321
98111.85
98169.945
98222.083
98268.697
98310.19
98346.939
98379.301
98407.616
98432.211
98453.399
98471.494
98486.821
98499.755
98510.759
98520.407
98529.327
98538.16
98547.595
98557.794
98568.702
98579.913
98590.057
98599.416
98610.321
98627.885
98606.397
98604.864
98791.989
98804.896
97797.244
86535.116
86933.165
86916.595
87349.708
87375.786
87770.559
87893.402
88224.165
88444.942
88737.002
89014.517
89309.816
89612.826
89925.5
90246.803
90576.146
90912.667
91255.376
91603.119
91954.593
92308.36
92662.865
93016.46
93367.431
93714.036
94054.534
94387.228
94710.501
95022.856
95322.949
95609.623
95881.933
96139.158
96380.813
96606.641
96816.609
97010.886
97189.819
97353.909
97503.78
97640.152
97763.809
97875.58
97976.307
98066.829
98147.962
98220.482
98285.116
98342.533
98393.34
98438.082
98477.239
98511.235
98540.438
98565.171
98585.717
98602.331
98615.236
98624.635
98630.721
98633.696
98633.807
98631.386
98626.875
98620.812
98613.739
98606.115
98598.22
98590.003
98581.088
98570.903
98558.283
98545.875
98537.943
98530.403
98488.551
98490.354
98673.945
98578.68
97581.879
86649.559
87102.945
87083.055
87570.283
87605.645
88043.744
88193.891
88556.463
88815.597
89139.355
89454.775
89786.253
90126.642
90476.712
90835.299
91201.393
91573.716
91950.817
92331.068
92712.691
93093.783
93472.352
93846.348
94213.714
94572.427
94920.547
95256.27
95577.975
95884.264
96173.997
96446.312
96700.641
96936.702
97154.487
97354.24
97536.426
97701.695
97850.846
97984.787
98104.503
98211.022
98305.388
98388.633
98461.761
98525.726
98581.419
98629.659
98671.185
98706.654
98736.64
98761.637
98782.06
98798.256
98810.504
98819.032
98824.019
98825.605
98823.897
98818.977
98810.922
98799.841
98785.918
98769.449
98750.849
98730.584
98709.048
98686.421
98662.542
98636.893
98608.829
98577.677
98542.693
98507.266
98476.664
98445.411
98384.406
98384.136
98541.546
98343.016
97390.916
86823.351
87342.423
87320.113
87869.244
87919.298
88404.698
88590.993
88988.686
89293.839
89655.559
90014.965
90389.08
90772.768
91165.733
91566.405
91973.185
92384.213
92797.444
93210.668
93621.548
94027.66
94426.549
94815.78
95193.007
95556.036
95902.891
96231.87
96541.59
96831.023
97099.504
97346.728
97572.737
97777.884
97962.791
98128.309
98275.46
98405.398
98519.358
98618.617
98704.462
98778.158
98840.929
98893.933
98938.253
98974.883
99004.721
99028.566
99047.115
99060.964
99070.617
99076.483
99078.89
99078.084
99074.246
99067.498
99057.912
99045.517
99030.307
99012.259
98991.358
98967.645
98941.262
98912.482
98881.68
98849.228
98815.326
98779.828
98742.125
98701.218
98656.067
98605.902
98550.636
98494.979
98445.043
98385.853
98305.114
98293.11
98405.265
98123.486
97240.342
87062.177
87659.848
87637.244
88256.329
88328.27
88864.948
89098.633
89536.78
89897.012
90305.169
90716.058
91140.272
91573.702
92015.004
92461.95
92912.205
93363.185
93812.133
94256.163
94692.314
95117.628
95529.234
95924.436
96300.799
96656.236
96989.063
97298.046
97582.417
97841.865
98076.516
98286.88
98473.801
98638.394
98781.98
98906.023
99012.074
99101.721
99176.547
99238.096
99287.847
99327.192
99357.43
99379.746
99395.214
99404.789
99409.307
99409.488
99405.938
99399.158
99389.547
99377.408
99362.961
99346.347
99327.641
99306.861
99283.978
99258.921
99231.592
99201.886
99169.734
99135.142
99098.238
99059.274
99018.568
98976.379
98932.683
98887.006
98838.327
98785.196
98726.105
98660.027
98587.553
98513.912
98443.736
98355.638
98258.949
98230.034
98282.481
97937.255
97130.286
87371.65
88063.202
88042.834
88741.745
88847.346
89441.607
89737.339
90224.518
90650.316
91115.021
91585.542
92067.222
92556.167
93049.958
93545.513
94039.58
94528.687
95009.229
95477.566
95930.135
96363.579
96774.867
97161.411
97521.15
97852.606
98154.905
98427.76
98671.436
98886.681
99074.647
99236.808
99374.877
99490.718
99586.284
99663.545
99724.447
99770.865
99804.578
99827.249
99840.41
99845.458
99843.651
99836.106
99823.804
99807.591
99788.183
99766.177
99742.054
99716.188
99688.857
99660.246
99630.461
99599.536
99567.448
99534.121
99499.44
99463.255
99425.405
99385.74
99344.178
99300.737
99255.551
99208.844
99160.862
99111.722
99061.167
99008.406
98952.074
98890.348
98821.294
98743.616
98658.145
98568.801
98475.892
98364.233
98249.855
98201.505
98190.212
97797.549
97073.497
87760.578
88564.205
88552.023
89346.398
89502.097
90163.854
90538.323
91084.944
91586.645
92117.962
92655.578
93200.772
93749.153
94297.025
94840.123
95374.009
95894.127
96395.987
96875.341
97328.366
97751.819
98143.16
98500.625
98823.242
99110.805
99363.809
99583.352
99771.025
99928.793
100058.89
100163.69
100245.66
100307.25
100350.83
100378.68
100392.92
100395.54
100388.31
100372.86
100350.65
100322.96
100290.89
100255.44
100217.4
100177.48
100136.23
100094.1
100051.41
100008.41
99965.248
99921.985
99878.619
99835.089
99791.285
99747.057
99702.226
99656.596
99609.975
99562.217
99513.271
99463.202
99412.163
99360.351
99307.92
99254.814
99200.544
99144.013
99083.58
99017.125
98942.397
98857.929
98764.319
98663.188
98550.453
98416.134
98280.19
98209.589
98137.744
97715.136
97088.633
88250.543
89193.043
89199.522
90107.731
90330.233
91069.033
91539.252
92156.176
92743.175
93350.51
93961.522
94574.066
95182.397
95781.048
96364.186
96926.046
97461.159
97964.623
98432.329
98861.133
99248.934
99594.698
99898.393
100160.89
100383.8
100569.35
100720.17
100839.18
100929.44
100994.05
101036.04
101058.33
101063.64
101054.52
101033.27
101001.99
100962.53
100916.54
100865.46
100810.56
100752.9
100693.4
100632.83
100571.81
100510.84
100450.3
100390.48
100331.55
100273.62
100216.7
100160.77
100105.71
100051.39
99997.629
99944.23
99890.977
99837.664
99784.113
99730.224
99676.018
99621.619
99567.209
99512.973
99458.952
99404.89
99350.057
99293.059
99232.034
99164.617
99088.333
99001.499
98903.744
98794.1
98665.818
98512.926
98360.063
98260.717
98132.5
97701.137
97186.574
88870.646
89988.007
90022.917
91063.826
91372.341
92196.052
92780.827
93481.582
94163.412
94855.145
95542.992
96221.298
96882.149
97518.05
98121.806
98687.033
99208.465
99682.177
100105.7
100478
100799.4
101071.34
101296.22
101477.15
101617.69
101721.68
101793.06
101835.74
101853.47
101849.8
101828
101791.07
101741.7
101682.29
101614.96
101541.55
101463.66
101382.67
101299.75
101215.88
101131.89
101048.45
100966.09
100885.24
100806.19
100729.16
100654.26
100581.53
100510.96
100442.45
100375.86
100311.03
100247.75
100185.81
100124.98
100065.05
100005.82
99947.197
99889.152
99831.796
99775.314
99719.938
99665.833
99612.902
99560.724
99508.275
99453.857
99395.434
99330.389
99256.065
99170.532
99072
98957.039
98819.029
98654.594
98489.956
98358.788
98181.972
97761.392
97352.963
89647.694
90976.109
91055.617
92247.551
92676.177
93596.964
94317.689
95118.62
95902.56
96680.699
97438.721
98167.434
98857.016
99499.033
100086.63
100614.9
101080.97
101483.96
101824.77
102105.81
102330.62
102503.56
102629.49
102713.47
102760.6
102775.79
102763.68
102728.57
102674.37
102604.59
102522.32
102430.29
102330.88
102226.11
102117.75
102007.25
101895.87
101784.65
101674.43
101565.91
101459.64
101356.04
101255.44
101158.03
101063.95
100973.24
100885.88
100801.78
100720.81
100642.79
100567.53
100494.78
100424.32
100355.92
100289.34
100224.41
100161
100099.09
100038.77
99980.246
99923.771
99869.617
99817.907
99768.399
99720.504
99672.972
99623.75
99570.584
99510.6
99440.945
99359.555
99263.124
99145.304
99002.714
98833.31
98659.318
98501.49
98288.398
97893.828
97571.211
90614.341
92206.729
92366.056
93727.004
94320.208
95353.739
96227.119
97138.275
98018.489
98865.877
99664.619
100403.8
101074.28
101669.87
102187.33
102626.16
102988.32
103277.66
103499.46
103659.88
103765.54
103823.19
103839.37
103820.29
103771.67
103698.69
103605.98
103497.59
103377.07
103247.46
103111.37
102971.02
102828.27
102684.67
102541.51
102399.85
102260.53
102124.25
101991.54
101862.81
101738.37
101618.39
101503
101392.22
101286.02
101184.31
101086.94
100993.74
100904.47
100818.91
100736.79
100657.86
100581.88
100508.62
100437.87
100369.52
100303.53
100239.97
100179.07
100121.13
100066.48
100015.39
99967.928
99923.735
99881.951
99841.145
99799.158
99753.31
99700.443
99637.483
99562.292
99470.572
99352.876
99208.679
99039.609
98860.151
98682.979
98450.452
98089.834
97857.352
91853.177
93778.515
94061.961
95612.12
96416.715
97571.216
98592.222
99598.223
100537.95
101402.88
102179.35
102859.73
103440.4
103921.75
104307.48
104603.73
104818.36
104960.13
105038.15
105061.37
105038.26
104976.63
104883.51
104765.09
104626.79
104473.27
104308.5
104135.83
103958.07
103777.59
103596.31
103415.82
103237.41
103062.12
102890.78
102724.02
102562.34
102406.1
102255.55
102110.85
101972.07
101839.21
101712.22
101590.97
101475.3
101365
101259.85
101159.57
101063.89
100972.52
100885.2
100801.64
100721.62
100644.93
100571.43
100501.07
100433.9
100370.14
100310.1
100254.19
100202.79
100156.14
100114.23
100076.61
100042.25
100009.49
99975.976
99938.859
99894.781
99840.3
99772.353
99686.446
99574.002
99433.136
99268.373
99088.04
98898.759
98663.043
98366.093
98225.829
93493.838
95830.457
96292.371
98029.777
99080.634
100341.32
101457.89
102492.71
103408.27
104198.41
104858.93
105392
105804.16
106105.21
106306.89
106421.81
106462.51
106440.95
106368.12
106253.8
106106.58
105933.81
105741.77
105535.7
105319.98
105098.22
104873.39
104647.9
104423.69
104202.34
103985.08
103772.89
103566.51
103366.51
103173.29
102987.14
102808.24
102636.68
102472.47
102315.57
102165.87
102023.21
101887.39
101758.19
101635.33
101518.53
101407.49
101301.88
101201.41
101105.75
101014.62
100927.78
100844.99
100766.11
100691.05
100619.85
100552.68
100489.86
100431.81
100378.98
100331.78
100290.46
100254.91
100224.58
100198.31
100174.27
100149.98
100122.51
100088.53
100044.49
99986.484
99909.584
99807.525
99676.415
99520.998
99348.232
99163.369
98951.652
98723.271
98628.567
95724.739
98521.808
99223.866
101099.78
102359.62
103666.62
104763.1
105700.29
106465.23
107063.62
107506.42
107809.31
107990.05
108066.93
108057.48
107977.78
107842.04
107662.53
107449.63
107212.01
106956.78
106689.74
106415.61
106138.15
105860.37
105584.66
105312.9
105046.54
104786.7
104534.23
104289.74
104053.68
103826.33
103607.87
103398.36
103197.81
103006.15
102823.25
102648.95
102483.04
102325.27
102175.38
102033.05
101897.99
101769.84
101648.26
101532.91
101423.43
101319.49
101220.78
101127.03
101037.99
100953.47
100873.39
100797.72
100726.6
100660.31
100599.25
100543.91
100494.8
100452.33
100416.71
100387.8
100364.96
100346.95
100331.86
100317.22
100300.19
100277.7
100246.38
100202.21
100140.25
100055.17
99943.809
99808.824
99656.486
99493.316
99320.727
99155.681
99082.324
98797.014
101966.03
102972.09
104913.58
106213.55
107374.09
108285.85
108973.37
109454.26
109754.95
109903.17
109926.19
109848.92
109693.16
109477.39
109216.88
108924.09
108608.98
108279.47
107941.8
107600.82
107260.32
106923.2
106591.68
106267.44
105951.7
105645.4
105349.15
105063.4
104788.39
104524.27
104271.04
104028.64
103796.96
103575.8
103364.95
103164.17
102973.17
102791.66
102619.3
102455.76
102300.69
102153.71
102014.44
101882.51
101757.52
101639.1
101526.89
101420.55
101319.77
101224.29
101133.9
101048.45
100967.89
100892.29
100821.87
100756.99
100698.12
100645.82
100600.61
100562.92
100532.93
100510.48
100494.9
100484.94
100478.77
100474.11
100468.5
100459.39
100443.92
100418.44
100378.36
100319.32
100239.24
100139.62
100024.83
99899.822
99770.488
99653.108
99590.681
102964.89
106345.55
107552.33
109232.22
110350.92
111177.17
111709.84
112003.19
112101.45
112047.36
111877.06
111620.54
111301.85
110939.87
110549.23
110141.12
109724.01
109304.29
108886.72
108474.8
108071.12
107677.54
107295.35
106925.46
106568.44
106224.63
105894.18
105577.12
105273.35
104982.7
104704.94
104439.79
104186.94
103946.05
103716.77
103498.72
103291.54
103094.84
102908.23
102731.31
102563.66
102404.89
102254.57
102112.28
101977.61
101850.17
101729.55
101615.4
101507.37
101405.17
101308.57
101217.35
101131.44
101050.81
100975.62
100906.15
100842.82
100786.17
100736.8
100695.25
100661.95
100637.11
100620.55
100611.66
100609.28
100611.82
100617.42
100624.27
100630.66
100634.65
100633.33
100622.76
100599.43
100562.31
100512.91
100451.99
100377.27
100288.07
100196.3
100130.1
108158.91
111502.17
112613.15
113733.53
114342.79
114627.54
114651.7
114488
114190.05
113799.88
113348.72
112859.62
112349.28
111829.71
111309.5
110794.69
110289.5
109796.82
109318.58
108856.03
108409.9
107980.56
107568.14
107172.55
106793.6
106430.99
106084.35
105753.28
105437.34
105136.07
104848.99
104575.63
104315.52
104068.18
103833.15
103609.95
103398.15
103197.27
103006.89
102826.53
102655.77
102494.14
102341.22
102196.55
102059.72
101930.3
101807.91
101692.18
101582.78
101479.43
101381.91
101290.05
101203.77
101123.14
101048.33
100979.68
100917.68
100862.9
100815.95
100777.43
100747.79
100727.25
100715.71
100712.65
100717.16
100727.97
100743.82
100763.76
100787.24
100813.49
100840.62
100865.52
100885.64
100901.04
100912.88
100916.34
100895.9
100836.09
100744.92
100661.12
114330.64
116824.53
117431.97
117713.53
117623.35
117301.05
116825.26
116255.99
115633.44
114984.89
114328.41
113675.92
113035.15
112411.01
111806.49
111223.33
110662.39
110123.97
109607.98
109114.07
108641.74
108190.38
107759.34
107347.92
106955.43
106581.16
106224.44
105884.59
105560.96
105252.91
104959.84
104681.14
104416.24
104164.59
103925.65
103698.92
103483.88
103280.05
103086.94
102904.08
102731
102567.23
102412.33
102265.83
102127.32
101996.36
101872.59
101755.63
101645.17
101540.93
101442.7
101350.35
101263.83
101183.21
101108.71
101040.71
100979.7
100926.28
100881.08
100844.75
100817.78
100800.49
100792.85
100794.51
100804.78
100822.85
100848.13
100880.68
100921.19
100970.12
101026.64
101088.55
101154.4
101225.37
101301.81
101370.97
101399.88
101355.29
101245.21
101135.16
120901
121340.51
121127.27
120586.67
119865.81
119053.75
118205.99
117353.99
116516.1
115702.44
114918.42
114166.54
113447.65
112761.57
112107.53
111484.47
110891.14
110326.22
109788.39
109276.38
108788.94
108324.88
107883.09
107462.53
107062.2
106681.18
106318.59
105973.61
105645.46
105333.41
105036.77
104754.87
104487.09
104232.82
103991.49
103762.56
103545.51
103339.81
103144.98
102960.53
102785.97
102620.84
102464.68
102317.04
102177.48
102045.59
101920.99
101803.36
101692.33
101587.6
101489.01
101396.45
101309.85
101229.3
101155.02
101087.35
101026.8
100973.96
100929.49
100894.07
100868.35
100852.75
100847.36
100851.94
100866.04
100889.36
100921.99
100964.77
101019.35
101087.24
101168.67
101262.42
101368.35
101488.78
101622.52
101749.3
101818.34
101775.52
101632.77
101502
124738.45
124121.01
123217.11
122178.36
121107.92
120049.37
119025.14
118044.43
117110.68
116224.15
115383.59
114586.98
113832.02
113116.32
112437.54
111793.45
111181.96
110601.12
110049.14
109524.38
109025.32
108550.56
108098.84
107668.96
107259.85
106870.5
106499.97
106147.4
105811.96
105492.91
105189.51
104901.09
104627.01
104366.65
104119.44
103884.82
103662.27
103451.27
103251.32
103061.93
102882.62
102712.93
102552.38
102400.53
102256.92
102121.13
101992.8
101871.62
101757.14
101649.02
101547.29
101451.67
101362.1
101278.65
101201.52
101131.06
101067.77
101012.23
100965.17
100927.36
100899.6
100882.44
100876.06
100880.28
100894.97
100920.11
100955.04
101002.59
101065.3
101144.47
101241.73
101354.47
101485.56
101638.2
101809.98
101973.65
102067.33
102024.4
101859.47
101712.46
102586.68
102554.1
102591.87
102631.7
102661.74
102666.83
102644.18
102609.1
102567.68
102517.08
102452.92
102376.27
102290.1
102199.43
102105.52
102008.64
101908.96
101806.86
101702.73
101596.89
101489.67
101381.36
101272.28
101162.69
101052.86
100943.07
100833.55
100724.55
100616.31
100509.06
100403.03
100298.44
100195.51
100094.47
99995.559
99898.99
99805.002
99713.832
99625.721
99540.919
99459.675
99382.246
99308.885
99239.85
99175.399
99115.787
99061.27
99012.09
98968.471
98930.595
98898.61
98872.589
98852.521
98838.297
98829.693
98826.346
98827.743
98833.226
98842.016
98853.252
98866.042
98879.564
98893.031
98905.998
98917.782
98928.618
98937.801
98945.43
98954.555
98954.202
98976.291
98951.279
99012.219
98938.928
99075.851
98914.29
99216.062
98836.074
99498.734
98610.406
101728.03
101721.81
101741.36
101764.59
101767.55
101765.49
101758.92
101745.82
101722.75
101693.03
101656.08
101613.52
101564.94
101511.18
101452.39
101389.17
101321.78
101250.57
101175.87
101098.01
101017.31
100934.1
100848.69
100761.41
100672.57
100582.49
100491.48
100399.83
100307.85
100215.84
100124.09
100032.88
99942.519
99853.279
99765.449
99679.314
99595.161
99513.278
99433.957
99357.488
99284.165
99214.282
99148.13
99086.004
99028.196
98974.999
98926.697
98883.563
98845.848
98813.761
98787.462
98767.047
98752.525
98743.804
98740.671
98742.766
98749.578
98760.451
98774.605
98791.167
98809.23
98827.933
98846.464
98864.302
98880.768
98895.954
98909.211
98920.539
98932.76
98935.71
98959.94
98937.33
99000.233
98924.867
99075.117
98897.658
99217.714
98819.442
99498.47
98599.619
101212.69
101203.16
101188.6
101174.68
101158.92
101144.42
101122.89
101101.25
101075.6
101048.49
101016.95
100983.07
100945.14
100904.3
100859.9
100812.34
100761.57
100707.74
100650.97
100591.4
100529.2
100464.55
100397.64
100328.68
100257.88
100185.47
100111.7
100036.81
99961.055
99884.701
99808.018
99731.286
99654.786
99578.809
99503.65
99429.609
99356.993
99286.112
99217.282
99150.823
99087.054
99026.299
98968.882
98915.127
98865.359
98819.903
98779.075
98743.176
98712.483
98687.231
98667.603
98653.714
98645.595
98643.174
98646.248
98654.466
98667.324
98684.171
98704.223
98726.601
98750.381
98774.668
98798.623
98821.654
98843.075
98862.858
98880.383
98895.585
98911.091
98917.441
98943.82
98923.913
98990.68
98912.69
99071.408
98884.532
99217.41
98803.879
99498.394
98589.828
100694.71
100676.59
100652.17
100626.42
100600.17
100576.68
100549.12
100523.61
100494.09
100465.83
100434.21
100402.75
100368.57
100333.54
100296.35
100257.58
100216.89
100174.35
100129.9
100083.55
100035.31
99985.215
99933.323
99879.709
99824.471
99767.726
99709.614
99650.294
99589.944
99528.761
99466.958
99404.765
99342.425
99280.199
99218.361
99157.196
99097.005
99038.096
98980.788
98925.409
98872.29
98821.768
98774.186
98729.89
98689.231
98652.557
98620.21
98592.515
98569.769
98552.229
98540.101
98533.519
98532.537
98537.098
98547.012
98561.941
98581.389
98604.708
98631.114
98659.721
98689.586
98719.787
98749.453
98777.933
98804.521
98829.092
98851.033
98870.249
98889.166
98899.01
98927.503
98911.007
98981.587
98899.586
99065.812
98873.801
99215.955
98791.088
99497.819
98581.108
100042.59
100024.75
100005.9
99984.781
99962.302
99944.072
99920.543
99901.107
99876.901
99855.695
99830.673
99807.267
99781.144
99755.269
99727.62
99699.15
99669.289
99638.196
99605.718
99571.824
99536.494
99499.707
99461.464
99421.786
99380.713
99338.304
99294.636
99249.811
99203.946
99157.181
99109.677
99061.613
99013.192
98964.635
98916.183
98868.096
98820.652
98774.143
98728.875
98685.168
98643.351
98603.762
98566.752
98532.678
98501.904
98474.795
98451.708
98432.983
98418.933
98409.83
98405.897
98407.289
98414.075
98426.215
98443.534
98465.703
98492.235
98522.486
98555.67
98590.889
98627.181
98663.599
98699.243
98733.406
98765.36
98794.89
98821.388
98844.754
98867.194
98880.619
98911.314
98898.435
98970.943
98888.647
99059.839
98864.058
99214.108
98781.199
99495.468
98573.332
99334.876
99325.343
99316.85
99307.708
99295.112
99287.807
99273.642
99264.985
99250.032
99239.393
99223.802
99210.919
99194.769
99179.54
99162.393
99144.769
99125.869
99106.019
99085.021
99062.863
99039.53
99014.999
98989.266
98962.331
98934.211
98904.936
98874.549
98843.112
98810.704
98777.425
98743.394
98708.753
98673.665
98638.319
98602.921
98567.702
98532.912
98498.819
98465.708
98433.879
98403.65
98375.353
98349.335
98325.955
98305.581
98288.58
98275.314
98266.13
98261.346
98261.246
98266.064
98275.97
98291.048
98311.267
98336.466
98366.326
98400.365
98437.943
98478.265
98520.423
98563.434
98606.324
98648.166
98688.201
98725.681
98760.31
98791.484
98819.114
98845.165
98862.261
98895.177
98885.57
98958.609
98879.523
99053.621
98851.477
99211.837
98771.824
99492.432
98566.556
98661.548
98660.027
98658.684
98659.198
98654.338
98656.385
98649.855
98650.775
98644.132
98643.329
98636.335
98633.184
98626.171
98620.67
98612.989
98605.127
98596.033
98586.254
98575.563
98563.955
98551.416
98537.917
98523.449
98508
98491.57
98474.17
98455.824
98436.568
98416.459
98395.57
98373.996
98351.85
98329.269
98306.41
98283.454
98260.601
98238.072
98216.107
98194.966
98174.928
98156.293
98139.378
98124.52
98112.069
98102.384
98095.826
98092.751
98093.5
98098.392
98107.714
98121.708
98140.551
98164.335
98193.04
98226.508
98264.429
98306.327
98351.558
98399.32
98448.688
98498.659
98548.23
98596.447
98642.505
98685.634
98725.472
98761.42
98793.408
98823.149
98844.026
98878.984
98871.865
98947.241
98871.452
99046.919
98839.259
99207.556
98762.403
99491.468
98560.701
98044.919
98048.978
98051.415
98058.826
98059.184