/*--------------------------------*- C++ -*----------------------------------*\
  =========                 |
  \\      /  F ield         | OpenFOAM: The Open Source CFD Toolbox
   \\    /   O peration     | Website:  https://openfoam.org
    \\  /    A nd           | Version:  12
     \\/     M anipulation  |
\*---------------------------------------------------------------------------*/
FoamFile
{
    format      ascii;
    class       volScalarField;
    location    "0.121";
    object      omega;
}
// * * * * * * * * * * * * * * * * * * * * * * * * * * * * * * * * * * * * * //

dimensions      [0 0 -1 0 0 0 0];

internalField   nonuniform List<scalar> 
16000
(
1089.4331
2187.5471
1072.7534
644.14946
454.52446
316.05807
239.80792
181.02786
145.82751
118.0579
100.30866
85.850692
75.14108
66.191513
58.890958
52.739697
47.547485
43.119299
39.314556
36.021218
33.155145
30.645363
28.433501
26.473011
24.726377
23.164418
21.762972
20.503377
19.369812
18.347842
17.424416
16.589238
15.834105
15.15208
14.537231
13.984052
13.487357
13.042256
12.644657
12.291109
11.977733
11.700454
11.456303
11.242577
11.056208
10.894077
10.753761
10.632963
10.529475
10.441206
10.366284
10.303069
10.250034
10.205835
10.169299
10.139535
10.11597
10.098418
10.087282
10.083193
10.083448
10.083023
10.082039
10.080626
10.078679
10.076143
10.072931
10.068905
10.063827
10.057325
10.048957
10.038174
10.024909
10.015346
10.008614
10.005024
10.004394
10.013026
10.006413
10.019272
1131.0851
2179.0585
1061.1678
644.443
454.63244
318.92376
240.85094
182.82328
146.64577
119.07862
100.84256
86.406997
75.495288
66.49879
59.112427
52.91132
47.672486
43.209715
39.377891
36.063066
33.180327
30.65841
28.437991
26.471816
24.721328
23.156977
21.753901
20.493086
19.358795
18.336834
17.413888
16.579303
15.824737
15.143136
14.528606
13.975708
13.479366
13.034628
12.637217
12.2838
11.970793
11.6939
11.449999
11.236508
11.050534
10.888808
10.748865
10.628424
10.525304
10.437412
10.362841
10.299964
10.24725
10.203358
10.167088
10.137506
10.11399
10.09624
10.084402
10.079093
10.078979
10.078516
10.077441
10.075939
10.073903
10.071276
10.067976
10.063876
10.058753
10.052231
10.043865
10.033365
10.020828
10.011807
10.005565
10.002023
10.002232
10.008331
10.00699
10.02013
1171.139
2180.5659
1049.6052
640.87737
451.2611
319.16583
239.74631
183.00635
146.19272
119.23056
100.68386
86.413753
75.38849
66.397408
58.978405
52.766033
47.516631
43.048925
39.216136
35.902592
33.023002
30.506211
28.292338
26.333901
24.591552
23.035658
21.640897
20.387982
19.261201
18.246717
17.331149
16.503579
15.755589
15.080038
14.471074
13.923307
13.431799
12.991642
12.598381
12.248662
11.939276
11.665812
11.42497
11.214191
11.030835
10.871526
10.733751
10.615249
10.513877
10.427568
10.354393
10.292754
10.241128
10.198195
10.162757
10.133856
10.110848
10.093403
10.081512
10.075513
10.074896
10.07432
10.073106
10.071465
10.069291
10.066524
10.063084
10.058853
10.053626
10.04704
10.038606
10.028177
10.01651
10.00814
10.002418
9.9993185
9.9999941
10.004953
10.007783
10.020427
1209.4105
2188.7361
1039.8056
637.40395
447.47681
319.20582
238.34231
183.02916
145.598
119.28109
100.47351
86.358351
75.240493
66.248819
58.804143
52.582256
47.32556
42.855338
39.024033
35.714071
32.839647
30.329867
28.124242
26.175204
24.442535
22.896571
21.511552
20.2679
19.149842
18.143942
17.236836
16.417319
15.67691
15.008353
14.405844
13.864026
13.378086
12.943222
12.554828
12.209393
11.904152
11.634638
11.397361
11.18969
11.009308
10.852747
10.717435
10.601123
10.501701
10.417156
10.345527
10.285248
10.234806
10.192911
10.15837
10.130207
10.107748
10.090639
10.0788
10.07239
10.071176
10.070435
10.069051
10.06724
10.064899
10.061965
10.05836
10.053969
10.048609
10.041949
10.033473
10.023046
10.012261
10.004545
9.999364
9.9967422
9.9975601
10.001989
10.007602
10.020259
1245.7221
2206.9545
1031.3272
633.65871
442.9373
318.50118
236.25676
182.5646
144.62578
119.0534
100.07566
86.126688
74.953945
65.968456
58.515304
52.294821
47.041738
42.577985
38.756191
35.456972
32.593948
30.0967
27.904178
25.968926
24.249921
22.717542
21.345663
20.114461
19.008001
18.013285
17.117091
16.307926
15.577282
14.917764
14.323632
13.78954
13.310789
12.882728
12.500689
12.160843
11.860899
11.596416
11.363752
11.160063
10.983423
10.830313
10.698087
10.584509
10.487492
10.405108
10.33536
10.276725
10.227703
10.187036
10.153556
10.126274
10.104493
10.087836
10.076194
10.069624
10.067822
10.066859
10.065269
10.063253
10.060715
10.057584
10.053785
10.049207
10.043679
10.036917
10.028423
10.018006
10.00811
10.001065
9.9964553
9.9943026
9.9951819
9.9994663
10.006845
10.017727
1279.9274
2232.6864
1027.4303
630.65428
438.90974
317.17149
233.69165
181.69272
143.37808
118.58575
99.534651
85.740964
74.548224
65.573507
58.126338
51.916901
46.676653
42.227089
38.421586
35.139255
32.292985
29.813052
27.637865
25.720111
24.018274
22.502714
21.146992
19.931102
18.838854
17.857672
16.97462
16.177903
15.459016
14.81041
14.226407
13.701676
13.231599
12.811693
12.437361
12.104335
11.810723
11.552208
11.3251
11.126175
10.953943
10.804888
10.676282
10.565905
10.471671
10.39178
10.324187
10.267429
10.220015
10.180728
10.148433
10.122142
10.101137
10.085016
10.07365
10.067029
10.064792
10.063553
10.061726
10.059477
10.056714
10.053363
10.049346
10.04456
10.038839
10.031945
10.023459
10.013113
10.004105
9.9977459
9.9937244
9.9920116
9.9929296
9.9971462
10.005674
10.014
1311.9829
2263.5895
1027.5073
627.81686
434.9525
315.20392
231.01868
180.44811
141.94357
117.88038
98.859257
85.19986
74.019492
65.061837
57.634054
51.44555
46.227271
41.799734
38.017188
34.757998
31.933992
29.476322
27.322985
25.426138
23.745164
22.249877
20.913531
19.716028
18.640828
17.675731
16.808239
16.026232
15.321261
14.685585
14.113603
13.599992
13.140196
12.729877
12.364654
12.039916
11.753728
11.502121
11.281531
11.088201
10.92104
10.776635
10.652173
10.545458
10.454369
10.377285
10.312108
10.257442
10.211811
10.174043
10.143046
10.117844
10.097701
10.082193
10.071177
10.064608
10.062048
10.060491
10.058399
10.055891
10.05288
10.049288
10.045036
10.040024
10.034092
10.027033
10.018569
10.008439
10.000308
9.994642
9.9912113
9.989916
9.990889
9.9950041
10.003933
10.011278
1341.9961
2297.1372
1029.1729
624.67618
431.07612
312.59036
228.37166
178.96884
140.4323
116.96019
98.066451
84.511987
73.368994
64.435616
57.038669
50.880309
45.692577
41.2948
37.54098
34.311086
31.514914
29.084512
26.957894
25.083463
23.427186
21.955851
20.642349
19.466579
18.411562
17.465371
16.616115
15.85132
15.162653
14.542139
13.984261
13.483701
13.035965
12.636807
12.282119
11.967887
11.690264
11.446482
11.233344
11.046552
10.885091
10.745884
10.626064
10.523439
10.435818
10.36182
10.299281
10.246891
10.203194
10.167059
10.137451
10.113417
10.09421
10.079378
10.068765
10.062319
10.059544
10.057636
10.055255
10.052466
10.04919
10.045342
10.040839
10.035589
10.029439
10.022187
10.013728
10.004036
9.9967646
9.9917926
9.9889436
9.9880474
9.9891012
9.9930972
10.001665
10.00832
1370.065
2331.1275
1027.8157
620.76867
426.32028
309.27624
224.85208
177.09883
138.59561
115.85453
97.152337
83.676716
72.589914
63.690288
56.335285
50.215549
45.066953
40.70724
36.984989
33.790491
31.02806
28.630268
26.536114
24.692898
23.065713
21.622448
20.335536
19.185023
18.15346
17.229051
16.400703
15.655597
14.98558
14.382395
13.840623
13.35495
12.920943
12.534449
12.191422
11.887832
11.620081
11.385124
11.18036
11.001582
10.84644
10.712928
10.598281
10.50014
10.416275
10.345599
10.285884
10.235921
10.194278
10.159864
10.131711
10.108902
10.090687
10.076585
10.066415
10.060137
10.057232
10.054951
10.052261
10.049173
10.045617
10.041504
10.036743
10.031244
10.024876
10.017426
10.008907
9.9999524
9.9935198
9.9892332
9.9869456
9.986432
9.9875893
9.9914322
9.9994902
10.006114
1396.291
2363.9216
1019.1345
615.77998
419.85411
305.51839
220.49296
174.75364
136.69414
114.56852
96.10663
82.68889
71.67423
62.817885
55.51588
49.438424
44.336524
40.023744
36.347621
33.197101
30.475982
28.117224
26.061115
24.253532
22.660116
21.249178
19.992764
18.871197
17.866554
16.96697
16.162271
15.439438
14.790527
14.206932
13.683338
13.214435
12.795847
12.423516
12.093555
11.801999
11.545168
11.31988
11.124056
10.953194
10.805078
10.677725
10.569116
10.475819
10.396021
10.32885
10.272112
10.224684
10.185182
10.15255
10.125892
10.104341
10.087154
10.073824
10.064128
10.058037
10.055058
10.052394
10.04938
10.045983
10.042136
10.037751
10.03273
10.026977
10.020393
10.012785
10.004125
9.9962177
9.9906057
9.9869882
9.9852325
9.985085
9.9863638
9.9900197
9.997383
10.003875
1420.7884
2394.7836
1010.3324
609.72743
411.73842
301.35208
215.8678
172.21392
134.69782
113.10117
94.916291
81.541325
70.610205
61.797843
54.557924
48.544072
43.502638
39.248346
35.626973
32.529058
29.856822
27.543712
25.531748
23.765501
22.210777
20.836578
19.614778
18.52603
17.551965
16.680449
15.901917
15.203994
14.578705
14.017001
13.513676
13.063423
12.661926
12.305197
11.989526
11.711039
11.466146
11.251459
11.06528
10.903068
10.762454
10.641424
10.53852
10.450428
10.375285
10.31176
10.258155
10.213341
10.176033
10.145211
10.12006
10.099776
10.083631
10.071104
10.061908
10.056004
10.052969
10.049924
10.046577
10.042864
10.038721
10.034062
10.028785
10.022783
10.015976
10.008288
9.9996939
9.9928511
9.9880427
9.9850707
9.9838109
9.9840155
9.9854456
9.9888944
9.995477
10.001674
1443.68
2424.7224
996.98374
602.15738
402.21211
296.78077
211.07188
169.41811
132.67568
111.45858
93.554106
80.203711
69.360166
60.623773
53.465032
47.529237
42.561573
38.377656
34.821448
31.785278
29.170301
26.909849
24.948271
23.229194
21.718489
20.385262
19.202398
18.150537
17.210883
16.371019
15.619889
14.949541
14.35045
13.813001
13.332084
12.902381
12.519654
12.179964
11.879812
11.615436
11.383377
11.180819
11.00478
10.851632
10.718966
10.604639
10.507671
10.42482
10.354015
10.294271
10.24415
10.202036
10.166951
10.137945
10.114284
10.095249
10.080137
10.068423
10.05976
10.054031
10.050915
10.0475
10.043818
10.039787
10.035348
10.030415
10.024891
10.018659
10.011626
10.003881
9.9957665
9.9898735
9.9858379
9.9834815
9.9826793
9.9832108
9.9848086
9.9880603
9.9939117
9.9996236
1465.2748
2452.9904
979.7301
593.63989
392.15552
291.80268
206.20467
166.42285
130.60295
109.61891
91.955168
78.659546
67.929319
59.289756
52.230787
46.39024
41.510771
37.41
33.929988
30.96513
28.416235
26.216091
24.310967
22.645256
21.184485
19.894796
18.755321
17.744612
16.843303
16.039227
15.321291
14.681116
14.110635
13.599637
13.143048
12.73552
12.372948
12.051403
11.76764
11.518103
11.299244
11.108169
10.94278
10.799087
10.674729
10.567833
10.476795
10.399311
10.333078
10.277011
10.229991
10.190854
10.158042
10.130842
10.108629
10.090801
10.076689
10.065774
10.057676
10.052129
10.048848
10.045086
10.04107
10.036726
10.031996
10.026796
10.021032
10.014603
10.007384
9.9995102
9.9923261
9.9873032
9.9839892
9.9822097
9.9818303
9.9826564
9.9844251
9.9874932
9.9927418
9.9982474
1485.8114
2475.8855
958.30913
584.57756
381.65491
286.46477
201.354
163.23622
128.40843
107.48742
90.103832
76.898147
66.305
57.787655
50.84917
45.122327
40.346926
36.343106
32.951554
30.0677
27.594483
25.463251
23.618422
22.012378
20.608286
19.371574
18.280546
17.315591
16.456751
15.691943
15.009891
14.402411
13.862349
13.379687
12.949077
12.565062
12.223774
11.921247
11.654474
11.420259
11.215139
11.036095
10.8814
10.747234
10.631129
10.531031
10.445943
10.373783
10.312532
10.260266
10.216231
10.17966
10.149343
10.123973
10.10316
10.086472
10.073308
10.063148
10.055631
10.050322
10.046733
10.042649
10.03831
10.033661
10.028649
10.023194
10.0172
10.010591
10.003304
9.9954357
9.9893704
9.9851466
9.9824903
9.9812356
9.981251
9.982333
9.9842713
9.9872138
9.9917934
9.997064
1505.5471
2488.7902
932.76234
574.86378
370.7765
280.80291
196.59411
159.77895
125.97197
105.07153
87.97291
74.901887
64.474866
56.107458
49.312909
43.720524
39.067228
35.174702
31.885499
29.089877
26.702188
24.649715
22.879058
21.340381
19.999622
18.821341
17.7839
16.868699
16.056149
15.334017
14.690821
14.118303
13.608684
13.155711
12.752335
12.392798
12.073603
11.790731
11.541318
11.32266
11.131415
10.965295
10.821218
10.696487
10.588738
10.495634
10.416288
10.349076
10.292193
10.244126
10.203093
10.168889
10.140689
10.117352
10.097925
10.082299
10.070021
10.060541
10.053568
10.048599
10.044549
10.040164
10.035518
10.030578
10.025298
10.019604
10.0134
10.006611
9.9993338
9.9920495
9.9868841
9.9833995
9.9813349
9.9805341
9.9809263
9.9822165
9.9842911
9.9872401
9.9915251
9.9964985
1524.7019
2481.6447
903.45692
564.54925
359.56658
274.82149
191.91931
155.92413
123.21647
102.32661
85.5329
72.648237
62.423047
54.238196
47.614719
42.179371
37.668984
33.898905
30.727433
28.040382
25.751736
23.788841
22.100836
20.637446
19.366358
18.252609
17.27375
16.410183
15.646982
14.970185
14.367953
13.832629
13.356681
12.933927
12.558382
12.22368
11.92681
11.663774
11.431637
11.228417
11.0505
10.895943
10.762388
10.646868
10.547327
10.46174
10.388073
10.325627
10.272719
10.228327
10.190635
10.158727
10.132401
10.110807
10.092932
10.078309
10.06685
10.057978
10.051427
10.046718
10.042291
10.037615
10.032683
10.027471
10.021937
10.01602
10.009643
10.002722
9.9953653
9.9892318
9.9848653
9.9820404
9.9805177
9.9800799
9.980821
9.9822926
9.9844492
9.987442
9.9916268
9.9964249
1543.4462
2434.2146
871.81694
553.66463
348.08306
268.43383
187.02014
151.6446
120.0286
99.205111
82.750364
70.112738
60.133855
52.170399
45.748119
40.489494
36.144797
32.527312
29.493579
26.930223
24.754516
22.892572
21.296333
19.916003
18.718131
17.673661
16.758072
15.952014
15.240278
14.610644
14.05061
13.553056
13.110785
12.718103
12.370053
12.05998
11.785135
11.541804
11.326707
11.138582
10.973788
10.830396
10.706811
10.600043
10.508008
10.429043
10.361455
10.303619
10.254419
10.213344
10.178586
10.149225
10.12461
10.104556
10.088032
10.074514
10.063806
10.0555
10.049261
10.044698
10.039943
10.034997
10.029803
10.02434
10.018572
10.012445
10.005908
9.9990071
9.992056
9.9869224
9.9832906
9.9810333
9.9800144
9.9799092
9.9809118
9.9825422
9.9847368
9.9877859
9.9920225
9.9967325
1561.6501
2398.0305
839.90692
542.15615
336.32907
261.09865
181.97076
146.83767
116.29479
95.649357
79.590555
67.271567
57.59214
49.895927
43.700788
38.662484
34.51606
31.075203
28.200389
25.777771
23.728195
21.978257
20.47885
19.188653
18.072179
17.100607
16.250715
15.503581
14.844077
14.261789
13.744107
13.284218
12.875374
12.511976
12.189247
11.903062
11.649434
11.425259
11.227682
11.053988
10.90189
10.769104
10.654803
10.556315
10.471374
10.398439
10.336029
10.282778
10.237445
10.19937
10.167278
10.140163
10.117389
10.098675
10.083378
10.070885
10.060873
10.053123
10.047132
10.042526
10.037509
10.032312
10.026881
10.021191
10.015213
10.008908
10.002228
9.9952894
9.9893705
9.9850789
9.9821307
9.9803543
9.9796913
9.980036
9.9811819
9.9829445
9.985157
9.9882271
9.9925323
9.9972062
1578.8552
2356.681
807.08994
529.68749
324.20265
252.58161
176.57806
141.38869
111.90701
91.598724
76.02035
64.104181
54.779415
47.400464
41.497907
36.720615
32.806557
29.568789
26.872979
24.607061
22.691604
21.063558
19.671687
18.475692
17.442801
16.545688
15.762087
15.074023
14.466184
13.928709
13.452315
13.028909
12.652366
12.317628
12.020381
11.756703
11.523061
11.316437
11.13427
10.974276
10.834385
10.712551
10.606837
10.515977
10.437634
10.370327
10.312694
10.263541
10.221796
10.186482
10.156805
10.131773
10.110738
10.093205
10.078958
10.067317
10.058021
10.050812
10.045119
10.040221
10.034997
10.029577
10.023932
10.018041
10.011872
10.005414
9.998738
9.9921134
9.9871934
9.9836428
9.9813225
9.980046
9.979611
9.9802745
9.981606
9.9834619
9.9857019
9.9887695
9.9930134
9.9975971
1594.3918
2288.8963
772.6192
515.75408
310.94345
242.7348
170.52808
135.15904
106.76551
86.994867
72.014198
60.59149
51.712936
44.731534
39.175536
34.702329
31.054072
28.042812
25.53901
23.442971
21.675394
20.174839
18.893426
17.793315
16.844074
16.020458
15.301297
14.66901
14.111797
13.618773
13.181527
12.792725
12.44659
12.138486
11.864667
11.621844
11.406816
11.216656
11.048967
10.901505
10.772424
10.660111
10.563164
10.479214
10.406892
10.344732
10.291448
10.245925
10.207205
10.174736
10.147183
10.123974
10.104475
10.088197
10.074876
10.063965
10.055232
10.048458
10.043026
10.037832
10.032429
10.026815
10.020981
10.014916
10.008596
10.001993
9.9952768
9.9896343
9.9854857
9.9825736
9.9807577
9.9799827
9.9798638
9.9806649
9.9821389
9.9840499
9.9863219
9.9894012
9.9935315
9.9979309
1607.1768
2220.2553
735.58874
499.78479
296.89657
231.3651
163.35084
127.98254
100.79406
81.808018
67.566261
56.774141
48.454077
41.947651
36.792816
32.660221
29.304599
26.53419
24.23894
22.319982
20.703587
19.332366
18.161398
17.155566
16.287179
15.53369
14.874656
14.296661
13.786711
13.334854
12.933946
12.577214
12.259324
11.975916
11.72355
11.499518
11.301352
11.12609
10.971639
10.835823
10.716783
10.613561
10.523768
10.446127
10.379199
10.321688
10.272374
10.230226
10.194389
10.164122
10.138488
10.116882
10.098749
10.083614
10.071132
10.06087
10.052587
10.046103
10.040835
10.035398
10.029832
10.024062
10.018067
10.011839
10.005406
9.9988406
9.9923955
9.9876662
9.9842065
9.9818657
9.9804711
9.979958
9.9802003
9.9811709
9.9827401
9.9846801
9.9869826
9.9900713
9.9940579
9.9982314
1614.4201
2136.9484
695.76999
480.08132
281.8053
218.15358
154.57179
119.72202
93.992386
76.085228
62.759912
52.759558
45.099119
39.134815
34.423529
30.655393
27.603617
25.089264
23.005899
21.264877
19.797961
18.552841
17.48853
16.57286
15.780479
15.0913
14.489099
13.960268
13.493782
13.079459
12.711417
12.383666
12.091393
11.830568
11.597835
11.390577
11.207418
11.045346
10.902585
10.777296
10.667673
10.571983
10.488796
10.416749
10.354586
10.301171
10.255404
10.216167
10.182989
10.154714
10.130745
10.110508
10.093538
10.079447
10.067714
10.058048
10.050176
10.043864
10.038608
10.032979
10.027254
10.021352
10.015247
10.008898
10.002314
9.9957254
9.9902196
9.9861435
9.9832617
9.9814068
9.9804247
9.9801181
9.9806076
9.9817271
9.9833563
9.9853166
9.9876509
9.9907391
9.9945715
9.9984477
1610.9682
2034.7406
652.64789
454.34196
265.49109
202.75179
143.9497
110.40178
86.510881
69.953917
57.780252
48.694828
41.767209
36.388285
32.144954
28.751819
26.004574
23.74511
21.869423
20.299792
18.974935
17.848285
16.883394
16.051557
15.330023
14.700739
14.149301
13.663911
13.2348
12.854054
12.515133
12.212945
11.943229
11.702481
11.487734
11.296442
11.12642
10.975854
10.843004
10.726316
10.624314
10.535481
10.458135
10.391093
10.33313
10.283219
10.240693
10.204193
10.173013
10.146506
10.124021
10.104962
10.089053
10.0757
10.064603
10.055457
10.048022
10.041888
10.036419
10.030658
10.024776
10.018732
10.012528
10.006157
9.9996455
9.9932623
9.9885534
9.9850417
9.9826109
9.9811129
9.9804833
9.9804055
9.9810578
9.9822801
9.9839406
9.9859125
9.9882867
9.9913801
9.9950735
9.9986231
1590.6531
1903.8566
606.43458
421.89257
247.95712
184.95359
131.70553
100.34659
78.698346
63.738693
52.847952
44.745244
38.581681
33.801346
30.028776
27.005769
24.551134
22.533945
20.853123
19.441998
18.246998
17.227515
16.351842
15.594888
14.936541
14.360625
13.854298
13.407649
13.011999
12.660384
12.34679
12.066719
11.816358
11.592588
11.392787
11.214705
11.056364
10.915982
10.791936
10.682729
10.587053
10.504081
10.431803
10.369146
10.315
10.268351
10.22829
10.193984
10.164574
10.139501
10.118355
10.100388
10.085212
10.072477
10.061873
10.053161
10.045975
10.039984
10.034359
10.028505
10.022512
10.01634
10.009991
10.003501
9.997052
9.9914591
9.9873138
9.9842978
9.9822575
9.9810504
9.9805726
9.9807627
9.9815338
9.9828165
9.9844766
9.9864282
9.9887985
9.9918695
9.9954877
9.9988289
1544.647
1743.9916
558.29437
383.52442
230.13943
165.03448
118.52348
90.179132
71.010927
57.763335
48.187577
41.070993
35.659518
31.458832
28.136315
25.464141
23.283316
21.480956
19.975146
18.704627
17.623779
16.697653
15.899055
15.20646
14.60253
14.072968
13.605283
13.19151
12.823937
12.497101
12.205
11.943696
11.709769
11.500422
11.313292
11.146349
10.99781
10.866065
10.749635
10.647144
10.557299
10.478877
10.410699
10.351477
10.300237
10.25601
10.217984
10.185605
10.157815
10.134074
10.113843
10.096673
10.082144
10.069888
10.059708
10.051214
10.044182
10.038242
10.032476
10.026548
10.020497
10.014285
10.007901
10.001386
9.995023
9.9901196
9.986428
9.9838042
9.982081
9.9811288
9.9808217
9.9811499
9.9820104
9.9833247
9.9849753
9.9869033
9.9892249
9.9921515
9.995557
9.9987674
1464.7265
1581.2672
509.20479
344.03964
206.18356
145.73691
105.34398
80.586427
63.904574
52.341787
44.015021
37.827573
33.111618
29.436806
26.516135
24.154362
22.215557
20.603172
19.247435
18.097179
17.113219
16.265727
15.53134
14.89153
14.331368
13.838689
13.403475
13.017426
12.673807
12.367012
12.092395
11.846302
11.625664
11.427947
11.251005
11.092985
10.952243
10.827281
10.716708
10.619213
10.533568
10.458694
10.393881
10.337519
10.288748
10.246655
10.210429
10.179331
10.152699
10.129887
10.110411
10.093843
10.079895
10.068071
10.058118
10.049783
10.042814
10.036846
10.030926
10.024885
10.018741
10.012479
10.006098
9.9996702
9.9936041
9.9891784
9.9858496
9.9835213
9.982039
9.9813082
9.9811305
9.9815576
9.9824681
9.9837878
9.9854243
9.987346
9.9896474
9.9924618
9.9956709
9.9987418
1352.6572
1493.787
463.0642
296.63476
182.35451
127.61249
93.4256
72.090028
57.753601
47.76791
40.548573
35.166519
31.041787
27.805647
25.215135
23.105667
21.362654
19.904159
18.6694
17.616065
16.710396
15.926673
15.244592
14.647922
14.123499
13.660565
13.250216
12.885124
12.559343
12.268394
12.00735
11.773021
11.562595
11.373765
11.20457
11.053314
10.918491
10.798727
10.692742
10.599321
10.517292
10.445508
10.382846
10.328375
10.281147
10.240317
10.205116
10.17488
10.149142
10.127066
10.108215
10.092147
10.078489
10.066921
10.057154
10.048937
10.042015
10.036016
10.029974
10.023809
10.017531
10.01114
10.004669
9.9982827
9.9927089
9.9885841
9.9855319
9.9834238
9.9821134
9.9814887
9.9814602
9.9819506
9.9828949
9.9842143
9.9858402
9.9877499
9.9899987
9.9926554
9.995643
9.9986413
1219.9461
1251.3629
422.87967
254.35345
160.18841
112.49406
83.56047
65.227265
52.89125
44.242168
37.941716
33.20169
29.535324
26.632757
24.289321
22.365768
20.764682
19.416246
18.269299
17.28554
16.435869
15.697636
15.052906
14.487198
13.988619
13.547275
13.155129
12.805427
12.492598
12.212043
11.959992
11.733305
11.529397
11.346105
11.181592
11.034264
10.902702
10.785609
10.681779
10.59008
10.509492
10.439285
10.377901
10.324504
10.278177
10.238101
10.203518
10.173748
10.148178
10.126275
10.107551
10.091587
10.078012
10.066507
10.056791
10.048614
10.041723
10.035743
10.029702
10.023514
10.01719
10.010725
10.004163
9.9977242
9.9923713
9.9883932
9.9854733
9.9834761
9.982259
9.9817115
9.9817412
9.9822688
9.9832316
9.9845564
9.9861897
9.9881096
9.9903383
9.992898
9.9957231
9.9986138
1100.5587
1113.6403
390.21424
223.63054
143.6018
101.36885
76.251654
60.227529
49.414551
41.767469
36.140152
31.865736
28.528735
25.864289
23.696218
21.903851
20.402175
19.129866
18.041734
17.103816
16.290086
15.58022
14.958057
14.410617
13.927762
13.499161
13.117555
12.776564
12.470947
12.196347
11.949169
11.726451
11.525741
11.344995
11.182477
11.036682
10.906268
10.790008
10.686749
10.595396
10.514892
10.444226
10.382435
10.328587
10.281813
10.2413
10.206304
10.176147
10.15022
10.127978
10.108941
10.092685
10.07884
10.067085
10.057138
10.048751
10.041679
10.035588
10.029675
10.023585
10.017387
10.011058
10.004634
9.9982903
9.9928079
9.9887744
9.9858062
9.9837765
9.9825367
9.981974
9.9819931
9.9825163
9.9834555
9.9847669
9.9863967
9.9883189
9.9905199
9.9929871
9.9956857
9.998553
1045.7168
1072.358
365.95874
206.54432
132.7289
93.812131
70.801464
56.251347
46.450702
39.509584
34.385828
30.475938
27.410313
24.952312
22.944463
21.278515
19.877975
18.687495
17.666196
16.783311
16.015254
15.343594
14.753635
14.233423
13.773058
13.364253
12.999985
12.674342
12.382354
12.119875
11.883466
11.670288
11.477994
11.304631
11.14855
11.008331
10.882716
10.770558
10.670785
10.582376
10.504347
10.435746
10.37566
10.323215
10.277585
10.238003
10.203756
10.174197
10.148742
10.126867
10.108108
10.092058
10.078359
10.066697
10.056803
10.048432
10.041347
10.035217
10.029241
10.023098
10.016847
10.010468
10.004008
9.9976921
9.9924945
9.988605
9.9857521
9.9837987
9.9826097
9.9820794
9.9819609
9.9826449
9.9835319
9.9848404
9.9864649
9.9883891
9.9905745
9.9929899
9.9956239
9.9984937
31275.156
78930.473
36849.081
10641.431
1399.6278
610.40714
433.5158
350.01101
289.99124
235.92835
192.24962
159.04582
134.49495
116.27813
102.25438
90.790487
81.090851
72.813338
65.722154
59.605225
54.286081
49.629157
45.529416
41.901502
38.680163
35.800984
33.218636
30.893172
28.792765
26.892298
25.170329
23.607737
22.187835
20.895942
19.720535
18.651917
17.681351
16.801088
16.004055
15.283821
14.634779
14.051362
13.528503
13.061638
12.646278
12.278178
11.953501
11.668211
11.41863
11.201404
11.013261
10.851083
10.711896
10.593172
10.492395
10.407383
10.337984
10.283778
10.244792
10.223705
10.21664
10.214327
10.211824
10.208578
10.204982
10.201116
10.196103
10.189093
10.178877
10.168815
10.150703
10.137935
10.10423
10.092814
10.052292
10.061802
9.994596
10.007785
9.9803663
10.001526
19984.615
59195.291
24456.266
5046.5151
970.34577
528.07737
397.24329
320.90917
263.67218
212.45423
174.24637
145.46407
124.44922
108.68875
96.239415
85.798583
76.899621
69.294713
62.757433
57.090274
52.139307
47.788124
43.944489
40.532457
37.490215
34.764749
32.314682
30.102643
28.100551
26.285815
24.638644
23.141318
21.778468
20.53659
19.405374
18.375847
17.439853
16.590194
15.820236
15.123965
14.49614
13.931428
13.42507
12.972744
12.570133
12.213197
11.898269
11.621425
11.379159
11.168249
10.985523
10.82797
10.692719
10.57735
10.479431
10.396707
10.328776
10.275862
10.238088
10.21824
10.211779
10.209616
10.207133
10.203947
10.200431
10.19662
10.192183
10.185795
10.176241
10.166452
10.149125
10.136524
10.102929
10.091758
10.052188
10.061923
9.9946686
10.008306
9.9811898
10.002049
28282.299
35137.531
13407.498
2532.0824
834.62939
498.27941
387.25878
305.67565
250.31498
200.91218
166.50012
139.38687
119.89736
105.02095
93.146976
83.115811
74.592153
67.308794
61.03722
55.591535
50.828554
46.638806
42.934337
39.642496
36.702541
34.067288
31.696636
29.554161
27.613836
25.85399
24.255531
22.801422
21.476985
20.269306
19.168775
18.166727
17.255332
16.427708
15.677461
14.998822
14.386769
13.83609
13.342235
12.901022
12.508241
12.159986
11.852704
11.582535
11.346102
11.140269
10.961933
10.80816
10.676171
10.563636
10.468048
10.387348
10.320573
10.268656
10.231816
10.212924
10.206912
10.204883
10.202441
10.199328
10.195895
10.192163
10.188048
10.182324
10.173469
10.163973
10.147407
10.13496
10.101641
10.090562
10.051927
10.06189
9.9947381
10.008811
9.9819387
10.002578
35751.912
23892.779
8305.0079
1539.2702
753.37258
475.1052
374.91035
289.79676
239.162
190.27686
159.49569
133.49028
115.57644
101.49336
90.193553
80.566859
72.406299
65.42317
59.400524
54.163187
49.576871
45.538523
41.964447
38.78529
35.943589
33.391559
31.095349
29.018646
27.137013
25.429482
23.877632
22.465051
21.177683
20.003158
18.93252
17.957338
17.070097
16.264196
15.533451
14.872325
14.27599
13.739337
13.258023
12.827986
12.445114
12.105635
11.806097
11.542703
11.312205
11.111545
10.937691
10.787786
10.659207
10.549485
10.456303
10.377654
10.312252
10.261365
10.225491
10.207568
10.202015
10.200124
10.197727
10.194692
10.191347
10.187693
10.183664
10.1786
10.170474
10.161293
10.145444
10.133148
10.100167
10.089045
10.051505
10.061721
9.9948238
10.009315
9.9827005
10.003217
40221.733
20374.754
5850.2088
1225.3902
719.26756
457.56553
365.26255
277.41519
231.05103
182.15799
154.53699
128.90995
112.31846
98.69287
87.820931
78.492969
70.615103
63.862108
58.032537
52.958484
48.512184
44.595054
41.126321
38.039008
35.277603
32.796929
30.561161
28.539897
26.7082
25.045508
23.533915
22.157467
20.902601
19.757362
18.713334
17.762207
16.896736
16.110536
15.397581
14.752526
14.170692
13.647044
13.17742
12.757848
12.384297
12.053108
11.760918
11.503975
11.279153
11.083459
10.913924
10.767774
10.642467
10.535495
10.44466
10.368021
10.304086
10.254172
10.219228
10.202107
10.197101
10.195344
10.193
10.190051
10.186796
10.183223
10.179257
10.174649
10.167281
10.158442
10.143262
10.131103
10.098484
10.087253
10.050918
10.061416
9.9949245
10.009818
9.9834662
10.003981
43000.147
19016.141
4504.3811
1153.9364
698.95258
439.34196
357.82311
267.67132
224.85152
175.67798
150.64702
125.03489
109.62762
96.278877
85.77804
76.693868
69.053389
62.491249
56.824044
51.888304
47.561428
43.748247
40.370303
37.362542
34.671181
32.252401
30.070421
28.098174
26.31077
24.688113
23.212653
21.868812
20.643434
19.524912
18.505299
17.576336
16.731033
15.963172
15.266856
14.636904
14.068757
13.557435
13.098942
12.689372
12.324763
12.001561
11.71647
11.465781
11.246484
11.05564
10.890351
10.747952
10.62578
10.521514
10.433003
10.358355
10.296008
10.247032
10.213
10.196688
10.192188
10.190547
10.188264
10.185407
10.182244
10.178754
10.17486
10.17047
10.163881
10.155418
10.140902
10.128798
10.096632
10.085512
10.050186
10.060994
9.9950409
10.010318
9.9842562
10.004746
45205.362
17111.99
3619.3981
1103.5393
683.76621
426.78687
351.948
259.85274
220.04326
170.51929
147.55267
121.77678
107.39695
94.196797
84.017836
75.130577
67.6887
61.285139
55.754503
50.935859
46.710817
42.9868
39.687171
36.74841
34.118104
31.753689
29.620692
27.690595
25.942355
24.355444
22.912437
21.598032
20.399414
19.305262
18.308042
17.399485
16.572851
15.82204
15.141266
14.525487
13.970239
13.470579
13.022669
12.62264
12.266593
11.951068
11.672825
11.428189
11.214264
11.028167
10.867105
10.728251
10.609171
10.507575
10.421358
10.348682
10.288021
10.239954
10.206816
10.19136
10.187272
10.185738
10.183524
10.180763
10.177696
10.17429
10.170467
10.166112
10.160281
10.152231
10.138401
10.126232
10.094698
10.084047
10.049319
10.060443
9.9951719
10.010804
9.9850391
10.005288
46834.693
14480.118
3051.2588
1072.3158
672.19852