/*--------------------------------*- C++ -*----------------------------------*\
  =========                 |
  \\      /  F ield         | OpenFOAM: The Open Source CFD Toolbox
   \\    /   O peration     | Website:  https://openfoam.org
    \\  /    A nd           | Version:  12
     \\/     M anipulation  |
\*---------------------------------------------------------------------------*/
FoamFile
{
    format      ascii;
    class       volScalarField;
    location    "0.121";
    object      p;
}
// * * * * * * * * * * * * * * * * * * * * * * * * * * * * * * * * * * * * * //

dimensions      [1 -1 -2 0 0 0 0];

internalField   nonuniform List<scalar> 
16000
(
89779.932
89905.269
89917.115
90050.834
90076.769
90203.507
90253.605
90369.714
90443.061
90553.5
90645.011
90755.333
90860.825
90975.412
91091.866
91213.73
91339.623
91470.143
91605.169
91744.784
91888.998
92037.812
92191.208
92349.143
92511.546
92678.324
92849.349
93024.465
93203.481
93386.175
93572.29
93761.533
93953.578
94148.068
94344.612
94542.793
94742.165
94942.263
95142.602
95342.685
95542.008
95740.063
95936.348
96130.367
96321.643
96509.716
96694.153
96874.55
97050.536
97221.779
97387.983
97548.893
97704.293
97854.007
97997.899
98135.872
98267.864
98393.846
98513.822
98627.826
98735.918
98838.178
98934.708
99025.628
99111.073
99191.194
99266.15
99336.116
99401.277
99461.829
99517.974
99569.948
99618.028
99662.383
99703.06
99740.327
99783.413
99779.427
99895.924
99779.279
89410.101
89552.272
89561.522
89707.33
89734.939
89872.561
89925.078
90052.439
90129.597
90250.121
90347.979
90467.192
90580.934
90704.312
90829.945
90961.203
91096.894
91237.499
91382.939
91533.265
91688.474
91848.543
92013.423
92183.038
92357.28
92536.011
92719.058
92906.212
93097.231
93291.833
93489.701
93690.48
93893.783
94099.186
94306.237
94514.455
94723.338
94932.365
95141.003
95348.712
95554.955
95759.199
95960.925
96159.634
96354.85
96546.131
96733.068
96915.29
97092.469
97264.321
97430.603
97591.117
97745.708
97894.261
98036.701
98172.988
98303.117
98427.112
98545.025
98656.933
98762.933
98863.137
98957.676
99046.691
99130.334
99208.766
99282.156
99350.681
99414.526
99473.88
99528.944
99579.955
99627.157
99670.619
99710.599
99749.112
99782.783
99802.527
99881.728
99798.631
89071.721
89229.269
89238.388
89397.385
89424.983
89576.249
89630.361
89769.946
89851.888
89982.828
90088.373
90217.078
90340.303
90473.457
90609.439
90751.272
90897.969
91049.888
91206.963
91369.208
91536.587
91709.043
91886.488
92068.803
92255.832
92447.387
92643.239
92843.122
93046.728
93253.71
93463.68
93676.212
93890.845
94107.083
94324.402
94542.255
94760.077
94977.29
95193.315
95407.575
95619.502
95828.55
96034.194
96235.945
96433.348
96625.992
96813.511
96995.586
97171.948
97342.379
97506.706
97664.803
97816.591
97962.026
98101.105
98233.856
98360.337
98480.63
98594.839
98703.086
98805.51
98902.257
98993.482
99079.348
99160.025
99235.682
99306.496
99372.644
99434.31
99491.676
99544.939
99594.329
99640.029
99682.117
99721.225
99758.386
99788.9
99818.172
99875.358
99814.399
88767.73
88935.975
88946.166
89120.379
89147.449
89314.833
89371.13
89524.919
89612.609
89755.512
89870.233
90009.795
90144.13
90288.524
90436.38
90590.264
90749.398
90914.016
91084.057
91259.494
91440.262
91626.268
91817.38
92013.432
92214.218
92419.486
92628.944
92842.251
93059.023
93278.831
93501.203
93725.626
93951.553
94178.406
94405.58
94632.457
94858.406
95082.795
95305.003
95524.422
95740.469
95952.598
96160.298
96363.107
96560.613
96752.458
96938.34
97118.015
97291.293
97458.04
97618.171
97771.65
97918.48
98058.706
98192.403
98319.674
98440.644
98555.459
98664.275
98767.262
98864.598
98956.461
99043.033
99124.495
99201.03
99272.816
99340.031
99402.854
99461.46
99516.026
99566.739
99613.803
99657.359
99697.563
99735.109
99770.041
99799.234
99831.285
99874.371
99829.104
88501.458
88684.53
88691.546
88884.394
88910.408
89096.144
89154.633
89324.499
89419.248
89575.546
89701.246
89852.889
89999.882
90156.793
90317.791
90484.948
90657.693
90836.172
91020.324
91210.093
91405.379
91606.044
91811.904
92022.73
92238.241
92458.107
92681.947
92909.327
93139.762
93372.721
93607.63
93843.873
94080.804
94317.751
94554.028
94788.939
95021.794
95251.916
95478.652
95701.383
95919.533
96132.575
96340.039
96541.519
96736.67
96925.216
97106.945
97281.709
97449.422
97610.05
97763.615
97910.18
98049.847
98182.752
98309.054
98428.934
98542.587
98650.219
98752.038
98848.258
98939.093
99024.751
99105.434
99181.338
99252.654
99319.566
99382.251
99440.88
99495.622
99546.642
99594.114
99638.208
99679.044
99716.846
99752.164
99784.515
99812.478
99844.38
99877.402
99844.694
88277.973
88478.595
88483.434
88697.254
88722.152
88928.233
88988.993
89176.633
89279.677
89450.194
89588.176
89752.469
89913.081
90083.368
90258.471
90439.978
90627.494
90821.083
91020.659
91226.114
91437.285
91653.96
91875.872
92102.699
92334.058
92569.509
92808.554
93050.639
93295.155
93541.447
93788.819
94036.539
94283.854
94529.994
94774.19
95015.681
95253.729
95487.63
95716.725
95940.41
96158.143
96369.453
96573.945
96771.299
96961.273
97143.701
97318.488
97485.61
97645.101
97797.051
97941.595
98078.909
98209.198
98332.691
98449.634
98560.282
98664.897
98763.738
98857.063
98945.122
99028.158
99106.403
99180.072
99249.371
99314.494
99375.624
99432.933
99486.581
99536.725
99583.517
99627.11
99667.639
99705.221
99740.101
99772.605
99802.089
99828.422
99858.466
99883.8
99861.526
88098.061
88319.429
88321.497
88559.808
88583.697
88813.81
88877.778
89084.785
89196.181
89380.281
89531.453
89708.985
89884.521
90069.656
90260.516
90458.184
90662.351
90872.976
91089.903
91312.936
91541.82
91776.236
92015.801
92260.069
92508.523
92760.584
93015.609
93272.895
93531.689
93791.193
94050.574
94308.979
94565.545
94819.412
95069.742
95315.729
95556.613
95791.696
96020.348
96242.02
96456.247
96662.657
96860.968
97050.986
97232.608
97405.811
97570.646
97727.232
97875.743
98016.401
98149.468
98275.231
98393.999
98506.092
98611.836
98711.552
98805.56
98894.166
98977.664
99056.333
99130.436
99200.218
99265.901
99327.694
99385.787
99440.356
99491.56
99539.549
99584.461
99626.432
99665.585
99702.028
99735.882
99767.359
99796.556
99822.934
99847.208
99874.053
99893.242
99880.217
87956.024
88201.767
88199.567
88467.361
88488.161
88744.941
88812.045
89038.071
89160.967
89360.969
89528.912
89722.438
89915.86
90118.714
90328.084
90544.63
90768.076
90998.278
91234.989
91477.904
91726.643
91980.752
92239.703
92502.888
92769.626
93039.166
93310.689
93583.323
93856.148
94128.21
94398.538
94666.159
94930.113
95189.473
95443.36
95690.96
95931.535
96164.44
96389.126
96605.152
96812.183
97009.993
97198.462
97377.567
97547.378
97708.044
97859.784
98002.878
98137.649
98264.457
98383.686
98495.733
98601
98699.889
98792.791
98880.085
98962.131
99039.271
99111.822
99180.078
99244.313
99304.773
99361.679
99415.234
99465.617
99512.991
99557.5
99599.274
99638.435
99675.091
99709.337
99741.261
99770.983
99798.63
99824.12
99847.214
99869.07
99891.751
99905.684
99901.323
87849.7
88123.65
88117.06
88421.382
88436.415
88721.823
88794.05
89041.831
89181.349
89399.753
89588.122
89800.564
90014.939
90238.616
90469.504
90707.911
90953.532
91206.094
91465.222
91730.461
92001.269
92277.015
92556.979
92840.353
93126.254
93413.72
93701.734
93989.227
94275.102
94558.25
94837.57
95111.991
95380.489
95642.108
95895.983
96141.347
96377.549
96604.061
96820.484
97026.549
97222.113
97407.152
97581.756
97746.11
97900.489
98045.234
98180.748
98307.473
98425.882
98536.463
98639.713
98736.122
98826.173
98910.327
98989.025
99062.684
99131.689
99196.399
99257.138
99314.205
99367.869
99418.368
99465.912
99510.69
99552.863
99592.574
99629.948
99665.094
99698.109
99729.075
99758.057
99785.129
99810.395
99833.861
99855.347
99875.034
99894.027
99911.741
99921.4
99925.399
87781.297
88088.175
88078.431
88419.765
88433.779
88751.174
88834.678
89107.559
89266.936
89505.781
89718.248
89952.833
90191.446
90439.363
90695.079
90958.599
91229.51
91507.373
91791.634
92081.638
92376.627
92675.737
92978.005
93282.375
93587.714
93892.822
94196.453
94497.338
94794.207
95085.813
95370.959
95648.521
95917.47
96176.894
96426.015
96664.2
96890.969
97105.998
97309.118
97500.306
97679.671
97847.448
98003.972
98149.667
98285.025
98410.591
98526.941
98634.675
98734.396
98826.704
98912.182
98991.393
99064.871
99133.118
99196.601
99255.749
99310.957
99362.579
99410.934
99456.309
99498.955
99539.095
99576.916
99612.583
99646.238
99677.997
99707.96
99736.214
99762.828
99787.855
99811.333
99833.331
99853.909
99872.934
99890.247
99906.473
99922.154
99934.304
99940.602
99952.632
87757.57
88103.577
88089.902
88471.469
88489.258
88842.857
88941.415
89241.396
89426.323
89688.489
89929.289
90189.96
90456.553
90732.517
91016.706
91308.844
91608.344
91914.54
92226.631
92543.693
92864.677
93188.417
93513.644
93839.002
94163.071
94484.389
94801.482
95112.892
95417.208
95713.099
95999.336
96274.83
96538.643
96790.012
97028.361
97253.3
97464.629
97662.324
97846.528
98017.533
98175.756
98321.719
98456.028
98579.348
98692.386
98795.869
98890.53
98977.094
99056.267
99128.724
99195.107
99256.017
99312.012
99363.605
99411.262
99455.406
99496.416
99534.627
99570.337
99603.806
99635.259
99664.888
99692.854
99719.294
99744.318
99768.017
99790.464
99811.718
99831.821
99850.793
99868.656
99885.47
99901.222
99915.654
99928.76
99941.535
99953.511
99959.844
99963.658
99983.009
87787.469
88180.036
88162.437
88591.736
88614.515
89007.62
89125.54
89454.417
89670.592
89959.36
90232.834
90524.058
90822.816
91131.061
91447.762
91772.325
92103.892
92441.474
92783.922
93129.943
93478.108
93826.876
94174.615
94519.63
94860.199
95194.604
95521.174
95838.316
96144.56
96438.589
96719.273
96985.688
97237.138
97473.158
97693.512
97898.186
98087.367
98261.423
98420.878
98566.38
98698.677
98818.584
98926.964
99024.702
99112.684
99191.784
99262.846
99326.681
99384.05
99435.667
99482.192
99524.229
99562.327
99596.982
99628.635
99657.68
99684.461
99709.28
99732.397
99754.035
99774.383
99793.597
99811.805
99829.107
99845.585
99861.297
99876.289
99890.592
99904.216
99917.154
99929.42
99941.055
99951.944
99961.754
99970.753
99980.125
99988.057
99988.669
99991.035
100016.82
87872.106
88320.066
88299.137
88782.869
88813.965
89250.328
89395.183
89755.529
90010.054
90330.182
90641.449
90968.655
91304.594
91650.026
92003.791
92364.882
92732.024
93103.774
93478.515
93854.48
94229.781
94602.442
94970.434
95331.721
95684.302
96026.264
96355.827
96671.394
96971.591
97255.299
97521.677
97770.17
98000.512
98212.705
98407.006
98583.889
98744.018
98888.204
99017.375
99132.537
99234.745
99325.074
99404.595
99474.357
99535.37
99588.594
99634.931
99675.221
99710.235
99740.679
99767.19
99790.34
99810.641
99828.544
99844.444
99858.685
99871.563
99883.333
99894.205
99904.36
99913.943
99923.069
99931.825
99940.279
99948.475
99956.443
99964.2
99971.746
99979.062
99986.121
99992.936
99999.504
100005.6
100010.9
100016.02
100022.04
100025.6
100020.75
100022.89
100054.6
88016.455
88530.178
88506.52
89052.067
89097.821
89581.383
89762.433
90157.603
90458.24
90816.034
91171.136
91540.77
91919.793
92307.907
92703.549
93105.13
93510.796
93918.512
94326.081
94731.18
95131.404
95524.316
95907.505
96278.647
96635.574
96976.33
97299.238
97602.934
97886.403
98148.992
98390.407
98610.694
98810.208
98989.575
99149.646
99291.448
99416.142
99524.973
99619.236
99700.239
99769.275
99827.601
99876.419
99916.865
99949.996
99976.793
99998.151
100014.88
100027.72
100037.32
100044.26
100049.06
100052.15
100053.92
100054.72
100054.8
100054.43
100053.78
100053.02
100052.28
100051.66
100051.23
100051.03
100051.09
100051.43
100052.05
100052.94
100054.05
100055.36
100056.82
100058.44
100060.15
100061.63
100062.67
100064.24
100066.98
100065.97
100056.36
100059.55
100095.82
88227.151
88819.531
88795.003
89410.804
89478.409
90013.216
90241.664
90676.822
91032.531
91436.443
91842.831
92262.371
92690.966
93127.271
93569.066
94014.019
94459.555
94902.93
95341.271
95771.636
96191.089
96596.78
96986.037
97356.449
97705.948
98032.867
98335.984
98614.54
98868.229
99097.173
99301.88
99483.19
99642.209
99780.252
99898.781
99999.345
100083.54
100152.96
100209.16
100253.65
100287.86
100313.11
100330.65
100341.61
100347.01
100347.8
100344.79
100338.72
100330.26
100319.96
100308.32
100295.76
100282.66
100269.31
100255.97
100242.86
100230.14
100217.95
100206.39
100195.54
100185.46
100176.15
100167.65
100159.93
100152.97
100146.76
100141.25
100136.38
100132.09
100128.34
100125.11
100122.27
100119.41
100116.58
100114.98
100114.47
100108.92
100095.76
100101.09
100139.67
88510.518
89196.876
89174.321
89869.905
89970.583
90562.464
90852.918
91336.575
91757.843
92218.133
92684.08
93161.042
93645.129
94133.917
94624.326
95113.115
95596.819
96071.855
96534.601
96981.518
97409.272
97814.854
98195.696
98549.752
98875.553
99172.23
99439.495
99677.608
99887.306
100069.73
100226.34
100358.83
100469.06
100558.97
100630.53
100685.67
100726.29
100754.17
100771.01
100778.36
100777.66
100770.2
100757.17
100739.6
100718.45
100694.51
100668.52
100641.1
100612.78
100584.03
100555.23
100526.72
100498.77
100471.58
100445.36
100420.22
100396.27
100373.59
100352.23
100332.2
100313.52
100296.16
100280.11
100265.31
100251.73
100239.31
100227.97
100217.64
100208.25
100199.76
100192.12
100185.08
100178.27
100172.04
100167.66
100163.92
100154.06
100138.78
100147.09
100185.24
88873.949
89672.574
89657.475
90447.842
90598.562
91257.529
91627.068
92170.035
92667.44
93194.446
93727.61
94268.202
94811.833
95354.811
95892.885
96421.632
96936.518
97433.079
97907.089
98354.748
98772.831
99158.812
99510.934
99828.224
100110.47
100358.16
100572.38
100754.7
100907.06
101031.67
101130.91
101207.2
101262.99
101300.65
101322.44
101330.5
101326.81
101313.19
101291.29
101262.58
101228.4
101189.92
101148.16
101104.03
101058.31
101011.68
100964.7
100917.87
100871.59
100826.21
100782.01
100739.2
100697.97
100658.44
100620.73
100584.88
100550.95
100518.94
100488.86
100460.67
100434.35
100409.83
100387.07
100365.98
100346.49
100328.54
100312.01
100296.82
100282.89
100270.19
100258.6
100247.79
100237.52
100228.43
100221.61
100214.67
100200.84
100184.71
100196.57
100231.87
89336.915
90273.84
90277.579
91182.512
91400.847
92137.147
92603.036
93216.45
93799.474
94402.702
95009.449
95617.569
96221.336
96815.3
97393.652
97950.653
98480.858
98979.386
99442.147
99866.006
100248.87
100589.69
100888.44
101145.96
101363.86
101544.33
101689.98
101803.7
101888.55
101947.58
101983.81
102000.14
101999.29
101983.8
101955.98
101917.93
101871.53
101818.46
101760.18
101697.99
101633.03
101566.25
101498.5
101430.49
101362.82
101296
101230.44
101166.48
101104.42
101044.45
100986.76
100931.46
100878.65
100828.37
100780.65
100735.49
100692.86
100652.74
100615.07
100579.78
100546.81
100516.06
100487.44
100460.87
100436.24
100413.46
100392.41
100372.99
100355.13
100338.76
100323.73
100309.65
100296.45
100285.05
100276.12
100266.08
100248.75
100232.74
100248.32
100280.33
89931.882
91044.65
91077.557
92115.599
92420.151
93241.62
93822.498
94519.816
95197.908
95885.749
96569.569
97243.723
97900.323
98531.896
99131.273
99692.089
100209.09
100678.36
101097.43
101465.27
101782.15
102049.54
102269.79
102445.98
102581.66
102680.63
102746.82
102784.09
102796.19
102786.64
102758.7
102715.35
102659.29
102592.91
102518.35
102437.47
102351.89
102263.01
102172.06
102080.05
101987.86
101896.23
101805.78
101717.02
101630.35
101546.11
101464.58
101385.94
101310.36
101237.93
101168.73
101102.78
101040.09
100980.65
100924.41
100871.31
100821.28
100774.24
100730.11
100688.77
100650.12
100614.05
100580.44
100549.19
100520.18
100493.29
100468.38
100445.37
100424.18
100404.72
100386.74
100369.91
100354.37
100341.19
100330.39
100317.48
100297.49
100282.61
100301.73
100330.63
90688.195
92012.84
92089.373
93279.549
93704.019
94622.549
95339.83
96137.526
96918.066
97692.688
98447.103
99172.132
99857.974
100496.21
101080
101604.42
102066.61
102465.66
102802.48
103079.44
103300.05
103468.65
103590.06
103669.34
103711.54
103721.55
103704
103663.15
103602.9
103526.75
103437.78
103338.72
103231.94
103119.49
103003.14
102884.37
102764.47
102644.5
102525.36
102407.8
102292.42
102179.71
102070.08
101963.84
101861.22
101762.39
101667.5
101576.6
101489.74
101406.92
101328.12
101253.3
101182.39
101115.31
101051.96
100992.24
100936.03
100883.22
100833.68
100787.28
100743.88
100703.36
100665.59
100630.43
100597.75
100567.43
100539.32
100513.34
100489.39
100467.37
100446.96
100427.92
100410.63
100396.08
100383.58
100368.17
100346.72
100334.07
100356.16
100380.64
91635.118
93224.513
93380.963
94740.679
95330.427
96361.937
97232.541
98140.986
99018.396
99862.891
100658.67
101394.84
102062.24
102654.69
103168.92
103604.44
103963.16
104248.94
104467
104623.5
104725.03
104778.29
104789.83
104765.82
104711.97
104633.43
104534.81
104420.16
104293.01
104156.4
104012.93
103864.82
103713.94
103561.86
103409.89
103259.1
103110.4
102964.49
102821.97
102683.29
102548.81
102418.8
102293.47
102172.94
102057.3
101946.58
101840.8
101739.91
101643.86
101552.58
101465.96
101383.9
101306.28
101232.96
101163.8
101098.66
101037.39
100979.85
100925.87
100875.32
100828.03
100783.87
100742.67
100704.31
100668.64
100635.51
100604.8
100576.41
100550.25
100526.15
100503.8
100483.07
100464.54
100448.94
100434.88
100417.55
100396.01
100386.25
100409.55
100428.09
92855.405
94779.404
95060.33
96610.174
97412.431
98565.596
99584.731
100588.83
101526.58
102389.42
103163.7
103841.75
104419.96
104898.69
105281.59
105574.83
105786.2
105924.47
105998.72
106017.88
105990.41
105924.1
105825.95
105702.16
105558.12
105398.48
105227.2
105047.61
104862.54
104674.33
104484.91
104295.87
104108.53
103923.94
103742.94
103566.21
103394.27
103227.53
103066.28
102910.73
102761.03
102617.25
102479.42
102347.54
102221.55
102101.39
101986.95
101878.11
101774.74
101676.71
101583.85
101496
101413
101334.68
101260.85
101191.35
101126.01
101064.65
101007.1
100953.19
100902.76
100855.65
100811.7
100770.76
100732.67
100697.3
100664.52
100634.23
100606.32
100580.57
100556.72
100534.78
100515.4
100498.96
100483.53
100464.94
100444.26
100437.2
100459.27
100471.53
94480.48
96817.911
97277.899
99016.276
100066.15
101326.53
102442.39
103476.29
104390.74
105179.55
105838.49
106369.69
106779.69
107078.27
107277.18
107388.99
107426.26
107400.94
107323.99
107205.2
107053.14
106875.18
106677.55
106465.5
106243.41
106014.87
105782.84
105549.72
105317.45
105087.62
104861.44
104639.92
104423.8
104213.68
104009.99
103813.04
103623.05
103440.14
103264.38
103095.78
102934.3
102779.87
102632.37
102491.7
102357.68
102230.17
102108.99
101993.95
101884.87
101781.55
101683.79
101591.39
101504.14
101421.86
101344.34
101271.38
101202.8
101138.4
101078
101021.42
100968.49
100919.03
100872.88
100829.89
100789.9
100752.76
100718.36
100686.59
100657.31
100630.28
100605.3
100582.53
100562.55
100545.38
100528.8
100509.49
100490.08
100485
100504.54
100511.63
96700.196
99501.004
100202.17
102080.6
103340.96
104648.47
105745.34
106682.44
107446.83
108044.21
108485.54
108786.52
108964.92
109039.05
109026.45
108943.2
108803.52
108619.7
108402.12
108159.42
107898.73
107625.85
107345.48
107061.38
106776.55
106493.37
106213.7
105938.99
105670.37
105408.67
105154.52
104908.37
104670.53
104441.19
104220.44
104008.31
103804.77
103609.74
103423.09
103244.69
103074.35
102911.88
102757.08
102609.74
102469.63
102336.53
102210.2
102090.41
101976.93
101869.52
101767.96
101672.02
101581.47
101496.09
101415.67
101339.99
101268.85
101202.05
101139.4
101080.7
101025.78
100974.46
100926.58
100881.97
100840.48
100801.95
100766.29
100733.37
100703.01
100675.01
100649.23
100625.9
100605.5
100587.65
100570.12
100550.55
100532.59
100529.05
100546.03
100548.23
99766.806
102943.24
103950.78
105895.27
107197.32
108359.29
109271.68
109959.14
110439.28
110738.59
110884.84
110905.37
110825.12
110665.94
110446.31
110181.57
109884.14
109564.03
109229.15
108885.73
108538.63
108191.63
107847.61
107508.79
107176.83
106852.96
106538.09
106232.83
105937.62
105652.71
105378.24
105114.24
104860.66
104617.4
104384.3
104161.17
103947.8
103743.95
103549.37
103363.79
103186.95
103018.56
102858.36
102706.07
102561.41
102424.11
102293.9
102170.5
102053.67
101943.13
101838.65
101739.96
101646.84
101559.04
101476.34
101398.52
101325.36
101256.66
101192.22
101131.84
101075.34
101022.55
100973.28
100927.38
100884.69
100845.08
100808.42
100774.57
100743.38
100714.63
100688.29
100664.58
100643.79
100625.31
100607.18
100588.02
100571.74
100568.49
100581.09
100580.54
103938.51
107328.51
108538.6
110222.39
111343.24
112170.6
112703.29
112995.74
113092.31
113035.85
112862.6
112602.64
112280.05
111913.78
111518.47
111105.34
110682.87
110257.45
109833.83
109415.53
109005.11
108604.41
108214.73
107836.95
107471.63
107119.1
106779.5
106452.84
106139.02
105837.88
105549.18
105272.67
105008.03
104754.97
104513.13
104282.19
104061.8
103851.62
103651.3
103460.5
103278.89
103106.14
102941.92
102785.91
102637.81
102497.31
102364.1
102237.91
102118.46
102005.46
101898.65
101797.77
101702.58
101612.83
101528.27
101448.7
101373.88
101303.61
101237.69
101175.92
101118.1
101064.07
101013.65
100966.68
100923
100882.47
100844.97
100810.35
100778.45
100749.11
100722.32
100698.28
100677.05
100657.96
100639.53
100621.21
100606.58
100602.78
100609.88
100605.79
109145.56
112499.42
113613.96
114737.31
115347.49
115631.83
115654.42
115488.29
115187.21
114793.37
114338.09
113844.49
113329.31
112804.61
112278.97
111758.45
111247.25
110748.27
110263.43
109793.95
109340.55
108903.6
108483.19
108079.24
107691.51
107319.7
106963.43
106622.28
106295.81
105983.56
105685.06
105399.85
105127.46
104867.45
104619.36
104382.75
104157.21
103942.32
103737.68
103542.89
103357.59
103181.41
103013.99
102854.99
102704.07
102560.92
102425.21
102296.66
102174.96
102059.83
101951
101848.2
101751.18
101659.68
101573.47
101492.32
101416
101344.31
101277.04
101213.99
101154.98
101099.82
101048.34
101000.38
100955.78
100914.41
100876.13
100840.8
100808.26
100778.39
100751.2
100726.77
100705.04
100685.44
100667.05
100649.78
100636.08
100630.16
100631.62
100626.78
115338.69
117841.79
118451
118732.64
118640.8
118315.7
117836.3
117262.85
116635.72
115982.25
115320.6
114662.73
114016.35
113386.4
112775.85
112186.43
111619
111073.83
110550.8
110049.56
109569.58
109110.23
108670.84
108250.68
107849.05
107465.23
107098.52
106748.23
106413.71
106094.33
105789.47
105498.54
105221
104956.3
104703.92
104463.39
104234.21
104015.95
103808.16
103610.44
103422.37
103243.58
103073.69
102912.35
102759.2
102613.93
102476.2
102345.71
102222.16
102105.26
101994.73
101890.31
101791.73
101698.74
101611.1
101528.59
101450.98
101378.05
101309.6
101245.44
101185.37
101129.21
101076.8
101027.96
100982.55
100940.43
100901.45
100865.47
100832.36
100802.01
100774.39
100749.51
100727.23
100707.18
100688.86
100672.45
100659.41
100651.75
100648.56
100642.17
121937.1
122377.74
122162.7
121618.59
120893.25
120076.12
119222.97
118365.37
117521.75
116702.26
115912.31
115154.41
114429.37
113737.01
113076.53
112446.84
111846.68
111274.69
110729.55
110209.93
109714.58
109242.29
108791.92
108362.39
107952.7
107561.9
107189.11
106833.48
106494.24
106170.65
105862.02
105567.69
105287.05
105019.51
104764.53
104521.57
104290.14
104069.76
103859.98
103660.37
103470.52
103290.02
103118.5
102955.59
102800.94
102654.22
102515.09
102383.25
102258.4
102140.24
102028.5
101922.9
101823.18
101729.09
101640.39
101556.85
101478.25
101404.37
101335.01
101269.97
101209.06
101152.11
101098.93
101049.37
101003.27
100960.5
100920.9
100884.34
100850.71
100819.9
100791.87
100766.52
100743.72
100723.28
100705.07
100689.21
100676.18
100666.38
100659.32
100653.04
125792.33
125171.51
124262.8
123218.21
122141.63
121076.82
120046.32
119059.38
118119.43
117226.72
116379.96
115577.12
114815.86
114093.76
113408.46
112757.69
112139.32
111551.4
110992.1
110459.74
109952.79
109469.82
109009.54
108570.73
108152.3
107753.2
107372.5
107009.31
106662.81
106332.22
106016.83
105715.98
105429.01
105155.35
104894.43
104645.7
104408.68
104182.87
103967.83
103763.11
103568.29
103382.99
103206.82
103039.41
102880.4
102729.47
102586.28
102450.52
102321.89
102200.09
102084.85
101975.88
101872.94
101775.77
101684.11
101597.75
101516.45
101440.01
101368.21
101300.85
101237.75
101178.72
101123.59
101072.19
101024.37
100979.99
100938.88
100900.94
100866.03
100834.08
100804.99
100778.64
100754.91
100733.75
100715.22
100699.34
100685.86
100674.32
100664.89
100659.13
103962.09
103935.45
103983.71
104031.97
104067.59
104077.3
104059.86
104030.37
103994.98
103950.28
103891.9
103820.39
103739.65
103654.49
103565.67
103473.25
103377.56
103279.08
103178.24
103075.42
102970.99
102865.29
102758.63
102651.33
102543.64
102435.82
102328.11
102220.71
102113.84
102007.68
101902.41
101798.21
101695.23
101593.64
101493.57
101395.19
101298.62
101204.02
101111.52
101021.26
100933.37
100847.99
100765.25
100685.29
100608.23
100534.2
100463.31
100395.7
100331.48
100270.74
100213.59
100160.1
100110.36
100064.41
100022.3
99984.039
99949.632
99919.053
99892.258
99869.173
99849.701
99833.717
99821.08
99811.593
99805.13
99801.296
99800.306
99800.866
99805.045
99807.708
99818.392
99818.139
99840.144
99826.828
99871.579
99828.307
99913.143
99825.891
99952.792
99825.186
103325.26
103319.08
103332.82
103348.81
103347.38
103339.8
103328.71
103310.97
103281.56
103246.45
103204.45
103157.36
103104.43
103046.78
102984.45
102918.13
102848.03
102774.51
102697.88
102618.43
102536.49
102452.34
102366.25
102278.52
102189.39
102099.15
102008.04
101916.31
101824.19
101731.94
101639.75
101547.87
101456.5
101365.85
101276.11
101187.48
101100.17
101014.34
100930.18
100847.88
100767.61
100689.52
100613.8
100540.6
100470.08
100402.39
100337.67
100276.06
100217.69
100162.68
100111.12
100063.12
100018.75
99978.07
99941.114
99907.901
99878.424
99852.655
99830.54
99811.997
99796.921
99785.177
99776.613
99771.029
99768.274
99767.984
99770.287
99774.059
99781.033
99786.718
99799.467
99802.235
99825.175
99815.34
99860.397
99820.739
99904.847
99819.281
99951.023
99815.939
102908.91
102893.25
102864.54
102834.39
102804.97
102777.52
102745.48
102714.13
102679.15
102643.68
102604.23
102563.44
102519.09
102472.67
102423.2
102371.23
102316.56
102259.37
102199.69
102137.62
102073.31
102006.86
101938.43
101868.18
101796.28
101722.9
101648.22
101572.45
101495.78
101418.42
101340.57
101262.44
101184.25
101106.21
101028.53
100951.43
100875.13
100799.82
100725.73
100653.05
100581.98
100512.74
100445.5
100380.46
100317.79
100257.68
100200.29
100145.78
100094.29
100045.96
100000.9
99959.21
99920.98
99886.271
99855.124
99827.557
99803.561
99783.101
99766.119
99752.529
99742.216
99735.039
99730.837
99729.408
99730.584
99734.023
99739.791
99746.888
99756.804
99765.509
99780.551
99786.212
99810.425
99803.744
99849.259
99812.904
99896.72
99812.788
99948.586
99807.606
102315.28
102292.66
102264.16
102232.72
102201.51
102173.79
102141.69
102112.51
102079.19
102047.86
102013.02
101978.95
101942.09
101904.87
101865.53
101824.9
101782.47
101738.4
101692.56
101644.95
101595.57
101544.43
101491.56
101437.01
101380.86
101323.19
101264.11
101203.74
101142.23
101079.73
101016.39
100952.4
100887.95
100823.22
100758.42
100693.76
100629.45
100565.69
100502.73
100440.75
100380
100320.67
100262.98
100207.14
100153.35
100101.8
100052.68
100006.17
99962.414
99921.57
99883.764
99849.108
99817.692
99789.585
99764.831
99743.448
99725.425
99710.727
99699.29
99691.023
99685.806
99683.492
99683.915
99686.869
99692.176
99699.509
99708.889
99719.419
99732.386
99744.135
99761.613
99770.106
99795.828
99792.075
99838.253
99804.925
99888.845
99806.43
99945.705
99800.056
101591.44
101575.63
101560.25
101542.01
101521.83
101505.91
101484.11
101466.68
101443.83
101424.27
101400.25
101378.05
101352.62
101327.68
101300.64
101272.78
101243.31
101212.53
101180.24
101146.43
101111.07
101074.14
101035.64
100995.6
100954.02
100910.97
100866.5
100820.68
100773.62
100725.42
100676.21
100626.12
100575.3
100523.93
100472.18
100420.24
100368.31
100316.59
100265.29
100214.64
100164.84
100116.12
100068.7
100022.8
99978.623
99936.379
99896.264
99858.462
99823.144
99790.466
99760.566
99733.561
99709.548
99688.597
99670.754
99656.037
99644.436
99635.91
99630.392
99627.787
99627.969
99630.789
99636.073
99643.616
99653.231
99664.609
99677.729
99691.786
99707.891
99722.732
99742.691
99753.998
99781.417
99780.483
99827.422
99796.923
99881.148
99800.234
99942.463
99793.16
100879.59
100873.54
100869.38
100864.28
100855.15
100851.2
100839.94
100834.56
100822.32
100814.66
100801.34
100790.83
100776.39
100763.1
100747.5
100731.4
100713.7
100694.87
100674.71
100653.21
100630.37
100606.14
100580.52
100553.51
100525.1
100495.33
100464.21
100431.79
100398.13
100363.31
100327.41
100290.54
100252.81
100214.38
100175.38
100135.99
100096.37
100056.72
100017.23
99978.111
99939.571
99901.825
99865.089
99829.581
99795.512
99763.089
99732.513
99703.97
99677.635
99653.665
99632.203
99613.366
99597.253
99583.934
99573.453
99565.826
99561.039
99559.048
99559.781
99563.138
99568.989
99577.18
99587.534
99599.848
99613.925
99629.473
99646.442
99664.106
99683.419
99701.396
99723.837
99737.979
99767.265
99769.041
99816.816
99789.01
99873.617
99794.224
99938.857
99786.779
100236.02
100236.23
100237.3
100240.49
100238.43
100243.04
100238.95
100242.48
100237.72
100239.13
100234.16
100233.49
100228.11
100224.05
100217.41
100210.82
100202.81
100194.02
100184.15
100173.21
100161.16
100147.96
100133.58
100118
100101.22
100083.22
100064.02
100043.63
100022.1
99999.475
99975.811
99951.19
99925.707
99899.472
99872.608
99845.256
99817.568
99789.712
99761.863
99734.209
99706.944
99680.27
99654.391
99629.512
99605.837
99583.567
99562.894
99544
99527.054
99512.211
99499.607
99489.358
99481.556
99476.267
99473.528
99473.351
99475.716
99480.574
99487.845
99497.423
99509.175
99522.943
99538.546
99555.781
99574.449
99594.273
99615.175
99636.509
99659.082
99680.222
99705.156
99722.174
99753.406
99757.791
99806.417
99781.259
99866.262
99788.431
99935.086
99780.865
99658.159
99663.294
99667.363
99675.578
99677.073
99687.291
99687.266
99696.792