/*--------------------------------*- C++ -*----------------------------------*\
  =========                 |
  \\      /  F ield         | OpenFOAM: The Open Source CFD Toolbox
   \\    /   O peration     | Website:  https://openfoam.org
    \\  /    A nd           | Version:  12
     \\/     M anipulation  |
\*---------------------------------------------------------------------------*/
FoamFile
{
    format      ascii;
    class       surfaceScalarField;
    location    "0.121";
    object      phi;
}
// * * * * * * * * * * * * * * * * * * * * * * * * * * * * * * * * * * * * * //

dimensions      [1 0 -1 0 0 0 0];

internalField   nonuniform List<scalar> 
31760
(
-0.00063905339
-0.050777409
0.051415985
-0.0016019714
-0.064172451
0.065134772
-0.0025806947
-0.062827388
0.063800667
-0.0035996573
-0.068470387
0.069488914
-0.0046735038
-0.070144653
0.071217992
-0.0057751768
-0.074397601
0.075498665
-0.0069470934
-0.077321478
0.07849275
-0.0081574393
-0.081318184
0.082527789
-0.0094282332
-0.08493406
0.086204056
-0.010757487
-0.089042518
0.090370893
-0.012142301
-0.093167969
0.094551834
-0.013594305
-0.09756999
0.099020972
-0.015108211
-0.10213601
0.10364883
-0.016692264
-0.10692788
0.10851077
-0.018346066
-0.11193444
0.113587
-0.02007437
-0.11717227
0.11889926
-0.021879851
-0.12264942
0.12445351
-0.023765715
-0.12837729
0.13026168
-0.02573521
-0.13436684
0.13633478
-0.027791738
-0.14062932
0.14268421
-0.029938735
-0.1471771
0.14932236
-0.032179962
-0.1540221
0.1562615
-0.034519013
-0.16117788
0.16351501
-0.03695979
-0.16865812
0.17109687
-0.039505262
-0.17647728
0.17902062
-0.042160001
-0.18464947
0.18730196
-0.044927891
-0.19319087
0.1959564
-0.047812346
-0.20211805
0.20500002
-0.050816849
-0.2114479
0.21444979
-0.05394543
-0.22119845
0.22432428
-0.057201381
-0.23138858
0.23464164
-0.060588014
-0.24203809
0.24542168
-0.064108122
-0.25316843
0.25668533
-0.06776473
-0.26480068
0.26845391
-0.071559805
-0.27695888
0.28075041
-0.075494984
-0.2896673
0.29359874
-0.079571567
-0.30295163
0.30702427
-0.083789997
-0.31683956
0.32105383
-0.088150055
-0.33135906
0.33571473
-0.092650387
-0.34654157
0.35103728
-0.097288954
-0.36241886
0.36705257
-0.10206229
-0.37902471
0.38379293
-0.10696576
-0.39639517
0.40129326
-0.11199351
-0.41456815
0.41959024
-0.1171378
-0.43358402
0.43872235
-0.12238947
-0.45348445
0.45872985
-0.12773696
-0.4743144
0.47965529
-0.13316736
-0.49612026
0.50154372
-0.13866521
-0.51895214
0.52444268
-0.14421223
-0.54286183
0.54840118
-0.14978746
-0.56790374
0.57347089
-0.15536747
-0.59413583
0.59970735
-0.16092499
-0.62161836
0.62716693
-0.16642918
-0.65041477
0.65590953
-0.17184569
-0.68059144
0.685998
-0.17713476
-0.71221876
0.71749732
-0.18225253
-0.74536967
0.75047629
-0.18714978
-0.78012081
0.78500624
-0.19177041
-0.8165529
0.82116094
-0.19605248
-0.85474998
0.85901861
-0.19992617
-0.89479987
0.89865914
-0.20331379
-0.93679408
0.94016619
-0.20612812
-0.98082851
0.98362606
-0.20827192
-1.0270028
1.0291283
-0.20963658
-1.075419
1.0767638
-0.21010162
-1.1261843
1.1266277
-0.20953148
-1.179409
1.1788152
-0.20778134
-1.2352068
1.2334308
-0.20468466
-1.293702
1.2905771
-0.20005404
-1.3550224
1.350361
-0.19368615
-1.4193001
1.4128988
-0.18536035
-1.4866713
1.4783092
-0.17482337
-1.5572833
1.546707
-0.1618093
-1.6312852
1.618229
-0.14598155
-1.7088494
1.6929771
-0.12718621
-1.7900875
1.7712469
-0.10441613
-1.8751026
1.8522903
-0.078856211
-1.9647038
1.9391
-0.047347042
-2.0564585
2.0249226
-2.1566626
2.1218854
-0.00063297498
-0.050145014
-0.0014999348
-0.063305962
-0.0023985991
-0.061928377
-0.0033557832
-0.067513854
-0.004324171
-0.069177002
-0.0053698602
-0.073352671
-0.0064309205
-0.076261234
-0.0075719995
-0.080177958
-0.0087390698
-0.083767902
-0.0099805553
-0.087801992
-0.011265134
-0.091884406
-0.012617211
-0.096218984
-0.014026827
-0.10072753
-0.015503044
-0.10545286
-0.017046059
-0.11039268
-0.018660025
-0.11555963
-0.020347137
-0.12096371
-0.022111169
-0.12661472
-0.023955345
-0.13252421
-0.025883253
-0.13870305
-0.027898556
-0.14516351
-0.030004515
-0.15191795
-0.032205238
-0.15897906
-0.034504419
-0.16636094
-0.036906857
-0.17407696
-0.03941537
-0.18214318
-0.042034654
-0.19057393
-0.044768447
-0.19938672
-0.047621034
-0.2085979
-0.050595988
-0.21822622
-0.053697389
-0.22829005
-0.056928571
-0.23880994
-0.060292837
-0.24980735
-0.063793174
-0.2613037
-0.067432005
-0.27332359
-0.071211651
-0.28589139
-0.07513328
-0.29903394
-0.079198393
-0.3127786
-0.083406334
-0.32715549
-0.087756697
-0.34219582
-0.092247881
-0.35793254
-0.096876789
-0.37440093
-0.10163907
-0.3916383
-0.10652966
-0.40968326
-0.1115415
-0.42857818
-0.11666607
-0.44836622
-0.12189317
-0.46909397
-0.12721022
-0.49081024
-0.13260299
-0.51356678
-0.13805498
-0.53741766
-0.1435469
-0.56242006
-0.1490568
-0.58863464
-0.15455955
-0.6161248
-0.16002695
-0.64495708
-0.16542706
-0.67520162
-0.1707237
-0.70693301
-0.17587659
-0.74022835
-0.18084039
-0.77516933
-0.18556401
-0.81184242
-0.18999084
-0.85033719
-0.1940571
-0.89074868
-0.19769163
-0.9331758
-0.20081445
-0.97772328
-0.20333744
-1.0244989
-0.20516109
-1.0736162
-0.20617634
-1.1251919
-0.20625802
-1.1793523
-0.20527147
-1.2362206
-0.20306625
-1.295937
-0.19947334
-1.3586476
-0.19430761
-1.424501
-0.18736156
-1.4936555
-0.17840879
-1.5662774
-0.16719475
-1.6425435
-0.15345542
-1.7226354
-0.13689124
-1.8066988
-0.11703449
-1.8950051
-0.09404295
-1.9877408
-0.066282203
-2.0842513
-2.1878113
-0.00057229161
-0.049573435
-0.0013814388
-0.062497498
-0.0021896364
-0.061120354
-0.0030911477
-0.066613126
-0.0039821743
-0.068286775
-0.004959422
-0.072376266
-0.0059382632
-0.075283254
-0.0070004717
-0.079116649
-0.0080819249
-0.082687386
-0.0092361387
-0.086648759
-0.010430189
-0.090691381
-0.011688158
-0.09496209
-0.013001067
-0.099415747
-0.014377187
-0.10407792
-0.015817198
-0.10895391
-0.017324696
-0.11405344
-0.018903028
-0.11938675
-0.020555148
-0.12496405
-0.022285327
-0.13079556
-0.024096392
-0.13689359
-0.025992828
-0.14326876
-0.027978162
-0.1499344
-0.030056274
-0.15690282
-0.032231948
-0.16418724
-0.034508455
-0.17180252
-0.036891003
-0.17976282
-0.039383041
-0.18808419
-0.041989633
-0.19678255
-0.04471433
-0.20587576
-0.047562273
-0.21538097
-0.050536565
-0.2253186
-0.053641524
-0.23570797
-0.056880946
-0.24657108
-0.060257505
-0.25793047
-0.063774777
-0.26980983
-0.067434918
-0.28223495
-0.071240153
-0.29523262
-0.075190989
-0.30883189
-0.079288431
-0.32306241
-0.083531961
-0.33795689
-0.087919793
-0.35354956
-0.092449817
-0.36987602
-0.097118675
-0.38697485
-0.10192093
-0.40488671
-0.10685064
-0.4236545
-0.11189987
-0.44332335
-0.11705946
-0.46394109
-0.12231761
-0.4855592
-0.12766185
-0.50823004
-0.13307667
-0.53201076
-0.13854405
-0.55696106
-0.14404473
-0.58314282
-0.14955559
-0.61062333
-0.15505091
-0.63947173
-0.1605017
-0.6697614
-0.16587528
-0.70157069
-0.17113529
-0.73498032
-0.17623984
-0.77007756
-0.18114376
-0.80695217
-0.18579487
-0.84570074
-0.19013601
-0.8864233
-0.19410238
-0.92922643
-0.19762251
-0.97422157
-0.20061559
-1.0215259
-0.20299173
-1.071262
-0.20464998
-1.1235576
-0.20548254
-1.1785459
-0.20536395
-1.2363679
-0.20415505
-1.2971771
-0.20170762
-1.3611291
-0.1978476
-1.428398
-0.19239234
-1.499151
-0.18513009
-1.5735831
-0.17583604
-1.6518841
-0.16426388
-1.7342564
-0.15011726
-1.8208947
-0.13310259
-1.9120682
-0.11301454
-2.0078748
-0.088945236
-2.1083542
-2.2152114
-0.00051652767
-0.049057545
-0.0012654439
-0.061749218
-0.0019990383
-0.060387765
-0.0028485212
-0.065764331
-0.0036739446
-0.067462075
-0.0045849756
-0.071466003
-0.0054873953
-0.074381637
-0.0064766538
-0.078128233
-0.0074783834
-0.081686545
-0.0085522084
-0.08557587
-0.0096627541
-0.08958182
-0.010834331
-0.09379155
-0.012058963
-0.098192207
-0.013343931
-0.1027941
-0.014690919
-0.10760814
-0.016103703
-0.11264193
-0.017585588
-0.11790621
-0.019139963
-0.12341109
-0.02077031
-0.1291667
-0.022480986
-0.13518448
-0.024275173
-0.14147623
-0.02615794
-0.14805336
-0.028133205
-0.15492939
-0.030204964
-0.16211741
-0.032378378
-0.16963114
-0.034657403
-0.17748593
-0.037047081
-0.18569676
-0.039551753
-0.19428026
-0.042176867
-0.20325315
-0.044925777
-0.2126347
-0.047803605
-0.22244356
-0.0508147
-0.23269982
-0.053962741
-0.24342615
-0.057251592
-0.2546449
-0.060684637
-0.26638025
-0.064264313
-0.27865894
-0.067992808
-0.29150799
-0.071872017
-0.30495677
-0.075902269
-0.31903647
-0.080083597
-0.33378012
-0.084415389
-0.34922259
-0.088894973
-0.36540153
-0.09351956
-0.38235564
-0.098284814
-0.40012714
-0.10318485
-0.41876048
-0.10821324
-0.43830133
-0.11336036
-0.4588007
-0.1186174
-0.48030929
-0.12397169
-0.50288331
-0.12940972
-0.52658073
-0.13491601
-0.55146326
-0.14047211
-0.57759574
-0.14605796
-0.60504706
-0.15165088
-0.633889
-0.15722399
-0.66419914
-0.16274914
-0.69605712
-0.16819307
-0.72954877
-0.17351915
-0.76476471
-0.17868648
-0.80179903
-0.1836489
-0.84075357
-0.18835499
-0.88173364
-0.1927471
-0.92485207
-0.19676116
-0.97022676
-0.20032489
-1.0179831
-0.20335785
-1.0682519
-0.20577226
-1.1211682
-0.20746312
-1.1768825
-0.20832511
-1.2355359
-0.20823036
-1.2973047
-0.20704663
-1.3623486
-0.20462043
-1.4308631
-0.2007749
-1.5030388
-0.19533243
-1.5790713
-0.18808198
-1.6591835
-0.17880307
-1.7435865
-0.16723273
-1.8325168
-0.15311819
-1.9262337
-0.13617609
-2.0248646
-0.11582033
-2.1287472
-2.2387162
-0.00046111841
-0.048597042
-0.0011627603
-0.061048174
-0.0018201291
-0.059730985
-0.0026136641
-0.064971461
-0.0033653615
-0.06671109
-0.0042186016
-0.070613517
-0.0050543193
-0.073546704
-0.0059782897
-0.077205086
-0.0069088098
-0.080756892
-0.0079098474
-0.084575745
-0.0089463862
-0.088546241
-0.01004145
-0.092697497
-0.011189207
-0.097045512
-0.01239585
-0.10158858
-0.013663777
-0.10634139
-0.014996106
-0.11131084
-0.016396605
-0.11650701
-0.017869064
-0.12194001
-0.019417186
-0.12762002
-0.021045016
-0.13355817
-0.022757276
-0.13976557
-0.024557326
-0.14625501
-0.026450688
-0.15303781
-0.028441955
-0.16012802
-0.030535656
-0.16753942
-0.032737076
-0.1752866
-0.035051426
-0.18338462
-0.03748365
-0.19185036
-0.040038677
-0.20070058
-0.042721714
-0.20995425
-0.045537638
-0.21963037
-0.048490924
-0.22974942
-0.051585932
-0.24033419
-0.054827018
-0.25140703
-0.058217347
-0.26299333
-0.061760008
-0.27511988
-0.065457509
-0.28781429
-0.069311762
-0.30110654
-0.073323533
-0.31502895
-0.077493228
-0.32961493
-0.081819823
-0.34490075
-0.086302172
-0.36092422
-0.090937023
-0.37772612
-0.095720738
-0.39534908
-0.1006489
-0.4138383
-0.1057146
-0.43324198
-0.11091068
-0.45361135
-0.1162281
-0.47499901
-0.12165624
-0.49746276
-0.12718364
-0.52106139
-0.13279594
-0.54585954
-0.13847781
-0.571923
-0.14421132
-0.59932329
-0.14997624
-0.62813446
-0.15575033
-0.65843615
-0.16150791
-0.69031142
-0.16721988
-0.72384953
-0.172855
-0.75914325
-0.17837678
-0.79629195
-0.18374539
-0.83540079
-0.18891522
-0.87658089
-0.19383592
-0.91994987
-0.1984506
-0.96563216
-0.2026961
-1.0137595
-0.20650148
-1.0644704
-0.2097862
-1.1179097
-0.21246525
-1.1742322
-0.21443343
-1.2335992
-0.21559078
-1.2961818
-0.21580443
-1.3621725
-0.21494618
-1.4317623
-0.21286167
-1.5051677
-0.20938375
-1.5825972
-0.20433011
-1.6642886
-0.19749715
-1.7504732
-0.18865387
-1.8414144
-0.17757927
-1.9373618
-0.16398491
-2.0385086
-0.14745118
-2.1453219
-2.258144
-0.00041131353
-0.048186323
-0.0010720282
-0.060388045
-0.0016667004
-0.059136939
-0.002402333
-0.064236478
-0.0030783785
-0.066035736
-0.0038802969
-0.069812329
-0.0046496577
-0.072778101
-0.0055143706
-0.076341171
-0.0063818945
-0.079890205
-0.0073212185
-0.083637304
-0.0082974744
-0.087570913
-0.0093302448
-0.091665704
-0.010415966
-0.095960817
-0.011559311
-0.10044632
-0.012763119
-0.10513872
-0.014031256
-0.11004391
-0.015367229
-0.1151723
-0.016774918
-0.12053365
-0.018258824
-0.12613752
-0.019822942
-0.13199553
-0.021472366
-0.1381177
-0.02321191
-0.1445171
-0.025046714
-0.15120474
-0.026981879
-0.15819468
-0.029023015
-0.16550021
-0.031175926
-0.17313572
-0.033445338
-0.18111735
-0.035837544
-0.18946042
-0.03835783
-0.19818269
-0.04101156
-0.20730305
-0.043804305
-0.2168403
-0.046740625
-0.22681592
-0.049825893
-0.23725191
-0.053063394
-0.24817269
-0.056457617
-0.25960244
-0.060011888
-0.27156914
-0.063728403
-0.28410151
-0.067609153
-0.29722974
-0.071655697
-0.31098659
-0.075868128
-0.32540693
-0.080246373
-0.3405272
-0.084788478
-0.35638709
-0.089492771
-0.37302711
-0.094356077
-0.39049137
-0.099373414
-0.40882691
-0.10453979
-0.42808191
-0.10984957
-0.44830829
-0.115294
-0.46956172
-0.12086527
-0.49189908
-0.12655211
-0.51538264
-0.13234404
-0.54007625
-0.1382272
-0.56604905
-0.14418672
-0.59337364
-0.15020562
-0.62212612
-0.15626472
-0.65238839
-0.16234237
-0.68424593
-0.168415
-0.71778998
-0.17445469
-0.75311765
-0.18043112
-0.79033069
-0.18630946
-0.82953884
-0.19205173
-0.87085636
-0.19761416
-0.91440667
-0.20294815
-0.96031908
-0.20799873
-1.0087317
-0.21270427
-1.0597898
-0.21699559
-1.1136457
-0.22079555
-1.1704622
-0.22402046
-1.2304072
-0.22656904
-1.2936692
-0.22834099
-1.3604399
-0.22921207
-1.4309341
-0.22905056
-1.5053758
-0.22770909
-1.5839892
-0.22502403
-1.6670276
-0.22081529
-1.7547382
-0.21488475
-1.8474019
-0.20702194
-1.9452808
-0.19697531
-2.0486069
-0.18442629
-2.1579164
-2.2732721
-0.00036886458
-0.047818026
-0.00099870717
-0.059758762
-0.0015385609
-0.058597691
-0.0022269014
-0.063548761
-0.0028434867
-0.065419812
-0.00359798
-0.069058538
-0.0043112148
-0.072065593
-0.0051147324
-0.075538421
-0.0059403884
-0.079065354
-0.0068335382
-0.082745001
-0.0077638093
-0.086641532
-0.0087470839
-0.090683368
-0.0097830098
-0.094925878
-0.01087562
-0.099354749
-0.012028971
-0.10398646
-0.01324655
-0.10882748
-0.014533213
-0.11388686
-0.015893058
-0.11917509
-0.017330884
-0.12470104
-0.018852087
-0.13047576
-0.02046127
-0.13651003
-0.022164635
-0.14281533
-0.023967394
-0.14940365
-0.025875234
-0.15628861
-0.027894501
-0.16348281
-0.030030827
-0.17100137
-0.032291086
-0.17885918
-0.034680823
-0.18707288
-0.037205757
-0.19566008
-0.039872475
-0.20463879
-0.042685967
-0.2140294
-0.045651805
-0.22385283
-0.048774649
-0.23413197
-0.052059604
-0.24489081
-0.055509717
-0.25615558
-0.059128651
-0.26795365
-0.062919517
-0.28031429
-0.066884004
-0.29326912
-0.071023247
-0.30685145
-0.075337909
-0.32109661
-0.079827973
-0.33604175
-0.08449222
-0.35172774
-0.089329133
-0.3681954
-0.094335608
-0.38549043
-0.099508789
-0.40365961
-0.10484421
-0.42275275
-0.11033649
-0.44282268
-0.11598022
-0.4639251
-0.12176753
-0.48611936
-0.12769112
-0.50946717
-0.13374106
-0.53403498
-0.13990712
-0.55989229
-0.14617772
-0.58711302
-0.15253886
-0.61577571
-0.15897549
-0.64596329
-0.1654699
-0.67776395
-0.17200291
-0.71127038
-0.1785522
-0.74658284
-0.18509256
-0.78380598
-0.19159614
-0.82305219
-0.1980305
-0.86444037
-0.20436
-0.90809713
-0.21054363
-0.95415719
-0.21653566
-1.0027634
-0.22228432
-1.0540672
-0.2277306
-1.108228
-0.23280908
-1.165415
-0.23744738
-1.2258033
-0.2415609
-1.2895934
-0.24505814
-1.3569838
-0.24784026
-1.4281969
-0.2497888
-1.5034762
-0.25077372
-1.5830571
-0.25065942
-1.6671984
-0.24928288
-1.7561737
-0.24647243
-1.8502722
-0.24204628
-1.9497662
-0.23576684
-2.0549404
-0.22740355
-2.1663297
-2.2838433
-0.00032594616
-0.047492621
-0.00093032085
-0.059154922
-0.0014209858
-0.058107601
-0.0020635884
-0.062906755
-0.0026356347
-0.064848397
-0.0033615789
-0.06833327
-0.0040415429
-0.071386325
-0.004829277
-0.074751421
-0.0056157103
-0.07827969
-0.0064630436
-0.081898479
-0.0073513235
-0.085754106
-0.0082919501
-0.089743642
-0.0092874555
-0.093931321
-0.010341264
-0.098301941
-0.011457823
-0.10287095
-0.012641711
-0.10764471
-0.013896889
-0.11263285
-0.015229338
-0.11784388
-0.016643885
-0.1232878
-0.018146206
-0.12897481
-0.019742135
-0.13491555
-0.021437669
-0.14112133
-0.023239107
-0.14760383
-0.025153678
-0.15437575
-0.027186841
-0.16145145
-0.029346061
-0.16884406
-0.031637459
-0.17656979
-0.03406784
-0.18464463
-0.036643686
-0.19308648
-0.039371028
-0.20191383
-0.042255567
-0.21114738
-0.045303011
-0.22080806
-0.048518456
-0.23091935
-0.051905929
-0.24150632
-0.05546964
-0.25259504
-0.059213077
-0.26421357
-0.063138408
-0.27639252
-0.067247894
-0.28916341
-0.071542882
-0.30256047
-0.076023971
-0.31661978
-0.080691042
-0.33137921
-0.085544141
-0.34687945
-0.090581254
-0.36316341
-0.095800896
-0.38027624
-0.10120067
-0.39826565
-0.10677735
-0.41718228
-0.11252744
-0.43707921
-0.11844675
-0.45801286
-0.12453022
-0.48004348
-0.13077214
-0.50323337
-0.13716626
-0.52764958
-0.14370458
-0.55336334
-0.15037881
-0.58044888
-0.15717893
-0.60898646
-0.16409394
-0.63906001
-0.17111114
-0.67075944
-0.17821536
-0.70417988
-0.18538997
-0.73942307
-0.19261593
-0.77659613
-0.19987124
-0.81581436
-0.20713095
-0.85719965
-0.21436669
-0.90088209
-0.2215458
-0.94700065
-0.22863183
-0.99570209
-0.23558218
-1.0471439
-0.24234978
-1.1014901
-0.24888021
-1.1589173
-0.25511145
-1.219608
-0.26097696
-1.2837672
-0.26640356
-1.3516003
-0.27129648
-1.423351
-0.27556724
-1.4992565
-0.27910081
-1.5795789
-0.28178015
-1.6645782
-0.28347114
-1.7545445
-0.28403074
-1.8497755
-0.28329783
-1.9505616
-0.28105971
-2.0572358
-0.27714103
-2.1703034
-2.2895953
-0.00028424027
-0.047208893
-0.00086961793
-0.058570054
-0.0013195373
-0.057658228
-0.001938309
-0.062288552
-0.0024876739
-0.064299631
-0.003190766
-0.067630817
-0.0038438203
-0.070733933
-0.0046076139
-0.073988321
-0.0053642568
-0.077523783
-0.0061794039
-0.081084108
-0.0070408105
-0.084893517
-0.007955152
-0.088830164
-0.0089273261
-0.092960056
-0.0099607503
-0.097269476
-0.011060502
-0.10177221
-0.012231413
-0.10647486
-0.013479145
-0.11138624
-0.014809111
-0.1165151
-0.016227314
-0.12187085
-0.01774052
-0.12746293
-0.019354755
-0.13330271
-0.021077532
-0.13940002
-0.022915206
-0.14576772
-0.024875145
-0.15241745
-0.0269649
-0.15936344
-0.029191221
-0.16661957
-0.031561601
-0.17420136
-0.034082865
-0.18212542
-0.036761404
-0.19041012
-0.039603973
-0.19907356
-0.042616582
-0.20813721
-0.045804236
-0.21762298
-0.049171767
-0.22755455
-0.052723936
-0.23795705
-0.05646438
-0.24885767
-0.060395838
-0.26028537
-0.064521186
-0.27227063
-0.068842299
-0.28484597
-0.073360244
-0.29804643
-0.078076137
-0.31190805
-0.082990031
-0.32646974
-0.088101667
-0.34177253
-0.093410846
-0.35785926
-0.098916996
-0.37477546
-0.10461853
-0.39256985
-0.11051413
-0.41129282
-0.11660182
-0.43099809
-0.12287953
-0.4517422
-0.12934487
-0.4735857
-0.13599445
-0.49659192
-0.14282507
-0.5208277
-0.14983259
-0.54636526
-0.15701185
-0.57327979
-0.16435747
-0.60165185
-0.17186234
-0.63156706
-0.1795186
-0.6631161
-0.18731617
-0.69639633
-0.19524466
-0.73150981
-0.2032905
-0.76856685
-0.21143834
-0.80768453
-0.21967079
-0.84898681
-0.2279672
-0.89260708
-0.23630382
-0.93868742
-0.24465255
-0.987379
-0.25298241
-1.0388422
-0.26125611
-1.0932474
-0.26943267
-1.1507748
-0.27746186
-1.2116162
-0.28529187
-1.2759783
-0.29285829
-1.3440789
-0.30009656
-1.4161618
-0.30692703
-1.4924795
-0.31326159
-1.5733022
-0.31899714
-1.6589046
-0.32402588
-1.7495805
-0.32823211
-1.8456355
-0.33147732
-1.9473822
-0.33358741
-2.0551864
-0.33441437
-2.1695367
-2.2902064
-0.0002460918
-0.04696329
-0.00082032244
-0.057996311
-0.0012403281
-0.057238746
-0.0018829461
-0.061646477
-0.0024176889
-0.06376546
-0.0030979269
-0.066951099
-0.0037282644
-0.070104229
-0.0044506358
-0.073266622
-0.005193692
-0.076781432
-0.0059932426
-0.080285302
-0.0068448462
-0.084042697
-0.0077512904
-0.087924546
-0.008719728
-0.091992489
-0.0097540849
-0.096236039
-0.010860118
-0.10066715
-0.012043585
-0.10529242
-0.013310717
-0.11012019
-0.014668194
-0.11515876
-0.016122793
-0.12041745
-0.017681214
-0.12590578
-0.019352052
-0.13163321
-0.021141739
-0.13761175
-0.0230591
-0.14385185
-0.025111381
-0.15036675
-0.027306361
-0.15717013
-0.029652079
-0.16427562
-0.032155873
-0.17169943
-0.034824649
-0.17945862
-0.037665731
-0.18757113
-0.040685026
-0.19605648
-0.043888049
-0.20493653
-0.047280382
-0.21423313
-0.050866387
-0.22397118
-0.054650202
-0.23417604
-0.058635061
-0.24487578
-0.062823743
-0.25609984
-0.067218458
-0.26787927
-0.071820897
-0.28024711
-0.076632805
-0.29323833
-0.081654868
-0.30689004
-0.086888014
-0.32124092
-0.092333032
-0.33633214
-0.097990418
-0.35220681
-0.10386021
-0.36891096
-0.10994326
-0.38649246
-0.11624012
-0.40500204
-0.12275078
-0.42449395
-0.12947572
-0.44502426
-0.13641519
-0.46665377
-0.14356944
-0.48944579
-0.15093781
-0.51346811
-0.15852059
-0.53879197
-0.16631638
-0.56549427
-0.1743238
-0.59365558
-0.1825409
-0.62336206
-0.1909645
-0.65470565
-0.19959086
-0.68778428
-0.20841443
-0.72270182
-0.21742882
-0.75956943
-0.22662583
-0.79850603
-0.23599471
-0.83963815
-0.2455235
-0.88310039
-0.25519713
-0.92903801
-0.26499801
-0.97760471
-0.27490441
-1.028965
-0.28489102
-1.0832929
-0.29492772
-1.1407735
-0.30498083
-1.2016021
-0.31500874
-1.2659932
-0.32496762
-1.3341669
-0.33480894
-1.4063718
-0.34446677
-1.4828775
-0.35387781
-1.5639516
-0.36296259
-1.6498844
-0.37163694
-1.740974
-0.37980432
-1.8375378
-0.38736177
-1.9398943
-0.39416021
-2.0484528
-0.40009552
-2.1636672
-2.2853207
-0.00021213167
-0.046751623
-0.00078681057
-0.057422095
-0.0011839332
-0.05684212
-0.001844621
-0.060986302
-0.002357674
-0.063252955
-0.0030295974
-0.066279766
-0.0036530509
-0.069481382
-0.0043702743
-0.072550036
-0.0051159955
-0.076036382
-0.0059159212
-0.079486085
-0.0067753257
-0.083184038
-0.0076942949
-0.087006365
-0.0086813148
-0.091006299
-0.0097411933
-0.095177036
-0.010880592
-0.099528673
-0.012106218
-0.10406777
-0.013425233
-0.1088022
-0.014844954
-0.11374012
-0.016373785
-0.11888977
-0.018019622
-0.12426115
-0.019790694
-0.12986342
-0.021695873
-0.13570792
-0.023743247
-0.1418059
-0.025941468
-0.14817004
-0.028299189
-0.154814
-0.030823742
-0.16175276
-0.033522894
-0.16900206
-0.036403864
-0.17657954
-0.039473335
-0.18450366
-0.042736472
-0.19279547
-0.046199635
-0.20147562
-0.049866615
-0.21056854
-0.053742132
-0.2200982
-0.057828912
-0.23009195
-0.062129728
-0.24057783
-0.066647479
-0.25158515
-0.071384057
-0.26314595
-0.076340973
-0.27529366
-0.081519951
-0.28806305
-0.086922788
-0.30149116
-0.092550996
-0.31561694
-0.098406369
-0.33048129
-0.10449058
-0.34612745
-0.11080623
-0.36260051
-0.11735567
-0.3799486
-0.1241413
-0.39822242
-0.13116676
-0.41747495
-0.13843458
-0.43776342
-0.14594877
-0.4591471
-0.15371269
-0.48169
-0.16173023
-0.50545938
-0.17000431
-0.53052744
-0.17853882
-0.55697014
-0.18733712
-0.58486856
-0.19640181
-0.61430966
-0.20573534
-0.6453855
-0.21533985
-0.67819439
-0.22521607
-0.71284154
-0.2353641
-0.7494388
-0.24578266
-0.7881065
-0.25647021
-0.82897141
-0.2674221
-0.87217132
-0.27863286
-0.91785228
-0.2900947
-0.96617041
-0.30179707
-1.017293
-0.31372643
-1.071397
-0.32586592
-1.1286709
-0.33819274
-1.1893159
-0.35068497
-1.2535456
-0.36331245
-1.3215883
-0.37603793
-1.3936997
-0.38883057
-1.4701431
-0.40163572
-1.5512095
-0.41439802
-1.6371897
-0.42705413
-1.728389
-0.43954661
-1.8251189
-0.45178711
-1.9277277
-0.46366973
-2.0366404
-0.47511485
-2.1522954
-2.2745258
-0.00019087645
-0.046561185
-0.00078481217
-0.056828598
-0.0011780569
-0.056449346
-0.001831515
-0.060333333
-0.0023375958
-0.062747391
-0.0030140293
-0.065603873
-0.0036526523
-0.068843331
-0.0043768059
-0.071826487
-0.0051443321
-0.075269491
-0.0059657353
-0.078665354
-0.0068547201
-0.08229576
-0.0078104644
-0.086051368
-0.0088425388
-0.089975011
-0.009957001
-0.094063406
-0.011161556
-0.098324995
-0.012464077
-0.10276618
-0.013872983
-0.10739427
-0.01539708
-0.11221706
-0.017044962
-0.11724297
-0.018826531
-0.12248073
-0.020750541
-0.12794062
-0.022826595
-0.13363316
-0.025063448
-0.13957041
-0.027470125
-0.1457648
-0.030055059
-0.15223059
-0.032826226
-0.1589832
-0.035790545
-0.16603945
-0.038955058
-0.17341684
-0.042325129
-0.1811355
-0.045906666
-0.18921596
-0.049703395
-0.19768105
-0.053719384
-0.20655485
-0.057957879
-0.21586214
-0.062421402
-0.22563103
-0.067112374
-0.23588962
-0.072032992
-0.24666748
-0.077184913
-0.25799718
-0.082570572
-0.26991137
-0.088191892
-0.28244534
-0.094051586
-0.29563532
-0.10015254
-0.30952012
-0.10649812
-0.32414015
-0.11309249
-0.33953785
-0.1199399
-0.35575822
-0.12704522
-0.3728488
-0.13441441
-0.39085919
-0.14205328
-0.4098425
-0.14996851
-0.42985513
-0.15816684
-0.45095629
-0.1666558
-0.47320919
-0.17544295
-0.49668108
-0.1845368
-0.52144322
-0.19394509
-0.54757232
-0.20367623
-0.57514885
-0.21373802
-0.60426035
-0.22413931
-0.63499784
-0.23488735
-0.66746124
-0.24598989
-0.7017553
-0.25745419
-0.73799233
-0.26928705
-0.77629317
-0.281494
-0.81678587
-0.29408025
-0.85960857
-0.30704971
-0.90490868
-0.32040485
-0.95284376
-0.33414674
-1.0035825
-0.3482739
-1.0573045
-0.36278205
-1.1142011
-0.37766385
-1.1744763
-0.39291304
-1.2383428
-0.40851145
-1.3060409
-0.42444954
-1.3778173
-0.44070326
-1.45395
-0.45725067
-1.5347279
-0.47406112
-1.6204497
-0.49109171
-1.711433
-0.50830366
-1.8079847
-0.52564693
-1.910463
-0.54306566
-2.0192968
-0.56049253
-2.1349488
-2.2573666
-0.00017252478
-0.046389074
-0.00079516253
-0.056206373
-0.0011951854
-0.056049766
-0.0018593246
-0.059669654
-0.0023779485
-0.062229254
-0.0030692988
-0.064913037
-0.0037383968
-0.068174774
-0.0044861241
-0.071079331
-0.0052937307
-0.074462486
-0.0061590363
-0.077800684
-0.0071017113
-0.081353754
-0.0081216821
-0.085032104
-0.0092292642
-0.088868173
-0.010432159
-0.092861298
-0.011739395
-0.097018588
-0.013160278
-0.10134617
-0.014704525
-0.10585095
-0.016382213
-0.11054035
-0.018203569
-0.11542265
-0.020178484
-0.12050691
-0.022317315
-0.12580294
-0.024629608
-0.13132208
-0.027124495
-0.13707681
-0.029811093
-0.14307956
-0.032697109
-0.14934601
-0.035789758
-0.15589208
-0.039096169
-0.16273466
-0.04262113
-0.1698936
-0.046369792
-0.17738866
-0.05034601
-0.18524168
-0.054553143
-0.19347598
-0.058994184
-0.202116
-0.06367046
-0.21118821
-0.068585183
-0.2207188
-0.073739779
-0.23073769
-0.079136202
-0.24127391
-0.084777358
-0.25235907
-0.090665552
-0.26402644
-0.096804999
-0.27630939
-0.10319952
-0.28924457
-0.1098538
-0.30286989
-0.11677343
-0.31722487
-0.12396517
-0.33235079
-0.13143599
-0.34829246
-0.139194
-0.36509625
-0.1472482
-0.38281089
-0.15560799
-0.4014891
-0.16428358
-0.42118647
-0.17328621
-0.44196118
-0.18262715
-0.46387642
-0.19231886
-0.48699827
-0.20237328
-0.51139851
-0.2128044
-0.5371518
-0.22362513
-0.5643397
-0.23484993
-0.59304823
-0.24649228
-0.62336936
-0.25856717
-0.65540155
-0.27108881
-0.68925032
-0.28407159
-0.72502781
-0.29753081
-0.76285399
-0.31148024
-0.80285846
-0.32593445
-0.84517858
-0.34090761
-0.88996222
-0.35641313
-0.9373677
-0.37246326
-0.98756494
-0.38906975
-1.0407341
-0.40624262
-1.097068
-0.42399079
-1.156772
-0.44231778
-1.2200642
-0.46123012
-1.2871816
-0.48073097
-1.3583745
-0.50082421
-1.4339201
-0.52150686
-1.5141139
-0.54276679
-1.5992636
-0.564598
-1.6896801
-0.58697622
-1.7856887
-0.6098912
-1.8876318
-0.6333209
-1.9959484
-0.65723865
-2.1111192
-2.2333009
-0.00015854711
-0.046230915
-0.00082301432
-0.055542295
-0.0012368177
-0.05563638
-0.0019310477
-0.058975858
-0.0024799166
-0.061680845
-0.003199829
-0.064193608
-0.0039197305
-0.067455381
-0.0047121423
-0.070287458
-0.0055827154
-0.073592479
-0.0065190159
-0.076864982
-0.0075446448
-0.080328755
-0.0086617143
-0.083915701
-0.0098815989
-0.08764899
-0.011214064
-0.091529574
-0.012669664
-0.095563769
-0.014259447
-0.099757212
-0.015994514
-0.10411675
-0.01788606
-0.10864972
-0.019945157
-0.11336452
-0.022182552
-0.11827054
-0.024608286
-0.12337829
-0.027232217
-0.1286993
-0.030063447
-0.13424679
-0.033109422
-0.14003488
-0.03637758
-0.14607922
-0.039873808
-0.1523973
-0.043602898
-0.1590071
-0.047569123
-0.165929
-0.051775572
-0.17318395
-0.056224558
-0.18079454
-0.060917826
-0.18878468
-0.065857464
-0.19717847
-0.071044936
-0.20600298
-0.076482023
-0.21528411
-0.082171239
-0.22505105
-0.088115294
-0.23533261
-0.094317696
-0.24615963
-0.10078358
-0.25756373
-0.10751738
-0.26957901
-0.11452621
-0.28223941
-0.12181703
-0.29558304
-0.12939921
-0.30964696
-0.13728127
-0.32447336
-0.14547407
-0.34010466
-0.15398965
-0.35658609
-0.16283974
-0.37396667
-0.17203809
-0.39229713
-0.18159923
-0.41163226
-0.19153794
-0.43203
-0.20187067
-0.45355192
-0.21261379
-0.47626413
-0.22378569
-0.50023641
-0.23540396
-0.52554427
-0.24748789
-0.55226754
-0.26005771
-0.58049131
-0.27313374
-0.61030749
-0.28673685
-0.64181396
-0.30088962
-0.67511459
-0.31561423
-0.71032191
-0.33093322
-0.74755558
-0.34687043
-0.78694389
-0.36345022
-0.82862375
-0.38069697
-0.87274302
-0.39863505
-0.91946009
-0.41729043
-0.96894329
-0.43668762
-1.0213742
-0.45685082
-1.0769461
-0.47780359
-1.1358648
-0.49956763
-1.1983504
-0.52216848
-1.2646359
-0.54562792
-1.3349756
-0.56996808
-1.409646
-0.59521222
-1.4889414
-0.62138177
-1.5731713
-0.64848502
-1.6626594
-0.67653055
-1.7577303
-0.70552566
-1.858726
-0.7355049
-1.9660572
-0.76647254
-2.0802486
-2.2017064
-0.00015057805
-0.046080701
-0.00087572471
-0.054817513
-0.0013086557
-0.05520384
-0.0020465857
-0.058238336
-0.0026463233
-0.061081538
-0.0034128901
-0.063427495
-0.0042066329
-0.066662116
-0.0050685571
-0.069426039
-0.0060277546
-0.072633812
-0.0070663608
-0.075826938
-0.0082100533
-0.079185653
-0.0094645061
-0.082661873
-0.010842589
-0.086271565
-0.012356101
-0.090016757
-0.014017392
-0.093903211
-0.015838769
-0.097936609
-0.017832497
-0.10212384
-0.020010408
-0.10647268
-0.022383951
-0.11099189
-0.024963796
-0.11569166
-0.027759908
-0.1205832
-0.030780877
-0.12567941
-0.034034234
-0.13099458
-0.037526693
-0.13654363
-0.041262887
-0.14234431
-0.045247105
-0.14841444
-0.049481509
-0.15477415
-0.053968241
-0.16144382
-0.058708711
-0.16844513
-0.063703633
-0.17580138
-0.068954282
-0.18353591
-0.074461534
-0.19167323
-0.080227575
-0.2002391
-0.086254629
-0.20925938
-0.092546576
-0.21876159
-0.099107387
-0.22877447
-0.10594333
-0.23932657
-0.11306062
-0.25044954
-0.1204683
-0.26217468
-0.12817486
-0.27453646
-0.13619203
-0.28756977
-0.14453047
-0.30131275
-0.15320392
-0.31580449
-0.16222685
-0.3310867
-0.17161412
-0.34720421
-0.18138234
-0.36420431
-0.19154914
-0.3821367
-0.2021331
-0.40105526
-0.21315415
-0.42101654