/*--------------------------------*- C++ -*----------------------------------*\
  =========                 |
  \\      /  F ield         | OpenFOAM: The Open Source CFD Toolbox
   \\    /   O peration     | Website:  https://openfoam.org
    \\  /    A nd           | Version:  12
     \\/     M anipulation  |
\*---------------------------------------------------------------------------*/
FoamFile
{
    format      ascii;
    class       volScalarField;
    location    "0.092";
    object      Ma;
}
// * * * * * * * * * * * * * * * * * * * * * * * * * * * * * * * * * * * * * //

dimensions      [];

internalField   nonuniform List<scalar> 
16000
(
0.62553568
0.74322234
0.69822542
0.72290249
0.70786086
0.71478751
0.70907761
0.71059686
0.70794394
0.70749894
0.70587289
0.70473638
0.70332034
0.70193862
0.70047492
0.69896492
0.69739745
0.69577407
0.69409354
0.6923554
0.69055924
0.68870491
0.68679253
0.68482247
0.68279543
0.68071244
0.6785749
0.67638461
0.67414374
0.6718549
0.66952115
0.66714594
0.66473319
0.66228721
0.65981272
0.6573148
0.65479887
0.65227064
0.64973606
0.64720125
0.64467246
0.64215595
0.639658
0.63718472
0.63474209
0.6323358
0.62997122
0.62765336
0.62538675
0.62317549
0.62102313
0.61893271
0.6169067
0.61494703
0.61305508
0.61123168
0.60947713
0.60779115
0.6061729
0.60462072
0.60313227
0.60170483
0.60033523
0.59901966
0.59775366
0.59653174
0.59534708
0.59419141
0.59305554
0.59193017
0.59080606
0.58967292
0.58851793
0.58732394
0.58607543
0.58478837
0.58349366
0.58204119
0.58094444
0.57942989
0.6300716
0.74848463
0.70187079
0.7275855
0.71173056
0.71911389
0.71296589
0.71459937
0.71176862
0.71124999
0.70953805
0.70828587
0.70677894
0.70528318
0.703711
0.70208449
0.70039786
0.698651
0.69684332
0.69497439
0.69304408
0.69105253
0.68900018
0.68688781
0.68471657
0.682488
0.68020405
0.67786712
0.67548005
0.67304613
0.67056915
0.66805332
0.66550332
0.66292423
0.66032155
0.65770111
0.65506904
0.65243171
0.64979568
0.64716757
0.64455405
0.64196169
0.63939695
0.63686601
0.63437479
0.63192878
0.62953307
0.62719224
0.62491033
0.62269085
0.6205367
0.61845019
0.61643309
0.61448657
0.61261129
0.61080738
0.60907446
0.60741164
0.60581751
0.60428999
0.60282628
0.60142322
0.60007731
0.59878451
0.59754019
0.59633887
0.59517372
0.59403645
0.59291759
0.5918074
0.59069626
0.58957424
0.58842863
0.58724133
0.58599993
0.58472242
0.58340536
0.5820072
0.58088326
0.57932608
0.63431576
0.75330578
0.70544053
0.73168423
0.71537666
0.72286069
0.71655482
0.71807726
0.71519169
0.71451618
0.71273631
0.71134618
0.709735
0.70811242
0.7064157
0.70465816
0.7028366
0.70095064
0.69899994
0.6969844
0.69490423
0.69275998
0.69055253
0.68828319
0.68595367
0.68356614
0.68112323
0.67862808
0.67608431
0.67349607
0.67086801
0.66820526
0.6655134
0.66279845
0.66006679
0.65732513
0.65458038
0.65183966
0.64911012
0.64639891
0.64371305
0.64105936
0.63844435
0.63587415
0.63335442
0.6308903
0.62848637
0.62614657
0.62387422
0.62167202
0.61954198
0.61748552
0.61550347
0.6135961
0.61176318
0.61000398
0.60831733
0.60670162
0.60515477
0.60367413
0.60225643
0.60089804
0.59959505
0.59834314
0.59713748
0.59597251
0.59484142
0.59373591
0.59264644
0.59156293
0.59047563
0.58937487
0.58824815
0.58707773
0.58585459
0.58459385
0.58327909
0.58192373
0.58080852
0.57920371
0.6381961
0.75770956
0.70851485
0.73527569
0.71856438
0.72615157
0.71968316
0.72107327
0.71812546
0.71727274
0.71541085
0.7138665
0.712133
0.71036739
0.70852856
0.70662311
0.70464983
0.7026083
0.70049854
0.69832082
0.69607577
0.69376438
0.69138811
0.68894883
0.68644896
0.68389141
0.68127965
0.67861772
0.67591022
0.67316232
0.6703797
0.66756857
0.66473561
0.66188786
0.65903271
0.65617777
0.65333081
0.65049961
0.6476919
0.64491521
0.64217677
0.63948345
0.6368416
0.63425703
0.6317349
0.62927971
0.62689525
0.62458456
0.62234999
0.62019316
0.61811501
0.61611585
0.61419543
0.61235297
0.61058725
0.6088966
0.60727903
0.60573213
0.60425316
0.60283893
0.60148565
0.60018928
0.59894555
0.59774985
0.5965972
0.59548197
0.59439742
0.59333532
0.59228604
0.59123933
0.59018531
0.5891146
0.58801497
0.58686985
0.58567297
0.58443443
0.58313279
0.58181854
0.58071969
0.57906977
0.64169711
0.76162754
0.71134736
0.73823228
0.72113798
0.72887852
0.72229519
0.72349389
0.720502
0.71943767
0.71748291
0.71576668
0.71389224
0.71196789
0.70996983
0.70790032
0.70575911
0.70354601
0.70126132
0.6989057
0.69648025
0.69398655
0.69142672
0.68880345
0.68612004
0.68338038
0.68058906
0.67775126
0.67487281
0.67196015
0.66902025
0.66606061
0.66308911
0.660114
0.65714372
0.65418684
0.65125189
0.64834727
0.6454811
0.64266111
0.63989451
0.63718791
0.63454722
0.63197759
0.62948336
0.62706805
0.62473433
0.62248406
0.6203183
0.6182374
0.61624098
0.6143281
0.61249727
0.61074655
0.60907365
0.60747596
0.60595057
0.60449435
0.60310388
0.60177542
0.60050477
0.5992875
0.59811902
0.59699453
0.5959089
0.5948565
0.59383068
0.59282333
0.59182487
0.59082491
0.58981359
0.58878173
0.58771753
0.5866063
0.58544411
0.58423467
0.58295524
0.58168835
0.58061218
0.57892314
0.6447712
0.76497849
0.71371716
0.74072993
0.72336742
0.73096343
0.72425531
0.72526132
0.7222309
0.72093882
0.71887868
0.7169795
0.7149479
0.71285166
0.71067895
0.70842969
0.70610408
0.70370232
0.70122514
0.69867382
0.6960502
0.69335674
0.69059655
0.68777346
0.68489199
0.68195742
0.67897572
0.67595359
0.6728984
0.6698181
0.6667212
0.66361664
0.66051368
0.65742178
0.65435044
0.65130909
0.64830689
0.64535261
0.64245452
0.63962018
0.63685643
0.63416921
0.63156358
0.62904362
0.62661243
0.62427217
0.62202406
0.61986843
0.61780483
0.61583207
0.61394831
0.61215121
0.61043796
0.60880544
0.60725026
0.60576886
0.6043575
0.60301233
0.60172935
0.60050434
0.59933276
0.59820989
0.59713093
0.59609094
0.59508477
0.59410682
0.59315059
0.59220817
0.5912701
0.59032599
0.58936605
0.58838119
0.5873602
0.58629099
0.58517129
0.58399723
0.58274835
0.58153655
0.58048296
0.57876404
0.64738902
0.76774305
0.71563543
0.74273265
0.72512533
0.73238634
0.72571393
0.72633963
0.72332262
0.72175426
0.71957413
0.71748097
0.71527234
0.71298585
0.71061726
0.70816601
0.70563286
0.70301876
0.70032532
0.69755481
0.69471021
0.69179524
0.68881446
0.68577319
0.68267762
0.67953474
0.67635234
0.67313894
0.66990373
0.66665646
0.66340731
0.6601668
0.65694557
0.65375423
0.65060319
0.64750251
0.64446164
0.64148939
0.63859366
0.63578143
0.63305861
0.63043
0.62789926
0.62546891
0.62314038
0.62091406
0.61878934
0.61676478
0.61483815
0.61300657
0.61126665
0.60961457
0.60804622
0.60655729
0.60514339
0.60380007
0.60252286
0.60130731
0.60014894
0.59904316
0.5979852
0.59697017
0.59599319
0.59504929
0.59413337
0.59323995
0.59236277
0.59149419
0.59062497
0.58974488
0.58884421
0.58791382
0.58694335
0.58592387
0.58485392
0.58372135
0.5825121
0.58136261
0.58032894
0.57859337
0.64958841
0.76994908
0.71714118
0.74426721
0.72647672
0.73336826
0.72667503
0.72716834
0.72375269
0.72190533
0.71956994
0.71725708
0.71483753
0.71232934
0.70973239
0.70704684
0.7042742
0.70141652
0.69847662
0.69545813
0.69236555
0.68920431
0.68598078
0.68270227
0.67937704
0.6760142
0.67262373
0.66921628
0.66580313
0.66239598
0.65900679
0.6556476
0.65233029
0.64906639
0.64586688
0.64274196
0.63970092
0.63675195
0.63390202
0.63115684
0.62852075
0.62599676
0.62358658
0.62129063
0.61910819
0.6170375
0.61507586
0.61321978
0.61146516
0.60980736
0.60824141
0.60676209
0.60536406
0.60404197
0.60279053
0.60160457
0.60047905
0.59940907
0.59838982
0.59741651
0.59648426
0.59558816
0.59472337
0.59388501
0.59306812
0.59226746
0.59147707
0.59068968
0.58989638
0.58908727
0.58825269
0.58738337
0.58647006
0.58550739
0.58449347
0.58340821
0.58224822
0.58116694
0.58014795
0.57841593
0.6514377
0.77162725
0.71819284
0.74533212
0.72716822
0.73340586
0.726812
0.72651977
0.7234718
0.7213415
0.71880197
0.7162337
0.71356137
0.7107923
0.7079281
0.70497018
0.70192113
0.6987844
0.69556442
0.69226664
0.6888976
0.68546492
0.68197734
0.67844466
0.67487767
0.6712881
0.66768843
0.66409177
0.66051161
0.65696166
0.65345553
0.65000657
0.64662751
0.64333032
0.6401259
0.63702395
0.63403277
0.63115914
0.62840827
0.62578378
0.62328769
0.62092053
0.61868142
0.6165682
0.61457762
0.61270546
0.61094674
0.60929589
0.60774689
0.60629343
0.60492909
0.60364741
0.60244201
0.60130671
0.60023556
0.59922288
0.59826327
0.59735158
0.59648287
0.59565229
0.59485502
0.59408627
0.59334137
0.59261565
0.5919044
0.59120271
0.59050498
0.5898044
0.58909257
0.58836002
0.58759715
0.5867945
0.58594429
0.58504459
0.5840918
0.58305948
0.58195872
0.58095009
0.5799411
0.57822864
0.65294016
0.77275474
0.71872012
0.74573392
0.72714257
0.73295642
0.72635206
0.72566557
0.72242731
0.71994564
0.71715182
0.7142903
0.71132156
0.70824907
0.70507543
0.70180386
0.6984386
0.69498509
0.69145001
0.68784128
0.68416816
0.68044116
0.67667203
0.67287367
0.66906
0.66524572
0.66144618
0.65767703
0.65395399
0.65029254
0.64670758
0.64321318
0.63982225
0.63654633
0.63339531
0.63037733
0.62749865
0.62476362
0.62217467
0.61973241
0.61743576
0.61528208
0.6132674
0.61138661
0.60963368
0.60800184
0.60648385
0.60507213
0.60375894
0.60253655
0.60139731
0.60033384
0.59933902
0.59840612
0.59752882
0.5967012
0.59591774
0.59517328
0.59446293
0.59378197
0.59312581
0.5924899
0.59186988
0.59126138
0.59066006
0.59006138
0.58946021
0.58885026
0.58822379
0.58757191
0.58688503
0.58615361
0.5853716
0.58453986
0.58365192
0.58267803
0.58164654
0.58071301
0.579708
0.57803277
0.65403542
0.77323001
0.71864696
0.74462796
0.72634675
0.73156607
0.72510594
0.72383091
0.72045655
0.71759915
0.7144934
0.71129297
0.7079788
0.70455477
0.70102479
0.69739438
0.69367021
0.68986052
0.68597509
0.68202521
0.67802373
0.67398491
0.66992431
0.66585857
0.66180519
0.65778219
0.65380782
0.64990015
0.64607675
0.64235426
0.63874805
0.6352719
0.63193771
0.62875526
0.62573209
0.62287343
0.62018216
0.617659
0.61530253
0.61310952
0.61107506
0.6091929
0.60745567
0.60585519
0.60438267
0.60302898
0.60178484
0.60064099
0.59958834
0.59861807
0.59772178
0.5968915
0.59611977
0.59539965
0.59472477
0.59408927
0.59348778
0.59291533
0.5923673
0.59183928
0.59132703
0.5908264
0.59033342
0.58984414
0.58935464
0.58886083
0.58835809
0.58784076
0.58730188
0.58673319
0.5861252
0.58546852
0.58475892
0.58399878
0.58317795
0.5822679
0.58131552
0.58045737
0.5794494
0.57782873
0.65463064
0.772886
0.71785836
0.74283037
0.72492742
0.72931887
0.72292444
0.7210411
0.71743612
0.71416312
0.71068205
0.70708817
0.70337288
0.69954281
0.69560412
0.69156551
0.68743725
0.68323153
0.67896242
0.67464579
0.67029914
0.66594142
0.66159274
0.65727399
0.65300649
0.64881153
0.64470993
0.64072153
0.63686476
0.6331562
0.62961019
0.62623855
0.62305039
0.62005196
0.61724668
0.61463526
0.61221586
0.60998437
0.60793468
0.60605906
0.60434847
0.60279289
0.60138166
0.60010372
0.59894794
0.59790321
0.59695874
0.59610409
0.59532935
0.59462514
0.59398275
0.5933941
0.59285178
0.59234904
0.59187976
0.59143843
0.59102006
0.59062013
0.59023444
0.58985905
0.5894902
0.58912424
0.58875767
0.58838703
0.5880089
0.58761967
0.58721526
0.58679074
0.58633999
0.58585547
0.58532789
0.58474842
0.58411447
0.58342809
0.58267536
0.58183445
0.58097032
0.58018594
0.57916957
0.57762096
0.65466211
0.77164778
0.7162171
0.74030821
0.72263815
0.72603757
0.71968262
0.71713985
0.71321977
0.70948036
0.70555187
0.7014983
0.69731663
0.69301774
0.68861173
0.684112
0.67953398
0.67489542
0.67021619
0.66551799
0.66082409
0.65615891
0.65154756
0.6470153
0.64258701
0.63828654
0.63413616
0.63015594
0.62636331
0.62277258
0.61939475
0.61623729
0.61330417
0.610596
0.60811026
0.60584162
0.60378238
0.60192286
0.60025183
0.59875698
0.59742528
0.59624332
0.59519765
0.59427501
0.59346252
0.59274787
0.59211939
0.59156615
0.59107803
0.59064567
0.59026056
0.58991496
0.58960192
0.5893152
0.58904927
0.58879919
0.58856058
0.58832951
0.5881024
0.58787588
0.58764676
0.58741198
0.58716856
0.5869136
0.58664416
0.58635719
0.58604918
0.58571594
0.58535229
0.58495137
0.58450438
0.58400356
0.58344747
0.58283577
0.58215124
0.58138426
0.58061581
0.57990281
0.57888006
0.5774154
0.65411182
0.76941859
0.71365313
0.7366955
0.71933815
0.72162998
0.7152338
0.71198007
0.70763447
0.70335733
0.69889636
0.69430268
0.68957838
0.68474031
0.67980483
0.67479209
0.66972471
0.66462774
0.65952832
0.65445519
0.64943815
0.64450748
0.63969315
0.63502409
0.63052744
0.6262277
0.62214617
0.61830029
0.61470334
0.6113642
0.60828738
0.60547317
0.60291799
0.60061484
0.5985538
0.5967226
0.59510722
0.59369237
0.59246205
0.59139993
0.59048973
0.58971556
0.58906209
0.58851477
0.58805994
0.58768489
0.58737791
0.58712828
0.58692629
0.58676318
0.58663109
0.58652305
0.58643291
0.58635524
0.58628531
0.58621897
0.5861526
0.58608302
0.58600733
0.58592284
0.58582698
0.58571732
0.58559146
0.58544704
0.58528168
0.58509283
0.58487762
0.58463263
0.58435355
0.58403423
0.58366676
0.58324492
0.58276778
0.58223085
0.58161454
0.58092512
0.58025629
0.57961313
0.57859735
0.57718898
0.65292191
0.76602876
0.71011262
0.73191147
0.71487041
0.71592222
0.70937773
0.70534552
0.70044693
0.69553723
0.69044397
0.68521721
0.67986686
0.674418
0.66889598
0.66333002
0.65775193
0.65219577
0.64669727
0.64129298
0.63601942
0.63091205
0.62600424
0.62132623
0.61690419
0.61275953
0.60890828
0.60536096
0.60212248
0.59919249
0.59656578
0.59423293
0.592181
0.5903943
0.58885507
0.58754425
0.58644205
0.58552849
0.58478388
0.5841891
0.58372593
0.58337723
0.583127
0.58296052
0.58286433
0.58282622
0.58283521
0.58288146
0.58295625
0.58305186
0.58316152
0.58327932
0.58340016
0.58351963
0.58363398
0.58373997
0.58383485
0.58391623
0.58398198
0.58403012
0.58405874
0.58406606
0.58405025
0.5840095
0.58394196
0.58384561
0.58371822
0.58355714
0.58335882
0.58311785
0.58282762
0.58248391
0.58208555
0.58162297
0.58107559
0.58046607
0.57989579
0.579319
0.57831611
0.57697439
0.65103775
0.76124079
0.70563699
0.72576449
0.70902728
0.70869113
0.70184623
0.69693975
0.69133933
0.68567944
0.67984299
0.67388591
0.66782963
0.66171007
0.6555643
0.64943308
0.64335952
0.63738827
0.63156433
0.6259317
0.62053192
0.61540268
0.61057652
0.60607977
0.60193193
0.59814525
0.59472489
0.59166924
0.58897062
0.58661617
0.58458876
0.58286805
0.58143142
0.5802549
0.57931389
0.5785839
0.578041
0.57766225
0.577426
0.57731204
0.57730177
0.5773782
0.57752594
0.57773118
0.5779816
0.57826628
0.57857561
0.57890119
0.57923568
0.57957276
0.57990702
0.58023382
0.58054927
0.58085009
0.58113358
0.58139749
0.58163995
0.58185942
0.58205452
0.58222401
0.58236663
0.58248122
0.58256653
0.58262128
0.58264409
0.58263351
0.58258793
0.58250539
0.58238298
0.58221611
0.58199985
0.58173209
0.58141079
0.58102142
0.5805443
0.58001653
0.57953977
0.57902446
0.57803672
0.57677614
0.64840226
0.75466922
0.70012185
0.71799268
0.70150219
0.69959162
0.69225278
0.68635025
0.67988874
0.6733515
0.66666299
0.659889
0.65306691
0.64624712
0.63948193
0.63282662
0.62633739
0.62006961
0.61407578
0.60840348
0.60309357
0.59817878
0.59368278
0.58961976
0.58599462
0.58280363
0.58003536
0.57767197
0.57569053
0.57406441
0.57276455
0.5717606
0.57102189
0.57051827
0.57022066
0.57010153
0.57013518
0.57029796
0.57056826
0.57092659
0.57135551
0.57183951
0.5723649
0.5729197
0.57349345
0.57407711
0.57466291
0.57524418
0.57581531
0.57637153
0.57690891
0.57742419
0.57791474
0.57837843
0.57881362
0.57921903
0.57959368
0.57993684
0.58024786
0.58052621
0.58077128
0.58098246
0.58115907
0.58130031
0.58140529
0.58147304
0.58150257
0.5814925
0.58144044
0.58134274
0.58119642
0.58100115
0.58075333
0.58043465
0.5800293
0.57958634
0.57919761
0.57873105
0.57775802
0.57660798
0.64488293
0.74564596
0.69294818
0.70814542
0.69183956
0.68814892
0.68009245
0.67306075
0.66558096
0.65804249
0.65040838
0.64275946
0.63515567
0.62766733
0.62036566
0.6133216
0.60660257
0.60026955
0.59437458
0.58895867
0.58405063
0.57966663
0.57581056
0.57247508
0.56964312
0.56728967
0.56538372
0.56389006
0.56277106
0.5619881
0.5615028
0.56127796
0.56127825
0.56147066
0.56182482
0.5623131
0.56291062
0.56359519
0.5643472
0.56514941
0.56598681
0.56684639
0.56771697
0.56858897
0.56945429
0.57030608
0.57113863
0.57194721
0.57272796
0.57347775
0.57419414
0.57487521
0.57551956
0.57612618
0.57669442
0.57722393
0.57771456
0.57816631
0.57857924
0.57895344
0.57928892
0.57958562
0.57984334
0.58006174
0.58024035
0.58037872
0.58047633
0.58053227
0.58054462
0.58051084
0.58042994
0.5803026
0.58012298
0.57987106
0.57953881
0.57918497
0.5788796
0.57844498
0.5774869
0.57648666
0.64019257
0.73416106
0.68368833
0.69566107
0.67946008
0.67380198
0.66476435
0.65645222
0.64780207
0.63915558
0.63052312
0.62200929
0.6137032
0.60569811
0.59808204
0.59093461
0.58432297
0.57829911
0.5728982
0.56813823
0.56402076
0.56053258
0.5576481
0.55533193
0.55354169
0.55223049
0.55134927
0.55084863
0.55068037
0.55079858
0.55116034
0.55172621
0.55246042
0.55333093
0.55430928
0.55537049
0.55649273
0.55765711
0.5588474
0.56004973
0.56125232
0.56244528
0.56362033
0.56477061
0.56589052
0.5669755
0.56802192
0.56902697
0.56998849
0.57090493
0.57177521
0.5725987
0.57337511
0.57410444
0.57478696
0.57542312
0.57601352
0.57655884
0.57705976
0.57751692
0.57793091
0.57830214
0.57863086
0.57891716
0.579161
0.57936232
0.57952101
0.57963644
0.57970722
0.57973209
0.5797118
0.57964704
0.57952944
0.57933968
0.57908045
0.5788169
0.57859062
0.57818476
0.57725411
0.57638995
0.63396977
0.7212539
0.67178423
0.67995214
0.66364633
0.65583042
0.64550147
0.63573862
0.62580095
0.61601362
0.60644668
0.59723398
0.58849098
0.58032387
0.57282075
0.56604837
0.56004984
0.55484448
0.55042926
0.54678162
0.54386305
0.5416231
0.5400033
0.5389407
0.53837091
0.53823051
0.53845882
0.53899912
0.53979939
0.54081268
0.54199714
0.54331589
0.54473676
0.54623191
0.54777743
0.54935298
0.55094131
0.55252794
0.55410081
0.55564992
0.5571671
0.55864572
0.56008049
0.56146724
0.56280279
0.56408477
0.56531152
0.56648195
0.56759548
0.56865194
0.56965151
0.57059466
0.57148206
0.57231462
0.57309338
0.57381951
0.57449424
0.57511882
0.57569449
0.57622237
0.57670352
0.57713882
0.57752893
0.57787433
0.57817537
0.57843237
0.57864543
0.57881412
0.57893761
0.57901601
0.57905131
0.57904335
0.57898153
0.57884957
0.57866119
0.57848263
0.57832713
0.57796085
0.57709823
0.57632602
0.62588869
0.70434901
0.65640314
0.66013397
0.64335603
0.63317702
0.62127314
0.60995649
0.59876167
0.58800852
0.57782336
0.56835615
0.55972341
0.55201258
0.54527681
0.53953575
0.53477812
0.53096643
0.52804261
0.52593407
0.52455944
0.52383347
0.52367116
0.52399069
0.52471551
0.52577565
0.52710824
0.52865768
0.5303754
0.53221946
0.53415393
0.53614831
0.53817692
0.54021828
0.54225455
0.54427106
0.54625581
0.54819911
0.55009322
0.55193207
0.55371097
0.55542641
0.55707586
0.55865763
0.56017072
0.56161469
0.56298958
0.56429584
0.56553422
0.56670574
0.56781162
0.56885326
0.56983218
0.57074999
0.57160841
0.57240919
0.57315409
0.57384484
0.57448313
0.57507052
0.57560846
0.57609822
0.57654085
0.57693723
0.57728808
0.57759402
0.57785525
0.5780715
0.57824254
0.57836966
0.57845539
0.57849818
0.57848627
0.57840833
0.57828745
0.57818507
0.57808713
0.57775754
0.57697474
0.57630805
0.61530479
0.68247648
0.63615202
0.63479208
0.61711608
0.60445477
0.59090684
0.57820044
0.56611901
0.55495894
0.54486137
0.53594683
0.52828081
0.52188176
0.51672416
0.51274672
0.5098614
0.50796269
0.5069361
0.50666515
0.50703679
0.50794499
0.5092931
0.51099486
0.51297468
0.51516726
0.5175169
0.51997653
0.52250678
0.52507497
0.52765419
0.53022244
0.53276192
0.53525831
0.53770029
0.54007894
0.54238746
0.5446207
0.54677497
0.54884772
0.55083738
0.55274317
0.55456497
0.55630317
0.55795861
0.55953248
0.56102625
0.56244158
0.56378035
0.56504453
0.56623619
0.56735748
0.56841058
0.56939771
0.5703211
0.57118299
0.57198557
0.57273093
0.57342113
0.57405811
0.57464363
0.5751793
0.57566654
0.57610659
0.57650057
0.57684929
0.57715309
0.57741187
0.57762599
0.57779749
0.57792858
0.57801607
0.57804855
0.57802118
0.57796408
0.57792886
0.57787563
0.57757547
0.57687653
0.57635775
0.60106462
0.6535325
0.60911441
0.60216922
0.58331639
0.56828535
0.55351054
0.54011095
0.52805091
0.51754637
0.50866964
0.50143773
0.4958005
0.49165867
0.48887728
0.48730087
0.48676611
0.48711197
0.48818672
0.48985231
0.49198649
0.49448333
0.49725257
0.50021843
0.503318
0.50649961
0.50972118
0.51294876
0.51615518
0.5193189
0.52242302
0.52545446
0.52840328
0.53126207
0.5340255
0.53668992
0.53925307
0.54171377
0.54407174
0.54632741
0.54848179
0.55053633
0.55249284
0.55435341
0.55612036
0.55779613
0.55938333
0.5608846
0.56230266
0.56364024
0.56490007
0.56608487
0.56719736
0.56824021
0.56921607
0.57012754
0.57097714
0.57176727
0.57250028
0.57317837
0.57380359
0.57437782
0.57490279
0.57538012
0.57581122
0.57619716
0.57653844
0.5768353
0.57708867
0.57730075
0.57747263
0.57759952
0.57767166
0.5776911
0.57769175
0.57771193
0.57769152
0.57742212
0.57681826
0.57642948
0.5812014
0.61517163
0.57309827
0.56046319
0.54093348
0.52396534
0.50911086
0.49643807
0.48591437
0.47758251
0.47134512
0.46704262
0.46446408
0.46337565
0.46353964
0.46472969
0.46673982
0.46938911
0.4725229
0.47601176
0.4797492
0.48364882
0.48764132
0.49167172
0.49569678
0.49968288
0.50360414
0.50744091
0.51117854
0.51480633
0.51831674
0.52170474
0.52496726
0.52810281
0.53111111
0.53399283
0.53674939
0.53938278
0.54189543
0.54429011
0.54656982
0.54873774
0.55079716
0.55275146
0.55460407
0.5563584
0.55801789
0.55958592
0.56106584
0.56246094
0.56377445
0.56500953
0.56616926
0.56725668
0.56827476
0.56922636
0.57011424
0.57094107
0.57170939
0.57242162
0.57308001
0.57368668
0.57424362
0.57475273
0.57521569
0.57563379
0.57600785
0.57633862
0.57662756
0.5768766
0.57708538
0.57724799
0.57735711
0.57742028
0.57747042
0.57753026
0.57752811
0.57728948
0.5767905
0.5765364
0.55310026
0.56488793
0.52673872
0.50832101
0.48769603
0.47223496
0.45926781
0.4493937
0.44234813
0.43788834
0.43566836
0.43532507
0.43650117
0.43887057
0.44214896
0.44609744
0.45052062
0.45526209
0.46019874
0.465235
0.47029762
0.47533109
0.48029389
0.48515542
0.48989355
0.4944927
0.49894232
0.5032357
0.5073691
0.51134101
0.51515163
0.5188024
0.52229575
0.52563477
0.52882309
0.53186467
0.53476371
0.53752458
0.54015173
0.54264962
0.54502273
0.5472755
0.5494123
0.55143743
0.55335511
0.55516947
0.55688452
0.55850418
0.56003225
0.56147242
0.56282826
0.56410324
0.56530074
0.56642404
0.56747634
0.56846069
0.56938004
0.57023724
0.57103499
0.57177586
0.57246228
0.57309652
0.57368078
0.57421714
0.57470747
0.57515329
0.57555578
0.5759163
0.57623669
0.57651849
0.57676022
0.57695596
0.57710133
0.57720676
0.57729944
0.57738652
0.57739464
0.57719136
0.57680026
0.57665403
0.51264845
0.50012737
0.46294371
0.4450652
0.42766129
0.41547359
0.4071738
0.40254674
0.400939
0.40176517
0.40445704
0.4085281
0.4135766
0.41928456
0.42540692
0.43175891
0.43820367
0.44464139
0.45100045
0.45723035
0.46329635
0.46917533
0.47485274
0.48032028
0.48557419
0.49061403
0.49544167
0.50006068
0.50447573
0.50869231
0.51271638
0.51655419
0.52021214
0.52369668
0.52701419
0.530171
0.53317327
0.53602703
0.53873813
0.54131224
0.54375483
0.54607121
0.5482665
0.55034563
0.55231337
0.5541743
0.55593287
0.55759332
0.55915977
0.56063617
0.56202633
0.56333395
0.56456258
0.56571569
0.56679663
0.56780859
0.56875466
0.5696378
0.57046085
0.57122648
0.57193724
0.57259555
0.57320373
0.57376397
0.57427824
0.57474824
0.57517552
0.57556186
0.5759093
0.57621896
0.57648895
0.5767145
0.57689412
0.57703878
0.57716829
0.57727915
0.57730487
0.57714808
0.57684903
0.57675147
0.45093321
0.41840394
0.38873518
0.37390807
0.3630856
0.35829159
0.35772763
0.3604759
0.36554607
0.37217926
0.37979075
0.38795646
0.39637633
0.40484354
0.41321864
0.42140999
0.42935936
0.43703166
0.44440769
0.45147909
0.45824477
0.46470849
0.47087713
0.47675956
0.48236578
0.4877064
0.49279223
0.49763408
0.50224252
0.50662784
0.51079994
0.51476832
0.51854208
0.52212986
0.52553993
0.52878013
0.53185794
0.53478045
0.53755444
0.54018635
0.54268232
0.5450482
0.54728958
0.54941181
0.55142
0.55331903
0.5551136
0.5568082
0.55840711
0.55991447
0.56133424
0.56267024
0.56392618
0.56510562
0.56621201
0.56724865
0.5682187
0.56912523
0.56997115
0.57075922
0.57149209
0.57217227
0.57280217
0.57338405
0.57391995
0.5744117
0.57486112
0.57527018
0.57564083
0.57597384
0.57626751
0.57651861
0.57672752
0.5769037
0.57705981
0.57718695
0.5772318
0.57713041
0.57692866
0.57687883
0.35530507
0.32186182
0.30426921
0.29979612
0.30117863
0.30743762
0.31659726
0.32739326
0.33895304
0.35072591
0.36237656
0.37370922
0.3846164
0.39504514
0.40497589
0.41440905
0.42335669
0.43183732
0.4398727
0.44748587
0.45469996
0.46153749
0.46802001
0.47416784
0.48000006
0.48553448
0.49078765
0.49577498
0.50051077
0.50500833
0.50928
0.5133373
0.51719098
0.52085104
0.52432687
0.52762725
0.53076043
0.53373416
0.53655577
0.53923215
0.54176983
0.54417499
0.5464535
0.54861094
0.55065263
0.55258362
0.55440876
0.55613266
0.55775973
0.5592942
0.56074011
0.56210139
0.56338179
0.56458496
0.56571439
0.56677346
0.56776537
0.56869325
0.56956008
0.57036867
0.57112173
0.57182186
0.57247151
0.57307299
0.57362841
0.57413975
0.57460896
0.57503805
0.57542873
0.57578158
0.57609541
0.57636847
0.57660197
0.57680246
0.5769759
0.57711174
0.57717352
0.57712536
0.57700271
0.57696448
0.21635522
0.21507731
0.22045681
0.23383938
0.25112367
0.26948577
0.28772301
0.30518599
0.32164604
0.33703932
0.35139099
0.36476138
0.37722416
0.38885454
0.39972421
0.40989913
0.41943898
0.42839722
0.43682154
0.44475444
0.45223377
0.45929334
0.46596336
0.47227093
0.47824041
0.48389377
0.48925089
0.49432984
0.49914702
0.50371747
0.50805493
0.51217206
0.5160805
0.51979105
0.5233137
0.52665777
0.52983193
0.53284429
0.53570247
0.5384136
0.54098444
0.54342132
0.54573027
0.547917
0.54998692
0.55194519
0.55379671
0.55554618
0.55719805
0.5587566
0.56022594
0.56161001
0.56291261
0.56413742
0.56528798
0.56636766
0.56737973
0.56832733
0.56921346
0.57004099
0.57081267
0.57153113
0.57219886
0.57281818
0.57339128
0.57392023
0.57440706
0.57485373
0.57526173
0.57563158
0.57596274
0.57625477
0.5765092
0.57672932
0.57691466
0.57705463
0.57713257
0.57714121
0.57706877
0.57703227
0.091846801
0.12171357
0.15909344
0.19270048
0.22279519
0.24928716
0.27279615
0.29378751
0.31267693
0.32979019
0.34538993
0.35968651
0.37285066
0.3850221
0.39631641
0.40683006
0.41664429
0.42582811
0.43444058
0.44253259
0.45014832
0.45732634
0.46410053
0.47050079
0.47655369
0.48228293
0.48770973
0.49285323
0.49773071
0.50235787
0.506749
0.5109172
0.51487448
0.51863192
0.52219973
0.52558743
0.52880383
0.53185716
0.53475515
0.537505
0.54011352
0.54258712
0.54493184
0.54715343
0.54925732
0.5512487
0.55313248
0.55491336
0.55659583
0.55818415
0.55968245
0.56109467
0.56242463
0.56367601
0.56485236
0.56595708
0.56699346
0.56796464
0.56887367
0.56972345
0.57051675
0.57125625
0.57194444
0.57258371
0.57317625
0.57372421
0.57422967
0.57469453
0.57512012
0.57550695
0.5758551
0.57616502
0.57643777
0.57667395
0.57687152
0.57702268
0.57711474
0.57713944
0.57710819
0.57706841
0.010741145
0.29666947
0.47025312
0.51768855
0.52726464
0.52772333
0.527395
0.52852605
0.53001522
0.53149771
0.53297172
0.53441525
0.53583336
0.53723722
0.53863758
0.54004411
0.54145865
0.5428816
0.54431257
0.54575058
0.54719421
0.5486417
0.5500911
0.55154033
0.55298726
0.55442976
0.55586571
0.55729305
0.55870974
0.56011384
0.56150341
0.5628766
0.56423159
0.56556657
0.5668798
0.56816951
0.569434
0.57067153
0.57188039
0.57305888
0.57420529
0.57531793
0.57639509
0.57743509
0.57843627
0.57939699
0.58031562
0.58119063
0.58202049
0.58280379
0.58353918
0.58422541
0.58486134
0.585446
0.58597856
0.58645843
0.58688531
0.58725918
0.58758035
0.58784901
0.58806496
0.58822803
0.58833787
0.58839323
0.58839169
0.5883299
0.58820347
0.58800898
0.58774248
0.58740708
0.58699856
0.58653466
0.58598196
0.58539638
0.58463505
0.58392075
0.58281534
0.58204376
0.58036334
0.57985024
0.064600997
0.38391301
0.52029895
0.54511884
0.54589133
0.54402528
0.54317839
0.5433288
0.54353729
0.54384213
0.54423675
0.54479378
0.54547137
0.54623895
0.54706816
0.547956
0.54889638
0.54988442
0.55091471
0.55198216
0.55308207
0.55421002
0.55536186
0.55653363
0.55772162
0.55892227
0.56013218
0.56134813
0.562567
0.56378583
0.56500174
0.56621195
0.5674138
0.56860467
0.56978203
0.57094343
0.57208646
0.57320875
0.57430801
0.57538198
0.57642845
0.57744525
0.57843026
0.57938139
0.58029664
0.58117404
0.58201171
0.58280785
0.58356074
0.58426879
0.5849305
0.58554452
0.58610963
0.58662481
0.58708925
0.58750238
0.58786394
0.58817398
0.58843291
0.58864092
0.58879784
0.58890356
0.58895774
0.58895921
0.5889057
0.58879403
0.58862023
0.58838097
0.58807304
0.58769876
0.58725591
0.58675796
0.58617857
0.58555902
0.58477958
0.58402433
0.58291242
0.58209461
0.58041706
0.5798846
0.14909064
0.46427563
0.53991789
0.55253882
0.5511034
0.55014884
0.55015647
0.55070723
0.55112369
0.55164203
0.55214502
0.55270729
0.553292
0.55391819
0.55457738
0.55527447
0.55600601
0.55677181
0.55757039
0.55840008
0.55925912
0.56014556
0.56105729
0.56199211
0.56294764
0.56392145
0.564911
0.56591368
0.56692684
0.56794777
0.56897374
0.570002
0.57102979
0.57205435
0.57307291
0.57408272
0.57508105
0.57606521
0.5770325
0.5779803
0.57890599
0.57980704
0.58068093
0.58152523
0.58233759
0.58311572
0.58385744
0.58456068
0.58522349
0.58584405
0.58642071
0.58695195
0.58743647
0.58787315
0.58826117
0.58859994
0.58888921
0.5891291
0.58932003
0.58946219
0.58955543
0.58959965
0.58959454
0.58953899
0.58943084
0.58926715
0.58904422
0.58875888
0.58840842
0.58799451
0.58751642
0.58698401
0.58637676
0.5857232
0.58492405
0.58412856
0.5830081
0.58214595
0.58046902
0.5799172
0.23043953
0.5111132
0.55361425
0.56092847
0.55823808
0.55843539
0.5585127
0.55909356
0.55936923
0.55981203
0.56018661
0.56063645
0.5610926
0.56157971
0.56208407
0.56261409
0.56316732
0.56374537
0.56434821
0.5649758
0.56562784
0.56630381
0.56700299
0.56772439
0.56846685
0.56922897
0.57000918
0.5708057
0.5716166
0.57243979
0.57327303
0.57411395
0.5749601
0.57580889
0.57665769
0.57750377
0.57834438
0.57917672
0.57999797
0.58080531
0.58159592
0.582367
0.58311581
0.58383964
0.58453586
0.58520193
0.58583543
0.58643405
0.58699562
0.58751813
0.58799975
0.58843883
0.58883395
0.58918395
0.58948793
0.58974531