/*--------------------------------*- C++ -*----------------------------------*\
  =========                 |
  \\      /  F ield         | OpenFOAM: The Open Source CFD Toolbox
   \\    /   O peration     | Website:  https://openfoam.org
    \\  /    A nd           | Version:  12
     \\/     M anipulation  |
\*---------------------------------------------------------------------------*/
FoamFile
{
    format      ascii;
    class       volScalarField;
    location    "0.092";
    object      nut;
}
// * * * * * * * * * * * * * * * * * * * * * * * * * * * * * * * * * * * * * //

dimensions      [0 2 -1 0 0 0 0];

internalField   nonuniform List<scalar> 
16000
(
4.7043532e-07
9.9098183e-06
1.9348028e-05
2.3599014e-05
1.8293263e-05
2.5165179e-05
1.7716967e-05
2.4311809e-05
1.887417e-05
2.6088824e-05
2.186981e-05
2.5785085e-05
2.3458969e-05
2.411739e-05
2.3287318e-05
2.3159932e-05
2.2914319e-05
2.2847928e-05
2.2857696e-05
2.2965177e-05
2.3162482e-05
2.3449143e-05
2.3822678e-05
2.4283141e-05
2.4832623e-05
2.5477063e-05
2.6224333e-05
2.7087074e-05
2.8080725e-05
2.9221933e-05
3.0528923e-05
3.2025876e-05
3.3744024e-05
3.5721868e-05
3.8006822e-05
4.065549e-05
4.373537e-05
4.7326998e-05
5.1530126e-05
5.6468544e-05
6.2287786e-05
6.91594e-05
7.7299937e-05
8.6975247e-05
9.8502415e-05
0.00011226221
0.0001287274
0.00014847531
0.00017221057
0.00020079427
0.00023528382
0.00027698138
0.00032748593
0.00038876607
0.00046324729
0.00055393181
0.00066455042
0.00079976295
0.00096542025
0.001020164
0.0010200142
0.0010198394
0.0010196001
0.0010192773
0.0010188689
0.0010183678
0.0010177687
0.0010170699
0.001016269
0.0010153429
0.0010142237
0.0010128281
0.0010113798
0.0010102439
0.0010091707
0.0010080172
0.0010066767
0.0010049608
0.0010042606
0.0010048471
4.182906e-07
9.4074819e-06
1.98039e-05
2.1507976e-05
1.6530594e-05
2.2584704e-05
1.5756857e-05
2.1320826e-05
1.6720354e-05
2.3088948e-05
1.984959e-05
2.3290995e-05
2.1497211e-05
2.1890408e-05
2.1241665e-05
2.1060214e-05
2.0855279e-05
2.0783635e-05
2.0794473e-05
2.089232e-05
2.1074379e-05
2.133977e-05
2.1686609e-05
2.2115025e-05
2.2626611e-05
2.3226936e-05
2.3922836e-05
2.4725705e-05
2.5650149e-05
2.6712401e-05
2.7929432e-05
2.9323347e-05
3.092306e-05
3.2764239e-05
3.4891271e-05
3.7357418e-05
4.0226611e-05
4.3574594e-05
4.7494336e-05
5.2103046e-05
5.7540598e-05
6.3968543e-05
7.1590781e-05
8.0660676e-05
9.14827e-05
0.00010441876
0.00011991971
0.00013853789
0.00016094876
0.00018797801
0.0002206395
0.00026018482
0.00030815272
0.00036644093
0.00043738888
0.00052389357
0.00062955657
0.00075886747
0.00091744884
0.0010193832
0.0010192468
0.0010190584
0.0010188134
0.0010184869
0.0010180777
0.0010175797
0.0010169879
0.0010162997
0.0010155139
0.0010146128
0.0010135428
0.0010122282
0.0010108083
0.0010096788
0.0010086145
0.0010074885
0.0010061515
0.0010045482
0.0010038488
0.0010039272
3.7350932e-07
9.0194619e-06
1.8766275e-05
1.9647895e-05
1.4819403e-05
1.9916538e-05
1.4049001e-05
1.8561303e-05
1.5052602e-05
2.0286782e-05
1.8122484e-05
2.0766498e-05
1.9501697e-05
1.9629142e-05
1.9130201e-05
1.8926155e-05
1.8753727e-05
1.8687352e-05
1.8701399e-05
1.8794068e-05
1.8963934e-05
1.9210454e-05
1.9532057e-05
1.9929134e-05
2.0402901e-05
2.0958722e-05
2.1602708e-05
2.2345172e-05
2.319971e-05
2.4182124e-05
2.5308524e-05
2.6599352e-05
2.8081587e-05
2.9788419e-05
3.1761511e-05
3.4050982e-05
3.6717525e-05
3.9833017e-05
4.3484612e-05
4.7782795e-05
5.2862587e-05
5.8877596e-05
6.6020602e-05
7.4532934e-05
8.4708452e-05
9.6893077e-05
0.00011151835
0.00012911448
0.00015033111
0.00017596329
0.00020698652
0.00024460764
0.00029031159
0.00034593247
0.0004137322
0.00049651191
0.00059775489
0.00072180243
0.00087407449
0.0010186449
0.0010185235
0.0010183151
0.0010180562
0.0010177184
0.0010173008
0.0010167984
0.0010162065
0.0010155223
0.0010147442
0.0010138573
0.0010128164
0.0010115683
0.0010101938
0.0010090826
0.0010080351
0.0010069348
0.0010056248
0.0010041392
0.0010034245
0.0010033413
3.3746247e-07
8.7286568e-06
1.7834969e-05
1.8268368e-05
1.3338248e-05
1.760393e-05
1.2535432e-05
1.6237141e-05
1.3565334e-05
1.7898391e-05
1.6564645e-05
1.8523131e-05
1.7653737e-05
1.7585559e-05
1.7198771e-05
1.6992821e-05
1.6848892e-05
1.6792807e-05
1.6812719e-05
1.6903679e-05
1.7064861e-05
1.7296129e-05
1.7596241e-05
1.7965971e-05
1.8406284e-05
1.8922475e-05
1.9520173e-05
2.0208844e-05
2.1001128e-05
2.1912482e-05
2.295845e-05
2.4158067e-05
2.5536742e-05
2.7125537e-05
2.8963803e-05
3.1098949e-05
3.3588856e-05
3.6502351e-05
3.992195e-05
4.3951885e-05
4.8723406e-05
5.4384056e-05
6.1117652e-05
6.9154827e-05
7.8781609e-05
9.0331444e-05
0.0001042204
0.0001209612
0.00014118322
0.00016565847
0.00019533269
0.00023137892
0.00027524119
0.00032870614
0.00039397839
0.00047378835
0.00057153175
0.00069144328
0.00083880689
0.0010179531
0.0010178496
0.0010176175
0.0010173397
0.0010169862
0.0010165562
0.0010160451
0.0010154486
0.0010147633
0.0010139877
0.0010131092
0.001012087
0.0010108791
0.0010095553
0.0010084685
0.0010074443
0.0010063764
0.0010051107
0.0010037249
0.0010030087
0.001002632
3.0682933e-07
8.5120574e-06
1.7018833e-05
1.8287376e-05
1.3304387e-05
1.5583612e-05
1.1202521e-05
1.4239182e-05
1.2283198e-05
1.5833925e-05
1.5175338e-05
1.649712e-05
1.592314e-05
1.5721878e-05
1.5417911e-05
1.5224455e-05
1.510408e-05
1.5059015e-05
1.5083673e-05
1.5172391e-05
1.5324553e-05
1.55406e-05
1.5819659e-05
1.6162989e-05
1.6571457e-05
1.7050356e-05
1.7604981e-05
1.8244126e-05
1.8979498e-05
1.982616e-05
2.0799283e-05
2.1916732e-05
2.3202607e-05
2.4686127e-05
2.6404645e-05
2.8403197e-05
3.073714e-05
3.3472807e-05
3.6689207e-05
4.0484628e-05
4.498711e-05
5.0339587e-05
5.671882e-05
6.4345401e-05
7.349924e-05
8.4503881e-05
9.7762432e-05
0.00011377303
0.00013314799
0.00015664086
0.00018517246
0.00021988794
0.00026219692
0.00031384628
0.00037699281
0.00045430743
0.00054911156
0.00066554833
0.00080878776
0.00098526196
0.0010172215
0.0010169622
0.0010166602
0.001016286
0.0010158387
0.0010153142
0.0010147082
0.0010140168
0.0010132381
0.0010123615
0.0010113491
0.0010101679
0.0010089016
0.0010078467
0.0010068516
0.0010058213
0.0010046165
0.0010033321
0.0010026102
0.0010021153
2.8177995e-07
8.3810594e-06
1.6364084e-05
1.8079431e-05
1.3096625e-05
1.38113e-05
1.0584878e-05
1.258537e-05
1.1373833e-05
1.4089167e-05
1.3955074e-05
1.4713893e-05
1.4337562e-05
1.4057512e-05
1.380617e-05
1.3627858e-05
1.3522896e-05
1.3484876e-05
1.3510747e-05
1.3595061e-05
1.373718e-05
1.3938042e-05
1.4196992e-05
1.4515664e-05
1.489498e-05
1.5340156e-05
1.5856224e-05
1.6451459e-05
1.713666e-05
1.7926468e-05
1.8835848e-05
1.9881712e-05
2.1087124e-05
2.2479765e-05
2.4095342e-05
2.5976918e-05
2.817771e-05
3.0762056e-05
3.3806685e-05
3.7404764e-05
4.16814e-05
4.6776445e-05
5.286203e-05
6.0149661e-05
6.8915046e-05
7.9474885e-05
9.2222403e-05
0.00010764496
0.00012634171
0.00014905367
0.00017668294
0.00021035461
0.00025145296
0.00030169581
0.00036320568
0.0004386101
0.0005311753
0.00064497499
0.00078509307
0.0009578486
0.0010166338
0.0010163445
0.0010160135
0.0010156142
0.0010151453
0.0010146033
0.0010139837
0.0010132819
0.001012495
0.001011615
0.0010106057
0.0010094364
0.0010082342
0.0010072193
0.0010062602
0.0010052735
0.0010041432
0.0010029657
0.0010022313
0.00100155
2.5057122e-07
8.3094327e-06
1.5853485e-05
1.7117242e-05
1.2993757e-05
1.2205259e-05
1.0639158e-05
1.1594016e-05
1.0988225e-05
1.2580984e-05
1.285684e-05
1.3136191e-05
1.2864147e-05
1.2548947e-05
1.2327531e-05
1.2164595e-05
1.2070938e-05
1.2038674e-05
1.2065302e-05
1.2145916e-05
1.2279557e-05
1.2467599e-05
1.2709364e-05
1.2930208e-05
1.3275279e-05
1.3683419e-05
1.4158995e-05
1.4709562e-05
1.5344827e-05
1.6078677e-05
1.6925828e-05
1.7902266e-05
1.9030094e-05
2.0335519e-05
2.1852719e-05
2.3622946e-05
2.5697403e-05
2.8138465e-05
3.1021343e-05
3.4694906e-05
3.8787266e-05
4.3673426e-05
4.9523341e-05
5.6540704e-05
6.499814e-05
7.5208499e-05
8.7558133e-05
0.00010252713
0.00012070484
0.00014282525
0.00016977733
0.00020267325
0.00024288019
0.0002920965
0.00035242239
0.00042645643
0.00051742642
0.00062935601
0.0007672666
0.00093739661
0.0010160823
0.0010157601
0.0010153957
0.0010149672
0.0010144729
0.0010139096
0.0010132727
0.0010125566
0.0010117574
0.0010108689
0.0010098586
0.0010086936
0.0010075609
0.0010065943
0.0010056783
0.0010047402
0.0010036946
0.0010026252
0.0010018713
0.0010011459
2.2959712e-07
8.2691459e-06
1.5416791e-05
1.556918e-05
1.1914582e-05
1.0639596e-05
9.2037063e-06
1.0350602e-05
9.6519896e-06
1.1309053e-05
1.174953e-05
1.1685672e-05
1.1455717e-05
1.1146843e-05
1.0949564e-05
1.0806382e-05
1.0726274e-05
1.0702532e-05
1.06676e-05
1.0731669e-05
1.0848774e-05
1.1019368e-05
1.1241188e-05
1.1514415e-05
1.1843244e-05
1.2230751e-05
1.2681461e-05
1.3202858e-05
1.3804102e-05
1.4498631e-05
1.5301341e-05
1.6227711e-05
1.7299374e-05
1.8541594e-05
1.998763e-05
2.1677568e-05
2.3661368e-05
2.6000159e-05
2.876853e-05
3.2057299e-05
3.5977186e-05
4.0668418e-05
4.6300612e-05
5.3518713e-05
6.1749742e-05
7.1707199e-05
8.3773912e-05
9.8426083e-05
0.00011624674
0.00013796866
0.00016447356
0.00019686818
0.00023651155
0.00028509282
0.00034470263
0.00041792622
0.00050797144
0.0006188333
0.00075549604
0.00092415157
0.0010155612
0.0010152033
0.0010148019
0.0010143406
0.0010138175
0.0010132296
0.0010125723
0.0010118391
0.001011024
0.0010101222
0.0010091084
0.0010079463
0.0010068868
0.0010059769
0.001005112
0.0010042273
0.0010032723
0.0010023153
0.0010015438
0.0010007559
2.1196932e-07
8.2273484e-06
1.4962395e-05
1.3618813e-05
9.7966173e-06
9.4619108e-06
7.590878e-06
8.8232374e-06
8.9825471e-06
1.0172767e-05
1.0621985e-05
1.0334598e-05
1.0124485e-05
9.8463141e-06
9.6733998e-06
9.4855084e-06
9.396003e-06
9.3676665e-06
9.3928341e-06
9.468686e-06
9.5910394e-06
9.7612762e-06
9.978774e-06
1.0243345e-05
1.0559155e-05
1.0930142e-05
1.13609e-05
1.185894e-05
1.2433045e-05
1.3096194e-05
1.386355e-05
1.475032e-05
1.5777947e-05
1.6971032e-05
1.8362253e-05
1.9990972e-05
2.1906374e-05
2.4168868e-05
2.6852292e-05
3.0046491e-05
3.38623e-05
3.8437619e-05
4.3944415e-05
5.0582103e-05
5.8606448e-05
6.8335789e-05
8.086075e-05
9.5331845e-05
0.00011295646
0.00013447165
0.00016075809
0.00019292465
0.00023233124
0.00028066828
0.00034002973
0.00041300366
0.00050279711
0.00061339894
0.00074978192
0.00091812477
0.0010150649
0.0010146684
0.0010142271
0.0010137301
0.0010131753
0.00101256
0.0010118795
0.001011127
0.0010102939
0.0010093741
0.0010083547
0.0010072035
0.001006219
0.0010053729
0.0010045679
0.0010037412
0.0010028765
0.0010020347
0.001001277
0.0010004624
1.9391664e-07
8.1857603e-06
1.3474614e-05
1.1855865e-05
7.9283897e-06
8.3986444e-06
6.7470205e-06
7.9620209e-06
8.3150772e-06
9.0956567e-06
9.4999881e-06
9.0997053e-06
8.8968657e-06
8.5716351e-06
8.3898498e-06
8.2721286e-06
8.2152594e-06
8.2108544e-06
8.2531204e-06
8.3385838e-06
8.4677468e-06
8.638471e-06
8.8528501e-06
9.1109258e-06
9.417077e-06
9.775632e-06
1.0191329e-05
1.0671831e-05
1.1225683e-05
1.1865435e-05
1.2606572e-05
1.346433e-05
1.4460184e-05
1.5618345e-05
1.6971226e-05
1.8557863e-05
2.04271e-05
2.2639146e-05
2.5268003e-05
2.8403747e-05
3.2157074e-05
3.6665197e-05
4.2102837e-05
4.8669047e-05
5.6621251e-05
6.6279004e-05
7.8036457e-05
9.2356329e-05
0.00011082974
0.00013233101
0.00015862968
0.00019084415
0.00023034478
0.00027883416
0.00033842305
0.00041171921
0.00050194939
0.00061312071
0.00075022188
0.00091945179
0.001014587
0.0010141497
0.0010136663
0.0010131313
0.0010125427
0.0010118976
0.0010111918
0.0010104184
0.0010095663
0.0010086248
0.0010075958
0.0010064739
0.0010055637
0.0010047869
0.0010040506
0.0010032877
0.0010025077
0.0010017809
0.0010010747
0.0010002492
1.7912078e-07
8.1392291e-06
1.0703343e-05
9.8379502e-06
6.5084905e-06
7.4720299e-06
6.1464496e-06
7.1496301e-06
7.7741259e-06
8.1153156e-06
8.3963203e-06
7.8890451e-06
7.6405123e-06
7.4126284e-06
7.2768378e-06
7.1968489e-06
7.1678987e-06
7.1837152e-06
7.2411175e-06
7.3375358e-06
7.4709173e-06
7.6435054e-06
7.8567613e-06
8.111159e-06
8.4111672e-06
8.7615426e-06
9.1672857e-06
9.6362633e-06
1.0176976e-05
1.0801621e-05
1.1466864e-05
1.2296571e-05
1.3262288e-05
1.4387809e-05
1.5705277e-05
1.7253434e-05
1.9080849e-05
2.1247585e-05
2.3827927e-05
2.6912455e-05
3.0612739e-05
3.5342158e-05
4.0767364e-05
4.7330411e-05
5.5290547e-05
6.4969797e-05
7.6772342e-05
9.1170443e-05
0.00010875964
0.00013028235
0.00015808184
0.000190623
0.00023055259
0.00027959657
0.00033989652
0.00041409772
0.0005054682
0.00061805966
0.0007569064
0.00092826058
0.0010141221
0.0010136418
0.001013115
0.0010125406
0.0010119166
0.0010112401
0.001010507
0.0010097109
0.0010088401
0.0010078764
0.0010068297
0.0010057661
0.001004928
0.0010042226
0.001003563
0.0010028721
0.0010021672
0.0010015463
0.0010009416
0.001000114
1.6582233e-07
8.0917313e-06
8.4422806e-06
8.3570635e-06
5.7172403e-06
6.6174377e-06
5.6389793e-06
6.436683e-06
7.2243128e-06
7.1998539e-06
7.1991409e-06
6.7662715e-06
6.5626656e-06
6.3937873e-06
6.2970306e-06
6.2483592e-06
6.2433579e-06
6.2778141e-06
6.3478751e-06
6.4536172e-06
6.5936366e-06
6.7695911e-06
6.9840028e-06
7.2378198e-06
7.5355924e-06
7.8484656e-06
8.2426536e-06
8.699363e-06
9.2269549e-06
9.8371822e-06
1.0544199e-05
1.136644e-05
1.2324683e-05
1.3442776e-05
1.4753139e-05
1.6294883e-05
1.8117129e-05
2.028067e-05
2.2861192e-05
2.5951083e-05
2.9664396e-05
3.4143664e-05
3.9563527e-05
4.6133354e-05
5.4116191e-05
6.4394117e-05
7.6354926e-05
9.0964593e-05
0.00010882764
0.00013070725
0.00015753565
0.00019225598
0.00023295494
0.00028296329
0.00034446785
0.0004201704
0.00051340306
0.00062829047
0.00076994567
0.0009447065
0.0010136648
0.0010131399
0.0010125692
0.0010119547
0.0010112944
0.0010105856
0.0010098236
0.0010090027
0.0010081128
0.0010071323
0.0010060597
0.0010050876
0.0010043189
0.0010036837
0.0010031058
0.0010024974
0.0010018604
0.0010013211
0.0010008689
0.0010000343
1.5394507e-07
8.0336944e-06
6.7111346e-06
7.3299575e-06
5.0901587e-06
5.8480461e-06
5.202613e-06
5.806232e-06
6.5688456e-06
6.1616891e-06
6.1177304e-06
5.7834516e-06
5.6210888e-06
5.4999317e-06
5.4365924e-06
5.4151196e-06
5.4311212e-06
5.4821573e-06
5.5653813e-06
5.6811648e-06
5.8288341e-06
6.0103227e-06
6.202128e-06
6.4529048e-06
6.7472402e-06
7.089288e-06
7.4860856e-06
7.9451642e-06
8.475098e-06
9.0878336e-06
9.7976668e-06
1.0622794e-05
1.1585213e-05
1.2709121e-05
1.4027459e-05
1.5580071e-05
1.7417154e-05
1.9600729e-05
2.2208579e-05
2.5335904e-05
2.9099442e-05
3.3644682e-05
3.9154896e-05
4.5844328e-05
5.3983695e-05
6.3909763e-05
7.6041006e-05
9.0883317e-05
0.00011002023
0.00013244963
0.00015996918
0.00019376516
0.00023754502
0.00028893549
0.00035214845
0.00042996239
0.000525798
0.00064388254
0.00078944611
0.00096894665
0.0010132108
0.0010126401
0.0010120257
0.0010113708
0.0010106741
0.0010099324
0.0010091409
0.001008293
0.0010073808
0.0010063929
0.0010053247
0.0010044453
0.0010037441
0.0010031751
0.0010026781
0.001002162
0.0010015967
0.0010011077
0.0010008172
0.001000019
1.433431e-07
7.9621382e-06
5.3781127e-06
6.3969209e-06
4.5317689e-06
5.16419e-06
4.8290538e-06
5.1632904e-06
5.7448359e-06
5.2591391e-06
5.1680281e-06
4.922922e-06
4.799325e-06
4.7180339e-06
4.6842968e-06
4.6871785e-06
4.722959e-06
4.7901664e-06
4.8867136e-06
4.9946499e-06
5.1458287e-06
5.3306688e-06
5.5514262e-06
5.8110504e-06
6.113803e-06
6.4642214e-06
6.8692646e-06
7.3370886e-06
7.8764891e-06
8.4995683e-06
9.2207367e-06
1.0058405e-05
1.098502e-05
1.2115654e-05
1.3442801e-05
1.5007007e-05
1.6859747e-05
1.906433e-05
2.1700678e-05
2.4867308e-05
2.8684648e-05
3.3555245e-05
3.9207837e-05
4.6079899e-05
5.445094e-05
6.4666673e-05
7.7164655e-05
9.2471954e-05
0.000111234
0.00013548398
0.00016392911
0.00019887743
0.00024183714
0.00029750006
0.00036293473
0.00044348236
0.00054267939
0.00066488592
0.00081549257
0.0010011208
0.001012756
0.0010121391
0.001011482
0.0010107871
0.0010100537
0.0010092791
0.0010084577
0.0010075823
0.0010066443
0.0010056474
0.0010046398
0.0010038463
0.0010032109
0.001002703
0.0010022799
0.001001857
0.0010013779
0.0010009524
0.001000742
0.0010000734
1.3388219e-07
7.8311599e-06
4.3605325e-06
5.5664057e-06
4.0321862e-06
4.5549134e-06
4.5009563e-06
4.465121e-06
4.9131838e-06
4.4537762e-06
4.3443473e-06
4.1727538e-06
4.0859814e-06
4.0391535e-06
4.0323231e-06
4.0577553e-06
4.1124282e-06
4.1789313e-06
4.2839033e-06
4.418911e-06
4.5848065e-06
4.7831054e-06
5.0167527e-06
5.2889045e-06
5.6043887e-06
5.9680082e-06
6.3867867e-06
6.8485713e-06
7.3981951e-06
8.0321918e-06
8.7650079e-06
9.615062e-06
1.0604873e-05
1.1762743e-05
1.3122435e-05
1.4725777e-05
1.6626516e-05
1.8890263e-05
2.1600008e-05
2.4859124e-05
2.8793396e-05
3.3561351e-05
3.9354705e-05
4.6409613e-05
5.5017061e-05
6.608538e-05
7.9057629e-05
9.4957265e-05
0.00011445998
0.000138399
0.00016937678
0.00020575889
0.00025049659
0.00030552145
0.00037679337
0.00046070515
0.00056403476
0.00069130612
0.00084811566
0.0010129381
0.0010122968
0.0010116346
0.001010936
0.0010102017
0.0010094318
0.0010086238
0.0010077721
0.0010068697
0.0010059095
0.0010048951
0.0010040069
0.0010032952
0.0010027249
0.0010022746
0.0010019153
0.0010015749
0.0010011865
0.0010008331
0.0010006215
0.0010000864
1.2548526e-07
7.5066141e-06
3.6556744e-06
4.8291425e-06
3.5869602e-06
4.0147503e-06
3.9886978e-06
3.8330976e-06
4.1118998e-06
3.7416224e-06
3.6381511e-06
3.5251866e-06
3.4729052e-06
3.4564895e-06
3.4742689e-06
3.5077754e-06
3.5744948e-06
3.6702176e-06
3.7941493e-06
3.946534e-06
4.1288526e-06
4.3431431e-06
4.5927716e-06
4.8811825e-06
5.2016807e-06
5.5792509e-06
6.0124266e-06
6.5093285e-06
7.0801694e-06
7.7371135e-06
8.4949754e-06
9.3729093e-06
1.0394344e-05
1.1588637e-05
1.2991861e-05
1.464735e-05
1.6611684e-05
1.8953516e-05
2.1759176e-05
2.5138098e-05
2.9220985e-05
3.4174187e-05
4.0201709e-05
4.7550022e-05
5.6526172e-05
6.750686e-05
8.1674625e-05
9.8293616e-05
0.00011868688
0.00014373697
0.0001745061
0.0002143438
0.00026119506
0.00031883521
0.00038975302
0.00048154673
0.00058978276
0.00072306937
0.00088724802
0.001012506
0.0010118297
0.0010111247
0.0010103863
0.0010096136
0.0010088069
0.0010079651
0.0010070826
0.0010061524
0.0010051811
0.0010042064
0.0010034245
0.0010027939
0.0010022883
0.0010018941
0.0010015899
0.0010013121
0.001000996
0.0010007164
0.0010005775
0.0010000827
1.1823009e-07
7.0987377e-06
3.2100789e-06
4.1751556e-06
3.1903576e-06
3.3866011e-06
3.5349644e-06
3.2540179e-06
3.3874721e-06
3.1230226e-06
3.0403547e-06
2.973708e-06
2.9527364e-06
2.963481e-06
2.98877e-06
3.0509081e-06
3.1408567e-06
3.2574312e-06
3.4007449e-06
3.5717725e-06
3.7725393e-06
4.0053647e-06
4.2657084e-06
4.5709565e-06
4.9202745e-06
5.3193585e-06
5.7750561e-06
6.2957735e-06
6.8919233e-06
7.5764334e-06
8.3645802e-06
9.2763197e-06
1.0336128e-05
1.1574816e-05
1.2974647e-05
1.4679308e-05
1.6703748e-05
1.9120173e-05
2.2151296e-05
2.5675223e-05
2.9937943e-05
3.5113609e-05
4.141966e-05
4.911562e-05
5.8523924e-05
7.004368e-05
8.4164398e-05
0.00010148663
0.00012384457
0.00015017958
0.0001825403
0.00022232244
0.00027381374
0.00033446665
0.00040909875
0.00050583359
0.00061973436
0.00075997692
0.00093268135
0.0010120659
0.0010113535
0.0010106083
0.0010098317
0.0010090221
0.0010081789
0.001007302
0.0010063892
0.0010054335
0.0010044436
0.0010035826
0.0010028947
0.0010023411
0.0010018993
0.0010015602
0.0010013049
0.0010010755
0.0010008133
0.0010005896
0.0010004949
0.0010001294
1.1237647e-07
6.1351312e-06
2.8290803e-06
3.5814082e-06
2.8462209e-06
2.8074583e-06
3.0836331e-06
2.7299288e-06
2.7657296e-06
2.5947049e-06
2.5395995e-06
2.5104936e-06
2.510217e-06
2.5384627e-06
2.5980177e-06
2.6848298e-06
2.7970228e-06
2.9344312e-06
3.0979203e-06
3.2889059e-06
3.5046341e-06
3.7561635e-06
4.0435929e-06
4.3709834e-06
4.7431871e-06
5.1660887e-06
5.6468446e-06
6.194181e-06
6.818829e-06
7.5176054e-06
8.3345505e-06
9.277979e-06
1.0373356e-05
1.1652583e-05
1.3155559e-05
1.4932164e-05
1.7044066e-05
1.9568457e-05
2.2601118e-05
2.6260376e-05
3.0693146e-05
3.6340336e-05
4.2964477e-05
5.1057334e-05
6.0957906e-05
7.3087504e-05
8.7964148e-05
0.00010622526
0.00012983509
0.00015761449
0.000191763
0.00023375152
0.00028816845
0.00035220134
0.00043100809
0.00052801031
0.0006535492
0.00080164769
0.00098399409
0.0010116176
0.0010108685
0.0010100857
0.0010092724
0.0010084272
0.0010075488
0.0010066361
0.0010056904
0.0010047232
0.0010037693
0.0010030194
0.001002417
0.0010019348
0.0010015543
0.0010012683
0.0010010559
0.0010008629
0.0010006448
0.0010004791
0.0010004118
0.0010001623
1.074975e-07
4.2817911e-06
2.4835711e-06
3.0313574e-06
2.4148703e-06
2.3219966e-06
2.6113403e-06
2.2638986e-06
2.2485439e-06
2.1499714e-06
2.1252956e-06
2.1214322e-06
2.1490218e-06
2.2075173e-06
2.2928843e-06
2.4028018e-06
2.5366095e-06
2.6948242e-06
2.8760817e-06
3.0864607e-06
3.3269773e-06
3.6004852e-06
3.9104559e-06
4.2611098e-06
4.6575341e-06
5.1058575e-06
5.6135163e-06
6.1801964e-06
6.8321775e-06
7.5767852e-06
8.431222e-06
9.4168517e-06
1.0560598e-05
1.1896271e-05
1.3466255e-05
1.5323375e-05
1.7533291e-05
2.0177692e-05
2.3358214e-05
2.7200959e-05
3.1862181e-05
3.7534516e-05
4.4787003e-05
5.3318041e-05
6.3761909e-05
7.6563997e-05
9.2272406e-05
0.00011156283
0.0001352679
0.0001658882
0.00020199299
0.00024639854
0.00030103275
0.00037172502
0.00045510325
0.00055774505
0.00069068948
0.00084745456
0.0010119362
0.0010111623
0.0010103766
0.0010095589
0.0010087104
0.0010078303
0.0010069184
0.0010059734
0.0010049946
0.001004006
0.0010031787
0.0010025172
0.0010019911
0.0010015733
0.0010012499
0.0010010136
0.0010008395
0.0010006742
0.0010004866
0.0010003716
0.0010003435
0.0010001866
1.0230391e-07
3.5316697e-06
2.1240702e-06
2.5258104e-06
2.0615623e-06
1.9164209e-06
2.1271655e-06
1.8557462e-06
1.8282116e-06
1.7845971e-06
1.7861678e-06
1.8131096e-06
1.8722572e-06
1.9573561e-06
2.0660389e-06
2.1974335e-06
2.3517851e-06
2.5282458e-06
2.731618e-06
2.963018e-06
3.2249793e-06
3.5205722e-06
3.8534668e-06
4.2280445e-06
4.6495649e-06
5.1243748e-06
5.6538371e-06
6.257324e-06
6.9421689e-06
7.7227774e-06
8.6172676e-06
9.6482552e-06
1.0844184e-05
1.2240812e-05
1.3883147e-05
1.582754e-05
1.8143958e-05
2.0919112e-05
2.426085e-05
2.8302463e-05
3.3209401e-05
3.9469938e-05
4.6829432e-05
5.5830116e-05
6.685606e-05
8.0378094e-05
9.6976021e-05
0.00011736446
0.00014374379
0.0001748
0.00021298756
0.0002599671
0.00031778117
0.00039260354
0.00048086493
0.00058954175
0.00073037169
0.00089645425
0.0010114956
0.0010107007
0.0010098816
0.0010090319
0.0010081504
0.0010072366
0.0010062907
0.0010053164
0.0010043282
0.0010033866
0.001002658
0.0010020764
0.0010016166
0.0010012562
0.0010009841
0.0010007919
0.0010006511
0.0010005111
0.0010003552
0.0010002824
0.0010002855
0.0010001829
9.8490575e-08
2.8201776e-06
1.8128073e-06
2.0190558e-06
1.76961e-06
1.5696708e-06
1.6806386e-06
1.5102228e-06
1.4974761e-06
1.4973392e-06
1.525586e-06
1.5854842e-06
1.6711218e-06
1.7790181e-06
1.908258e-06
2.0590584e-06
2.2313559e-06
2.4282914e-06
2.6514363e-06
2.9031151e-06
3.1861063e-06
3.5036583e-06
3.8595756e-06
4.2583588e-06
4.7054017e-06
5.2036453e-06
5.7664259e-06
6.4011933e-06
7.1199803e-06
7.9378827e-06
8.8740589e-06
9.952446e-06
1.1203176e-05
1.2664082e-05
1.4382746e-05
1.6419006e-05
1.884767e-05
2.1760578e-05
2.5272417e-05
2.9524376e-05
3.49198e-05
4.1268719e-05
4.902318e-05
5.8513527e-05
7.0144667e-05
8.4415181e-05
0.00010193805
0.00012346925
0.00015129137
0.00018409172
0.00022443664
0.00027408206
0.00033519375
0.00041425314
0.0005075857
0.00062254233
0.00077152921
0.00094734171
0.0010110531
0.0010102363
0.0010093886
0.0010085106
0.0010075998
0.0010066556
0.0010056785
0.0010046742
0.001003676
0.0010028623
0.0010022102
0.0010016963
0.0010012936
0.0010009836
0.001000756
0.0010006007
0.0010004863
0.0010003681
0.0010002433
0.0010002069
0.0010002363
0.0010001778
9.625931e-08
2.1995081e-06
1.5422071e-06
1.5375622e-06
1.5004687e-06
1.2733674e-06
1.3174252e-06
1.2345578e-06
1.2493357e-06
1.2799779e-06
1.3415264e-06
1.4273267e-06
1.5343434e-06
1.6612404e-06
1.808269e-06
1.9764373e-06
2.1665896e-06
2.3817213e-06
2.6236549e-06
2.8949367e-06
3.1984882e-06
3.5376746e-06
3.9164011e-06
4.3392647e-06
4.8117628e-06
5.3405783e-06
5.9339482e-06
6.6021099e-06
7.3493482e-06
8.2050449e-06
9.183568e-06
1.0310263e-05
1.1617071e-05
1.3144096e-05
1.4941545e-05
1.7141876e-05
1.9704596e-05
2.2781265e-05
2.6494037e-05
3.09936e-05
3.6465539e-05
4.3138057e-05
5.1293043e-05
6.1277421e-05
7.3518374e-05
8.8542242e-05
0.00010699638
0.00013081102
0.00015890591
0.00019345485
0.00023596102
0.00028827832
0.00035603297
0.0004359482
0.00053437682
0.00065566048
0.00081280165
0.00099844907
0.0010106162
0.0010097767
0.0010089046
0.0010080025
0.0010070668
0.0010060968
0.0010050955
0.001004083
0.0010031508
0.0010024198
0.0010018356
0.0010013763
0.0010010208
0.0010007548
0.0010005634
0.0010004381
0.0010003439
0.0010002436
0.0010001471
0.0010001403
0.0010001914
0.0010001718
9.6396637e-08
1.6704692e-06
1.3138914e-06
1.1691817e-06
1.229957e-06
1.0254328e-06
1.0508625e-06
1.0308219e-06
1.0739855e-06
1.13405e-06
1.2196591e-06
1.3250255e-06
1.4490584e-06
1.5918918e-06
1.7545768e-06
1.9386095e-06
2.1455082e-06
2.3778518e-06
2.6378093e-06
2.9280373e-06
3.2515417e-06
3.6117644e-06
4.0126942e-06
4.4590265e-06
4.9563835e-06
5.511611e-06
6.1331777e-06
6.8316722e-06
7.6204236e-06
8.5162872e-06
9.5405694e-06
1.0720258e-05
1.2089363e-05
1.3690658e-05
1.5577696e-05
1.7817294e-05
2.0492597e-05
2.370706e-05
2.7588697e-05
3.2295966e-05
3.8024563e-05
4.5015183e-05
5.3562125e-05
6.4029878e-05
7.6866016e-05
9.3388911e-05
0.00011289003
0.00013685113
0.0001663101
0.00020254781
0.00024714271
0.00030487754
0.00037298154
0.00045685916
0.00056021298
0.00069430354
0.00085257836
0.0010110549
0.0010101972
0.0010093333
0.0010084394
0.0010075167
0.0010065616
0.0010055731
0.0010045566
0.0010035482
0.0010027264
0.0010020607
0.0010015319
0.0010011157
0.0010007954
0.0010005647
0.0010004015
0.0010002984
0.0010002199
0.0010001366
0.0010000671
0.001000083
0.0010001506
0.0010001585
9.9705123e-08
1.2387755e-06
1.1248474e-06
8.9986603e-07
1.0722595e-06
8.2095098e-07
8.678591e-07
8.9265854e-07
9.5860369e-07
1.0417789e-06
1.1447995e-06
1.2651881e-06
1.4033059e-06
1.560138e-06
1.7371488e-06
1.9360533e-06
2.1588006e-06
2.4074159e-06
2.6845352e-06
2.9927915e-06
3.3352535e-06
3.7154341e-06
4.1374083e-06
4.6059796e-06
5.1269089e-06
5.7072234e-06
6.3556346e-06
7.0831065e-06
7.9034844e-06
8.8343542e-06
9.8979701e-06
1.1122592e-05
1.2543871e-05
1.4206666e-05
1.6167158e-05
1.8495467e-05
2.1278764e-05
2.4625119e-05
2.8668193e-05
3.3573026e-05
3.9813244e-05
4.7158903e-05
5.6139379e-05
6.7136857e-05
8.0620912e-05
9.7169699e-05
0.00011749562
0.00014247672
0.00017319248
0.00021295218
0.00025980928
0.00031748389
0.00038850826
0.00047601489
0.00058957762
0.00072358669
0.00088889775
0.0010106818
0.0010098082
0.0010089221
0.0010080078
0.0010070654
0.0010060924
0.001005091
0.0010040772
0.0010031307
0.0010023841
0.001001777
0.0010012935
0.0010009119
0.0010006223
0.0010004082
0.0010002658
0.001000175
0.0010001073
0.001000041
0.00099999834
0.001000031
0.0010001061
0.0010001304
1.0629234e-07
9.5818484e-07
9.6000519e-07
7.6103124e-07
7.642866e-07
7.0011784e-07
7.4531314e-07
8.0524523e-07
8.8845528e-07
9.8776552e-07
1.1038674e-06
1.2366552e-06
1.387181e-06
1.5567566e-06
1.7469711e-06
1.9595977e-06
2.1966174e-06
2.4602357e-06
2.7529219e-06
3.0774538e-06
3.4369832e-06
3.8351246e-06
4.2760797e-06
4.7648144e-06
5.3073036e-06
5.9087382e-06
6.5812226e-06
7.3347414e-06
8.1910076e-06
9.1568156e-06
1.0260463e-05
1.1531599e-05
1.3007598e-05
1.4735426e-05
1.6773857e-05
1.9196139e-05
2.2093262e-05
2.5577943e-05
2.9789486e-05
3.48998e-05
4.1120789e-05
4.8713473e-05
5.7999034e-05
6.9370856e-05
8.3314955e-05
0.00010042896
0.00012253034
0.00014856398
0.00018056536
0.00021992592
0.00026836273
0.00032799941
0.00040146125
0.00049667457
0.00060912236
0.00074782361
0.00091902768
0.001010351
0.001009463
0.001008559
0.0010076283
0.0010066696
0.0010056806
0.001004666
0.001003658
0.0010028047
0.0010021128
0.0010015542
0.0010011076
0.0010007523
0.0010004883
0.0010002877
0.0010001549
0.001000068
0.0010000052
0.00099995371
0.0009999366
0.00099998674
0.0010000694
0.0010000935
1.2084255e-07
9.6275731e-07
8.0100562e-07
5.641812e-07
6.072901e-07
6.1018245e-07
6.7363525e-07
7.5235169e-07
8.4907325e-07
9.6054641e-07
1.0877505e-06
1.2315043e-06
1.3930949e-06
1.5739287e-06
1.7756199e-06
1.9999655e-06
2.2489741e-06
2.5248918e-06
2.8302377e-06
3.1678494e-06
3.5409433e-06
3.9532018e-06
4.4088966e-06
4.9130663e-06
5.4717674e-06
6.0924198e-06
6.7842635e-06
7.558946e-06
8.4312662e-06
9.4200647e-06
1.0549293e-05
1.1849355e-05
1.3358628e-05
1.5125351e-05
1.7209867e-05
1.9687352e-05
2.2651131e-05
2.6216705e-05
3.0526693e-05
3.5756896e-05
4.2123854e-05
5.0251677e-05
5.9827402e-05
7.1550644e-05
8.5921491e-05
0.00010355455
0.00012520759
0.00015181523
0.00018453095
0.00022477734
0.00027431594
0.00033841955
0.00041413149
0.00050744158
0.00062251927
0.00076454771
0.00093996963
0.0010100784
0.0010091764
0.0010082565
0.0010073125
0.0010063434
0.0010053486
0.0010043346
0.0010033406
0.0010025517
0.0010019028
0.0010013799
0.001000961
0.0010006285
0.0010003879
0.0010001948
0.0010000699
0.00099998437
0.00099992416
0.00099988341
0.00099988258
0.0009999426
0.0010000296
0.0010000541
1.1078819e-07
6.2145628e-07
6.350715e-07
4.6719471e-07
5.0951182e-07
5.5520535e-07
6.3379153e-07
7.2613683e-07
8.3352906e-07
9.5529503e-07
1.0925041e-06
1.2462042e-06
1.4177091e-06
1.6084791e-06
1.8201613e-06
2.0545987e-06
2.3138545e-06
2.6002042e-06
2.9162788e-06
3.264965e-06
3.6495487e-06
4.0737828e-06
4.5420112e-06
5.0593482e-06
5.6319335e-06
6.2672838e-06
6.9747593e-06
7.7661679e-06
8.6636241e-06
9.6752767e-06
1.0830438e-05
1.2160282e-05
1.3704095e-05
1.5511225e-05
1.7643337e-05
2.0177212e-05
2.3208101e-05
2.6853859e-05
3.1259993e-05
3.6605855e-05
4.3112227e-05
5.1050556e-05
6.0754302e-05
7.2634747e-05
8.719744e-05
0.00010506541
0.00012700684
0.00015532087
0.00018871766
0.00022979209
0.00028034187
0.00034258878
0.00041928577
0.0005138483
0.00063052122
0.00077458993
0.00095263168
0.0010098874
0.0010089725
0.0010080366
0.0010070757
0.0010060896
0.001005081
0.0010040663
0.0010031207
0.0010023703
0.0010017526
0.0010012541
0.0010008542
0.0010005373
0.0010003147