/*--------------------------------*- C++ -*----------------------------------*\
  =========                 |
  \\      /  F ield         | OpenFOAM: The Open Source CFD Toolbox
   \\    /   O peration     | Website:  https://openfoam.org
    \\  /    A nd           | Version:  12
     \\/     M anipulation  |
\*---------------------------------------------------------------------------*/
FoamFile
{
    format      ascii;
    class       surfaceScalarField;
    location    "0.092";
    object      phi;
}
// * * * * * * * * * * * * * * * * * * * * * * * * * * * * * * * * * * * * * //

dimensions      [1 0 -1 0 0 0 0];

internalField   nonuniform List<scalar> 
31760
(
-0.00063394898
-0.050933163
0.051567463
-0.0015937917
-0.064394063
0.065354238
-0.0025770954
-0.063019734
0.064006534
-0.0035934569
-0.068704856
0.069721569
-0.0046634466
-0.070377514
0.071447943
-0.0057625062
-0.074650157
0.075749729
-0.0069302124
-0.077580683
0.078748969
-0.0081376253
-0.081593561
0.082801636
-0.0094042269
-0.085220612
0.086487925
-0.010729806
-0.089344115
0.090670478
-0.012110374
-0.093483484
0.094864889
-0.013558074
-0.097901119
0.099349715
-0.015067349
-0.10248307
0.1039933
-0.01664653
-0.10729185
0.10887205
-0.018295139
-0.1123161
0.11396578
-0.020017924
-0.11757253
0.11929645
-0.02181752
-0.12306921
0.12487
-0.023697106
-0.12881757
0.13069842
-0.025659893
-0.13482865
0.13679276
-0.02770925
-0.14111373
0.14316448
-0.029848578
-0.14768523
0.14982602
-0.032081603
-0.15455515
0.15678969
-0.034411881
-0.16173708
0.16406894
-0.036843275
-0.16924476
0.17167781
-0.039378712
-0.17709275
0.1796299
-0.042022725
-0.18529519
0.18794097
-0.044779151
-0.19386834
0.19662661
-0.047651359
-0.20282887
0.20570298
-0.05064278
-0.21219372
0.21518711
-0.053757395
-0.22198104
0.22509768
-0.056998441
-0.23220979
0.23545293
-0.060369174
-0.24289988
0.24627277
-0.06387233
-0.25407285
0.25757823
-0.067510868
-0.26574992
0.26939074
-0.071286685
-0.27795526
0.28173344
-0.07520134
-0.29071327
0.29463036
-0.079256052
-0.30404979
0.30810702
-0.083451177
-0.31799268
0.32219042
-0.087786403
-0.33257007
0.33690803
-0.092260283
-0.34781363
0.35229036
-0.096870676
-0.36375531
0.36836868
-0.10161401
-0.38042912
0.38517558
-0.10648554
-0.39787138
0.40274618
-0.1114793
-0.41612026
0.42111745
-0.11658741
-0.43521643
0.44032816
-0.12180058
-0.4552019
0.46041889
-0.12710711
-0.47612199
0.48143257
-0.13249395
-0.49802349
0.50341465
-0.13794549
-0.52095696
0.52641311
-0.14344338
-0.54497468
0.55047748
-0.14896653
-0.57013159
0.57565997
-0.15449146
-0.59648626
0.60201675
-0.15999082
-0.62409963
0.62960491
-0.16543375
-0.65303592
0.65848512
-0.17078588
-0.68336234
0.68872113
-0.17600745
-0.71515028
0.72037889
-0.18105458
-0.7484737
0.75352824
-0.18587803
-0.78341031
0.78824155
-0.19042162
-0.8200418
0.82459358
-0.1946233
-0.85845304
0.86266335
-0.19841308
-0.89873245
0.90253142
-0.20171318
-0.94097198
0.94428204
-0.20443632
-0.98526793
0.9880021
-0.20648518
-1.0317204
1.0337818
-0.20775102
-1.0804318
1.0817125
-0.20811297
-1.1315087
1.1318884
-0.20743481
-1.1850581
1.1844012
-0.20557115
-1.2411859
1.2393477
-0.20235567
-1.3000041
1.2968183
-0.19760284
-1.3616241
1.3569054
-0.19111273
-1.4261598
1.419708
-0.18266752
-1.4937232
1.4853208
-0.17201457
-1.5644256
1.5538207
-0.15888999
-1.638363
1.6252927
-0.14298733
-1.7156424
1.6998003
-0.12395411
-1.7964479
1.7774793
-0.1015322
-1.8810046
1.8586471
-0.075073538
-1.9693483
1.9429472
-0.044417141
-2.062331
2.0317141
-2.1594013
2.1240299
-0.00063033156
-0.050302107
-0.001496361
-0.063527476
-0.0023835815
-0.062133995
-0.0033404142
-0.067747202
-0.0043072485
-0.069409831
-0.0053517145
-0.073604816
-0.0064107077
-0.076520775
-0.0075497817
-0.080453535
-0.0087142324
-0.084055173
-0.0099529841
-0.088104333
-0.011234357
-0.092201038
-0.012582997
-0.096551356
-0.013988787
-0.10107611
-0.015460859
-0.10581856
-0.016999364
-0.11077632
-0.018608452
-0.11596211
-0.020290296
-0.12138596
-0.022048653
-0.12705775
-0.023886726
-0.13298905
-0.025808078
-0.13919079
-0.027816349
-0.1456753
-0.029914767
-0.152455
-0.032107413
-0.15954263
-0.034397948
-0.16695235
-0.036791138
-0.17469761
-0.03928976
-0.18279454
-0.041898473
-0.19125754
-0.044620974
-0.2001042
-0.047461503
-0.20935096
-0.050423589
-0.21901664
-0.053511264
-0.22911973
-0.056727809
-0.23968087
-0.060076473
-0.25072165
-0.063560181
-0.2622636
-0.067181293
-0.27433146
-0.070942061
-0.28694972
-0.074843576
-0.3001454
-0.078887263
-0.31394601
-0.083072381
-0.32838186
-0.087398436
-0.34348436
-0.09186373
-0.35928667
-0.096465065
-0.3758243
-0.10119797
-0.39313483
-0.10605726
-0.41125714
-0.11103574
-0.4302339
-0.11612474
-0.45010862
-0.12131391
-0.47092826
-0.12659051
-0.49274202
-0.13194017
-0.51560209
-0.13734626
-0.539563
-0.14278935
-0.56468249
-0.14824736
-0.59102179
-0.15369509
-0.61864496
-0.15910425
-0.64761928
-0.16444284
-0.67801573
-0.16967467
-0.70990987
-0.1747594
-0.74337982
-0.17965166
-0.77850834
-0.18430026
-0.81538291
-0.18864847
-0.85409388
-0.19263235
-0.89473687
-0.19618059
-0.93741107
-0.19921312
-0.9822214
-0.20164176
-1.0292759
-0.20336696
-1.0786883
-0.20427938
-1.1305747
-0.20425335
-1.1850585
-0.20315365
-1.2422554
-0.20082998
-1.3022927
-0.19711503
-1.3652992
-0.19182696
-1.4314032
-0.18476122
-1.5007393
-0.17569277
-1.5734386
-0.16437042
-1.6496234
-0.15051781
-1.7294269
-0.13383107
-1.8130626
-0.1140114
-1.9007531
-0.090583299
-1.9927134
-0.063251945
-2.0896171
-2.1909899
-0.00056898534
-0.049732346
-0.0013768722
-0.062718847
-0.0021834893
-0.061326329
-0.0030834446
-0.066846404
-0.003971872
-0.068520526
-0.004947006
-0.072628763
-0.005923085
-0.075543734
-0.0069827878
-0.079392823
-0.0080612134
-0.082975694
-0.0092124542
-0.086951987
-0.010403139
-0.091009196
-0.011657612
-0.095295671
-0.012966721
-0.099765731
-0.014338786
-0.10444516
-0.015774445
-0.10933927
-0.017277274
-0.11445782
-0.018850603
-0.11981111
-0.02049736
-0.1254094
-0.022221794
-0.13126294
-0.024026704
-0.13738413
-0.025916553
-0.14378363
-0.027894837
-0.15047482
-0.029965406
-0.15747008
-0.032133015
-0.16478269
-0.034400901
-0.17242759
-0.03677424
-0.18041899
-0.039256443
-0.18877304
-0.041852539
-0.19750572
-0.044566037
-0.20663499
-0.04740204
-0.21617809
-0.050363605
-0.22615554
-0.053455004
-0.23658676
-0.056679983
-0.24749387
-0.060041162
-0.25889952
-0.06354206
-0.27082756
-0.06718477
-0.28330391
-0.070971454
-0.29635551
-0.074902545
-0.3100116
-0.078978972
-0.324302
-0.083200134
-0.33925964
-0.08756415
-0.35491895
-0.092068809
-0.37131578
-0.096710637
-0.38848897
-0.10148407
-0.40647947
-0.10638301
-0.4253305
-0.1113994
-0.44508751
-0.11652391
-0.46579871
-0.12174456
-0.48751597
-0.12704874
-0.5102921
-0.13242078
-0.53418472
-0.13784249
-0.55925403
-0.14329447
-0.58556248
-0.14875347
-0.61317801
-0.15419364
-0.64217047
-0.15958594
-0.67261408
-0.16489758
-0.70458812
-0.17009216
-0.73817435
-0.17512773
-0.77346109
-0.17995901
-0.81053911
-0.1845337
-0.84950579
-0.18879447
-0.89046166
-0.19267639
-0.93351346
-0.19610787
-0.97877261
-0.19900808
-1.0263562
-0.20128712
-1.0763869
-0.20284392
-1.128992
-0.20357035
-1.1843018
-0.20334046
-1.2424501
-0.20201517
-1.3035775
-0.19944773
-1.3678208
-0.1954671
-1.4353325
-0.18989387
-1.5062554
-0.1825182
-1.5807509
-0.17311416
-1.6589573
-0.16142442
-1.7410404
-0.14717865
-1.8272289
-0.13008368
-1.9177707
-0.10976076
-2.012968
-0.085880388
-2.1134468
-2.2187023
-0.00051329842
-0.049218296
-0.0012609399
-0.061970491
-0.001993371
-0.06059283
-0.0028413205
-0.065997627
-0.003664269
-0.067696688
-0.0045733965
-0.071718706
-0.0054732077
-0.074642934
-0.0064601865
-0.078404802
-0.0074591112
-0.081975674
-0.0085301758
-0.08587977
-0.0096375796
-0.089900582
-0.010805879
-0.094126099
-0.012026957
-0.098543317
-0.013308126
-0.10316259
-0.014651041
-0.10799488
-0.016059458
-0.11304786
-0.017536666
-0.11833229
-0.019086029
-0.12385835
-0.020711008
-0.1296362
-0.022415939
-0.13567736
-0.024203976
-0.14199367
-0.026080166
-0.14859662
-0.028048399
-0.15549976
-0.030112643
-0.16271627
-0.03227803
-0.17025994
-0.034548487
-0.17814617
-0.036929024
-0.18639005
-0.039423948
-0.19500826
-0.042038676
-0.20401763
-0.044776522
-0.21343751
-0.047642571
-0.22328666
-0.050641133
-0.23358527
-0.053775841
-0.24435613
-0.057050512
-0.25562171
-0.060468485
-0.26740634
-0.064032135
-0.2797369
-0.067743597
-0.29264057
-0.071604698
-0.3061469
-0.075615698
-0.32028727
-0.079776545
-0.33509491
-0.08408654
-0.35060492
-0.088542908
-0.36685521
-0.093142742
-0.38388474
-0.097881579
-0.40173602
-0.10275339
-0.42045381
-0.1077516
-0.44008413
-0.11286643
-0.46067837
-0.11808889
-0.48228762
-0.12340613
-0.50496852
-0.12880449
-0.52877951
-0.13426829
-0.5537828
-0.13977891
-0.58004377
-0.14531613
-0.60763195
-0.15085713
-0.63661981
-0.15637492
-0.66708575
-0.16184124
-0.69911032
-0.16722274
-0.73278036
-0.17248271
-0.76818756
-0.17758016
-0.80542701
-0.18246878
-0.84460131
-0.18709702
-0.88581622
-0.19140709
-0.92918461
-0.19533483
-0.97482412
-0.19880797
-1.0228598
-0.20174616
-1.0734224
-0.20406165
-1.1266463
-0.20564923
-1.1826793
-0.20640327
-1.2416559
-0.20619584
-1.3037391
-0.2048959
-1.3690689
-0.20235266
-1.4378178
-0.19839262
-1.5101512
-0.19284002
-1.5862323
-0.18548017
-1.666239
-0.17608665
-1.7503498
-0.16441545
-1.8388132
-0.15019048
-1.9319117
-0.13308766
-2.0299975
-0.11279575
-2.1336836
-2.2424395
-0.00045852213
-0.048758999
-0.0011593532
-0.061268931
-0.0018141389
-0.059937315
-0.0026063732
-0.065204535
-0.0033556061
-0.066946521
-0.0042072276
-0.070866116
-0.0050405494
-0.073808587
-0.0059624143
-0.077481859
-0.0068904334
-0.081046523
-0.0078889012
-0.084880113
-0.0089225298
-0.088865705
-0.010014542
-0.093032777
-0.011159002
-0.097397482
-0.012362108
-0.10195804
-0.013626241
-0.10672924
-0.014954497
-0.11171802
-0.016350629
-0.11693449
-0.017818405
-0.12238883
-0.019361514
-0.12809127
-0.020983976
-0.13405299
-0.022690496
-0.14028516
-0.024484406
-0.14680063
-0.026371209
-0.15361079
-0.028355474
-0.16072974
-0.030441704
-0.16817135
-0.032635157
-0.17595026
-0.034941022
-0.18408163
-0.037364214
-0.19258241
-0.039909632
-0.20146945
-0.042582453
-0.21076182
-0.045387523
-0.22047861
-0.048329284
-0.23064041
-0.051412057
-0.24127014
-0.05464016
-0.25239028
-0.058016714
-0.26402634
-0.061544758
-0.27620527
-0.06522675
-0.28895486
-0.069064539
-0.30230525
-0.073058821
-0.31628898
-0.077209925
-0.33093965
-0.081516738
-0.34629378
-0.085978011
-0.36238941
-0.09059038
-0.37926762
-0.095350075
-0.39697133
-0.10025255
-0.41554606
-0.10529072
-0.43504036
-0.1104573
-0.45550583
-0.11574305
-0.47699548
-0.12113717
-0.49956752
-0.12662803
-0.5232812
-0.13220106
-0.54820167
-0.13784075
-0.57439524
-0.14352899
-0.60193404
-0.14924538
-0.6308928
-0.15496755
-0.66135194
-0.16066967
-0.69339542
-0.16632255
-0.7271135
-0.17189485
-0.76259999
-0.17734996
-0.79995522
-0.18264794
-0.83928512
-0.18774306
-0.88070118
-0.19258482
-0.92432094
-0.19711631
-0.97026838
-0.2012744
-1.0186747
-0.20498833
-1.0696779
-0.20817771
-1.1234221
-0.21075761
-1.1800597
-0.21262255
-1.2397457
-0.21367256
-1.3026377
-0.21377548
-1.3689082
-0.21280547
-1.4387234
-0.21061152
-1.5122736
-0.20702803
-1.589737
-0.20186835
-1.6713126
-0.1949246
-1.7572017
-0.18597672
-1.8476672
-0.17478766
-1.943011
-0.16105442
-2.0436529
-0.14451351
-2.1501658
-2.2620449
-0.00040874086
-0.048349483
-0.0010684525
-0.06060848
-0.0016610799
-0.05934383
-0.0023955381
-0.064469211
-0.0030694251
-0.066271693
-0.0038698595
-0.070064711
-0.0046365737
-0.073040846
-0.0054992907
-0.076618062
-0.0063643539
-0.080180323
-0.0073013291
-0.083941943
-0.0082749183
-0.087890861
-0.0093048531
-0.092001523
-0.010387508
-0.096313442
-0.01152755
-0.10081655
-0.012727809
-0.10552745
-0.013992136
-0.11045209
-0.015324023
-0.11560093
-0.016727332
-0.12098376
-0.018206551
-0.12661021
-0.019765652
-0.13249196
-0.021409715
-0.13863908
-0.023143534
-0.1450647
-0.024972231
-0.15177988
-0.026900887
-0.15879877
-0.028935093
-0.16613473
-0.031080635
-0.17380221
-0.033342216
-0.18181742
-0.03572611
-0.19019578
-0.03823758
-0.19895512
-0.040881967
-0.20811446
-0.043664817
-0.21769266
-0.046590662
-0.22771135
-0.049664848
-0.23819261
-0.052890621
-0.24916103
-0.056272436
-0.26064091
-0.059813572
-0.27266038
-0.063516177
-0.28524835
-0.067382182
-0.29843518
-0.071413081
-0.31225385
-0.075608887
-0.32673942
-0.07996944
-0.34192861
-0.084492683
-0.35786133
-0.089176834
-0.37457839
-0.094018588
-0.39212421
-0.099012824
-0.41054615
-0.1041544
-0.42989275
-0.10943752
-0.45021629
-0.11485325
-0.47157285
-0.1203936
-0.49401974
-0.1260471
-0.51761966
-0.13180308
-0.54243694
-0.1376475
-0.56854127
-0.14356526
-0.5960058
-0.14953924
-0.62490731
-0.15555005
-0.65532845
-0.16157594
-0.68735558
-0.1675932
-0.72108089
-0.17357379
-0.75660251
-0.1794873
-0.79402315
-0.18529879
-0.83345321
-0.19097016
-0.87500731
-0.19645756
-0.91880866
-0.20171235
-0.96498593
-0.20667966
-1.0136764
-0.21129812
-1.0650246
-0.21549887
-1.119182
-0.219205
-1.176309
-0.22233282
-1.2365675
-0.22478085
-1.3001328
-0.22644924
-1.3671761
-0.22721554
-1.4378861
-0.22695112
-1.5124595
-0.22551001
-1.5910918
-0.22272411
-1.6740049
-0.21840866
-1.761418
-0.21237193
-1.8536036
-0.20439623
-1.9508918
-0.19422715
-2.0537409
-0.18163743
-2.1626939
-2.2773384
-0.00036643493
-0.047982285
-0.00099542893
-0.059978757
-0.0015331683
-0.058805258
-0.0022203509
-0.063781176
-0.0028350496
-0.065656075
-0.0035879244
-0.069310875
-0.0042992042
-0.07232855
-0.0051007491
-0.075815449
-0.005924162
-0.079355784
-0.0068150572
-0.083049861
-0.0077428084
-0.086961862
-0.0087233921
-0.091019627
-0.0097564294
-0.095279025
-0.010845934
-0.099725591
-0.011995958
-0.1043759
-0.013209965
-0.10923649
-0.014492804
-0.11431641
-0.015848553
-0.11962625
-0.017281999
-0.12517492
-0.018798524
-0.1309735
-0.020402716
-0.13703286
-0.022100767
-0.14336452
-0.023897873
-0.14998055
-0.025799709
-0.15689461
-0.027812611
-0.16411939
-0.029942192
-0.17167008
-0.032195319
-0.17956163
-0.034577522
-0.1878108
-0.0370945
-0.19643525
-0.03975283
-0.20545311
-0.04255748
-0.21488486
-0.045514
-0.22475154
-0.048627027
-0.23507616
-0.051901638
-0.24588284
-0.055340841
-0.25719798
-0.058948261
-0.26904907
-0.062726961
-0.28146559
-0.066678571
-0.29447934
-0.070804158
-0.30812383
-0.075104309
-0.32243463
-0.079578917
-0.33744913
-0.08422666
-0.35320847
-0.089045911
-0.36975374
-0.094033434
-0.38713098
-0.09918624
-0.40538729
-0.10449971
-0.42457283
-0.10996829
-0.44474081
-0.11558643
-0.46594732
-0.12134604
-0.48825214
-0.12723964
-0.5117174
-0.13325712
-0.53641005
-0.13938802
-0.56240007
-0.1456206
-0.58976194
-0.15194064
-0.61857485
-0.15833294
-0.64892247
-0.16477962
-0.6808938
-0.17126139
-0.71458247
-0.1777558
-0.75008971
-0.18423757
-0.78752106
-0.19067874
-0.82698956
-0.19704677
-0.86861435
-0.20330598
-0.91252176
-0.20941535
-0.95884567
-0.21532928
-1.0077279
-0.22099634
-1.0593187
-0.22635799
-1.1137766
-0.23134925
-1.1712684
-0.2358979
-1.2319633
-0.23991916
-1.2960493
-0.24332157
-1.3637042
-0.24600745
-1.435123
-0.24786097
-1.5105207
-0.24875335
-1.590106
-0.24854467
-1.6741128
-0.24706633
-1.7627909
-0.24414941
-1.8564151
-0.23961121
-1.9553315
-0.23322817
-2.0600409
-0.22481743
-2.1710411
-2.2880945
-0.00032377903
-0.047657759
-0.00092759661
-0.059374225
-0.001416346
-0.058315694
-0.0020576089
-0.063139081
-0.0026276632
-0.065085117
-0.0033523441
-0.068585248
-0.0040306792
-0.071649214
-0.0048164599
-0.075028625
-0.0056007305
-0.078570401
-0.0064459181
-0.082203504
-0.0073318627
-0.086074687
-0.008269985
-0.09008021
-0.0092628074
-0.094284841
-0.010313725
-0.098673243
-0.011427177
-0.10326095
-0.012607732
-0.10805435
-0.013859339
-0.11306314
-0.015187971
-0.11829588
-0.016598449
-0.12376261
-0.018096439
-0.12947359
-0.01968777
-0.13543951
-0.02137843
-0.14167175
-0.023174714
-0.14818205
-0.025083846
-0.15498316
-0.027111275
-0.16208954
-0.029264466
-0.16951435
-0.031549529
-0.17727391
-0.033973265
-0.18538428
-0.036542149
-0.19386346
-0.039262199
-0.20273002
-0.042139106
-0.21200477
-0.045178561
-0.22170876
-0.04838564
-0.2318656
-0.051764341
-0.24250051
-0.055318844
-0.25363967
-0.059052596
-0.26531135
-0.062967716
-0.27754631
-0.067066404
-0.29037628
-0.071349943
-0.3038357
-0.075818848
-0.3179609
-0.080472909
-0.33278998
-0.085312072
-0.34836393
-0.090334206
-0.36472592
-0.0955377
-0.38192144
-0.10092002
-0.39999853
-0.10647778
-0.41900819
-0.11220734
-0.43900387
-0.11810434
-0.46004238
-0.12416352
-0.48218438
-0.13037901
-0.50549262
-0.13674436
-0.53003458
-0.14325136
-0.555882
-0.14989154
-0.58310963
-0.15665469
-0.61179836
-0.16352965
-0.64203281
-0.17050356
-0.67390368
-0.17756112
-0.70750698
-0.18468562
-0.74294538
-0.19185791
-0.78032679
-0.19905593
-0.81976713
-0.20625469
-0.86138843
-0.21342576
-0.90532039
-0.22053653
-0.95170101
-0.22755071
-1.0006757
-0.2344261
-1.0524007
-0.24111622
-1.1070385
-0.2475673
-1.1647635
-0.25371767
-1.2257524
-0.25950065
-1.2901987
-0.26484268
-1.3582869
-0.26964939
-1.4302329
-0.27383428
-1.5062441
-0.27728337
-1.5865569
-0.27987581
-1.6714134
-0.28147121
-1.7610847
-0.28192465
-1.8558523
-0.28107418
-1.9560814
-0.27873685
-2.0622944
-0.27477587
-2.1749377
-2.2940417
-0.00028208262
-0.04737495
-0.00086693127
-0.058788681
-0.0013148235
-0.057867006
-0.0019334472
-0.062519648
-0.0024816498
-0.064536033
-0.003181643
-0.067884334
-0.0038328299
-0.070997052
-0.0045958073
-0.074264602
-0.0053505503
-0.077814573
-0.0061637932
-0.081389118
-0.007023085
-0.085214192
-0.0079350996
-0.08916693
-0.008904764
-0.093313846
-0.0099354788
-0.097641128
-0.011032326
-0.10216263
-0.012200131
-0.106885
-0.013444559
-0.11181709
-0.014771013
-0.11696771
-0.016185498
-0.12234633
-0.017694776
-0.12796243
-0.019304873
-0.13382744
-0.021023302
-0.13995124
-0.022856419
-0.14634676
-0.024811592
-0.15302571
-0.026896375
-0.16000236
-0.029117522
-0.16729069
-0.031482527
-0.17490628
-0.033998214
-0.18286584
-0.036670975
-0.19118781
-0.03950756
-0.19989041
-0.042513972
-0.2089952
-0.045695203
-0.21852421
-0.049056065
-0.22850126
-0.052601294
-0.23895163
-0.056334497
-0.24990264
-0.060258368
-0.26138345
-0.064375732
-0.2734247
-0.068688404
-0.28605914
-0.073197377
-0.29932202
-0.077903683
-0.31324961
-0.082807283
-0.3278811
-0.087907811
-0.34325779
-0.09320495
-0.35942281
-0.098698006
-0.37642202
-0.10438525
-0.39430448
-0.11026522
-0.41312093
-0.11633579
-0.43292545
-0.12259472
-0.45377498
-0.12903945
-0.47573047
-0.13566641
-0.49885569
-0.14247223
-0.5232179
-0.14945256
-0.54888979
-0.15660209
-0.57594708
-0.16391523
-0.6044709
-0.17138473
-0.63454754
-0.17900258
-0.66626843
-0.18675859
-0.69973175
-0.19464229
-0.73504039
-0.20264003
-0.77230543
-0.21073643
-0.81164445
-0.21891409
-0.85318147
-0.22715237
-0.89704938
-0.23542757
-0.94338915
-0.24371179
-0.99235041
-0.25197449
-1.0440918
-0.26017909
-1.0987821
-0.26828542
-1.1565991
-0.27624383
-1.2177291
-0.28400241
-1.2823676
-0.29149597
-1.3507128
-0.29865955
-1.4229804
-0.3054144
-1.4993916
-0.31167328
-1.5801923
-0.31733023
-1.6656443
-0.32227095
-1.7560291
-0.32637348
-1.8516384
-0.32949936
-1.9528548
-0.33151455
-2.0601966
-0.33229992
-2.1740892
-2.2948541
-0.00024392743
-0.047130319
-0.00081770231
-0.058214233
-0.0012359168
-0.057448019
-0.0018782846
-0.061876498
-0.0024115284
-0.064001933
-0.0030911862
-0.067203792
-0.0037196214
-0.070367668
-0.0044406228
-0.073542609
-0.0051818234
-0.077072322
-0.0059794138
-0.08059042
-0.00682895
-0.084363491
-0.0077331652
-0.088261488
-0.0086992448
-0.092346476
-0.0097310944
-0.096607921
-0.010834471
-0.10105782
-0.012015126
-0.10570284
-0.013279293
-0.11055134
-0.01463365
-0.1156117
-0.016084979
-0.12089326
-0.017639978
-0.1264056
-0.019307259
-0.13215824
-0.021093253
-0.13816323
-0.023006802
-0.14443109
-0.025055157
-0.15097513
-0.027246112
-0.15780907
-0.029587715
-0.16494664
-0.032087316
-0.17240411
-0.034751824
-0.18019863
-0.037588574
-0.18834823
-0.040603469
-0.19687254
-0.043802019
-0.20579352
-0.047189796
-0.21513315
-0.050771142
-0.22491646
-0.05455017
-0.23516896
-0.058530078
-0.24591889
-0.062713597
-0.25719588
-0.067102881
-0.26903114
-0.071699554
-0.28145793
-0.076505284
-0.29451148
-0.08152067
-0.30822911
-0.086746541
-0.32264978
-0.092183579
-0.33781494
-0.097832165
-0.35376801
-0.1036922
-0.37055532
-0.10976443
-0.38822509
-0.11604924
-0.4068284
-0.12254648
-0.42641986
-0.12925649
-0.44705594
-0.13617934
-0.46879782
-0.14331513
-0.49170922
-0.15066302
-0.51585835
-0.15822313
-0.54131693
-0.1659939
-0.56816233
-0.17397376
-0.59647568
-0.18216065
-0.62634375
-0.19055124
-0.65785919
-0.1991417
-0.6911207
-0.20792641
-0.72623288
-0.21689895
-0.76330758
-0.22605114
-0.80246411
-0.23537221
-0.84382901
-0.2448503
-0.88753623
-0.25447041
-0.93372978
-0.2642152
-0.98256166
-0.27406339
-1.0341944
-0.28399048
-1.0887999
-0.2939673
-1.1465605
-0.30396096
-1.2076665
-0.31392983
-1.2723221
-0.323829
-1.3407286
-0.33360854
-1.4131071
-0.34320207
-1.4896956
-0.35254672
-1.5707372
-0.36156163
-1.6565133
-0.37015657
-1.747317
-0.37822477
-1.8434585
-0.38566356
-1.9453175
-0.3923692
-2.0534118
-0.39826071
-2.168138
-2.2901637
-0.00021003116
-0.046919613
-0.00078445885
-0.057639161
-0.0011798328
-0.057051902
-0.0018396073
-0.061215952
-0.0023506904
-0.063490026
-0.0030236383
-0.066529984
-0.0036455129
-0.069744884
-0.0043610275
-0.072826136
-0.0051051269
-0.076327213
-0.005903316
-0.079791168
-0.0067609206
-0.083504767
-0.0076779459
-0.087343284
-0.0086629105
-0.091360271
-0.0097206104
-0.095548916
-0.010857713
-0.099919349
-0.012080927
-0.10447818
-0.013397424
-0.10923333
-0.014814528
-0.114193
-0.016340659
-0.11936545
-0.017983725
-0.12476077
-0.019751975
-0.13038813
-0.021654299
-0.13625897
-0.023698804
-0.14238454
-0.025894164
-0.14877762
-0.028249053
-0.15545193
-0.030770821
-0.1624225
-0.033467251
-0.16970519
-0.036345574
-0.17731769
-0.039412485
-0.18527856
-0.042673146
-0.19360898
-0.046133916
-0.20232969
-0.049798572
-0.21146527
-0.053671812
-0.22103982
-0.057756328
-0.23108085
-0.06205485
-0.24161656
-0.066570226
-0.25267646
-0.071304283
-0.26429278
-0.07625846
-0.27649918
-0.081434396
-0.28933066
-0.086833799
-0.30282449
-0.09245808
-0.31701991
-0.098308926
-0.33195809
-0.1043879
-0.34768258
-0.11069747
-0.36423878
-0.11723988
-0.38167516
-0.12401737
-0.40004276
-0.13103348
-0.41939492
-0.13829057
-0.43978925
-0.14579253
-0.4612854
-0.15354255
-0.48394778
-0.16154437
-0.50784405
-0.16980076
-0.53304687
-0.17831545
-0.55963263
-0.18709166
-0.58768297
-0.19613184
-0.61728541
-0.20543837
-0.64853266
-0.21501327
-0.68152371
-0.22485727
-0.71636446
-0.23497045
-0.75316731
-0.24535156
-0.7920529
-0.25599916
-0.83314788
-0.26690869
-0.87658931
-0.27807482
-0.92252188
-0.28949003
-0.97109977
-0.30114426
-1.022488
-0.31302482
-1.0768611
-0.32511593
-1.1344044
-0.33739577
-1.1953143
-0.34984253
-1.259795
-0.36242474
-1.3280576
-0.37510268
-1.4003315
-0.38784348
-1.4768487
-0.40059203
-1.5578751
-0.41329316
-1.643694
-0.42587888
-1.7346136
-0.43827906
-1.8309485
-0.45040374
-1.9330987
-0.46218781
-2.0415548
-0.47357736
-2.1566958
-2.2795293
-0.00018902724
-0.046729946
-0.00078307421
-0.057044501
-0.0011750222
-0.056659247
-0.0018280038
-0.060562244
-0.0023326625
-0.062984583
-0.0030080383
-0.065853792
-0.0036454221
-0.069106633
-0.0043684959
-0.07210215
-0.0051347488
-0.075559998
-0.0059547017
-0.078970201
-0.0068421839
-0.082616218
-0.0077963031
-0.086388042
-0.008826666
-0.090328726
-0.0099393324
-0.094435006
-0.011142022
-0.098715351
-0.01244262
-0.10317621
-0.013849566
-0.10782494
-0.015371686
-0.11266936
-0.017017598
-0.11771794
-0.018797232
-0.12297946
-0.020719368
-0.12846423
-0.022793643
-0.13418283
-0.02502884
-0.14014739
-0.027434012
-0.1463704
-0.030017624
-0.15286616
-0.032787676
-0.15965018
-0.035751108
-0.16673937
-0.038914977
-0.1741513
-0.042284654
-0.18190623
-0.045866049
-0.19002478
-0.049662876
-0.1985299
-0.053679185
-0.20744582
-0.057918191
-0.21679748
-0.062382373
-0.22661312
-0.067074102
-0.23692106
-0.071995513
-0.24775102
-0.07714819
-0.25913581
-0.082534492
-0.27110827
-0.088156253
-0.28370395
-0.094016096
-0.29695933
-0.10011681
-0.31091347
-0.10646165
-0.32560706
-0.11305468
-0.34108286
-0.11990004
-0.35738616
-0.12700249
-0.37456484
-0.13436785
-0.39266883
-0.14200183
-0.4117516
-0.14991098
-0.4318699
-0.15810192
-0.45308333
-0.16658204
-0.47545547
-0.17535875
-0.49905397
-0.18444043
-0.52395051
-0.19383471
-0.55022225
-0.20354983
-0.57795013
-0.21359351
-0.60722225
-0.2239745
-0.63813019
-0.23469998
-0.67077452
-0.24577771
-0.70526053
-0.25721496
-0.74170103
-0.26901863
-0.78021703
-0.28119437
-0.82093636
-0.29374756
-0.86399633
-0.30668227
-0.90954286
-0.32000128
-0.95773142
-0.33370618
-1.0087282
-0.34779634
-1.0627098
-0.36226866
-1.1198643
-0.37711693
-1.1803908
-0.39233517
-1.2444935
-0.40790376
-1.3123973
-0.42380984
-1.3843251
-0.44002538
-1.4605247
-0.45652667
-1.5412587
-0.47328442
-1.6268178
-0.49025344
-1.7175286
-0.50738236
-1.8137139
-0.52461648
-1.9157771
-0.54191722
-2.0241904
-0.55924845
-2.1393225
-2.2624447
-0.00017063583
-0.046558704
-0.00079351943
-0.056421036
-0.001192268
-0.056259826
-0.0018563296
-0.059897499
-0.0023738054
-0.062466364
-0.0030646038
-0.065162219
-0.0037326541
-0.068437762
-0.004479338
-0.071354601
-0.0052858999
-0.074752526
-0.0061500105
-0.078105131
-0.0070914826
-0.081673736
-0.0081101845
-0.085368277
-0.009216464
-0.089221328
-0.010418035
-0.093232257
-0.011723951
-0.097408198
-0.01314354
-0.10175532
-0.014686554
-0.10628055
-0.016363099
-0.11099137
-0.018183444
-0.11589608
-0.020157513
-0.1210038
-0.022295709
-0.12632436
-0.024607613
-0.13186917
-0.0271024
-0.13765076
-0.029789225
-0.14368163
-0.032675827
-0.14997751
-0.035769449
-0.1565544
-0.039077244
-0.16342929
-0.042604009
-0.17062213
-0.046354898
-0.17815279
-0.050333759
-0.18604321
-0.054543927
-0.19431686
-0.058988367
-0.20299833
-0.063668359
-0.21211423
-0.068587067
-0.22169094
-0.073745853
-0.23175855
-0.079146601
-0.24234628
-0.084792143
-0.25348597
-0.090684701
-0.26521109
-0.096828409
-0.27755525
-0.10322699
-0.29055534
-0.10988506
-0.30424955
-0.11680809
-0.31867766
-0.12400277
-0.33388125
-0.13147594
-0.34990543
-0.13923564
-0.36679689
-0.14729077
-0.38460469
-0.15565061
-0.4033819
-0.16432527
-0.42318444
-0.17332589
-0.44407087
-0.18266361
-0.46610475
-0.19235078
-0.48935251
-0.20239922
-0.51388637
-0.21282281
-0.53978138
-0.22363436
-0.56711957
-0.23484821
-0.59598746
-0.24647778
-0.62647754
-0.25853803
-0.6586888
-0.27104315
-0.69272727
-0.28400764
-0.72870542
-0.29744689
-0.76674332
-0.31137485
-0.80697021
-0.32580629
-0.84952254
-0.34075562
-0.89454657
-0.35623657
-0.9421984
-0.37226192
-0.99264514
-0.38884425
-1.0460637
-0.40599479
-1.1026432
-0.42372367
-1.1625841
-0.44203488
-1.2260967
-0.4609336
-1.2934047
-0.48041899
-1.3647376
-0.50048921
-1.4403449
-0.52113748
-1.5204954
-0.54235297
-1.6054855
-0.5641303
-1.6956389
-0.58643629
-1.7913082
-0.60925937
-1.8928753
-0.63256982
-2.0008279
-0.65634429
-2.1155199
-2.2383516
-0.00015676055
-0.046401373
-0.00082183048
-0.055755419
-0.0012345112
-0.055846512
-0.0019287001
-0.059202666
-0.0024766667
-0.0619177
-0.003196148
-0.06444201
-0.0039153321
-0.067717805
-0.0047069912
-0.07056213
-0.0055768653
-0.073881795
-0.0065123414
-0.077168753
-0.0075371721
-0.080647956
-0.0086534403
-0.08425101
-0.0098725599
-0.088001158
-0.011204325
-0.091899388
-0.012659327
-0.095952035
-0.014248655
-0.10016477
-0.015983454
-0.10454447
-0.017874965
-0.10909852
-0.019934312
-0.11383532
-0.022172291
-0.11876433
-0.024598996
-0.12389609
-0.027224332
-0.12924219
-0.030057452
-0.1348159
-0.03310584
-0.14063141
-0.03637697
-0.14670445
-0.039876751
-0.15305258
-0.04360999
-0.15969389
-0.04758096
-0.16664887
-0.051792739
-0.17393858
-0.056247614
-0.18158575
-0.060947295
-0.18961442
-0.065893824
-0.19804884
-0.07108861
-0.20691628
-0.076533372
-0.21624277
-0.082230555
-0.2260577
-0.088182799
-0.23639008
-0.094393536
-0.24727094
-0.10086783
-0.25873214
-0.10761003
-0.27080799
-0.11462718
-0.28353268
-0.12192614
-0.29694458
-0.12951624
-0.311081
-0.13740589
-0.32598443
-0.14560589
-0.34169757
-0.15412819
-0.35826597
-0.16298445
-0.37573897
-0.17218832
-0.39416763
-0.18175427
-0.41360708
-0.19169697
-0.43411559
-0.20203278
-0.4557551
-0.21277798
-0.47859208
-0.22395086
-0.50269669
-0.23556891
-0.52814484
-0.24765133
-0.55501678
-0.26021828
-0.58339805
-0.27328999
-0.61338105
-0.28688736
-0.6450641
-0.30103296
-0.67855147
-0.31574907
-0.71395594
-0.3310584
-0.75139711
-0.34698498
-0.79100286
-0.36355344
-0.83290904
-0.38078841
-0.87726186
-0.39871459
-0.92421735
-0.41735848
-0.97394081
-0.43674537
-1.0266103
-0.45690057
-1.082415
-0.47784891
-1.1415557
-0.49961273
-1.2042452
-0.5222165
-1.2707054
-0.54567781
-1.3411733
-0.57001178
-1.4159014
-0.59523541
-1.4951583
-0.62136944
-1.5792383
-0.64842484
-1.6684769
-0.67640841
-1.763233
-0.7053319
-1.8638837
-0.73521768
-1.9709025
-0.76600738
-2.0847183
-2.2066568
-0.00014889906
-0.046251939
-0.00087505149
-0.055028753
-0.0013068752
-0.055414095
-0.0020450897
-0.05846385
-0.0026442016
-0.061317935
-0.0034105873
-0.063674943
-0.0042039577
-0.066923713
-0.0050654217
-0.069699906
-0.0060242959
-0.072922122
-0.0070625268
-0.076129681
-0.0082059355
-0.079503663
-0.0094601983
-0.082995817
-0.010838233
-0.086622147
-0.012351882
-0.090384713
-0.014013547
-0.094289291
-0.01583559
-0.098341597
-0.017830337
-0.10254854
-0.020009677
-0.10691793
-0.022385126
-0.11145856
-0.024967416
-0.11618066
-0.027766573
-0.12109548
-0.030791241
-0.12621599
-0.034048999
-0.13155653
-0.037546595
-0.13713211
-0.041288687
-0.14296055
-0.045279574
-0.14905978
-0.049521408
-0.15545002
-0.054016315
-0.16215179
-0.058765673
-0.1691869
-0.063770152
-0.17657879
-0.069030978
-0.18435093
-0.074548968
-0.19252799
-0.080326246
-0.2011359
-0.08636497
-0.2102007
-0.092668957
-0.21975008
-0.099242108
-0.22981298
-0.10609062
-0.24041813
-0.11322066
-0.25159741
-0.1206412
-0.26338233
-0.12836066
-0.2758076
-0.13639073
-0.28890834
-0.14474199
-0.30272297
-0.15342815
-0.31729084
-0.16246359
-0.33265395
-0.17186314
-0.34885742
-0.18164334
-0.36594885
-0.19182177
-0.38397826
-0.20241692
-0.40299985