/*--------------------------------*- C++ -*----------------------------------*\
  =========                 |
  \\      /  F ield         | OpenFOAM: The Open Source CFD Toolbox
   \\    /   O peration     | Website:  https://openfoam.org
    \\  /    A nd           | Version:  12
     \\/     M anipulation  |
\*---------------------------------------------------------------------------*/
FoamFile
{
    format      ascii;
    class       volVectorField;
    location    "0.092";
    object      U;
}
// * * * * * * * * * * * * * * * * * * * * * * * * * * * * * * * * * * * * * //

dimensions      [0 1 -1 0 0 0 0];

internalField   nonuniform List<vector> 
16000
(
(215.47687 -3.1410357e-17 -8.3895115)
(252.44463 0 5.3874944)
(238.44954 0 -7.5872682)
(246.20334 4.9702109e-17 3.7925976)
(241.49825 -4.9061261e-17 -5.979465)
(243.71427 0 1.7578141)
(241.91103 0 -4.3556948)
(242.42108 8.3976826e-17 -0.031650965)
(241.57707 -7.9785618e-17 -3.1889418)
(241.45643 0 -1.2816926)
(240.94094 7.2092861e-17 -2.5942983)
(240.5934 -2.0539348e-16 -2.0088309)
(240.14913 1.3000204e-16 -2.4543898)
(239.72009 -1.2366228e-16 -2.3924317)
(239.263 1.1733183e-16 -2.5571807)
(238.79215 -3.480542e-18 -2.6318372)
(238.30276 -3.3063838e-18 -2.738439)
(237.79574 -9.7565547e-17 -2.8343487)
(237.27054 1.911525e-16 -2.9321569)
(236.72701 -9.0694775e-17 -3.0278827)
(236.16499 1.7251383e-16 -3.1219168)
(235.58442 -1.6352931e-16 -3.2135674)
(234.9853 0 -3.302342)
(234.36771 1.5222004e-16 -3.3876651)
(233.73184 -4.1201237e-18 -3.4689533)
(233.078 -2.6567219e-16 -3.5455918)
(232.4066 1.2591957e-16 -3.6169593)
(231.71817 0 -3.6824216)
(231.01337 0 -3.7413484)
(230.293 2.1868004e-16 -3.7931175)
(229.55799 -2.0375177e-16 -3.8371286)
(228.80942 0 -3.8728116)
(228.0485 0 -3.8996384)
(227.27657 0 -3.9171372)
(226.4951 5.1404163e-18 -3.9249025)
(225.70568 1.5599909e-16 -3.9226072)
(224.91002 -1.4280409e-16 -3.9100139)
(224.10991 -1.3986479e-16 -3.8869826)
(223.30722 1.2384162e-16 -3.8534791)
(222.50389 0 -3.8095824)
(221.7019 -1.1852581e-16 -3.7554856)
(220.90322 1.11875e-16 -3.6914995)
(220.10985 -2.1202178e-16 -3.6180501)
(219.32374 2.0003679e-16 -3.5356754)
(218.54679 -1.9536318e-16 -3.4450181)
(217.78082 3.5767713e-16 -3.3468148)
(217.02755 5.6029257e-18 -3.2418844)
(216.28859 2.9641776e-19 -3.1311114)
(215.56541 -1.505471e-16 -3.0154284)
(214.85933 1.4238183e-16 -2.895797)
(214.17151 -1.2576635e-16 -2.7731908)
(213.50293 0 -2.6485766)
(212.85443 7.4746429e-18 -2.5228995)
(212.22665 0 -2.3970665)
(211.62005 6.6513019e-18 -2.2719318)
(211.03495 2.071028e-16 -2.1482867)
(210.47145 -3.7852716e-16 -2.0268485)
(209.9295 1.0931186e-17 -1.9082527)
(209.40884 1.6819856e-16 -1.7930439)
(208.90895 -1.4887511e-16 -1.6816868)
(208.42908 1.4022878e-16 -1.574538)
(207.96837 -8.8236915e-18 -1.4718968)
(207.52581 0 -1.3739592)
(207.10022 0 -1.2808344)
(206.69023 -1.111818e-16 -1.1925571)
(206.29419 1.1185807e-16 -1.1090761)
(205.91001 -9.9111838e-17 -1.0302501)
(205.53515 1.9345635e-16 -0.95582046)
(205.16677 -1.8879158e-16 -0.8853733)
(204.80194 8.3693326e-17 -0.81833648)
(204.43772 5.2849375e-18 -0.75399543)
(204.07085 0 -0.69138731)
(203.69725 4.751454e-18 -0.62956755)
(203.31147 -4.5133285e-18 -0.56904895)
(202.90857 0 -0.51002661)
(202.49377 -3.3751575e-17 -0.44661778)
(202.07707 6.247843e-17 -0.39352161)
(201.60977 -3.1748784e-17 -0.38377803)
(201.25926 0 -0.18681337)
(200.77645 0 -0.51333047)
(216.79799 0 -11.209896)
(254.08482 -3.7268222e-18 3.3425246)
(239.47097 -1.1978431e-16 -10.513176)
(247.66567 1.1043297e-16 1.7063335)
(242.60729 0 -8.8430933)
(245.05407 1.0160628e-16 -0.40010038)
(243.04784 -1.8763129e-16 -7.1016335)
(243.64599 -1.0220095e-19 -2.3130131)
(242.71146 8.4558523e-17 -5.7790131)
(242.59145 0 -3.6804558)
(242.03548 -1.5274345e-16 -5.0695286)
(241.65907 1.4941219e-16 -4.4522292)
(241.18294 1.4210603e-16 -4.8833773)
(240.71959 -2.6159836e-16 -4.8224186)
(240.22807 1.2025866e-16 -4.9666639)
(239.72091 1.1055988e-17 -5.0339199)
(239.19422 1.156114e-16 -5.1247281)
(238.6486 -1.0296548e-16 -5.2067319)
(238.08365 0 -5.2882892)
(237.49925 0 -5.3667118)
(236.89534 5.6818136e-18 -5.4418847)
(236.27193 -1.7824304e-16 -5.513107)
(235.62914 3.3798327e-16 -5.5797528)
(234.96718 -3.1582088e-16 -5.6411469)
(234.28639 1.4274857e-16 -5.6965999)
(233.58723 0 -5.7454086)
(232.87029 1.2450252e-16 -5.7868612)
(232.13631 -1.3350457e-16 -5.8202528)
(231.38615 0 -5.8448924)
(230.62083 3.528153e-18 -5.8601149)
(229.84151 -1.3382273e-17 -5.8652921)
(229.04952 0 -5.8598489)
(228.24629 0 -5.8432707)
(227.43343 -1.7076055e-16 -5.8151241)
(226.61265 3.3907256e-16 -5.7750645)
(225.78576 -1.6281978e-16 -5.7228504)
(224.95471 -1.592203e-16 -5.6583554)
(224.12148 1.4572797e-16 -5.5815744)
(223.28814 -1.122425e-16 -5.4926333)
(222.45678 -2.8558522e-19 -5.3917924)
(221.62949 -2.6713517e-19 -5.2794489)
(220.80836 2.3297126e-16 -5.1561351)
(219.99542 -1.0991857e-16 -5.022514)
(219.19263 0 -4.8793708)
(218.40187 2.0252943e-16 -4.7276028)
(217.62489 1.1945371e-17 -4.5682044)
(216.86331 -5.1223694e-18 -4.402249)
(216.1186 -1.646598e-16 -4.2308697)
(215.39206 0 -4.055238)
(214.6848 -1.4666132e-16 -3.8765422)
(213.99779 -8.8645462e-18 -3.6959679)
(213.33178 2.6029451e-16 -3.5146765)
(212.68736 -1.3017767e-16 -3.3337879)
(212.06494 0 -3.1543629)
(211.46475 -2.0396117e-17 -2.9773876)
(210.88687 -2.1134098e-16 -2.8037628)
(210.33122 3.614934e-16 -2.6342943)
(209.79752 -2.1540065e-16 -2.4696845)
(209.28535 0 -2.3105262)
(208.79406 -1.7088692e-16 -2.157312)
(208.32277 1.7957168e-16 -2.0104059)
(207.87048 2.6698209e-17 -1.8700945)
(207.4361 0 -1.736561)
(207.01837 -1.4194183e-16 -1.60988)
(206.61588 7.324958e-18 -1.4900443)
(206.22698 1.1173995e-16 -1.3769522)
(205.84959 -1.9741309e-17 -1.2704033)
(205.48115 9.3016205e-17 -1.1700731)
(205.11872 -1.0513888e-16 -1.0754813)
(204.75921 5.5090217e-18 -0.98600205)
(204.39958 -5.1979532e-18 -0.90085122)
(204.03669 0 -0.81894958)
(203.66654 -4.6377237e-18 -0.73945464)
(203.28338 4.3865937e-18 -0.66321043)
(202.88323 8.3083445e-18 -0.58927386)
(202.47192 9.8446771e-19 -0.51213655)
(202.04822 0 -0.45510547)
(201.59866 3.0221723e-17 -0.42130166)
(201.23932 -5.7590679e-17 -0.22196956)
(200.74239 2.5851313e-17 -0.56758049)
(217.98281 0 -14.103332)
(255.57059 -1.2257828e-16 1.0967359)
(240.42397 2.4997661e-16 -13.522933)
(248.92808 -2.23243e-16 -0.545137)
(243.60937 1.1025834e-16 -11.778924)
(246.19219 -3.2648038e-18 -2.7481463)
(244.05839 9.9373094e-17 -9.8938469)
(244.68227 -9.411474e-17 -4.7896113)
(243.69082 -5.5870202e-18 -8.4332209)
(243.54746 -5.3048797e-18 -6.2436525)
(242.95613 -1.0077426e-17 -7.6432571)
(242.54367 1.390345e-16 -7.0319144)
(242.03206 -1.4093199e-16 -7.4312813)
(241.53018 1.3831694e-16 -7.3774464)
(240.99955 -1.1882255e-16 -7.5000413)
(240.45162 -1.5573434e-17 -7.5591151)
(239.88289 0 -7.6341128)
(239.29397 -1.2241151e-20 -7.7010621)
(238.68452 -2.2651264e-16 -7.7653229)
(238.05456 -3.6677749e-19 -7.8248774)
(237.4041 1.7361686e-16 -7.8792964)
(236.73331 1.7054036e-17 -7.9277933)
(236.04244 -2.1571042e-17 -7.9696205)
(235.33188 0 -8.0039973)
(234.60215 7.138116e-21 -8.0301368)
(233.85392 -1.6559067e-16 -8.0472489)
(233.08798 1.4793687e-16 -8.054552)
(232.30531 8.2566609e-18 -8.051281)
(231.50704 0 -8.0367062)
(230.69444 -7.4073118e-18 -8.01014)
(229.86896 -1.496633e-21 -7.9709574)
(229.0322 -1.9939338e-16 -7.9186077)
(228.1859 2.0081428e-16 -7.8526305)
(227.33194 1.1899628e-17 -7.7726741)
(226.47231 -1.8013939e-16 -7.6785041)
(225.60911 1.4866937e-16 -7.5700204)
(224.74451 -1.8115204e-16 -7.4472659)
(223.88073 1.5183732e-16 -7.3104354)
(223.02001 -1.4376493e-16 -7.1598782)
(222.1646 1.3549147e-16 -6.996103)
(221.3167 1.6020426e-17 -6.8197748)
(220.47844 0 -6.6317068)
(219.65188 1.9983709e-16 -6.4328535)
(218.83894 -2.4188125e-16 -6.2242954)
(218.0414 0 -6.0072225)
(217.2609 1.7951856e-16 -5.7829154)
(216.49888 -1.575306e-16 -5.5527207)
(215.7566 1.6996545e-16 -5.3180283)
(215.03511 -1.7977577e-16 -5.0802467)
(214.33528 0 -4.8407795)
(213.65777 1.7726742e-16 -4.6010034)
(213.00305 -1.3322083e-16 -4.362245)
(212.37142 0 -4.1257634)
(211.76298 0 -3.892733)
(211.17769 1.2481589e-16 -3.6642275)
(210.61536 -2.0844557e-16 -3.441213)
(210.07565 1.2235875e-16 -3.2245377)
(209.55807 1.8414019e-16 -3.0149265)
(209.06199 1.9815778e-19 -2.8129748)
(208.58658 1.7623008e-19 -2.6191587)
(208.13083 -3.2408808e-16 -2.4338124)
(207.69358 8.9438062e-17 -2.257169)
(207.27365 0 -2.0893642)
(206.86969 1.4213725e-16 -1.9304091)
(206.48024 -1.6303952e-16 -1.780228)
(206.10362 1.1143169e-16 -1.6386478)
(205.73776 1.315043e-17 -1.5053902)
(205.3801 -8.5978098e-17 -1.3800496)
(205.02764 1.1545099e-17 -1.2620762)
(204.67721 2.1711685e-17 -1.150795)
(204.32572 -1.0209651e-16 -1.0453466)
(203.97012 9.6021309e-17 -0.94458183)
(203.60651 -7.2344224e-17 -0.8478623)
(203.22927 1.3627545e-16 -0.75604337)
(202.83548 -5.6197099e-17 -0.66697673)
(202.42999 -6.063174e-17 -0.57752005)
(202.00725 5.0098907e-17 -0.51545049)
(201.57164 0 -0.46016533)
(201.21505 3.2054762e-18 -0.2595168)
(200.70237 -1.2151305e-17 -0.6205528)
(219.008 0 -17.067002)
(256.90663 0 -1.2832982)
(241.18363 0 -16.668111)
(250.01125 1.066823e-16 -2.9051986)
(244.42621 -1.2387663e-16 -14.845116)
(247.16384 -2.2062453e-16 -5.2151286)
(244.88812 2.0983607e-16 -12.804608)
(245.54014 -1.2428372e-17 -7.3943088)
(244.48455 5.9180814e-18 -11.19792)
(244.31362 -1.7403173e-16 -8.9389177)
(243.68239 1.7037628e-16 -10.328328)
(243.22832 1.0125493e-17 -9.7372183)
(242.67635 -1.5375744e-16 -10.096576)
(242.1306 1.3658697e-16 -10.051424)
(241.55573 -1.3641061e-20 -10.151037)
(240.96187 -8.1917145e-18 -10.199912)
(240.34611 0 -10.257459)
(239.70898 -7.3947488e-18 -10.306875)
(239.05032 -2.1049721e-16 -10.351169)
(238.37023 2.1254514e-16 -10.38877)
(237.66888 1.2616371e-17 -10.419019)
(236.94658 -1.1961438e-17 -10.44104)
(236.20377 2.1554774e-16 -10.453985)
(235.44102 -1.7169513e-16 -10.456979)
(234.65909 1.0181946e-17 -10.449146)
(233.85886 1.930667e-16 -10.429621)
(233.04142 -1.2771382e-16 -10.39756)
(232.20803 0 -10.352157)
(231.36011 1.4757194e-16 -10.292657)
(230.49927 -1.2386878e-16 -10.21838)
(229.6273 2.4964135e-16 -10.128732)
(228.74611 -1.3334703e-17 -10.023229)
(227.8578 -2.0969297e-16 -9.9015084)
(226.96456 1.7392228e-16 -9.7633526)
(226.06869 -1.8735793e-16 -9.6086963)
(225.17257 -3.0120706e-20 -9.4376433)
(224.27861 2.0944789e-16 -9.2504725)
(223.38925 -3.160897e-16 -9.0476427)
(222.50689 9.3030259e-17 -8.8297946)
(221.63387 3.5221515e-17 -8.5977457)
(220.77245 -4.980395e-17 -8.352485)
(219.92476 0 -8.0951568)
(219.09278 -8.8618343e-17 -7.8270476)
(218.27833 1.3879145e-16 -7.5495624)
(217.48302 -2.0956096e-16 -7.2642037)
(216.70825 1.9690089e-16 -6.9725464)
(215.9552 -2.0884129e-16 -6.6762072)
(215.22485 3.9268683e-16 -6.3768202)
(214.51791 -3.0773441e-16 -6.0760092)
(213.83493 3.08584e-16 -5.7753622)
(213.1762 -1.4483611e-16 -5.4764084)
(212.54186 1.3633497e-16 -5.1805972)
(211.93183 -9.5838807e-17 -4.8892791)
(211.3459 3.0052147e-17 -4.603693)
(210.78373 0 -4.3249516)
(210.24482 0 -4.0540372)
(209.72856 0 -3.7917937)
(209.23424 2.3260099e-17 -3.538924)
(208.76101 0 -3.2959849)
(208.30789 -1.63703e-16 -3.0633984)
(207.87371 1.9163445e-16 -2.8414382)
(207.4572 -1.0785945e-16 -2.6302534)
(207.05706 -1.1667602e-19 -2.4299013)
(206.67188 2.5232591e-16 -2.2403082)
(206.30015 2.9633343e-17 -2.0613104)
(205.94018 -1.3838428e-16 -1.8926478)
(205.58991 5.1891969e-17 -1.7339543)
(205.24681 -1.4578198e-16 -1.5847391)
(204.90785 -4.5551199e-17 -1.4443857)
(204.56979 -6.4029202e-17 -1.3121672)
(204.2295 -6.0040989e-17 -1.1871473)
(203.88405 5.6267013e-17 -1.0681622)
(203.52964 0 -0.95479169)
(203.16102 0 -0.84763968)
(202.77618 -1.5508962e-17 -0.74365728)
(202.37823 0 -0.64281042)
(201.95993 6.8514395e-18 -0.57342226)
(201.53767 5.158537e-17 -0.49525382)
(201.18622 -7.2893558e-17 -0.29490902)
(200.6584 -5.3975313e-21 -0.67352576)
(219.85429 0 -20.228997)
(258.06963 -8.8189239e-18 -3.7401894)
(241.81287 2.6675131e-16 -19.948754)
(250.87271 -2.4914906e-16 -5.3909745)
(245.00632 2.5424542e-16 -18.025783)
(247.93181 -2.3260884e-16 -7.8350657)
(245.51699 -2.2174073e-16 -15.82101)
(246.18608 2.0990455e-16 -10.157223)
(245.0689 0 -14.065656)
(244.85994 0 -11.784305)
(244.1866 1.798956e-16 -13.127697)
(243.68418 -1.7042663e-16 -12.5754)
(243.08711 -1.0124568e-17 -12.885004)
(242.49232 2.87978e-17 -12.84776)
(241.86827 -9.1133698e-18 -12.922382)
(241.22364 3.4565021e-17 -12.957306)
(240.55609 0 -12.994476)
(239.86609 0 -13.022614)
(239.15362 -2.3605828e-16 -13.043118)
(238.4189 2.093507e-16 -13.05464)
(237.66227 0 -13.056334)
(236.88422 0 -13.04722)
(236.0854 -1.904835e-16 -13.026319)
(235.26666 3.6048628e-16 -12.992652)
(234.42903 -1.7049801e-16 -12.945241)
(233.57373 -2.0198864e-17 -12.883139)
(232.70219 -3.8256693e-17 -12.805448)
(231.81602 -1.449601e-16 -12.711333)
(230.91705 1.1968663e-16 -12.600047)
(230.00729 0 -12.470951)
(229.0889 -3.0654096e-17 -12.323534)
(228.16423 0 -12.157439)
(227.23573 0 -11.972469)
(226.30596 2.0693518e-16 -11.76862)
(225.37753 -2.1933442e-16 -11.546076)
(224.45312 2.3008098e-17 -11.305229)
(223.53535 -2.1709392e-17 -11.04668)
(222.62682 -4.1042744e-17 -10.771235)
(221.73006 -8.5796349e-20 -10.479905)
(220.84743 8.1494377e-20 -10.173887)
(219.98116 -7.6909849e-20 -9.8545546)
(219.13328 0 -9.5234321)
(218.30561 -1.2183304e-16 -9.1821743)
(217.49973 1.144057e-16 -8.8325338)
(216.71698 0 -8.4763327)
(215.95843 -5.0707108e-17 -8.1154357)
(215.2249 1.9058012e-16 -7.7517117)
(214.51696 -2.2341104e-16 -7.3870098)
(213.83496 -2.1018602e-16 -7.0231289)
(213.17898 1.5758236e-16 -6.6617935)
(212.54893 1.1113951e-16 -6.3046309)
(211.94453 -1.3872561e-16 -5.9531537)
(211.36532 -3.2523565e-17 -5.6087429)
(210.81074 -2.1365986e-16 -5.2726402)
(210.28009 1.1427085e-16 -4.9459367)
(209.77259 -1.071731e-16 -4.6295725)
(209.28735 1.002418e-16 -4.3243333)
(208.82344 2.3486595e-16 -4.0308488)
(208.3798 -1.7565467e-16 -3.7495928)
(207.95528 0 -3.4808924)
(207.54861 -3.8436852e-17 -3.2249247)
(207.1584 -7.1946551e-17 -2.9817298)
(206.78326 1.3443358e-16 -2.7512557)
(206.42174 1.2577242e-16 -2.5333247)
(206.07229 -2.3503126e-16 -2.3276666)
(205.73322 8.2310962e-17 -2.1339209)
(205.4025 5.1308632e-17 -1.9516215)
(205.07764 9.5921855e-17 -1.7801874)
(204.75563 1.3447056e-16 -1.6189339)
(204.43316 2.3740166e-20 -1.4670751)
(204.10714 0 -1.3236018)
(203.7747 0 -1.1873941)
(203.43218 -3.4222356e-17 -1.0582248)
(203.07496 9.6016831e-17 -0.93622394)
(202.70177 -8.9808566e-17 -0.81784023)
(202.31358 -8.4070346e-17 -0.70661464)
(201.90262 5.2465012e-17 -0.62872919)
(201.4957 0 -0.5271008)
(201.15134 4.6096573e-17 -0.33184771)
(200.61019 7.7740103e-21 -0.72536814)
(220.50139 0 -23.56349)
(259.03407 1.8888535e-20 -6.2725111)
(242.24628 9.0769314e-18 -23.324093)
(251.56651 2.8856252e-16 -8.0159018)
(245.42948 3.3363779e-19 -21.310329)
(248.46806 -5.0615098e-16 -10.605892)
(245.90037 -3.2372042e-19 -18.932412)
(246.59113 4.5651694e-16 -13.08286)
(245.41292 -2.100443e-16 -17.034128)
(245.15938 -1.2459378e-17 -14.779276)
(244.44243 1.1833417e-17 -16.040243)
(243.88654 -1.7968635e-16 -15.539624)
(243.24063 1.914349e-16 -15.791545)
(242.59253 -1.8189574e-16 -15.75814)
(241.91492 3.0640856e-16 -15.805513)
(241.21495 -3.0871841e-16 -15.821982)
(240.49083 1.3759302e-16 -15.835342)
(239.74303 0 -15.838163)
(238.97173 0 -15.83071)
(238.17733 1.4656614e-17 -15.811643)
(237.36041 -2.7791146e-17 -15.779904)
(236.52177 0 -15.734353)
(235.66239 1.9956741e-16 -15.673856)
(234.78346 4.7239824e-19 -15.597311)
(233.88642 -3.5716133e-16 -15.503641)
(232.97293 1.6876041e-16 -15.391836)
(232.04485 1.9967546e-17 -15.260976)
(231.10429 0 -15.110244)
(230.15354 -1.7887378e-16 -14.938958)
(229.19508 1.3488106e-16 -14.746597)
(228.23156 -2.2367053e-16 -14.532817)
(227.26576 2.1052817e-16 -14.297479)
(226.30054 -2.2784897e-16 -14.040656)
(225.33883 2.1446872e-16 -13.762656)
(224.38354 7.6028016e-17 -13.464026)
(223.43759 0 -13.145547)
(222.50377 0 -12.808244)
(221.58479 4.2373044e-17 -12.453365)
(220.68314 3.9909712e-17 -12.082368)
(219.80113 -3.7574014e-17 -11.696901)
(218.94084 3.5360141e-17 -11.298773)
(218.10406 6.671293e-17 -10.889924)
(217.2923 -6.2658228e-17 -10.472394)
(216.5068 3.5327283e-16 -10.048284)
(215.74847 -2.7633959e-16 -9.619722)
(215.01794 5.1865779e-17 -9.18883)
(214.31557 -4.8803075e-17 -8.7576872)
(213.64144 0 -8.328303)
(212.99538 2.1449579e-16 -7.9025885)
(212.37704 -1.6065855e-16 -7.4823355)
(211.78583 0 -7.0691961)
(211.22104 0 -6.6646717)
(210.68182 1.3219133e-16 -6.2701006)
(210.16722 -6.178525e-17 -5.8866553)
(209.67621 0 -5.5153387)
(209.20771 -1.6233422e-16 -5.1569859)
(208.76059 1.0104677e-16 -4.812267)
(208.3337 1.4183158e-16 -4.4816885)
(207.92581 -1.764209e-16 -4.1655963)
(207.53565 1.6489921e-16 -3.8641873)
(207.16181 -1.5381157e-16 -3.5775069)
(206.80287 6.8686564e-20 -3.3054641)
(206.45737 0 -3.0478749)
(206.12383 6.2513953e-17 -2.8044416)
(205.80069 -2.9146401e-16 -2.5747759)
(205.48628 1.6300241e-16 -2.3584061)
(205.17863 0 -2.1547617)
(204.8753 -1.4171783e-16 -1.9631702)
(204.57332 8.8032452e-17 -1.7828773)
(204.26941 1.2315443e-16 -1.6130267)
(203.96046 3.2555304e-20 -1.4525492)
(203.64366 -7.1277786e-17 -1.3004256)
(203.31554 9.9682495e-17 -1.1565486)
(202.97234 -1.548576e-16 -1.020408)
(202.6133 8.6621131e-17 -0.88847359)
(202.23687 2.6911422e-17 -0.76796129)
(201.83593 5.0230481e-17 -0.68056418)
(201.4468 0 -0.55604542)
(201.10942 -4.3764381e-17 -0.36734525)
(200.55783 2.0365056e-17 -0.77518273)
(220.93326 0 -27.065908)
(259.79161 9.8126678e-18 -8.9122855)
(242.47921 -3.0601316e-16 -26.825553)
(252.07479 2.4985664e-16 -10.78223)
(245.65612 2.5665329e-16 -24.694341)
(248.76161 -5.0057255e-16 -13.532065)
(246.08191 2.3025158e-16 -22.126494)
(246.73878 2.3311502e-16 -16.171012)
(245.51753 -2.2092689e-16 -20.088293)
(245.20069 3.9325121e-17 -17.910926)
(244.43932 0 -19.054187)
(243.8245 0 -18.614428)
(243.12481 -2.2366082e-17 -18.805071)
(242.41761 -1.6980885e-16 -18.771188)
(241.68014 1.4052987e-16 -18.790603)
(240.91823 1.9063767e-17 -18.785045)
(240.1307 -3.6137398e-17 -18.771585)
(239.31818 3.083205e-16 -18.745172)
(238.48115 -2.2657248e-16 -18.705277)
(237.62035 2.4592266e-16 -18.650447)
(236.73675 -2.0322241e-16 -18.579415)
(235.83153 2.7553797e-17 -18.490882)
(234.90614 1.5654051e-16 -18.383586)
(233.96228 -1.9688794e-16 -18.25633)
(233.0019 0 -18.107989)
(232.02719 0 -17.937552)
(231.04061 0 -17.744147)
(230.04481 -1.9719653e-16 -17.527067)
(229.04265 1.8575914e-16 -17.2858)
(228.03717 -3.5198473e-17 -17.020047)
(227.03151 0 -16.729758)
(226.02892 -2.8216205e-16 -16.41514)
(225.03266 2.3582632e-16 -16.076668)
(224.04598 -5.5779279e-17 -15.715095)
(223.07206 1.577436e-16 -15.331456)
(222.11395 -4.9017778e-17 -14.927046)
(221.17451 -1.8593129e-16 -14.503418)
(220.25637 2.1934067e-16 -14.062353)
(219.36192 -1.6466624e-16 -13.605831)
(218.49322 7.7673157e-17 -13.136)
(217.65201 -7.2882907e-17 -12.655139)
(216.83969 1.3700518e-16 -12.165611)
(216.05731 -6.4196415e-17 -11.669831)
(215.30559 -2.4161618e-16 -11.170217)
(214.5849 5.0947477e-16 -10.669156)
(213.8953 -2.1218785e-16 -10.168964)
(213.23656 -1.4952761e-16 -9.671857)
(212.6082 9.2963419e-17 -9.1799221)
(212.0095 8.7449344e-17 -8.6950951)
(211.43957 -1.6359198e-16 -8.2191439)
(210.89735 1.5284508e-16 -7.7536567)
(210.38167 0 -7.3000358)
(209.89127 1.3378043e-16 -6.8594945)
(209.42486 -1.873804e-16 -6.4330596)
(208.98108 5.8393565e-17 -6.0215752)
(208.55862 5.4418333e-17 -5.6257092)
(208.15611 0 -5.245961)
(207.77222 0 -4.8826662)
(207.4056 0 -4.5360032)
(207.05486 0 -4.2060062)
(206.71856 0 -3.8925627)
(206.39522 -7.1488405e-17 -3.5954303)
(206.08338 0 -3.314279)
(205.78154 -5.648908e-20 -3.0486798)
(205.48819 2.3082986e-16 -2.7981201)
(205.2017 -2.1472713e-16 -2.5620129)
(204.92017 -9.9956723e-17 -2.3396824)
(204.64124 -1.858484e-16 -2.1303688)
(204.36203 2.5905492e-16 -1.9332449)
(204.07929 5.0624933e-20 -1.7473757)
(203.78997 7.461163e-17 -1.5716577)
(203.49122 0 -1.4052164)
(203.17986 0 -1.247943)
(202.85315 0 -1.0986023)
(202.51058 -1.1137174e-16 -0.95430095)
(202.14784 0 -0.8256126)
(201.75985 -9.6224059e-17 -0.72752555)
(201.39082 1.3416937e-16 -0.58115233)
(201.05945 8.3192644e-17 -0.40239252)
(200.50163 -1.9250624e-17 -0.82173695)
(221.15296 0 -30.74546)
(260.34808 0 -11.660015)
(242.51754 3.2195025e-16 -30.458361)
(252.40102 1.9315565e-17 -13.706375)
(245.69683 -2.694093e-16 -28.18711)
(248.8737 0 -16.635804)
(246.06265 1.6142064e-17 -25.399148)
(246.75953 -3.0599163e-17 -19.413643)
(245.37362 0 -23.207681)
(244.98639 1.9288457e-16 -21.162381)
(244.17367 -4.1759353e-16 -22.165451)
(243.48955 1.9773804e-16 -21.794096)
(242.72639 2.347033e-17 -21.925516)
(241.95029 0 -21.886523)
(241.14313 2.105987e-17 -21.877127)
(240.30961 -3.3971593e-16 -21.845184)
(239.44922 7.4891872e-17 -21.80038)
(238.56288 2.503583e-16 -21.739066)
(237.65145 2.3776381e-16 -21.660211)
(236.71615 -2.564598e-16 -21.562245)
(235.75842 0 -21.443732)
(234.78001 -2.8776327e-16 -21.303263)
(233.78295 2.4432884e-16 -21.139493)
(232.76955 -2.059406e-16 -20.9512)
(231.74243 1.9410255e-16 -20.737295)
(230.70445 -1.8395119e-16 -20.496858)
(229.65873 3.4701585e-16 -20.229186)
(228.60857 -1.6375737e-16 -19.933804)
(227.55748 1.5487449e-16 -19.610511)
(226.50905 -2.9198633e-16 -19.259391)
(225.46696 1.3742599e-16 -18.880843)
(224.43488 1.2978878e-16 -18.475584)
(223.41642 -2.4487862e-16 -18.044649)
(222.41505 5.6850318e-17 -17.589393)
(221.43406 -5.7473929e-19 -17.111476)
(220.4765 2.547639e-16 -16.612824)
(219.5451 0 -16.095621)
(218.64227 1.9423689e-19 -15.562252)
(217.77002 0 -15.015268)
(216.92998 -7.9520849e-17 -14.457338)
(216.12336 -1.4944515e-16 -13.891201)
(215.35096 7.0166563e-17 -13.319616)
(214.61319 0 -12.745316)
(213.91008 -6.1830879e-17 -12.170964)
(213.24133 2.8939786e-16 -11.599113)
(212.60631 -3.248989e-16 -11.032176)
(212.00413 -3.0442472e-16 -10.472397)
(211.43368 2.8423197e-16 -9.9218276)
(210.89367 -1.773785e-16 -9.3823177)
(210.38265 0 -8.8555039)
(209.8991 0 -8.3428084)
(209.44141 7.2392585e-17 -7.8454403)
(209.00797 6.7558693e-17 -7.3644031)
(208.59715 1.259033e-16 -6.9005024)
(208.20737 -5.8709538e-17 -6.4543571)
(207.83708 -1.0936009e-16 -6.0264115)
(207.48476 -2.0393463e-16 -5.6169464)
(207.14895 -9.5141463e-17 -5.2260879)
(206.82822 1.7662794e-16 -4.8538154)
(206.52113 0 -4.4999758)
(206.22622 -7.6503332e-17 -4.1642801)
(205.94202 -1.421998e-16 -3.8463223)
(205.66709 1.3211628e-16 -3.54562)
(205.39999 6.127568e-17 -3.2616076)
(205.13924 5.6992577e-17 -2.9936477)
(204.88329 0 -2.7410394)
(204.63035 1.9647314e-16 -2.5030076)
(204.37818 1.823083e-16 -2.2787114)
(204.124 -2.5368272e-16 -2.0672488)
(203.86468 7.8463943e-17 -1.8676036)
(203.59718 -7.2721954e-17 -1.6786785)
(203.31862 -4.1658997e-20 -1.4997629)
(203.02615 2.499663e-16 -1.330589)
(202.71818 -2.3167407e-16 -1.1692346)
(202.39406 5.3642265e-17 -1.0140791)
(202.04686 1.4921389e-16 -0.87824487)
(201.6749 -4.6095577e-17 -0.76824117)
(201.32785 -4.269656e-17 -0.60186781)
(201.00073 0 -0.43556688)
(200.44324 3.6526203e-17 -0.86364114)
(221.17156 3.9156909e-16 -34.611919)
(260.70941 5.4263087e-19 -14.52325)
(242.33968 -3.5884161e-16 -34.239359)
(252.53907 0 -16.794211)
(245.47474 0 -31.754956)
(248.64355 -2.6772337e-16 -19.912591)
(245.73715 2.7084222e-16 -28.727035)
(246.26357 6.4236493e-17 -22.817413)
(244.95905 -2.4381732e-16 -26.426626)
(244.49273 2.306189e-16 -24.558836)
(243.61825 -2.4648221e-16 -25.400574)
(242.85202 2.0717009e-16 -25.09322)
(242.01329 -4.9148502e-17 -25.165146)
(241.15658 -4.66074e-17 -25.111509)
(240.2682 -1.7661276e-16 -25.068382)
(239.35196 1.6681477e-16 -25.002377)
(238.40808 -3.5624356e-16 -24.918326)
(237.43784 5.9882656e-16 -24.813272)
(236.44269 -2.829387e-16 -24.685795)
(235.42441 -2.684653e-16 -24.534184)
(234.38512 2.5316591e-16 -24.35687)
(233.32726 -3.0149929e-17 -24.152374)
(232.25362 -2.26949e-16 -23.919351)
(231.1673 2.137876e-16 -23.65665)
(230.07169 2.5325797e-16 -23.363331)
(228.97044 -1.4280324e-16 -23.038715)
(227.86745 0 -22.682422)
(226.76675 2.5539023e-16 -22.294396)
(225.67248 -3.2077804e-16 -21.874939)
(224.5888 1.1286728e-16 -21.424717)
(223.51986 -2.8536488e-16 -20.944775)
(222.46964 2.0105184e-16 -20.436533)
(221.44194 -6.3351372e-17 -19.901771)
(220.4403 2.3806959e-16 -19.342595)
(219.4679 -2.2331231e-16 -18.761424)
(218.52754 -2.1046879e-16 -18.160923)
(217.62158 1.9726545e-16 -17.543968)
(216.75191 -4.6266567e-17 -16.913589)
(215.91994 0 -16.272905)
(215.12658 8.187416e-17 -15.625075)
(214.37229 -7.641543e-17 -14.973237)
(213.65706 0 -14.320453)
(212.98046 1.345566e-16 -13.669666)
(212.34173 -6.2943178e-17 -13.023656)
(211.73974 -1.7648576e-16 -12.385011)
(211.17312 5.5050062e-16 -11.756096)
(210.64029 -2.0611447e-16 -11.139041)
(210.13949 9.6131876e-17 -10.535731)
(209.66885 -2.6955221e-16 -9.9477994)
(209.22644 -1.8513834e-19 -9.376636)
(208.81028 1.562854e-16 -8.8233923)
(208.41842 -1.4579571e-16 -8.2889931)
(208.04894 -6.7848744e-17 -7.7741523)
(207.69999 -6.3199667e-17 -7.2793883)
(207.36978 -1.1801007e-16 -6.8050403)
(207.05663 2.1914584e-16 -6.3512847)
(206.75894 0 -5.9181493)
(206.47519 9.4699632e-17 -5.5055238)
(206.20391 -3.5238326e-16 -5.1131694)
(205.94368 2.4524086e-16 -4.7407323)
(205.69307 7.5895002e-17 -4.387738)
(205.45066 1.4099346e-16 -4.053614)
(205.21507 1.3100655e-16 -3.7377262)
(204.98494 -1.2120843e-16 -3.4393739)
(204.75888 -1.1231931e-16 -3.1577998)
(204.53545 -3.1244741e-16 -2.8921959)
(204.31296 -4.1154537e-20 -2.6416981)
(204.08933 -8.9288968e-17 -2.405393)
(203.86194 0 -2.1823017)
(203.62783 -2.2954073e-16 -1.9713385)
(203.38395 7.0784904e-17 -1.7714611)
(203.12736 0 -1.5821039)
(202.85568 1.2110834e-16 -1.4026764)
(202.56841 0 -1.2307609)
(202.26433 1.0346718e-16 -1.0665596)
(201.93443 -1.4339517e-16 -0.92444196)
(201.58172 1.3251901e-16 -0.80133036)
(201.25809 -8.160528e-17 -0.61760745)
(200.93367 7.5380059e-17 -0.46694565)
(200.38153 0 -0.89919232)
(220.97815 -4.113499e-16 -38.671782)
(260.86387 3.6334579e-16 -17.520553)
(241.9108 -3.3290343e-16 -38.200209)
(252.42215 3.3102747e-16 -20.061596)
(244.96841 3.1700372e-16 -35.38447)
(248.18733 -1.801675e-17 -23.374575)
(245.16954 -2.8384093e-16 -32.134432)
(245.64067 -2.6945124e-16 -26.411647)
(244.24993 2.8679572e-16 -29.764493)
(243.67572 0 -28.101774)
(242.72882 2.8616937e-17 -28.767138)
(241.86777 0 -28.511649)
(240.94068 -1.287148e-16 -28.523787)
(239.99101 2.430315e-16 -28.443881)
(239.00914 0 -28.359247)
(237.99846 0 -28.248897)
(236.95997 0 -28.114637)
(235.89558 3.9142271e-17 -27.953785)
(234.80747 0 -27.764633)
(233.69824 -2.448101e-16 -27.545374)
(232.57087 3.2984366e-16 -27.294376)
(231.4287 1.2480856e-16 -27.010203)
(230.27547 1.76974e-16 -26.691632)
(229.11524 -2.779793e-16 -26.337742)
(227.95234 -5.2383466e-17 -25.947936)
(226.79132 -2.4790766e-16 -25.521987)
(225.63689 1.8658248e-16 -25.060072)
(224.49383 -2.2037587e-16 -24.562806)
(223.36687 8.2451147e-17 -24.031236)
(222.26064 7.7954021e-17 -23.466858)
(221.17957 0 -22.871601)
(220.12777 2.7733069e-16 -22.247787)
(219.10898 -2.6047136e-16 -21.598115)
(218.12649 0 -20.925591)
(217.18307 -2.3027082e-16 -20.233485)
(216.28092 2.1568143e-16 -19.525257)
(215.4217 -1.0164357e-16 -18.80449)
(214.60646 1.9029724e-16 -18.07482)
(213.83567 -2.6738342e-16 -17.339866)
(213.10929 1.2812874e-19 -16.603164)
(212.42675 -1.5622412e-16 -15.868111)
(211.78706 -7.311232e-17 -15.137916)
(211.18883 -1.372235e-16 -14.415554)
(210.63036 2.5580561e-16 -13.703745)
(210.1097 -1.1937124e-16 -13.004927)
(209.6247 0 -12.321246)
(209.1731 -3.8335446e-19 -11.654559)
(208.75255 9.7108595e-17 -11.006434)
(208.36068 0 -10.378161)
(207.99514 8.4464625e-17 -9.7707679)
(207.65362 7.8978946e-17 -9.1850417)
(207.33391 -7.3328145e-17 -8.6215455)
(207.03388 2.730082e-16 -8.0806412)
(206.75154 -2.5379443e-16 -7.5625114)
(206.48503 -1.1803603e-16 -7.067179)
(206.2326 -1.0965365e-16 -6.5945264)
(205.99264 1.0181673e-16 -6.1443108)
(205.76365 1.8886564e-16 -5.7161753)
(205.54419 -3.5033084e-16 -5.3096574)
(205.33291 4.0600329e-16 -4.9242021)
(205.12845 -1.5043327e-16 -4.5591516)
(204.9295 1.3943951e-16 -4.213773)
(204.73477 -1.2907524e-16 -3.8872896)
(204.54302 2.3904948e-16 -3.578873)
(204.35297 -3.3184697e-16 -3.2876557)
(204.16329 2.0456361e-16 -3.0127341)
(203.97246 -8.4149144e-20 -2.7531691)
(203.77856 8.7439563e-17 -2.5079826)
(203.57919 0 -2.2761206)
(203.37157 0 -2.0564531)
(203.15268 0 -1.8480412)
(202.91952 -1.2707432e-16 -1.6503999)
(202.67024 1.916713e-20 -1.4624871)
(202.40524 0 -1.2817433)
(202.12233 0 -1.1105441)
(201.81144 9.1916999e-17 -0.96278035)
(201.48121 -1.6939337e-16 -0.82554405)
(201.18179 0 -0.6280348)
(200.85815 0 -0.49541959)
(200.31695 -1.3186247e-16 -0.92637429)
(220.53939 2.7766112e-17 -42.934374)
(260.77419 -7.8667547e-16 -20.67461)
(241.20383 3.4827673e-16 -42.299778)
(251.78174 -2.1758757e-17 -23.508769)
(244.14806 3.7363863e-16 -39.134076)
(247.39776 -3.5235545e-16 -27.060406)
(244.2929 0 -35.660325)
(244.63142 -3.1739409e-16 -30.198886)
(243.1892 2.3333058e-16 -33.218489)
(242.49049 2.2161996e-16 -31.784863)
(241.4576 -2.392221e-16 -32.268532)
(240.4876 0 -32.045668)
(239.4577 1.9151862e-19 -31.995821)
(238.40145 0 -31.875658)
(237.31289 3.8534672e-16 -31.738024)
(236.19541 -7.2795678e-16 -31.569584)
(235.05097 3.4367358e-16 -31.370319)
(233.88238 -4.0597376e-17 -31.137648)
(232.69282 -3.8577941e-17 -30.869685)
(231.48595 3.6666537e-17 -30.564614)
(230.2659 -6.8468498e-17 -30.220895)
(229.03717 -3.2435588e-16 -29.837291)
(227.80467 3.0527528e-16 -29.412937)
(226.57355 5.7548298e-17 -28.947399)
(225.34921 -2.7273119e-16 -28.4407)
(224.13714 -6.9867774e-19 -27.893383)
(222.94285 2.8966576e-16 -27.306504)
(221.77173 -1.8180723e-16 -26.681654)
(220.62897 -6.1483952e-19 -26.020936)
(219.5194 0 -25.326945)
(218.44743 0 -24.602722)
(217.41695 -7.1542257e-17 -23.851695)
(216.43123 1.339351e-16 -23.077617)
(215.49288 0 -22.284477)
(214.60381 -1.1838112e-16 -21.476425)
(213.76522 2.2150512e-16 -20.657681)
(212.97764 -1.0377393e-16 -19.832444)
(212.24091 -1.9447488e-16 -19.004822)
(211.55428 9.0372441e-17 -18.178754)