/*--------------------------------*- C++ -*----------------------------------*\
  =========                 |
  \\      /  F ield         | OpenFOAM: The Open Source CFD Toolbox
   \\    /   O peration     | Website:  https://openfoam.org
    \\  /    A nd           | Version:  12
     \\/     M anipulation  |
\*---------------------------------------------------------------------------*/
FoamFile
{
    format      ascii;
    class       volScalarField;
    location    "0.101";
    object      nut;
}
// * * * * * * * * * * * * * * * * * * * * * * * * * * * * * * * * * * * * * //

dimensions      [0 2 -1 0 0 0 0];

internalField   nonuniform List<scalar> 
16000
(
4.6628198e-07
9.854919e-06
1.9549164e-05
2.3388268e-05
1.8166054e-05
2.4915887e-05
1.7622223e-05
2.4120342e-05
1.8828188e-05
2.5922102e-05
2.1831969e-05
2.5635004e-05
2.3375189e-05
2.3992793e-05
2.3180993e-05
2.3046499e-05
2.2803122e-05
2.2734795e-05
2.2743402e-05
2.2848817e-05
2.3043471e-05
2.3326802e-05
2.3696273e-05
2.4151864e-05
2.4695672e-05
2.5333431e-05
2.6072913e-05
2.6926587e-05
2.7909635e-05
2.9038374e-05
3.0330668e-05
3.1810291e-05
3.350796e-05
3.5461537e-05
3.7717617e-05
4.0331762e-05
4.3370145e-05
4.6911639e-05
5.1053887e-05
5.5917889e-05
6.1645541e-05
6.8403807e-05
7.6403184e-05
8.59014e-05
9.720484e-05
0.00011068053
0.00012678319
0.00014606643
0.00016920369
0.00019701512
0.00023050427
0.00027090227
0.00031971514
0.00037879102
0.00045040101
0.00053735
0.00064311347
0.00077201284
0.00092944954
0.0010189949
0.0010189426
0.001018832
0.0010186684
0.0010184126
0.0010180608
0.0010175997
0.0010170183
0.0010163144
0.0010155045
0.0010146231
0.0010137012
0.0010127389
0.001011723
0.0010106892
0.0010098721
0.001009125
0.0010083388
0.0010080153
0.0010065916
0.0010074128
4.1789011e-07
9.3590768e-06
1.9715693e-05
2.1307544e-05
1.642349e-05
2.2367749e-05
1.5673792e-05
2.1158479e-05
1.6671165e-05
2.294522e-05
1.9806474e-05
2.3155827e-05
2.1412839e-05
2.1775308e-05
2.1138988e-05
2.0953129e-05
2.0749112e-05
2.067569e-05
2.0684968e-05
2.0780552e-05
2.0959734e-05
2.1221604e-05
2.1564234e-05
2.1987645e-05
2.2493469e-05
2.3087058e-05
2.3775135e-05
2.4568925e-05
2.5482793e-05
2.6532658e-05
2.7735143e-05
2.9111963e-05
3.0691546e-05
3.2508951e-05
3.460778e-05
3.7040297e-05
3.9869159e-05
4.3168502e-05
4.7029292e-05
5.1566119e-05
5.691542e-05
6.3234441e-05
7.0721483e-05
7.9622421e-05
9.023179e-05
0.00010289875
0.00011805749
0.00013623857
0.00015808898
0.00018439737
0.0002161293
0.00025447293
0.00030088411
0.00035715307
0.00042548181
0.00050859282
0.00060986459
0.00073349639
0.00088472564
0.0010182547
0.0010182255
0.0010180949
0.0010179187
0.0010176522
0.0010172921
0.0010168263
0.0010162446
0.0010155441
0.0010147396
0.001013866
0.0010129576
0.0010120176
0.0010110344
0.0010100576
0.0010092758
0.0010085399
0.0010078199
0.0010072292
0.0010063541
0.0010072422
3.6879934e-07
8.9747663e-06
1.8685313e-05
1.9488029e-05
1.4728124e-05
1.9733013e-05
1.397625e-05
1.842598e-05
1.5010126e-05
2.0167564e-05
1.8081794e-05
2.064908e-05
1.942047e-05
1.9525661e-05
1.903461e-05
1.8827686e-05
1.8655418e-05
1.8587323e-05
1.8599701e-05
1.8690137e-05
1.8857206e-05
1.9100332e-05
1.9417912e-05
1.9810198e-05
2.0278462e-05
2.0827862e-05
2.1464394e-05
2.219822e-05
2.3042726e-05
2.4013432e-05
2.5126129e-05
2.6400899e-05
2.786427e-05
2.9548873e-05
3.1495644e-05
3.3753789e-05
3.6382827e-05
3.9453161e-05
4.3050111e-05
4.7281804e-05
5.2280154e-05
5.8194878e-05
6.5213736e-05
7.3571405e-05
8.3552849e-05
9.5492592e-05
0.00010980737
0.00012700812
0.00014771953
0.00017270431
0.00020289615
0.00023944715
0.00028377091
0.00033760921
0.00040310643
0.00048291566
0.00058033319
0.00069946165
0.00084541319
0.0010175635
0.0010175569
0.0010174014
0.0010172043
0.0010169188
0.0010165418
0.0010160626
0.0010154722
0.0010147679
0.0010139633
0.0010130928
0.001012193
0.0010112692
0.0010103089
0.0010093952
0.0010086532
0.0010079469
0.0010072361
0.0010065466
0.0010059483
0.0010064501
3.3630779e-07
8.6863071e-06
1.7762022e-05
1.8156251e-05
1.3260047e-05
1.7447226e-05
1.2470911e-05
1.6124022e-05
1.3526802e-05
1.779842e-05
1.6522589e-05
1.8420013e-05
1.7574713e-05
1.7492114e-05
1.7110138e-05
1.6902637e-05
1.6758605e-05
1.6701001e-05
1.6719286e-05
1.6808108e-05
1.6966594e-05
1.7194572e-05
1.7490799e-05
1.7855892e-05
1.8290894e-05
1.8800917e-05
1.9391483e-05
2.007192e-05
2.0854689e-05
2.1754991e-05
2.2788076e-05
2.3972644e-05
2.5333686e-05
2.6901748e-05
2.8715516e-05
3.0821558e-05
3.3276688e-05
3.614839e-05
3.9517504e-05
4.3486145e-05
4.8182766e-05
5.37514e-05
6.0371373e-05
6.8267426e-05
7.7717669e-05
8.9045431e-05
0.00010265372
0.00011903838
0.00013880708
0.00016270384
0.00019163848
0.0002267372
0.00026938314
0.00032128429
0.00038454544
0.00046177206
0.00055620386
0.00067187946
0.00081383528
0.00098834519
0.0010169344
0.0010167515
0.0010165288
0.0010162203
0.0010158223
0.0010153257
0.0010147227
0.0010140109
0.0010132026
0.0010123308
0.001011434
0.001010521
0.0010095717
0.0010087197
0.0010080195
0.0010073433
0.0010066255
0.0010058966
0.0010055099
0.0010056152
3.0614514e-07
8.4734919e-06
1.6952374e-05
1.8167618e-05
1.3270602e-05
1.5448668e-05
1.1146246e-05
1.4144511e-05
1.224854e-05
1.5751282e-05
1.5132548e-05
1.6407523e-05
1.5848896e-05
1.5639284e-05
1.5338143e-05
1.5143831e-05
1.5023139e-05
1.4976546e-05
1.4999478e-05
1.5085999e-05
1.5235449e-05
1.5448217e-05
1.5723469e-05
1.6062298e-05
1.646565e-05
1.6938665e-05
1.7486532e-05
1.8117917e-05
1.8844365e-05
1.9680711e-05
2.0641852e-05
2.1745341e-05
2.3014894e-05
2.4479259e-05
2.6175178e-05
2.8146929e-05
3.0448902e-05
3.3146214e-05
3.6316357e-05
4.005572e-05
4.448984e-05
4.975851e-05
5.6034486e-05
6.3533181e-05
7.2527539e-05
8.333222e-05
9.6338947e-05
0.00011203129
0.00013100291
0.0001539835
0.0001818635
0.00021574872
0.00025699793
0.00030729254
0.00036870661
0.00044380834
0.00053579295
0.00064864825
0.00078735196
0.00095810252
0.0010163561
0.001016143
0.0010158898
0.0010155534
0.0010151297
0.0010146108
0.0010139907
0.0010132675
0.001012452
0.0010115753
0.0010106766
0.0010097706
0.0010088332
0.0010080418
0.0010073845
0.0010067359
0.0010060109
0.0010052763
0.001004975
0.001004808
2.7872079e-07
8.3450697e-06
1.6303591e-05
1.7935153e-05
1.3045542e-05
1.3697077e-05
1.0575646e-05
1.2506306e-05
1.1426649e-05
1.4027536e-05
1.3913763e-05
1.4637787e-05
1.4270632e-05
1.3985978e-05
1.3735852e-05
1.3556681e-05
1.3451023e-05
1.3411272e-05
1.3435229e-05
1.3517242e-05
1.3656642e-05
1.3854279e-05
1.4109563e-05
1.4423966e-05
1.4798429e-05
1.5238083e-05
1.5747842e-05
1.6335857e-05
1.7012781e-05
1.7793049e-05
1.8691375e-05
1.9724383e-05
2.0914785e-05
2.2289832e-05
2.3884679e-05
2.5741703e-05
2.7913247e-05
3.0462553e-05
3.3464977e-05
3.7011984e-05
4.1226446e-05
4.6245415e-05
5.2237456e-05
5.9409549e-05
6.8031321e-05
7.8411737e-05
9.0934187e-05
0.00010607357
0.0001244132
0.00014667401
0.00017373285
0.00020668237
0.00024686533
0.00029594637
0.00035598123
0.00042951555
0.00051971714
0.00063054282
0.00076693782
0.00093506091
0.0010158159
0.0010155699
0.0010152819
0.0010149135
0.0010144603
0.0010139155
0.0010132745
0.0010125364
0.0010117112
0.0010108271
0.0010099225
0.0010090194
0.0010080983
0.0010073663
0.0010067519
0.0010061288
0.0010054023
0.0010046773
0.0010043802
0.001004046
2.4896944e-07
8.2750717e-06
1.5797438e-05
1.6961751e-05
1.2942847e-05
1.2108596e-05
1.060926e-05
1.1539089e-05
1.095224e-05
1.252261e-05
1.2816383e-05
1.307132e-05
1.2803675e-05
1.2486083e-05
1.2264814e-05
1.2100933e-05
1.2006425e-05
1.1972421e-05
1.1997163e-05
1.207556e-05
1.2206657e-05
1.2391674e-05
1.2630033e-05
1.2847369e-05
1.3187932e-05
1.3591029e-05
1.4060846e-05
1.4604824e-05
1.5232541e-05
1.5957701e-05
1.6794795e-05
1.7759547e-05
1.8873741e-05
2.0163198e-05
2.1661598e-05
2.3409573e-05
2.5457546e-05
2.7866909e-05
3.0711638e-05
3.4336536e-05
3.8372432e-05
4.3189629e-05
4.8954913e-05
5.5868039e-05
6.4196361e-05
7.4246053e-05
8.6395037e-05
0.00010111284
0.00011897554
0.00014070048
0.00016715603
0.0001994283
0.00023885154
0.0002870823
0.00034616891
0.00041864765
0.00050767425
0.00061719174
0.00075213414
0.00091865032
0.0010153095
0.0010150279
0.0010147011
0.0010142974
0.0010138114
0.0010132375
0.0010125724
0.0010118165
0.0010109792
0.0010100858
0.0010091721
0.0010082666
0.001007376
0.0010067009
0.0010061281
0.0010055301
0.0010048092
0.0010041028
0.0010038008
0.0010033411
2.2840235e-07
8.2351374e-06
1.5362688e-05
1.542547e-05
1.1816301e-05
1.0556324e-05
9.1402816e-06
1.0291177e-05
9.5955324e-06
1.1262727e-05
1.1705799e-05
1.1627785e-05
1.1399563e-05
1.1089959e-05
1.089265e-05
1.074875e-05
1.0667974e-05
1.0642735e-05
1.0606391e-05
1.0668496e-05
1.0783383e-05
1.0951228e-05
1.1169957e-05
1.1439634e-05
1.1764415e-05
1.2147283e-05
1.2592703e-05
1.3108053e-05
1.3702374e-05
1.4388944e-05
1.5182452e-05
1.6098143e-05
1.7157353e-05
1.8384998e-05
1.9813884e-05
2.1483538e-05
2.3443213e-05
2.5753151e-05
2.8486829e-05
3.1733678e-05
3.5602687e-05
4.0231878e-05
4.5788079e-05
5.2907827e-05
6.1022838e-05
7.083658e-05
8.2724722e-05
9.7154623e-05
0.0001146984
0.0001360753
0.0001621507
0.00019401111
0.00023299048
0.00028074671
0.00033933243
0.00041128905
0.00049977711
0.00060874538
0.00074313926
0.00090912882
0.0010148309
0.0010145111
0.0010141427
0.0010137008
0.0010131796
0.0010125743
0.0010118825
0.0010111062
0.0010102545
0.0010093505
0.0010084257
0.0010075082
0.0010066711
0.00100605
0.0010055177
0.0010049466
0.0010042409
0.0010035569
0.0010032374
0.0010026857
2.1050653e-07
8.1931447e-06
1.4906704e-05
1.3503564e-05
9.714999e-06
9.3852925e-06
7.539862e-06
8.7815996e-06
8.9560314e-06
1.0125961e-05
1.0576379e-05
1.02823e-05
1.007323e-05
9.7952593e-06
9.6224086e-06
9.4342319e-06
9.3442692e-06
9.3147032e-06
9.3383589e-06
9.4122571e-06
9.5324052e-06
9.7003718e-06
9.9149691e-06
1.0176237e-05
1.0488286e-05
1.0854999e-05
1.128089e-05
1.1773374e-05
1.2341125e-05
1.2996977e-05
1.3755906e-05
1.4632904e-05
1.5649144e-05
1.6828906e-05
1.8204457e-05
1.9814653e-05
2.1708038e-05
2.3944217e-05
2.6596028e-05
2.9752074e-05
3.3521641e-05
3.804069e-05
4.3478737e-05
5.0032237e-05
5.795316e-05
6.7555032e-05
7.9914285e-05
9.41893e-05
0.00011157162
0.00013278767
0.00015870567
0.00019041962
0.00022927162
0.00027693059
0.00033546551
0.00040743796
0.00049603121
0.00060522026
0.00073998475
0.00090654629
0.0010143746
0.0010140141
0.0010136019
0.0010131199
0.0010125618
0.0010119235
0.0010112035
0.0010104045
0.0010095361
0.0010086193
0.0010076839
0.0010067462
0.0010059874
0.0010054177
0.0010049252
0.0010043853
0.0010037061
0.0010030475
0.0010027052
0.0010019912
1.9273964e-07
8.1518651e-06
1.3352572e-05
1.1760023e-05
7.8568082e-06
8.3445279e-06
6.7158421e-06
7.9216041e-06
8.2888847e-06
9.053952e-06
9.4569744e-06
9.0542269e-06
8.8520237e-06
8.5273869e-06
8.3456272e-06
8.2273359e-06
8.1697671e-06
8.1643106e-06
8.2049798e-06
8.2887051e-06
8.4158521e-06
8.5841601e-06
8.7958386e-06
9.0508448e-06
9.3535145e-06
9.7081188e-06
1.0119327e-05
1.0594712e-05
1.1142718e-05
1.1775761e-05
1.2509161e-05
1.3357951e-05
1.4343361e-05
1.5489305e-05
1.6827824e-05
1.8397489e-05
2.0246564e-05
2.2434531e-05
2.503449e-05
2.8135405e-05
3.1846598e-05
3.6303581e-05
4.1678941e-05
4.8169201e-05
5.6028597e-05
6.5572709e-05
7.7190776e-05
9.1339806e-05
0.000109593
0.00013083735
0.00015682395
0.00018866128
0.00022770872
0.00027565654
0.00033460285
0.00040714542
0.00049650967
0.00060671956
0.00074281365
0.00091109483
0.0010139346
0.0010135315
0.001013074
0.0010125506
0.0010119548
0.0010112829
0.0010105338
0.0010097106
0.0010088229
0.0010078898
0.001006945
0.0010060164
0.0010053274
0.0010048076
0.0010043552
0.0010038519
0.0010032104
0.0010025736
0.0010021973
0.0010013352
1.7802987e-07
8.1055337e-06
1.0607872e-05
9.7431335e-06
6.45719e-06
7.4281649e-06
6.1200502e-06
7.1141735e-06
7.7499998e-06
8.079242e-06
8.357625e-06
7.8504634e-06
7.6023443e-06
7.3746117e-06
7.2385654e-06
7.1578813e-06
7.1276247e-06
7.143208e-06
7.1986357e-06
7.2933707e-06
7.4247833e-06
7.5951561e-06
7.8058833e-06
8.0574224e-06
8.3541977e-06
8.7009136e-06
9.1025046e-06
9.5667552e-06
1.0102071e-05
1.0720527e-05
1.1378999e-05
1.2200526e-05
1.3156716e-05
1.4271096e-05
1.5575468e-05
1.7108153e-05
1.8917196e-05
2.1062011e-05
2.3616075e-05
2.6668984e-05
3.0331101e-05
3.5011815e-05
4.0380548e-05
4.6875087e-05
5.4752062e-05
6.4330324e-05
7.601019e-05
9.0259599e-05
0.00010766922
0.00012897617
0.00015650401
0.00018873914
0.00022831126
0.00027694288
0.00033677477
0.00041045812
0.00050128119
0.00061334202
0.00075176528
0.00092296406
0.0010135053
0.0010130577
0.0010125545
0.0010119892
0.0010113555
0.0010106499
0.0010098715
0.0010090232
0.0010081141
0.0010071608
0.001006199
0.0010053199
0.0010046946
0.0010042233
0.0010038121
0.0010033506
0.0010027566
0.0010021366
0.0010017156
0.001000934
1.6481726e-07
8.0582316e-06
8.3705952e-06
8.3008396e-06
5.6852118e-06
6.57571e-06
5.6162481e-06
6.4086527e-06
7.1992665e-06
7.1680197e-06
7.1652396e-06
6.733316e-06
6.5298645e-06
6.360929e-06
6.2637631e-06
6.2145101e-06
6.2084999e-06
6.2415937e-06
6.3103756e-06
6.4144963e-06
6.552677e-06
6.7265402e-06
6.9385913e-06
7.189745e-06
7.4845107e-06
7.794143e-06
8.1845222e-06
8.636897e-06
9.1595408e-06
9.7640955e-06
1.046458e-05
1.1279254e-05
1.2228686e-05
1.3336477e-05
1.4634735e-05
1.6162188e-05
1.7967482e-05
2.0110824e-05
2.2667179e-05
2.5728066e-05
2.9406485e-05
3.3843696e-05
3.9212823e-05
4.5721495e-05
5.3630694e-05
6.3815132e-05
7.5668941e-05
9.0150844e-05
0.00010786235
0.00012956381
0.00015618539
0.00019065461
0.00023108827
0.00028080892
0.00034201419
0.00041742726
0.00051042148
0.00062519637
0.00076699391
0.00094236525
0.0010130815
0.0010125879
0.0010120392
0.0010114321
0.0010107608
0.0010100219
0.0010092145
0.0010083405
0.0010074081
0.0010064345
0.0010054478
0.00100466
0.0010040932
0.0010036692
0.0010033001
0.001002884
0.0010023459
0.0010017499
0.0010012833
0.0010005883
1.5301805e-07
8.0001516e-06
6.658156e-06
7.2809306e-06
5.0634742e-06
5.8147448e-06
5.1821575e-06
5.7816176e-06
6.5435846e-06
6.1340114e-06
6.0885366e-06
5.7551811e-06
5.5928331e-06
5.4714744e-06
5.4076232e-06
5.3853862e-06
5.4004617e-06
5.4503888e-06
5.5322534e-06
5.6465089e-06
5.792441e-06
5.9719706e-06
6.1616694e-06
6.4099898e-06
6.7015528e-06
7.0404682e-06
7.4337159e-06
7.8887567e-06
8.4140822e-06
9.0215357e-06
9.7252861e-06
1.0543371e-05
1.1497593e-05
1.261192e-05
1.3919008e-05
1.5458353e-05
1.7279722e-05
1.9444615e-05
2.2030176e-05
2.5130844e-05
2.8862456e-05
3.336944e-05
3.8833819e-05
4.5468481e-05
5.3542613e-05
6.3391316e-05
7.5431296e-05
9.0166804e-05
0.00010917272
0.00013146049
0.00015882242
0.00019244856
0.00023603988
0.00028726462
0.00035034372
0.00042809234
0.00052399282
0.0006423751
0.0007886351
0.0009694917
0.0010126581
0.0010121175
0.0010115242
0.0010108758
0.0010101675
0.0010093958
0.0010085597
0.0010076604
0.001006703
0.0010057133
0.0010047508
0.0010040395
0.001003528
0.0010031495
0.0010028229
0.0010024536
0.001001977
0.0010014207
0.0010009179
0.0010003162
1.4248731e-07
7.9288936e-06
5.3384068e-06
6.356204e-06
4.5087846e-06
5.1364945e-06
4.810669e-06
5.1420451e-06
5.7206606e-06
5.2351994e-06
5.1431929e-06
4.8987006e-06
4.7749992e-06
4.6933947e-06
4.6591003e-06
4.6612327e-06
4.6960738e-06
4.7621708e-06
4.8574493e-06
4.9639946e-06
5.1135597e-06
5.2965795e-06
5.5152876e-06
5.7726053e-06
6.0727576e-06
6.4202392e-06
6.821955e-06
7.2859943e-06
7.8210749e-06
8.4392025e-06
9.1546702e-06
9.9857424e-06
1.0905014e-05
1.2026773e-05
1.3343513e-05
1.4895468e-05
1.6733731e-05
1.8921154e-05
2.1537106e-05
2.4679452e-05
2.8467872e-05
3.3302164e-05
3.8913552e-05
4.5736931e-05
5.40508e-05
6.4199955e-05
7.6621178e-05
9.1841232e-05
0.00011050608
0.00013464323
0.00016297903
0.00019782263
0.00024069597
0.00029630138
0.00036176478
0.0004424676
0.00054202772
0.0006649344
0.00081677922
0.0010044877
0.0010122306
0.0010116427
0.0010110058
0.0010103171
0.0010095724
0.0010087685
0.001007904
0.00100698
0.001006
0.0010049883
0.0010041066
0.0010034644
0.0010030036
0.001002668
0.0010023829
0.0010020596
0.0010016463
0.0010011544
0.0010006541
0.0010001302
1.3309039e-07
7.7959868e-06
4.3311509e-06
5.532629e-06
4.0126357e-06
4.5321757e-06
4.4839454e-06
4.4468639e-06
4.891134e-06
4.4332084e-06
4.3233315e-06
4.1520472e-06
4.0650765e-06
4.0178549e-06
4.0104277e-06
4.0350965e-06
4.088854e-06
4.1543369e-06
4.2581083e-06
4.3917554e-06
4.5561175e-06
4.7526937e-06
4.9844053e-06
5.2543801e-06
5.5674103e-06
5.9282574e-06
6.3438939e-06
6.802213e-06
7.3477943e-06
7.9771602e-06
8.7046509e-06
9.5485521e-06
1.0531222e-05
1.1680767e-05
1.3030715e-05
1.4622619e-05
1.6509883e-05
1.8757722e-05
2.1448654e-05
2.4685506e-05
2.8593464e-05
3.3330384e-05
3.9087315e-05
4.6099793e-05
5.4658304e-05
6.5667482e-05
7.8577123e-05
9.4408625e-05
0.00011383996
0.00013770863
0.00016861748
0.00020495845
0.00024969537
0.00030478968
0.00037624077
0.00046052181
0.00056450378
0.00069286404
0.00085143164
0.0010124022
0.0010117944
0.0010111602
0.0010104813
0.0010097533
0.0010089727
0.001008137
0.0010072442
0.0010062955
0.0010053017
0.0010042974
0.0010035173
0.0010029384
0.001002524
0.0010022272
0.0010019812
0.0010017021
0.001001349
0.0010009426
0.0010005043
0.0010000143
1.2475103e-07
7.4690616e-06
3.6369613e-06
4.801447e-06
3.5701974e-06
3.9960364e-06
3.9732492e-06
3.8172606e-06
4.0928323e-06
3.7241494e-06
3.6204608e-06
3.5075589e-06
3.4549893e-06
3.4381124e-06
3.4552654e-06
3.4880365e-06
3.5538732e-06
3.648578e-06
3.7713547e-06
3.9224386e-06
4.1032967e-06
4.3159483e-06
4.5637358e-06
4.8500754e-06
5.1682899e-06
5.5432415e-06
5.9734507e-06
6.4669824e-06
7.0339811e-06
7.6865295e-06
8.439345e-06
9.31146e-06
1.0326157e-05
1.1512617e-05
1.2906697e-05
1.4551491e-05
1.6503278e-05
1.8830371e-05
2.1618711e-05
2.4977288e-05
2.9036355e-05
3.3961792e-05
3.9957191e-05
4.7268769e-05
5.6203568e-05
6.7138726e-05
8.1254236e-05
9.7823559e-05
0.00011817033
0.00014318352
0.00017393573
0.00021378727
0.000260719
0.00031853768
0.00038978709
0.00048215153
0.00059131146
0.00072605005
0.00089246635
0.0010119899
0.0010113454
0.0010106675
0.0010099484
0.0010091824
0.0010083665
0.0010074992
0.0010065792
0.0010056065
0.0010046012
0.0010036791
0.0010029825
0.0010024632
0.0010020908
0.0010018286
0.0010016186
0.0010013823
0.0010010829
0.0010007601
0.0010004085
0.00099988953
1.1754948e-07
7.0640912e-06
3.1941615e-06
4.1523632e-06
3.176049e-06
3.3716427e-06
3.5207642e-06
3.2403649e-06
3.3716337e-06
3.1083361e-06
3.0255075e-06
2.9587358e-06
2.9373957e-06
2.9476286e-06
2.9723062e-06
3.0336933e-06
3.1227736e-06
3.2383615e-06
3.3805634e-06
3.5503421e-06
3.7497073e-06
3.980959e-06
4.2395651e-06
4.5428359e-06
4.8899256e-06
5.2864937e-06
5.7393449e-06
6.2568339e-06
6.8493108e-06
7.5296281e-06
8.3129737e-06
9.2191928e-06
1.027263e-05
1.1503934e-05
1.2895523e-05
1.4590271e-05
1.660314e-05
1.9006054e-05
2.202062e-05
2.5526037e-05
2.9767326e-05
3.4918368e-05
4.1196432e-05
4.8861123e-05
5.8235334e-05
6.9719215e-05
8.3804249e-05
0.00010109434
0.00012342539
0.00014975449
0.00018213955
0.0002219956
0.00027363762
0.00033456679
0.00040966133
0.00050715039
0.00062221512
0.00076422927
0.00093958749
0.0010115643
0.0010108822
0.0010101634
0.001009406
0.0010086039
0.0010077537
0.0010068548
0.0010059084
0.0010049201
0.001003921
0.001003122
0.0010025018
0.0010020374
0.0010017037
0.0010014727
0.0010012959
0.001001101
0.0010008504
0.001000597
0.0010003249
0.00099986212
1.1174202e-07
6.0787783e-06
2.8155064e-06
3.5627814e-06
2.8340568e-06
2.79564e-06
3.0706963e-06
2.7183212e-06
2.7528155e-06
2.5824215e-06
2.5271273e-06
2.4977702e-06
2.4970867e-06
2.5248081e-06
2.5837223e-06
2.6697899e-06
2.7811346e-06
2.9175849e-06
3.0799954e-06
3.2697688e-06
3.4841519e-06
3.73416e-06
4.0198802e-06
4.3453495e-06
4.7153915e-06
5.1358578e-06
5.6138652e-06
6.1580928e-06
6.7792152e-06
7.4740746e-06
8.286474e-06
9.224697e-06
1.031409e-05
1.1586416e-05
1.3081406e-05
1.4848751e-05
1.6949905e-05
1.946183e-05
2.2480062e-05
2.6122699e-05
3.0536463e-05
3.6160865e-05
4.27609e-05
5.0827584e-05
6.0700764e-05
7.2803315e-05
8.7655901e-05
0.0001059002
0.000129504
0.00015730433
0.00019151245
0.00023362108
0.00028825165
0.00035264083
0.0004320157
0.00052990046
0.00065681315
0.00080693638
0.00099225997
0.0010111255
0.0010104049
0.0010096483
0.001008855
0.0010080192
0.0010071368
0.0010062075
0.0010052346
0.0010042374
0.0010033261
0.0010026204
0.0010020716
0.0010016578
0.0010013605
0.0010011588
0.001001012
0.0010008556
0.0010006523
0.0010004619
0.0010002674
0.00099992922
1.0688838e-07
4.2503252e-06
2.4715416e-06
3.016558e-06
2.4048209e-06
2.3126302e-06
2.5998812e-06
2.2541127e-06
2.2380462e-06
2.1397108e-06
2.1147995e-06
2.1106247e-06
2.1377722e-06
2.1957208e-06
2.2804453e-06
2.3896269e-06
2.5226e-06
2.6798723e-06
2.8600755e-06
3.0692659e-06
3.3084475e-06
3.5804578e-06
3.8887494e-06
4.2375205e-06
4.631833e-06
5.0777849e-06
5.582777e-06
6.146503e-06
6.7951101e-06
7.5358962e-06
8.3859892e-06
9.3666641e-06
1.0504738e-05
1.1833896e-05
1.3396376e-05
1.5244841e-05
1.744477e-05
2.0077671e-05
2.3244999e-05
2.707271e-05
3.1716973e-05
3.7370468e-05
4.4601089e-05
5.3110458e-05
6.3532765e-05
7.6315338e-05
9.2009404e-05
0.0001112955
0.00013501359
0.00016567318
0.00020186406
0.00024642347
0.00030131348
0.00037242019
0.00045643776
0.00056005491
0.000694501
0.0008534522
0.0010114194
0.0010106745
0.0010099161
0.0010091247
0.0010082981
0.0010074313
0.0010065197
0.001005563
0.0010045723
0.001003585
0.0010027972
0.001002173
0.0010016879
0.0010013208
0.0010010584
0.0010008848
0.0010007641
0.0010006396
0.00100048
0.0010003473
0.001000216
0.00099993892
1.0173418e-07
3.5063984e-06
2.114138e-06
2.5143402e-06
2.0530219e-06
1.9088421e-06
2.1175794e-06
1.8475819e-06
1.8196692e-06
1.7760435e-06
1.7773408e-06
1.8039188e-06
1.8625934e-06
1.9471323e-06
2.0551689e-06
2.1858271e-06
2.3393445e-06
2.5148681e-06
2.7171833e-06
2.9473964e-06
3.2080277e-06
3.5021325e-06
3.8333642e-06
4.2060845e-06
4.6255298e-06
5.0980197e-06
5.6249182e-06
6.2255058e-06
6.907091e-06
7.6840228e-06
8.5743508e-06
9.6006094e-06
1.0791146e-05
1.2181608e-05
1.3816873e-05
1.5753152e-05
1.8060262e-05
2.0824771e-05
2.4154398e-05
2.8182355e-05
3.3074095e-05
3.9316905e-05
4.665864e-05
5.564131e-05
6.6650295e-05
8.0158564e-05
9.674927e-05
0.00011714212
0.00014354321
0.00017465382
0.00021294256
0.00026009367
0.00031818426
0.0003934468
0.00048237648
0.00059206303
0.00073443811
0.00090275397
0.0010109824
0.0010102128
0.0010094201
0.0010085972
0.0010077401
0.0010068455
0.0010059089
0.0010049282
0.0010039257
0.0010030304
0.0010023291
0.0010017773
0.0010013484
0.0010010238
0.0010007948
0.0010006482
0.0010005499
0.0010004504
0.0010003248
0.0010002288
0.0010001523
0.0010000369
9.7951517e-08
2.8000099e-06
1.80453e-06
2.0104227e-06
1.7622308e-06
1.5634897e-06
1.6730552e-06
1.5035125e-06
1.4905144e-06
1.4902128e-06
1.5181431e-06
1.5776306e-06
1.6627718e-06
1.7700928e-06
1.8986742e-06
2.0487264e-06
2.2201802e-06
2.4161641e-06
2.6382405e-06
2.888723e-06
3.1703783e-06
3.4864413e-06
3.8407015e-06
4.237642e-06
4.682636e-06
5.1786191e-06
5.7388688e-06
6.3708115e-06
7.0864366e-06
7.9007877e-06
8.8329593e-06
9.9068132e-06
1.1152393e-05
1.2607432e-05
1.4319397e-05
1.6348004e-05
1.8767932e-05
2.1670905e-05
2.5171519e-05
2.9410925e-05
3.479165e-05
4.1125555e-05
4.8864385e-05
5.8339293e-05
6.9956543e-05
8.4216864e-05
0.00010173653
0.00012327643
0.00015112487
0.00018398321
0.00022443138
0.00027424785
0.00033563165
0.00041512145
0.0005091046
0.00062504222
0.00077552836
0.00095350357
0.0010105417
0.0010097462
0.0010089231
0.0010080724
0.0010071884
0.0010062678
0.0010053104
0.0010043226
0.0010033373
0.0010025517
0.0010019231
0.0010014317
0.0010010518
0.0010007661
0.0010005678
0.0010004461
0.0010003666
0.0010002885
0.0010002001
0.0010001503
0.0010001086
0.0010000477
9.5744371e-08
2.1842642e-06
1.5353672e-06
1.5313608e-06
1.4940874e-06
1.2683491e-06
1.3115865e-06
1.2290897e-06
1.2436254e-06
1.274012e-06
1.3351905e-06
1.4205464e-06
1.5270437e-06
1.6533448e-06
1.7996947e-06
1.9670942e-06
2.1563813e-06
2.3705405e-06
2.6113859e-06
2.881454e-06
3.1836555e-06
3.5213437e-06
3.8984104e-06
4.3194369e-06
4.789902e-06
5.316466e-06
5.9073386e-06
6.572723e-06
7.3169099e-06
8.169156e-06
9.1438018e-06
1.0266121e-05
1.1567974e-05
1.3089369e-05
1.488041e-05
1.7073131e-05
1.9627482e-05
2.2694671e-05
2.6396779e-05
3.0884472e-05
3.6343408e-05
4.300201e-05
5.1142605e-05
6.1112889e-05
7.3341306e-05
8.8356158e-05
0.00010680776
0.00013062912
0.0001587497
0.00019335085
0.00023594922
0.00028841881
0.00035641974
0.00043671675
0.00053573229
0.00065790709
0.00081641726
0.0010040486
0.0010101066
0.0010092843
0.0010084336
0.0010075581
0.001006652
0.0010057096
0.0010047293
0.0010037351
0.0010028498
0.0010021416
0.0010015767
0.0010011352
0.001000797
0.0010005466
0.0010003755
0.0010002756
0.0010002121
0.0010001508
0.0010000918
0.0010000802
0.001000075
0.0010000556
9.5895314e-08
1.6592581e-06
1.3082404e-06
1.1647218e-06
1.2247323e-06
1.021386e-06
1.0463494e-06
1.0263433e-06
1.0692315e-06
1.1289746e-06
1.2141778e-06
1.3190714e-06
1.4425594e-06
1.5847714e-06
1.7467516e-06
1.9299888e-06
2.1359949e-06
2.3673395e-06
2.6261834e-06
2.9151745e-06
3.2373087e-06
3.5960172e-06
3.9952767e-06
4.4397684e-06
4.9350971e-06
5.4880884e-06
6.1071849e-06
6.8029433e-06
7.5886532e-06
8.4811214e-06
9.5015962e-06
1.0676995e-05
1.2041249e-05
1.363704e-05
1.551782e-05
1.7750298e-05
2.0417515e-05
2.3622824e-05
2.7494167e-05
3.2189973e-05
3.7905981e-05
4.4883054e-05
5.3415855e-05
6.3869505e-05
7.6692618e-05
9.3203635e-05
0.00011269947
0.00013666388
0.00016613974
0.00020241513
0.00024707932
0.00030493209
0.00037322907
0.00045741432
0.00056125157
0.00069610906
0.00085553747
0.0010105283
0.0010096877
0.0010088395
0.0010079637
0.0010070636
0.0010061371
0.0010051821
0.0010041997
0.0010032213
0.0010024366
0.0010017961
0.001001286
0.0010008859
0.0010005813
0.0010003617
0.0010002145
0.0010001314
0.0010000821
0.0010000388
0.0010000089
0.0010000281
0.0010000532
0.001000056
9.9203423e-08
1.2307911e-06
1.1202015e-06
8.9662507e-07
1.0677241e-06
8.1766555e-07
8.6428071e-07
8.8892063e-07
9.5455321e-07
1.0373632e-06
1.1399487e-06
1.2598365e-06
1.3973815e-06
1.5535632e-06
1.7298396e-06
1.9279188e-06
2.1497427e-06
2.3973295e-06
2.6733068e-06
2.9802992e-06
3.3213664e-06
3.7000112e-06
4.1202972e-06
4.5870147e-06
5.1059083e-06
5.6839858e-06
6.3299337e-06
7.0546848e-06
7.8720457e-06
8.7995541e-06
9.8594064e-06
1.1079794e-05
1.2496284e-05
1.4153647e-05
1.6107959e-05
1.8429228e-05
2.1204511e-05
2.4541769e-05
2.8574565e-05
3.3467872e-05
3.9694453e-05
4.702601e-05
5.59914e-05
6.697322e-05
8.0441757e-05
9.6976279e-05
0.00011729082
0.00014226579
0.000172984
0.00021275789
0.00025965258
0.00031739881
0.00038854941
0.00047627034
0.00059019419
0.00072478489
0.00089102
0.0010101446
0.001009291
0.0010084237
0.0010075286
0.0010066064
0.0010056559
0.0010046801
0.0010036982
0.0010028038
0.0010020878
0.0010015073
0.0010010449
0.0010006818
0.0010004043
0.001000207
0.0010000818
0.0010000097
0.00099997103
0.00099994522
0.00099994505
0.0009999941
0.001000046
0.0010000603
1.0577719e-07
9.5325657e-07
9.5623657e-07
7.5808408e-07
7.6129987e-07
6.9742429e-07
7.4236068e-07
8.0203786e-07
8.8490319e-07
9.8381536e-07
1.0994545e-06
1.2317132e-06
1.3816375e-06
1.5505335e-06
1.739984e-06
1.9517558e-06
2.1878228e-06
2.4503836e-06
2.7418995e-06
3.0651402e-06
3.4232486e-06
3.8198292e-06
4.2590726e-06
4.7459311e-06
5.2863637e-06
5.8855533e-06
6.5555614e-06
7.3063488e-06
8.1595498e-06
9.1219725e-06
1.0221827e-05
1.1488691e-05
1.2959854e-05
1.4682183e-05
1.671434e-05
1.9129454e-05
2.2018381e-05
2.5493701e-05
2.9694582e-05
3.4792805e-05
4.1000174e-05
4.8577652e-05
5.7846444e-05
6.9200098e-05
8.3124962e-05
0.00010021924
0.00012229921
0.00014831499
0.00018030198
0.00021965461
0.00026809508
0.0003277562
0.00040127958
0.00049661894
0.0006093066
0.00074843412
0.00092036559
0.0010097938
0.0010089266
0.001008044
0.0010071366
0.0010062026
0.0010052395
0.0010042515
0.0010032727
0.0010024639
0.0010018021
0.0010012693
0.0010008459
0.0010005162
0.0010002656
0.0010000813
0.00099997293
0.00099990839
0.00099987342
0.00099985739
0.00099987728
0.00099995352
0.0010000419
0.0010000704
1.2029386e-07
9.5653526e-07
7.9798078e-07
5.6218436e-07
6.0502715e-07
6.0790932e-07
6.7108962e-07
7.4950378e-07
8.4585486e-07
9.5690201e-07
1.0836172e-06
1.2268156e-06
1.3877785e-06
1.5679069e-06
1.7688089e-06
1.9922753e-06
2.2403078e-06
2.5151451e-06
2.8192989e-06
3.1555983e-06
3.5272509e-06
3.937929e-06
4.391893e-06
4.8941681e-06
5.4507948e-06
6.0691724e-06
6.7585153e-06
7.5304384e-06
8.3996996e-06
9.3850883e-06
1.0510493e-05
1.1806244e-05
1.3310627e-05
1.5071776e-05
1.7149916e-05
1.9620083e-05
2.2575454e-05
2.6131365e-05
3.0430259e-05
3.5647753e-05
4.2000208e-05
5.011053e-05
5.9667567e-05
7.1369983e-05
8.5717921e-05
0.00010332617
0.00012495283
0.00015153306
0.00018422129
0.00022444206
0.00027396089
0.00033805515
0.00041378987
0.00050717799
0.00062243415
0.00076481626
0.00094088742
0.0010094996
0.0010086155
0.001007715
0.0010067929
0.0010058484
0.0010048808
0.0010038973
0.001002944
0.0010021957
0.0010015796
0.0010010846
0.0010006903
0.0010003843
0.0010001685
0.00099997881
0.00099988225
0.00099982733
0.00099979143
0.00099977896
0.00099980084
0.00099987475
0.00099997251
0.0010000296
1.1030747e-07
6.1744769e-07
6.3282746e-07
4.6558876e-07
5.0768835e-07
5.5321573e-07
6.3150846e-07
7.2351679e-07
8.3051365e-07
9.5182808e-07
1.0885241e-06
1.2416453e-06
1.4125001e-06
1.6025436e-06
1.8134165e-06
2.0469556e-06
2.3052169e-06
2.5904687e-06
2.905334e-06
3.2526908e-06
3.6358156e-06
4.0584508e-06
4.5249286e-06
5.0403488e-06
5.6108342e-06
6.24388e-06
6.948819e-06
7.7374249e-06
8.6317321e-06
9.6398931e-06
1.0791128e-05
1.2116526e-05
1.3655278e-05
1.5456612e-05
1.7582058e-05
2.0108233e-05
2.3130208e-05
2.6765627e-05
3.1159759e-05
3.6491689e-05
4.2981904e-05
5.0901542e-05
6.0583748e-05
7.2439496e-05
8.6974056e-05
0.00010481019
0.00012671585
0.00015498713
0.00018833989
0.00022936758
0.0002798712
0.00034208002
0.00041876173
0.00051335892
0.00063016385
0.00077454236
0.00095320493
0.0010092912
0.001008392
0.0010074731
0.0010065316
0.0010055676
0.0010045846
0.0010036023
0.0010027096
0.0010019987
0.0010014197
0.0010009561
0.0010005881
0.0010003009
0.0010000884