/*--------------------------------*- C++ -*----------------------------------*\
  =========                 |
  \\      /  F ield         | OpenFOAM: The Open Source CFD Toolbox
   \\    /   O peration     | Website:  https://openfoam.org
    \\  /    A nd           | Version:  12
     \\/     M anipulation  |
\*---------------------------------------------------------------------------*/
FoamFile
{
    format      ascii;
    class       volScalarField;
    location    "0.101";
    object      p;
}
// * * * * * * * * * * * * * * * * * * * * * * * * * * * * * * * * * * * * * //

dimensions      [1 -1 -2 0 0 0 0];

internalField   nonuniform List<scalar> 
16000
(
89594.98
89721.619
89733.339
89868.524
89894.838
90022.829
90073.508
90190.77
90264.89
90376.438
90468.887
90580.32
90686.887
90802.636
90920.279
91043.39
91170.58
91302.455
91438.892
91579.979
91725.728
91876.144
92031.209
92190.882
92355.096
92523.757
92696.739
92873.886
93055.008
93239.883
93428.252
93619.824
93814.273
94011.239
94210.33
94411.128
94613.185
94816.032
95019.183
95222.135
95424.381
95625.407
95824.705
96021.777
96216.138
96407.324
96594.898
96778.452
96957.611
97132.039
97301.436
97465.545
97624.148
97777.07
97924.174
98065.365
98200.582
98329.8
98453.025
98570.296
98681.677
98787.25
98887.122
98981.416
99070.265
99153.816
99232.229
99305.674
99374.34
99438.432
99498.172
99553.785
99605.495
99653.506
99697.954
99739.678
99780.481
99799.391
99886.658
99808.423
89225.388
89368.957
89378.394
89525.512
89553.259
89692.195
89745.142
89873.708
89951.592
90073.264
90172.079
90292.451
90407.327
90531.936
90658.841
90791.44
90928.532
91070.605
91217.578
91369.508
91526.389
91688.204
91854.902
92026.409
92202.619
92383.393
92568.559
92757.909
92951.2
93148.15
93348.442
93551.721
93757.596
93965.643
94175.406
94386.404
94598.13
94810.058
95021.652
95232.367
95441.659
95648.988
95853.832
96055.683
96254.063
96448.523
96638.648
96824.065
97004.442
97179.488
97348.96
97512.658
97670.425
97822.147
97967.75
98107.197
98240.484
98367.639
98488.719
98603.804
98713
98816.423
98914.206
99006.497
99093.449
99175.22
99251.98
99323.9
99391.167
99453.979
99512.548
99567.089
99617.806
99664.882
99708.629
99749.793
99786.274
99818.081
99877.015
99828.323
88886.075
89045.215
89054.393
89214.986
89242.832
89395.602
89450.259
89591.216
89673.999
89806.231
89912.856
90042.854
90167.347
90301.868
90439.265
90582.583
90730.831
90884.37
91043.136
91207.142
91376.355
91550.72
91730.148
91914.522
92103.689
92297.458
92495.604
92697.859
92903.915
93113.425
93325.999
93541.211
93758.595
93977.653
94197.859
94418.659
94639.485
94859.753
95078.877
95296.273
95511.369
95723.608
95932.463
96137.434
96338.064
96533.934
96724.674
96909.96
97089.521
97263.134
97430.625
97591.868
97746.782
97895.326
98037.499
98173.332
98302.886
98426.247
98543.526
98654.851
98760.365
98860.223
98954.584
99043.619
99127.496
99206.388
99280.469
99349.911
99414.895
99475.613
99532.262
99585.037
99634.119
99679.726
99722.199
99761.632
99796.552
99832.204
99874.474
99848.066
88582.164
88752.149
88762.336
88938.36
88965.678
89134.752
89191.648
89346.969
89435.587
89579.923
89695.848
89836.841
89972.589
90118.498
90267.92
90423.442
90584.281
90750.675
90922.562
91099.919
91282.684
91470.762
91664.026
91862.311
92065.41
92273.074
92485.01
92700.877
92920.29
93142.819
93367.988
93595.282
93824.149
94054.008
94284.248
94514.243
94743.357
94970.952
95196.396
95419.075
95638.399
95853.812
96064.798
96270.887
96471.66
96666.756
96855.866
97038.743
97215.195
97385.085
97548.328
97704.887
97854.769
97998.02
98134.719
98264.972
98388.91
98506.684
98618.457
98724.404
98824.711
98919.564
99009.15
99093.658
99173.274
99248.177
99318.545
99384.551
99446.366
99504.171
99558.143
99608.445
99655.249
99698.797
99739.286
99776.474
99810.258
99845.462
99877.929
99866.303
88317.021
88501.994
88508.873
88703.723
88729.949
88917.545
88976.634
89148.194
89243.954
89401.846
89528.894
89682.107
89830.653
89989.211
90151.91
90320.839
90495.427
90675.824
90861.971
91053.816
91251.261
91454.17
91662.361
91875.604
92093.621
92316.082
92542.603
92772.749
93006.034
93241.922
93479.834
93719.151
93959.221
94199.364
94438.887
94677.086
94913.262
95146.73
95376.827
95602.925
95824.439
96040.835
96251.635
96456.425
96654.855
96846.644
97031.576
97209.501
97380.329
97544.03
97700.623
97850.175
97992.792
98128.612
98257.8
98380.542
98497.04
98607.505
98712.153
98811.205
98904.882
98993.4
99076.969
99155.79
99230.061
99299.966
99365.682
99427.376
99485.211
99539.351
99589.945
99637.124
99681.06
99721.973
99759.856
99794.48
99826.771
99859.467
99885.114
99884.794
88095.37
88298.034
88302.825
88518.802
88543.927
88752.034
88813.44
89002.951
89107.091
89279.299
89418.713
89584.658
89746.919
89918.953
90095.874
90279.28
90468.781
90664.443
90866.183
91073.893
91287.414
91506.533
91730.986
91960.447
92194.534
92432.806
92674.761
92919.842
93167.436
93416.882
93667.478
93918.485
94169.14
94418.667
94666.285
94911.224
95152.736
95390.106
95622.663
95849.795
96070.952
96285.652
96493.494
96694.151
96887.376
97073
97250.926
97421.128
97583.641
97738.557
97886.013
98026.19
98159.297
98285.57
98405.261
98518.631
98625.95
98727.484
98823.498
98914.25
98999.992
99080.962
99157.383
99229.468
99297.417
99361.414
99421.63
99478.221
99531.34
99581.128
99627.702
99671.165
99711.688
99749.416
99784.147
99815.909
99846.223
99875.276
99895.337
99904.394
87917.641
88141.28
88143.274
88384.005
88408.136
88640.567
88705.191
88914.207
89026.71
89212.545
89365.235
89544.524
89721.845
89908.88
90101.728
90301.483
90507.835
90720.744
90940.056
91165.576
91397.048
91634.152
91876.507
92123.662
92375.101
92630.238
92888.428
93148.962
93411.079
93673.975
93936.808
94198.715
94458.821
94716.257
94970.171
95219.746
95464.211
95702.854
95935.036
96160.198
96377.865
96587.656
96789.284
96982.551
97167.35
97343.656
97511.521
97671.063
97822.461
97965.942
98101.77
98230.24
98351.668
98466.382
98574.714
98676.995
98773.552
98864.699
98950.738
99031.956
99108.624
99180.994
99249.297
99313.746
99374.537
99431.848
99485.836
99536.647
99584.412
99629.25
99671.24
99710.469
99747.097
99781.146
99812.269
99840.902
99868.711
99893.181
99908.455
99926.065
87777.729
88025.994
88023.66
88294.234
88315.197
88574.525
88642.261
88870.376
88994.574
89196.535
89366.228
89561.738
89757.189
89962.186
90173.795
90392.683
90618.574
90851.325
91090.691
91336.366
91587.971
91845.051
92107.075
92373.432
92643.438
92916.334
93191.298
93467.447
93743.851
94019.548
94293.554
94564.882
94832.561
95095.649
95353.254
95604.547
95848.779
96085.292
96313.526
96533.03
96743.461
96944.588
97136.286
97318.53
97491.388
97655.012
97809.623
97955.505
98092.988
98222.437
98344.244
98458.814
98566.558
98667.888
98763.203
98852.891
98937.321
99016.843
99091.782
99162.44
99229.1
99292.013
99351.41
99407.496
99460.457
99510.453
99557.627
99602.104
99643.995
99683.385
99720.323
99754.886
99787.207
99817.147
99844.305
99869.617
99894.413
99913.513
99924.665
99950.354
87673.696
87950.432
87943.691
88251.282
88266.278
88554.374
88627.52
88877.691
89018.801
89239.432
89429.831
89644.519
89861.196
90087.289
90320.693
90561.725
90810.079
91065.485
91327.568
91595.873
91869.856
92148.885
92432.233
92719.091
93008.564
93299.686
93591.426
93882.706
94172.416
94459.433
94742.64
95020.95
95293.324
95558.792
95816.471
96065.581
96305.458
96535.561
96755.484
96964.948
97163.805
97352.029
97529.707
97697.027
97854.266
98001.77
98139.948
98269.249
98390.155
98503.163
98608.779
98707.505
98799.831
98886.231
98967.156
99043.03
99114.249
99181.178
99244.153
99303.479
99359.431
99412.255
99462.169
99509.362
99553.999
99596.222
99636.149
99673.882
99709.506
99743.07
99774.596
99804.161
99831.844
99857.326
99880.278
99902.156
99923.468
99936.647
99944.432
99977.726
87608.407
87918.41
87908.54
88253.178
88267.467
88587.932
88672.586
88948.208
89109.375
89350.68
89565.441
89802.525
90043.717
90294.331
90552.86
90819.31
91093.272
91374.304
91661.853
91955.262
92253.767
92556.501
92862.492
93170.677
93479.91
93788.979
94096.625
94401.561
94702.502
94998.183
95287.389
95568.977
95841.9
96105.23
96358.172
96600.08
96830.462
97048.986
97255.475
97449.901
97632.375
97803.128
97962.503
98110.927
98248.901
98376.975
98495.738
98605.798
98707.77
98802.264
98889.876
98971.18
99046.721
99117.012
99182.53
99243.715
99300.967
99354.652
99405.096
99452.593
99497.401
99539.748
99579.827
99617.805
99653.822
99687.991
99720.404
99751.137
99780.24
99807.728
99833.605
99857.951
99880.748
99901.517
99920.151
99938.546
99955.922
99962.913
99968.383
100008.71
87588.792
87938.34
87924.47
88309.823
88328.072
88685.166
88784.87
89087.799
89274.765
89539.619
89783.001
90046.455
90315.936
90594.921
90882.261
91177.68
91480.591
91790.326
92106.08
92426.924
92751.8
93079.534
93408.845
93738.362
94066.65
94392.229
94713.606
95029.303
95337.888
95638.007
95928.414
96207.995
96475.797
96731.04
96973.132
97201.674
97416.456
97617.451
97804.8
97978.795
98139.857
98288.516
98425.385
98551.139
98666.496
98772.195
98868.982
98957.594
99038.749
99113.137
99181.411
99244.185
99302.028
99355.464
99404.969
99450.976
99493.871
99533.999
99571.662
99607.128
99640.629
99672.361
99702.489
99731.147
99758.444
99784.462
99809.265
99832.896
99855.372
99876.67
99896.794
99915.811
99933.572
99949.489
99963.829
99978.734
99991.705
99992.391
99996.718
100043.84
87623.498
88020.08
88002.318
88435.916
88459.058
88855.959
88975.285
89307.396
89525.943
89817.697
90094.11
90388.466
90690.485
91002.136
91322.386
91650.64
91986.035
92327.576
92674.109
93024.327
93376.791
93729.943
94082.133
94431.648
94776.743
95115.678
95446.756
95768.36
96078.995
96377.32
96662.183
96932.64
97187.98
97427.722
97651.623
97859.662
98052.024
98229.081
98391.36
98539.516
98674.307
98796.562
98907.155
99006.984
99096.952
99177.945
99250.825
99316.414
99375.49
99428.779
99476.954
99520.63
99560.369
99596.677
99630.004
99660.752
99689.273
99715.877
99740.828
99764.357
99786.656
99807.886
99828.173
99847.617
99866.291
99884.243
99901.507
99918.093
99933.977
99949.114
99963.515
99977.205
99989.88
100000.95
100011.16
100022.58
100030.7
100025.29
100029.8
100082.88
87713.4
88165.902
88144.797
88633.296
88664.958
89105.541
89252.138
89616.06
89873.373
90196.851
90511.48
90842.24
91181.883
91531.177
91888.958
92254.211
92625.655
93001.834
93381.118
93761.724
94141.743
94519.177
94891.974
95258.068
95615.431
95962.121
96296.328
96616.428
96921.019
97208.959
97479.387
97731.735
97965.722
98181.348
98378.866
98558.754
98721.68
98868.467
99000.053
99117.458
99221.755
99314.032
99395.38
99466.863
99529.508
99584.293
99632.135
99673.888
99710.337
99742.203
99770.134
99794.715
99816.468
99835.851
99853.27
99869.076
99883.571
99897.015
99909.625
99921.584
99933.042
99944.114
99954.887
99965.42
99975.749
99985.892
99995.848
100005.59
100015.06
100024.21
100033.04
100041.52
100049.17
100055.54
100061.92
100069.86
100072.77
100061.86
100067.87
100125.55
87863.809
88382.695
88358.896
88909.782
88956.3
89444.527
89627.716
90026.834
90330.753
90692.337
91051.303
91424.998
91808.249
92200.757
92600.949
93007.223
93417.711
93830.361
94242.952
94653.138
95058.484
95456.523
95844.809
96220.985
96582.845
96928.403
97255.947
97564.087
97851.785
98118.37
98363.537
98587.323
98790.083
98972.448
99135.277
99279.608
99406.617
99517.567
99613.771
99696.556
99767.236
99827.087
99877.33
99919.119
99953.531
99981.562
100004.12
100022.04
100036.06
100046.86
100055.01
100061.05
100065.43
100068.54
100070.73
100072.27
100073.41
100074.35
100075.26
100076.26
100077.46
100078.92
100080.7
100082.8
100085.23
100087.97
100090.99
100094.23
100097.6
100101.06
100104.6
100108.07
100110.88
100112.89
100115.83
100120.28
100117.76
100102.39
100111.19
100171.84
88081.334
88679.612
88655.037
89276.776
89345.428
89885.384
90116.506
90556.074
90915.669
91323.919
91734.767
92158.964
92592.389
93033.688
93480.622
93930.843
94381.75
94830.571
95274.4
95710.26
96135.173
96546.25
96940.773
97316.293
97670.702
98002.302
98309.845
98592.548
98850.095
99082.601
99290.575
99474.861
99636.578
99777.057
99897.777
100000.31
100086.27
100157.28
100214.91
100260.7
100296.1
100322.46
100341.03
100352.96
100359.32
100361.03
100358.95
100353.83
100346.32
100337.02
100326.42
100314.96
100303.01
100290.88
100278.84
100267.09
100255.82
100245.17
100235.23
100226.09
100217.79
100210.36
100203.8
100198.09
100193.2
100189.08
100185.67
100182.87
100180.58
100178.76
100177.39
100176.16
100174.45
100172.56
100172.53
100173.43
100165.41
100147.09
100160.1
100221.55
88372.28
89065.406
89042.932
89745.186
89847.405
90445.027
90738.849
91227.482
91653.346
92118.617
92589.702
93071.994
93561.578
94056.012
94552.19
95046.839
95536.456
96017.413
96486.041
96938.75
97372.153
97783.194
98169.259
98528.261
98858.701
99159.687
99430.918
99672.648
99885.617
100070.98
100230.2
100365.01
100477.27
100568.97
100642.08
100698.58
100740.39
100769.32
100787.08
100795.26
100795.32
100788.56
100776.2
100759.29
100738.79
100715.52
100690.22
100663.53
100635.99
100608.08
100580.19
100552.65
100525.75
100499.71
100474.71
100450.89
100428.36
100407.19
100387.43
100369.1
100352.2
100336.72
100322.61
100309.83
100298.3
100287.96
100278.71
100270.42
100263.01
100256.43
100250.6
100245.08
100239.32
100234.14
100231.59
100228.87
100215.49
100196
100214.64
100274.2
88744.292
89550.735
89536.015
90333.99
90486.862
91152.237
91525.938
92074.52
92577.312
93110.035
93649.096
94195.765
94745.622
95294.94
95839.419
96374.587
96895.849
97398.677
97878.783
98332.305
98755.965
99147.19
99504.185
99825.955
100112.28
100363.63
100581.1
100766.29
100921.15
101047.92
101149
101226.86
101283.96
101322.71
101345.41
101354.23
101351.17
101338.07
101316.62
101288.31
101254.5
101216.37
101174.96
101131.21
101085.9
101039.71
100993.24
100946.97
100901.34
100856.68
100813.28
100771.38
100731.14
100692.71
100656.19
100621.65
100589.12
100558.62
100530.16
100503.69
100479.18
100456.56
100435.77
100416.71
100399.31
100383.46
100369.04
100355.91
100343.98
100333.22
100323.46
100314.14
100304.93
100297.15
100292.46
100286.17
100267.98
100248.9
100273.95
100329.57
89217.378
90163.552
90167.954
91081.314
91302.473
92045.892
92516.876
93136.659
93725.981
94335.79
94949.293
95564.315
96175.07
96776.045
97361.357
97925.187
98462.01
98966.873
99435.618
99865.055
100253.05
100598.53
100901.45
101162.67
101383.78
101567.02
101715.01
101830.7
101917.15
101977.48
102014.74
102031.86
102031.6
102016.54
101989.01
101951.16
101904.87
101851.86
101793.62
101731.46
101666.53
101599.81
101532.16
101464.3
101396.84
101330.3
101265.11
101201.61
101140.09
101080.77
101023.83
100969.39
100917.54
100868.35
100821.82
100777.98
100736.78
100698.21
100662.19
100628.67
100597.56
100568.77
100542.18
100517.71
100495.23
100474.62
100455.74
100438.45
100422.68
100408.38
100395.25
100382.7
100370.74
100361.05
100354.55
100344.94
100323.04
100305.5
100336.72
100388.28
89823.931
90947.526
90981.287
92028.671
92337.015
93166.528
93753.69
94458.325
95143.775
95839.189
96530.691
97212.563
97876.82
98515.893
99122.51
99690.215
100213.67
100688.9
101113.39
101486.07
101807.23
102078.31
102301.71
102480.53
102618.36
102719.05
102786.56
102824.82
102837.61
102828.49
102800.77
102757.49
102701.35
102634.8
102559.98
102478.8
102392.9
102303.7
102212.44
102120.16
102027.75
101935.95
101845.41
101756.63
101670.03
101585.97
101504.7
101426.45
101351.36
101279.54
101211.07
101145.97
101084.26
101025.93
100970.91
100919.17
100870.63
100825.2
100782.79
100743.29
100706.59
100672.57
100641.09
100612.04
100585.28
100560.67
100538.07
100517.33
100498.42
100481.2
100465.3
100450.19
100436.25
100425.29
100417.21
100404.67
100380.64
100365.91
100402.47
100449.65
90592.94
91930.256
92008.119
93209.463
93638.829
94566.45
95291.438
96097.58
96886.622
97669.817
98432.732
99166.069
99859.895
100505.68
101096.48
101627.3
102095.22
102499.32
102840.5
103121.13
103344.79
103515.83
103639.15
103719.84
103763.03
103773.65
103756.39
103715.58
103655.15
103578.64
103489.19
103389.55
103282.12
103168.98
103051.92
102932.46
102811.89
102691.3
102571.59
102453.53
102337.73
102224.7
102114.84
102008.47
101905.84
101807.12
101712.44
101621.89
101535.51
101453.3
101375.25
101301.3
101231.41
101165.48
101103.42
101045.13
100990.49
100939.38
100891.66
100847.21
100805.88
100767.53
100732.02
100699.21
100668.96
100641.1
100615.49
100592.02
100570.63
100551.14
100533.08
100516.12
100500.98
100489.33
100479.91
100465
100440.52
100429.9
100470.71
100512.72
91554.722
93159.105
93317.868
94690.348
95286.675
96328.46
97208.356
98126.452
99013.381
99867.173
100671.85
101416.35
102091.42
102690.78
103211.11
103651.89
104015.05
104304.46
104525.41
104684.11
104787.23
104841.55
104853.67
104829.85
104775.84
104696.89
104597.63
104482.17
104354.08
104216.44
104071.89
103922.67
103770.68
103617.51
103464.49
103312.71
103163.08
103016.33
102873.05
102733.71
102598.69
102468.25
102342.61
102221.89
102106.19
101995.56
101889.98
101789.45
101693.9
101603.25
101517.42
101436.29
101359.75
101287.65
101219.87
101156.26
101096.66
101040.93
100988.91
100940.45
100895.37
100853.54
100814.8
100778.99
100745.96
100715.56
100687.64
100662.11
100638.9
100617.73
100598.17
100580.07
100564.48
100552.63
100542.16
100525.62
100502.22
100496.96
100540.76
100576.67
92792.936
94734.754
95019.446
96583.711
97394.635
98559.264
99589.09
100603.74
101551.5
102423.66
103206.41
103891.99
104476.71
104960.94
105348.35
105645.13
105859.19
105999.36
106074.82
106094.6
106067.23
106000.61
105901.8
105777.07
105631.88
105470.93
105298.22
105117.13
104930.52
104740.75
104549.79
104359.25
104170.45
103984.48
103802.18
103624.24
103451.2
103283.46
103121.34
102965.04
102814.72
102670.45
102532.28
102400.19
102274.14
102154.06
102039.85
101931.4
101828.57
101731.23
101639.22
101552.38
101470.54
101393.54
101321.19
101253.34
101189.79
101130.39
101074.95
101023.3
100975.27
100930.71
100889.44
100851.32
100816.19
100783.88
100754.28
100727.32
100702.87
100680.61
100660.15
100641.65
100626.23
100614.57
100603.41
100586.18
100565.24
100565.81
100610.86
100639.65
94439.936
96798.608
97264.445
99018.723
100079.48
101352.19
102479.37
103523.86
104447.8
105244.89
105910.86
106447.83
106862.39
107164.41
107365.74
107479.07
107517.08
107491.85
107414.45
107294.78
107141.48
106962
106762.65
106548.75
106324.69
106094.14
105860.07
105624.92
105390.66
105158.88
104930.84
104707.52
104489.72
104278.02
104072.86
103874.57
103683.36
103499.38
103322.68
103153.28
102991.15
102836.22
102688.37
102547.5
102413.44
102286.05
102165.14
102050.54
101942.06
101839.5
101742.67
101651.36
101565.38
101484.54
101408.62
101337.44
101270.8
101208.53
101150.42
101096.3
101046
100999.34
100956.17
100916.33
100879.66
100846.02
100815.31
100787.44
100762.26
100739.42
100718.66
100700.37
100685.6
100674.36
100662.92
100646.07
100628.75
100634.52
100678.39
100700.5
96686.93
99512.445
100221.95
102117.05
103389.82
104709.96
105817.51
106763.87
107535.94
108139.44
108585.42
108889.67
109070.15
109145.33
109132.91
109049.13
108908.36
108722.98
108503.5
108258.65
107995.62
107720.28
107437.37
107150.7
106863.31
106577.6
106295.46
106018.36
105747.43
105483.52
105227.28
104979.16
104739.48
104508.43
104286.12
104072.58
103867.77
103671.62
103484.01
103304.79
103133.8
102970.85
102815.72
102668.22
102528.11
102395.17
102269.18
102149.89
102037.08
101930.52
101829.98
101735.23
101646.06
101562.24
101483.56
101409.8
101340.78
101276.28
101216.13
101160.13
101108.1
101059.89
101015.33
100974.26
100936.54
100902.03
100870.66
100842.33
100816.83
100793.86
100773.31
100755.68
100741.83
100731.13
100719.78
100704.21
100691.17
100701.47
100742.78
100758.03
99787.965
102991.34
104008.8
105970.73
107284.88
108457.65
109378.73
110072.85
110557.75
110860.15
111008.06
111029.05
110948.3
110787.84
110566.35
110299.28
109999.21
109676.22
109338.31
108991.77
108641.52
108291.37
107944.23
107602.36
107267.43
106940.69
106623.05
106315.16
106017.44
105730.16
105453.47
105187.39
104931.89
104686.86
104452.15
104227.58
104012.92
103807.95
103612.41
103426.03
103248.56
103079.72
102919.23
102766.82
102622.21
102485.14
102355.32
102232.5
102116.42
102006.82
101903.45
101806.06
101714.43
101628.32
101547.51
101471.77
101400.9
101334.7
101272.98
101215.55
101162.24
101112.88
101067.32
101025.4
100987
100951.99
100920.3
100891.81
100866.32
100843.57
100823.59
100806.91
100794.06
100783.97
100773.23
100759.82
100751.25
100764.78
100802.18
100811.37
104000.82
107419.08
108640.27
110338.56
111469.6
112304.5
112842.2
113137.52
113235.2
113178.45
113003.83
112741.68
112416.31
112046.83
111648.02
111231.19
110804.93
110375.68
109948.24
109526.15
109112.03
108707.72
108314.55
107933.4
107564.85
107209.23
106866.7
106537.25
106220.82
105917.22
105626.23
105347.58
105080.99
104826.13
104582.67
104350.28
104128.6
103917.31
103716.05
103524.49
103342.28
103169.11
103004.64
102848.56
102700.57
102560.34
102427.6
102302.06
102183.43
102071.45
101965.85
101866.38
101772.79
101684.85
101602.32
101524.98
101452.63
101385.06
101322.09
101263.52
101209.2
101158.95
101112.64
101070.11
101031.25
100995.95
100964.14
100935.68
100910.38
100888.08
100868.87
100853.2
100841.26
100831.86
100822.35
100812.01
100807.57
100821.56
100852.78
100860.43
109254.95
112635.96
113760.64
114893.46
115509.11
115796.09
115819.09
115651.7
115348.17
114951.01
114491.85
113993.98
113474.31
112945.01
112414.72
111889.58
111373.83
110870.39
110381.22
109907.54
109450.1
109009.26
108585.13
108177.62
107786.51
107411.49
107052.19
106708.18
106379.03
106064.27
105763.44
105476.08
105201.72
104939.9
104690.18
104452.13
104225.32
104009.33
103803.77
103608.24
103422.37
103245.8
103078.17
102919.13
102768.37
102625.54
102490.35
102362.5
102241.69
102127.65
102020.11
101918.8
101823.48
101733.9
101649.83
101571.06
101497.37
101428.57
101364.46
101304.87
101249.64
101198.6
101151.62
101108.57
101069.32
101033.8
101001.91
100973.52
100948.48
100926.7
100908.26
100893.47
100882.25
100873.56
100865.64
100858.59
100857.55
100870.45
100894.67
100901.24
115501.01
118023.31
118638.14
118922.25
118829.84
118502.2
118018.92
117440.74
116808.36
116149.38
115482.1
114818.58
114166.62
113531.18
112915.29
112320.7
111748.27
111198.29
110670.64
110164.97
109680.75
109217.36
108774.12
108350.32
107945.23
107558.13
107188.34
106835.15
106497.93
106176.01
105868.81
105575.73
105296.2
105029.7
104775.71
104533.74
104303.3
104083.96
103875.27
103676.82
103488.21
103309.06
103138.98
102977.64
102824.68
102679.77
102542.6
102412.85
102290.25
102174.49
102065.31
101962.44
101865.64
101774.67
101689.28
101609.27
101534.42
101464.54
101399.45
101338.97
101282.95
101231.22
101183.66
101140.14
101100.56
101064.83
101032.85
101004.53
100979.73
100958.41
100940.62
100926.46
100915.75
100907.75
100901.5
100897.37
100898.64
100909.54
100927.28
100933.68
122152.3
122596.23
122379.64
121831.27
121100.17
120276.46
119416.36
118551.72
117701.1
116874.76
116078.15
115313.81
114582.57
113884.24
113218.05
112582.89
111977.49
111400.5
110850.59
110326.43
109826.76
109350.36
108896.08
108462.86
108049.68
107655.59
107279.7
106921.17
106579.22
106253.11
105942.14
105645.66
105363.05
105093.73
104837.14
104592.76
104360.09
104138.66
103928
103727.69
103537.32
103356.48
103184.81
103021.93
102867.5
102721.18
102582.64
102451.59
102327.72
102210.75
102100.4
101996.42
101898.54
101806.53
101720.15
101639.2
101563.46
101492.75
101426.88
101365.67
101308.98
101256.66
101208.57
101164.61
101124.66
101088.65
101056.48
101028.06
101003.32
100982.21
100964.73
100950.85
100940.38
100932.88
100927.95
100925.95
100928.46
100937.16
100949.93
100957.02
126037.5
125411.89
124496.08
123443.28
122358.15
121284.81
120245.99
119250.99
118303.3
117403.17
116549.31
115739.7
114971.97
114243.69
113552.49
112896.09
112272.36
111679.32
111115.15
110578.15
110066.78
109579.62
109115.36
108672.78
108250.78
107848.32
107464.45
107098.28
106748.99
106415.81
106098.02
105794.93
105505.93
105230.41
104967.81
104717.59
104479.25
104252.31
104036.32
103830.82
103635.42
103449.71
103273.31
103105.86
102947
102796.4
102653.73
102518.69
102390.98
102270.3
102156.39
102048.99
101947.83
101852.68
101763.31
101679.49
101601.03
101527.74
101459.42
101395.92
101337.06
101282.72
101232.76
101187.07
101145.55
101108.12
101074.69
101045.2
101019.58
100997.78
100979.76
100965.43
100954.6
100947.06
100942.7
100941.7
100944.61
100951.79
100961.77
100969.57
103906.5
103879.47
103927.8
103976.25
104012.27
104022.27
104004.85
103975.2
103939.46
103894.45
103835.75
103763.84
103682.54
103596.71
103507.17
103414.02
103317.56
103218.27
103116.58
103012.87
102907.52
102800.87
102693.24
102584.93
102476.22
102367.35
102258.57
102150.09
102042.13
101934.87
101828.5
101723.19
101619.11
101516.42
101415.27
101315.81
101218.2
101122.57
101029.07
100937.84
100849.03
100762.77
100679.19
100598.45
100520.67
100445.99
100374.55
100306.46
100241.84
100180.82
100123.5
100069.98
100020.33
99974.628
99932.927
99895.26
99861.638
99832.052
99806.469
99784.83
99767.048
99753.008
99742.568
99735.556
99731.782
99731.004
99733.036
99737.425
99744.38
99752.355
99763.996
99772.338
99791.4
99793.507
99828.977
99806.599
99878.29
99810.954
99932.714
99814.366
103257.18
103251.05
103265.34
103281.99
103280.92
103273.69
103262.89
103245.34
103216.11
103181.1
103139.11
103091.95
103038.88
102981.02
102918.41
102851.74
102781.23
102707.23
102630.07
102550.05
102467.47
102382.63
102295.82
102207.32
102117.4
102026.32
101934.35
101841.73
101748.72
101655.54
101562.42
101469.6
101377.28
101285.68
101195
101105.45
101017.21
100930.49
100845.46
100762.32
100681.23
100602.38
100525.94
100452.07
100380.95
100312.72
100247.54
100185.56
100126.91
100071.72
100020.11
99972.17
99928.001
99887.67
99851.228
99818.707
99790.113
99765.43
99744.615
99727.601
99714.288
99704.551
99698.237
99695.164
99695.132
99697.897
99703.26
99710.796
99720.64
99731.422
99745.423
99756.464
99777.074
99781.857
99817.703
99799.004
99869.898
99805.44
99929.286
99807.711
102836.98
102821.51
102793.06
102763.17
102733.96
102706.69
102674.72
102643.41
102608.42
102572.89
102533.35
102492.41
102447.87
102401.21
102351.45
102299.15
102244.11
102186.5
102126.37
102063.81
101998.97
101931.96
101862.94
101792.06
101719.5
101645.44
101570.06
101493.56
101416.14
101338.02
101259.39
101180.48
101101.51
101022.68
100944.22
100866.35
100789.27
100713.22
100638.4
100565.01
100493.28
100423.4
100355.58
100290
100226.86
100166.35
100108.63
100053.87
100002.23
99953.841
99908.841
99867.339
99829.431
99795.192
99764.676
99737.913
99714.907
99695.637
99680.054
99668.081
99659.612
99654.511
99652.617
99653.74
99657.674
99664.174
99673.032
99683.847
99696.705
99710.363
99726.847
99740.564
99762.903
99770.145
99806.757
99791.267
99861.88
99799.924
99925.797
99801.464
102242.76
102220.03
102191.13
102159.36
102127.85
102099.85
102067.43
102037.94
102004.29
101972.63
101937.44
101903.01
101865.8
101828.2
101788.47
101747.44
101704.6
101660.1
101613.82
101565.75
101515.89
101464.25
101410.87
101355.8
101299.1
101240.87
101181.21
101120.26
101058.15
100995.03
100931.08
100866.47
100801.38
100736.03
100670.61
100605.33
100540.41
100476.07
100412.53
100350.01
100288.73
100228.92
100170.8
100114.57
100060.45
100008.64
99959.338
99912.715
99868.946
99828.187
99790.579
99756.243
99725.281
99697.774
99673.776
99653.321
99636.408
99623.012
99613.079
99606.526
99603.239
99603.076
99605.867
99611.418
99619.519
99629.926
99642.426
99656.64
99672.616
99689.219
99708.274
99724.664
99748.846
99758.425
99796.087
99783.43
99854.206
99794.43
99922.268
99795.633
101514.03
101497.9
101482.05
101463.34
101442.71
101426.41
101404.17
101386.36
101363.11
101343.18
101318.76
101296.18
101270.39
101245.08
101217.66
101189.43
101159.59
101128.43
101095.75
101061.55
101025.8
100988.47
100949.56
100909.09
100867.09
100823.6
100778.68
100732.41
100684.89
100636.23
100586.55
100535.99
100484.71
100432.87
100380.66
100328.27
100275.89
100223.74
100172.03
100120.99
100070.84
100021.8
99974.1
99927.969
99883.621
99841.27
99801.12
99763.362
99728.179
99695.735
99666.18
99639.64
99616.224
99596.012
99579.063
99565.406
99555.041
99547.937
99544.035
99543.246
99545.45
99550.498
99558.216
99568.406
99580.855
99595.323
99611.594
99629.312
99648.494
99668.102
99689.797
99708.857
99734.961
99746.824
99785.673
99775.636
99846.816
99789.043
99918.749
99790.191
100794.03
100787.78
100783.31
100777.93
100768.48
100764.28
100752.71
100747.09
100734.56
100726.64
100713.03
100702.26
100687.56
100673.99
100658.12
100641.75
100623.78
100604.68
100584.23
100562.45
100539.32
100514.8
100488.89
100461.57
100432.87
100402.78
100371.35
100338.62
100304.64
100269.5
100233.28
100196.1
100158.06
100119.32
100080.02
100040.33
100000.43
99960.514
99920.778
99881.435
99842.702
99804.8
99767.952
99732.38
99698.303
99665.935
99635.483
99607.144
99581.102
99557.525
99536.564
99518.347
99502.983
99490.551
99481.108
99474.68
99471.263
99470.82
99473.285
99478.564
99486.532
99497.033
99509.89
99524.903
99541.858
99560.519
99580.67
99601.981
99624.44
99647.103
99671.483
99693.206
99721.309
99735.431
99775.491
99767.986
99839.676
99783.829
99915.265
99785.137
100141.72
100141.88
100142.8
100145.95
100143.76
100148.32
100144.08
100147.52
100142.61
100143.92
100138.8
100138
100132.48
100128.26
100121.47
100114.73
100106.58
100097.63
100087.6
100076.5
100064.28
100050.91
100036.36
100020.61
100003.65
99985.475
99966.097
99945.538
99923.833
99901.031
99877.196
99852.408
99826.762
99800.368
99773.355
99745.863
99718.049
99690.084
99662.147
99634.433
99607.14
99580.475
99554.649
99529.872
99506.356
99484.306
99463.923
99445.398
99428.911
99414.625
99402.685
99393.217
99386.321
99382.074
99380.524
99381.691
99385.564
99392.099
99401.222
99412.832
99426.799
99442.961
99461.138
99481.13
99502.722
99525.685
99549.806
99574.777
99600.566
99626.32
99653.41
99677.782
99707.934
99724.328
99765.572
99760.548
99832.781
99778.844
99911.865
99780.464
99555.99
99561.158
99565.17
99573.419
99574.865
99585.13
99585.054
99594.62
99594.52
99602.368
99602.515