/*--------------------------------*- C++ -*----------------------------------*\
  =========                 |
  \\      /  F ield         | OpenFOAM: The Open Source CFD Toolbox
   \\    /   O peration     | Website:  https://openfoam.org
    \\  /    A nd           | Version:  12
     \\/     M anipulation  |
\*---------------------------------------------------------------------------*/
FoamFile
{
    format      ascii;
    class       volScalarField;
    location    "0.021";
    object      k;
}
// * * * * * * * * * * * * * * * * * * * * * * * * * * * * * * * * * * * * * //

dimensions      [0 2 -2 0 0 0 0];

internalField   nonuniform List<scalar> 
16000
(
0.047488553
0.022511619
0.022801764
0.016411483
0.013950471
0.012632278
0.011850495
0.011379388
0.011059377
0.010842842
0.010683784
0.010564582
0.010471819
0.01039819
0.010338863
0.010290675
0.010251298
0.010218961
0.010192487
0.010170567
0.010152651
0.01013807
0.010126245
0.010116812
0.010109445
0.010103852
0.01009985
0.010097275
0.010095994
0.010095887
0.010096835
0.01009874
0.01010152
0.010105106
0.010109433
0.010114439
0.010120061
0.010126237
0.010132899
0.01013998
0.010147406
0.010155098
0.010162982
0.010170983
0.01017902
0.010187008
0.010194874
0.010202545
0.010209953
0.010217037
0.010223757
0.010230104
0.010236092
0.010241749
0.010247077
0.010252039
0.010256586
0.010260738
0.01026473
0.010269143
0.010274878
0.010282819
0.010293333
0.010305948
0.010319554
0.01033313
0.010346542
0.010360423
0.010375298
0.01039106
0.010407299
0.01042381
0.010440048
0.010452411
0.010449305
0.010402189
0.010347498
0.01023099
0.010040522
0.01005503
0.044488624
0.021040906
0.021291129
0.015842252
0.013578768
0.012406223
0.01166734
0.011242473
0.010940867
0.010742438
0.010594199
0.010484262
0.010398221
0.010330411
0.01027579
0.010231546
0.010195643
0.010166414
0.010142811
0.010123204
0.010107468
0.010094951
0.010084979
0.010077348
0.010071619
0.01006759
0.010065067
0.010063892
0.010063941
0.010065103
0.010067266
0.010070334
0.010074226
0.010078874
0.010084215
0.010090188
0.01009673
0.010103777
0.010111264
0.010119125
0.010127287
0.010135672
0.010144204
0.010152808
0.010161402
0.010169898
0.01017822
0.0101863
0.010194079
0.010201509
0.010208564
0.010215246
0.010221584
0.010227612
0.010233328
0.010238659
0.010243469
0.010247675
0.010251468
0.010255525
0.010261021
0.01026926
0.010280989
0.010295732
0.010311806
0.010327361
0.010341708
0.01035552
0.010369805
0.010384902
0.010400579
0.010416552
0.010431895
0.010442971
0.010436642
0.010391598
0.010339789
0.010218343
0.010045743
0.01004902
0.041553236
0.019992275
0.019908793
0.015259156
0.013205934
0.012161702
0.01148228
0.011100859
0.010823002
0.010643479
0.010506808
0.01040649
0.010327589
0.010265812
0.010216226
0.010176213
0.010144012
0.010118086
0.010097484
0.010080353
0.010066893
0.010056565
0.010048602
0.010042874
0.010038885
0.010036534
0.010035588
0.010035907
0.010037374
0.010039885
0.010043335
0.010047628
0.010052685
0.010058437
0.010064822
0.010071781
0.010079249
0.010087161
0.010095448
0.010104045
0.010112879
0.010121873
0.010130948
0.010140032
0.010149045
0.010157901
0.010166522
0.010174847
0.010182829
0.010190438
0.010197662
0.010204519
0.010211043
0.010217265
0.010223161
0.010228605
0.010233374
0.010237279
0.010240449
0.010243655
0.010248389
0.010256483
0.010269179
0.010286068
0.010304882
0.010322812
0.010338401
0.010352241
0.010365884
0.010380284
0.010395485
0.010411005
0.010425204
0.010433496
0.010421624
0.010384895
0.010331174
0.010211715
0.010051586
0.010040391
0.037737593
0.019267512
0.018713203
0.014741965
0.012871471
0.011942671
0.011314848
0.010972928
0.010716467
0.010553963
0.010428262
0.010336784
0.010264632
0.010208466
0.010163693
0.010127818
0.010099188
0.010076484
0.010058703
0.010044105
0.010032865
0.01002462
0.010018723
0.010014814
0.010012571
0.010011888
0.010012511
0.010014318
0.010017193
0.010021039
0.010025756
0.01003125
0.010037439
0.010044253
0.010051629
0.010059506
0.010067822
0.01007651
0.010085499
0.01009472
0.010104101
0.010113564
0.01012303
0.010132426
0.010141679
0.010150711
0.010159449
0.01016784
0.010175851
0.010183469
0.010190697
0.010197562
0.010204093
0.010210303
0.010216127
0.010221378
0.01022574
0.01022892
0.010230988
0.010232813
0.010236254
0.01024373
0.01025702
0.010275825
0.010297358
0.010317809
0.0103348
0.010348705
0.010361615
0.010375228
0.010389952
0.010405023
0.010417807
0.010422387
0.010404712
0.010377305
0.010321653
0.010212196
0.010066708
0.010029708
0.034457174
0.018807957
0.017663693
0.014266281
0.012563404
0.011738138
0.011159925
0.010854238
0.010618604
0.01047194
0.010356927
0.010273836
0.010208271
0.010157494
0.010117405
0.01008564
0.010060469
0.010040981
0.010025864
0.010013965
0.010005014
0.0099987628
0.0099950064
0.0099928841
0.0099924372
0.0099934147
0.0099956211
0.0099989256
0.010003214
0.010008393
0.010014366
0.010021038
0.010028327
0.010036158
0.010044468
0.010053192
0.010062267
0.010071626
0.010081199
0.010090913
0.010100697
0.010110474
0.010120164
0.010129695
0.010139001
0.010148015
0.010156677
0.010164948
0.010172811
0.010180266
0.010187328
0.010194022
0.01020036
0.010206321
0.010211791
0.010216512
0.010220086
0.010222136
0.010222716
0.010222827
0.010224699
0.0102313
0.010244902
0.010265371
0.010289511
0.010312571
0.010331191
0.010345379
0.01035767
0.010370549
0.010384843
0.010399421
0.010410417
0.010410389
0.0103863
0.010363768
0.010310472
0.010215811
0.010090739
0.010021453
0.03240638
0.018636917
0.016764586
0.013832982
0.012282406
0.011549937
0.011018442
0.010745717
0.010530051
0.010397909
0.010293213
0.010218008
0.010158835
0.010113264
0.010077689
0.010049931
0.010028042
0.010011718
0.0099990719
0.009989966
0.0099834259
0.0099791563
0.0099774873
0.0099772101
0.0099785876
0.0099812177
0.0099850134
0.0099898144
0.0099955074
0.010001999
0.010009195
0.010016999
0.010025328
0.010034103
0.010043256
0.010052722
0.010062435
0.010072328
0.010082332
0.010092375
0.010102386
0.01011229
0.010122013
0.010131485
0.010140647
0.010149446
0.01015784
0.010165808
0.010173349
0.010180475
0.0101872
0.01019353
0.01019945
0.010204894
0.010209691
0.010213515
0.010215917
0.010216479
0.010215298
0.010213543
0.010213768
0.010219372
0.010233037
0.01025481
0.010281229
0.010306771
0.010327145
0.010341867
0.01035375
0.010366008
0.010379886
0.010393812
0.010402584
0.010397454
0.010368307
0.010344412
0.010297238
0.0102151
0.010109657
0.01001846
0.030227374
0.018680596
0.016086873
0.013437347
0.012026024
0.011376881
0.010889742
0.01064696
0.010450473
0.010331605
0.010236829
0.010169057
0.010116092
0.010075619
0.010044427
0.010020588
0.010001909
0.0099886705
0.0099784323
0.0099720833
0.0099680683
0.0099659896
0.0099661956
0.0099679244
0.0099710593
0.0099753843
0.0099807686
0.0099870559
0.0099941304
0.010001897
0.01001026
0.010019126
0.010028404
0.010038015
0.010047887
0.010057954
0.010068148
0.010078404
0.010088654
0.010098829
0.01010886
0.01011868
0.01012822
0.010137418
0.010146228
0.010154612
0.010162549
0.010170036
0.010177088
0.010183719
0.010189928
0.010195687
0.010200935
0.010205554
0.01020933
0.010211896
0.010212772
0.010211576
0.010208502
0.010204903
0.010203577
0.010208208
0.010221752
0.010244414
0.010272619
0.010300329
0.010322477
0.010338003
0.010349794
0.010361635
0.01037511
0.010388138
0.01039423
0.010383779
0.010349776
0.010323868
0.01028327
0.010205776
0.010111624
0.010024085
0.027870682
0.018836307
0.015592944
0.013076817
0.011791775
0.011218448
0.01077328
0.010557543
0.010379324
0.010272634
0.010187426
0.010126747
0.010079832
0.01004439
0.010017484
0.0099975012
0.0099821406
0.0099718736
0.0099643504
0.0099606607
0.0099590964
0.0099598723
0.0099614044
0.0099651054
0.0099700442
0.0099760827
0.0099830382
0.0099907794
0.0099991847
0.010008155
0.010017596
0.010027409
0.010037505
0.0100478
0.010058221
0.010068701
0.010079175
0.01008958
0.010099851
0.010109926
0.010119743
0.010129241
0.010138364
0.010147062
0.010155304
0.010163073
0.010170369
0.010177208
0.010183612
0.010189584
0.010195088
0.010200046
0.01020434
0.010207803
0.010210188
0.010211165
0.010210221
0.010207097
0.010202125
0.010196834
0.010194187
0.010197981
0.010211272
0.010234371
0.010263744
0.010293138
0.010316931
0.010333478
0.010345535
0.010357234
0.010370328
0.010382141
0.010385111
0.010369352
0.010331246
0.010305426
0.010271178
0.010191305
0.010103298
0.010030523
0.026004556
0.019004361
0.015134701
0.012748258
0.01157748
0.011073738
0.010667496
0.010476505
0.010316171
0.010220885
0.010144945
0.010091124
0.010050126
0.010019649
0.0099969496
0.0099807131
0.0099689072
0.0099614196
0.0099572338
0.0099563409
0.009956258
0.0099590943
0.0099634662
0.0099690875
0.0099758366
0.0099835308
0.0099920118
0.010001137
0.010010779
0.010020836
0.010031211
0.010041807
0.010052532
0.010063303
0.010074048
0.010084701
0.010095203
0.010105495
0.010115524
0.010125233
0.010134572
0.010143494
0.010151954
0.010159921
0.010167381
0.010174343
0.010180828
0.010186862
0.010192463
0.010197606
0.010202202
0.010206106
0.010209141
0.010211105
0.010211742
0.010210846
0.010207853
0.010202737
0.010195973
0.010189252
0.0101856
0.01018876
0.010201706
0.010224791
0.010254659
0.010285129
0.010310289
0.010327974
0.010340649
0.01035253
0.010365279
0.01037551
0.010374944
0.010354262
0.010313038
0.010290132
0.010262772
0.010177855
0.010095329
0.010032327
0.024431008
0.019166031
0.014470951
0.012448408
0.011382467
0.010942169
0.010573119
0.010404825
0.010261425
0.010176678
0.010109681
0.010062529
0.010027322
0.010001757
0.0099832607
0.0099705958
0.0099625967
0.0099576343
0.0099554345
0.0099561858
0.0099613804
0.0099662775
0.0099726323
0.00998017
0.0099886816
0.0099979715
0.01000788
0.010018261
0.010028986
0.010039947
0.010051045
0.010062187
0.010073285
0.010084257
0.010095036
0.010105564
0.010115789
0.010125665
0.010135148
0.010144198
0.010152778
0.010160856
0.010168407
0.010175418
0.010181899
0.010187879
0.010193398
0.010198485
0.010203134
0.010207273
0.010210741
0.01021332
0.010214782
0.010214922
0.010213547
0.010210419
0.010205319
0.010198247
0.010189898
0.01018208
0.010177776
0.010180514
0.010193038
0.010215689
0.010245388
0.010276259
0.010302371
0.010321174
0.010334757
0.010347144
0.010359583
0.010367817
0.010363323
0.010338784
0.010297722
0.010278033
0.010256929
0.010167192
0.010090025
0.010032896
0.022952194
0.019294382
0.013948029
0.012175489
0.011207576
0.010824262
0.010490835
0.010342699
0.010215243
0.010140308
0.010081953
0.010041346
0.010011846
0.0099911869
0.0099770247
0.0099678801
0.0099637752
0.0099610303
0.0099646708
0.0099684225
0.0099736829
0.0099808684
0.009989292
0.0099986972
0.010008868
0.010019617
0.010030781
0.010042214
0.010053784
0.010065379
0.010076905
0.010088274
0.010099407
0.01011023
0.010120688
0.010130733
0.010140329
0.010149445
0.010158055
0.010166137
0.010173671
0.010180645
0.010187054
0.010192907
0.010198236
0.010203086
0.010207509
0.01021152
0.010215074
0.010218027
0.010220138
0.010221116
0.0102207
0.010218714
0.010215051
0.010209619
0.01020236
0.010193475
0.010183823
0.010175267
0.010170642
0.01017314
0.010185175
0.010207033
0.010235958
0.01026655
0.010293094
0.010312847
0.010327508
0.010340666
0.0103528
0.010358595
0.010349793
0.010322744
0.010286185
0.01026921
0.010249241
0.010158248
0.010085328
0.010033297
0.02164026
0.019408164
0.013491784
0.011928866
0.011052274
0.010719088
0.010419715
0.010289653
0.010177781
0.010112134
0.010062161
0.010028039
0.010004209
0.0099884719
0.0099788214
0.0099736403
0.0099730886
0.0099754636
0.0099794693
0.0099859169
0.0099940957
0.010003469
0.010013843
0.010024961
0.010036606
0.010048584
0.010060733
0.010072907
0.010084975
0.010096832
0.010108388
0.010119571
0.010130316
0.010140567
0.010150285
0.010159444
0.010168027
0.010176023
0.010183428
0.010190238
0.010196457
0.010202091
0.010207157
0.010211685
0.010215724
0.010219333
0.010222556
0.010225381
0.010227701
0.010229287
0.010229812
0.010228927
0.010226365
0.010222019
0.010215913
0.010208132
0.010198814
0.010188348
0.010177721
0.010168775
0.010164108
0.010166503
0.010177991
0.010198774
0.010226426
0.010256109
0.010282518
0.010302916
0.010318664
0.010332738
0.010344534
0.010347495
0.010334065
0.01030525
0.010274362
0.010262209
0.010239914
0.010150234
0.010080762
0.010033155
0.020457184
0.019484586
0.013071703
0.011706773
0.010915728
0.010626816
0.010360055
0.010246421
0.010149347
0.01009263
0.010050833
0.010023196
0.010005047
0.0099942583
0.0099891369
0.0099884556
0.0099907428
0.0099959579
0.010003454
0.010012619
0.010023028
0.010034445
0.010046569
0.010059145
0.010071954
0.010084802
0.01009753
0.010110001
0.010122095
0.010133719
0.010144802
0.010155293
0.010165152
0.010174351
0.010182875
0.010190725
0.010197906
0.010204433
0.010210322
0.010215593
0.010220267
0.010224372
0.010227943
0.010231028
0.010233687
0.010235978
0.010237926
0.010239471
0.010240428
0.010240474
0.010239202
0.010236225
0.010231311
0.010224457
0.010215853
0.010205786
0.0101946
0.01018285
0.010171591
0.010162569
0.010158076
0.010160456
0.010171353
0.010190872
0.01021689
0.010245147
0.010270866
0.0102915
0.010308166
0.010323151
0.010334573
0.010334516
0.010316299
0.010285933
0.010261311
0.010256388
0.010229615
0.010142858
0.010076081
0.010031527
0.019395142
0.019485463
0.012692492
0.011508687
0.010797237
0.010548011
0.010312054
0.010213208
0.010130345
0.010082396
0.010048655
0.010027555
0.010015145
0.010009392
0.010008672
0.010011794
0.010018021
0.010026513
0.010036769
0.010048342
0.010060893
0.010074063
0.01008758
0.010101193
0.010114687
0.010127878
0.010140618
0.010152791
0.010164301
0.010175084
0.010185097
0.010194323
0.010202757
0.010210404
0.010217283
0.010223419
0.010228847
0.010233602
0.010237723
0.010241247
0.010244213
0.010246664
0.01024865
0.01025023
0.010251466
0.010252404
0.01025303
0.010253219
0.010252699
0.010251054
0.010247809
0.010242572
0.010235178
0.010225761
0.010214703
0.010202503
0.010189701
0.010176987
0.010165424
0.010156583
0.010152414
0.010154827
0.010165114
0.010183283
0.010207467
0.010233941
0.010258503
0.01027892
0.010296187
0.010311935
0.010323036
0.010320235
0.010297612
0.010265895
0.010247646
0.010251145
0.010218879
0.010136009
0.010070476
0.010027739
0.018439065
0.019207848
0.01235073
0.0113337
0.010696561
0.010482051
0.01027579
0.010190638
0.010121462
0.010082303
0.010056568
0.010042105
0.010035505
0.010034852
0.010038669
0.010045831
0.010055476
0.010067003
0.010079863
0.010093611
0.010107859
0.010122291
0.010136633
0.010150647
0.010164139
0.01017695
0.010188964
0.0102001
0.010210307
0.010219562
0.010227866
0.010235242
0.010241724
0.010247358
0.010252192
0.01025628
0.010259678
0.010262442
0.010264624
0.010266277
0.01026745
0.010268196
0.010268574
0.010268645
0.010268463
0.010268047
0.010267329
0.010266109
0.010264021
0.010260568
0.01025523
0.010247639
0.010237726
0.010225786
0.0102124
0.010198274
0.010184131
0.010170754
0.010159156
0.010150685
0.010146927
0.010149397
0.010159092
0.010175938
0.010198262
0.010222795
0.010245886
0.010265678
0.010283142
0.010299421
0.010310439
0.010305923
0.01028041
0.01024817
0.010235326
0.010246013
0.010210697
0.010129544
0.010062873
0.010021317
0.017574674
0.018248909
0.012044119
0.011180283
0.010614002
0.010429636
0.010251879
0.010179676
0.01012377
0.010093534
0.010075815
0.010068075
0.010067328
0.010071765
0.010080003
0.010090982
0.010103894
0.010118102
0.010133083
0.01014839
0.01016366
0.010178582
0.010192911
0.010206444
0.010219031
0.010230564
0.010240981
0.010250256
0.010258399
0.010265438
0.010271424
0.010276425
0.010280514
0.010283769
0.010286266
0.010288079
0.010289281
0.010289939
0.010290113
0.010289863
0.010289241
0.010288306
0.010287115
0.010285724
0.010284167
0.010282424
0.010280365
0.010277706
0.010273994
0.010268666
0.010261184
0.010251227
0.010238843
0.010224496
0.010208957
0.010193127
0.010177884
0.010164075
0.010152627
0.010144635
0.010141332
0.010143886
0.010153061
0.010168722
0.010189338
0.010211994
0.010233511
0.010252396
0.010269669
0.010286228
0.010297629
0.010293246
0.010267615
0.010236361
0.010227029
0.010242398
0.01020596
0.010124024
0.010053538
0.010012382
0.016795139
0.016912169
0.011775847
0.011048546
0.010548342
0.010391612
0.010241369
0.010181751
0.010138734
0.01011758
0.010107864
0.010106857
0.01011189
0.010121253
0.010133641
0.010148033
0.010163637
0.010179831
0.010196105
0.010212038
0.010227297
0.010241623
0.010254827
0.010266779
0.010277401
0.010286664
0.010294579
0.01030119
0.010306569
0.010310801
0.010313984
0.010316221
0.010317617
0.010318273
0.010318282
0.01031773
0.010316694
0.010315245
0.010313443
0.010311347
0.010309008
0.010306478
0.01030381
0.010301042
0.010298181
0.010295159
0.010291781
0.010287681
0.01028233
0.010275119
0.010265513
0.010253259
0.010238528
0.010221939
0.010204436
0.010187086
0.010170904
0.010156789
0.010145572
0.010138103
0.010135279
0.010137973
0.010146768
0.010161493
0.010180717
0.010201775
0.010221848
0.010239737
0.010256537
0.01027316
0.010285521
0.010283587
0.010261147
0.010231742
0.010223658
0.010241338
0.010204891
0.01012124
0.010048147
0.010005733
0.016096138
0.016097346
0.011550664
0.010938772
0.01050067
0.01036941
0.010245796
0.010198574
0.010168084
0.010156112
0.010154308
0.010159885
0.010170407
0.010184242
0.010200139
0.010217118
0.010234408
0.010251424
0.01026771
0.010282913
0.010296783
0.010309156
0.010319943
0.010329117
0.010336701
0.010342755
0.010347371
0.010350662
0.010352754
0.010353779
0.010353866
0.010353144
0.010351731
0.010349737
0.010347261
0.010344388
0.010341192
0.010337738
0.010334081
0.01033027
0.010326348
0.010322358
0.010318337
0.010314302
0.010310225
0.010305988
0.01030133
0.010295816
0.010288856
0.010279812
0.010268174
0.010253761
0.010236856
0.010218212
0.01019891
0.010180157
0.010163088
0.010148666
0.010137658
0.0101307
0.010128392
0.010131338
0.010139975
0.010154108
0.010172381
0.01019229
0.010211253
0.010228261
0.010244471
0.010260999
0.010274697
0.010277039
0.010260947
0.010232981
0.010223018
0.010242221
0.010205536
0.010123211
0.010052931
0.010005663
0.01546941
0.015128698
0.011359356
0.010851554
0.010471848
0.010364754
0.010266856
0.010232118
0.010213802
0.010210977
0.010216786
0.010228462
0.010243738
0.010261053
0.010279221
0.010297332
0.010314698
0.010330832
0.010345403
0.010358191
0.010369086
0.010378061
0.010385157
0.010390466
0.010394112
0.01039624
0.01039701
0.010396585
0.010395127
0.010392791
0.010389722
0.01038605
0.010381896
0.010377363
0.010372543
0.010367511
0.01036233
0.010357054
0.010351724
0.010346378
0.010341047
0.010335756
0.010330523
0.01032534
0.010320141
0.01031476
0.010308877
0.010302002
0.010293505
0.010282736
0.010269215
0.010252829
0.010233952
0.010213434
0.010192457
0.010172337
0.010154325
0.010139474
0.010128549
0.010122044
0.010120309
0.010123688
0.010132464
0.010146413
0.010164237
0.010183532
0.010201841
0.010218246
0.010233925
0.010250272
0.010265225
0.010271914
0.010263699
0.010238183
0.010225665
0.010244126
0.010207604
0.010129097
0.010065685
0.010015333
0.014909732
0.01449132
0.011204722
0.010787759
0.010462929
0.01037995
0.010306852
0.010284847
0.010278205
0.010284074
0.010296637
0.010313207
0.010331692
0.010350649
0.010369035
0.010386109
0.010401366
0.010414511
0.010425408
0.010434031
0.01044044
0.010444761
0.010447163
0.01044784
0.010446995
0.010444832
0.010441547
0.010437326
0.010432339
0.010426742
0.010420671
0.010414246
0.010407572
0.010400737
0.010393815
0.010386868
0.010379941
0.010373073
0.01036629
0.010359613
0.010353057
0.010346631
0.010340328
0.010334112
0.010327883
0.010321429
0.010314389
0.010306231
0.010296303
0.010283957
0.010268743
0.0102506
0.010229961
0.010207739
0.010185178
0.010163669
0.010144574
0.010129067
0.010117995
0.010111818
0.010110707
0.010114748
0.010124004
0.01013818
0.010156028
0.01017523
0.010193375
0.010209538
0.010224859
0.010240959
0.01025681
0.010266526
0.010263814
0.010242671
0.010231772
0.010246178
0.010209246
0.010137539
0.010076206
0.010025625
0.014411698
0.013765858
0.011083396
0.01075009
0.010476025
0.010418479
0.010368951
0.010359558
0.010363413
0.010376511
0.01039385
0.010412947
0.010431989
0.010449792
0.010465603
0.010478975
0.010489692
0.010497717
0.010503151
0.010506166
0.010506983
0.010505854
0.010503034
0.010498779
0.010493328
0.010486902
0.0104797
0.010471899
0.010463652
0.010455096
0.010446344
0.010437492
0.010428623
0.010419801
0.010411081
0.010402503
0.010394097
0.010385884
0.010377874
0.010370071
0.010362472
0.010355066
0.010347823
0.010340678
0.0103335
0.010326045
0.01031792
0.010308574
0.010297347
0.010283603
0.010266913
0.010247244
0.010225062
0.010201304
0.010177241
0.010154306
0.01013395
0.010117489
0.010105937
0.01009985
0.010099328
0.010104207
0.010114248
0.010128989
0.010147232
0.010166776
0.010185207
0.010201487
0.010216637
0.010232265
0.010247863
0.010258966
0.010257731
0.010242132
0.010238792
0.010247735
0.010207062
0.010148453
0.010086893
0.010028516
0.013975607
0.013217449
0.011000275
0.010743329
0.010518487
0.010484537
0.010456295
0.010458039
0.010469728
0.010486957
0.010505582
0.010523551
0.01053953
0.010552782
0.010562976
0.010570043
0.010574097
0.010575362
0.010574139
0.010570747
0.010565512
0.010558743
0.010550727
0.010541724
0.010531963
0.010521645
0.010510941
0.010499995
0.01048893
0.010477848
0.010466832
0.01045595
0.010445256
0.010434793
0.010424591
0.010414674
0.010405054
0.010395734
0.01038671
0.010377968
0.010369488
0.010361238
0.010353165
0.01034518
0.010337126
0.010328736
0.010319604
0.010309176
0.010296802
0.010281857
0.010263926
0.010242983
0.010219492
0.010194385
0.010168928
0.010144564
0.010122797
0.010105076
0.010092623
0.010086203
0.010085986
0.010091644
0.0101026
0.010118116
0.010136998
0.010157204
0.010176302
0.010192977
0.010207978
0.010222809
0.010237154
0.0102478
0.010249992
0.010241717
0.01024115
0.010244065
0.010202428
0.01015616
0.010095629
0.01003155
0.013607394
0.012780996
0.010957781
0.010771794
0.01060935
0.010581166
0.010569765
0.010578792
0.010593594
0.010610099
0.010625258
0.010637705
0.010646771
0.010652275
0.010654338
0.010653247
0.010649378
0.010643133
0.010634918
0.01062511
0.01061405
0.010602037
0.010589329
0.010576146
0.010562672
0.010549059
0.010535435
0.010521901
0.010508539
0.010495415
0.01048258
0.010470074
0.010457925
0.010446155
0.010434775
0.010423789
0.010413194
0.01040298
0.010393126
0.010383605
0.010374379
0.010365396
0.010356585
0.010347834
0.010338966
0.010329707
0.01031965
0.010308256
0.010294898
0.010278969
0.010260059
0.010238121
0.010213587
0.010187354
0.010160662
0.010134942
0.010111709
0.010092484
0.010078658
0.010071244
0.010070639
0.010076562
0.01008822
0.010104543
0.010124184
0.010145238
0.010165303
0.010182622
0.010197379
0.010210951
0.010223362
0.010232529
0.010236722
0.010236185
0.010229901
0.010217535
0.010195267
0.010155323
0.010099044
0.010033005
0.013316799
0.012434747
0.010959886
0.010837077
0.010721441
0.010707189
0.010705196
0.010715073
0.01072656
0.010736566
0.010743304
0.010746239
0.010745383
0.010741049
0.010733691
0.010723811
0.010711897
0.010698397
0.010683705
0.010668162
0.01065205
0.010635604
0.010619016
0.010602437
0.010585992
0.010569776
0.010553867
0.010538323
0.010523187
0.010508491
0.010494258
0.010480504
0.010467235
0.010454454
0.010442157
0.010430335
0.01041897
0.010408038
0.010397507
0.010387335
0.010377471
0.010367845
0.010358369
0.010348914
0.010339294
0.010329233
0.010318343
0.010306114
0.010291954
0.010275285
0.010255689
0.01023308
0.010207821
0.010180744
0.010153044
0.010126125
0.010101475
0.010080599
0.010064949
0.010055739
0.010053684
0.0100588
0.010070395
0.010087182
0.010107457
0.01012934
0.010150584
0.010168904
0.010183496
0.010195455
0.010205385
0.010211491
0.010211706
0.010206908
0.010199939
0.010191261
0.010175775
0.010145017
0.010094975
0.010031721
0.013121523
0.012189071
0.01100884
0.010944327
0.010863881
0.01085346
0.010851779
0.010854916
0.010856532
0.010854944
0.010849573
0.01084061
0.010828538
0.010813931
0.010797353
0.010779317
0.010760264
0.010740561
0.010720504
0.010700332
0.010680231
0.010660349
0.010640795
0.010621653
0.010602986
0.010584839
0.010567242
0.010550216
0.010533773
0.010517919
0.010502653
0.01048797
0.010473862
0.010460318
0.010447321
0.010434849
0.010422875
0.010411366
0.010400277
0.010389556
0.010379138
0.010368941
0.010358863
0.010348765
0.010338458
0.010327678
0.010316064
0.010303153
0.010288402
0.010271266
0.010251324
0.01022843
0.010202848
0.010175297
0.010146889
0.010118975
0.010092997
0.010070405
0.010052632
0.010040971
0.010036347
0.010039131
0.010049063
0.010065091
0.010085424
0.010107957
0.010130425
0.010150213
0.010165232
0.010175611
0.010182657
0.010185804
0.010183071
0.010174944
0.010165084
0.010156446
0.010146074
0.010124546
0.010083987
0.010028257
0.013011593
0.012042781
0.011122931
0.011082106
0.01102095
0.011005892
0.010994535
0.010984081
0.010971052
0.010955058
0.01093631
0.01091534
0.010892731
0.010869016
0.010844647
0.010819988
0.010795324
0.010770874
0.010746802
0.010723228
0.010700239
0.010677895
0.010656235
0.010635285
0.010615057
0.010595553
0.010576771
0.010558703
0.010541337
0.010524657
0.010508648
0.010493291
0.010478565
0.010464449
0.010450916
0.010437938
0.010425479
0.010413497
0.01040194
0.010390747
0.010379842
0.010369137
0.010358519
0.010347846
0.010336934
0.010325538
0.010313337
0.010299923
0.010284817
0.010267521
0.010247615
0.010224892
0.010199484
0.01017194
0.01014321
0.010114538
0.010087324
0.010063004
0.010042971
0.010028448
0.010020372
0.010019358
0.010025626
0.010038813
0.01005803
0.010080602
0.010103578
0.010124852
0.010141439
0.010151497
0.010156129
0.010156715
0.010152241
0.010142194
0.010129338
0.010118025
0.010108886
0.010095294
0.010067539
0.010023959
0.012966869
0.011984351
0.011297781
0.011233659
0.011175362
0.011145086
0.011117062
0.011089448
0.011060634
0.011030733
0.011000079
0.010969088
0.010938127
0.010907487
0.010877388
0.010847988
0.010819396
0.01079168
0.010764882
0.010739024
0.010714111
0.010690136
0.010667085
0.01064494
0.010623677
0.010603272
0.010583696
0.010564923
0.010546924
0.010529672
0.010513138
0.010497294
0.010482114
0.010467567
0.010453621
0.010440242
0.010427389
0.010415013
0.010403057
0.010391456
0.010380127
0.010368977
0.01035789
0.010346726
0.010335314
0.010323433
0.010310806
0.010297089
0.010281872
0.010264715
0.010245217
0.010223118
0.010198414
0.010171446
0.010142926
0.010113903
0.010085662
0.010059594
0.01003704
0.010019195
0.010007148
0.010001881
0.010003983
0.010013732
0.010029361
0.01004879
0.010070242
0.010091774
0.010110398
0.010122452
0.010127013
0.010126419
0.010121573
0.010111887
0.010097761
0.010082454
0.010069849
0.01005969
0.010045392
0.010018758
0.012999878
0.011955142
0.01145696
0.011374202
0.011302618
0.011252933
0.011206967
0.011163657
0.011121753
0.011081152
0.011041841
0.011003876
0.010967299
0.010932128
0.01089836
0.010865974
0.010834939
0.010805214
0.010776752
0.010749506
0.010723426
0.010698463
0.010674569
0.010651696
0.010629799
0.010608834
0.01058876
0.010569537
0.010551127
0.010533494
0.010516603
0.010500421
0.010484915
0.010470051
0.010455793
0.010442102
0.010428935
0.01041624
0.010403958
0.010392019
0.010380342
0.010368831
0.010357374
0.010345839
0.010334066
0.010321863
0.010308994
0.01029517
0.010280047
0.010263241
0.010244378
0.01022317
0.010199523
0.010173618
0.010145949
0.010117277
0.010088573
0.010060965
0.010035739
0.010014323
0.0099982527
0.0099896168
0.0099887871
0.0099944327
0.010005866
0.010020991
0.010037646
0.010054946
0.010071713
0.010085978
0.010094851
0.010096548
0.010092934
0.010085482
0.010073098
0.010056174
0.01003815
0.01002319
0.010012853
0.010006333
0.013109148
0.011992381
0.011579981
0.01147549
0.011387699
0.011321271
0.011261836
0.011207772
0.011157467
0.011110313
0.011065889
0.011023915
0.010984176
0.010946493
0.010910715
0.010876709
0.010844357
0.010813551
0.010784197
0.010756206
0.010729499
0.010704002
0.010679649
0.010656376
0.010634127
0.010612847
0.010592486
0.010572999
0.010554342
0.010536474
0.010519357
0.010502954
0.010487229
0.010472147
0.01045767
0.010443757
0.010430362
0.010417434
0.010404912
0.010392728
0.010380802
0.010369043
0.010357344
0.010345583
0.010333615
0.010321269
0.010308335
0.010294555
0.01027962
0.010263174
0.010244854
0.01022437
0.010201606
0.01017671
0.010150105
0.01012244
0.010094414
0.010066683
0.010039986
0.010015518
0.0099954641
0.0099843905
0.0099812788
0.0099810005
0.0099863304
0.0099980735
0.010010718
0.010023946
0.010036517
0.010047338
0.010056227
0.01006313
0.010066573
0.010063785
0.010054311
0.010039022
0.010019215
0.010002142
0.0099956462
0.0099984413
0.013239125
0.012050603
0.011647422
0.011526099
0.011428154
0.011352905
0.011287122
0.011228356
0.011174577
0.011124822
0.011078428
0.011034945
0.010994035
0.010955431
0.01091892
0.010884321
0.010851482
0.01082027
0.01079057
0.010762281
0.01073531
0.010709577
0.010685008
0.010661534
0.010639095
0.010617633
0.010597096
0.010577436
0.010558608
0.01054057
0.010523282
0.010506707
0.010490808
0.01047555
0.010460893
0.010446798
0.010433218
0.010420104
0.010407396
0.010395028
0.010382923
0.010370994
0.010359142
0.010347254
0.010335196
0.010322807
0.010309886
0.010296173
0.010281341
0.010265004
0.010246769
0.010226328
0.010203599
0.010178832
0.010152618
0.010125716
0.010098749
0.01007198
0.01004547
0.01001985
0.0099986258
0.0099866862
0.0099820884
0.0099810878
0.0099825323
0.0099898342
0.0099989456
0.010008921
0.010017794
0.010024597
0.010030772
0.010037303
0.010041336
0.010044248
0.010040108
0.010028847
0.010011829
0.009995828
0.0099897805
0.0099919491
71.163494
380.21483
123.39442
13.569838
0.36167057
0.021909682
0.020675814
0.020327376
0.020047716
0.019000659
0.017664069
0.016491979
0.015585599
0.014988183
0.01455493
0.014137014
0.013726887
0.013368582
0.013074316
0.012830757
0.012623754
0.012445062
0.012289738
0.012153962
0.012034495
0.011928665
0.01183436
0.011749906
0.011673975
0.011605506
0.011543616
0.011487538
0.011436599
0.011390223
0.011347948
0.011309398
0.011274256
0.011242239
0.01121309
0.011186571
0.011162473
0.011140592
0.011120721
0.011102664
0.011086241
0.011071284
0.01105764
0.011045173
0.011033778
0.011023366
0.011013847
0.011005134
0.010997135
0.01098973
0.010982815