/*--------------------------------*- C++ -*----------------------------------*\
  =========                 |
  \\      /  F ield         | OpenFOAM: The Open Source CFD Toolbox
   \\    /   O peration     | Website:  https://openfoam.org
    \\  /    A nd           | Version:  12
     \\/     M anipulation  |
\*---------------------------------------------------------------------------*/
FoamFile
{
    format      ascii;
    class       volScalarField;
    location    "0.021";
    object      omega;
}
// * * * * * * * * * * * * * * * * * * * * * * * * * * * * * * * * * * * * * //

dimensions      [0 0 -1 0 0 0 0];

internalField   nonuniform List<scalar> 
16000
(
1090.4593
2244.1728
1092.8167
649.57301
459.66564
319.34635
243.33394
183.5298
148.15948
119.73553
101.85926
87.048689
76.230184
67.11632
59.71108
53.457085
48.178924
43.673792
39.800922
36.446289
33.525196
30.966191
28.710134
26.709961
24.927734
23.333874
21.903797
20.618498
19.461966
18.41964
17.478192
16.627005
15.857605
15.162833
14.536611
13.973318
13.467693
13.014742
12.610249
12.2507
11.932212
11.650628
11.402911
11.186413
10.998191
10.835195
10.695082
10.575643
10.474697
10.390032
10.319503
10.26113
10.213059
10.173693
10.141641
10.115799
10.095755
10.082665
10.077825
10.078509
10.081616
10.08548
10.090334
10.096154
10.10241
10.108675
10.114898
10.121371
10.128353
10.135836
10.143672
10.151772
10.159906
10.166553
10.166442
10.148591
10.128207
10.081433
10.002348
10.015551
1131.9249
2223.4184
1080.1312
649.31003
459.1313
321.78441
244.01186
185.04663
148.75601
120.6073
102.26181
87.513798
76.498092
67.356019
59.871826
53.577216
48.258837
43.725055
39.830122
36.458247
33.524096
30.956081
28.694166
26.690662
24.906635
23.31221
21.882161
20.597139
19.441204
18.400081
17.460234
16.610712
15.842907
15.149542
14.524576
13.962444
13.457996
13.006197
12.602645
12.243914
11.926423
11.645824
11.39892
11.183158
10.995794
10.833638
10.69428
10.575496
10.475107
10.390898
10.320709
10.262609
10.214774
10.17564
10.143822
10.118125
10.097624
10.082429
10.074827
10.073401
10.076168
10.080273
10.08565
10.092387
10.09971
10.106836
10.113475
10.119934
10.126679
10.133892
10.141502
10.149385
10.157114
10.163105
10.161855
10.144904
10.125755
10.07662
10.005671
10.012581
1171.7429
2216.8674
1067.372
645.02612
455.18487
321.61267
242.56889
184.99404
148.09657
120.61881
101.97965
87.435698
76.313069
67.193099
59.683661
53.386098
48.063354
43.53014
39.638899
36.272274
33.344659
30.784716
28.531907
26.538371
24.764433
23.180199
21.760029
20.484333
19.337184
18.304684
17.373275
16.531765
15.771491
15.085084
14.466548
13.910361
13.411503
12.964997
12.566273
12.211865
11.898555
11.621909
11.378559
11.165957
10.981613
10.822247
10.685383
10.568776
10.470257
10.387629
10.318722
10.261664
10.214675
10.176228
10.144954
10.119675
10.0994
10.083612
10.073136
10.069488
10.071246
10.075392
10.08121
10.088872
10.097386
10.105547
10.112737
10.119228
10.125716
10.132646
10.140064
10.147768
10.15502
10.15984
10.156402
10.143215
10.123055
10.074178
10.009251
10.00981
1209.8033
2216.1804
1054.4703
640.99836
450.88108
321.29946
240.87668
184.81215
147.32453
120.55332
101.6664
87.313569
76.10333
66.996999
59.468088
53.167993
47.843118
43.311954
39.425992
36.066273
33.146618
30.596094
28.353657
26.371338
24.608676
23.035776
21.626612
20.361332
19.223935
18.200933
17.278824
16.446156
15.694216
15.015518
14.404118
13.854521
13.361824
12.921158
12.527821
12.17818
11.869437
11.597126
11.357708
11.148537
10.96744
10.811058
10.676836
10.562508
10.465912
10.384898
10.317282
10.261258
10.215085
10.177273
10.146451
10.121425
10.101178
10.084947
10.072804
10.066567
10.066586
10.070487
10.076621
10.085108
10.094808
10.104071
10.111884
10.118423
10.124614
10.131222
10.138449
10.145973
10.152635
10.155935
10.15021
10.141233
10.11998
10.074602
10.015583
10.006737
1245.9205
2227.3337
1044.3809
636.49801
445.75412
320.30539
238.53914
184.17834
146.20177
120.23099
101.184
87.029816
75.768842
66.680347
59.148253
52.855311
47.538344
43.017432
39.144074
35.797928
32.892018
30.356009
28.128453
26.161417
24.413742
22.855578
21.460577
20.208681
19.083716
18.072629
17.162094
16.340393
15.598801
14.929696
14.327195
13.785815
13.300757
12.867299
12.480695
12.136997
11.833853
11.566835
11.332277
11.127305
10.950111
10.797292
10.666212
10.554584
10.460245
10.381131
10.315037
10.260228
10.215
10.177904
10.147574
10.122792
10.102539
10.086024
10.072983
10.06461
10.062322
10.065692
10.072056
10.081259
10.092102
10.102508
10.111042
10.117722
10.123665
10.129975
10.137038
10.144369
10.150278
10.151707
10.143362
10.136425
10.116174
10.076933
10.026643
10.004197
1279.9229
2248.3308
1035.6554
632.69729
440.56339
318.73566
235.70396
183.16319
144.82323
119.68886
100.57554
86.605212
75.327469
66.259129
58.737425
52.460173
47.159535
42.655888
38.801319
35.474407
32.587185
30.070091
27.861298
25.912961
24.183504
22.643065
21.265014
20.02915
18.919037
17.92204
17.025139
16.216335
15.486925
14.829129
14.237132
13.705461
13.229393
12.804365
12.425711
12.089067
11.792448
11.531553
11.302689
11.1026
10.929875
10.781118
10.653603
10.545034
10.453233
10.376262
10.311886
10.258447
10.214274
10.177961
10.148154
10.123618
10.10333
10.08651
10.072807
10.062807
10.058568
10.061097
10.067607
10.077372
10.089218
10.100713
10.110023
10.116951
10.122737
10.1288
10.135713
10.142797
10.147769
10.147098
10.136576
10.128854
10.111394
10.077831
10.036174
10.003362
1311.7244
2276.1749
1030.9418
629.36883
436.17184
316.57034
232.53629
181.78294
143.25231
118.92612
99.847154
86.035816
74.773336
65.72962
58.231054
51.978438
46.702581
42.223363
38.393727
35.091792
32.228363
29.734786
27.54893
25.622428
23.914629
22.395144
21.037056
19.820108
18.727512
17.747001
16.866004
16.072215
15.357008
14.712408
14.132677
13.612349
13.146763
12.731489
12.362078
12.033846
11.744753
11.490836
11.26854
11.074081
10.906409
10.762223
10.638713
10.533586
10.444616
10.370046
10.307598
10.255698
10.212697
10.177235
10.147992
10.123725
10.103413
10.086309
10.072084
10.061221
10.055403
10.056835
10.063411
10.073564
10.0862
10.09865
10.108745
10.116039
10.121803
10.127709
10.134484
10.141221
10.145078
10.142165
10.129471
10.120724
10.10621
10.074968
10.038183
10.005873
1341.4485
2307.9206
1029.9085
625.91869
431.81777
313.82603
229.73619
180.15259
141.69519
117.9665
99.015494
85.329066
74.106913
65.093283
57.628541
51.408795
46.165594
41.717813
37.918355
34.646989
31.812497
29.347106
27.188745
25.285302
23.602765
22.107727
20.772895
19.578051
18.505967
17.544638
16.682105
15.905724
15.206999
14.577721
14.012238
13.50509
13.051672
12.647646
12.288825
11.97112
11.690626
11.444543
11.229682
11.041732
10.879686
10.74056
10.621495
10.520187
10.434332
10.362414
10.302094
10.251886
10.210163
10.175613
10.146966
10.122998
10.102705
10.085399
10.070807
10.059405
10.052748
10.053009
10.059564
10.069914
10.083073
10.09627
10.107095
10.11485
10.12075
10.12662
10.133258
10.139493
10.142061
10.136896
10.122331
10.113384
10.101837
10.069559
10.035316
10.009078
1369.2323
2340.7716
1028.74
621.82677
427.19246
310.41642
226.3189
178.21638
139.84752
116.83045
98.077758
84.484715
73.320748
64.344765
56.923898
50.744434
45.541731
41.132986
37.365987
34.13075
31.330694
28.89852
26.773148
24.901382
23.248336
21.781702
20.473737
19.304394
18.255982
17.316615
16.475134
15.718553
15.03858
14.426718
13.877415
13.385215
12.945573
12.554241
12.207099
11.900039
11.629406
11.39212
11.185581
11.005555
10.849721
10.716116
10.601996
10.50488
10.422418
10.35338
10.295366
10.246982
10.206622
10.173024
10.144998
10.121365
10.101156
10.083757
10.068977
10.057308
10.050187
10.049675
10.056109
10.066469
10.07986
10.093542
10.104979
10.113248
10.11944
10.125414
10.131923
10.137487
10.138573
10.131304
10.115363
10.107446
10.099137
10.064511
10.032506
10.010381
1395.1342
2372.638
1019.6732
616.65847
420.73958
306.47902
221.95849
175.82173
137.88767
115.53528
97.020218
83.495969
72.404821
63.474357
56.107429
49.970876
44.815463
40.454037
36.733659
33.542729
30.784374
28.391592
26.304602
24.468753
22.849738
21.415663
20.138384
18.998157
17.976817
17.062405
16.24467
15.510435
14.851631
14.259412
13.728329
13.252932
12.828731
12.451568
12.117485
11.82244
11.562698
11.335041
11.137387
10.965196
10.816263
10.688634
10.580306
10.487743
10.408991
10.343028
10.287472
10.241008
10.202068
10.169442
10.142051
10.118792
10.098748
10.08139
10.066628
10.054975
10.04775
10.046825
10.053038
10.063234
10.07657
10.090448
10.102319
10.111095
10.117706
10.123924
10.130313
10.135021
10.134433
10.125501
10.109683
10.103181
10.096802
10.060774
10.030901
10.01097
1419.2781
2402.4629
1010.8175
610.43696
412.70718
302.24171
217.30848
173.26596
135.86963
114.06744
95.827292
82.353121
71.345372
62.45958
55.154699
49.081708
43.986676
39.683737
36.018086
32.879831
30.17051
27.823515
25.780868
23.986548
22.40642
21.009268
19.766764
18.659509
17.668887
16.782671
15.9912
15.281954
14.646847
14.07658
13.565819
13.10911
12.702028
12.340483
12.020691
11.738707
11.49088
11.273789
11.085725
10.922103
10.780554
10.65908
10.556239
10.468607
10.394171
10.331437
10.278502
10.234023
10.196533
10.164882
10.138128
10.115289
10.095508
10.078344
10.06381
10.052442
10.045434
10.04441
10.050311
10.060193
10.073214
10.086995
10.099079
10.108292
10.115395
10.12197
10.128242
10.131908
10.129464
10.119429
10.105564
10.100237
10.094143
10.057713
10.029495
10.011465
1441.7958
2431.1994
997.37733
602.86302
403.21265
297.63365
212.49177
170.46341
133.83458
112.43487
94.470015
81.024392
70.10266
61.292295
54.067709
48.072067
43.050071
38.817179
35.21625
32.139627
29.487569
27.193304
25.20119
23.454214
21.918311
20.562324
19.358959
18.288798
17.33278
16.478403
15.714457
15.03293
14.424154
13.878259
13.390006
12.95393
12.565686
12.221228
11.916988
11.649134
11.414141
11.209165
11.031207
10.876588
10.742889
10.62797
10.53087
10.448237
10.377825
10.318468
10.268514
10.226105
10.19008
10.159396
10.133276
10.110907
10.091505
10.074699
10.060596
10.04974
10.043186
10.042314
10.047881
10.057325
10.069817
10.083232
10.095285
10.104805
10.112401
10.119391
10.125532
10.12799
10.123543
10.112718
10.101277
10.097991
10.090946
10.055035
10.028106
10.011695
1462.955
2458.2897
979.96391
594.20922
393.17123
292.64108
207.63571
167.48515
131.76032
110.61163
92.88009
79.490648
68.679727
59.964524
52.838058
46.936418
42.001473
37.850958
34.325784
31.320266
28.734264
26.500384
24.564892
22.871536
21.385878
20.073646
18.913997
17.88533
16.967985
16.149711
15.419255
14.768148
14.188209
13.668964
13.205213
12.791455
12.423485
12.097267
11.809488
11.556527
11.334769
11.141284
10.973967
10.82877
10.703312
10.595718
10.504385
10.426907
10.360784
10.304713
10.257344
10.217293
10.18279
10.153079
10.127587
10.105735
10.086838
10.07056
10.05708
10.046924
10.040979
10.040363
10.045693
10.054613
10.066423
10.079249
10.091034
10.100682
10.108696
10.116093
10.122082
10.123247
10.116725
10.105204
10.09643
10.096162
10.087246
10.052586
10.026606
10.011244
1482.9877
2479.6894
958.3513
585.0852
382.72953
287.32588
202.80243
164.32473
129.57121
108.49933
91.039567
77.739118
67.061781
58.466151
51.457859
45.66816
40.836025
36.781614
33.344386
30.419623
27.909376
25.744638
23.869626
22.236376
20.807934
19.549263
18.438612
17.456251
16.581896
15.80338
15.109247
14.491214
13.942024
13.45141
13.013896
12.623865
12.277357
11.970299
11.699624
11.462073
11.25412
11.072708
10.916108
10.780437
10.663201
10.562324
10.476809
10.404472
10.343089
10.290447
10.245543
10.207421
10.174711
10.146048
10.121198
10.099901
10.08163
10.066045
10.053354
10.044046
10.038833
10.038556
10.043681
10.052041
10.063082
10.075166
10.086478
10.096059
10.104352
10.112088
10.117938
10.11792
10.109505
10.09739
10.091278
10.09455
10.084024
10.050242
10.024641
10.009821
1502.1436
2490.2169
932.61958
575.35307
371.9332
281.69799
198.0721
160.90628
127.14501
106.10342
88.918844
75.749864
65.234162
56.785007
49.917915
44.260723
39.549316
35.605345
32.270129
29.433365
27.008967
24.923542
23.12348
21.558399
20.194166
18.994805
17.938583
17.006771
16.179455
15.444302
14.789629
14.207076
13.688715
13.228179
12.818237
12.452961
12.12878
11.841568
11.588401
11.366532
11.172551
11.004155
10.858222
10.732017
10.623149
10.529233
10.449361
10.381803
10.324539
10.275768
10.233366
10.19698
10.1657
10.138394
10.11427
10.093555
10.076012
10.061259
10.049482
10.041119
10.03673
10.036874
10.041758
10.049576
10.059838
10.071109
10.081811
10.091146
10.099543
10.107512
10.113319
10.112577
10.102974
10.09064
10.086735
10.093263
10.081378
10.048053
10.021736
10.007216
1520.6476
2477.805
903.1899
565.04289
360.83223
275.77459
193.42989
157.0968
124.40108
103.37541
86.485124
73.49746
63.17835
54.907795
48.208866
42.706753
38.137154
34.314788
31.097378
28.369783
26.045349
24.050603
22.334437
20.845907
19.552609
18.419029
17.422546
16.54333
15.766325
15.077374
14.464414
13.919699
13.435557
13.005688
12.623969
12.28385
11.982263
11.71511
11.479393
11.273111
11.092572
10.935823
10.800491
10.683558
10.582948
10.496586
10.422333
10.359396
10.305852
10.260415
10.220917
10.186234
10.156184
10.130019
10.106942
10.086857
10.070092
10.056269
10.045481
10.038101
10.034572
10.035233
10.039828
10.047168
10.056715
10.067197
10.077242
10.086207
10.094539
10.102627
10.108588
10.107962
10.098436
10.086617
10.083886
10.09236
10.079935
10.046292
10.018033
10.003548
1538.6565
2423.0515
871.63829
554.19822
349.47439
269.46151
188.55987
152.86364
121.22319
100.26434
83.701544
70.954371
60.875868
52.822687
46.322219
40.994957
36.590543
32.92123
29.842583
27.240075
25.030266
23.138246
21.515652
20.111943
18.8934
17.830663
16.898892
16.07849
15.354064
14.713266
14.143343
13.637101
13.187217
12.787895
12.434083
12.118935
11.839662
11.592461
11.37398
11.18296
11.015683
10.870204
10.744941
10.636847
10.543804
10.464103
10.395939
10.337494
10.287414
10.244956
10.207964
10.175335
10.146424
10.12129
10.099162
10.079946
10.063946
10.051087
10.041314
10.034909
10.032205
10.033393
10.037785
10.04475
10.053715
10.063527
10.072969
10.081524
10.089669
10.097788
10.104147
10.104651
10.096776
10.08561
10.082959
10.092436
10.079818
10.045717
10.016049
10.000843
1556.0048
2390.2007
839.90797
542.75138
337.85697
262.21724
183.53161
148.09822
117.4936
96.708198
80.52913
68.093175
58.308539
50.519245
44.243513
39.136542
34.9315
31.440583
28.523079
26.063715
23.98252
22.204947
20.681349
19.369949
18.234812
17.246756
16.382272
15.622185
14.95117
14.358739
13.832033
13.364176
12.948313
12.578747
12.250612
11.959702
11.701936
11.47415
11.273436
11.097027
10.942605
10.807855
10.691988
10.592284
10.50642
10.432795
10.369799
10.315863
10.269465
10.229689
10.194967
10.164139
10.136619
10.112409
10.091222
10.07289
10.057615
10.045678
10.036898
10.031451
10.029523
10.031216
10.03552
10.042252
10.050826
10.06016
10.06914
10.077335
10.08525
10.093352
10.100283
10.102602
10.097651
10.086861
10.083204
10.09365
10.080311
10.047095
10.018487
10.000824
1572.2175
2345.1327
807.2528
530.3708
325.86516
253.80249
178.14801
142.67928
113.09793
92.640716
76.929874
64.889653
55.454912
47.981083
41.998814
37.155086
33.185479
29.901004
27.165919
24.866569
22.922469
21.269718
19.856346
18.641516
17.592054
16.680298
15.883704
15.184075
14.565879
14.019184
13.5346
13.103918
12.720927
12.380495
12.078238
11.810161
11.572663
11.362665
11.177565
11.015045
10.873009
10.74939
10.642233
10.550277
10.47111
10.403172
10.344958
10.295051
10.252092
10.214801
10.182154
10.153036
10.126897
10.103531
10.083184
10.065619
10.051124
10.039996
10.032133
10.027623
10.026453
10.028556
10.032931
10.039603
10.048001
10.057089
10.065805
10.073759
10.08147
10.089544
10.097063
10.101033
10.099341
10.08994
10.085881
10.095252
10.08178
10.049966
10.024506
10.00525
1586.6563
2277.4869
772.95737
516.57995
312.70019
244.05787
172.08976
136.45863
107.92801
87.9973
72.873946
61.321917
52.332456
45.258699
39.627081
35.092252
31.393402
28.340072
25.801122
23.675523
21.882799
20.360608
19.060386
17.943786
16.979996
16.143475
15.412804
14.770175
14.203698
13.702368
13.257692
12.862249
12.510191
12.19682
11.918344
11.671425
11.452807
11.259508
11.089093
10.939287
10.808223
10.69428
10.59606
10.511132
10.438086
10.375359
10.321503
10.275164
10.235091
10.200464
10.169665
10.142068
10.117171
10.09482
10.075239
10.05836
10.044502
10.034032
10.02693
10.023286
10.02294
10.025293
10.029909
10.036697
10.045125
10.054194
10.06286
10.07073
10.078307
10.086305
10.094294
10.099686
10.09991
10.092453
10.08936
10.096886
10.083661
10.05382
10.029493
10.009889
1598.1958
2207.7003
736.13258
500.75824
298.74972
232.77331
164.87991
129.25929
101.9
82.744348
68.353912
57.433129
49.007451
42.415694
37.192447
33.004959
29.604842
26.79753
24.471692
22.527075
20.888891
19.498935
18.311653
17.291461
16.410331
15.645471
14.976202
14.389001
13.870739
13.41137
13.003703
12.640896
12.317557
12.029275
11.772571
11.544711
11.343196
11.165012
11.008037
10.870062
10.749206
10.644528
10.553585
10.47508
10.407517
10.349495
10.299622
10.256626
10.219352
10.186773
10.15771
10.131506
10.107764
10.086369
10.067482
10.051198
10.037847
10.027853
10.021304
10.018294
10.018617
10.021316
10.026293
10.033346
10.041967
10.051207
10.060022
10.067962
10.075479
10.083283
10.091171
10.097229
10.098048
10.092965
10.093004
10.097965
10.083546
10.058923
10.034459
10.01126
1604.0014
2123.5313
696.50919
481.20455
283.72794
219.62337
156.03555
120.93583
95.010605
76.930903
63.45883
53.339217
45.584097
39.544787
34.773932
30.958233
27.868066
25.321951
23.212198
21.44904
19.963304
18.701967
17.623489
16.695284
15.891697
15.19243
14.581111
14.044016
13.570037
13.148885
12.774662
12.441329
12.144027
11.878686
11.641913
11.431065
11.244774
11.079973
10.934867
10.807597
10.696333
10.599318
10.515103
10.44229
10.379561
10.325674
10.279354
10.239237
10.204584
10.173917
10.14643
10.121494
10.098804
10.078344
10.060076
10.044291
10.031323
10.021608
10.015412
10.012833
10.013362
10.016426
10.02182
10.02923
10.038151
10.047703
10.056833
10.064967
10.072433
10.07989
10.087225
10.093081
10.095425
10.093306
10.094457
10.096972
10.081003
10.062891
10.038492
10.012685
1598.8571
2020.3751
653.56179
455.63885
267.42532
204.23882
145.30978
111.51085
87.415753
70.692782
58.386871
49.19792
42.189405
36.746586
32.452317
29.018292
26.237971
23.951175
22.052672
20.46386
19.122649
17.981861
17.004572
16.161712
15.430264
14.791989
14.232357
13.739481
13.303529
12.916539
12.571929
12.264579
11.990198
11.745254
11.526755
11.332129
11.159168
11.006044
10.870999
10.752464
10.648949
10.558914
10.480645
10.412919
10.354441
10.304076
10.261003
10.223611
10.19092
10.162009
10.136018
10.112287
10.09069
10.070949
10.053257
10.037884
10.025233
10.015606
10.009431
10.006869
10.007191
10.010394
10.016114
10.023897
10.033171
10.043117
10.052693
10.06113
10.068503
10.075417
10.081898
10.087065
10.090202
10.091375
10.090194
10.086449
10.078406
10.062813
10.040214
10.013405
1576.623
1888.9993
607.47111
423.37913
249.82057
186.39327
132.92841
101.32122
79.480699
64.373921
53.371619
45.182486
38.950949
34.116378
30.300117
27.241686
24.758178
22.717274
21.016556
19.588655
18.379304
17.347366
16.460722
15.693966
15.026755
14.442749
13.928999
13.475528
13.07361
12.716246
12.397389
12.112521
11.857807
11.630111
11.426792
11.245582
11.084487
10.941708
10.815607
10.704672
10.607584
10.52351
10.450391
10.387114
10.332495
10.285409
10.244781
10.209566
10.178646
10.151212
10.126667
10.104179
10.083469
10.064481
10.047359
10.032432
10.019959
10.010361
10.003949
10.000543
10.000271
10.003138
10.008852
10.01686
10.026433
10.036765
10.046879
10.055774
10.06309
10.069305
10.074702
10.078529
10.07991
10.079223
10.077671
10.075432
10.070301
10.058616
10.038624
10.012912
1528.5297
1730.236
559.37933
385.1452
231.75687
166.33313
119.59102
91.016057
71.682412
58.312206
48.644041
41.454796
35.985266
31.737843
28.37748
25.674458
23.468303
21.644979
20.121654
18.836304
17.74272
16.805493
15.997068
15.295653
14.683708
14.146796
13.672319
13.252271
12.878901
12.546736
12.249739
11.983958
11.745959
11.532931
11.342496
11.172614
11.021485
10.887489
10.769134
10.66503
10.573871
10.494414
10.42545
10.365641
10.313939
10.269269
10.230666
10.197387
10.168136
10.142144
10.11869
10.097248
10.07747
10.059242
10.042773
10.028181
10.015829
10.006046
9.9989919
9.9944936
9.9931085
9.9949753
9.9999871
10.007689
10.017313
10.027953
10.038626
10.048183
10.055702
10.061239
10.065376
10.067894
10.067955
10.065772
10.062912
10.060639
10.057676
10.04994
10.033988
10.011452
1446.8113
1572.9785
510.3278
345.27802
207.68127
146.88855
106.25663
81.309796
64.490909
52.824966
44.418374
38.167485
33.400723
29.685112
26.731466
24.342802
22.381832
20.750968
19.379656
18.216145
17.220735
16.363209
15.619896
14.972031
14.404518
13.90507
13.463593
13.071736
12.722735
12.410966
12.131769
11.881478
11.657016
11.455838
11.275787
11.114998
10.971816
10.844732
10.732341
10.63332
10.54643
10.470572
10.405013
10.348088
10.298869
10.25634
10.219551
10.18759
10.159591
10.134706
10.112284
10.091808
10.073031
10.055654
10.039763
10.025556
10.013309
10.003246
9.9950782
9.9893448
9.9864449
9.9866645
9.9901073
9.9966049
10.005769
10.01645
10.027366
10.037592
10.045815
10.051223
10.054303
10.055681
10.054937
10.051857
10.047632
10.044147
10.041686
10.037371
10.026938
10.009615
1333.6203
1483.8272
464.20566
298.05586
183.63858
128.61102
94.214968
72.730438
58.278537
48.201519
40.909718
35.470536
31.300609
28.028426
25.408848
23.275664
21.513065
20.038179
18.789436
17.724139
16.808075
16.015194
15.324925
14.720831
14.1896
13.720371
13.304174
12.933641
12.602806
12.307183
12.041828
11.803546
11.589517
11.397428
11.225308
11.071451
10.93434
10.81259
10.704907
10.610062
10.526868
10.454158
10.390779
10.335758
10.288088
10.246836
10.211115
10.180108
10.15317
10.129287
10.107869
10.088385
10.070474
10.053941
10.03874
10.024959
10.012745
10.002037
9.9927135
9.985515
9.9808759
9.9792464
9.9808941
9.9859467
9.9935788
10.0029
10.013162
10.023515
10.032639
10.038925
10.041975
10.042834
10.041919
10.038975
10.034145
10.028837
10.024776
10.021898
10.017317
10.00737
1200.6127
1250.3214
424.03852
255.80004
161.29421
113.37909
84.270412
65.8106
53.36959
44.636999
38.270799
33.47937
29.772378
26.837319
24.467533
22.522337
20.90326
19.539702
18.3799
17.38508
16.52577
15.779018
15.126651
14.554001
14.049039
13.601778
13.204124
12.849287
12.53168
12.246692
11.990551
11.760112
11.552786
11.366404
11.199123
11.049339
10.915623
10.796666
10.691247
10.598219
10.516544
10.445465
10.383393
10.329453
10.282675
10.242172
10.207097
10.176652
10.150077
10.126675
10.105814
10.086986
10.069821
10.054087
10.039641
10.026399
10.014268
10.002775
9.9922507
9.9834873
9.9771549
9.9740872
9.9743716
9.9776565
9.9835922
9.9909995
9.9991487
10.007651
10.01597
10.02323
10.02817
10.030053
10.02973
10.02783
10.023785
10.017677
10.011029
10.005826
10.002942
10.001913
1081.428
1109.8386
391.28807
225.10916
144.60405
102.2017
76.917588
60.771577
49.85875
42.134631
36.44693
32.125531
28.751257
26.056818
23.864249
22.051614
20.532981
19.24634
18.145977
17.19751
16.374576
15.656575
15.027123
14.473064
13.984142
13.549912
13.163065
12.817188
12.507025
12.228208
11.977142
11.75086
11.546908
11.363237
11.198103
11.049992
10.917551
10.799536
10.694779
10.602164
10.520611
10.449078
10.386569
10.332109
10.284784
10.243737
10.208167
10.177327
10.150509
10.127034
10.106268
10.087663
10.070825
10.055514
10.041556
10.028762
10.016911
10.005315
9.9941164
9.9840553
9.9760942
9.9721289
9.9711397
9.971243
9.9752372
9.9811213
9.9874949
9.9942125
10.000687
10.006451
10.011398
10.015546
10.018351
10.018613
10.015984
10.010591
10.00288
9.9966133
9.9950534
9.9984162
1026.5963
1071.1802
366.97866
207.99195
133.70894
94.641803
71.452207
56.770089
46.867562
39.851403
34.670758
30.716914
27.616515
25.130458
23.099588
21.414482
19.997814
18.793622
17.760564
16.867505
16.090557
15.411043
14.814059
14.287485
13.821294
13.407109
13.037849
12.707569
12.411282
12.144834
11.904785
11.688298
11.493022
11.317003
11.158585
11.016335
10.88898
10.775352
10.674351
10.584926
10.50606
10.436766
10.376094
10.323137
10.277042
10.237018
10.202333
10.172311
10.146302
10.123678
10.103874
10.086264
10.070309
10.055698
10.042316
10.030062
10.018854
10.007627
9.9964938
9.9858983
9.9774138
9.9730535
9.9715334
9.9713493
9.9732106
9.977494
9.9824251
9.9877107
9.9925403
9.9965808
10.000339
10.00417
10.007082
10.009619
10.009291
10.005988
10.000063
9.9940192
9.9917083
9.9962322
32489.876
79788.295
37582.046
10576.227
1360.0956
628.61239
445.42614
359.78646
298.74677
243.61188
198.45075
164.16871
138.90856
120.23738
105.85321
94.004331
83.918065
75.319345
67.976756
61.649248
56.142742
51.317541
47.067561
43.305677
39.964643
36.978075
34.299079
31.88638
29.706987
27.73484
25.947802
24.326182
22.852694
21.511999
20.291922
19.182283
18.17398
17.258984
16.429997
15.68035
15.004233
14.395959
13.850311
13.362533
12.927984
12.542358
12.20177
11.90207
11.639429
11.410416
11.211717
11.040159
10.892737
10.767012
10.660688
10.571828
10.498878
10.441415
10.398827
10.371433
10.353771
10.339477
10.32536
10.310225
10.294372
10.277681
10.258891
10.237934
10.217055
10.200764
10.190204
10.146099
10.139262
10.182174
10.192623
10.211978
10.221817
10.20332
10.143222
9.9851476
19254.241
62215.041
25633.612
5117.4744
1008.7531
545.05555
408.22586
330.46305
272.16268
219.7662
179.9298
150.28947
128.65289
112.49761
99.68728
88.845676
79.574767
71.681403
64.915034
59.047946
53.917137
49.405189
45.41842
41.878673
38.722101
35.893928
33.351315
31.055633
28.977716
27.094128
25.384454
23.83043
22.416088
21.127276
19.953082
18.884105
17.91185
17.028859
16.228279
15.503856
14.850159
14.261743
13.733697
13.261508
12.840718
12.467227
12.137317
11.846929
11.59241
11.370461
11.177865
11.011561
10.868678
10.74694
10.64418
10.558455
10.488061
10.432232
10.390225
10.362937
10.345036
10.329974
10.314614
10.29813
10.281105
10.263646
10.245044
10.225648
10.207545
10.194355
10.18468
10.137825
10.139133
10.181812
10.192131
10.211676
10.221253
10.189035
10.112507
9.9825907
26108.41
39161.935
14496.039
2610.8306
866.11576
514.39815
397.88311
315.48068
258.75105
208.06695
171.95213
144.16635
124.00961
108.76697
96.511985
86.071543
77.190795
69.635585
63.140636
57.497293
52.557661
48.21076
44.366483
40.94989
37.898245
35.162687
32.701671
30.477521
28.463169
26.636138
24.976735
23.46738
22.092787
20.839406
19.697055
18.65667
17.710093
16.850185
16.070331
15.364521
14.727545
14.154084
13.639431
13.179215
12.769086
12.405079
12.08358
11.800585
11.552566
11.336309
11.148664
10.986665
10.847573
10.72926
10.629503
10.546507
10.478501
10.42388
10.381953
10.354303
10.335906
10.320005
10.303425
10.285703
10.267743
10.249937
10.232045
10.214604
10.199412
10.18845
10.176336
10.131843
10.13968
10.181228
10.191674
10.211421
10.220516
10.175413
10.087155
9.980544
33498.19
25192.089
8714.4368
1628.3029
784.36067
490.86638
385.54728
299.98336
247.38815
197.22069
164.70039
138.21973
119.57195
105.18154
93.473554
83.436861
74.935006
67.693508
61.452029
56.019942
51.260351
47.068196
43.35737
40.056228
37.10535
34.455252
32.070721
29.914192
27.960227
26.187081
24.575758
23.109296
21.773029
20.55396
19.442593
18.430123
17.508712
16.67151
15.91211
15.224727
14.604351
14.045769
13.544477
13.096224
12.696761
12.342257
12.029193
11.753613
11.512119
11.301576
11.118907
10.961249
10.826077
10.711161
10.614489
10.534257
10.468613
10.41532
10.37334
10.34515
10.326204
10.309529
10.291869
10.273137
10.254571
10.236833
10.220021
10.204731
10.192267
10.181925
10.162076
10.12784
10.14281
10.180887
10.191339
10.211205
10.219609
10.163441
10.069341
9.9790309
38241.05
20599.18
6084.0555
1302.1458
746.11814
473.31197
375.9023
287.72612
239.01087
188.90868
159.52453
133.59529
116.19519
102.33443
91.019087
81.290403
73.086388
66.084732
60.039087
54.772881
50.156293
46.088167
42.485216
39.27821
36.409704
33.832852
31.510447
29.410907
27.508306
25.781328
24.211506
22.782335
21.479637
20.290842
19.207023
18.219512
17.320746
16.504098
15.763311
15.092787
14.487675
13.942832
13.453936
13.016823
12.627327
12.281735
11.976604
11.708014
11.472691
11.267563
11.089629
10.936145
10.804727
10.693136
10.599476
10.521901
10.458416
10.406525
10.364347
10.335447
10.315971
10.298675
10.280172
10.26075
10.24195
10.224656
10.209195
10.196105
10.185777
10.17368
10.145065
10.125488
10.147953
10.180698
10.191049
10.210959
10.218488
10.15412
10.057859
9.9781012
41256.682
18849.695
4659.6995
1224.1675
723.66275
454.84116
368.36536
277.90483
232.49388
182.22567
155.4416
129.66062
113.38346
99.873631
88.892534
79.425218
71.47191
64.668842
58.788344
53.663494
49.16937
45.207901
41.698146
38.572852
35.776333
33.26312
30.99606
28.94696
27.089952
25.404212
23.871644
22.476115
21.203853
20.042648
18.984073
18.019519
17.141685
16.344115
15.620676
14.965932
14.375157
13.843263
13.366094
12.939549
12.559535
12.222446
11.9249
11.663008
11.433612
11.233701
11.060363
10.911013
10.783186
10.67487
10.584168
10.509138
10.447627
10.397072
10.354773
10.325094
10.305242
10.287579
10.268558
10.248821
10.230154
10.213601
10.199637
10.188575
10.17925
10.162605
10.129004
10.125388
10.153916
10.180638
10.190778
10.21066
10.217148
10.147889
10.050569
9.9777322
43655.375
17126.643
3749.3827
1167.3315
706.86435
441.92859
362.53102
269.90745
227.34168
176.85679
152.17964
126.33704
111.03871
97.742753
87.049858
77.801848
70.058159
63.420053
57.679046
52.674537
48.285254
44.415572
40.986448
37.932217
35.19859
32.741385
30.52479
28.519145
26.702495
25.053602
23.554503
22.18934
20.944682
19.808617
18.773162
17.829701
16.97119
16.191299
15.483998
14.84399
14.26665
13.746929
13.280826
12.86428
12.493262
12.164264
11.873953
11.618463
11.394753
11.19988
11.031069
10.885605
10.761318
10.656229
10.5684
10.495765
10.436011
10.386502
10.344466
10.31405
10.294105
10.2764
10.257238
10.237575
10.219365
10.203767
10.191316
10.181797
10.171807
10.148277
10.119986
10.12843
10.159997
10.18058
10.190526
10.210303
10.215591
10.144223
10.045731
9.9778592
45488.028
14571.187
3168.2282
1131.1199
694.1944
431.48483
357.49863