/*--------------------------------*- C++ -*----------------------------------*\
  =========                 |
  \\      /  F ield         | OpenFOAM: The Open Source CFD Toolbox
   \\    /   O peration     | Website:  https://openfoam.org
    \\  /    A nd           | Version:  12
     \\/     M anipulation  |
\*---------------------------------------------------------------------------*/
FoamFile
{
    format      ascii;
    class       surfaceScalarField;
    location    "0.021";
    object      phi;
}
// * * * * * * * * * * * * * * * * * * * * * * * * * * * * * * * * * * * * * //

dimensions      [1 0 -1 0 0 0 0];

internalField   nonuniform List<scalar> 
31760
(
-0.00060050105
-0.051239777
0.051802731
-0.001566548
-0.065254305
0.066183483
-0.0025523464
-0.063747278
0.0646939
-0.0035673125
-0.069589579
0.070564716
-0.0046316434
-0.071228269
0.072251351
-0.0057295975
-0.075594309
0.076649365
-0.0068906462
-0.078543597
0.079659466
-0.0080951937
-0.082625214
0.083782584
-0.0093551764
-0.086296438
0.087507194
-0.010675393
-0.090482071
0.091750762
-0.012048805
-0.094677814
0.095997233
-0.013489063
-0.099159834
0.10054351
-0.014989717
-0.10380741
0.10524872
-0.016559402
-0.1086864
0.11019384
-0.018197332
-0.11378442
0.11535702
-0.019908224
-0.11911883
0.12076116
-0.021694558
-0.12469783
0.12641219
-0.023559378
-0.13053319
0.13232245
-0.025505749
-0.13663623
0.13850325
-0.027536872
-0.14301856
0.14496637
-0.02965598
-0.14969297
0.15172459
-0.031866609
-0.15667183
0.15879061
-0.034172124
-0.16396919
0.16617827
-0.036576176
-0.17159925
0.17390207
-0.039081465
-0.17957704
0.18197609
-0.0416923
-0.18791725
0.19041661
-0.044412286
-0.19663674
0.1992398
-0.047244537
-0.20575281
0.20846245
-0.050192239
-0.21528311
0.21810229
-0.053259123
-0.22524654
0.22817877
-0.056448181
-0.23566296
0.238711
-0.05976243
-0.2465532
0.24971984
-0.06320438
-0.25793991
0.26122744
-0.066776797
-0.26984548
0.27325647
-0.070481415
-0.28229547
0.28583144
-0.074319677
-0.29531579
0.29897799
-0.078292756
-0.308934
0.31272342
-0.082401035
-0.3231799
0.32709677
-0.086644326
-0.3380838
0.34212778
-0.091021413
-0.35367978
0.35784955
-0.095530536
-0.37000253
0.37429626
-0.10016867
-0.3870891
0.39150375
-0.10493181
-0.40497916
0.40951083
-0.10981497
-0.4237146
0.4283585
-0.11481154
-0.44334011
0.44808989
-0.11991384
-0.46390193
0.46875027
-0.12511217
-0.48544984
0.49038764
-0.13039597
-0.50803532
0.51305295
-0.13575254
-0.5317136
0.53679974
-0.14116691
-0.55654137
0.56168289
-0.14662189
-0.58257747
0.58775975
-0.15209837
-0.60988351
0.61509098
-0.15757395
-0.63852188
0.64373682
-0.16302328
-0.66855617
0.67375929
-0.16841813
-0.70005012
0.70522065
-0.17372522
-0.73306745
0.73818101
-0.17890715
-0.76766823
0.77269821
-0.18392052
-0.80390801
0.8088248
-0.18871348
-0.84183599
0.84660543
-0.19322723
-0.88149419
0.88607647
-0.19739451
-0.92291971
0.92726349
-0.20113957
-0.96614407
0.97018657
-0.20437605
-1.0111873
1.0148557
-0.20700788
-1.0580505
1.0612596
-0.20893044
-1.1067161
1.1093611
-0.21003197
-1.1571564
1.1591126
-0.21019083
-1.209327
1.21045
-0.20927936
-1.2631529
1.2632874
-0.20714378
-1.3185076
1.3174802
-0.20359449
-1.3751695
1.3727954
-0.19839896
-1.4328295
1.4289117
-0.19125705
-1.4912396
1.4855265
-0.18172761
-1.5506453
1.54272
-0.16921413
-1.6124922
1.6017278
-0.15358141
-1.6797214
1.6659629
-0.13181043
-1.7573115
1.737574
-0.10949369
-1.8504811
1.8301417
-0.074992069
-1.9472386
1.9150381
-0.042575682
-2.0686294
2.0382378
-2.1633645
2.1257227
-0.00060242823
-0.050670952
-0.0014757998
-0.064413232
-0.0023653115
-0.062891459
-0.0033222592
-0.068667227
-0.0042849079
-0.070301309
-0.0053285611
-0.074587686
-0.0063836985
-0.077527392
-0.0075206532
-0.081528895
-0.0086808641
-0.085178542
-0.0099159273
-0.089291238
-0.01119223
-0.093447806
-0.012535572
-0.097864952
-0.013935031
-0.10245873
-0.015400009
-0.10727463
-0.016930405
-0.11230981
-0.018530303
-0.11757745
-0.020201729
-0.1230878
-0.021948306
-0.12885104
-0.023773088
-0.13487905
-0.025679479
-0.14118311
-0.027670957
-0.14777594
-0.029750573
-0.15467034
-0.03192224
-0.1618795
-0.034189433
-0.16941804
-0.036556752
-0.1772999
-0.039026764
-0.18554179
-0.041603952
-0.19415867
-0.04429181
-0.2031688
-0.047094395
-0.21258929
-0.050015036
-0.22243976
-0.053057589
-0.23273954
-0.056225159
-0.2435102
-0.059520847
-0.25477438
-0.062947461
-0.26655478
-0.066507281
-0.27887745
-0.070202544
-0.29176835
-0.074034382
-0.30525612
-0.078004356
-0.3193701
-0.082111945
-0.33414267
-0.086357009
-0.34960749
-0.090738358
-0.36580025
-0.095253473
-0.38275926
-0.09989878
-0.40052517
-0.10467025
-0.41914019
-0.10956214
-0.43865062
-0.11456749
-0.45910371
-0.11967815
-0.4805503
-0.12488397
-0.50304349
-0.13017359
-0.52663927
-0.13553382
-0.55139559
-0.14094909
-0.57737292
-0.1464016
-0.60463412
-0.15187078
-0.6332432
-0.15733351
-0.663265
-0.16276338
-0.69476509
-0.16813
-0.72780956
-0.17339868
-0.76246106
-0.17852901
-0.79877881
-0.18347392
-0.83681716
-0.18818034
-0.87662458
-0.19258785
-0.91824765
-0.19662837
-0.96172647
-0.20022494
-1.0070903
-0.20329423
-1.0543516
-0.20574562
-1.1035112
-0.20748397
-1.1545564
-0.20840212
-1.2074617
-0.2083835
-1.2621617
-0.20728595
-1.3185407
-0.20492643
-1.3763887
-0.20106931
-1.4354172
-0.1953939
-1.4954545
-0.18745469
-1.5569044
-0.17672008
-1.621348
-0.16247043
-1.691914
-0.14363513
-1.7738523
-0.12172807
-1.8699093
-0.091629634
-1.9747475
-0.061315044
-2.0964568
-2.1968841
-0.00054437504
-0.050156003
-0.0013609185
-0.063624435
-0.0021658854
-0.062115111
-0.0030668723
-0.067795564
-0.0039520748
-0.069446468
-0.0049285557
-0.07364262
-0.005902763
-0.076586104
-0.006962547
-0.080503513
-0.0080387683
-0.084138141
-0.009188398
-0.088179014
-0.010376101
-0.092299232
-0.01162733
-0.09665465
-0.012932238
-0.10119667
-0.01429933
-0.10595242
-0.015729029
-0.11092714
-0.017224822
-0.11613094
-0.018789911
-0.12157438
-0.020427087
-0.12726803
-0.022140488
-0.13322246
-0.023932766
-0.13945041
-0.025808271
-0.1459629
-0.027770356
-0.15277375
-0.029822745
-0.15989577
-0.031970064
-0.16734269
-0.034215404
-0.17512997
-0.036563813
-0.18327238
-0.039018557
-0.19178664
-0.041584531
-0.20068941
-0.044265106
-0.2099993
-0.047065268
-0.21973431
-0.049987951
-0.22991582
-0.053037336
-0.24056414
-0.056217113
-0.25170241
-0.059529863
-0.26335441
-0.062979141
-0.27554521
-0.066567117
-0.28830212
-0.070296112
-0.30165364
-0.074166788
-0.31563072
-0.078180433
-0.33026507
-0.082336919
-0.34559174
-0.086634996
-0.36164749
-0.091073278
-0.3784707
-0.095649343
-0.39610296
-0.10035892
-0.4145882
-0.1051975
-0.4339728
-0.11015891
-0.45430546
-0.11523612
-0.47563766
-0.12041978
-0.49802447
-0.12570041
-0.52152156
-0.13106574
-0.54618902
-0.13650139
-0.57208867
-0.14199208
-0.59928327
-0.14751897
-0.62783929
-0.15306094
-0.65782262
-0.15859403
-0.68930036
-0.16409073
-0.72234064
-0.16951979
-0.75700844
-0.17484395
-0.793368
-0.18002227
-0.83147733
-0.1850068
-0.87139305
-0.18974478
-0.91316752
-0.19417587
-0.95684857
-0.19823421
-1.0024732
-0.20184761
-1.0500674
-0.20493939
-1.099646
-0.20742619
-1.1512106
-0.20921983
-1.2047441
-0.21020989
-1.2601978
-0.21025701
-1.3174651
-0.20918514
-1.3763396
-0.20675045
-1.4365696
-0.20263334
-1.4980556
-0.19638282
-1.5613726
-0.18741602
-1.6282886
-0.17495514
-1.7021429
-0.15854581
-1.787785
-0.1383013
-1.8874104
-0.11172463
-1.9984666
-0.083972768
-2.1210694
-2.2261434
-0.00049301846
-0.049688651
-0.0012509458
-0.062890308
-0.0019869384
-0.061402181
-0.0028386917
-0.066968578
-0.0036551555
-0.068655838
-0.004567063
-0.072757291
-0.0054650328
-0.07571579
-0.0064531173
-0.079544381
-0.0074507532
-0.083170607
-0.0085213453
-0.0871398
-0.0096270744
-0.091226285
-0.010793373
-0.095522594
-0.012011523
-0.10001433
-0.013288915
-0.10471249
-0.014627051
-0.10962821
-0.016029611
-0.11476943
-0.017499799
-0.12014718
-0.019040893
-0.12577196
-0.020656271
-0.13165424
-0.022350184
-0.1378059
-0.024125688
-0.14423916
-0.025987745
-0.15096591
-0.027940145
-0.15800015
-0.029986742
-0.16535553
-0.032132587
-0.17304635
-0.034381492
-0.18108857
-0.036738386
-0.18949783
-0.03920748
-0.19829147
-0.041794136
-0.20748697
-0.044501587
-0.21710444
-0.047334894
-0.22716343
-0.050298363
-0.237685
-0.053395652
-0.24869292
-0.056630657
-0.26021071
-0.060006845
-0.27226386
-0.06352678
-0.28488058
-0.067192861
-0.29808946
-0.07100728
-0.31192167
-0.074970754
-0.32641032
-0.079083835
-0.34159059
-0.083346592
-0.35749966
-0.087757184
-0.37417774
-0.092313877
-0.39166624
-0.097013623
-0.41001025
-0.10185209
-0.42925726
-0.10682473
-0.44945598
-0.1119241
-0.47066049
-0.11714396
-0.4929243
-0.12247457
-0.51630615
-0.1279057
-0.54086594
-0.13342543
-0.56666642
-0.13901909
-0.59377209
-0.14467071
-0.62224974
-0.15036192
-0.65216653
-0.15607043
-0.68359243
-0.16177294
-0.71659544
-0.16744111
-0.75124468
-0.17304317
-0.78760745
-0.17854298
-0.82574662
-0.18389938
-0.86572467
-0.18906645
-0.90759915
-0.19399295
-0.95142437
-0.19862331
-0.99724586
-0.20289742
-1.0451013
-0.20675131
-1.0950168
-0.21011687
-1.1470027
-0.21290764
-1.2010601
-0.21502756
-1.2571389
-0.21633699
-1.3151515
-0.21665954
-1.3748943
-0.2157528
-1.4361538
-0.21328407
-1.4989218
-0.20881396
-1.5639244
-0.20172942
-1.6331772
-0.19132542
-1.7101612
-0.17723014
-1.7992325
-0.15924384
-1.902448
-0.13591951
-2.0182821
-0.11112705
-2.1420128
-2.2511109
-0.00043936681
-0.049271577
-0.001148896
-0.062201197
-0.0018070578
-0.060764567
-0.0026074272
-0.066188985
-0.0033595112
-0.067925636
-0.004214033
-0.071925093
-0.0050434174
-0.074909466
-0.0059679258
-0.07864407
-0.0068953112
-0.082268312
-0.0078940462
-0.086167169
-0.0089265544
-0.090221009
-0.010016826
-0.094460724
-0.011158595
-0.098902221
-0.012358163
-0.1035439
-0.013617879
-0.10840088
-0.014940803
-0.11348037
-0.016330652
-0.11879275
-0.01779113
-0.12434853
-0.019325853
-0.13015829
-0.020938756
-0.13623356
-0.022634467
-0.14258588
-0.024416213
-0.14922855
-0.026289432
-0.15617334
-0.02825861
-0.16343488
-0.030328184
-0.17102748
-0.032503357
-0.17896635
-0.034789283
-0.18726718
-0.037190848
-0.19594756
-0.03971295
-0.20502496
-0.042360789
-0.21451917
-0.045139269
-0.22445004
-0.048052915
-0.23483898
-0.051106187
-0.24570983
-0.054303589
-0.25708604
-0.057648478
-0.26899424
-0.061144201
-0.28146259
-0.064793598
-0.29452018
-0.068598996
-0.30819863
-0.072561671
-0.32253208
-0.076682672
-0.33755586
-0.080961751
-0.35330838
-0.085398726
-0.36982969
-0.089991486
-0.38716303
-0.094737769
-0.40535351
-0.099634823
-0.42444891
-0.10467766
-0.44449998
-0.10986141
-0.46556037
-0.11517964
-0.48768479
-0.12062468
-0.51093276
-0.12618835
-0.53536406
-0.13185977
-0.56104335
-0.13762734
-0.58803499
-0.14347706
-0.61640721
-0.14939286
-0.64622833
-0.15535694
-0.67756925
-0.16134839
-0.71050044
-0.16734315
-0.74509366
-0.17331533
-0.78141797
-0.17923393
-0.81954165
-0.18506509
-0.85953066
-0.19077015
-0.90144836
-0.19630728
-0.94535471
-0.20163081
-0.99130399
-0.20669239
-1.0393426
-0.21143946
-1.0895056
-0.21581101
-1.1418139
-0.21973701
-1.1962728
-0.2231124
-1.2528514
-0.22581155
-1.3114551
-0.22763923
-1.3719161
-0.22835979
-1.4340381
-0.22764854
-1.4979111
-0.22506602
-1.5644316
-0.22001918
-1.6358644
-0.21184824
-1.7157337
-0.20018774
-1.8080441
-0.18475201
-1.914572
-0.16481857
-2.0342724
-0.14326317
-2.1591037
-2.2716976
-0.00039019251
-0.048900643
-0.0010568101
-0.061551979
-0.0016486894
-0.06018974
-0.0023928729
-0.065462084
-0.0030719401
-0.067264829
-0.0038762396
-0.071139382
-0.004647197
-0.074157647
-0.005513079
-0.077798261
-0.0063785029
-0.081423685
-0.0073144417
-0.085252824
-0.0082861099
-0.089271833
-0.00931386
-0.093456395
-0.010393869
-0.097846633
-0.011530792
-0.10243245
-0.012727381
-0.10723087
-0.013987392
-0.11224811
-0.015314219
-0.11749491
-0.01671162
-0.1229814
-0.018183995
-0.12871753
-0.019735223
-0.13471535
-0.021370319
-0.14098527
-0.023094012
-0.14754085
-0.024911382
-0.15439354
-0.026827476
-0.16155797
-0.028847877
-0.16904793
-0.03097838
-0.1768784
-0.033223706
-0.18506614
-0.035590191
-0.19362712
-0.038083179
-0.20257979
-0.040708121
-0.21194384
-0.043470726
-0.22173883
-0.046375711
-0.23198717
-0.04942868
-0.24271177
-0.052633154
-0.25393817
-0.055993957
-0.26569164
-0.059514791
-0.27800146
-0.063198292
-0.29089773
-0.06704698
-0.30441215
-0.071063052
-0.3185791
-0.075247333
-0.33343523
-0.079600639
-0.34901888
-0.084122043
-0.36537174
-0.08881111
-0.38253642
-0.093666115
-0.4005592
-0.098683767
-0.41948924
-0.10386109
-0.43937674
-0.1091948
-0.46027542
-0.11467879
-0.48224241
-0.12030826
-0.50533548
-0.12607518
-0.52961704
-0.13197261
-0.55514996
-0.13799039
-0.582001
-0.14411756
-0.61023843
-0.15034136
-0.63993164
-0.15664709
-0.67115294
-0.16301813
-0.70397442
-0.16943637
-0.73846913
-0.17587986
-0.77470997
-0.18232476
-0.81276738
-0.18874341
-0.85271192
-0.19510631
-0.8946105
-0.20138024
-0.93852999
-0.20752981
-0.98453113
-0.21351639
-1.0326678
-0.21929692
-1.0829824
-0.22481937
-1.1355035
-0.230015
-1.190244
-0.23478905
-1.2471795
-0.23899821
-1.3062341
-0.24246089
-1.3672464
-0.24492632
-1.4300727
-0.24608132
-1.4948848
-0.24551699
-1.562748
-0.24267971
-1.6361647
-0.23695856
-1.7186811
-0.22793422
-1.81401
-0.21534633
-1.9235606
-0.19889717
-2.0463386
-0.18089888
-2.1720787
-2.2876736
-0.00035116144
-0.048566163
-0.00098706846
-0.06093098
-0.0015237285
-0.059667682
-0.0022210093
-0.064779162
-0.0028342964
-0.066666597
-0.0035934834
-0.070395606
-0.0043044322
-0.073462597
-0.0051110159
-0.077008172
-0.0059330903
-0.080618835
-0.0068238831
-0.084379875
-0.0077513243
-0.088362943
-0.008731492
-0.092495506
-0.0097637309
-0.096834455
-0.010851898
-0.10136517
-0.011999935
-0.10610459
-0.013211207
-0.11105949
-0.014490498
-0.11623922
-0.015841822
-0.12165468
-0.017269924
-0.12731506
-0.018780159
-0.13323182
-0.020377087
-0.13941615
-0.022066907
-0.14587998
-0.023854822
-0.15263574
-0.025746533
-0.15969756
-0.02774844
-0.16707854
-0.029866229
-0.17479435
-0.032106886
-0.18286045
-0.034476072
-0.19129411
-0.036979659
-0.20011359
-0.039624451
-0.20933761
-0.042415662
-0.21898732
-0.04535915
-0.22908447
-0.048459897
-0.23965282
-0.051723399
-0.25071737
-0.055153108
-0.26230542
-0.058753182
-0.27444549
-0.062527295
-0.28716812
-0.066477762
-0.30050631
-0.070606439
-0.31449486
-0.074914822
-0.32917066
-0.079403853
-0.34457254
-0.084073409
-0.36074312
-0.088923262
-0.377725
-0.093951793
-0.39556568
-0.099157916
-0.41431363
-0.10453922
-0.43402016
-0.1100927
-0.45473931
-0.11581571
-0.47652756
-0.1217034
-0.49944441
-0.12775178
-0.52355086
-0.13395451
-0.54891155
-0.14030514
-0.57559264
-0.14679617
-0.60366285
-0.15341798
-0.63319322
-0.16016041
-0.66425625
-0.16701121
-0.69692602
-0.17395737
-0.73127639
-0.18098339
-0.76738288
-0.18807164
-0.80531851
-0.19520279
-0.84515662
-0.20235426
-0.88696935
-0.20950237
-0.93082754
-0.2166204
-0.97679812
-0.22367911
-1.0249401
-0.23064354
-1.0753022
-0.23746695
-1.1279201
-0.24408335
-1.1828133
-0.25039603
-1.2399659
-0.2562615
-1.2993184
-0.26148763
-1.3607292
-0.26583003
-1.4240978
-0.2689782
-1.489695
-0.27056535
-1.5587294
-0.27014059
-1.6338773
-0.26712221
-1.7188054
-0.26102845
-1.8168439
-0.25167317
-1.9291397
-0.23894105
-2.0542718
-0.22461356
-2.1808581
-2.2988064
-0.0003135942
-0.048267087
-0.00092632728
-0.060331116
-0.0014145296
-0.05919201
-0.0020665167
-0.064139637
-0.0026386419
-0.066106457
-0.0033468086
-0.069700329
-0.0040261737
-0.072796539
-0.0048166257
-0.076231079
-0.0056042547
-0.079845497
-0.0064529146
-0.083545982
-0.0073411573
-0.087490009
-0.0082806466
-0.091571881
-0.0092739829
-0.095857578
-0.010324584
-0.10033165
-0.011436923
-0.10500999
-0.012615577
-0.10989926
-0.013864485
-0.11500945
-0.015189633
-0.12034941
-0.016595837
-0.1259295
-0.018088776
-0.1317603
-0.019674308
-0.13785285
-0.021358466
-0.14421887
-0.023147614
-0.15087047
-0.025049088
-0.15782079
-0.027068446
-0.16508471
-0.029213323
-0.17267581
-0.031490021
-0.18061087
-0.033905577
-0.18890643
-0.036466742
-0.197581
-0.039179848
-0.20665372
-0.042050942
-0.216146
-0.045086125
-0.22607953
-0.048290927
-0.23647863
-0.051669837
-0.24736928
-0.055227598
-0.2587785
-0.058968282
-0.27073545
-0.062894691
-0.28327189
-0.067009803
-0.29642058
-0.071315768
-0.31021705
-0.075814078
-0.3246988
-0.080505616
-0.33990512
-0.085391594
-0.35587821
-0.090471299
-0.37266243
-0.095744791
-0.39030437
-0.10121147
-0.40885297
-0.10687022
-0.4283599
-0.11271999
-0.44887885
-0.11875939
-0.47046637
-0.12498646
-0.49318214
-0.13139894
-0.517087
-0.13799426
-0.54224536
-0.14476839
-0.56872437
-0.15171738
-0.59659222
-0.15883603
-0.62592091
-0.16611879
-0.65678318
-0.17355916
-0.6892541
-0.18114903
-0.7234093
-0.18887964
-0.75932531
-0.19674064
-0.79707738
-0.20471973
-0.83674198
-0.21280287
-0.87839466
-0.2209742
-0.92211015
-0.22921533
-0.96795982
-0.2375048
-1.0160066
-0.24581292
-1.0663054
-0.25409764
-1.1188967
-0.26229316
-1.1738087
-0.27029911
-1.2310361
-0.27797387
-1.2905314
-0.285126
-1.3521784
-0.29149778
-1.4159423
-0.29679755
-1.4821734
-0.30069174
-1.5522206
-0.3028374
-1.6288465
-0.30276233
-1.7157559
-0.29999878
-1.8161257
-0.29428066
-1.9309469
-0.2854858
-2.0579582
-0.27499494
-2.1852666
-2.3047992
-0.00027214636
-0.048007539
-0.00086397262
-0.059750386
-0.0013083697
-0.058758316
-0.0019322351
-0.063526631
-0.0024838804
-0.065565706
-0.0031930933
-0.069002305
-0.0038485968
-0.072152304
-0.0046078089
-0.075483669
-0.005364818
-0.079100342
-0.0061794261
-0.082743577
-0.007039696
-0.086642346
-0.0079522531
-0.090672347
-0.0089220234
-0.094901274
-0.0099523279
-0.099315276
-0.011048208
-0.10392852
-0.012214455
-0.10874793
-0.013456718
-0.11378262
-0.014780401
-0.11904169
-0.016191532
-0.12453488
-0.017696932
-0.13027197
-0.019302694
-0.1362647
-0.02101645
-0.14252327
-0.022844684
-0.14906093
-0.024794943
-0.15588975
-0.026875
-0.16302436
-0.02909185
-0.17047911
-0.031453285
-0.17826998
-0.03396646
-0.18641414
-0.036638132
-0.19493047
-0.039475474
-0.2038377
-0.042484945
-0.21315792
-0.045672023
-0.22291376
-0.049042055
-0.23312967
-0.05260037
-0.24383161
-0.056351206
-0.25504766
-0.06029794
-0.26680778
-0.064444161
-0.27914346
-0.068792516
-0.29208834
-0.073344904
-0.30567863
-0.078103384
-0.31995155
-0.083069042
-0.33494725
-0.088242794
-0.35070797
-0.093625802
-0.3672777
-0.09921908
-0.384703
-0.10502288
-0.40303344
-0.11103804
-0.42231989
-0.11726512
-0.44261613
-0.12370491
-0.46397821
-0.13035827
-0.48646545
-0.13722532
-0.51013902
-0.14430679
-0.53506238
-0.15160278
-0.56130293
-0.15911289
-0.58892911
-0.16683715
-0.61801245
-0.17477465
-0.64862665
-0.18292467
-0.68084679
-0.19128519
-0.71475007
-0.19985478
-0.75041284
-0.2086296
-0.78791349
-0.21760478
-0.82733045
-0.22677426
-0.86874155
-0.23612969
-0.91222498
-0.24566015
-0.95785513
-0.25534918
-1.0056994
-0.26517267
-1.0558156
-0.27508924
-1.1082518
-0.28503465
-1.1630425
-0.29490675
-1.2201967
-0.30456454
-1.2796786
-0.31381131
-1.3414081
-0.32240703
-1.4054014
-0.33006593
-1.4721114
-0.33650588
-1.5429836
-0.34145947
-1.6207998
-0.34456038
-1.709271
-0.34538266
-1.8115708
-0.34360485
-1.9286962
-0.33928225
-2.0569588
-0.33330085
-2.1847347
-2.3055482
-0.0002358523
-0.04778262
-0.00081650366
-0.059179319
-0.0012331041
-0.058350872
-0.0018724376
-0.06289676
-0.0024055101
-0.06504187
-0.0031027712
-0.068315217
-0.003732781
-0.071532072
-0.0044551125
-0.074771141
-0.0051982838
-0.078366976
-0.0059978394
-0.081954088
-0.0068489845
-0.08580157
-0.0077542855
-0.089777722
-0.0087209396
-0.093945619
-0.0097528077
-0.098294742
-0.010855649
-0.10283736
-0.012035238
-0.10758038
-0.013297851
-0.1125324
-0.014650231
-0.11770206
-0.016099247
-0.12309897
-0.01765171
-0.12873296
-0.019316402
-0.1346138
-0.021099918
-0.14075387
-0.023011346
-0.1471639
-0.025058192
-0.15385755
-0.027248555
-0.16084884
-0.029590837
-0.16815181
-0.032092774
-0.1757831
-0.034761697
-0.18376025
-0.037605416
-0.19210166
-0.040630329
-0.20082744
-0.043842475
-0.20996004
-0.047248002
-0.21952194
-0.050851849
-0.22953876
-0.054658772
-0.24003663
-0.058672646
-0.25104444
-0.062896931
-0.26259252
-0.067334565
-0.27471285
-0.071988024
-0.28743943
-0.076859918
-0.30080825
-0.081951871
-0.31485742
-0.08726587
-0.3296266
-0.092803917
-0.34515791
-0.098567903
-0.36149527
-0.10455948
-0.37868537
-0.11078145
-0.39677647
-0.11723658
-0.41581929
-0.12392749
-0.43586762
-0.13085763
-0.45697642
-0.13803062
-0.47920463
-0.14545045
-0.50261277
-0.15312057
-0.52726459
-0.16104593
-0.55322578
-0.16923043
-0.58056583
-0.17767881
-0.60935549
-0.18639624
-0.63966826
-0.19538766
-0.67157973
-0.20465843
-0.70516702
-0.21421291
-0.74050788
-0.22405519
-0.77768147
-0.23418792
-0.81676822
-0.24461137
-0.85784878
-0.25532463
-0.90100249
-0.26632258
-0.9463068
-0.27759413
-0.99383176
-0.28911649
-1.0436404
-0.3008498
-1.0957866
-0.31272863
-1.1503136
-0.3246553
-1.2072405
-0.33648773
-1.2665518
-0.34803977
-1.3281962
-0.35908093
-1.3922483
-0.36934835
-1.4592576
-0.3786132
-1.5307262
-0.38665023
-1.6094313
-0.39319214
-1.6990632
-0.39794003
-1.8028568
-0.4006254
-1.9218351
-0.40126648
-2.0508204
-0.40041161
-2.1788824
-2.3009333
-0.00020438373
-0.047587787
-0.00078661609
-0.058605433
-0.0011831133
-0.057962262
-0.0018452051
-0.062242933
-0.002360381
-0.064534568
-0.0030339458
-0.067648484
-0.0036585585
-0.07091511
-0.0043786026
-0.074059011
-0.0051257342
-0.077628028
-0.0059262169
-0.081161961
-0.0067855435
-0.084950804
-0.0077036708
-0.088868366
-0.0086892325
-0.092969045
-0.0097470623
-0.097246123
-0.010883886
-0.10170997
-0.012106485
-0.10636744
-0.013422121
-0.11122665
-0.014838237
-0.11629604
-0.016363417
-0.12158408
-0.018005759
-0.12710109
-0.019773744
-0.13285645
-0.021676548
-0.13886181
-0.02372259
-0.14512868
-0.025920912
-0.15167006
-0.0282806
-0.15849994
-0.030809436
-0.16563363
-0.033515686
-0.17308728
-0.036407103
-0.18087892
-0.039490925
-0.18902746
-0.04277287
-0.1975545
-0.046259908
-0.2064812
-0.049956409
-0.21583263
-0.053867717
-0.22563339
-0.057997163
-0.23591158
-0.062348163
-0.24669598
-0.066924301
-0.25801669
-0.071728181
-0.26990658
-0.07676208
-0.28239992
-0.082028572
-0.29553231
-0.087530409
-0.30934158
-0.093270176
-0.32386743
-0.099250916
-0.3391514
-0.10547575
-0.35523721
-0.11194901
-0.37217022
-0.11867505
-0.38999849
-0.12565862
-0.40877224
-0.13290612
-0.42854343
-0.14042318
-0.44936765
-0.14821735
-0.47130173
-0.15629592
-0.49440626
-0.16466723
-0.51874385
-0.17333929
-0.54438049
-0.18232194
-0.57138394
-0.19162548
-0.59982476
-0.20126054
-0.62977646
-0.21123869
-0.66131404
-0.22157204
-0.69451438
-0.23227194
-0.7294563
-0.24334929
-0.7662196
-0.25481346
-0.8048863
-0.26667295
-0.84553746
-0.27893173
-0.88825563
-0.29159004
-0.9331191
-0.30463987
-0.98020102
-0.31806032
-1.0295691
-0.33181215
-1.0812839
-0.34583163
-1.1353971
-0.36002167
-1.1919416
-0.37425134
-1.2509146
-0.38834106
-1.3123012
-0.40206961
-1.3762353
-0.41522128
-1.4433288
-0.42759582
-1.5151486
-0.43901699
-1.5944398
-0.44935205
-1.6848338
-0.45846276
-1.7896455
-0.46613165
-1.9098543
-0.47225164
-2.0390613
-0.47704312
-2.1673571
-2.2905637
-0.00018236876
-0.047413788
-0.00078226567
-0.058012821
-0.0011737612
-0.057577502
-0.001835749
-0.061587084
-0.0023418562
-0.064034937
-0.0030262894
-0.066970594
-0.0036665758
-0.070281472
-0.0043919218
-0.073340364
-0.0051600861
-0.076866675
-0.0059816258
-0.080347345
-0.0068704817
-0.084069002
-0.0078256226
-0.087920414
-0.0088567137
-0.091945277
-0.0099698459
-0.09614045
-0.011172812
-0.1005146
-0.012473611
-0.10507435
-0.013880838
-0.10982724
-0.015403521
-0.11478127
-0.017050516
-0.11994506
-0.018832057
-0.12532756
-0.020757253
-0.13093925
-0.022836126
-0.13679088
-0.025077879
-0.14289475
-0.027492035
-0.14926355
-0.030087562
-0.15591178
-0.032872997
-0.16285519
-0.035855837
-0.17011094
-0.039043728
-0.17769691
-0.042442625
-0.18563366
-0.046059052
-0.19394221
-0.049897306
-0.2026459
-0.053962047
-0.21176943
-0.058257097
-0.22133818
-0.062785557
-0.23138095
-0.067550445
-0.24192653
-0.072554587
-0.25300517
-0.07780031
-0.26465017
-0.083290803
-0.27689485
-0.089028818
-0.28977516
-0.095018033
-0.30332789
-0.10126245
-0.31759232
-0.10776675
-0.3326092
-0.11453664
-0.34842109
-0.1215782
-0.36507287
-0.12889845
-0.38261156
-0.13650586
-0.40108578
-0.14440914
-0.42054716
-0.15261825
-0.4410499
-0.16114362
-0.46265022
-0.16999698
-0.48540736
-0.17919069
-0.50938327
-0.18873887
-0.5346423
-0.19865588
-0.56125225
-0.20895789
-0.58928228
-0.21966161
-0.61880573
-0.23078581
-0.64989588
-0.24234836
-0.68263083
-0.25436791
-0.71708863
-0.26686244
-0.75334963
-0.27984857
-0.79149659
-0.29334002
-0.83161202
-0.3073473
-0.87377899
-0.32187457
-0.91807766
-0.33691623
-0.96458417
-0.35245291
-1.0133707
-0.36844613
-1.0645052
-0.38483405
-1.1180486
-0.40152626
-1.1740452
-0.41840041
-1.2325059
-0.43528316
-1.2934561
-0.4519808
-1.3570702
-0.46829545
-1.4240345
-0.48408356
-1.4959466
-0.49926037
-1.5754909
-0.51384425
-1.6662144
-0.5278404
-1.7715075
-0.5410608
-1.8922759
-0.55314944
-2.0213597
-0.56409104
-2.1498775
-2.2739082
-0.0001647734
-0.047256371
-0.00079455186
-0.057389327
-0.0011944463
-0.057183342
-0.0018681611
-0.060919009
-0.0023882915
-0.0635202
-0.0030827305
-0.066281682
-0.0037534714
-0.069616283
-0.0045033404
-0.072596085
-0.0053125822
-0.076063107
-0.0061788616
-0.079486805
-0.0071222111
-0.083131465
-0.0081424425
-0.086906068
-0.0092500243
-0.090843648
-0.010452795
-0.094943693
-0.011759976
-0.099213475
-0.013181115
-0.10365931
-0.01472622
-0.10828823
-0.016405712
-0.11310786
-0.018230212
-0.11812659
-0.020210046
-0.12335366
-0.022356066
-0.12879901
-0.024678347
-0.13447418
-0.027186587
-0.1403918
-0.029890517
-0.14656453
-0.032798459
-0.15300827
-0.035918262
-0.15973923
-0.039257696
-0.16677462
-0.042822144
-0.17413468
-0.046617351
-0.1818396
-0.050647724
-0.18991169
-0.054917146
-0.19837482
-0.05942912
-0.207254
-0.06418544
-0.2165763
-0.069189845
-0.22636853
-0.074444267
-0.23666124
-0.079951229
-0.24748402
-0.085714285
-0.25886906
-0.091736459
-0.27085014
-0.098022839
-0.28346105
-0.10457824
-0.29673876
-0.11140853
-0.31072139
-0.11852072
-0.32544846
-0.12592324
-0.340961
-0.13362502
-0.35730329
-0.1416365
-0.37452077
-0.14996938
-0.3926607
-0.15863609
-0.41177385
-0.16765031
-0.43191312
-0.1770272
-0.45313316
-0.18678248
-0.47549262
-0.19693382
-0.49905163
-0.20749928
-0.5238744
-0.21850014
-0.5500259
-0.22995779
-0.57757561
-0.24189628
-0.60659466
-0.25433957
-0.63715674
-0.26731356
-0.6693381
-0.28084326
-0.70321752
-0.29495314
-0.73887529
-0.30966692
-0.77639353
-0.32500398
-0.81585664
-0.34098004
-0.85734737
-0.35760328
-0.9009475
-0.37487056
-0.94673646
-0.39276331
-0.99479182
-0.41124532
-1.0451876
-0.43025911
-1.0979938
-0.44972233
-1.1532651
-0.46951529
-1.2110338
-0.48948357
-1.2713505
-0.50944597
-1.3344389
-0.52924548
-1.4010367
-0.54880832
-1.4727667
-0.56815706
-1.5522052
-0.58747295
-1.6427615
-0.60692375
-1.7478965
-0.62633498
-1.8685393
-0.64497843
-1.9973042
-0.66268535
-2.1259795
-2.2503104
-0.00015158449
-0.047111283
-0.00082522039
-0.05672111
-0.0012399289
-0.056773517
-0.0019405788
-0.060223144
-0.0024917325
-0.062973753
-0.0032164168
-0.065561679
-0.0039388936
-0.068898511
-0.0047337351
-0.071805949
-0.0056064215
-0.075195158
-0.0065442295
-0.078553761
-0.0075712057
-0.082109276
-0.0086894734
-0.085792608
-0.0099106394
-0.089627297
-0.011244724
-0.093614419
-0.012702586
-0.097760399
-0.014295637
-0.10207099
-0.016035391
-0.10655314
-0.017933514
-0.11121428
-0.020001597
-0.11606289
-0.022250963
-0.12110846
-0.024692266
-0.1263616
-0.027336022
-0.13183395
-0.030192019
-0.13753889
-0.033268371
-0.14349072
-0.036573191
-0.14970532
-0.040113001
-0.15620049
-0.043893176
-0.16299454
-0.04791853
-0.17010829
-0.052192625
-0.17756312
-0.056718202
-0.18538215
-0.061497391
-0.19358983
-0.066532664
-0.2022108
-0.07182586
-0.21127272
-0.077379166
-0.22080199
-0.083195561
-0.23082833
-0.08927829
-0.24138101
-0.095631495
-0.25249124
-0.10226109
-0.26419094
-0.10917239
-0.27651442
-0.11637362
-0.28949566
-0.12387301
-0.30317268
-0.13168151
-0.31758218
-0.13980943
-0.33276579
-0.14826979
-0.34876496
-0.15707713
-0.36562355
-0.16624603
-0.38338875
-0.17579345
-0.40210881
-0.18573759
-0.42183538
-0.19609733
-0.44262234
-0.2068939
-0.46452612
-0.21814924
-0.48760629
-0.22988843
-0.51192429
-0.24213684
-0.53754524
-0.25492276
-0.56453619
-0.26827646
-0.59296667
-0.28222892
-0.62290989
-0.29681185
-0.65444132
-0.31205811
-0.6876381
-0.32799883
-0.72258109
-0.34466302
-0.75935242
-0.36207704
-0.79803571
-0.38026165
-0.83871414
-0.39922858
-0.8814714
-0.41897695
-0.92639036
-0.43949191
-0.97355198
-0.46073961
-1.0230383
-0.48266705
-1.0749272
-0.50519783
-1.1292849
-0.5282223
-1.1861631
-0.55159875
-1.2456376
-0.57516512
-1.3079781
-0.59880037
-1.3739617
-0.62253595
-1.4451955
-0.64652959
-1.5241144
-0.67109705
-1.6139673
-0.69660315
-1.7182256
-0.72290805
-1.8380299
-0.74883759
-1.9662813
-0.77396441
-2.0949063
-2.2191211
-0.00014405154
-0.046972963
-0.00088053678
-0.055989284
-0.0013140541
-0.0563442
-0.0020598278
-0.05948151
-0.0026620351
-0.062375563
-0.0034332802
-0.064794427
-0.0042300144
-0.068105759
-0.0050947009
-0.070945223
-0.0060565869
-0.07423723
-0.0070975251
-0.077516771
-0.0082437074
-0.080967023
-0.0095009703
-0.084539249
-0.010882514
-0.088249611
-0.012400516
-0.092100213
-0.014067755
-0.096096863
-0.015897034
-0.10024529
-0.017901178
-0.10455241
-0.020092637
-0.10902603
-0.022483539
-0.11367493
-0.025085276
-0.11850934
-0.027908559
-0.12354052
-0.030962722
-0.1287815
-0.034256011
-0.13424672
-0.037795818
-0.13995131
-0.041587363
-0.14591332
-0.045635461
-0.15215094
-0.049942688
-0.15868468
-0.054511546
-0.16553542
-0.059343739
-0.17272532
-0.064440226
-0.18027822
-0.069802526
-0.18821797
-0.075431758
-0.19656957
-0.081330409
-0.20535929
-0.087501055
-0.21461339
-0.093948031
-0.22435977
-0.10067585
-0.23462745
-0.10769148
-0.24544514
-0.11500197
-0.25684459
-0.12261737
-0.26885703
-0.13054738
-0.2815167
-0.13880518
-0.29485808
-0.14740307
-0.30891866
-0.15635684
-0.32373656
-0.16568325
-0.33935216
-0.17539981
-0.35580855
-0.18552616
-0.37315073
-0.19608328
-0.39142551
-0.20709356
-0.41068312
-0.21858128
-0.43097556