/*--------------------------------*- C++ -*----------------------------------*\
  =========                 |
  \\      /  F ield         | OpenFOAM: The Open Source CFD Toolbox
   \\    /   O peration     | Website:  https://openfoam.org
    \\  /    A nd           | Version:  12
     \\/     M anipulation  |
\*---------------------------------------------------------------------------*/
FoamFile
{
    format      ascii;
    class       volScalarField;
    location    "0.021";
    object      rho;
}
// * * * * * * * * * * * * * * * * * * * * * * * * * * * * * * * * * * * * * //

dimensions      [1 -3 0 0 0 0 0];

internalField   nonuniform List<scalar> 
16000
(
1.0571965
1.0939765
1.081212
1.0902946
1.0862081
1.0900265
1.0890094
1.0910273
1.0912264
1.0925625
1.0932872
1.094403
1.0953651
1.0964535
1.097538
1.0986766
1.0998481
1.1010613
1.1023145
1.1036093
1.1049459
1.1063248
1.1077462
1.1092101
1.1107162
1.112264
1.1138528
1.1154815
1.1171488
1.1188531
1.1205924
1.1223645
1.124167
1.125997
1.1278516
1.1297273
1.1316207
1.133528
1.1354453
1.1373684
1.139293
1.1412149
1.1431297
1.1450327
1.1469193
1.1487841
1.1506222
1.1524281
1.1541963
1.1559204
1.1575941
1.1592104
1.1607617
1.1622399
1.1636362
1.164941
1.1661434
1.1672312
1.1681898
1.1690021
1.1696516
1.1701261
1.1704118
1.1704835
1.170306
1.169842
1.1690509
1.1678897
1.1663186
1.1643046
1.1618365
1.158969
1.1558887
1.1530026
1.1510568
1.1508978
1.1506492
1.1576381
1.1555473
1.1665683
1.0541375
1.0912875
1.0780515
1.0875604
1.0832438
1.0873288
1.0862184
1.0884065
1.0886023
1.0900432
1.0908247
1.0920198
1.0930619
1.0942302
1.0954019
1.0966281
1.0978921
1.0992003
1.100552
1.1019482
1.1033891
1.104875
1.1064057
1.107981
1.1096002
1.1112623
1.1129662
1.1147103
1.1164927
1.1183112
1.1201633
1.1220461
1.1239564
1.1258907
1.1278452
1.1298159
1.1317985
1.1337885
1.1357814
1.1377723
1.1397563
1.1417286
1.1436842
1.1456182
1.1475257
1.1494014
1.15124
1.1530361
1.1547842
1.1564784
1.1581127
1.1596808
1.1611759
1.1625906
1.1639174
1.1651481
1.1662731
1.1672807
1.168157
1.1688873
1.1694591
1.1698602
1.1700733
1.1700711
1.1698206
1.169286
1.1684288
1.1672116
1.1656024
1.1635781
1.1611396
1.1583518
1.1554122
1.1527605
1.1511217
1.1508223
1.1519028
1.1575891
1.1570528
1.1673237
1.051419
1.0888174
1.0751827
1.0850361
1.080567
1.0848518
1.0837164
1.0860266
1.0862647
1.0877921
1.0886516
1.0899274
1.0910604
1.0923169
1.0935852
1.0949092
1.0962757
1.0976896
1.0991502
1.1006582
1.1022134
1.1038159
1.1054649
1.1071599
1.1088996
1.1106828
1.1125075
1.1143717
1.1162728
1.118208
1.1201741
1.1221673
1.1241838
1.1262194
1.1282693
1.1303289
1.1323931
1.1344568
1.1365145
1.138561
1.1405909
1.1425988
1.1445795
1.1465279
1.1484388
1.1503073
1.1521281
1.1538962
1.1556062
1.157253
1.1588311
1.160335
1.1617587
1.1630959
1.1643397
1.1654829
1.166517
1.1674317
1.1682147
1.1688534
1.1693363
1.1696495
1.1697724
1.1696778
1.1693348
1.1687102
1.1677695
1.1664825
1.1648262
1.1627882
1.1603815
1.1576838
1.1549154
1.1525407
1.1511803
1.1511346
1.1530253
1.1582943
1.1584625
1.1682757
1.0489792
1.086571
1.0725032
1.0827511
1.078144
1.0826495
1.0814937
1.0839436
1.0842347
1.0858609
1.0868128
1.088181
1.0894203
1.0907785
1.0921577
1.0935936
1.0950762
1.0966087
1.0981907
1.0998222
1.1015029
1.1032322
1.1050093
1.1068329
1.1087013
1.1106127
1.1125645
1.1145541
1.116578
1.1186327
1.120714
1.1228175
1.1249384
1.1270714
1.1292112
1.1313522
1.1334886
1.1356144
1.1377238
1.1398109
1.1418701
1.1438956
1.1458822
1.1478246
1.149718
1.1515576
1.1533388
1.1550572
1.156708
1.1582869
1.1597893
1.1612107
1.1625462
1.1637904
1.1649375
1.165981
1.1669132
1.1677254
1.1684072
1.1689473
1.1693331
1.1695483
1.1695709
1.1693749
1.1689316
1.1682109
1.1671841
1.165829
1.1641323
1.1620922
1.159732
1.1571414
1.1545634
1.1524689
1.1514055
1.1517343
1.1542293
1.1592711
1.1598686
1.1694562
1.0468685
1.0846727
1.0701192
1.0807512
1.0760456
1.0807913
1.0796337
1.082228
1.0825951
1.084328
1.0853928
1.086865
1.088226
1.0896991
1.0912017
1.0927613
1.094371
1.0960327
1.0977461
1.0995109
1.1013266
1.1031921
1.105106
1.1070665
1.1090714
1.111118
1.1132029
1.1153224
1.1174724
1.1196482
1.1218446
1.1240563
1.1262773
1.1285015
1.1307226
1.1329342
1.1351297
1.1373026
1.1394467
1.1415556
1.1436235
1.1456448
1.1476144
1.1495273
1.1513791
1.1531658
1.1548835
1.1565285
1.1580973
1.1595864
1.1609924
1.1623119
1.1635412
1.1646761
1.1657116
1.1666419
1.1674604
1.1681591
1.1687287
1.169158
1.1694331
1.1695361
1.1694454
1.1691365
1.1685833
1.1677595
1.1666436
1.1652224
1.1634924
1.1614615
1.1591613
1.156693
1.1543205
1.1525229
1.1517898
1.1525605
1.155531
1.1603472
1.1614949
1.1708042
1.0451594
1.0831784
1.0682745
1.0792318
1.0743948
1.0793704
1.0782179
1.0809642
1.0814323
1.0832795
1.0844739
1.0860566
1.0875485
1.0891444
1.090778
1.0924701
1.094216
1.096017
1.0978725
1.0997817
1.1017436
1.1037565
1.1058181
1.1079259
1.1100766
1.1122664
1.1144909
1.1167453
1.1190243
1.1213219
1.1236317
1.1259473
1.1282616
1.1305674
1.1328576
1.135125
1.1373624
1.1395629
1.1417199
1.1438273
1.1458791
1.1478702
1.1497958
1.1516519
1.1534349
1.1551415
1.156769
1.1583149
1.1597769
1.1611528
1.1624404
1.1636376
1.1647418
1.1657499
1.1666581
1.1674612
1.1681531
1.1687261
1.1691712
1.1694765
1.1696274
1.169606
1.1693917
1.1689616
1.1682926
1.167364
1.1661619
1.1646823
1.1629315
1.1609253
1.1587015
1.1563712
1.1542178
1.1527303
1.1523555
1.1535718
1.1569181
1.1615793
1.1632716
1.1723014
1.0438866
1.0821308
1.0668567
1.0781412
1.0732991
1.0784358
1.0773025
1.0802127
1.0807998
1.0827508
1.0840797
1.085774
1.0874045
1.0891336
1.0909106
1.0927497
1.0946474
1.0966039
1.098618
1.1006881
1.1028122
1.1049876
1.107211
1.1094787
1.111786
1.1141278
1.1164985
1.1188918
1.1213008
1.1237184
1.1261367
1.1285481
1.1309442
1.1333172
1.135659
1.1379617
1.140218
1.1424208
1.1445636
1.1466405
1.1486463
1.1505764
1.1524271
1.1541954
1.1558789
1.1574758
1.1589845
1.160404
1.1617333
1.1629718
1.1641185
1.1651725
1.1661326
1.1669965
1.1677614
1.1684226
1.1689743
1.1694087
1.1697163
1.1698849
1.1699
1.1697441
1.169398
1.168841
1.168054
1.1670226
1.1657413
1.1642151
1.1624588
1.1604943
1.1583641
1.1561879
1.1542654
1.1530986
1.1531146
1.1547634
1.1584278
1.162896
1.1651772
1.1739861
1.0429768
1.0814663
1.0658948
1.0775012
1.0725932
1.077962
1.0769302
1.0799613
1.080628
1.0826819
1.084175
1.0860048
1.0877996
1.0896883
1.0916337
1.0936447
1.0957183
1.0978536
1.1000485
1.1023004
1.1046062
1.1069618
1.1093627
1.1118034
1.1142779
1.1167795
1.1193008
1.1218339
1.1243703
1.1269012
1.1294177
1.1319106
1.1343708
1.1367894
1.139158
1.1414685
1.1437135
1.1458863
1.1479809
1.1499923
1.1519164
1.15375
1.1554906
1.1571368
1.1586877
1.1601431
1.1615031
1.1627682
1.1639389
1.1650159
1.1659997
1.1668905
1.1676882
1.1683915
1.1689978
1.169503
1.1699012
1.1701845
1.170343
1.1703645
1.1702346
1.1699372
1.1694543
1.1687685
1.1678657
1.1667383
1.1653889
1.1638312
1.1620868
1.1601821
1.1581633
1.1561576
1.1544755
1.1536283
1.1540355
1.1561189
1.1600515
1.164304
1.1671638
1.1758165
1.0423932
1.0811327
1.0652853
1.0773195
1.0722117
1.0779233
1.0768007
1.0799372
1.0809136
1.0831252
1.0848209
1.0868174
1.088806
1.0908844
1.0930266
1.0952371
1.0975133
1.0998529
1.1022527
1.1047088
1.1072164
1.1097699
1.1123629
1.1149882
1.1176378
1.120303
1.1229746
1.1256426
1.1282969
1.1309272
1.1335233
1.1360748
1.138572
1.1410056
1.1433671
1.1456487
1.1478436
1.1499461
1.1519514
1.153856
1.1556575
1.1573544
1.1589463
1.1604336
1.1618174
1.1630992
1.1642807
1.1653641
1.1663514
1.1672445
1.1680453
1.168755
1.1693742
1.1699022
1.1703367
1.1706737
1.1709071
1.1710289
1.171029
1.1708956
1.1706149
1.1701718
1.169551
1.1687388
1.1677265
1.1665135
1.1651104
1.1635381
1.1618239
1.1599967
1.1581061
1.1562878
1.1548594
1.1543177
1.1550871
1.1575808
1.161751
1.1658515
1.1691811
1.1776086
1.0421994
1.0811926
1.0651009
1.077517
1.0722694
1.0782029
1.0773259
1.0807143
1.0818225
1.0841893
1.0861181
1.0883103
1.0905211
1.0928197
1.0951883
1.0976278
1.1001348
1.1027054
1.1053348
1.1080171
1.1107457
1.1135127
1.1163096
1.1191266
1.1219536
1.1247795
1.1275929
1.1303819
1.1331348
1.1358398
1.1384855
1.1410611
1.1435567
1.1459631
1.1482725
1.1504782
1.1525749
1.1545584
1.1564263
1.1581771
1.1598106
1.1613279
1.1627308
1.1640219
1.1652044
1.1662815
1.1672568
1.1681338
1.1689158
1.1696059
1.1702069
1.1707208
1.1711487
1.17149
1.1717425
1.1719021
1.1719624
1.1719155
1.1717514
1.1714586
1.1710244
1.1704357
1.16968
1.1687479
1.1676364
1.1663515
1.1649107
1.1633414
1.1616741
1.1599396
1.1581911
1.1565739
1.155406
1.1551473
1.1562436
1.1591067
1.1634772
1.167487
1.1711922
1.1792159
1.0424572
1.0817164
1.0653831
1.0781351
1.0729303
1.0792611
1.0785174
1.0820035
1.0834057
1.0859567
1.0881555
1.0905806
1.0930474
1.0956013
1.0982293
1.1009298
1.1036975
1.1065266
1.1094099
1.1123392
1.1153051
1.118297
1.1213033
1.1243117
1.1273092
1.1302822
1.1332171
1.1361003
1.1389184
1.1416587
1.1443096
1.1468602
1.1493014
1.1516251
1.1538253
1.1558974
1.1578385
1.1596473
1.1613241
1.1628703
1.1642888
1.1655831
1.1667577
1.1678173
1.1687672
1.1696123
1.1703577
1.1710079
1.1715673
1.1720398
1.1724289
1.1727368
1.1729647
1.173112
1.1731763
1.173153
1.1730359
1.1728168
1.1724863
1.1720338
1.1714478
1.1707177
1.1698343
1.1687928
1.1675954
1.1662542
1.1647926
1.1632422
1.1616358
1.1600049
1.158407
1.1569956
1.1560802
1.1560837
1.1574794
1.1606676
1.1651785
1.1691183
1.173132
1.1805434
1.0432435
1.0827778
1.0662392
1.0794132
1.0742715
1.0806423
1.0803165
1.0840308
1.0857668
1.088535
1.091042
1.093742
1.0965022
1.0993496
1.1022735
1.1052691
1.1083288
1.1114438
1.1146038
1.117797
1.1210106
1.1242305
1.1274417
1.1306288
1.1337757
1.1368665
1.1398856
1.1428179
1.1456493
1.1483672
1.1509605
1.1534199
1.1557381
1.1579099
1.1599322
1.1618039
1.1635257
1.1650998
1.1665301
1.1678213
1.1689793
1.1700105
1.1709217
1.1717198
1.1724116
1.1730034
1.1735011
1.1739103
1.1742359
1.1744821
1.1746525
1.1747494
1.1747736
1.1747241
1.1745982
1.174391
1.1740962
1.1737059
1.1732113
1.1726029
1.1718712
1.1710082
1.1700082
1.1688708
1.1676031
1.1662222
1.1647558
1.163238
1.161702
1.1601802
1.1587347
1.1575234
1.1568429
1.1570943
1.1587739
1.1622329
1.1668121
1.1706803
1.1749153
1.181575
1.0445841
1.0844144
1.0676749
1.0810786
1.0763046
1.0829671
1.0829651
1.0868734
1.0890073
1.0920366
1.0948944
1.0979183
1.1010163
1.1042012
1.1074618
1.1107893
1.1141725
1.1175981
1.1210518
1.1245173
1.1279776
1.1314144
1.1348092
1.1381431
1.1413974
1.1445542
1.1475966
1.1505093
1.1532789
1.1558945
1.1583474
1.1606317
1.1627442
1.1646837
1.1664518
1.1680519
1.169489
1.1707696
1.1719011
1.1728918
1.1737504
1.1744857
1.1751065
1.1756211
1.1760373
1.1763623
1.1766027
1.176764
1.1768514
1.1768689
1.1768199
1.1767063
1.1765281
1.176284
1.1759706
1.1755829
1.1751146
1.1745584
1.1739062
1.1731502
1.172283
1.1712992
1.170197
1.1689797
1.1676588
1.1662549
1.1647982
1.1633234
1.1618632
1.1604514
1.1591544
1.1581299
1.1576646
1.1581495
1.1600867
1.1637371
1.1682926
1.1721085
1.176471
1.1822898
1.046535
1.0866543
1.0697609
1.0836579
1.0791068
1.0860442
1.0865036
1.0906443
1.0932431
1.0965936
1.0998545
1.1032613
1.1067501
1.110322
1.1139624
1.1176573
1.1213899
1.1251418
1.1288931
1.1326227
1.1363086
1.1399282
1.1434591
1.1468798
1.1501696
1.15331
1.1562848
1.1590808
1.1616878
1.164099
1.166311
1.1683232
1.1701382
1.1717607
1.1731978
1.1744578
1.1755505
1.1764864
1.1772763
1.1779313
1.1784623
1.1788798
1.1791937
1.1794132
1.1795463
1.1796005
1.179582
1.1794965
1.1793484
1.1791415
1.1788783
1.17856
1.1781858
1.1777538
1.17726
1.1766995
1.1760663
1.1753536
1.1745548
1.1736633
1.1726744
1.1715854
1.1703978
1.1691186
1.1677623
1.166352
1.1649182
1.1634946
1.1621136
1.1608115
1.1596577
1.1588042
1.1585302
1.1592263
1.161368
1.1651003
1.1695303
1.1733306
1.1777368
1.1827577
1.0491617
1.0895606
1.0726017
1.0869879
1.0828355
1.0900475
1.0910726
1.0954895
1.0986296
1.1023816
1.1061108
1.1099683
1.1139057
1.1179135
1.1219713
1.1260584
1.1301515
1.1342258
1.1382551
1.1422124
1.1460705
1.1498029
1.1533845
1.1567924
1.1600069
1.1630119
1.1657955
1.1683499
1.1706715
1.1727607
1.1746215
1.1762609
1.1776883
1.1789147
1.1799529
1.1808161
1.1815181
1.1820723
1.1824923
1.1827909
1.1829801
1.1830711
1.1830741
1.182998
1.1828509
1.1826393
1.1823692
1.1820451
1.1816711
1.1812499
1.180783
1.1802707
1.1797113
1.1791023
1.1784395
1.177718
1.1769323
1.1760766
1.1751454
1.1741343
1.1730405
1.1718645
1.1706105
1.1692887
1.1679158
1.1665155
1.1651174
1.163754
1.162458
1.1612693
1.1602584
1.159567
1.1594586
1.1603242
1.162589
1.1662733
1.170478
1.1742801
1.1786998
1.1830365
1.0525182
1.0931698
1.0763416
1.0912185
1.0875922
1.0951121
1.0968465
1.1016207
1.1053908
1.1096398
1.1139093
1.1182838
1.1227215
1.1272022
1.1316982
1.1361803
1.1406173
1.1449763
1.149224
1.1533274
1.1572554
1.1609796
1.1644757
1.167724
1.1707104
1.1734262
1.175868
1.1780378
1.1799416
1.1815894
1.1829938
1.1841698
1.1851336
1.1859022
1.1864926
1.1869217
1.1872059
1.1873605
1.1874001
1.187338
1.1871863
1.1869558
1.186656
1.1862951
1.1858799
1.1854162
1.1849086
1.1843611
1.1837762
1.1831557
1.1825001
1.1818084
1.1810785
1.180307
1.17949
1.1786227
1.1777004
1.1767182
1.1756723
1.17456
1.1733811
1.1721383
1.1708387
1.1694947
1.1681243
1.1667512
1.1654038
1.1641135
1.1629151
1.161852
1.1609923
1.1604614
1.1604991
1.1614825
1.163765
1.1672601
1.1711522
1.1749158
1.1794066
1.1832578
1.0566831
1.097494
1.081117
1.0965002
1.0936074
1.1015037
1.1041046
1.1093363
1.1138221
1.1186613
1.1235359
1.1284814
1.1334539
1.1384216
1.1433459
1.1481867
1.1529023
1.1574512
1.161794
1.1658952
1.1697243
1.1732574
1.1764777
1.1793757
1.181949
1.1842015
1.1861428
1.1877868
1.1891508
1.1902546
1.191119
1.1917657
1.1922162
1.1924911
1.1926103
1.1925924
1.1924543
1.1922117
1.1918788
1.191468
1.1909905
1.1904558
1.189872
1.1892458
1.1885827
1.1878871
1.1871623
1.186411
1.1856346
1.1848336
1.1840073
1.183154
1.1822709
1.1813545
1.1804009
1.1794058
1.1783653
1.1772759
1.1761351
1.1749423
1.1736995
1.1724118
1.1710885
1.1697434
1.1683954
1.1670682
1.1657895
1.1645913
1.1635114
1.162595
1.1619013
1.1615341
1.1617062
1.1627562
1.1649437
1.1681124
1.1716372
1.1753175
1.1799848
1.183592
1.0618684
1.1026786
1.0871784
1.1031811
1.1012262
1.1095659
1.1131845
1.1189761
1.1242518
1.1297669
1.1353015
1.1408521
1.1463641
1.1517886
1.1570723
1.162162
1.1670072
1.1715624
1.1757892
1.1796583
1.18315
1.1862542
1.1889705
1.1913062
1.1932759
1.1948993
1.1961998
1.1972035
1.1979376
1.1984295
1.1987058
1.1987922
1.1987125
1.1984889
1.1981413
1.1976879
1.1971448
1.1965262
1.1958447
1.195111
1.1943343
1.1935224
1.1926813
1.1918162
1.1909307
1.1900279
1.1891098
1.1881775
1.1872315
1.186271
1.1852943
1.1842991
1.1832822
1.1822402
1.1811695
1.1800665
1.1789281
1.1777521
1.1765377
1.1752862
1.1740016
1.1726911
1.1713656
1.1700401
1.1687343
1.1674723
1.1662828
1.1652001
1.1642641
1.1635182
1.1630072
1.1628072
1.1630983
1.1641632
1.166159
1.1688919
1.1720063
1.1756177
1.1804774
1.1840972
1.0683712
1.1092862
1.0949216
1.1116039
1.1108071
1.1196393
1.1244363
1.1309168
1.1370595
1.1433281
1.1495539
1.1556952
1.1616779
1.1674333
1.172895
1.1780039
1.1827114
1.1869811
1.1907901
1.194129
1.1970004
1.1994175
1.2014019
1.2029816
1.2041886
1.2050573
1.2056227
1.2059197
1.2059813
1.2058388
1.205521
1.2050539
1.2044608
1.2037627
1.2029776
1.2021215
1.2012081
1.2002493
1.1992551
1.1982339
1.1971925
1.1961363
1.1950697
1.1939957
1.1929165
1.1918335
1.1907476
1.1896587
1.188566
1.1874679
1.1863619
1.1852454
1.1841151
1.1829678
1.1818004
1.18061
1.1793946
1.178153
1.1768862
1.1755971
1.1742915
1.1729782
1.1716695
1.1703816
1.1691349
1.1679554
1.1668742
1.165928
1.1651567
1.1645973
1.1642749
1.1642335
1.164609
1.1656135
1.1673316
1.1695567
1.1722609
1.1758524
1.1808231
1.1845227
1.0763666
1.1180021
1.1045803
1.1220375
1.1227564
1.1321749
1.138331
1.1456622
1.1527326
1.1597745
1.1666287
1.1732167
1.1794469
1.1852418
1.1905385
1.195292
1.1994764
1.203084
1.2061234
1.2086167
1.2105962
1.2121013
1.2131759
1.2138653
1.214215
1.2142686
1.2140673
1.2136489
1.2130477
1.2122942
1.2114154
1.2104349
1.209373
1.2082472
1.2070724
1.2058612
1.2046241
1.2033699
1.2021059
1.2008376
1.1995697
1.1983052
1.1970464
1.1957948
1.1945511
1.1933155
1.1920875
1.190866
1.1896493
1.1884352
1.1872209
1.1860035
1.1847799
1.1835475
1.1823034
1.1810457
1.179773
1.1784855
1.1771852
1.1758765
1.1745665
1.1732652
1.1719861
1.1707465
1.1695689
1.1684819
1.16752
1.1667203
1.1661181
1.1657372
1.1655772
1.1656447
1.1660241
1.16684
1.1682347
1.1699449
1.1722966
1.1758504
1.1808145
1.1843315
1.0860181
1.128614
1.1168081
1.1350413
1.1377557
1.1479054
1.1555529
1.1638396
1.1717772
1.1794297
1.1866341
1.193294
1.1993254
1.2046728
1.2093074
1.2132261
1.2164475
1.2190074
1.2209541
1.2223436
1.2232354
1.2236898
1.2237654
1.2235172
1.2229957
1.2222464
1.2213099
1.2202216
1.2190122
1.217708
1.2163314
1.2149013
1.2134334
1.2119409
1.2104347
1.2089235
1.2074145
1.2059133
1.2044244
1.2029509
1.2014948
1.2000575
1.1986395
1.1972408
1.1958607
1.1944984
1.1931526
1.1918213
1.1905021
1.1891925
1.1878896
1.1865906
1.1852928
1.1839938
1.1826915
1.1813842
1.1800714
1.1787539
1.1774344
1.1761181
1.1748127
1.1735289
1.172281
1.1710884
1.1699766
1.1689783
1.16813
1.1674656
1.167008
1.1667592
1.1666858
1.1667548
1.1670254
1.1675379
1.1684054
1.1697983
1.1718201
1.1752066
1.1798293
1.1830323
1.0981171
1.1421161
1.1325612
1.1516314
1.1568117
1.1677729
1.1768295
1.1859319
1.1943854
1.2021622
1.2091293
1.2152207
1.2204057
1.2246902
1.2281095
1.2307211
1.2325965
1.2338154
1.2344595
1.2346086
1.2343382
1.2337171
1.2328073
1.2316632
1.2303321
1.2288543
1.2272644
1.2255912
1.2238588
1.2220873
1.2202928
1.2184888
1.216686
1.2148929
1.2131164
1.2113616
1.2096325
1.2079318
1.2062614
1.2046222
1.2030143
1.2014373
1.1998904
1.1983724
1.1968817
1.1954166
1.193975
1.1925544
1.1911522
1.1897656
1.1883919
1.1870285
1.1856732
1.1843237
1.1829782
1.1816354
1.1802949
1.1789576
1.1776263
1.1763056
1.1750029
1.1737288
1.172499
1.1713354
1.1702679
1.1693329
1.1685665
1.1679931
1.167614
1.1674021
1.1673015
1.1672432
1.1672268
1.1672982
1.1676035
1.1686576
1.1703029
1.173334
1.1771828
1.1800366
1.1143168
1.159653
1.1531792
1.1729223
1.1809248
1.1925616
1.2024996
1.2118001
1.2199883
1.2270397
1.2329161
1.2376425
1.241281
1.2439228
1.2456748
1.2466508
1.2469632
1.2467181
1.2460127
1.2449331
1.2435543
1.2419408
1.240147
1.2382184
1.2361928
1.2341012
1.2319689
1.2298164
1.22766
1.2255129
1.2233851
1.2212846
1.2192174
1.2171879
1.2151993
1.2132536
1.2113522
1.2094952
1.2076824
1.2059129
1.2041854
1.2024981
1.2008491
1.1992364
1.1976577
1.1961106
1.1945924
1.1931003
1.1916318
1.1901841
1.1887548
1.1873415
1.185942
1.1845542
1.1831764
1.181807
1.1804451
1.1790911
1.1777463
1.1764139
1.1750998
1.173814
1.1725733
1.1714031
1.1703378
1.1694158
1.1686677
1.168101
1.1676881
1.1673657
1.1670522
1.1666767
1.1662259
1.1658251
1.1657056
1.1662456
1.1676272
1.1698028
1.1725415
1.1747929
1.1361789
1.1825646
1.180127
1.199934
1.2104356
1.2221712
1.231894
1.2402307
1.2470061
1.2522887
1.2561792
1.2588228
1.2603808
1.2610172
1.2608882
1.2601355
1.2588842
1.2572415
1.2552978
1.2531281
1.250794
1.2483457
1.2458235
1.2432598
1.2406803
1.238105
1.2355497
1.2330264
1.2305443
1.2281101
1.2257286
1.2234031
1.2211355
1.218927
1.2167779
1.2146876
1.2126553
1.2106793
1.2087578
1.2068884
1.2050686
1.203296
1.2015678
1.1998813
1.1982337
1.196622
1.1950435
1.1934951
1.1919743
1.1904786
1.1890057
1.1875535
1.1861197
1.1847018
1.1832977
1.181905
1.1805218
1.1791464
1.1777779
1.1764167
1.1750662
1.1737358
1.1724434
1.1712182
1.1700979
1.1691189
1.1683002
1.1676257
1.1670362
1.1664398
1.1657428
1.1648912
1.1639174
1.1629865
1.1624109
1.1625226
1.1634146
1.1647731
1.1662096
1.1676718
1.1664409
1.2116587
1.214476
1.2335635
1.2444051
1.2548341
1.2628665
1.268916
1.2731194
1.275728
1.2769908
1.2771522
1.276432
1.2750216
1.2730819
1.2707456
1.2681199
1.2652908
1.2623264
1.2592802
1.2561936
1.253099
1.2500209
1.2469782
1.2439848
1.2410511
1.2381841
1.2353891
1.2326689
1.2300254
1.2274591
1.2249696
1.2225561
1.2202169
1.2179502
1.2157537
1.2136248
1.2115605
1.2095578
1.2076134
1.2057241
1.2038867
1.202098
1.2003549
1.1986542
1.1969926
1.1953671
1.1937747
1.192213
1.1906797
1.1891726
1.1876894
1.1862275
1.1847839
1.1833553
1.1819379
1.1805279
1.1791209
1.1777122
1.1762986
1.1748809
1.1734675
1.1720787
1.1707471
1.1695109
1.1683997
1.1674149
1.1665133
1.1656078
1.1645921
1.1633865
1.1619845
1.1604857
1.1591063
1.1581453
1.1578484
1.1581654
1.1586735
1.1590476
1.1598058
1.2076266
1.248786
1.2549239
1.27107
1.2807113
1.2879959
1.2926148
1.2951412
1.295956
1.2954441
1.2939208
1.2916471
1.2888301
1.2856322
1.2821784
1.2785644
1.2748622
1.2711264
1.2673974
1.263705
1.2600712
1.2565114
1.2530368
1.2496545
1.2463693
1.2431835
1.2400979
1.2371123
1.2342252
1.2314347
1.2287382
1.2261329
1.2236156
1.2211832
1.2188321
1.2165588
1.2143595
1.2122303
1.2101675
1.2081671
1.2062254
1.2043389
1.202504
1.2007175
1.1989758
1.1972754
1.1956133
1.1939864
1.1923924
1.190829
1.1892939
1.1877845
1.1862976
1.184829
1.183374
1.1819273
1.1804822
1.1790305
1.1775634
1.1760735
1.1745589
1.1730286
1.1715051
1.1700234
1.1686196
1.1673125
1.1660825
1.1648609
1.1635431
1.1620294
1.1602802
1.1583579
1.156428
1.1547238
1.1534807
1.1528243
1.1526157
1.152452
1.1521404
1.152408
1.2578158
1.2921141
1.2997042
1.3100149
1.315182
1.3176383
1.3177989
1.3163458
1.3137353
1.3103307
1.306398
1.3021327
1.2976764
1.2931308
1.2885682
1.28404
1.2795819
1.2752184
1.270966
1.2668351
1.262832
1.2589598
1.2552191
1.2516093
1.2481282
1.2447728
1.2415396
1.2384245
1.2354233
1.2325315
1.2297445
1.2270579
1.2244672
1.2219678
1.2195553
1.2172254
1.2149736
1.2127954
1.2106865
1.2086427
1.20666
1.2047347
1.2028631
1.2010416
1.1992666
1.1975346
1.1958424
1.1941868
1.1925653
1.1909756
1.1894151
1.1878808
1.1863689
1.1848743
1.1833908
1.1819105
1.180423
1.1789162
1.1773765
1.1757927
1.1741614
1.1724923
1.170811
1.1691534
1.1675517
1.166012
1.1644946
1.1629126
1.1611584
1.1591578
1.1569274
1.1545995
1.1523845
1.150494
1.1490677
1.1481226
1.1475107
1.1469496
1.146339
1.1463015
1.3146703
1.3364773
1.3413113
1.3438066
1.3429772
1.340188
1.3360878
1.3311907
1.3258346
1.3202484
1.3145837
1.3089402
1.3033831
1.2979536
1.2926774
1.2875693
1.282637
1.2778831
1.2733072
1.2689065
1.2646767
1.2606127
1.2567089
1.2529591
1.249357
1.2458964
1.2425709
1.2393743
1.2363006
1.2333437
1.230498
1.2277578
1.225118
1.2225732
1.2201185
1.2177491
1.2154599
1.2132463
1.2111037
1.2090278
1.2070144
1.2050596
1.2031599
1.2013114
1.1995105
1.1977536
1.1960373
1.1943582
1.1927136
1.1911011
1.189518
1.1879613
1.186427
1.1849099
1.183401
1.1818878
1.1803574
1.1787948
1.1771826
1.1755052
1.1737574
1.1719514
1.1701148
1.1682838
1.1664861
1.1647168
1.1629217
1.161005
1.1588686
1.1564722
1.1538876
1.1512999
1.1489359
1.1469603
1.1454203
1.1442656
1.1433923
1.1426742
1.1420681
1.1418435
1.3701903
1.3737518
1.3725146
1.3678367
1.3617147
1.3547997
1.3475824
1.3403165
1.3331563
1.3261854
1.3194491
1.3129689
1.3067524
1.3007987
1.2951022
1.2896543
1.2844451
1.2794639
1.2746999
1.2701424
1.2657811
1.2616059
1.2576074
1.2537763
1.250104
1.2465821
1.2432029
1.2399587
1.2368424
1.2338473
1.2309667
1.2281947
1.2255254
1.2229531
1.2204726
1.2180787
1.2157662
1.2135302
1.2113661
1.2092695
1.2072362
1.2052624
1.2033444
1.2014785
1.1996611
1.1978884
1.1961571
1.1944639
1.192806
1.1911807
1.1895845
1.1880139
1.1864648
1.1849297
1.1833936
1.1818479
1.1802834
1.1786821
1.1770207
1.1752787
1.1734449
1.1715338
1.1695751
1.1676058
1.1656514
1.1637007
1.1616926
1.1595276
1.1571175
1.1544541
1.1516488
1.1489176
1.1464842
1.144467
1.1428549
1.1415654
1.1405577
1.1398202
1.1393094
1.1390226
1.4059188
1.3980218
1.3901801
1.3815132
1.3725041
1.3635784
1.3549148
1.3465918
1.33864
1.3310634
1.3238534
1.3169951
1.3104706
1.3042613
1.2983485
1.2927146
1.2873426
1.282217
1.277323
1.272647
1.2681766
1.2639
1.2598063
1.2558854
1.2521278
1.2485246
1.2450674
1.2417484
1.2385599
1.235495
1.2325471
1.2297098
1.2269771
1.2243434
1.2218033
1.2193513
1.2169825
1.2146918
1.2124746
1.2103265
1.2082433
1.2062214
1.2042568
1.202346
1.200485
1.1986702
1.1968979
1.1951653
1.1934695
1.191808
1.1901782
1.1885755
1.186993
1.1854224
1.1838632
1.1823019
1.1807141
1.1790758
1.1773646
1.1755626
1.1736632
1.1716709
1.1696164
1.1675404
1.1654696
1.1633949
1.1612528
1.1589336
1.1563535
1.1535194
1.1505541
1.1477605
1.1452779
1.1431813
1.1415164
1.1401521
1.1390934
1.1383876
1.1379704
1.1376416
1.1547112
1.1589502
1.1736487
1.1859332
1.1914546
1.1926314
1.1926457
1.1922854
1.1923037
1.1919904
1.1917036
1.1911318
1.1905256
1.1898745
1.1891817
1.1884515
1.1876886
1.1868984
1.1860852
1.1852527
1.1844044
1.1835435
1.182673
1.1817953
1.1809129
1.1800281
1.1791428
1.1782589
1.1773782
1.1765025
1.1756333
1.1747722
1.1739209
1.1730807
1.1722534
1.1714404
1.1706433
1.1698636
1.1691028
1.1683626
1.1676445
1.1669499
1.1662805
1.1656379
1.1650236
1.1644394
1.1638872
1.163369
1.1628867
1.1624427
1.1620395
1.1616802
1.1613684
1.1611078
1.1609024
1.1607571
1.160679
1.160677
1.1607632
1.1609521
1.1612616
1.161715
1.1623439
1.1631873
1.1642874
1.1656851
1.1673927
1.1693925
1.1715393
1.1736961
1.1753506
1.1765569
1.1760932
1.1756477
1.1709916
1.1688648
1.1596191
1.1593872
1.1555916
1.1570244
1.1498407
1.1599934
1.1769454
1.1856529
1.1879398
1.1878167
1.1872805
1.1870366
1.186734
1.1864448
1.1860699
1.1856902
1.1852653
1.1848038
1.1843047
1.1837744
1.1832139
1.1826257
1.1820118
1.1813743
1.1807155
1.1800374
1.1793422
1.178632
1.177909
1.1771751
1.1764326
1.1756836
1.17493
1.174174
1.1734175
1.1726625
1.1719111
1.1711653
1.1704269
1.1696981
1.1689808
1.168277
1.1675887
1.1669178
1.1662662
1.165636
1.1650291
1.1644474
1.1638929
1.1633677
1.1628741
1.1624144
1.1619909
1.1616063
1.1612634
1.1609661
1.1607184
1.1605247
1.1603895
1.1603182
1.1603187
1.1604016
1.1605802
1.1608705
1.1612913
1.1618666
1.1626271
1.1636088
1.1648478
1.1663729
1.1681789
1.1702227
1.172338
1.1743634
1.1758002
1.1767027
1.1759197
1.1751944
1.1702806
1.1678823
1.1588267
1.1588481
1.1552775
1.1569901
1.148999
1.1624564
1.1753016
1.1818484
1.182867
1.1824198
1.181966
1.1817415
1.1814901
1.1812423
1.1809473
1.1806431
1.1803056
1.1799527
1.1795727
1.1791715
1.1787471
1.1783007
1.1778328
1.177344
1.1768353
1.1763076
1.175762
1.1751999
1.1746225
1.1740313
1.1734279
1.172814
1.1721912
1.1715615
1.1709266
1.1702885
1.1696492
1.1690107
1.1683753
1.167745
1.167122
1.1665087
1.1659072
1.1653198
1.1647488
1.1641965
1.163665
1.1631568
1.1626742
1.1622198
1.161796
1.1614057
1.1610516
1.1607364
1.1604636
1.1602375
1.1600631
1.1599455
1.1598895
1.159901
1.1599889
1.1601651
1.1604442
1.1608431
1.1613812
1.1620819
1.1629742
1.1640899
1.1654574
1.1670923
1.1689712
1.1710279
1.1730779
1.1749459
1.1761483
1.1767754
1.1756604
1.1746651
1.169516
1.1669239
1.1580583
1.1583276
1.1549697
1.15697
1.1466776
1.1617052
1.1730139
1.1779298
1.1778925
1.1775194
1.1771192
1.1769407
1.1766623
1.1764358
1.1761553
1.1758961
1.1756097
1.1753229
1.175017
1.1747013
1.1743707
1.1740266
1.1736678
1.1732941
1.1729054
1.1725014
1.1720824
1.1716486
1.1712006
1.170739
1.1702646
1.1697786
1.1692821
1.1687765
1.1682632
1.1677438
1.1672203
1.1666943
1.1661681
1.1656436
1.1651231
1.164609
1.1641035
1.1636091
1.1631283
1.1626636
1.1622175
1.1617927
1.1613917
1.1610175
1.160673
1.1603614
1.1600856
1.1598489
1.1596548
1.1595085
1.1594159
1.1593826
1.1594141
1.1595168
1.1597003
1.1599777
1.1603647
1.1608785
1.1615383
1.1623668
1.1633899
1.1646342
1.1661192
1.1678462
1.1697738
1.1718143
1.173769
1.1754558
1.1764211
1.1767701
1.1753889
1.1740612
1.1686972
1.1659773
1.157299
1.1578185
1.154679
1.1569675
1.1416443
1.1587157
1.1690543
1.1726739
1.172231
1.1721229
1.1718011
1.1717415
1.1715272
1.1714017
1.1712007
1.1710366
1.1708375
1.1706466
1.1704368
1.1702215
1.169993
1.1697538
1.1695026
1.1692389
1.1689624
1.1686727
1.1683698
1.1680536
1.1677244
1.1673823
1.167028
1.166662
1.1662851
1.1658984
1.1655029
1.1650999
1.164691
1.1642778
1.1638622
1.163446
1.1630315
1.1626208
1.1622165
1.1618208
1.1614365
1.1610661
1.1607124
1.1603782
1.1600664
1.1597801
1.1595227
1.1592976
1.1591081
1.1589575
1.15885
1.1587912
1.1587879
1.1588467
1.1589733
1.1591747
1.1594612
1.1598468
1.1603474
1.1609804
1.1617643
1.1627198
1.1638695
1.1652334
1.166821
1.1686188
1.1705682
1.1725624
1.1743934
1.1758787
1.1765923
1.1766569
1.1750737
1.1733898
1.1678404
1.165047
1.1565566
1.1573298
1.1543973
1.1569896
1.1358414
1.15556
1.1644234
1.1673553
1.1667676
1.1669057
1.1666322
1.1666993
1.1665474
1.1665244
1.1663995
1.1663289
1.1662134
1.1661128
1.1659914
1.1658679
1.1657316
1.1655864
1.165431
1.165265
1.1650884
1.1649006
1.1647015
1.164491
1.164269
1.1640356
1.163791
1.1635355
1.1632697
1.1629943
1.16271
1.162418
1.1621195
1.1618158
1.1615087
1.1611998
1.1608912
1.160585
1.1602835
1.1599893
1.1597048
1.1594327
1.159176
1.1589375
1.1587203
1.1585279
1.1583637
1.1582315
1.1581348
1.1580771
1.1580629
1.1580984
1.1581912
1.1583487
1.1585773
1.158884
1.1592797
1.1597788
1.1603973
1.1611518
1.1620597
1.1631392
1.1644083
1.1658798
1.1675524
1.1693979
1.1713415
1.1732606
1.1749435
1.1762111
1.1766631
1.1764307
1.1746711
1.1726606
1.1669573
1.1641327
1.1558321
1.156865
1.1541296
1.157039
1.1305106
1.1526571
1.1598621
1.1624168
1.1617233
1.1620585
1.1617976
1.1619701
1.1618585
1.1619198
1.1618569
1.1618707
1.1618291
1.1618026
1.1617521
1.1617047
1.1616463
1.1615822
1.1615099
1.1614296
1.1613407
1.1612428
1.1611357
1.161019
1.1608927
1.1607566
1.1606107
1.1604554
1.1602909
1.1601176
1.1599364
1.1597479
1.1595532
1.1593535
1.1591504
1.1589453
1.1587401
1.1585368
1.1583377
1.1581451
1.1579616
1.1577898
1.1576327
1.1574932
1.1573745
1.1572801
1.1572139
1.1571796
1.1571811
1.1572219
1.1573067
1.1574423
1.1576371
1.157899
1.1582351
1.1586526
1.1591623
1.1597788
1.1605173
1.1613935
1.1624228
1.1636205
1.164999
1.1665634
1.1683008
1.1701692
1.1720794
1.1738965
1.1754119
1.1764526
1.1766632
1.1761428
1.1741704
1.1718803
1.1660573
1.1632354
1.1551278
1.1564267
1.1538797
1.1571131
1.1257459
1.14984
1.1555141
1.1579293
1.1571378
1.157641