/*--------------------------------*- C++ -*----------------------------------*\
  =========                 |
  \\      /  F ield         | OpenFOAM: The Open Source CFD Toolbox
   \\    /   O peration     | Website:  https://openfoam.org
    \\  /    A nd           | Version:  12
     \\/     M anipulation  |
\*---------------------------------------------------------------------------*/
FoamFile
{
    format      ascii;
    class       volScalarField;
    location    "0.1";
    object      Ma;
}
// * * * * * * * * * * * * * * * * * * * * * * * * * * * * * * * * * * * * * //

dimensions      [];

internalField   nonuniform List<scalar> 
16000
(
0.62760815
0.74538582
0.70044956
0.72502501
0.7099981
0.71690803
0.71121192
0.7127172
0.710072
0.70961962
0.7079932
0.70685274
0.70543339
0.70404757
0.70257928
0.70106424
0.69949122
0.69786182
0.6961748
0.6944297
0.69262612
0.69076393
0.68884321
0.68686437
0.68482808
0.68273537
0.68058763
0.67838663
0.67613454
0.67383394
0.67148785
0.6690997
0.66667336
0.66421311
0.66172362
0.65920994
0.65667743
0.65413177
0.65157885
0.64902474
0.64647564
0.64393775
0.64141729
0.63892031
0.6364527
0.6340201
0.63162779
0.62928066
0.62698316
0.62473923
0.62255227
0.62042516
0.61836019
0.61635911
0.61442316
0.6125531
0.61074923
0.60901147
0.60733934
0.60573179
0.60418718
0.60270356
0.60127856
0.59990926
0.5985922
0.5973233
0.59609734
0.59490739
0.59374457
0.59259852
0.59145846
0.59031369
0.58915246
0.58796038
0.58672235
0.58542255
0.58402258
0.58273826
0.58063939
0.58013004
0.63209664
0.75062403
0.70399992
0.72968709
0.71383532
0.72121125
0.71506805
0.71669314
0.71386554
0.71334135
0.71162739
0.71037129
0.70886039
0.70736017
0.70578294
0.70415093
0.70245829
0.70070492
0.69889021
0.69701376
0.69507544
0.69307538
0.69101403
0.68889218
0.68671097
0.68447193
0.68217702
0.67982862
0.67742954
0.67498308
0.67249298
0.66996344
0.6673991
0.66480502
0.66218666
0.65954982
0.65690059
0.65424532
0.6515905
0.64894274
0.64630864
0.64369475
0.64110746
0.63855292
0.63603697
0.63356506
0.6311422
0.62877289
0.62646106
0.62421009
0.62202275
0.6199012
0.61784702
0.61586125
0.61394439
0.61209647
0.61031713
0.60860565
0.60696095
0.60538152
0.60386531
0.6024099
0.60101262
0.59967027
0.59837923
0.59713529
0.59593322
0.59476608
0.59362485
0.59249876
0.59137651
0.59024695
0.58909801
0.58791462
0.58667965
0.58537728
0.58400854
0.58257268
0.58080035
0.5798251
0.63630406
0.75542971
0.70749636
0.73376651
0.71745799
0.72493569
0.71863291
0.72014617
0.71726279
0.71658123
0.71479837
0.71340378
0.71178787
0.71016018
0.70845773
0.70669403
0.70486576
0.70297258
0.70101413
0.69899034
0.69690141
0.69474789
0.69253067
0.69025105
0.68791074
0.68551192
0.6830572
0.6805497
0.67799306
0.6753914
0.67274933
0.67007199
0.66736493
0.66463415
0.66188601
0.65912717
0.65636456
0.65360524
0.65085634
0.64812499
0.64541818
0.64274269
0.640105
0.6375112
0.63496692
0.63247725
0.63004669
0.62767912
0.62537778
0.62314523
0.62098337
0.61889347
0.61687621
0.6149317
0.61305955
0.61125896
0.60952877
0.60786752
0.60627345
0.6047445
0.60327809
0.60187138
0.60052131
0.59922439
0.59797679
0.59677416
0.59561122
0.59448103
0.59337446
0.59228048
0.5911874
0.59008381
0.58895734
0.58779217
0.5865709
0.58528204
0.58392235
0.58244281
0.58082673
0.57963425
0.64014888
0.75982103
0.71057163
0.73733251
0.720618
0.72820296
0.72173505
0.72311714
0.72016982
0.71931155
0.71744566
0.71589652
0.71415762
0.71238629
0.7105411
0.70862884
0.70664819
0.70459878
0.70248061
0.70029395
0.69803943
0.69571805
0.69333125
0.69088092
0.68836946
0.68579979
0.68317536
0.68050022
0.67777894
0.6750167
0.67221917
0.66939255
0.6665435
0.66367906
0.6608066
0.65793373
0.6550682
0.65221777
0.64939016
0.64659288
0.64383317
0.64111785
0.63845328
0.63584523
0.63329884
0.63081856
0.62840814
0.62607055
0.62380806
0.62162219
0.61951376
0.61748297
0.61552938
0.61365208
0.6118497
0.61012049
0.60846244
0.6068733
0.60535064
0.6038918
0.60249372
0.60115313
0.59986661
0.59863042
0.59744051
0.59629249
0.59518106
0.59409934
0.59303818
0.59198635
0.59093184
0.58986299
0.5887671
0.58762781
0.58642866
0.5851602
0.58380859
0.58233064
0.58080548
0.57945362
0.64361451
0.76372421
0.71337384
0.74026875
0.72316101
0.7309058
0.72432016
0.72551247
0.72251834
0.72144957
0.71948984
0.71776838
0.71588793
0.7139573
0.71195237
0.7098755
0.7077264
0.70550486
0.70321118
0.700846
0.69841042
0.69590602
0.69333491
0.69069979
0.68800393
0.68525126
0.68244634
0.67959438
0.67670119
0.67377322
0.67081744
0.66784135
0.66485284
0.66186015
0.65887172
0.65589612
0.6529419
0.65001744
0.64713087
0.64428991
0.64150179
0.6387731
0.63610974
0.63351685
0.63099875
0.62855894
0.62620004
0.62392386
0.62173139
0.61962288
0.61759786
0.61565525
0.61379343
0.61201031
0.61030345
0.60867015
0.6071075
0.60561249
0.60418202
0.60281285
0.60150149
0.60024428
0.59903748
0.59787715
0.59675911
0.59567889
0.59463128
0.59360949
0.59260442
0.59160474
0.59059824
0.58957304
0.58851608
0.58741105
0.58624284
0.5850011
0.58366465
0.58221216
0.58074713
0.57929727
0.646652
0.76705789
0.71571592
0.74274912
0.725364
0.73296518
0.72624905
0.7272541
0.72421392
0.72292256
0.72085685
0.71895224
0.71691433
0.71481148
0.71263153
0.71037449
0.7080405
0.70562973
0.70314292
0.70058134
0.69794682
0.69524182
0.69246946
0.68963357
0.68673868
0.68379008
0.68079376
0.67775642
0.67468543
0.67158878
0.66847498
0.66535298
0.66223206
0.65912168
0.65603139
0.65297059
0.64994849
0.64697386
0.64405498
0.64119943
0.63841405
0.6357048
0.63307673
0.63053391
0.62807943
0.62571544
0.62344311
0.62126274
0.6191738
0.61717503
0.6152645
0.61343973
0.61169781
0.61003545
0.60844914
0.60693523
0.60548997
0.60410963
0.6027905
0.60152886
0.60032084
0.5991625
0.59804988
0.59697888
0.59594527
0.59494459
0.59397172
0.59302006
0.59208063
0.5911421
0.59019216
0.5892187
0.58820841
0.58714555
0.58601623
0.58480713
0.58349407
0.58208078
0.58066723
0.57914521
0.64923371
0.76980524
0.71760651
0.74473462
0.72710201
0.73436306
0.72768322
0.72831129
0.72528464
0.72371105
0.72152509
0.71942626
0.71721094
0.71491731
0.71254086
0.71008111
0.70753876
0.70491478
0.70221077
0.69942901
0.69657248
0.69364491
0.69065085
0.68759566
0.68448554
0.68132749
0.67812931
0.67489955
0.67164743
0.6683827
0.66511561
0.66185666
0.65861654
0.6554059
0.65223517
0.64911442
0.64605316
0.6430602
0.64014348
0.63731
0.63456567
0.6319153
0.62936258
0.62691001
0.62455901
0.62230994
0.62016219
0.61811425
0.61616383
0.61430801
0.61254329
0.61086574
0.60927114
0.60775506
0.60631296
0.60494032
0.60363268
0.60238568
0.60119513
0.60005695
0.598967
0.59792117
0.59691538
0.59594551
0.59500732
0.59409644
0.59320792
0.59233537
0.59147004
0.59060071
0.58971503
0.58880067
0.58784424
0.58683112
0.58574803
0.58457739
0.58329613
0.58193344
0.58056907
0.57899307
0.65140338
0.77199818
0.7190877
0.74625527
0.72842837
0.73533267
0.72862158
0.72912435
0.72568727
0.72383845
0.72149612
0.71917655
0.71674922
0.71423273
0.71162676
0.70893152
0.70614849
0.70327974
0.70032806
0.6972971
0.69419135
0.69101627
0.68777822
0.68448455
0.6811435
0.67776425
0.67435677
0.67093177
0.66750055
0.66407486
0.66066669
0.65728813
0.6539511
0.65066719
0.6474474
0.64430199
0.64124027
0.63827048
0.63539962
0.63263341
0.62997621
0.62743106
0.62499964
0.62268239
0.62047858
0.6183864
0.61640314
0.61452528
0.61274863
0.61106853
0.6094799
0.60797744
0.6065557
0.6052092
0.60393256
0.60272053
0.60156808
0.60047044
0.59942307
0.59842167
0.597462
0.59653991
0.59565134
0.59479222
0.59395845
0.5931458
0.59234953
0.59156355
0.59077937
0.58998603
0.58917122
0.58832234
0.58742622
0.58646971
0.58543932
0.58431244
0.58307118
0.58176919
0.5804535
0.5788367
0.65322866
0.77366473
0.72011577
0.74730818
0.72909751
0.7353494
0.72873498
0.72843347
0.72538702
0.72324956
0.72070155
0.71812503
0.71544357
0.71266484
0.70979032
0.70682144
0.70376073
0.70061164
0.6973786
0.69406705
0.69068353
0.68723568
0.68373225
0.68018306
0.67659894
0.67299165
0.66937372
0.66575831
0.66215895
0.65858942
0.65506339
0.65159425
0.64819482
0.64487711
0.64165208
0.63852948
0.63551765
0.63262341
0.62985201
0.62720708
0.62469065
0.62230325
0.62004401
0.61791075
0.61590018
0.61400808
0.61222943
0.6105586
0.60898954
0.60751588
0.60613111
0.60482871
0.6036022
0.60244531
0.60135198
0.60031649
0.59933347
0.5983979
0.59750512
0.59665078
0.5958307
0.59504083
0.59427728
0.59353617
0.59281358
0.59210554
0.59140757
0.59071387
0.59001637
0.58930445
0.58856587
0.58778776
0.58695752
0.5860637
0.58509145
0.5840131
0.58281989
0.58158683
0.58031901
0.57867509
0.65470619
0.77477716
0.7206171
0.74768739
0.7290426
0.73482842
0.72824991
0.7275675
0.72431177
0.72182291
0.71901958
0.71614868
0.71316976
0.71008648
0.70690137
0.70361762
0.70023943
0.69677226
0.69322276
0.68959888
0.68590988
0.68216627
0.67837987
0.67456361
0.67073143
0.66689813
0.66307908
0.65929004
0.65554677
0.65186484
0.64825923
0.64474409
0.64133241
0.63803578
0.63486417
0.63182576
0.62892687
0.62617186
0.6235632
0.6211015
0.61878568
0.61661309
0.61457975
0.61268051
0.61090931
0.60925935
0.60772336
0.60629369
0.60496258
0.60372222
0.60256492
0.60148323
0.60046995
0.59951827
0.59862181
0.59777462
0.59697122
0.5962066
0.59547618
0.59477574
0.59410131
0.59344913
0.59281558
0.59219709
0.59159006
0.59099078
0.59039508
0.58979753
0.58919054
0.58856395
0.58790555
0.58720232
0.58644257
0.58561647
0.58470666
0.58368131
0.58254432
0.58138599
0.58016287
0.57850748
0.65577191
0.77523054
0.72051254
0.74652238
0.72821338
0.7334568
0.72697159
0.72569017
0.72230702
0.71944135
0.71632533
0.71311447
0.70978902
0.706353
0.70281024
0.69916627
0.69542775
0.69160292
0.68770155
0.68373498
0.67971606
0.6756591
0.67157972
0.66749463
0.66342137
0.65937807
0.65538305
0.65145449
0.64761003
0.64386643
0.64023915
0.63674205
0.63338713
0.63018423
0.62714096
0.62426257
0.62155202
0.61901
0.61663512
0.61442413
0.6123721
0.61047276
0.6087187
0.60710169
0.6056129
0.60424317
0.60298316
0.60182356
0.60075524
0.59976936
0.59885744
0.59801147
0.59722394
0.59648785
0.59579678
0.59514488
0.59452682
0.59393784
0.59337361
0.59283025
0.59230416
0.59179196
0.59129048
0.59079653
0.59030689
0.5898182
0.58932663
0.58882715
0.58831273
0.58777373
0.58719799
0.58657249
0.58588678
0.5851322
0.58428799
0.58332015
0.5822479
0.58116817
0.57998356
0.57833451
0.65633506
0.77485967
0.71968937
0.74471671
0.7267681
0.7311641
0.72475549
0.72286719
0.71925013
0.71596749
0.71247492
0.70886913
0.70514107
0.70129745
0.69734437
0.69329055
0.68914624
0.68492366
0.68063689
0.67630184
0.67193607
0.66755861
0.66318961
0.65885007
0.65456141
0.65034504
0.64622186
0.64221185
0.63833355
0.63460366
0.63103662
0.62764436
0.62443604
0.62141798
0.61859365
0.6159638
0.61352659
0.61127789
0.60921158
0.6073199
0.60559375
0.60402307
0.60259714
0.60130487
0.60013504
0.59907653
0.59811846
0.59725038
0.59646231
0.59574487
0.59508931
0.5944875
0.59393201
0.59341604
0.59293347
0.59247881
0.59204715
0.59163415
0.59123598
0.5908492
0.59047072
0.59009769
0.58972741
0.58935721
0.58898431
0.58860574
0.58821802
0.58781657
0.58739498
0.58694414
0.586452
0.58590579
0.58529649
0.58461582
0.58383927
0.58293366
0.58193466
0.58093535
0.57978042
0.57816224
0.65633481
0.7735921
0.71801184
0.74215834
0.72444321
0.72785063
0.721477
0.71892684
0.71499377
0.71124281
0.70730121
0.70323393
0.69903767
0.69472337
0.69030106
0.68578417
0.68118816
0.67653081
0.67183202
0.66711358
0.66239884
0.6577123
0.65307917
0.64852487
0.64407438
0.6397517
0.63557923
0.63157719
0.62776311
0.62415145
0.62075328
0.61757616
0.61462413
0.61189783
0.60939475
0.60710956
0.60503453
0.60315994
0.60147453
0.59996591
0.59862098
0.59742629
0.5963683
0.59543368
0.59460952
0.59388342
0.59324369
0.59267936
0.59218028
0.59173707
0.5913412
0.59098493
0.59066127
0.590364
0.59008757
0.5898271
0.58957832
0.58933751
0.58910144
0.58886725
0.58863244
0.58839476
0.5881521
0.58790231
0.58764314
0.587372
0.58708579
0.58678043
0.58645016
0.58608637
0.58567724
0.58521068
0.58467891
0.58407296
0.58336502
0.58252655
0.58160851
0.58068896
0.57955808
0.5779859
0.65575183
0.77132929
0.71541016
0.73850945
0.7211068
0.72340201
0.71698688
0.71372366
0.70936343
0.70507258
0.70059655
0.69598705
0.69124602
0.68639034
0.68143637
0.67640431
0.67131679
0.66619897
0.66107804
0.65598285
0.65094332
0.64598986
0.64115259
0.63646061
0.63194121
0.62761905
0.62351557
0.61964837
0.61603083
0.61267193
0.60957626
0.60674415
0.60417205
0.60185293
0.59977687
0.59793155
0.59630288
0.59487552
0.59363338
0.59256005
0.59163917
0.59085478
0.59019146
0.58963461
0.58917049
0.58878636
0.58847045
0.58821204
0.58800139
0.58782974
0.58768923
0.58757291
0.5874746
0.58738893
0.58731116
0.58723724
0.58716367
0.58708746
0.58700609
0.58691738
0.58681944
0.58671068
0.5865896
0.58645463
0.58630402
0.58613562
0.58594673
0.58573378
0.58549161
0.58521213
0.58488405
0.58449633
0.58404195
0.58350987
0.58287041
0.58210429
0.58127406
0.58042963
0.57931615
0.57780821
0.65452722
0.76790005
0.71183116
0.73368343
0.71659675
0.71764926
0.71108447
0.70703996
0.70212483
0.69719888
0.69208818
0.68684315
0.68147361
0.6760047
0.67046179
0.66487418
0.65927375
0.65369468
0.64817281
0.64274485
0.63744748
0.63231635
0.62738501
0.62268389
0.61823934
0.6140729
0.61020077
0.60663356
0.60337628
0.60042861
0.59778538
0.59543716
0.59337097
0.59157106
0.59001964
0.58869754
0.58758489
0.58666161
0.58590792
0.58530462
0.58483339
0.584477
0.58421939
0.58404576
0.58394261
0.5838977
0.5839
0.58393967
0.58400799
0.58409725
0.5842007
0.58431245
0.58442744
0.5845413
0.58465033
0.58475137
0.58484181
0.58491947
0.58498257
0.58502962
0.58505939
0.58507094
0.58506337
0.58503571
0.5849867
0.58491464
0.58481726
0.58469149
0.5845327
0.58433336
0.58408313
0.5837724
0.583394
0.58293345
0.58236148
0.58167299
0.58093668
0.58015941
0.57905476
0.5776299
0.65260646
0.76306606
0.70731909
0.72748946
0.71070637
0.71036674
0.70350005
0.698578
0.69295866
0.68727969
0.68142309
0.67544503
0.66936689
0.66322469
0.65705554
0.65090035
0.64480234
0.63880635
0.63295756
0.62730018
0.62187596
0.61672282
0.61187347
0.60735446
0.60318542
0.59937873
0.59593964
0.59286659
0.59015191
0.58778273
0.58574188
0.58400895
0.58256126
0.58137471
0.58042464
0.57968643
0.57913605
0.57875045
0.57850787
0.57838804
0.57837224
0.57844341
0.57858611
0.57878646
0.5790321
0.57931209
0.5796168
0.57993783
0.58026786
0.58060062
0.5809307
0.58125353
0.58156526
0.58186269
0.58214318
0.58240457
0.58264514
0.58286354
0.58305871
0.58322986
0.58337642
0.58349803
0.58359438
0.58366505
0.58370929
0.58372585
0.58371289
0.58366781
0.5835864
0.58346182
0.58328521
0.58304857
0.58274352
0.58235119
0.58184526
0.58123865
0.58060072
0.57988274
0.57877961
0.5774536
0.64993148
0.75643811
0.70175421
0.71966327
0.7031269
0.701208
0.6938456
0.68792402
0.68144085
0.6748815
0.66816991
0.66137201
0.65452526
0.64768017
0.6408892
0.63420783
0.62769246
0.62139873
0.61537937
0.60968222
0.60434837
0.59941077
0.59489324
0.59081012
0.58716638
0.58395834
0.58117458
0.57879722
0.57680329
0.57516606
0.57385636
0.57284375
0.57209744
0.57158715
0.57128368
0.57115938
0.57118846
0.57134714
0.57161372
0.57196865
0.57239438
0.57287535
0.57339782
0.57394976
0.57452069
0.57510157
0.5756846
0.57626317
0.57683165
0.57738536
0.5779204
0.57843358
0.57892232
0.57938461
0.57981889
0.58022397
0.58059902
0.58094345
0.58125691
0.58153926
0.58179051
0.58201086
0.58220053
0.5823596
0.58248778
0.5825843
0.58264777
0.58267594
0.58266497
0.58260887
0.58250073
0.58233415
0.58209866
0.58177095
0.58132986
0.58080702
0.58026804
0.57960612
0.57850615
0.57727528
0.64636707
0.74734863
0.69452533
0.70975286
0.69340169
0.68969763
0.68161547
0.67456103
0.66705643
0.65949254
0.65183212
0.64415625
0.63652499
0.62900891
0.6216795
0.614608
0.6078621
0.60150311
0.59558331
0.59014395
0.58521403
0.58080985
0.57693539
0.57358333
0.57073659
0.56837011
0.56645277
0.56494927
0.56382185
0.56303175
0.56254045
0.5623106
0.56230674
0.56249574
0.5628471
0.56333307
0.56392868
0.56461165
0.56536227
0.56616326
0.56699953
0.56785803
0.56872754
0.56959847
0.57046268
0.57131334
0.57214476
0.57295222
0.57373192
0.57448078
0.57519642
0.57587702
0.57652125
0.57712821
0.57769736
0.57822844
0.57872141
0.57917641
0.57959372
0.57997375
0.58031709
0.58062436
0.58089626
0.58113328
0.5813356
0.58150291
0.58163426
0.58172767
0.58177959
0.58178514
0.58173954
0.58163774
0.58146681
0.58120035
0.58082405
0.5803846
0.57993844
0.57933067
0.57824731
0.57709146
0.64162539
0.73581135
0.68520357
0.6971975
0.68095129
0.67527428
0.666208
0.65786899
0.64919032
0.64051476
0.63185268
0.623309
0.61497315
0.60693874
0.59929414
0.59211933
0.58548176
0.5794337
0.57401051
0.56923031
0.56509472
0.56159056
0.55869218
0.55636409
0.5545638
0.55324425
0.55235622
0.55185016
0.55167769
0.55179273
0.5521522
0.55271652
0.55344979
0.55431983
0.5552981
0.55635951
0.55748215
0.55864707
0.55983797
0.56104092
0.56224413
0.56343765
0.56461319
0.56576389
0.56688413
0.56796938
0.56901605
0.57002133
0.57098314
0.57189998
0.57277087
0.57359525
0.57437295
0.57510407
0.57578899
0.57642827
0.57702257
0.57757268
0.57807942
0.57854369
0.57896651
0.57934892
0.57969195
0.57999646
0.58026307
0.5804919
0.58068239
0.58083279
0.58093991
0.58100005
0.58101047
0.58096684
0.58085418
0.58064571
0.58033547
0.57997821
0.57961229
0.57904984
0.57799813
0.57693593
0.63534739
0.72282675
0.67322977
0.68140851
0.66505671
0.65721558
0.64685408
0.63705981
0.6270897
0.61726985
0.60767058
0.5984262
0.58965258
0.58145635
0.57392594
0.56712842
0.5611071
0.55588144
0.55144845
0.54778553
0.5448541
0.54260356
0.54097525
0.53990603
0.53933131
0.53918744
0.53941354
0.5399527
0.54075273
0.54176648
0.54295199
0.54427223
0.54569492
0.54719212
0.54873985
0.55031769
0.55190833
0.55349725
0.55507234
0.55662358
0.55814278
0.55962329
0.56105981
0.56244819
0.56378526
0.56506866
0.56629677
0.56746854
0.56858345
0.5696414
0.57064266
0.57158778
0.57247758
0.57331306
0.57409536
0.57482573
0.57550546
0.57613585
0.57671821
0.57725384
0.5777441
0.57819034
0.57859384
0.57895578
0.57927714
0.57955847
0.57979955
0.57999884
0.58015364
0.58026148
0.58032103
0.58032793
0.58026605
0.58011166
0.5798684
0.5795916
0.57929339
0.57876566
0.57775957
0.57680928
0.6272056
0.70583677
0.65776822
0.66149754
0.64467228
0.63446143
0.62252074
0.61116843
0.59993802
0.58915022
0.57893181
0.56943327
0.56077153
0.55303438
0.54627517
0.54051368
0.53573865
0.5319125
0.52897701
0.5268594
0.52547803
0.52474742
0.52458229
0.52490054
0.5256254
0.52668666
0.52802123
0.52957334
0.53129426
0.53314189
0.53508019
0.53707856
0.53911124
0.54115668
0.54319698
0.54521742
0.54720597
0.54915293
0.55105053
0.55289268
0.5546747
0.55639306
0.55804527
0.55962963
0.56114516
0.56259146
0.5639686
0.56527707
0.56651767
0.56769151
0.56879989
0.56984431
0.5708264
0.57174789
0.57261058
0.57341627
0.57416675
0.57486375
0.57550899
0.57610408
0.57665065
0.57715024
0.57760435
0.5780144
0.57838165
0.57870701
0.57899055
0.57923105
0.57942651
0.57957555
0.57967741
0.57972684
0.57970764
0.57960238
0.57942516
0.57922627
0.5789858
0.57848302
0.57753265
0.57671768
0.61655231
0.68386185
0.63742168
0.63604728
0.61832225
0.60562312
0.59203494
0.57929025
0.56717225
0.55597806
0.54584931
0.5369069
0.52921656
0.52279685
0.5176222
0.51363119
0.51073554
0.50882946
0.50779813
0.50752475
0.50789591
0.50880527
0.51015589
0.51186122
0.51384546
0.51604309
0.51839823
0.52086366
0.52339988
0.52597411
0.52855935
0.53113354
0.53367882
0.53618084
0.53862822
0.54101206
0.54332552
0.54556345
0.54772215
0.54979909
0.5517927
0.55370222
0.55552752
0.55726904
0.55892764
0.56050453
0.5620012
0.56341939
0.56476099
0.56602807
0.56722278
0.56834736
0.56940409
0.57039528
0.57132323
0.5721902
0.57299836
0.5737498
0.57444653
0.57509046
0.57568336
0.57622694
0.57672284
0.57717264
0.57757782
0.57793954
0.57825812
0.57853282
0.5787625
0.5789467
0.57908448
0.57916914
0.5791855
0.57912404
0.57900822
0.57888018
0.57869095
0.57821591
0.5773328
0.57666474
0.60223466
0.6547974
0.61027153
0.6032995
0.58439679
0.56932323
0.55450739
0.5410701
0.52897604
0.5184416
0.50953931
0.5022863
0.4966323
0.49247781
0.48968755
0.48810565
0.48756837
0.48791422
0.48899107
0.49066047
0.49279983
0.4953029
0.49807916
0.50105259
0.5041601
0.50734986
0.51057965
0.51381543
0.51702992
0.52020153
0.5233133
0.52635213
0.52930802
0.53217357
0.53494343
0.53761396
0.54018288
0.54264904
0.54501215
0.54727267
0.54943161
0.55149046
0.55345104
0.55531547
0.55708609
0.55876538
0.56035595
0.56186051
0.56328181
0.56462264
0.56588582
0.56707414
0.56819038
0.5692373
0.57021756
0.57113377
0.57198839
0.5727838
0.57352223
0.57420578
0.5748364
0.57541588
0.57594595
0.57642828
0.5768645
0.57725589
0.57760302
0.57790574
0.57816387
0.57837759
0.57854534
0.57865929
0.57870628
0.57868433
0.57862223
0.57855178
0.57840635
0.57797769
0.57719444
0.57662979
0.58227802
0.61629661
0.5741271
0.56145395
0.54187905
0.52486345
0.50997126
0.49726575
0.48671473
0.47836095
0.47210688
0.46779263
0.46520678
0.46411492
0.46427882
0.46547153
0.46748657
0.47014253
0.47328435
0.47678225
0.48052944
0.48443927
0.48844225
0.49248323
0.49651884
0.50051535
0.5044468
0.50829349
0.51204069
0.51567769
0.51919692
0.52259333
0.52586386
0.52900699
0.53202246
0.53491096
0.5376739
0.54031331
0.54283163
0.54523165
0.54751639
0.54968905
0.55175295
0.55371151
0.55556815
0.55732633
0.55898949
0.56056107
0.56204444
0.56344295
0.56475987
0.56599843
0.56716174
0.56825288
0.56927478
0.57023029
0.57112211
0.5719528
0.57272479
0.57344033
0.57410148
0.57471011
0.57526801
0.57577691
0.57623846
0.57665398
0.57702428
0.57734984
0.57763131
0.57786926
0.57806148
0.57819991
0.57827459
0.57828971
0.57827444
0.57824764
0.57813281
0.57775102
0.57708432
0.57666464
0.55406952
0.56585306
0.52763275
0.50916238
0.48849022
0.47299317
0.45999584
0.45009829
0.44303577
0.43856502
0.43633937
0.43599496
0.43717367
0.4395487
0.44283508
0.44679333
0.45122759
0.45598106
0.46093029
0.46597948
0.47105515
0.47610166
0.48107736
0.48595154
0.490702
0.4953131
0.49977424
0.5040787
0.50822271
0.51220475
0.51602499
0.51968491
0.52318692
0.52653413
0.52973018
0.53277904
0.53568495
0.53845228
0.5410855
0.54358911
0.54596761
0.54822546
0.55036705
0.55239671
0.55431869
0.55613711
0.55785601
0.55947934
0.56101092
0.56245448
0.56381361
0.56509182
0.56629247
0.56741884
0.56847405
0.56946111
0.57038286
0.57124202
0.57204116
0.57278264
0.57346861
0.57410104
0.57468176
0.57521253
0.57569494
0.57613031
0.57651966
0.576864
0.57716458
0.57742202
0.57763378
0.57779272
0.57789283
0.57794264
0.57796813
0.577976
0.57788892
0.57756313
0.57701873
0.57672473
0.51349306
0.50092957
0.46367218
0.44575364
0.42831455
0.4161001
0.40778224
0.40314475
0.40153313
0.40236083
0.40505849
0.40913861
0.41419859
0.41991977
0.4260565
0.43242362
0.43888392
0.44533735
0.45171207
0.45795746
0.46403867
0.46993249
0.47562432
0.4811058
0.48637316
0.49142591
0.49626594
0.50089678
0.50532312
0.50955044
0.51358471
0.51743219
0.52109931
0.5245925
0.52791819
0.53108271
0.53409225
0.53695286
0.53967041
0.54225058
0.54469889
0.54702066
0.54922103
0.55130494
0.55327718
0.55514235
0.55690489
0.55856907
0.56013901
0.5616187
0.56301194
0.56432241
0.56555364
0.56670901
0.56779178
0.56880502
0.5697517
0.57063463
0.57145646
0.57221964
0.57292641
0.57357883
0.5741788
0.57472806
0.57522817
0.57568044
0.57608606
0.57644637
0.57676284
0.57703603
0.57726358
0.57744029
0.57756396
0.57764463
0.5777017
0.577732
0.57766804
0.57740999
0.5770039
0.57682312
0.45162244
0.41902892
0.38930961
0.37445114
0.36360772
0.35880344
0.35823765
0.36099075
0.3660707
0.37271718
0.38034432
0.38852722
0.39696518
0.40545092
0.41384469
0.4220546
0.43002227
0.43771249
0.44510599
0.45219435
0.45897644
0.46545599
0.47163989
0.47753698
0.48315727
0.48851136
0.49361008
0.49846422
0.50308439
0.50748087
0.51166358
0.51564204
0.51942536
0.52302221
0.52644086
0.52968919
0.53277467
0.53570444
0.53848528
0.54112366
0.54362573
0.54599737
0.54824417
0.55037151
0.55238448
0.55428799
0.55608673
0.55778517
0.55938763
0.56089822
0.56232089
0.56365942
0.56491742
0.56609834
0.56720549
0.56824201
0.56921089
0.570115
0.57095704
0.57173951
0.57246473
0.57313485
0.57375181
0.5743174
0.57483318
0.57530052
0.57572074
0.57609531
0.57642565
0.57671222
0.57695344
0.57714652
0.57729197
0.57739858
0.57747837
0.57752373
0.5774846
0.57729964
0.57701707
0.57689941
0.35580671
0.32231471
0.30469282
0.30020929
0.30159283
0.30786151
0.31703666
0.32785177
0.3394327
0.35122774
0.36290091
0.37425603
0.38518532
0.39563569
0.40558746
0.415041
0.42400833
0.43250795
0.44056162
0.44819239
0.45542339
0.46227717
0.46877527
0.47493805
0.48078458
0.4863327
0.49159897
0.49659882
0.50134656
0.50585552
0.51013806
0.51420573
0.51806927
0.52173872
0.52522348
0.52853235
0.5316736
0.53465501
0.53748389
0.54016718
0.5427114
0.54512276
0.54740712
0.54957008
0.55161694
0.55355277
0.55538237
0.55711037
0.55874116
0.56027893
0.56172771
0.56309132
0.5643734
0.56557745
0.56670678
0.56776454
0.56875376
0.56967729
0.57053786
0.57133798
0.57208004
0.5727662
0.57339848
0.57397872
0.57450855
0.57498949
0.57542298
0.57581049
0.57615332
0.57645196
0.57670579
0.57691403
0.57707837
0.57720485
0.57729928
0.57735431
0.57734038
0.57722788
0.57705405
0.57697518
0.21664704
0.21536542
0.22075088
0.23415221
0.25146235
0.26985321
0.28812003
0.30561228
0.32210079
0.33752148
0.35189944
0.36529499
0.37778183
0.38943523
0.4003269
0.41052288
0.42008288
0.4290604
0.43750319
0.44545377
0.45295005
0.46002584
0.46671139
0.47303383
0.47901754
0.48468452
0.49005467
0.49514607
0.49997517
0.504557
0.50890534
0.51303285
0.51695122
0.52067125
0.52420297
0.52755568
0.5307381
0.53375835
0.53662405
0.53934237
0.54192005
0.54436345
0.54667859
0.54887118
0.55094662
0.55291005
0.55476637
0.55652023
0.55817609
0.55973817
0.56121052
0.56259698
0.56390122
0.56512673
0.56627684
0.56735469
0.56836328
0.56930547
0.57018397
0.57100131
0.57175984
0.57246176
0.57310911
0.57370375
0.57424742
0.57474173
0.57518825
0.57558839
0.5759433
0.57625365
0.57651976
0.57674216
0.57692257
0.57706397
0.57716829
0.57723153
0.57724159
0.57718914
0.57709595
0.57703648
0.091965234
0.12187359
0.1593039
0.1929587
0.22309713
0.24962907
0.27317469
0.29419987
0.3131207
0.33026332
0.34589061
0.36021316
0.37340185
0.38559657
0.39691299
0.40744767
0.41728194
0.42648488
0.43511559
0.44322504
0.45085743
0.45805137
0.46484078
0.47125559
0.4773224
0.48306493
0.48850444
0.49366008
0.49854917
0.50318741
0.50758914
0.51176747
0.51573443
0.51950113
0.52307781
0.526474
0.52969853
0.53275967
0.53566513
0.53842217
0.54103758
0.5435178
0.54586888
0.54809655
0.55020625
0.55220314
0.55409214
0.55587791
0.55756492
0.55915742
0.56065944
0.56207484
0.56340729
0.56466029
0.56583714
0.56694101
0.56797486
0.56894156
0.56984379
0.57068406
0.5714647
0.57218787
0.57285557
0.57346965
0.57403185
0.5745438
0.57500705
0.57542295
0.57579256
0.57611672
0.57639632
0.57663256
0.5768268
0.57698005
0.57709231
0.57716243
0.57718888
0.57717266
0.57712423
0.57707203
0.010839463
0.29681538
0.47204865
0.52031071
0.53015468
0.53067999
0.53035139
0.53149393
0.53297346
0.53445927
0.53594235
0.53738737
0.53880971
0.54021752
0.54162163
0.54303194
0.54445012
0.5458767
0.54731146
0.54875344
0.55020123
0.55165307
0.55310698
0.55456086
0.55601254
0.55745982
0.55890053
0.5603325
0.56175363
0.56316186
0.56455516
0.56593157
0.56728914
0.56862598
0.56994021
0.57122995
0.57249337
0.57372862
0.57493387
0.57610727
0.57724698
0.57835115
0.57941793
0.58044548
0.58143193
0.58237544
0.58327419
0.58412638
0.58493024
0.58568404
0.58638613
0.5870349
0.58762882
0.58816644
0.58864643
0.58906758
0.58942893
0.58972969
0.58996941
0.59014767
0.59026389
0.59031786
0.5903097
0.59023937
0.59010647
0.58991018
0.58964899
0.58932151
0.58892358
0.58845822
0.58791112
0.58731569
0.58659979
0.58591387
0.58495886
0.58429612
0.58292634
0.58242834
0.58048084
0.58000273
0.064100529
0.38480094
0.52277541
0.5480236
0.54890799
0.5470729
0.54621346
0.54635174
0.54655591
0.54685965
0.54724903
0.54780337
0.54847824
0.5492443
0.55007284
0.55096054
0.55190091
0.55288937
0.55392057
0.55498935
0.55609098
0.55722101
0.55837524
0.55954965
0.56074046
0.56194404
0.56315691
0.56437576
0.56559737
0.56681868
0.56803671
0.56924857
0.57045147
0.5716427
0.57281961
0.57397961
0.57512018
0.57623883
0.57733313
0.57840069
0.57943916
0.58044621
0.58141957
0.582357
0.58325628
0.58411526
0.58493184
0.58570398
0.5864297
0.58710712
0.58773443
0.58830994
0.58883204
0.58929926
0.58971025
0.59006385
0.59035913
0.59059542
0.59077237
0.59088965
0.59094683
0.59094384
0.59088095
0.59075824
0.59057546
0.59033194
0.59002638
0.58965748
0.58922156
0.5887209
0.58814307
0.58751714
0.58677967
0.58606536
0.58510109
0.58440427
0.58303299
0.58250676
0.58051782
0.58008154
0.14890981
0.46600738
0.5426575
0.55546254
0.55410521
0.55315403
0.55314323
0.55369931
0.5541135
0.55463406
0.55513651
0.55570022
0.55628493
0.55691166
0.55757178
0.55827
0.55900252
0.55976956
0.56056958
0.56140088
0.56226167
0.56314998
0.56406369
0.56500054
0.56595814
0.56693397
0.56792544
0.56892988
0.56994456
0.57096668
0.57199342
0.57302195
0.57404939
0.57507288
0.57608955
0.57709653
0.57809098
0.57907007
0.58003101
0.580971
0.58188733
0.58277728
0.5836382
0.58446749
0.58526259
0.58602104
0.58674043
0.58741846
0.58805293
0.58864175
0.58918294
0.58967467
0.59011523
0.59050307
0.59083682
0.5911153
0.59133762
0.59150316
0.59161167
0.59166288
0.59165645
0.59159244
0.59147124
0.59129304
0.59105769
0.59076465
0.5904128
0.59000094
0.58952569
0.58898888
0.58837908
0.58772277
0.58696145
0.58622107
0.58524195
0.58451608
0.58313552
0.58258629
0.58055579
0.58015389
0.23166051
0.51363552
0.55632037
0.56384669
0.56117651
0.56138527
0.5614516
0.56204742
0.56232272
0.56277458
0.56315136
0.56360666
0.5640656
0.56455623
0.56506405
0.56559717
0.56615296
0.56673352
0.56733872
0.56796852
0.56862263
0.56930055
0.57000153
0.57072461
0.57146856
0.57223199
0.57301325
0.57381055
0.57462187
0.57544507
0.57627782
0.5771177
0.57796213
0.57880846
0.57965395
0.58049577
0.58133105
0.58215688
0.58297032
0.58376842
0.58454823
0.58530682
0.58604126
0.5867487
0.58742633
0.5880714
0.58868129
0.58925346
0.58978549
0.5902751
0.59072017
0.59111871
0.59146892
0.59176919
0.59201809
0.59221443