/*--------------------------------*- C++ -*----------------------------------*\
  =========                 |
  \\      /  F ield         | OpenFOAM: The Open Source CFD Toolbox
   \\    /   O peration     | Website:  https://openfoam.org
    \\  /    A nd           | Version:  12
     \\/     M anipulation  |
\*---------------------------------------------------------------------------*/
FoamFile
{
    format      ascii;
    class       volScalarField;
    location    "0.1";
    object      omega;
}
// * * * * * * * * * * * * * * * * * * * * * * * * * * * * * * * * * * * * * //

dimensions      [0 0 -1 0 0 0 0];

internalField   nonuniform List<scalar> 
16000
(
1089.7669
2190.5797
1070.5173
643.9539
454.32977
315.98514
239.7463
180.99458
145.81305
118.05968
100.3272
85.869929
75.164814
66.215329
58.915157
52.763302
47.570214
43.140773
39.334689
36.040009
33.172507
30.661321
28.448098
26.486285
24.738376
23.17519
21.77256
20.511825
19.377172
18.35417
17.429763
16.593648
15.837618
15.154731
14.539058
13.985092
13.48765
13.041838
12.643567
12.28939
11.975434
11.697618
11.452976
11.238812
11.05206
10.889593
10.748981
10.627917
10.524191
10.435713
10.360619
10.297279
10.244168
10.199942
10.163439
10.133782
10.110392
10.093024
10.081982
10.077921
10.078726
10.079047
10.078657
10.077751
10.076139
10.0737
10.070296
10.065825
10.0603
10.053905
10.046961
10.039669
10.032151
10.026626
10.023719
10.022332
10.021714
10.025678
10.025589
10.041889
1131.4554
2182.1709
1061.6797
644.0705
454.43814
318.81239
240.79165
182.77213
146.63195
119.07889
100.86244
86.427388
75.52035
66.523913
59.137877
52.936128
47.696363
43.232264
39.398983
36.082722
33.198465
30.675049
28.453182
26.485603
24.733766
23.168119
21.763798
20.501787
19.366353
18.343312
17.419342
16.583784
15.828287
15.145796
14.530417
13.976709
13.4796
13.034136
12.636038
12.28198
11.968382
11.690946
11.446549
11.232614
11.046256
10.884196
10.743963
10.623268
10.519923
10.431833
10.357099
10.294105
10.241323
10.197411
10.161177
10.131701
10.108364
10.090826
10.07914
10.073869
10.074186
10.074462
10.07397
10.072971
10.071286
10.068801
10.065389
10.060948
10.05548
10.04917
10.042362
10.035339
10.028204
10.023162
10.020625
10.019477
10.019274
10.021349
10.024901
10.041214
1171.5522
2183.7818
1049.6549
640.54089
451.07121
319.04756
239.68932
182.95591
146.18179
119.23152
100.70658
86.436238
75.415609
66.424341
59.005465
52.792277
47.541797
43.072634
39.238233
35.923116
33.041896
30.523496
28.308076
26.348146
24.604367
23.047106
21.651035
20.396866
19.268888
18.253275
17.33664
16.508058
15.759107
15.082638
14.472801
13.924205
13.431912
12.991016
12.597058
12.246688
11.936706
11.662697
11.421358
11.210135
11.026397
10.86676
10.728706
10.609963
10.50838
10.421889
10.348565
10.28682
10.235138
10.192199
10.156806
10.128016
10.105191
10.087973
10.076284
10.070396
10.070097
10.070244
10.069598
10.068448
10.066627
10.064032
10.060546
10.056074
10.050616
10.044353
10.037641
10.03083
10.024082
10.019595
10.017471
10.016657
10.016536
10.017792
10.022938
10.035002
1209.855
2192.0904
1040.089
637.1018
447.30405
319.0829
238.29199
182.97973
145.59164
119.28414
100.49944
86.383526
75.269909
66.277806
58.832968
52.61005
47.352087
42.880258
39.047174
35.735482
32.859304
30.347794
28.140516
26.189888
24.455701
22.908291
21.521893
20.276926
19.157614
18.150533
17.242315
16.421746
15.680343
15.010839
14.407434
13.864767
13.378027
12.942412
12.553314
12.207222
11.901381
11.631322
11.393553
11.185441
11.004681
10.847801
10.712221
10.595683
10.496068
10.411358
10.339596
10.279225
10.22874
10.186852
10.152368
10.124323
10.102055
10.085187
10.073586
10.067377
10.066388
10.066353
10.065524
10.064194
10.062211
10.059478
10.055891
10.051364
10.045892
10.039652
10.033001
10.026356
10.019929
10.015985
10.014281
10.013792
10.013657
10.014522
10.0206
10.030061
1246.1864
2210.5004
1031.7157
633.40806
442.78986
318.37469
236.21475
182.51707
144.62577
119.05907
100.10485
86.154664
74.985687
65.999554
58.545945
52.324207
47.069648
42.604129
38.780385
35.479263
32.614348
30.11524
27.920949
25.984001
24.263384
22.729474
21.356141
20.123558
19.015785
18.019834
17.122482
16.312227
15.580556
14.920066
14.325016
13.790059
13.310495
12.881676
12.49893
12.158425
11.857883
11.592858
11.35971
11.155588
10.978581
10.825163
10.692684
10.578896
10.481706
10.399178
10.329315
10.270605
10.221555
10.180911
10.147503
10.12035
10.098768
10.082368
10.070984
10.064626
10.063072
10.062794
10.061749
10.060205
10.058027
10.055123
10.051401
10.046785
10.041269
10.035025
10.028406
10.021887
10.015813
10.012406
10.011124
10.010941
10.010792
10.011463
10.017585
10.024779
1280.4018
2236.432
1027.7712
630.44341
438.81419
317.04095
233.66394
181.64756
143.39002
118.59527
99.567351
85.772052
74.582501
65.606909
58.158952
51.947996
46.706019
42.254495
38.446854
35.162415
32.314096
29.832154
27.655067
25.735501
24.031948
22.514767
21.157511
19.940172
18.84655
17.864081
16.979827
16.181982
15.462039
14.812437
14.2275
13.701892
13.230995
12.810328
12.435291
12.101612
11.807408
11.548362
11.320783
11.121439
10.948854
10.799507
10.670666
10.5601
10.465716
10.385704
10.318018
10.261203
10.213777
10.17453
10.142325
10.116176
10.095378
10.07953
10.068451
10.062074
10.060093
10.059522
10.058232
10.056448
10.054049
10.050947
10.047061
10.042326
10.036739
10.030467
10.02386
10.017418
10.011754
10.008871
10.008004
10.008112
10.007991
10.008537
10.014295
10.020079
1312.4613
2267.4862
1027.8847
627.6311
434.88923
315.07133
231.02739
180.40722
141.98879
117.89582
98.895953
85.234505
74.056624
65.097787
57.668811
51.478455
46.258128
41.828386
38.043489
34.781957
31.955721
29.49588
27.340501
25.441716
23.758918
22.261917
20.923957
19.724939
18.648307
17.681874
16.81314
16.029972
15.32392
14.687232
14.114306
13.599812
13.139198
12.728123
12.362203
12.036826
11.75006
11.497939
11.276898
11.08317
10.915675
10.770998
10.646323
10.539443
10.448228
10.37105
10.305804
10.251102
10.205479
10.167769
10.13688
10.111836
10.091912
10.07669
10.065988
10.059696
10.057414
10.056508
10.054948
10.0529
10.050257
10.046933
10.042856
10.037976
10.032293
10.025969
10.019356
10.01293
10.00781
10.005428
10.004959
10.005348
10.005308
10.005759
10.010947
10.015423
1342.4764
2301.1121
1029.4719
624.49694
431.0314
312.45482
228.38843
178.93722
140.47385
116.98146
98.107515
84.550573
73.409146
64.47419
57.075569
50.91497
45.724821
41.324557
37.568162
34.335676
31.537084
29.104345
26.975542
25.099036
23.44083
21.967693
20.6525
19.475154
18.418655
17.471086
16.620555
15.854576
15.164814
14.54328
13.984457
13.483021
13.034476
12.634576
12.279211
11.964366
11.686188
11.441916
11.228353
11.041191
10.879421
10.739969
10.619961
10.517198
10.429479
10.355415
10.292835
10.240434
10.196764
10.160706
10.131226
10.107367
10.088391
10.073858
10.063584
10.057452
10.054981
10.053709
10.051857
10.049526
10.04662
10.043057
10.038768
10.03372
10.027922
10.021523
10.014895
10.008436
10.00402
10.002116
10.002017
10.002675
10.002782
10.003166
10.007598
10.010958
1370.5417
2335.1115
1027.7908
620.58316
426.23475
309.13912
224.84978
177.07139
138.62949
115.88357
97.197441
83.719164
72.632923
63.731292
56.374121
50.251747
45.10035
40.737849
37.01278
33.815449
31.050404
28.650112
26.553634
24.70823
23.079017
21.63387
20.345202
19.193061
18.159978
17.234161
16.404519
15.658218
14.987103
14.382904
13.840197
13.353665
12.918871
12.531661
12.187985
11.883812
11.615541
11.380126
11.174972
10.995862
10.840444
10.706716
10.591911
10.493663
10.409729
10.339017
10.279291
10.229343
10.187749
10.153431
10.125426
10.102811
10.084839
10.071046
10.061236
10.05531
10.052739
10.051081
10.048918
10.046288
10.043106
10.03929
10.034775
10.029543
10.023618
10.017123
10.010481
10.004205
10.000431
9.9989791
9.9992138
10.000121
10.000442
10.000812
10.00437
10.007134
1396.7495
2367.863
1019.2219
615.58421
419.73357
305.38277
220.48767
174.73779
136.73891
114.60328
96.155391
82.734883
71.719852
62.861049
55.556379
49.475863
44.37076
40.054866
36.375672
33.222117
30.49819
28.136774
26.078215
24.268338
22.67281
21.259925
20.001704
18.878473
17.872287
16.971281
16.165286
15.441261
14.791266
14.206676
13.682173
13.212443
12.793104
12.420094
12.089526
11.797429
11.540121
11.314416
11.118244
10.947089
10.798734
10.671199
10.562469
10.469097
10.389262
10.322089
10.265369
10.217985
10.178555
10.146038
10.119546
10.098208
10.081278
10.068263
10.058943
10.05324
10.050629
10.048575
10.046087
10.043147
10.039679
10.035602
10.030855
10.025427
10.019367
10.012779
10.006083
10.000259
9.9970883
9.9960587
9.996581
9.9977081
9.9983015
9.9987563
10.001479
10.003527
1421.2127
2398.6851
1010.2602
609.51266
411.58261
301.23094
215.87884
172.20594
134.74822
113.14219
94.968557
81.590698
70.658278
61.842896
54.599755
48.582402
43.537367
39.279612
35.654849
32.553788
29.878521
27.562609
25.548085
23.779456
22.222555
20.846363
19.622726
18.532299
17.556689
16.683759
15.903945
15.204855
14.578515
14.015855
13.511666
13.060633
12.658434
12.30108
11.984853
11.705878
11.460559
11.245505
11.059025
10.896565
10.755755
10.634581
10.53159
10.443458
10.368313
10.304818
10.251264
10.206522
10.16931
10.138623
10.113654
10.093599
10.077725
10.065516
10.056705
10.051218
10.04859
10.04614
10.043319
10.040063
10.036304
10.031965
10.026987
10.021359
10.015155
10.008502
10.001712
9.9966327
9.9940288
9.9933854
9.9941456
9.9954594
9.9963685
9.9970142
9.9990544
10.000533
1444.058
2428.6033
996.80583
601.8922
402.04428
296.6698
211.09556
169.41885
132.73285
111.50579
93.609844
80.256263
69.41041
60.670349
53.50778
47.568002
42.596365
38.408618
34.848769
31.809203
29.19106
26.927682
24.963458
23.241937
21.729017
20.393775
19.209071
18.155546
17.214371
16.373128
15.620748
14.949282
14.349196
13.810851
13.329132
12.898714
12.515352
12.1751
11.874456
11.609655
11.37723
11.174365
10.998077
10.84473
10.711914
10.597483
10.500464
10.417606
10.346831
10.287148
10.237113
10.195101
10.160138
10.131284
10.107818
10.089026
10.074197
10.062804
10.054522
10.049232
10.046561
10.043727
10.040569
10.036998
10.032949
10.028351
10.02315
10.01733
10.010968
10.004294
9.9976192
9.9933411
9.9912699
9.990975
9.9919304
9.9933994
9.9946446
9.995603
9.9971716
9.997915
1465.5972
2456.6868
979.43831
593.39432
392.01558
291.6994
206.24314
166.43462
130.66593
109.67225
92.014141
78.714855
67.981275
59.337313
52.273875
46.428831
41.544965
37.440065
33.956166
30.987749
28.435557
26.232401
24.324575
22.656398
21.193412
19.901707
18.760425
17.7481
16.845332
16.039946
15.320835
14.679619
14.108223
13.596409
13.1391
12.730936
12.367808
12.045777
11.761594
11.5117
11.29254
11.101215
10.935632
10.791792
10.66733
10.560373
10.46932
10.391861
10.32569
10.269715
10.222811
10.183807
10.151141
10.124111
10.102104
10.084528
10.070709
10.060118
10.052389
10.047285
10.044489
10.041293
10.037801
10.033918
10.029585
10.024736
10.019325
10.013337
10.006821
10.0001
9.9939833
9.9903947
9.9888119
9.9888302
9.989955
9.9915527
9.9931109
9.9944814
9.9959695
9.9962029
1486.0644
2479.1907
957.91485
584.32919
381.54057
286.37435
201.40644
163.25921
128.47651
107.54635
90.165584
76.955546
66.357975
57.835446
50.891843
45.160009
40.379832
36.371599
32.975961
30.088409
27.611825
25.477546
23.629989
22.021503
20.615248
19.376595
18.28384
17.317362
16.457159
15.691146
15.008024
14.399603
13.858726
13.375348
12.944114
12.559556
12.217798
11.914867
11.647752
11.413251
11.207896
11.028664
10.873831
10.739567
10.623403
10.523283
10.438213
10.36611
10.304951
10.252806
10.208913
10.172502
10.142358
10.117176
10.096577
10.080145
10.067279
10.057446
10.050284
10.045397
10.042335
10.038799
10.034982
10.030799
10.026193
10.021107
10.015497
10.009366
10.002759
9.9959284
9.9907785
9.9877964
9.986645
9.9869457
9.9882343
9.9899421
9.991744
9.9935542
9.9951594
9.994984
1505.7171
2491.4195
932.28517
574.61966
370.68896
280.72556
196.66008
159.81357
126.0442
105.13522
88.036738
74.96046
64.52793
56.154539
49.354245
43.756412
39.098012
35.200853
31.907436
29.108021
26.716958
24.661478
22.888173
21.34715
20.004343
18.824246
17.785211
16.86862
16.054845
15.331642
14.687507
14.114173
13.603847
13.150269
12.746375
12.386392
12.06682
11.783629
11.533951
11.315079
11.123665
10.95742
10.813257
10.688475
10.58071
10.487621
10.408325
10.341197
10.284431
10.23651
10.195645
10.161626
10.133622
10.110491
10.091286
10.075914
10.063931
10.054781
10.048158
10.043573
10.040073
10.036219
10.032091
10.027623
10.022761
10.017455
10.011662
10.005392
9.9988061
9.9923257
9.9879843
9.9855446
9.9847598
9.9853144
9.9867777
9.9885937
9.9905299
9.9927238
9.994612
9.9944123
1524.7754
2482.821
902.93688
564.30944
359.50759
274.75957
191.99733
155.97021
123.2918
102.39387
85.597784
72.7068
62.475036
54.28343
47.653641
42.212462
37.696739
33.921859
30.746144
28.055353
25.763438
23.797672
22.107181
20.641617
19.368659
18.253279
17.273005
16.408208
15.643948
14.966239
14.363217
13.827216
13.35069
12.927446
12.55149
12.216441
11.919282
11.65601
11.423682
11.220316
11.04229
10.887661
10.754069
10.638542
10.539025
10.453489
10.379899
10.317562
10.264791
10.220565
10.183061
10.151358
10.125249
10.10388
10.086238
10.071864
10.060691
10.052144
10.045947
10.041622
10.037699
10.033538
10.029118
10.024384
10.019283
10.013775
10.007829
10.001441
9.9948217
9.9892338
9.9856009
9.9836354
9.9831556
9.9839321
9.9855823
9.9875318
9.9895066
9.9919299
9.9942488
9.9946874
1543.4059
2433.285
871.35194
553.43307
348.05293
268.38866
187.10788
151.70107
120.10593
99.274429
82.814961
70.169842
60.183372
52.212473
45.78342
40.518659
36.168532
32.546293
29.508449
26.94154
24.762792
22.898221
21.299744
19.917487
18.717967
17.672092
16.755304
15.94822
15.235607
14.605231
14.044561
13.546469
13.103743
12.710684
12.362325
12.051995
11.776945
11.533452
11.318232
11.130021
10.965174
10.821758
10.698178
10.591442
10.499462
10.420578
10.353094
10.295387
10.24634
10.205445
10.170891
10.141753
10.117372
10.097559
10.081278
10.06801
10.057573
10.049574
10.043681
10.039497
10.035211
10.030755
10.026062
10.021084
10.015767
10.01007
10.003986
9.9975826
9.9911738
9.9865835
9.9835966
9.9820596
9.9818391
9.9828004
9.9846253
9.9867409
9.988759
9.9912336
9.9941385
9.9958417
1561.4716
2398.0755
839.49624
541.93204
336.32756
261.07144
182.06537
146.90288
116.37287
95.718873
79.653133
67.325452
57.637545
49.933375
43.731126
38.68668
34.534984
31.089628
28.211017
25.785186
23.732914
21.980688
20.479348
19.187524
18.069681
17.096955
16.246092
15.498137
14.837938
14.25507
13.736898
13.2766
12.867418
12.503742
12.18079
11.89443
11.640669
11.416398
11.218759
11.045031
10.892926
10.760157
10.645898
10.547474
10.462617
10.389786
10.3275
10.274394
10.229227
10.191343
10.159465
10.132583
10.110056
10.091597
10.076557
10.064318
10.054566
10.047098
10.041434
10.037203
10.032616
10.027883
10.022935
10.017732
10.012222
10.006361
10.000144
9.9937363
9.9881359
9.9843139
9.9819232
9.9807909
9.9808121
9.9819244
9.9838775
9.9861505
9.988339
9.9909582
9.9941292
9.9968484
1578.5176
2355.8408
806.71899
529.47258
324.22853
252.57389
176.67632
141.46041
111.98398
91.665999
76.078672
64.152755
54.818843
47.431716
41.522196
36.739091
32.820205
29.578417
26.879293
24.610625
22.692887
21.062952
19.66951
18.472208
17.438229
16.540211
15.755856
15.067162
14.458795
13.920881
13.444124
13.020423
12.643639
12.308712
12.011318
11.747532
11.513818
11.30715
11.124968
10.964984
10.825125
10.703342
10.5977
10.50693
10.428693
10.361509
10.304016
10.25502
10.213451
10.178334
10.148875
10.124082
10.103302
10.086033
10.072054
10.060677
10.051639
10.044692
10.03929
10.034762
10.029932
10.024944
10.019759
10.014345
10.008656
10.00266
9.9964014
9.9901668
9.9855716
9.9824033
9.9805286
9.979782
9.980054
9.9813008
9.9833297
9.9856839
9.9880607
9.9908958
9.9941865
9.9973132
1593.8817
2288.0913
772.28655
515.55942
310.98874
242.74682
170.62601
135.23373
106.83852
87.056785
72.065632
60.6325
51.744732
44.755553
39.19319
34.714852
31.062457
28.047824
25.541282
23.443019
21.67363
20.171592
18.88896
17.787844
16.837774
16.013474
15.293748
14.660991
14.103391
13.610049
13.172546
12.78354
12.437245
12.12902
11.855116
11.612238
11.397185
11.207024
11.039356
10.891936
10.762916
10.650681
10.553829
10.469988
10.39779
10.335767
10.282635
10.237278
10.19874
10.166471
10.139137
10.116167
10.096923
10.080913
10.067868
10.057231
10.048764
10.042252
10.037092
10.032227
10.027181
10.021967
10.016565
10.010953
10.005098
9.9989715
9.9927114
9.987284
9.9834277
9.980836
9.9793851
9.978978
9.9795154
9.9808928
9.9829708
9.9853432
9.9878342
9.9908783
9.9943097
9.9977909
1606.4664
2219.1389
735.29822
499.61051
296.96532
231.3939
163.44386
128.0553
100.85945
81.861237
67.608247
56.805903
48.477396
41.964179
36.803973
32.667161
29.30822
26.535136
24.237753
22.317085
20.699312
19.326975
18.155096
17.148519
16.279519
15.525527
14.866078
14.287744
13.777519
13.325438
12.924354
12.567487
12.249499
11.966023
11.713617
11.48957
11.291413
11.116181
10.96178
10.82603
10.707071
10.603947
10.514264
10.436746
10.369954
10.31259
10.263435
10.221459
10.185807
10.155741
10.130324
10.108954
10.091072
10.076202
10.063995
10.054012
10.046003
10.039786
10.034782
10.029643
10.024397
10.018984
10.01339
10.007591
10.001588
9.9954321
9.989366
9.9848881
9.9816792
9.9795977
9.9785013
9.9783484
9.9791374
9.9806361
9.9827439
9.9851165
9.9876979
9.9909119
9.994447
9.9981671
1613.4683
2135.576
695.51676
479.92789
281.88909
218.19582
154.655
119.78733
94.046522
76.127075
62.790943
52.78167
45.114237
39.144497
34.429
30.657606
27.6033
25.086935
23.001974
21.259683
19.791753
18.545816
17.480843
16.56463
15.771804
15.08226
14.479761
13.950687
13.484008
13.069531
12.701372
12.373537
12.081208
11.820354
11.587614
11.380369
11.197244
11.035223
10.892529
10.767322
10.657796
10.562214
10.479147
10.407232
10.345211
10.291948
10.246344
10.207282
10.17429
10.146215
10.122459
10.10245
10.085724
10.071891
10.060425
10.051036
10.04344
10.037402
10.032415
10.027064
10.021625
10.016032
10.010277
10.004322
9.9981624
9.9919808
9.9867255
9.9829097
9.9802678
9.9786441
9.9778907
9.9779226
9.9788911
9.9804965
9.9826218
9.9849943
9.9876514
9.9909943
9.9946318
9.9984162
1609.7163
2033.0468
652.42885
454.21404
265.58079
202.80122
144.01845
110.45452
86.55134
69.983216
57.800648
48.708292
41.775384
36.392397
32.145931
28.750375
26.001261
23.740323
21.86347
20.292917
18.967324
17.840083
16.874713
16.042486
15.32063
14.691082
14.139428
13.653865
13.224617
12.843766
12.504768
12.20253
11.932788
11.692035
11.477304
11.286045
11.116073
10.965571
10.832799
10.716203
10.614303
10.525584
10.448363
10.381455
10.323636
10.273878
10.231516
10.195189
10.164193
10.137881
10.115603
10.096765
10.081089
10.067983
10.057144
10.048263
10.041097
10.035234
10.030046
10.024556
10.018942
10.013171
10.007259
10.001212
9.9950602
9.9890469
9.9846203
9.9813635
9.9791727
9.9779128
9.9774669
9.977708
9.9787886
9.9804713
9.9825997
9.9849743
9.9876938
9.9911035
9.9948208
9.9985545
1589.0733
1901.8885
606.24385
421.79364
248.04528
185.00144
131.75707
100.38397
78.725105
63.756774
52.859593
44.751954
38.5846
33.801324
30.026468
27.001685
24.545672
22.527415
20.845746
19.433953
18.238419
17.218507
16.342486
15.585246
14.926665
14.350555
13.844071
13.397295
13.001547
12.649859
12.336216
12.056117
11.805748
11.581989
11.382216
11.204178
11.045895
10.905584
10.781622
10.67251
10.576939
10.494082
10.421928
10.359403
10.305397
10.258898
10.218995
10.184857
10.155625
10.130739
10.109792
10.092037
10.077084
10.064585
10.054226
10.045768
10.038841
10.033113
10.027757
10.022169
10.016436
10.010522
10.004438
9.9982314
9.9920928
9.9868126
9.982969
9.9802191
9.9784137
9.9774548
9.9771864
9.9777145
9.978832
9.9805572
9.9826764
9.9850613
9.9878481
9.9912975
9.9950469
9.998688
1542.6971
1741.972
558.12542
383.459
230.19044
165.06832
118.5579
90.202148
71.026437
57.773003
48.192901
41.072887
35.658699
31.455881
28.131699
25.458226
23.276388
21.473237
19.966807
18.695799
17.614559
16.688117
15.88926
15.196453
14.592347
14.06264
13.594836
13.180968
12.813323
12.486434
12.194301
11.932984
11.69906
11.489732
11.302636
11.135742
10.987265
10.855593
10.739248
10.636851
10.54711
10.4688
10.400741
10.341646
10.29054
10.246455
10.208577
10.176356
10.148733
10.125168
10.105125
10.088154
10.073835
10.061801
10.051853
10.043601
10.036817
10.031127
10.025616
10.019943
10.014142
10.008176
10.002037
9.995777
9.9896887
9.9850888
9.9817038
9.9793761
9.977922
9.9772167
9.9770341
9.9777917
9.9789825
9.9807189
9.9828157
9.9851986
9.988025
9.9915095
9.995346
9.9988865
1462.4423
1579.9759
509.0634
343.96468
206.21945
145.75927
105.36317
80.599031
63.912446
52.345836
44.016017
37.826088
33.108151
29.431784
26.509901
24.147183
22.207638
20.59467
19.238471
18.087848
17.103593
16.255862
15.521278
14.881304
14.321007
13.828216
13.39291
13.006788
12.663114
12.356281
12.081643
11.835544
11.614915
11.417221
11.240317
11.082346
10.941665
10.816776
10.706285
10.608881
10.523336
10.448569
10.383868
10.327626
10.27898
10.237018
10.200929
10.169976
10.143495
10.120843
10.101538
10.085151
10.071395
10.059776
10.05004
10.041932
10.035199
10.029472
10.023794
10.018
10.012099
10.006072
9.9999216
9.9937334
9.9879669
9.9838163
9.9807774
9.9787458
9.9775596
9.9770919
9.9771388
9.9779058
9.979173
9.9809001
9.9829714
9.9853432
9.9881402
9.9914974
9.9952034
9.9987074
1350.1367
1491.9001
462.93132
296.59378
182.3683
127.62277
93.434191
72.095872
57.75663
47.768244
40.546585
35.16266
31.036461
27.799182
25.207783
23.097623
21.354066
19.89514
18.660033
17.606419
16.700524
15.916616
15.234383
14.637586
14.113057
13.650034
13.239613
12.874464
12.548641
12.257664
11.996606
11.762277
11.551863
11.363059
11.193902
11.042695
10.907931
10.788236
10.68233
10.588996
10.507061
10.435378
10.372822
10.318462
10.27135
10.230641
10.195565
10.165459
10.139856
10.117921
10.099219
10.083309
10.069819
10.058429
10.048854
10.04084
10.034133
10.02836
10.022545
10.016621
10.010588
10.004439
9.9982065
9.9920655
9.9868138
9.9829674
9.9801952
9.9783646
9.9773406
9.97701
9.9772621
9.9780758
9.9793782
9.9810913
9.9831351
9.9854908
9.988248
9.9914866
9.9950588
9.9985364
1217.3208
1250.5591
422.75248
254.32982
160.18555
112.4964
83.56306
65.228986
52.890968
44.23987
37.937672
33.196256
29.528797
26.625374
24.281265
22.357179
20.755669
19.406895
18.259676
17.275699
16.425849
15.68747
15.042619
14.47681
13.978145
13.53673
13.144526
12.794779
12.481918
12.201342
11.949283
11.7226
11.518708
11.335442
11.170967
11.023687
10.892183
10.775158
10.671403
10.579788
10.49929
10.429179
10.367896
10.314606
10.268389
10.228426
10.193961
10.16431
10.138864
10.117088
10.098496
10.082669
10.069239
10.057884
10.048327
10.040318
10.033604
10.027808
10.021956
10.015979
10.009881
10.003654
9.9973419
9.9911779
9.9861957
9.9825295
9.9799194
9.9782247
9.9773182
9.9770451
9.9773964
9.9782629
9.9795897
9.9813053
9.9833522
9.9857184
9.9884488
9.9915734
9.9949895
9.998416
1097.9191
1112.6026
390.07163
223.6178
143.59053
101.36803
76.25125
60.226608
49.412008
41.763412
36.134762
31.85929
28.521445
25.856327
23.687719
21.894919
20.392894
19.120303
18.031944
17.093841
16.279961
15.569971
14.947706
14.400179
13.917252
13.488591
13.106935
12.765905
12.460261
12.185644
11.93846
11.715748
11.515055
11.334337
11.171858
11.026111
10.895756
10.779563
10.676381
10.585111
10.504698
10.434129
10.372441
10.3187
10.272037
10.231639
10.19676
10.166724
10.14092
10.118804
10.099896
10.083772
10.070064
10.058449
10.048647
10.040406
10.033483
10.02754
10.02176
10.015822
10.009786
10.003633
9.9974057
9.9913099
9.9862712
9.9825991
9.9799892
9.978305
9.9774193
9.9771622
9.9775334
9.9784065
9.9797337
9.9814498
9.9835114
9.9858977
9.9886119
9.9916474
9.9949377
9.9983365
1043.0665
1071.5909
365.80652
206.53033
132.71684
93.812064
70.800981
56.249687
46.447325
39.504854
34.380012
30.469274
27.402974
24.94443
22.93614
21.269833
19.868998
18.678276
17.65678
16.773735
16.005547
15.333779
14.743732
14.223446
13.763019
13.354161
12.989849
12.664171
12.372156
12.109658
11.87324
11.660063
11.467779
11.294435
11.138382
10.998201
10.872632
10.760528
10.660818
10.572479
10.494525
10.426007
10.366009
10.313657
10.268125
10.228643
10.194501
10.16505
10.139706
10.117946
10.099307
10.08338
10.069807
10.058278
10.048518
10.040285
10.033339
10.027348
10.021505
10.015511
10.00942
10.003218
9.9969553
9.9908749
9.9860435
9.9824693
9.979933
9.9782907
9.9774244
9.9771676
9.9775901
9.9784471
9.9797693
9.9814799
9.9835493
9.9859497
9.9886597
9.991651
9.9948801
9.9982864
31650.779
79317.919
37251.168
10832.976
1429.1763
612.76164
434.94132
351.30808
291.05792
236.73637
192.82752
159.50276
134.86648
116.58682
102.52385
91.024695
81.289107
72.983864
65.874064
59.742769
54.410736
49.742129
45.63208
41.995128
38.765801
35.879494
33.290744
30.959482
28.85377
26.948408
25.221908
23.655122
22.231324
20.935787
19.756943
18.685066
17.711405
16.828204
16.028383
15.305496
14.653925
14.068104
13.542962
13.073929
12.656517
12.286493
11.960029
11.673093
11.421997
11.203382
11.013973
10.850649
10.710433
10.590794
10.489215
10.40347
10.333149
10.278176
10.238707
10.217654
10.210938
10.209349
10.207783
10.205532
10.202939
10.200009
10.196162
10.189745
10.180499
10.168687
10.153064
10.134898
10.105535
10.085087
10.062004
10.053376
10.034613
10.046063
10.011743
10.051654
19938.675
59889.51
24842.145
5146.3643
975.87693
529.86829
398.52128
322.14506
264.57927
213.133
174.72889
145.87312
124.77603
108.96443
96.484084
86.008436
77.076053
69.44889
62.896698
57.216743
52.253913
47.892117
44.039188
40.618979
37.569465
34.837487
32.38155
30.164174
28.157178
26.337906
24.686531
23.185307
21.81883
20.573548
19.439113
18.40653
17.467631
16.615212
15.842633
15.143867
14.513662
13.946687
13.43818
12.983812
12.57927
12.220524
11.903919
11.625527
11.381837
11.16962
10.985702
10.827071
10.690854
10.574628
10.475959
10.392627
10.323831
10.270199
10.231976
10.212177
10.206046
10.204643
10.203111
10.200926
10.198414
10.195552
10.192077
10.186328
10.177635
10.166194
10.150882
10.132949
10.104051
10.084023
10.061244
10.0535
10.034676
10.04718
10.011782
10.051315
28136.816
35864.765
13680.158
2578.1105
839.82046
499.82714
388.44323
306.82472
251.08149
201.51776
166.92519
139.76837
120.19059
105.27662
93.374302
83.30778
74.753946
67.452074
61.167128
55.709361
50.935313
46.735762
43.022696
39.723261
36.776538
34.135213
31.759082
29.611613
27.666693
25.902594
24.300192
22.842425
21.514579
20.303697
19.200133
18.195203
17.281069
16.450842
15.698122
15.017128
14.402828
13.850014
13.354131
12.910991
12.516388
12.166428
11.857566
11.58594
11.348165
11.141099
10.96164
10.806851
10.673952
10.560613
10.464324
10.383038
10.315547
10.262953
10.225688
10.20683
10.201146
10.199907
10.198427
10.196321
10.193892
10.191096
10.187784
10.182725
10.174617
10.163579
10.148611
10.130946
10.10256
10.08293
10.060475
10.053576
10.034731
10.048211
10.011902
10.050999
35752.432
24129.869
8411.9232
1556.2403
756.26654
476.43973
376.0041
290.83842
239.77812
190.8033
159.86052
133.84293
115.83474
101.73066
90.402582
80.741151
72.554211
65.555735
59.521018
54.272459
49.67594
45.628576
42.046577
38.860401
36.012429
33.454761
31.153455
29.072096
27.186173
25.474665
23.919129
22.503126
21.212564
20.035033
18.961544
17.983653
17.093836
16.285486
15.552415
14.889072
14.290623
13.751961
13.268737
12.836888
12.452303
12.111221
11.810201
11.545438
11.313678
11.111859
10.936948
10.786088
10.656656
10.546181
10.452344
10.373156
10.307161
10.255627
10.219352
10.201358
10.196223
10.195149
10.193724
10.1917
10.189357
10.186629
10.183326
10.178854
10.171354
10.160747
10.146154
10.128781
10.100949
10.081738
10.059673
10.05358
10.034778
10.049167
10.012194
10.050694
40341.439
20519.244
5912.0078
1231.3655
721.40193
459.03976
366.29395
278.32027
231.54091
182.61691
154.8528
129.23583
112.54473
98.914315
88.011709
78.650959
70.750519
63.984617
58.143998
53.059591
48.603943
44.678547
41.202525
38.108735
35.341531
32.855633
30.615127
28.589529
26.753831
25.087429
23.572393
22.192747
20.934891
19.786833
18.74013
17.786459
16.918568
16.130068
15.414928
14.767788
14.183966
13.65843
13.187012
12.765737
12.390577
12.057886
11.764306
11.506079
11.280073
11.08329
10.912762
10.765715
10.63961
10.531933
10.440489
10.363351
10.298945
10.248411
10.213083
10.195878
10.1913
10.190371
10.189007
10.187071
10.184815
10.182155
10.1789
10.174738
10.167871
10.157725
10.143539
10.126487
10.099244
10.080472
10.058839
10.05352
10.03481
10.050056
10.012558
10.050385
43155.215
19131.631
4541.3264
1158.6964
700.74295
440.52841
358.72421
268.4546
225.25057
176.08023
150.92176
125.33402
109.8251
96.485441
85.95045
76.836617
69.17703
62.603891
56.926595
51.981424
47.646057
43.825344
40.440736
37.427035
34.730343
32.306747
30.120384
28.144119
26.352999
24.726891
23.248226
21.901404
20.673235
19.552076
18.529958
17.598611
16.751039
15.981021
15.282655
14.650746
14.080734
13.56764
13.107465
12.696297
12.33018
12.005571
11.719181
11.46729
11.246883
11.055019
10.888799
10.74556
10.62264
10.517716
10.428639
10.353533
10.290826
10.241256
10.206855
10.190476
10.18638
10.18558
10.184284
10.182439
10.180271
10.177678
10.174463
10.170389
10.164157
10.154502
10.14076
10.124058
10.097434
10.079128
10.057981
10.053424
10.034811
10.050883
10.012923
10.050058
45388.852
17219.198
3645.3432
1107.5399
685.29292
427.85188
352.76103
260.54002
220.38927
170.87558
147.78922
122.04797
107.5689
94.389009
84.172342
75.259156
67.801171
61.388156
55.848363
51.021225
46.788534
43.057703
39.752022
36.807847
34.172669
31.803838
29.66681
27.733
25.981321
24.391211
22.945229
21.628053
20.426834
19.33022
18.33066
17.419874
16.591115
15.838286
15.155591
14.537978
13.980983
13.479663
13.030177
12.628652
12.271195
11.954356
11.674898
11.429139
11.214175
11.027123
10.865189
10.725549
10.605771
10.503561
10.416821
10.343725
10.282784
10.234172
10.200677
10.185127
10.181459
10.180782
10.179558
10.177808
10.175728
10.173202
10.170026
10.165933
10.160215
10.151082
10.13782
10.121496
10.095519
10.077709
10.057105
10.05331
10.034745
10.05165
10.013247
10.049702
47036.866
14564.464
3072.6333
1075.9361
673.54707
417.60746
347.59283