/*--------------------------------*- C++ -*----------------------------------*\
  =========                 |
  \\      /  F ield         | OpenFOAM: The Open Source CFD Toolbox
   \\    /   O peration     | Website:  https://openfoam.org
    \\  /    A nd           | Version:  12
     \\/     M anipulation  |
\*---------------------------------------------------------------------------*/
FoamFile
{
    format      ascii;
    class       volScalarField;
    location    "0.1";
    object      T;
}
// * * * * * * * * * * * * * * * * * * * * * * * * * * * * * * * * * * * * * //

dimensions      [0 0 0 1 0 0 0];

internalField   nonuniform List<scalar> 
16000
(
294.46972
286.01142
289.3098
287.50619
288.6147
288.10729
288.53004
288.41996
288.61698
288.65137
288.77276
288.85798
288.96377
289.06695
289.17611
289.28858
289.40518
289.52577
289.65043
289.77917
289.912
290.0489
290.18986
290.33481
290.48368
290.63638
290.79277
290.95271
291.116
291.28245
291.4518
291.62379
291.79812
291.97446
292.15246
292.33175
292.51194
292.6926
292.87333
293.05368
293.23323
293.41155
293.58821
293.7628
293.93493
294.10423
294.27035
294.43299
294.59186
294.74672
294.89737
295.04363
295.18537
295.3225
295.45496
295.58274
295.70582
295.82424
295.93805
296.04732
296.15216
296.25266
296.34891
296.44102
296.52911
296.61336
296.69406
296.77163
296.84666
296.91983
296.99189
297.06361
297.13591
297.21015
297.28842
297.37426
297.47414
297.57776
297.74834
297.82769
294.16885
285.60977
289.02865
287.15539
288.33146
287.78665
288.24492
288.12537
288.33691
288.37677
288.50518
288.59933
288.71233
288.82438
288.942
289.06351
289.18934
289.31946
289.45392
289.5927
289.7358
289.88319
290.0348
290.19055
290.35034
290.51401
290.68141
290.85232
291.02653
291.20376
291.38372
291.56608
291.7505
291.93658
292.12392
292.3121
292.50066
292.68916
292.87714
293.06412
293.24965
293.43329
293.6146
293.79316
293.96861
294.14057
294.30874
294.47282
294.63259
294.78784
294.93841
295.08418
295.22508
295.36104
295.49208
295.61821
295.73948
295.85596
295.96774
296.07493
296.17764
296.27601
296.37013
296.46014
296.54617
296.62842
296.70717
296.78287
296.85612
296.92766
296.99827
297.06876
297.14011
297.21377
297.292
297.37825
297.47646
297.5911
297.74002
297.84754
293.88308
285.23937
288.77789
286.84787
288.06372
287.50884
287.98089
287.8692
288.08566
288.1374
288.27137
288.37614
288.49731
288.61918
288.74644
288.87807
289.01428
289.15509
289.30049
289.45046
289.60496
289.76392
289.92726
290.09483
290.26649
290.44205
290.62128
290.80394
290.98972
291.1783
291.36933
291.56241
291.75711
291.953
292.14961
292.34644
292.543
292.7388
292.93332
293.12607
293.31658
293.50439
293.68906
293.87019
294.04742
294.22044
294.38896
294.55274
294.71161
294.86541
295.01406
295.15749
295.29568
295.42866
295.55648
295.67922
295.79698
295.90987
296.01803
296.1216
296.22072
296.31556
296.40623
296.49288
296.57567
296.6548
296.73056
296.80343
296.87404
296.94314
297.01155
297.08011
297.14987
297.22238
297.29993
297.38566
297.48376
297.60164
297.73972
297.86085
293.62052
284.89909
288.55594
286.57765
287.82953
287.26437
287.75053
287.64829
287.87023
287.93538
288.07594
288.19258
288.32325
288.45614
288.59434
288.73731
288.88513
289.03779
289.19528
289.35753
289.52448
289.69601
289.87199
290.05224
290.23656
290.4247
290.61638
290.81127
291.00901
291.20919
291.41139
291.61513
291.81991
292.02523
292.23054
292.43529
292.63894
292.84095
293.04076
293.23789
293.43182
293.62213
293.80838
293.99021
294.1673
294.33937
294.50622
294.66766
294.82359
294.97394
295.11869
295.25784
295.39147
295.51967
295.64254
295.76023
295.8729
295.98071
296.08384
296.18245
296.27674
296.36687
296.453
296.53527
296.61386
296.68899
296.76096
296.83025
296.89752
296.96354
297.02916
297.09525
297.16291
297.23379
297.31015
297.39492
297.49292
297.61091
297.74245
297.8725
293.38205
284.59518
288.34907
286.35338
287.64117
287.06189
287.55847
287.47016
287.69622
287.77734
287.92527
288.05507
288.1966
288.34165
288.49201
288.64747
288.80803
288.97367
289.14433
289.31994
289.50037
289.68548
289.87508
290.06892
290.26673
290.4682
290.67294
290.88056
291.09061
291.30258
291.51595
291.73017
291.94465
292.1588
292.37201
292.58368
292.79321
293.00001
293.20355
293.4033
293.59878
293.78957
293.9753
294.15565
294.33036
294.49924
294.66216
294.81902
294.9698
295.11453
295.25328
295.38614
295.51326
295.6348
295.75096
295.86193
295.96792
296.06916
296.16584
296.25819
296.3464
296.43066
296.51116
296.58804
296.6615
296.73175
296.79911
296.86407
296.9273
296.9896
297.05183
297.11489
297.17994
297.24868
297.32331
297.40672
297.50409
297.6204
297.74732
297.882
293.17162
284.33483
288.17826
286.16602
287.47828
286.90777
287.41565
287.34099
287.57102
287.66904
287.82517
287.96893
288.12246
288.28057
288.44416
288.61319
288.78763
288.96741
289.15245
289.34261
289.53772
289.73755
289.94185
290.15028
290.36247
290.578
290.79641
291.01716
291.2397
291.46344
291.68773
291.91193
292.13536
292.35734
292.57722
292.79432
293.00803
293.21775
293.42293
293.62308
293.81776
294.0066
294.1893
294.36563
294.53542
294.69858
294.85508
295.00493
295.14823
295.28509
295.41568
295.54021
295.65889
295.77198
295.87972
295.98237
296.08021
296.17349
296.26245
296.34733
296.42835
296.50572
296.57962
296.65022
296.71771
296.78231
296.84436
296.90432
296.9629
297.02091
297.07921
297.13874
297.20069
297.26682
297.33921
297.42089
297.517
297.63057
297.75325
297.89059
292.99204
284.11952
288.04031
286.01558
287.34895
286.80359
287.31051
287.26321
287.49272
287.61214
287.77749
287.93596
288.1029
288.27538
288.45372
288.63789
288.82783
289.0234
289.22445
289.43076
289.64207
289.85805
290.07833
290.30247
290.52998
290.76031
290.99286
291.22698
291.46198
291.69714
291.93172
292.16496
292.39611
292.62442
292.84916
293.06967
293.2853
293.49547
293.69968
293.8975
294.08855
294.27257
294.44935
294.61879
294.78084
294.93553
295.08295
295.22326
295.35666
295.48338
295.60369
295.71789
295.82629
295.9292
296.02694
296.11982
296.20816
296.29224
296.37233
296.44868
296.52154
296.59111
296.65758
296.72112
296.78193
296.84021
296.89631
296.95071
297.0041
297.0573
297.11121
297.16675
297.22518
297.28821
297.35791
297.43745
297.53166
297.64156
297.76001
297.89868
292.84103
283.94713
287.93277
285.90043
287.25117
286.73168
287.24054
287.20305
287.46476
287.60501
287.7822
287.9573
288.14015
288.32928
288.52469
288.72631
288.93398
289.1475
289.36661
289.59098
289.82024
290.05394
290.29155
290.53251
290.77616
291.02181
291.2687
291.51604
291.763
292.00873
292.25237
292.49308
292.73004
292.96244
293.18956
293.41072
293.62532
293.83283
294.03285
294.22503
294.40913
294.58502
294.75265
294.91204
295.06331
295.20665
295.34227
295.47049
295.5916
295.70598
295.81399
295.91601
296.01243
296.10362
296.18996
296.2718
296.34948
296.42331
296.49358
296.56054
296.62443
296.68547
296.74383
296.7997
296.85324
296.90467
296.95432
297.00268
297.05043
297.09842
297.14752
297.1987
297.25321
297.31273
297.37932
297.45634
297.54801
297.65342
297.76752
297.90657
292.71351
283.81569
287.85904
285.82089
287.20264
286.73147
287.23434
287.26086
287.48983
287.65185
287.84447
288.03879
288.24056
288.44912
288.66433
288.88602
289.11394
289.34777
289.58714
289.83158
290.08056
290.33346
290.5896
290.84821
291.10848
291.36951
291.6304
291.89018
292.14789
292.40255
292.65321
292.89896
293.13893
293.37234
293.59847
293.8167
294.02655
294.22759
294.41955
294.60226
294.77565
294.93976
295.09472
295.24074
295.37812
295.50719
295.62834
295.742
295.84861
295.94863
296.04252
296.13074
296.21373
296.29192
296.36572
296.43549
296.5016
296.56437
296.62408
296.68098
296.73531
296.78728
296.83704
296.88477
296.93062
296.97481
297.01764
297.05961
297.10139
297.14384
297.18783
297.23433
297.28461
297.34022
297.40334
297.47749
297.56598
297.66619
297.77587
297.9144
292.60885
283.72758
287.82472
285.79293
287.20964
286.77463
287.27425
287.32437
287.57337
287.76174
287.97336
288.18952
288.41323
288.64414
288.88201
289.12652
289.3773
289.63387
289.89569
290.16211
290.43238
290.70568
290.98112
291.25771
291.53443
291.81019
292.08388
292.3544
292.62063
292.88153
293.13607
293.38332
293.62245
293.85271
294.07351
294.28436
294.48492
294.67499
294.85448
295.02343
295.18201
295.33048
295.46917
295.5985
295.71894
295.831
295.93521
296.03212
296.12228
296.20624
296.28452
296.35764
296.42609
296.4903
296.55071
296.6077
296.66161
296.71277
296.76144
296.80787
296.85227
296.89482
296.93568
296.97499
297.0129
297.04959
297.08538
297.12074
297.15634
297.19302
297.23168
297.2733
297.31907
297.37046
297.4298
297.50075
297.58541
297.67988
297.78524
297.92229
292.531
283.69118
287.83614
285.88838
287.27549
286.88075
287.37285
287.47128
287.72683
287.94328
288.17796
288.41909
288.6681
288.92459
289.18822
289.45848
289.73482
290.01654
290.30286
290.59289
290.88563
291.17999
291.47481
291.76886
292.06088
292.34958
292.63368
292.91193
293.18315
293.44622
293.70015
293.94406
294.17723
294.39907
294.60919
294.80732
294.99337
295.1674
295.3296
295.48029
295.61988
295.74887
295.86783
295.97737
296.07813
296.17078
296.25596
296.33433
296.40652
296.47314
296.53475
296.59188
296.64504
296.69469
296.74122
296.78502
296.82642
296.8657
296.90313
296.93891
296.97323
297.00625
297.0381
297.0689
297.09878
297.12791
297.15658
297.18524
297.21457
297.24538
297.27859
297.31518
297.35624
297.40315
297.45849
297.52589
297.60606
297.69436
297.79573
297.93028
292.48643
283.71966
287.90152
286.02725
287.38766
287.05705
287.54263
287.68597
287.95917
288.20635
288.46852
288.73831
289.01633
289.30197
289.5947
289.89377
290.19836
290.50747
290.82001
291.13475
291.4504
291.76553
292.07869
292.38838
292.69311
292.9914
293.28186
293.56315
293.83408
294.09362
294.34087
294.57516
294.79598
295.00303
295.19622
295.37561
295.54146
295.69414
295.83417
295.96216
296.0788
296.18482
296.28101
296.36815
296.44702
296.51841
296.58304
296.64164
296.69488
296.74338
296.78772
296.82845
296.86602
296.90089
296.93344
296.964
296.99288
297.02032
297.04656
297.07176
297.09609
297.11968
297.14261
297.165
297.18693
297.20857
297.23018
297.2522
297.27528
297.30023
297.32798
297.35949
297.3957
297.43798
297.48913
297.55264
297.62765
297.7095
297.8074
297.9381
292.47987
283.81872
288.03115
286.22256
287.5656
287.31027
287.79205
287.9849
288.28077
288.56206
288.8566
289.15942
289.47067
289.7894
290.11479
290.44573
290.78102
291.11927
291.45897
291.79852
292.13621
292.47029
292.799
293.1206
293.4334
293.73583
294.02644
294.30398
294.56739
294.81584
295.04873
295.26572
295.4667
295.65178
295.82127
295.97566
296.11558
296.24179
296.35513
296.4565
296.54684
296.62708
296.69817
296.76102
296.81652
296.86549
296.90874
296.94697
296.98088
297.01106
297.03808
297.06244
297.08457
297.10486
297.12367
297.14127
297.15792
297.17384
297.1892
297.20414
297.21879
297.23322
297.24752
297.26175
297.27599
297.29037
297.30513
297.32069
297.33766
297.35686
297.37924
297.40568
297.43701
297.47459
297.52145
297.58069
297.64997
297.72524
297.81996
297.94604
292.51344
283.99604
288.2299
286.50374
287.81873
287.64851
288.13173
288.37719
288.70365
289.02369
289.3562
289.69718
290.04636
290.40236
290.76388
291.12933
291.49699
291.86497
292.23129
292.59389
292.95067
293.29953
293.63848
293.96558
294.27911
294.57753
294.85957
295.12423
295.3708
295.59889
295.8084
295.99948
296.17255
296.32824
296.46735
296.59082
296.69969
296.79504
296.87803
296.94978
297.01142
297.06402
297.10863
297.14623
297.17772
297.20395
297.2257
297.24366
297.25847
297.2707
297.28084
297.28933
297.29656
297.30286
297.3085
297.31373
297.31873
297.32368
297.3287
297.3339
297.33935
297.34511
297.35122
297.35771
297.36465
297.37213
297.38037
297.38976
297.40089
297.41455
297.4317
297.45318
297.47966
297.51258
297.55511
297.6097
297.67283
297.74173
297.83344
297.95402
292.59197
284.26491
288.5011
286.8731
288.16003
288.08345
288.57558
288.87795
289.24363
289.60848
289.98524
290.37001
290.76192
291.15899
291.55927
291.96055
292.36049
292.75663
293.14646
293.52747
293.8972
294.25333
294.59373
294.91653
295.22018
295.50348
295.76561
296.00612
296.22492
296.42228
296.59876
296.75517
296.89255
297.01206
297.115
297.20271
297.27658
297.33798
297.38823
297.42863
297.46039
297.48466
297.50248
297.51484
297.52259
297.52655
297.52743
297.52586
297.5224
297.51753
297.51168
297.50522
297.49845
297.49163
297.48498
297.47866
297.47282
297.46757
297.46298
297.45912
297.45603
297.45373
297.45223
297.45153
297.45167
297.45273
297.4549
297.45852
297.46414
297.47257
297.48473
297.50138
297.52315
297.55158
297.58976
297.63929
297.69598
297.75908
297.84801
297.962
292.7198
284.64388
288.84089
287.34485
288.60285
288.63048
289.14197
289.50713
289.9218
290.33865
290.76617
291.20005
291.63859
292.07904
292.51867
292.95453
293.38358
293.80275
294.20903
294.59955
294.97169
295.32315
295.65204
295.95691
296.23679
296.49121
296.72013
296.92398
297.10352
297.25983
297.39425
297.50826
297.60347
297.68155
297.74419
297.79302
297.82966
297.85562
297.87231
297.88107
297.88311
297.87953
297.87132
297.85938
297.84451
297.8274
297.80867
297.78885
297.76841
297.74774
297.72717
297.70697
297.68738
297.66858
297.65071
297.63387
297.61815
297.60361
297.59028
297.57818
297.56732
297.55769
297.54925
297.54201
297.53596
297.53117
297.52779
297.52612
297.52667
297.53024
297.53768
297.5497
297.56697
297.59115
297.62502
297.66906
297.71906
297.77723
297.86374
297.96982
292.90162
285.16284
289.25724
287.93706
289.16873
289.313
289.85681
290.29189
290.76527
291.2412
291.72498
292.21166
292.69844
293.18163
293.65756
294.12242
294.57247
295.00413
295.41411
295.79956
296.15815
296.48812
296.78837
297.05839
297.29831
297.50873
297.69076
297.84583
297.97568
298.08222
298.16747
298.2335
298.28236
298.31605
298.33647
298.3454
298.34452
298.33534
298.31924
298.29748
298.27117
298.24131
298.20876
298.17429
298.13857
298.10217
298.06559
298.02924
297.99348
297.95859
297.9248
297.89232
297.86127
297.83177
297.8039
297.77769
297.75317
297.73036
297.70924
297.6898
297.67202
297.65584
297.64123
297.62815
297.61659
297.60657
297.59823
297.59181
297.58779
297.58691
297.58996
297.5976
297.61062
297.63083
297.66043
297.69865
297.74183
297.79583
297.88019
297.97719
293.14913
285.86817
289.79289
288.68098
289.88855
290.1623
290.7527
291.26458
291.80511
292.34578
292.88907
293.42908
293.96156
294.48169
294.98472
295.4661
295.92167
296.34783
296.74169
297.10113
297.42489
297.7125
297.9643
298.18124
298.36487
298.51715
298.64035
298.73694
298.80947
298.86051
298.89257
298.90807
298.90925
298.89822
298.87691
298.84706
298.81025
298.76786
298.72114
298.67118
298.61892
298.56518
298.51069
298.45603
298.40174
298.34823
298.29588
298.24497
298.19575
298.14841
298.10307
298.05985
298.01881
297.97998
297.94339
297.90901
297.87682
297.84679
297.81888
297.79304
297.76921
297.74732
297.72732
297.70914
297.69276
297.67819
297.6655
297.65492
297.64688
297.64203
297.64105
297.64459
297.65367
297.67015
297.69552
297.7278
297.76425
297.81442
297.89672
297.98412
293.48921
286.7418
290.47475
289.61376
290.80007
291.21318
291.86592
292.46128
293.07537
293.68362
294.28524
294.873
295.44099
295.98327
296.49448
296.97002
297.40625
297.80064
298.15176
298.4593
298.72392
298.94712
299.13108
299.2785
299.39237
299.47589
299.5323
299.5648
299.57647
299.57019
299.54865
299.5143
299.46937
299.41583
299.35545
299.28977
299.22016
299.14779
299.07367
298.99867
298.92354
298.84891
298.77529
298.70313
298.6328
298.56456
298.49867
298.4353
298.37457
298.31658
298.26139
298.20901
298.15944
298.11267
298.06863
298.02728
297.98854
297.95236
297.91864
297.88732
297.85831
297.83153
297.80691
297.78438
297.76389
297.74542
297.72903
297.7149
297.7034
297.69506
297.69046
297.69026
297.69572
297.70869
297.72984
297.75628
297.78648
297.83289
297.91282
297.99112
293.9621
287.73054
291.34569
290.77122
291.94738
292.50766
293.23948
293.92404
294.61331
295.28467
295.93361
296.55162
297.13179
297.66809
298.15596
298.59232
298.97565
299.30591
299.58435
299.81327
299.99579
300.1356
300.23671
300.30326
300.33939
300.34908
300.33607
300.30385
300.25558
300.19411
300.12197
300.0414
299.95434
299.8625
299.76733
299.6701
299.57186
299.47352
299.37584
299.27945
299.18488
299.09256
299.00282
298.91595
298.83216
298.75161
298.6744
298.60062
298.53029
298.46343
298.40001
298.33999
298.28331
298.22989
298.17964
298.13246
298.08824
298.04689
298.00831
297.97239
297.93903
297.90815
297.87966
297.85347
297.82954
297.80782
297.78834
297.77124
297.75683
297.74551
297.73775
297.73425
297.73645
297.74609
297.76304
297.78399
297.80879
297.85158
297.92798
297.99939
294.62357
289.00415
292.45336
292.20555
293.39145
294.10412
294.92613
295.69749
296.45043
297.16409
297.83128
298.44368
298.99552
299.48307
299.90484
300.2613
300.55464
300.78838
300.967
301.0956
301.17956
301.22428
301.23502
301.21674
301.17402
301.111
301.0314
300.9385
300.83516
300.72386
300.60675
300.48565
300.3621
300.23742
300.1127
299.98886
299.86666
299.74671
299.62951
299.51548
299.40493
299.2981
299.19518
299.0963
299.00153
298.91093
298.82451
298.74224
298.66409
298.58999
298.51986
298.4536
298.3911
298.33224
298.2769
298.22493
298.17621
298.13061
298.08802
298.0483
298.01136
297.97709
297.94541
297.91622
297.88946
297.86507
297.84306
297.82354
297.80673
297.79291
297.78246
297.77617
297.77553
297.78202
297.79484
297.81078
297.83129
297.87127
297.94309
298.00612
295.53019
290.62417
293.88371
293.99642
295.21126
296.06997
296.97341
297.80718
298.58733
299.29694
299.92973
300.481
300.94949
301.33663
301.64611
301.88331
302.05471
302.16738
302.22857
302.24535
302.22444
302.172
302.09358
301.99412
301.87794
301.74876
301.6098
301.46375
301.31293
301.15926
301.00434
300.84951
300.69586
300.5443
300.39554
300.25017
300.10867
299.97137
299.83857
299.71046
299.58718
299.46881
299.35541
299.24698
299.14349
299.04491
298.95114
298.86212
298.77773
298.69784
298.62234
298.55107
298.4839
298.42066
298.36121
298.30537
298.25302
298.20399
298.15814
298.11535
298.0755
298.03848
298.0042
297.97257
297.94352
297.91698
297.89293
297.87144
297.85266
297.83677
297.82414
297.8156
297.81261
297.81618
297.82506
297.83654
297.8537
297.8912
297.95735
298.01086
296.6632
292.71499
295.74235
296.2275
297.47313
298.44884
299.38818
300.22385
300.96235
301.59499
302.12183
302.54579
302.87305
303.11181
303.2715
303.36204
303.39325
303.37444
303.31416
303.22007
303.0989
302.95645
302.79769
302.62682
302.44733
302.26216
302.0737
301.88395
301.69452
301.50673
301.32162
301.14005
300.96268
300.79003
300.6225
300.46037
300.30388
300.15314
300.00825
299.86924
299.73611
299.60882
299.4873
299.37147
299.26121
299.15641
299.05693
298.96262
298.87333
298.78891
298.70917
298.63395
298.56307
298.49636
298.43364
298.37473
298.31947
298.2677
298.21925
298.174
298.13182
298.09259
298.05623
298.02265
297.99176
297.96348
297.9378
297.91473
297.89435
297.87681
297.86247
297.85222
297.84733
297.84833
297.85365
297.86139
297.87585
297.91041
297.96939
298.01336
298.20197
295.38919
298.1245
298.95178
300.17202
301.20907
302.09452
302.83402
303.43671
303.90653
304.25407
304.49184
304.63379
304.69397
304.68582
304.62166
304.51242
304.36759
304.19526
304.00219
303.79401
303.57534
303.34994
303.12088
302.89059
302.66106
302.43384
302.21017
301.99101
301.77711
301.56903
301.3672
301.17191
300.98338
300.80173
300.62702
300.45927
300.29844
300.14447
299.99727
299.85671
299.72268
299.59501
299.47356
299.35814
299.24859
299.14472
299.04634
298.95327
298.86532
298.78228
298.70397
298.63018
298.56074
298.49544
298.4341
298.37654
298.3226
298.2721
298.2249
298.18086
298.13989
298.10187
298.06672
298.03436
298.0047
297.97772
297.95341
297.93179
297.91299
297.8974
297.88589
297.87948
297.87822
297.88046
297.88514
297.89722
297.92816
297.97896
298.0141
300.18646
298.71658
301.02534
302.14333
303.33324
304.20235
304.91273
305.44287
305.81541
306.04894
306.16483
306.18336
306.12327
306.00098
305.83054
305.62366
305.38997
305.13724
304.87171
304.59834
304.32104
304.04288
303.76625
303.49299
303.22454
302.96197
302.70608
302.45746
302.21654
301.98359
301.7588
301.54225
301.33396
301.1339
300.942
300.75814
300.58219
300.41399
300.25337
300.10014
299.95411
299.81508
299.68283
299.55716
299.43786
299.32471
299.2175
299.116
299.02002
298.92932
298.84372
298.76298
298.68691
298.61531
298.54797
298.4847
298.42532
298.36965
298.31752
298.26878
298.22328
298.18092
298.14159
298.1052
298.07167
298.04093
298.01294
297.98767
297.96515
297.94549
297.92907
297.91666
297.90891
297.90553
297.90505
297.90723
297.91715
297.94391
297.98586
298.01257
302.64581
302.68058
304.69439
305.67264
306.57113
307.18561
307.5949
307.82042
307.89877
307.85977
307.73036
307.53278
307.28517
307.00192
306.6943
306.37105
306.03887
305.70287
305.3669
305.03386
304.70593
304.3847
304.07132
303.76662
303.47116
303.18531
302.90929
302.64321
302.38706
302.14079
301.9043
301.67742
301.45999
301.2518
301.05264
300.86226
300.68044
300.50693
300.34148
300.18385
300.03378
299.89103
299.75535
299.6265
299.50423
299.38831
299.2785
299.17456
299.07627
298.9834
298.89573
298.81304
298.73512
298.66176
298.59275
298.52791
298.46704
298.40996
298.35649
298.30649
298.25982
298.21634
298.17595
298.13857
298.1041
298.0725
298.04373
298.01775
297.99459
297.97436
297.95741
297.94428
297.93525
297.92983
297.92693
297.92705
297.93481
297.95675
297.98973
298.00956
305.72284
307.12303
308.4553
309.16044
309.64111
309.85282
309.87817
309.75911
309.53649
309.24074
308.89537
308.51786
308.12112
307.71459
307.30509
306.89754
306.49545
306.10128
305.71674
305.34299
304.98078
304.63056
304.29255
303.96682
303.65333
303.35195
303.06247
302.78466
302.51826
302.26298
302.01852
301.78456
301.56081
301.34694
301.14264
300.94761
300.76155
300.58415
300.41512
300.25417
300.10103
299.9554
299.81703
299.68565
299.56099
299.44281
299.33086
299.22488
299.12465
299.02993
298.94049
298.85612
298.77659
298.70169
298.63123
298.565
298.50281
298.4445
298.38987
298.33878
298.29108
298.24664
298.20536
298.16715
298.13191
298.09961
298.0702
298.04364
298.01994
297.99922
297.98174
297.96781
297.95751
297.95036
297.94572
297.94434
297.94976
297.96608
297.99023
298.00531
309.68752
311.47909
312.02249
312.21103
312.15777
311.9245
311.57374
311.14799
310.67749
310.18299
309.67857
309.17371
308.67473
308.18577
307.7095
307.24755
306.80089
306.36998
305.95499
305.55583
305.17229
304.80405
304.45074
304.11192
303.78717
303.47603
303.17805
302.89279
302.61981
302.35867
302.10897
301.8703
301.64227
301.42449
301.21662
301.01828
300.82915
300.64889
300.47717
300.31369
300.15815
300.01026
299.86973
299.73628
299.60964
299.48957
299.37579
299.26806
299.16615
299.0698
298.97881
298.89293
298.81195
298.73568
298.66389
298.59641
298.53304
298.47359
298.41791
298.36583
298.3172
298.27191
298.22984
298.19088
298.15497
298.12205
298.09205
298.06495
298.04073
298.01945
298.00128
297.98638
297.97478
297.96623
297.96054
297.95843
297.96204
297.97337
297.98982
298.00127
314.65967
315.03367
314.76431
314.39575
313.87265
313.27878
312.64984
312.01146
311.37785
310.75765
310.15566
309.57445
309.01521
308.47828
307.96351
307.4704
306.99832
306.54651
306.1142
305.70059
305.30489
304.92634
304.56421
304.21781
303.88648
303.56958
303.26652
302.97673
302.69969
302.43488
302.18184
301.94009
301.70922
301.48879
301.27843
301.07775
300.8864
300.70401
300.53027
300.36484
300.20742
300.0577
299.91541
299.78025
299.65196
299.53027
299.41492
299.30566
299.20226
299.10446
299.01205
298.92481
298.84251
298.76495
298.69192
298.62324
298.55872
298.49818
298.44146
298.38839
298.33884
298.29267
298.24977
298.21005
298.17342
298.13981
298.10917
298.08144
298.05663
298.03477
298.01593
298.0002
297.9876
297.9781
297.97174
297.96897
297.97072
297.97763
297.98825
297.99778
316.66262
316.83104
316.25658
315.49317
314.7126
313.93088
313.16839
312.43277
311.72749
311.05355
310.41064
309.79783
309.21385
308.65729
308.12674
307.6208
307.13813
306.67749
306.23771
305.8177
305.41644
305.033
304.66651
304.31618
303.98124
303.66102
303.35485
303.06213
302.78231
302.51483
302.25922
302.01498
301.78168
301.55889
301.3462
301.14325
300.94965
300.76506
300.58914
300.42157
300.26203
300.11024
299.96589
299.8287
299.69842
299.57476
299.45748
299.34632
299.24105
299.14143
299.04723
298.95822
298.8742
298.79496
298.7203
298.65002
298.58395
298.52191
298.46373
298.40926
298.35836
298.31091
298.26679
298.22591
298.18819
298.15354
298.12192
298.09328
298.06761
298.04494
298.02531
298.00877
297.99535
297.98513
297.97823
297.9749
297.97536
297.97963
297.98698
297.99557
310.21362
308.8767
305.19511
302.27635
300.98269
300.69097
300.62267
300.61992
300.50824
300.45142
300.34678
300.27651
300.19009
300.10334
300.01696
299.93017
299.84272
299.75458
299.66574
299.57628
299.48627
299.39584
299.30509
299.21416
299.1232
299.03233
298.9417
298.85145
298.76172
298.67265
298.58437
298.49701
298.41071
298.32559
298.24179
298.15944
298.07867
297.9996
297.92238
297.84712
297.77397
297.70306
297.63451
297.56848
297.50509
297.44448
297.38679
297.33216
297.28073
297.23263
297.18798
297.14693
297.10958
297.07607
297.04649
297.02096
296.99956
296.98237
296.96946
296.9609
296.9568
296.95723
296.96225
296.97192
296.98634
297.00557
297.02971
297.05873
297.09283
297.13137
297.17565
297.2219
297.27756
297.32598
297.39834
297.43434
297.54276
297.55489
297.73734
297.7683
309.38132
306.47226
302.27053
300.19325
299.61573
299.6165
299.71767
299.72949
299.72433
299.69852
299.67519
299.63791
299.59524
299.54779
299.4964
299.44119
299.38261
299.32096
299.25654
299.18968
299.12065
299.04974
298.97719
298.90325
298.82817
298.75216
298.67544
298.59822
298.52071
298.4431
298.36559
298.28836
298.2116
298.13548
298.06018
297.98588
297.91275
297.84096
297.77066
297.70204
297.63525
297.57046
297.50782
297.4475
297.38965
297.33444
297.28202
297.23253
297.18614
297.14298
297.10318
297.0669
297.03424
297.00534
296.98029
296.95921
296.94217
296.92924
296.92049
296.91599
296.91581
296.92004
296.92871
296.94187
296.9596
296.98194
297.00896
297.04061
297.07704
297.11767
297.16362
297.21153
297.26802
297.31786
297.38992
297.42802
297.53526
297.55031
297.73514
297.76485
307.97259
304.38942
301.2647
299.55602
299.22247
299.26312
299.29814
299.27295
299.24495
299.21274
299.1813
299.14668
299.1104
299.07116
299.02974
298.9859
298.93986
298.8916
298.8412
298.78877
298.7344
298.67824
298.62039
298.561
298.50022
298.43821
298.37512
298.31113
298.2464
298.18112
298.11547
298.04963
297.98378
297.91813
297.85284
297.78813
297.72416
297.66114
297.59926
297.53869
297.47964
297.42228
297.3668
297.31338
297.2622
297.21344
297.16727
297.12386
297.08338
297.04597
297.01178
296.98096
296.95364
296.92994
296.90998
296.89384
296.88162
296.87337
296.86916
296.86904
296.8731
296.88139
296.89394
296.91079
296.932
296.95758
296.98759
297.02195
297.06078
297.10354
297.15123
297.20078
297.25823
297.30936
297.3815
297.42136
297.5281
297.5458
297.73287
297.76188
306.77523
302.93232
300.09718
298.8035
298.75103
298.76836
298.78592
298.75056
298.73242
298.70367
298.6799
298.65107
298.62202
298.591
298.55887
298.52511
298.48988
298.45304
298.4146
298.37456
298.33293
298.28975
298.24505
298.19889
298.15136
298.10254
298.05252
298.00143
297.94939
297.89655
297.84304
297.78903
297.73468
297.68017
297.62568
297.57139
297.5175
297.4642
297.41169
297.36016
297.30981
297.26085
297.21347
297.16788
297.12426
297.08282
297.04373
297.00719
296.97336
296.94241
296.91451
296.88979
296.86839
296.85045
296.83607
296.82536
296.81838
296.81522
296.8159
296.82049
296.82907
296.84167
296.85833
296.87906
296.90389
296.93285
296.96595
297.0031
297.04438
297.08931
297.13878
297.18996
297.24846
297.30079
297.37322
297.41466
297.52124
297.54135
297.73067
297.75929
306.07241
301.72167
299.13439
298.17783
298.25494
298.2302
298.2564
298.22007
298.21343
298.18923
298.17396
298.1523
298.13194
298.10978
298.08705
298.06307
298.03803
298.01177
297.98426
297.95546
297.92535
297.89392
297.86116
297.82709
297.79175
297.75516
297.71739
297.67852
297.63862
297.59779
297.55616
297.51384
297.47098
297.42773
297.38424
297.3407
297.29726
297.25414
297.21151
297.16957
297.12854
297.0886
297.04997
297.01286
296.97747
296.94399
296.91264
296.88359
296.85703
296.83314
296.81207
296.79399
296.77904
296.76733
296.75899
296.75411
296.75278
296.75504
296.76094
296.77053
296.78388
296.80103
296.82198
296.84675
296.87535
296.9078
296.94407
296.98407
297.02785
297.07497
297.12624
297.17904
297.23866
297.29218
297.36504
297.40793
297.51464
297.53701
297.72855
297.75708
305.50456
300.53568
298.33443
297.57788
297.72618
297.67142
297.71756
297.68188
297.69012
297.67264
297.66839
297.65544
297.64485
297.63217
297.61916
297.60502
297.58993
297.57376
297.5565
297.53812
297.51859
297.49789
297.47603
297.45298
297.42877
297.40341
297.37694
297.34939
297.32084
297.29134
297.26098
297.22986
297.1981
297.16582
297.13316
297.10027
297.06731
297.03445
297.00188
296.96978
296.93835
296.90779
296.8783
296.8501
296.82338
296.79835
296.77521
296.75414
296.73534
296.71898
296.70523
296.69425
296.68617
296.68112
296.67921
296.68054
296.68518
296.69318
296.70459
296.71943
296.73779
296.75967
296.78509
296.81405
296.84654
296.88256
296.92206
296.96496
297.01128
297.0606
297.11369
297.16811
297.22888
297.28361
297.35697
297.40128
297.50829
297.53286
297.72655
297.75523
304.92726
299.48663
297.68598
297.03026
297.22608
297.14531
297.21114
297.17395
297.19467
297.1818
297.18662
297.18088
297.17827
297.17334
297.16833
297.16239
297.15568
297.1481
297.13963
297.13024
297.11991
297.1086
297.09629
297.08298
297.06866
297.05333
297.037
297.01971
297.0015
296.9824
296.96248
296.94182
296.9205
296.89864
296.87635
296.85375
296.83099
296.80822
296.78562
296.76335
296.74159
296.72053
296.70038
296.68132
296.66355
296.64727
296.63268
296.61995
296.60928
296.60083
296.59478
296.59126
296.59041
296.59237
296.59722
296.60507
296.61599
296.63001
296.64716
296.66749
296.69104
296.71784
296.74787
296.78112
296.8176
296.85725
296.90005
296.94588
296.99474
297.04628
297.10118
297.15722
297.21916
297.27513
297.34904
297.39476
297.50217
297.52897
297.72469
297.75373
304.44964
298.53889
297.13842
296.52901
296.76439
296.65842
296.74303