/*--------------------------------*- C++ -*----------------------------------*\
  =========                 |
  \\      /  F ield         | OpenFOAM: The Open Source CFD Toolbox
   \\    /   O peration     | Website:  https://openfoam.org
    \\  /    A nd           | Version:  12
     \\/     M anipulation  |
\*---------------------------------------------------------------------------*/
FoamFile
{
    format      ascii;
    class       volScalarField;
    location    "0.042";
    object      k;
}
// * * * * * * * * * * * * * * * * * * * * * * * * * * * * * * * * * * * * * //

dimensions      [0 2 -2 0 0 0 0];

internalField   nonuniform List<scalar> 
16000
(
0.049967255
0.02180237
0.022799185
0.01679876
0.014222658
0.012859904
0.012057801
0.01157492
0.011250397
0.011031574
0.010869688
0.010749647
0.010655838
0.010581717
0.010522162
0.010474145
0.010434964
0.010402851
0.010376753
0.010355257
0.010337895
0.010323709
0.010312384
0.010303479
0.010296551
0.010291372
0.01028772
0.010285425
0.010284346
0.010284351
0.010285322
0.01028716
0.010289792
0.010293157
0.010297207
0.010301895
0.010307175
0.010313004
0.010319336
0.010326129
0.010333329
0.01034088
0.010348726
0.010356805
0.010365047
0.010373374
0.010381713
0.010389995
0.010398151
0.010406112
0.010413807
0.010421148
0.010428003
0.010434168
0.010439323
0.010443029
0.010444754
0.010443929
0.010440001
0.01043255
0.010421347
0.010406261
0.010387417
0.010365186
0.010340471
0.010315402
0.010294338
0.01028364
0.010282112
0.010294326
0.010332889
0.010380786
0.010421288
0.010434676
0.010404003
0.010279028
0.010158889
0.010063716
0.010023935
0.010031368
0.047273763
0.020625624
0.021332974
0.016247056
0.013877102
0.012663684
0.011897169
0.011463377
0.011152204
0.010950897
0.010799386
0.010688166
0.010600867
0.010532275
0.010477225
0.0104331
0.01039732
0.010368098
0.01034464
0.010325441
0.010310221
0.010297972
0.010288416
0.010281188
0.01027583
0.010272125
0.010269861
0.010268872
0.010269023
0.010270193
0.010272263
0.010275136
0.010278734
0.010282995
0.010287869
0.010293308
0.010299269
0.010305706
0.010312576
0.010319837
0.010327443
0.010335339
0.010343474
0.010351795
0.01036024
0.010368737
0.01037722
0.010385624
0.010393888
0.01040195
0.01040975
0.01041721
0.010424216
0.010430581
0.010436004
0.010440041
0.010442123
0.01044164
0.010437957
0.010430605
0.010419316
0.010403976
0.010384723
0.010362002
0.010336886
0.010311766
0.010291275
0.010281692
0.010280614
0.010295096
0.010335071
0.010381635
0.010418088
0.010426819
0.010380903
0.010256551
0.010141599
0.010051689
0.010019619
0.010033933
0.043287517
0.019787018
0.019979241
0.015674898
0.013521826
0.012437093
0.01172992
0.011338245
0.011051453
0.010868524
0.010728393
0.010626474
0.010546181
0.010483438
0.010433219
0.01039322
0.010361075
0.010334933
0.010314306
0.010297567
0.010284627
0.01027445
0.010266779
0.010261325
0.010257625
0.010255477
0.010254677
0.010255063
0.010256508
0.010258896
0.010262113
0.010266061
0.010270661
0.010275848
0.010281571
0.01028778
0.010294433
0.010301482
0.010308886
0.010316602
0.01032459
0.010332798
0.010341179
0.010349686
0.010358266
0.010366855
0.010375394
0.010383825
0.010392095
0.01040015
0.010407935
0.010415386
0.010422396
0.010428791
0.010434281
0.010438414
0.010440585
0.010440207
0.010436428
0.010428853
0.010417145
0.010401246
0.010381347
0.010357987
0.010332452
0.010307495
0.010288091
0.010280116
0.010279665
0.010297438
0.010338617
0.010383355
0.010414898
0.010416494
0.010353336
0.010232379
0.010124322
0.010042749
0.010015725
0.010040744
0.039725862
0.019219477
0.018805061
0.015162307
0.013199863
0.01223171
0.011576635
0.011224473
0.010958802
0.010792601
0.010663348
0.010570042
0.010496441
0.010439241
0.010393648
0.010357593
0.010328969
0.010305793
0.010287922
0.010273574
0.010262861
0.01025472
0.010248901
0.010245186
0.010243117
0.010242502
0.01024314
0.010244877
0.010247588
0.010251163
0.010255492
0.010260476
0.010266034
0.010272098
0.010278614
0.010285531
0.010292806
0.010300393
0.010308248
0.010316332
0.010324606
0.010333026
0.010341547
0.010350131
0.010358732
0.010367298
0.010375775
0.010384114
0.01039227
0.010400198
0.010407851
0.010415172
0.010422065
0.010428362
0.010433779
0.010437859
0.010439953
0.010439656
0.010435546
0.010427599
0.010415333
0.010398749
0.010378123
0.010354113
0.010328229
0.010303591
0.010285417
0.010278616
0.010279147
0.010300201
0.010341103
0.010383024
0.010409952
0.010401739
0.010324851
0.010209339
0.010108905
0.010036017
0.010012708
0.010049618
0.036577406
0.018882994
0.017801445
0.014686747
0.012899731
0.012037157
0.011432568
0.011116781
0.010872108
0.010721584
0.010603016
0.010517945
0.010450901
0.0103991
0.010358055
0.010325856
0.010300726
0.010280473
0.010265345
0.010253373
0.010244879
0.010238775
0.010234828
0.010232839
0.010232405
0.010233319
0.010235395
0.010238479
0.010242447
0.010247193
0.010252609
0.010258597
0.010265073
0.010271966
0.010279218
0.010286778
0.010294601
0.010302641
0.010310858
0.010319211
0.010327666
0.010336186
0.010344731
0.010353269
0.010361765
0.010370176
0.010378459
0.010386574
0.010394482
0.01040215
0.010409537
0.010416592
0.010423226
0.010429276
0.010434457
0.010438307
0.010440153
0.010439512
0.010435076
0.010426562
0.010413562
0.010396136
0.010374677
0.010349991
0.010323812
0.010299606
0.010282618
0.010276821
0.010279101
0.010302921
0.010342289
0.010380492
0.010401359
0.010383662
0.010296778
0.010187884
0.010095428
0.010030994
0.01001113
0.010053423
0.034303334
0.018792967
0.017050191
0.014250536
0.012623127
0.011855832
0.011299152
0.011016766
0.010792312
0.010656246
0.010548056
0.010470773
0.010410083
0.010363494
0.010326879
0.01029842
0.010276733
0.010259342
0.010246928
0.010237319
0.010231025
0.010226952
0.010224943
0.010224623
0.010225832
0.01022826
0.010231764
0.010236179
0.010241381
0.010247265
0.010253726
0.010260665
0.010267994
0.010275639
0.010283542
0.010291648
0.010299913
0.010308292
0.010316746
0.010325238
0.01033374
0.010342218
0.010350643
0.010358989
0.010367231
0.01037534
0.010383282
0.010391025
0.010398543
0.010405809
0.010412789
0.010419439
0.010425672
0.010431324
0.010436108
0.010439556
0.01044099
0.010439769
0.010434816
0.010425566
0.01041168
0.010393289
0.010370924
0.010345563
0.010319159
0.010295384
0.010279372
0.01027458
0.010279528
0.010304814
0.010341684
0.010375533
0.010389641
0.010360986
0.010270108
0.010168435
0.010084056
0.010027499
0.010010284
0.010048804
0.032048934
0.018877359
0.016518095
0.013850367
0.012368109
0.01168712
0.011176202
0.010924331
0.010719385
0.010596608
0.010498452
0.010428562
0.01037403
0.0103325
0.01030023
0.010275424
0.010257152
0.010242603
0.010232881
0.010225676
0.010221564
0.010219521
0.010219729
0.010220852
0.010223684
0.010227646
0.010232565
0.010238289
0.010244691
0.010251665
0.010259109
0.010266921
0.010275014
0.010283309
0.010291746
0.010300272
0.01030884
0.010317411
0.010325948
0.010334421
0.010342804
0.010351075
0.010359213
0.010367199
0.010375024
0.010382667
0.010390108
0.010397325
0.010404301
0.010411017
0.010417447
0.010423548
0.010429233
0.010434336
0.01043856
0.010441427
0.010442266
0.010440291
0.010434585
0.010424431
0.010409523
0.010390067
0.010366745
0.010340728
0.010314154
0.010290762
0.010275674
0.010271819
0.010279999
0.010305201
0.010339125
0.010368358
0.010374857
0.010334869
0.010245241
0.010150905
0.010074652
0.010025333
0.01000928
0.010034124
0.029304761
0.019064299
0.016101021
0.013483852
0.012133213
0.011530912
0.011063481
0.010839449
0.010653098
0.010542599
0.010454162
0.010391368
0.010342844
0.010306276
0.010278313
0.010257113
0.010242244
0.010230572
0.01022347
0.01021884
0.010216811
0.010216827
0.010218592
0.010221915
0.010226372
0.010231843
0.010238149
0.010245139
0.010252683
0.010260671
0.010269004
0.010277578
0.010286306
0.010295109
0.010303925
0.010312701
0.010321396
0.010329973
0.010338404
0.010346663
0.010354735
0.010362606
0.010370268
0.010377711
0.010384937
0.010391941
0.010398714
0.010405245
0.010411526
0.010417546
0.010423282
0.010428693
0.010433689
0.010438093
0.010441597
0.010443712
0.010443754
0.010440878
0.010434198
0.010422986
0.010406944
0.010386351
0.010362045
0.010335404
0.010308722
0.010285746
0.01027128
0.010268599
0.010279315
0.010303597
0.010334256
0.010358277
0.0103569
0.010308541
0.01022187
0.010134946
0.010066793
0.010024448
0.0100087
0.010023987
0.027411977
0.019265438
0.015653078
0.01314789
0.011916752
0.011386538
0.01096011
0.010761304
0.010593393
0.010494414
0.010415384
0.010359463
0.010316828
0.010285156
0.010261488
0.010243887
0.010232336
0.0102237
0.010218869
0.010217049
0.010215682
0.010219538
0.010223222
0.010228217
0.010234295
0.010241239
0.010248878
0.010257059
0.010265647
0.010274533
0.010283614
0.010292793
0.01030198
0.010311099
0.010320089
0.010328902
0.010337502
0.010345861
0.010353958
0.010361779
0.010369319
0.010376577
0.010383555
0.010390259
0.010396699
0.010402887
0.010408825
0.010414513
0.01041995
0.010425131
0.010430037
0.010434623
0.010438793
0.010442359
0.010444995
0.010446191
0.010445247
0.010441308
0.010433488
0.010421081
0.010403813
0.010382039
0.010356748
0.010329523
0.010302798
0.01028026
0.01026641
0.010264794
0.010276654
0.010299735
0.010326835
0.010345047
0.010336183
0.010282054
0.010199616
0.010120273
0.010060118
0.010024682
0.010009832
0.01001525
0.025735013
0.019446505
0.014994345
0.012839742
0.011718484
0.01125415
0.01086666
0.010691051
0.01054082
0.010452491
0.010382539
0.010333307
0.01029645
0.010269625
0.010250248
0.010236294
0.010227632
0.010222579
0.010218533
0.010221229
0.010223991
0.010227844
0.010233485
0.010240233
0.010247877
0.01025622
0.010265091
0.010274336
0.010283818
0.010293425
0.010303058
0.010312622
0.010322032
0.010331216
0.010340121
0.010348707
0.010356945
0.01036482
0.010372323
0.010379455
0.010386222
0.010392638
0.010398719
0.010404482
0.010409953
0.010415152
0.010420097
0.010424794
0.01042925
0.010433463
0.010437415
0.010441055
0.010444276
0.010446876
0.010448509
0.010448643
0.010446559
0.010441401
0.010432301
0.010418586
0.010400027
0.010377053
0.010350796
0.010323034
0.010296325
0.010274255
0.010261051
0.01026007
0.010271972
0.010293429
0.010316584
0.010328621
0.010312661
0.010255254
0.010178218
0.01010673
0.010054488
0.010026134
0.010015414
0.010008183
0.02415083
0.019597021
0.014433742
0.012556849
0.011538918
0.01113425
0.01078395
0.010629265
0.010495636
0.010417253
0.010356075
0.010313407
0.010282247
0.010260242
0.010245146
0.010235027
0.010227482
0.010227904
0.010228921
0.010231382
0.010236146
0.010242517
0.010249998
0.010258406
0.010267514
0.010277121
0.010287058
0.010297171
0.010307323
0.010317402
0.010327313
0.010336969
0.010346297
0.010355234
0.010363737
0.010371779
0.010379347
0.01038644
0.010393066
0.01039924
0.010404986
0.01041033
0.010415304
0.010419939
0.010424268
0.010428325
0.010432135
0.010435714
0.010439071
0.010442206
0.010445096
0.010447685
0.010449852
0.010451377
0.010451893
0.010450846
0.010447499
0.010440998
0.010430506
0.010415399
0.010395512
0.010371348
0.010344161
0.010315908
0.010289244
0.010267626
0.010254953
0.010254147
0.010265311
0.010284485
0.010303187
0.010308791
0.010286218
0.010228293
0.010157629
0.010094363
0.010050106
0.010028162
0.010022383
0.010005987
0.022749987
0.019732724
0.013950411
0.012299319
0.011378172
0.011026696
0.010711843
0.010575704
0.010458185
0.010389212
0.010336521
0.010300344
0.010274824
0.010257649
0.010246794
0.01024095
0.01023922
0.010239651
0.010243073
0.010248643
0.010255687
0.010263959
0.010273204
0.010283133
0.010293524
0.010304177
0.010314924
0.010325615
0.010336119
0.010346328
0.010356155
0.010365531
0.010374398
0.010382709
0.010390441
0.010397585
0.010404145
0.010410141
0.010415598
0.01042055
0.010425035
0.010429096
0.010432775
0.010436114
0.010439158
0.010441945
0.010444508
0.010446868
0.010449036
0.010451006
0.010452754
0.010454209
0.010455238
0.010455601
0.010454908
0.010452587
0.010447888
0.010439959
0.010428
0.010411455
0.010390233
0.010364911
0.010336845
0.010308131
0.010281489
0.010260208
0.010247797
0.010246705
0.010256507
0.010272715
0.010286498
0.010285647
0.010257533
0.010201786
0.010138252
0.010083552
0.010046878
0.010030402
0.010031308
0.010007929
0.021482487
0.019836351
0.01351345
0.012067478
0.011235933
0.010931339
0.010650421
0.010531099
0.01042884
0.010368907
0.010324471
0.010294767
0.010274875
0.010262569
0.010256008
0.010253826
0.010255075
0.010259262
0.010265481
0.010273357
0.010282544
0.010292685
0.010303487
0.010314691
0.010326074
0.010337437
0.01034862
0.010359483
0.010369906
0.010379798
0.010389089
0.010397732
0.010405694
0.010412954
0.010419513
0.010425384
0.010430596
0.010435187
0.010439202
0.010442692
0.010445709
0.010448307
0.010450541
0.010452459
0.01045411
0.010455539
0.010456779
0.010457853
0.01045877
0.01045952
0.010460068
0.010460334
0.010460165
0.010459303
0.010457339
0.010453683
0.010447576
0.010438176
0.010424721
0.010406727
0.010384191
0.010357765
0.010328872
0.010299697
0.010272988
0.010251839
0.010239341
0.010237454
0.010245282
0.010257949
0.010266552
0.010259762
0.010228054
0.010176607
0.010120738
0.01007472
0.010044836
0.010031598
0.010038057
0.010008879
0.020341114
0.019857427
0.013115488
0.011859407
0.01111146
0.01084829
0.010599816
0.010495697
0.010408073
0.010356995
0.010320665
0.010297462
0.010283226
0.010275835
0.010273617
0.010275338
0.010280087
0.010287146
0.01029601
0.010306197
0.01031731
0.010329021
0.010341047
0.010353134
0.010365065
0.010376655
0.010387756
0.01039825
0.010408043
0.01041707
0.01042529
0.010432689
0.010439265
0.010445032
0.010450016
0.010454258
0.010457809
0.010460726
0.010463072
0.01046491
0.010466303
0.010467315
0.010468004
0.010468424
0.010468624
0.010468647
0.010468528
0.010468287
0.010467927
0.01046743
0.010466751
0.010465796
0.010464397
0.010462275
0.010459005
0.010453986
0.010446455
0.010435582
0.010420644
0.010401231
0.010377429
0.010349962
0.010320288
0.010290618
0.010263691
0.010242405
0.010229425
0.010226219
0.010231473
0.010240108
0.010243586
0.010231901
0.010199575
0.010153667
0.010105805
0.01006805
0.010043485
0.010031931
0.010040879
0.010011776
0.019313734
0.019705265
0.012756366
0.011673799
0.011004469
0.010777765
0.010560334
0.010470211
0.010396615
0.010354384
0.010326072
0.010309437
0.010300905
0.010298473
0.0103006
0.010306122
0.010314183
0.010324133
0.010335408
0.010347561
0.010360213
0.010373038
0.010385762
0.010398146
0.010409997
0.010421155
0.010431504
0.010440963
0.010449477
0.010457023
0.010463599
0.01046923
0.010473951
0.010477812
0.010480867
0.01048318
0.010484823
0.010485867
0.010486386
0.010486453
0.010486135
0.010485499
0.010484604
0.010483503
0.010482242
0.010480861
0.010479388
0.010477836
0.010476205
0.010474466
0.010472561
0.010470382
0.010467744
0.010464354
0.010459773
0.010453393
0.010444457
0.010432152
0.010415788
0.010395022
0.010370025
0.010341586
0.010311167
0.010280945
0.010253605
0.010231855
0.010217948
0.010212904
0.010215094
0.010219429
0.010218211
0.010203249
0.01017348
0.010133697
0.010093716
0.010063089
0.010042571
0.010031921
0.010037626
0.010015436
0.01838464
0.018965124
0.012432918
0.011510081
0.010915231
0.010720179
0.010532524
0.010455595
0.01039554
0.010362256
0.010341931
0.010331925
0.010329113
0.010331612
0.010337992
0.01034716
0.010358289
0.010370735
0.010383973
0.010397553
0.01041111
0.010424337
0.010436989
0.010448865
0.010459813
0.010469724
0.010478533
0.01048621
0.010492757
0.010498201
0.010502586
0.010505977
0.010508446
0.010510071
0.010510934
0.010511114
0.010510696
0.01050976
0.010508383
0.010506641
0.010504599
0.010502321
0.010499864
0.010497273
0.01049459
0.010491845
0.010489059
0.010486238
0.010483371
0.01048042
0.010477315
0.010473932
0.010470073
0.010465433
0.010459562
0.010451855
0.010441567
0.010427906
0.010410215
0.010388197
0.010362096
0.010332757
0.010301624
0.010270778
0.010242796
0.010220209
0.010204914
0.010197575
0.010196353
0.010196633
0.010191687
0.01017677
0.010150383
0.01011681
0.010083955
0.010058984
0.010041385
0.010031064
0.010033699
0.010017615
0.017544158
0.017609515
0.012146431
0.011367887
0.010842825
0.010676456
0.010517439
0.010453278
0.010406309
0.010382097
0.010369711
0.010366314
0.010369127
0.01037638
0.010386731
0.010399142
0.01041281
0.010427113
0.010441541
0.010455676
0.010469189
0.010481822
0.010493386
0.010503749
0.010512828
0.010520588
0.010527032
0.010532196
0.010536141
0.010538946
0.010540698
0.010541496
0.010541441
0.010540631
0.010539162
0.010537125
0.010534604
0.010531681
0.010528431
0.010524922
0.010521215
0.010517365
0.01051342
0.010509418
0.01050539
0.010501359
0.010497333
0.01049331
0.010489267
0.010485157
0.010480898
0.010476354
0.010471314
0.010465463
0.01045835
0.010449377
0.010437818
0.01042291
0.010404022
0.010380886
0.010353794
0.010323629
0.010291805
0.010260249
0.010231373
0.010207579
0.010190502
0.010180523
0.010175791
0.010173018
0.01016689
0.010152968
0.010130324
0.010102436
0.010075572
0.010054856
0.010039489
0.010029771
0.010030488
0.010017369
0.016788206
0.016709391
0.011904028
0.011247639
0.010788125
0.010648009
0.010516596
0.010464962
0.010430639
0.010415557
0.01041098
0.010414021
0.01042216
0.010433722
0.010447435
0.010462311
0.010477581
0.010492659
0.010507096
0.01052054
0.010532742
0.010543534
0.010552823
0.010560574
0.010566798
0.010571544
0.010574891
0.010576938
0.0105778
0.010577596
0.010576447
0.010574471
0.010571784
0.010568491
0.010564691
0.010560472
0.010555916
0.010551095
0.010546074
0.010540911
0.010535656
0.010530354
0.010525039
0.010519741
0.010514478
0.010509262
0.010504091
0.010498953
0.010493814
0.010488617
0.010483268
0.010477621
0.010471458
0.010464457
0.01045617
0.010446015
0.010433293
0.01041727
0.01039734
0.010373249
0.010345293
0.010314371
0.01028186
0.010249514
0.010219528
0.010194227
0.010175044
0.010162302
0.010155533
0.01015091
0.010144116
0.010131644
0.010112617
0.010089599
0.010067445
0.010050036
0.010036855
0.010028067
0.010027136
0.010017787
0.016109333
0.015692154
0.011696985
0.011149863
0.010752118
0.010636555
0.010531647
0.010492564
0.010470459
0.010464434
0.010467345
0.010476342
0.010489103
0.010504041
0.010519962
0.010535954
0.010551333
0.010565613
0.010578463
0.010589658
0.010599081
0.010606696
0.010612529
0.010616658
0.010619189
0.010620253
0.010619991
0.010618552
0.010616082
0.010612725
0.010608614
0.010603871
0.01059861
0.010592933
0.010586928
0.010580674
0.01057424
0.010567683
0.010561057
0.010554404
0.010547762
0.01054116
0.010534623
0.010528165
0.010521795
0.010515513
0.010509308
0.010503155
0.01049701
0.010490808
0.010484446
0.01047777
0.010470555
0.01046248
0.010453108
0.010441874
0.010428112
0.010411123
0.010390326
0.010365457
0.010336779
0.01030516
0.010271946
0.010238762
0.010207513
0.010180398
0.010159016
0.010145033
0.010136503
0.010130415
0.010123284
0.010112219
0.010096307
0.010077329
0.010058995
0.010044402
0.010033328
0.010025794
0.010024011
0.01001857
0.015501445
0.014984278
0.011527289
0.011075157
0.010735844
0.010644286
0.010564776
0.010538442
0.010528011
0.010530588
0.010540161
0.01055398
0.010569921
0.010586524
0.010602745
0.010617838
0.010631296
0.010642816
0.010652253
0.010659565
0.010664796
0.010668054
0.010669487
0.010669269
0.010667584
0.010664615
0.010660541
0.010655531
0.010649743
0.010643318
0.010636383
0.01062905
0.010621418
0.010613572
0.010605586
0.01059752
0.010589427
0.010581349
0.01057332
0.010565371
0.010557523
0.010549793
0.010542192
0.010534723
0.010527383
0.010520162
0.010513037
0.010505975
0.010498924
0.010491807
0.010484515
0.010476891
0.010468706
0.010459648
0.01044929
0.010437094
0.010422429
0.010404635
0.01038315
0.010357693
0.010328453
0.010296211
0.010262274
0.01022821
0.010195588
0.010166343
0.01014423
0.010128888
0.01011878
0.010111416
0.010103983
0.010094076
0.010080753
0.010065169
0.010050074
0.010037923
0.0100289
0.010023059
0.010021136
0.010018213
0.014958657
0.014219276
0.011391759
0.011026183
0.010741213
0.01067455
0.010619045
0.010605336
0.010605422
0.010615222
0.0106296
0.01064603
0.010662672
0.01067833
0.010692237
0.010703933
0.010713186
0.01071994
0.010724273
0.010726333
0.010726319
0.010724455
0.010720976
0.010716113
0.010710086
0.010703097
0.010695327
0.010686939
0.010678075
0.010668857
0.010659393
0.010649772
0.010640069
0.010630347
0.010620659
0.010611048
0.010601546
0.01059218
0.010582968
0.010573925
0.01056506
0.010556375
0.010547869
0.010539537
0.010531363
0.010523328
0.0105154
0.010507536
0.010499676
0.010491738
0.010483606
0.010475119
0.010466056
0.010456109
0.010444875
0.010431844
0.010416423
0.010397988
0.010375996
0.010350139
0.010320524
0.010287788
0.010253115
0.010218072
0.0101843
0.010153574
0.010130602
0.010113893
0.010102269
0.010093694
0.010085894
0.010076874
0.010065695
0.010052987
0.010040706
0.01003079
0.010023638
0.010019475
0.010017942
0.010015276
0.014480275
0.013616648
0.011294824
0.011007608
0.010772217
0.010731433
0.010697608
0.010695145
0.010703219
0.010717328
0.01073323
0.010748832
0.010762764
0.010774268
0.01078298
0.010788807
0.010791829
0.010792244
0.010790319
0.010786347
0.010780624
0.010773436
0.010765045
0.01075569
0.010745583
0.010734906
0.010723818
0.010712452
0.010700917
0.010689308
0.010677702
0.01066616
0.010654733
0.01064346
0.010632372
0.010621491
0.010610835
0.010600413
0.010590232
0.01058029
0.010570586
0.010561111
0.010551853
0.010542796
0.010533917
0.010525186
0.010516566
0.010508004
0.010499433
0.010490766
0.010481884
0.010472627
0.010462778
0.010452046
0.01044005
0.010426316
0.010410288
0.010391379
0.010369058
0.010342989
0.01031319
0.010280147
0.010244833
0.010208642
0.010173428
0.010142284
0.010118189
0.01010003
0.010086886
0.010077111
0.010068865
0.010060498
0.010051089
0.010040843
0.010030991
0.010022981
0.01001754
0.010014942
0.010014266
0.010012101
0.014071548
0.013141545
0.011239122
0.011024541
0.010852225
0.010818043
0.010801615
0.010806769
0.010818344
0.010832156
0.010845066
0.010855653
0.0108632
0.010867484
0.010868581
0.01086674
0.010862298
0.010855622
0.010847085
0.010837036
0.01082579
0.010813623
0.010800774
0.010787444
0.010773803
0.010759991
0.010746124
0.010732294
0.010718576
0.010705028
0.010691697
0.010678618
0.010665815
0.010653308
0.010641108
0.010629221
0.010617647
0.010606385
0.010595427
0.010584763
0.010574381
0.010564263
0.010554389
0.010544733
0.010535265
0.010525949
0.010516739
0.010507576
0.010498389
0.010489085
0.010479544
0.010469609
0.010459072
0.010447661
0.010435022
0.010420717
0.01040423
0.01038501
0.010362536
0.010336439
0.010306638
0.010273471
0.010237741
0.010200698
0.010164234
0.010132428
0.010107071
0.010087345
0.010072622
0.010061614
0.010052826
0.010044886
0.0100369
0.010028747
0.010021077
0.010014906
0.010011044
0.010009895
0.010010529
0.01000953
0.013741579
0.012756937
0.011228781
0.011077299
0.010953468
0.010933743
0.010927488
0.010934117
0.010943019
0.010950985
0.010956128
0.010957844
0.010956082
0.010951097
0.010943296
0.010933133
0.010921061
0.010907493
0.010892795
0.010877283
0.010861219
0.010844819
0.010828261
0.010811683
0.010795199
0.010778897
0.010762844
0.010747093
0.010731682
0.010716639
0.010701981
0.010687721
0.010673863
0.010660408
0.010647351
0.010634686
0.010622401
0.010610483
0.010598917
0.010587683
0.010576762
0.010566127
0.010555753
0.010545608
0.010535654
0.010525849
0.010516142
0.010506469
0.010496755
0.010486903
0.010476794
0.010466277
0.010455154
0.010443174
0.010430012
0.010415267
0.010398464
0.010379084
0.010356623
0.010330677
0.010301069
0.010267977
0.010232027
0.010194348
0.010156855
0.010124112
0.010097366
0.010075955
0.010059545
0.010047205
0.010037746
0.010030004
0.010023144
0.010016804
0.010011191
0.010006943
0.010004828
0.010005335
0.010007465
0.010007397
0.013506647
0.012476472
0.011266808
0.011172364
0.011085159
0.011070184
0.011065188
0.011065927
0.011065783
0.011062937
0.011056701
0.011047185
0.0110348
0.011020064
0.011003494
0.010985562
0.010966679
0.010947183
0.010927351
0.010907403
0.010887511
0.01086781
0.010848399
0.010829355
0.010810733
0.010792571
0.010774895
0.010757723
0.010741061
0.010724913
0.010709275
0.01069414
0.010679497
0.010665334
0.010651634
0.010638381
0.010625554
0.010613133
0.010601095
0.010589415
0.010578066
0.01056702
0.010556243
0.010545699
0.010535346
0.010525137
0.010515016
0.010504917
0.010494759
0.010484447
0.010473863
0.010462861
0.010451258
0.01043882
0.010425255
0.010410197
0.010393211
0.010373811
0.010351506
0.010325872
0.010296648
0.01026385
0.010227907
0.010189794
0.010151407
0.010117456
0.010089216
0.010066039
0.010047841
0.010034031
0.010023745
0.010016001
0.010010013
0.010005247
0.010001565
0.0099992539
0.0099989235
0.010000958
0.010004119
0.01000439
0.013371961
0.012298562
0.011355862
0.011298814
0.011232325
0.011213902
0.01120036
0.011188492
0.011174596
0.011158134
0.011139207
0.011118268
0.011095839
0.011072405
0.011048383
0.011024106
0.010999838
0.010975781
0.010952083
0.010928855
0.010906173
0.01088409
0.01086264
0.010841842
0.010821705
0.010802228
0.010783407
0.010765229
0.01074768
0.010730745
0.010714403
0.010698636
0.010683421
0.010668736
0.010654557
0.010640861
0.010627621
0.010614811
0.010602405
0.010590372
0.010578683
0.010567304
0.010556199
0.010545328
0.010534647
0.010524103
0.010513639
0.010503185
0.010492662
0.010481974
0.010471005
0.010459618
0.010447641
0.01043486
0.010421009
0.010405758
0.010388709
0.010369408
0.010347379
0.010322185
0.010293501
0.010261213
0.010225539
0.010187232
0.010148064
0.010112643
0.010082792
0.010057821
0.010037833
0.01002247
0.010011168
0.010003209
0.0099978301
0.0099943708
0.0099924087
0.0099918318
0.0099927815
0.0099952681
0.0099985596
0.010001018
0.013297472
0.012221014
0.011509566
0.011440017
0.01137844
0.011346103
0.01131708
0.011289016
0.011260142
0.011230435
0.011200141
0.011169617
0.011139184
0.011109104
0.011079572
0.01105073
0.011022671
0.010995456
0.010969117
0.01094367
0.010919114
0.010895439
0.01087263
0.010850662
0.010829513
0.010809153
0.010789556
0.010770693
0.010752533
0.010735049
0.01071821
0.010701989
0.010686357
0.010671284
0.010656744
0.010642707
0.010629144
0.010616026
0.010603323
0.010591002
0.010579031
0.010567374
0.010555994
0.010544847
0.010533888
0.010523063
0.010512313
0.010501568
0.010490749
0.010479762
0.010468496
0.010456821
0.010444576
0.010431565
0.010417543
0.010402211
0.010385206
0.010366104
0.010344442
0.010319773
0.010291732
0.010260114
0.010224966
0.010186778
0.010147033
0.010109973
0.010078414
0.010051595
0.010029775
0.010012838
0.010000432
0.0099920316
0.0099869662
0.0099845104
0.0099840183
0.009985044
0.0099873689
0.0099907803
0.0099948378
0.0099989179
0.013298372
0.012175702
0.011664508
0.01157209
0.011499652
0.011449098
0.011403133
0.011360136
0.01131877
0.011278823
0.01124023
0.011203008
0.011167173
0.011132726
0.011099651
0.01106792
0.011037492
0.011008321
0.010980359
0.010953553
0.010927852
0.010903205
0.010879562
0.010856875
0.010835097
0.010814185
0.010794096
0.01077479
0.010756229
0.010738378
0.010721199
0.010704661
0.01068873
0.010673374
0.010658563
0.010644265
0.010630449
0.010617084
0.010604139
0.010591581
0.010579376
0.010567487
0.010555875
0.010544498
0.010533307
0.010522251
0.010511269
0.010500294
0.010489247
0.010478039
0.010466565
0.0104547
0.010442295
0.010429167
0.01041509
0.010399788
0.010382926
0.010364107
0.010342888
0.01031881
0.010291466
0.010260589
0.010226133
0.010188383
0.010148396
0.010109676
0.010076355
0.01004773
0.01002409
0.010005563
0.0099919748
0.0099829588
0.0099779362
0.0099761814
0.0099769243
0.0099794253
0.009983124
0.0099875831
0.0099924602
0.0099976254
0.013384553
0.012196627
0.011780121
0.0116685
0.011580944
0.011514621
0.011455849
0.011402591
0.011353184
0.011306955
0.011263451
0.011222373
0.011183492
0.011146622
0.011111605
0.011078304
0.011046597
0.011016375
0.010987541
0.010960006
0.01093369
0.010908517
0.010884421
0.010861339
0.010839213
0.010817989
0.010797619
0.010778055
0.010759256
0.010741179
0.010723788
0.010707046
0.010690918
0.01067537
0.01066037
0.010645886
0.010631885
0.010618338
0.01060521
0.010592469
0.010580081
0.010568009
0.010556215
0.010544655
0.010533284
0.010522049
0.010510893
0.01049975
0.010488545
0.010477193
0.010465593
0.010453628
0.010441156
0.010428006
0.010413968
0.010398785
0.010382143
0.010363668
0.010342934
0.010319485
0.010292878
0.010262764
0.010229011
0.010191846
0.010152035
0.010111837
0.010076682
0.010046344
0.010020971
0.01000094
0.0099862541
0.0099766581
0.0099715587
0.0099700998
0.0099714791
0.0099751026
0.0099800479
0.0099854467
0.0099910552
0.0099970498
0.01350832
0.012252997
0.011840341
0.011717304
0.011619595
0.011545028
0.011480204
0.011422471
0.011369748
0.011321033
0.011275646
0.011233125
0.011193123
0.011155372
0.011119654
0.011085786
0.011053614
0.011023005
0.010993843
0.010966025
0.010939459
0.010914064
0.010889765
0.010866495
0.010844193
0.010822802
0.01080227
0.010782549
0.010763595
0.010745366
0.010727822
0.010710927
0.010694646
0.010678943
0.010663787
0.010649145
0.010634985
0.010621276
0.010607985
0.01059508
0.010582525
0.010570286
0.010558323
0.010546595
0.010535057
0.010523659
0.010512344
0.01050105
0.010489704
0.010478224
0.010466514
0.01045446
0.010441927
0.010428751
0.010414735
0.010399636
0.010383161
0.010364957
0.010344614
0.010321679
0.010295692
0.01026625
0.010233105
0.010196336
0.0101566
0.010115731
0.010079118
0.010047375
0.010020545
0.009999243
0.0099836946
0.0099738182
0.0099691436
0.0099679345
0.0099679136
0.0099719521
0.0099782408
0.0099841463
0.0099900707
0.0099966137
75.226383
396.33564
139.46765
18.123409
0.52632165
0.021918836
0.019934539
0.019571601
0.019344059
0.018269985
0.017069533
0.015961096
0.015089545
0.014506288
0.014080846
0.013726708
0.013404115
0.013101053
0.012828773
0.012596259
0.012399916
0.012231733
0.012085591
0.011957477
0.011844367
0.0117438
0.011653826
0.011572898
0.011499805
0.011433583
0.011373429
0.011318642
0.011268626
0.011222889
0.011181045
0.011142769
0.011107768
0.011075756
0.011046453
0.011019588
0.010994902
0.010972132
0.010951024
0.010931357
0.010912936
0.010895589
0.010879166
0.010863547
0.010848644
0.01083438
0.01082069
0.010807546
0.010794946
0.010782849
0.010771191
0.010759949
0.010749085
0.010738505
0.010728061
0.010717551
0.010706606