/*--------------------------------*- C++ -*----------------------------------*\
  =========                 |
  \\      /  F ield         | OpenFOAM: The Open Source CFD Toolbox
   \\    /   O peration     | Website:  https://openfoam.org
    \\  /    A nd           | Version:  12
     \\/     M anipulation  |
\*---------------------------------------------------------------------------*/
FoamFile
{
    format      ascii;
    class       volScalarField;
    location    "0.042";
    object      omega;
}
// * * * * * * * * * * * * * * * * * * * * * * * * * * * * * * * * * * * * * //

dimensions      [0 0 -1 0 0 0 0];

internalField   nonuniform List<scalar> 
16000
(
1087.745
2182.9955
1068.5246
645.67479
454.78221
316.1998
239.64836
180.97901
145.62141
118.02127
100.18612
85.801323
75.064872
66.132015
58.82947
52.683676
47.494976
43.070882
39.27009
35.980727
33.118548
30.61244
28.404055
26.446906
24.703477
23.14462
21.746222
20.489626
19.358968
18.339766
17.419002
16.58643
15.833875
15.154415
14.542118
13.991473
13.497289
13.054693
12.659619
12.308605
11.997763
11.723056
11.481538
11.270483
11.086798
10.927372
10.789772
10.67169
10.570935
10.485454
10.413389
10.353065
10.302906
10.261527
10.227697
10.200333
10.17857
10.162127
10.1516
10.147135
10.143429
10.137235
10.129648
10.120629
10.110562
10.100327
10.091888
10.088119
10.087689
10.093953
10.11233
10.134313
10.152738
10.158818
10.147278
10.095957
10.046553
10.008688
9.9962777
10.004938
1129.3275
2174.2682
1059.568
646.26194
455.12905
319.32722
240.81767
182.91818
146.50933
119.092
100.76244
86.385514
75.446241
66.459778
59.069613
52.870893
47.633729
43.173285
39.343977
36.031873
33.15198
30.63285
28.415128
26.451613
24.703737
23.141952
21.741441
20.4832
19.351455
18.331948
17.411377
16.579132
15.826895
15.147633
14.53545
13.984903
13.490906
13.048516
12.653483
12.302477
11.99189
11.71746
11.4761
11.265216
11.081882
10.922841
10.78562
10.667925
10.567584
10.482542
10.410929
10.351093
10.301446
10.26059
10.227287
10.200456
10.179162
10.162896
10.15201
10.146928
10.14322
10.136924
10.129171
10.11996
10.109746
10.099494
10.091222
10.087789
10.087572
10.095315
10.114054
10.13524
10.151941
10.156197
10.138553
10.087131
10.039872
10.004429
9.9948684
10.007028
1169.3332
2175.5491
1048.4236
642.73632
451.91403
319.70426
239.81539
183.17122
146.11733
119.28482
100.64149
86.416572
75.363429
66.376819
58.952299
52.739781
47.490381
43.023493
39.191969
35.880058
33.00238
30.487592
28.275728
26.319347
24.579087
23.025294
21.632678
20.38196
19.257404
18.245099
17.331657
16.506199
15.760329
15.086925
14.480131
13.934558
13.445254
13.007315
12.616307
12.26889
11.961829
11.690738
11.452354
11.244124
11.063369
10.906725
10.771677
10.65595
10.557403
10.474005
10.403878
10.345414
10.297031
10.257335
10.22508
10.199201
10.178766
10.163134
10.152385
10.146864
10.142961
10.136444
10.128423
10.118962
10.108599
10.098423
10.090513
10.087622
10.087812
10.097426
10.116324
10.136526
10.150922
10.152867
10.127782
10.077599
10.033197
10.001547
9.9941793
10.011322
1207.5748
2183.0216
1038.5173
639.38558
448.25241
319.85579
238.49863
183.26676
145.5777
119.37233
100.46637
86.382992
75.237189
66.244885
58.793119
52.568828
47.310634
42.8399
39.008762
35.699487
32.826163
30.31771
28.113509
26.166011
24.43499
22.890734
21.507509
20.265738
19.149635
18.145684
17.240499
16.422906
15.68444
15.017866
14.417378
13.877615
13.393757
12.960997
12.574745
12.231512
11.928507
11.661282
11.426384
11.221199
11.043375
10.889453
10.756863
10.643347
10.546788
10.465204
10.396694
10.339702
10.292661
10.254185
10.223015
10.198092
10.178503
10.163516
10.152952
10.147034
10.142845
10.136062
10.12774
10.118026
10.107544
10.097513
10.090044
10.087584
10.088407
10.09953
10.118062
10.137057
10.149438
10.147676
10.11653
10.068516
10.027311
9.9995851
9.9937926
10.016237
1243.8833
2200.3898
1030.3017
635.57434
443.77811
319.25871
236.48325
182.86677
144.65299
119.17737
100.10031
86.170851
74.970003
65.979518
58.517773
52.292945
47.03702
42.571611
38.749038
35.449707
32.587088
30.090596
27.899014
25.964873
24.247151
22.716158
21.345785
20.116201
19.01147
18.01851
17.124066
16.31667
15.587819
14.930147
14.337903
13.805746
13.328966
12.902907
12.522909
12.185171
11.88738
11.625105
11.39474
11.193473
11.019345
10.86884
10.739323
10.628551
10.534429
10.455047
10.388474
10.333214
10.287727
10.250643
10.220692
10.19681
10.178112
10.16383
10.153562
10.147323
10.142749
10.135637
10.126965
10.116983
10.106408
10.096592
10.089701
10.087642
10.089239
10.101327
10.119211
10.136656
10.146729
10.140739
10.105303
10.060095
10.022283
9.9981976
9.9934394
10.017638
1278.1059
2225.3863
1026.344
632.53949
439.67467
318.01994
233.95469
182.0497
143.44006
118.73688
99.587561
85.802127
74.581128
65.597745
58.140643
51.925254
46.68103
42.228884
38.421838
35.138764
32.292342
29.812711
27.638081
25.7211
24.020254
22.505825
21.151379
19.936893
18.846183
17.866599
16.985154
16.190073
15.472851
14.825968
14.243737
13.720829
13.252618
12.834617
12.46223
12.131217
11.839672
11.583286
11.358394
11.16182
10.992044
10.845553
10.719632
10.612059
10.52074
10.44388
10.379503
10.326183
10.282407
10.246839
10.218205
10.19542
10.177621
10.164046
10.154128
10.147645
10.142612
10.135116
10.12606
10.115803
10.105162
10.095609
10.089363
10.087754
10.090056
10.102588
10.11958
10.135226
10.14252
10.132
10.094568
10.052533
10.018199
9.9973088
9.9932726
10.015333
1310.1947
2255.7712
1026.4492
629.70383
435.7247
316.13044
231.22334
180.84617
142.0044
118.05233
98.936247
85.275401
74.066659
65.097449
57.65865
51.462964
46.239819
41.809007
38.024335
34.763934
31.939346
29.48163
27.328549
25.432222
23.752006
22.257644
20.922389
19.726113
18.65229
17.688653
16.822642
16.042154
15.338731
14.704665
14.134343
13.622445
13.164412
12.755899
12.392523
12.069699
11.785486
11.535924
11.317461
11.126402
10.961631
10.819737
10.697922
10.593995
10.505829
10.431794
10.369856
10.318665
10.276741
10.242794
10.215557
10.193917
10.177019
10.164127
10.154581
10.14792
10.142365
10.13444
10.124972
10.114437
10.10375
10.09447
10.088829
10.087606
10.090746
10.103224
10.119118
10.132752
10.137043
10.121626
10.084608
10.045794
10.015004
9.996976
9.9930359
10.010176
1340.2481
2289.0467
1028.5019
626.61967
431.87515
313.59277
228.62752
179.38411
140.54703
117.14987
98.163729
84.599547
73.428402
64.481278
57.072508
50.906063
45.712772
41.31121
37.554824
34.323372
31.526287
29.095577
26.968959
25.094884
23.439169
21.96859
20.656023
19.481327
18.427541
17.482679
16.634785
15.871397
15.184162
14.565142
14.008809
13.509848
13.063762
12.666302
12.313356
12.000924
11.725175
11.483344
11.272236
11.087621
10.928471
10.791711
10.674484
10.574615
10.489908
10.418963
10.35967
10.310766
10.270807
10.238554
10.212768
10.192307
10.176299
10.164049
10.154862
10.148069
10.141945
10.133555
10.12366
10.112848
10.102129
10.093107
10.08787
10.087011
10.091309
10.10315
10.117766
10.129338
10.130205
10.11106
10.075339
10.039708
10.012458
9.9973306
9.9932695
10.006346
1368.3705
2323.0091
1028.5542
622.80777
427.35167
310.33899
225.2503
177.54759
138.78589
116.0547
97.267807
83.775191
72.660474
63.745376
56.377873
50.249365
45.094645
40.730761
37.005627
33.809308
31.045718
28.647427
26.553064
24.710016
23.083235
21.640573
20.354456
19.204874
18.174401
17.251189
16.424079
15.680263
15.011556
14.409742
13.869388
13.385188
12.952706
12.567787
12.226383
11.924478
11.658488
11.425374
11.222532
11.045817
10.892894
10.76175
10.649627
10.55419
10.473214
10.405578
10.349097
10.302602
10.264687
10.234168
10.209857
10.190589
10.175454
10.163791
10.154922
10.148024
10.141297
10.132419
10.122091
10.11101
10.100262
10.091445
10.086371
10.086064
10.091315
10.10227
10.115316
10.124506
10.122167
10.100449
10.066559
10.034131
10.010284
9.9983121
9.9954292
10.002867
1394.6823
2355.939
1020.9188
617.9226
421.08222
306.61316
220.96804
175.21718
136.89743
114.78175
96.238347
82.797691
71.755147
62.881996
55.566941
49.480256
44.371821
40.054601
36.375345
33.222774
30.500348
28.140882
26.084413
24.276848
22.683687
21.273206
20.017449
18.89667
17.892969
16.994437
16.190839
15.469162
14.821422
14.239056
13.716736
13.249163
12.831957
12.46106
12.132587
11.842582
11.587382
11.363816
11.169795
11.00088
10.854875
10.729797
10.623618
10.532955
10.455998
10.391836
10.3383
10.294296
10.258469
10.229691
10.206845
10.188762
10.174476
10.163335
10.154722
10.147724
10.140374
10.130998
10.120244
10.108905
10.098127
10.089461
10.084596
10.084757
10.090379
10.100471
10.111741
10.118332
10.112926
10.08973
10.058121
10.029003
10.00851
9.9995898
9.9982703
10.000256
1419.3033
2386.8253
1012.5587
611.98215
413.15109
302.46206
216.34705
172.69372
134.92759
113.32412
95.062246
81.659657
70.700683
61.870645
54.617364
48.594016
43.54583
39.286879
35.662248
32.562026
29.8884
27.574457
25.561987
23.795614
22.240996
20.867103
19.645809
18.55769
17.584401
16.713769
15.936179
15.239252
14.61497
14.054329
13.552111
13.103019
12.702737
12.347283
12.032944
11.755858
11.512452
11.29935
11.114842
10.954447
10.815821
10.69696
10.596391
10.510843
10.438461
10.377892
10.327434
10.28597
10.252242
10.225178
10.203751
10.186821
10.173353
10.162671
10.154233
10.14712
10.139144
10.129272
10.11811
10.106532
10.095729
10.08721
10.082571
10.082959
10.088466
10.097608
10.106899
10.110714
10.102418
10.078937
10.050008
10.024407
10.007491
10.000979
10.001846
9.999528
1442.3463
2416.6353
999.75865
604.64307
403.72663
297.91436
211.56474
169.9078
132.92535
111.68993
93.712281
80.330857
69.459681
60.705148
53.532946
47.587578
42.61321
38.42441
34.864861
31.82632
29.209789
26.948371
24.986144
23.266789
21.756022
20.422934
19.240397
18.188977
17.2499
16.410715
15.660357
14.990809
14.392526
13.855941
13.375933
12.947195
12.565493
12.226895
11.9279
11.664758
11.434026
11.232892
11.058382
10.906912
10.7761
10.663821
10.569074
10.488659
10.420526
10.363658
10.316596
10.27773
10.24609
10.220686
10.2006
10.184761
10.172074
10.161795
10.153445
10.146179
10.137592
10.127236
10.115697
10.103903
10.093079
10.084682
10.080185
10.080551
10.085596
10.093533
10.100662
10.101643
10.090913
10.06831
10.042407
10.020563
10.007212
10.002599
10.006215
10.000644
1464.1097
2445.2847
982.98686
596.12269
393.63758
292.9466
206.70419
166.9185
130.87077
109.85674
92.124056
78.795141
68.037707
59.379929
52.307619
46.457534
41.571353
37.46575
33.982341
31.015009
28.464436
26.263175
24.357242
22.69107
21.23003
19.940308
18.800937
17.790432
16.889459
16.085809
15.368385
14.728772
14.158864
13.648499
13.192592
12.78581
12.424051
12.103397
11.820603
11.572121
11.35442
11.164617
11.000605
10.858443
10.735794
10.630799
10.541858
10.466683
10.403002
10.34971
10.305649
10.269621
10.24008
10.216272
10.197417
10.182576
10.170625
10.16071
10.152367
10.144885
10.135717
10.124903
10.11302
10.10103
10.090166
10.081816
10.077302
10.077393
10.081672
10.088122
10.092985
10.091346
10.079025
10.058234
10.035611
10.017549
10.007157
10.003992
10.009943
10.001313
1484.8478
2469.1772
961.99255
587.11757
383.10864
287.61067
201.85883
163.7328
128.6925
107.73106
90.282646
77.042383
66.422629
57.887272
50.935712
45.199495
40.417469
36.4088
33.013785
30.127354
27.652283
25.51973
23.673929
22.067184
20.662556
19.425514
18.334299
17.36925
16.510444
15.745761
15.063925
14.456724
13.916972
13.434684
13.004506
12.621002
12.2803
11.978451
11.71245
11.479103
11.274966
11.09703
10.94356
10.810774
10.696227
10.597891
10.51476
10.444769
10.385915
10.336286
10.295082
10.261474
10.234214
10.211978
10.194238
10.180267
10.16899
10.159419
10.151029
10.143243
10.133535
10.122293
10.110096
10.097911
10.08696
10.078543
10.073814
10.073359
10.076575
10.08131
10.083942
10.08015
10.067534
10.049112
10.029926
10.015399
10.007198
10.004663
10.011245
10.002974
1504.8127
2483.8479
936.77837
577.43305
372.19313
281.94626
197.10396
160.27383
126.27077
105.32101
88.161429
75.055396
64.602534
56.21752
49.410247
43.808675
39.14881
35.251421
31.958626
29.160312
26.770526
24.716443
22.944474
21.404759
20.063113
18.884138
17.846146
16.930496
16.117627
15.395271
14.751956
14.179404
13.669829
13.216955
12.813748
12.454477
12.135637
11.853226
11.604384
11.386406
11.195968
11.030779
10.887772
10.764268
10.657923
10.566427
10.488889
10.423694
10.369049
10.323439
10.285075
10.253665
10.228304
10.207797
10.191102
10.177852
10.167158
10.157923
10.149478
10.141278
10.131078
10.119437
10.106945
10.094548
10.083431
10.074801
10.069646
10.068387
10.070297
10.073195
10.073797
10.068572
10.057043
10.041255
10.025458
10.013951
10.007353
10.004984
10.010512
10.005066
1524.2228
2480.446
907.65712
567.14336
360.93752
275.95512
192.43549
156.41441
123.52864
102.58256
85.731482
72.812074
62.561937
54.359995
47.724154
42.279788
37.762809
33.987821
30.812522
28.122436
25.831298
23.866365
22.176609
20.711735
19.439323
18.324441
17.344604
16.480209
15.7163
15.038905
14.436201
13.900512
13.424299
13.001369
12.625733
12.291056
11.994316
11.73153
11.49977
11.297045
11.119765
10.965985
10.833347
10.718904
10.620613
10.536463
10.464442
10.403847
10.353005
10.310877
10.275645
10.246332
10.222617
10.203549
10.188016
10.175364
10.16513
10.156207
10.147764
10.139034
10.128389
10.116377
10.1036
10.090955
10.079568
10.070561
10.064774
10.062501
10.062941
10.064107
10.063108
10.057899
10.04782
10.034708
10.021987
10.012872
10.007382
10.004991
10.008995
10.006692
1543.2554
2438.5362
875.8953
556.26758
349.40449
269.55203
187.54564
152.12975
120.35306
99.468677
82.959898
70.288325
60.285462
52.305436
45.871088
40.603565
36.252102
32.629338
29.591312
27.024399
24.845639
22.981086
21.382538
20.000184
18.80051
17.754421
16.837392
16.030066
15.317222
14.686617
14.125764
13.627526
13.184698
12.791579
12.443197
12.132923
11.858
11.61472
11.399816
11.212013
11.047692
10.904924
10.782107
10.676269
10.585336
10.507652
10.441532
10.385368
10.338044
10.299026
10.2665
10.239492
10.217245
10.199417
10.184849
10.172847
10.162934
10.154258
10.145856
10.136571
10.125525
10.11317
10.100109
10.087168
10.075396
10.065854
10.059274
10.055843
10.054768
10.054632
10.053135
10.048356
10.039886
10.029226
10.0191
10.011791
10.007101
10.004851
10.007602
10.007202
1561.7975
2399.8376
843.848
544.76495
337.59937
262.19461
182.50865
147.31796
116.63066
95.922009
79.812454
67.460703
57.758237
50.045818
43.838789
38.791285
34.63755
31.190759
28.310938
25.884033
23.830696
22.077463
20.575139
19.282329
18.163506
17.189823
16.338041
15.589223
14.928237
14.344635
13.825818
13.364955
12.955291
12.591219
12.267956
11.981369
11.727475
11.503172
11.305609
11.132078
10.980297
10.847989
10.734315
10.636613
10.552628
10.480821
10.419714
10.367947
10.324279
10.288038
10.25793
10.232905
10.212223
10.195442
10.18174
10.170316
10.160621
10.1521
10.143699
10.133954
10.122555
10.109881
10.096529
10.08325
10.070998
10.060799
10.053299
10.048667
10.046716
10.04579
10.044014
10.039861
10.032947
10.024387
10.016299
10.010398
10.006483
10.004471
10.006599
10.007555
1579.3844
2360.8528
810.91306
532.29152
325.42334
253.64695
177.13059
141.86515
112.2544
91.882696
76.256715
64.309014
54.961918
47.56675
41.651755
36.864482
32.942186
29.697526
26.995792
24.724721
22.804735
21.172672
19.777229
18.578049
17.542306
16.642636
15.856745
15.166638
14.556993
14.017926
13.540131
13.115509
12.737922
12.402305
12.104335
11.840081
11.606012
11.399107
11.216808
11.056834
10.917115
10.79561
10.690388
10.600176
10.522644
10.456313
10.399818
10.351965
10.311673
10.27796
10.250004
10.226774
10.207532
10.191636
10.178657
10.167694
10.158246
10.149795
10.141362
10.131254
10.119555
10.106585
10.092932
10.079292
10.066496
10.055513
10.047063
10.041897
10.039188
10.037631
10.035709
10.03216
10.026588
10.019767
10.013312
10.008569
10.005414
10.003968
10.005889
10.007832
1595.3245
2292.8025
776.31291
518.31738
312.13173
243.7638
171.0973
135.63476
107.12616
87.293213
72.267467
60.814052
51.913026
44.914507
39.344902
34.860485
31.202784
28.18351
25.672805
23.570743
21.797871
20.292642
19.007089
17.903302
16.950789
16.124255
15.40249
14.767885
14.208611
13.713764
13.27491
12.884701
12.537345
12.228197
11.953501
11.709959
11.494367
11.303792
11.13584
10.988268
10.859232
10.747119
10.650526
10.56709
10.495438
10.434105
10.381797
10.337394
10.299926
10.26882
10.242722
10.221017
10.202991
10.188028
10.175666
10.165111
10.155852
10.147418
10.138914
10.128542
10.116607
10.103373
10.089411
10.075394
10.062009
10.05011
10.041352
10.035602
10.03221
10.030098
10.028038
10.024981
10.020519
10.015153
10.010072
10.006318
10.003981
10.00334
10.005351
10.007561
1608.5678
2224.9015
739.12141
502.30024
298.0365
232.35815
163.93828
128.46233
101.17047
82.123513
67.838099
57.014925
48.671128
42.14597
36.975925
32.830703
29.464409
26.684921
24.381873
22.456153
20.833854
19.457448
18.281911
17.27204
16.400076
15.64341
14.981548
14.401037
13.888849
13.435006
13.032341
12.674061
12.354818
12.070237
11.81687
11.592001
11.393154
11.217365
11.062538
10.926496
10.807381
10.704235
10.614672
10.537413
10.471017
10.414185
10.365686
10.324482
10.289699
10.260573
10.236137
10.21574
10.198755
10.184596
10.172754
10.162563
10.153492
10.145056
10.136429
10.125893
10.1138
10.100358
10.086083
10.071649
10.057775
10.045242
10.03612
10.029783
10.025733
10.023087
10.020855
10.018168
10.014617
10.010479
10.006591
10.003773
10.002252
10.002467
10.004688
10.005886
1616.346
2142.1314
699.134
482.53411
282.91159
219.10788
155.17803
120.21055
94.385995
76.418581
63.049455
53.016407
45.330331
39.345479
34.617429
30.835416
27.771988
25.247747
23.155939
21.407643
19.934419
18.683792
17.614649
16.694719
15.898573
15.206057
14.600891
14.069422
13.600588
13.184173
12.814273
12.484879
12.191158
11.929065
11.695235
11.487042
11.303106
11.140407
10.997168
10.871549
10.761743
10.666015
10.582935
10.511141
10.449373
10.39649
10.351381
10.312915
10.280601
10.253257
10.230246
10.210944
10.194816
10.181369
10.169943
10.160058
10.151193
10.142808
10.133995
10.123383
10.111216
10.097647
10.083102
10.06818
10.05369
10.040986
10.031386
10.024422
10.019708
10.01653
10.014088
10.011663
10.008857
10.005763
10.00291
10.000933
10.000241
10.00122
10.003483
10.003892
1613.5379
2040.6767
655.83075
456.6968
266.57632
203.66866
144.57314
110.90154
86.920036
70.302319
58.083209
48.963124
42.008191
36.607372
32.346226
28.938415
26.178932
23.909135
22.024658
20.447494
19.116135
17.983834
17.014002
16.177819
15.452443
14.819752
14.265283
13.777192
13.345671
12.962773
12.621932
12.318036
12.046806
11.804723
11.588808
11.396505
11.225623
11.074343
10.940922
10.823805
10.721515
10.632535
10.555178
10.488262
10.430556
10.381028
10.339004
10.303104
10.272603
10.246824
10.225077
10.206709
10.191374
10.178377
10.167284
10.157622
10.148946
10.140605
10.131706
10.121094
10.108932
10.095317
10.0806
10.065319
10.050297
10.037317
10.027175
10.019531
10.014122
10.010394
10.007697
10.005435
10.003221
10.001008
9.9990903
9.997944
9.9980033
9.9995053
10.00179
10.002512
1593.9315
1910.5249
609.43434
424.11278
249.02634
185.83674
132.33944
100.85481
79.116987
64.095278
53.15778
45.019312
38.827713
34.024993
30.234258
27.196315
24.72926
22.70164
21.011957
19.593262
18.391744
17.36661
16.486005
15.724718
15.062541
14.48322
13.973856
13.52449
13.126408
12.772614
12.457066
12.175246
11.923323
11.698166
11.497139
11.317982
11.15871
11.017536
10.892833
10.783102
10.687036
10.60381
10.531406
10.468748
10.414723
10.36831
10.328589
10.294711
10.265794
10.241249
10.220635
10.203142
10.188311
10.175699
10.16487
10.15543
10.146826
10.138542
10.129638
10.119101
10.10703
10.093456
10.078655
10.063109
10.047651
10.034271
10.023528
10.015148
10.008995
10.00467
10.001661
9.9994626
9.9977138
9.9962642
9.9952215
9.9948958
9.9956574
9.9976974
10.000401
10.00174
1548.7177
1751.1126
561.11812
385.56602
231.27045
165.89406
119.15566
90.686964
71.43004
58.120089
48.497844
41.345816
35.906653
31.683902
28.343496
25.656611
23.463546
21.650903
20.13638
18.858419
17.771166
16.83949
16.036048
15.339198
14.731503
14.198589
13.727897
13.311424
12.94142
12.612399
12.318327
12.055249
11.819726
11.608949
11.420542
11.252469
11.102936
10.970328
10.853164
10.750063
10.659733
10.58095
10.512531
10.453182
10.401923
10.357779
10.319927
10.287806
10.260324
10.236918
10.217012
10.200109
10.185722
10.173395
10.162822
10.153463
10.14493
10.1367
10.127865
10.117474
10.105578
10.092141
10.077352
10.061627
10.045788
10.031888
10.020496
10.011341
10.004397
9.9994137
9.9960233
9.9938009
9.9924089
9.9916211
9.9913929
9.9918684
9.9933067
9.9958232
9.998883
10.000905
1469.5076
1587.4049
511.84163
345.94865
207.27412
146.55762
105.96222
81.082938
64.315912
52.692703
44.321242
38.099724
33.357148
29.661117
26.723242
24.347319
22.396731
20.774427
19.410268
18.252809
17.262641
16.409759
15.670659
15.026697
14.462853
13.966887
13.528722
13.140013
12.793989
12.485015
12.208422
11.960537
11.738276
11.539093
11.36083
11.201626
11.059829
10.933938
10.822554
10.724362
10.638135
10.562791
10.497626
10.441015
10.392095
10.349942
10.313734
10.282718
10.25621
10.233536
10.214181
10.197673
10.183676
10.171608
10.161119
10.151829
10.143339
10.135169
10.126465
10.116271
10.104619
10.091412
10.076747
10.060945
10.044772
10.030235
10.01814
10.008197
10.000459
9.9947786
9.9909206
9.9885812
9.9874359
9.9872014
9.9876978
9.9888805
9.990814
9.9935082
9.9966482
9.9995186
1357.9316
1502.233
465.57863
298.33441
183.40463
128.39017
94.02007
72.569223
58.153
48.110347
40.848732
35.434401
31.284423
28.028134
25.421264
23.298325
21.54408
20.076118
18.833285
17.773032
16.861387
16.072465
15.385828
14.785133
14.257129
13.790986
13.377744
13.010031
12.681869
12.388757
12.125739
11.889609
11.677539
11.487212
11.316657
11.164169
11.028236
10.90748
10.800616
10.706426
10.623736
10.551395
10.488273
10.433436
10.38593
10.344899
10.309562
10.279241
10.25346
10.231342
10.212425
10.196225
10.182322
10.170329
10.159877
10.150606
10.142143
10.134037
10.125511
10.11555
10.104185
10.091275
10.076844
10.061096
10.044675
10.029426
10.016586
10.005832
9.9972825
9.9908943
9.9865263
9.9839693
9.9829459
9.9831432
9.9842707
9.9861369
9.9886573
9.9917282
9.9951385
9.998563
1225.457
1258.7845
425.28921
255.88592
161.18393
113.22683
84.127977
65.688113
53.278348
44.576146
38.236095
33.465715
29.77551
26.853837
24.494824
22.558385
20.946513
19.588957
18.434232
17.443789
16.588334
15.84506
15.195904
14.62628
14.124207
13.679723
13.284737
12.932453
12.617267
12.334554
12.080525
11.852022
11.646447
11.461625
11.295709
11.147099
11.014367
10.896213
10.791425
10.698871
10.617529
10.546678
10.484739
10.430877
10.384166
10.343777
10.30894
10.278957
10.253199
10.231106
10.212161
10.195907
10.181929
10.169845
10.159302
10.149955
10.141455
10.133386
10.12507
10.115369
10.104311
10.091726
10.077597
10.062039
10.045511
10.029538
10.01593
10.004392
9.9950507
9.9879608
9.9830529
9.9801902
9.9791558
9.9796566
9.9813199
9.9838039
9.9868958
9.9903911
9.9941423
9.9981007
1106.11
1120.1833
392.54651
225.04132
144.54737
102.06519
76.79677
60.673459
49.791828
42.095058
36.430489
32.127391
28.76775
26.085066
23.902052
22.097265
20.585145
19.303969
18.20825
17.263791
16.444386
15.729563
15.103038
14.55173
14.065428
13.633715
13.249283
12.90571
12.597725
12.320945
12.071757
11.847183
11.644759
11.462429
11.298451
11.15131
11.019659
10.902267
10.797977
10.705691
10.624349
10.552939
10.490495
10.43608
10.388818
10.347889
10.312538
10.28207
10.255858
10.233334
10.213988
10.197361
10.183038
10.170641
10.159816
10.150229
10.141543
10.133382
10.125209
10.115798
10.105056
10.092803
10.078978
10.06367
10.047209
10.030584
10.016177
10.003912
9.99386
9.9861637
9.9807901
9.9776172
9.9764442
9.9769387
9.9789184
9.981998
9.9856285
9.9895077
9.9935588
9.997859
1051.3069
1078.8162
368.22035
207.89886
133.63737
94.483257
71.327554
56.682478
46.816391
39.828137
34.669182
30.732183
27.645148
25.169876
23.147854
21.470108
20.059631
18.860704
17.83217
16.943049
16.169586
15.493212
14.899117
14.375247
13.911622
13.499884
13.132959
12.804891
12.510676
12.246144
12.007837
11.7929
11.598975
11.424096
11.266607
11.125081
10.998253
10.884972
10.784163
10.694801
10.6159
10.546508
10.485709
10.432625
10.386427
10.346339
10.311642
10.281674
10.255835
10.23358
10.214419
10.19791
10.183653
10.171283
10.160461
10.150867
10.14218
10.134045
10.125957
10.116785
10.106306
10.094344
10.080779
10.065634
10.049191
10.032256
10.017208
10.004364
9.9937674
9.9856524
9.9800247
9.9767651
9.9756033
9.9754005
9.9768551
9.9807899
9.9848728
9.9889277
9.9931245
9.9976669
33445.114
78548.813
38668.398
11858.766
1586.4676
606.23769
426.45109
342.6165
283.09669
229.84821
187.91431
155.88373
131.97978
113.84689
99.807531
88.593059
79.267405
71.262736
64.337811
58.351048
53.154446
48.611579
44.614601
41.07852
37.939201
35.133509
32.617272
30.351616
28.305751
26.455267
24.779066
23.258267
21.876585
20.619882
19.477205
18.439129
17.497063
16.643335
15.870917
15.173508
14.545595
13.981537
13.476285
13.025373
12.624362
12.268991
11.955412
11.67966
11.438172
11.227655
11.044922
10.886993
10.751029
10.634606
10.53538
10.452508
10.384804
10.330891
10.289674
10.261789
10.248772
10.243385
10.238013
10.230547
10.220808
10.20881
10.195137
10.180805
10.167128
10.154688
10.144754
10.138585
10.132172
10.137991
10.097286
10.128165
10.082132
10.144877
10.028474
10.073905
19250.544
62434.019
26652.084
5698.3755
968.30177
522.1792
390.19786
314.06589
257.53627
207.16914
170.85865
142.80197
122.19294
106.31571
93.902503
83.811322
75.274217
67.876821
61.471359
55.925159
51.090397
46.84505
43.096031
39.768674
36.802262
34.144908
31.756249
29.599958
27.648871
25.880954
24.276668
22.818526
21.491584
20.282869
19.182582
18.181942
17.272919
16.448371
15.701705
15.02704
14.419203
13.872772
13.383022
12.945727
12.556614
12.211614
11.907058
11.639102
11.404352
11.199641
11.02189
10.868222
10.735897
10.622589
10.525987
10.444742
10.378336
10.325511
10.28523
10.25808
10.245553
10.240197
10.234507
10.22662
10.216508
10.204359
10.190887
10.177062
10.163936
10.15192
10.14228
10.136442
10.132951
10.139735
10.099489
10.128531
10.087867
10.146272
10.032585
10.075822
26171.908
39689.971
15129.23
2827.8478
838.34205
492.36131
380.15992
299.05502
244.67391
196.1257
163.61667
136.83284
117.77801
102.6857
90.938217
81.295175
73.091956
65.976347
59.827969
54.500188
49.847198
45.756504
42.140696
38.928304
36.05959
33.488336
31.175434
29.085493
27.19329
25.477634
23.919645
22.502522
21.212019
20.035739
18.964529
17.989871
17.104056
16.300241
15.572072
14.913915
14.320797
13.787408
13.309245
12.882222
12.502164
12.165132
11.867574
11.60572
11.3763
11.176227
11.002496
10.852307
10.723001
10.612331
10.517945
10.438113
10.37269
10.320692
10.281123
10.254503
10.242286
10.236886
10.230871
10.222597
10.212189
10.199996
10.186794
10.173449
10.160768
10.149057
10.13972
10.134255
10.132989
10.139948
10.099963
10.131906
10.09336
10.145572
10.036255
10.075807
34847.226
24603.305
8763.0244
1607.5047
745.47772
467.9953
367.81135
283.299
233.94706
185.89302
157.00413
130.98067
113.61709
99.183977
88.127738
78.901933
71.020039
64.175511
58.270099
53.145648
48.662668
44.716994
41.225859
38.121007
35.345917
32.853861
30.611765
28.584368
26.747934
25.081912
23.568063
22.190214
20.93475
19.789796
18.746799
17.797441
16.934322
16.150863
15.440924
14.799103
14.2206
13.700208
13.233638
12.816926
12.445986
12.117008
11.826547
11.570902
11.346922
11.151599
10.981999
10.835396
10.709268
10.601247
10.509142
10.43108
10.366686
10.315546
10.276722
10.250686
10.238809
10.233352
10.227008
10.218384
10.20776
10.195607
10.182713
10.169805
10.157482
10.146014
10.136945
10.131929
10.132915
10.139541
10.100841
10.141818
10.098679
10.146612
10.039341
10.074542
40141.012
20709.891
6053.418
1205.139
708.172
450.99563
358.27996
270.72336
226.23011
177.99738
152.32319
126.38112
110.5129
96.392644
85.90169
76.957158
69.321255
62.688955
56.974352
52.008526
47.659732
43.829838
40.4391
37.421572
34.722685
32.298271
30.113376
28.138439
26.349201
24.725488
23.249547
21.905679
20.680762
19.563317
18.545279
17.618431
16.775638
16.010523
15.317112
14.690192
14.125094
13.616689
13.160878
12.753784
12.391394
12.070009
11.786276
11.536546
11.317781
11.127032
10.961433
10.818333
10.695281
10.589869
10.500015
10.42389
10.360526
10.310203
10.272097
10.246644
10.235103
10.229574
10.222915
10.214002
10.203251
10.191216
10.178651
10.166132
10.154091
10.14282
10.134023
10.129439
10.132128
10.138378
10.107704
10.153954
10.103764
10.14886
10.041479
10.072186
43167.452
19209.38
4505.2075
1128.2739
687.95167
431.37562
350.86461
260.869
220.39608
171.70353
148.66446
122.49691
107.98009
93.991375
84.00692
75.267195
67.841194
61.388347
55.833958
51.001472
46.7668
43.035985
39.731547
36.789436
34.156826
31.790891
29.656745
27.72801
25.980474
24.394384
22.952328
21.638998
20.441681
19.349221
18.353978
17.447773
16.623722
15.875605
15.197585
14.58461
14.032119
13.535038
13.089446
12.691527
12.337333
12.023263
11.746039
11.502059
11.288385
11.102127
10.940486
10.800907
10.680828
10.578009
10.490401
10.416222
10.354111
10.30458
10.267181
10.242333
10.231145
10.225541
10.218598
10.209466
10.198675
10.186821
10.174588
10.162405
10.150583
10.139493
10.131008
10.126834
10.130797
10.136258
10.117752
10.163687
10.108354
10.149717
10.042891
10.070867
45446.93
17206.743
3554.6665
1076.6138
673.0483
418.39241
345.30612
253.11498
215.97444
166.75828
145.74992
119.26338
105.90242
91.944729
82.3943
73.798698
66.551799
60.249549
54.828805
50.108276
45.970476
42.324294
39.093991
36.217038
33.641985
31.327233
29.239147
27.349969
25.639157
24.086522
22.674778
21.388911
20.216543
19.146781
18.172357
17.285079
16.478306
15.745932
15.082236
14.482304
13.941657
13.455267
13.019374
12.6302
12.283854
11.976822
11.70589
11.467491
11.25879
11.07695
10.919272
10.78305
10.665927
10.565685
10.480315
10.408067
10.347435
10.298668
10.261966
10.237749
10.226938
10.221262
10.214079
10.204807
10.194056
10.182428
10.170517
10.158617
10.146968
10.136061
10.127943
10.124164
10.129356
10.136213
10.128959
10.172191
10.111164
10.147579
10.043986
10.070312
47080.684
14455.85
2970.318
1047.6287
662.11733
408.21438
340.45179
246.9148