/*--------------------------------*- C++ -*----------------------------------*\
  =========                 |
  \\      /  F ield         | OpenFOAM: The Open Source CFD Toolbox
   \\    /   O peration     | Website:  https://openfoam.org
    \\  /    A nd           | Version:  12
     \\/     M anipulation  |
\*---------------------------------------------------------------------------*/
FoamFile
{
    format      ascii;
    class       volVectorField;
    location    "0.042";
    object      U;
}
// * * * * * * * * * * * * * * * * * * * * * * * * * * * * * * * * * * * * * //

dimensions      [0 1 -1 0 0 0 0];

internalField   nonuniform List<vector> 
16000
(
(212.758 -3.161057e-17 -8.2071564)
(249.21865 0 5.268435)
(235.56 0 -7.4015993)
(243.08672 5.0078844e-17 3.7082105)
(238.49729 -4.9421098e-17 -5.7987401)
(240.6515 0 1.7217003)
(238.90025 0 -4.1916385)
(239.38928 8.4595409e-17 -0.010536339)
(238.56938 -8.0370078e-17 -3.0408932)
(238.44672 0 -1.2034681)
(237.94325 7.2615285e-17 -2.452)
(237.60086 -2.0687905e-16 -1.883497)
(237.16453 1.309409e-16 -2.3005369)
(236.74247 -1.2454694e-16 -2.2311363)
(236.29274 1.1817178e-16 -2.3784668)
(235.8293 -3.5053694e-18 -2.4383971)
(235.34749 -3.3298464e-18 -2.5284349)
(234.84826 -9.8249571e-17 -2.6072764)
(234.3311 1.9249009e-16 -2.6871497)
(233.79593 -9.1328111e-17 -2.7641096)
(233.24262 1.7370349e-16 -2.8385145)
(232.67116 -1.6465857e-16 -2.9096459)
(232.08159 0 -2.9769885)
(231.47404 1.5325055e-16 -3.0399438)
(230.84875 -4.1557943e-18 -3.0979089)
(230.20603 -2.6745378e-16 -3.1502512)
(229.54635 1.267618e-16 -3.1963354)
(228.87026 0 -3.2355164)
(228.17846 0 -3.2671572)
(227.47177 2.2009649e-16 -3.2906333)
(226.75115 -2.0507405e-16 -3.3053475)
(226.01769 0 -3.3107388)
(225.27263 0 -3.3062947)
(224.51734 0 -3.2915656)
(223.75331 5.172357e-18 -3.2661764)
(222.98215 1.5695647e-16 -3.2298382)
(222.20561 -1.4368289e-16 -3.1823616)
(221.4255 -1.4070612e-16 -3.1236649)
(220.64374 1.2458907e-16 -3.0537855)
(219.8623 0 -2.9728882)
(219.08319 -1.1921642e-16 -2.8812691)
(218.30845 1.1252878e-16 -2.779362)
(217.54012 -2.1322982e-16 -2.667737)
(216.78023 2.0118013e-16 -2.5471005)
(216.03073 -1.9645066e-16 -2.4182908)
(215.29357 3.5965934e-16 -2.2822718)
(214.57057 5.6188562e-18 -2.1401273)
(213.86348 2.8407913e-19 -1.9930523)
(213.17394 -1.5135725e-16 -1.8423444)
(212.50351 1.4312523e-16 -1.6893955)
(211.8536 -1.2642589e-16 -1.5356843)
(211.22553 0 -1.3827677)
(210.62052 7.5121943e-18 -1.2322758)
(210.03971 0 -1.085905)
(209.48415 6.6836795e-18 -0.94541387)
(208.95487 2.0808326e-16 -0.81261939)
(208.45284 -3.8030214e-16 -0.6893874)
(207.97906 1.1002064e-17 -0.57761271)
(207.53456 1.6896052e-16 -0.47917719)
(207.12026 -1.4951194e-16 -0.39589443)
(206.73707 1.4082784e-16 -0.32941161)
(206.38581 -8.8597629e-18 -0.28109808)
(206.06689 0 -0.25180259)
(205.77994 0 -0.2416278)
(205.52317 -1.1155949e-16 -0.24964581)
(205.29245 1.1222816e-16 -0.27357162)
(205.08009 -9.9404181e-17 -0.30946423)
(204.87363 1.9399945e-16 -0.35152609)
(204.65536 -1.8929036e-16 -0.39207181)
(204.4032 8.3911304e-17 -0.42180413)
(204.09378 5.2989735e-18 -0.43086229)
(203.70906 0 -0.41134974)
(203.24798 4.7664321e-18 -0.36207022)
(202.7395 -4.529436e-18 -0.29558361)
(202.24033 0 -0.23811968)
(201.82869 -3.3888391e-17 -0.20819853)
(201.53567 6.2716653e-17 -0.24200962)
(201.37972 -3.1844699e-17 -0.3554255)
(201.31147 0 -0.24411653)
(201.44 0 -0.77958757)
(214.05325 0 -10.991389)
(250.84647 -3.7570621e-18 3.2490625)
(236.48545 -1.2067551e-16 -10.294081)
(244.54433 1.1129942e-16 1.6454954)
(239.5978 0 -8.6313899)
(241.98522 1.0238715e-16 -0.41155909)
(240.02702 -1.8905292e-16 -6.9104319)
(240.6073 -9.984784e-20 -2.2637114)
(239.69437 8.5198152e-17 -5.607207)
(239.57398 0 -3.5738035)
(239.02946 -1.538856e-16 -4.9038197)
(238.65891 1.5053104e-16 -4.3003549)
(238.191 1.4315958e-16 -4.7059269)
(237.73523 -2.6353387e-16 -4.636556)
(237.25167 1.2114672e-16 -4.764727)
(236.75263 1.113699e-17 -4.8174868)
(236.2343 1.1645141e-16 -4.8924768)
(235.69732 -1.0371448e-16 -4.9580153)
(235.14133 0 -5.0223226)
(234.56626 0 -5.0826876)
(233.97208 5.722319e-18 -5.1389806)
(233.35886 -1.7950119e-16 -5.1904764)
(232.72674 3.4036303e-16 -5.2365309)
(232.07599 -3.1803016e-16 -5.2764504)
(231.40698 1.4374501e-16 -5.3095304)
(230.72019 0 -5.3350536)
(230.01627 1.2535122e-16 -5.3522984)
(229.29596 -1.3441625e-16 -5.3605523)
(228.56017 0 -5.3591216)
(227.80993 3.5515687e-18 -5.3473425)
(227.04644 -1.3470718e-17 -5.3245939)
(226.27104 0 -5.2903131)
(225.48519 0 -5.2440047)
(224.69051 -1.7185766e-16 -5.1852606)
(223.88873 3.4124342e-16 -5.1137701)
(223.08169 -1.6385867e-16 -5.0293326)
(222.27135 -1.602141e-16 -4.9318728)
(221.45974 1.4663976e-16 -4.8214467)
(220.64892 -1.129281e-16 -4.6982537)
(219.84102 -2.7663153e-19 -4.5626414)
(219.03818 -2.5855577e-19 -4.4151097)
(218.24252 2.3435951e-16 -4.256311)
(217.45611 -1.1057095e-16 -4.0870476)
(216.68099 0 -3.9082662)
(215.9191 2.0368798e-16 -3.721051)
(215.1723 1.1997162e-17 -3.5266137)
(214.44231 -5.1661438e-18 -3.3262819)
(213.73075 -1.6558168e-16 -3.1214876)
(213.03911 0 -2.9137548)
(212.36873 -1.4744922e-16 -2.7046875)
(211.72084 -8.9001959e-18 -2.4959594)
(211.09653 2.6166545e-16 -2.2893037)
(210.49681 -1.308587e-16 -2.0865066)
(209.92258 0 -1.8894)
(209.37467 -2.0498309e-17 -1.6998564)
(208.85389 -2.1237343e-16 -1.5197845)
(208.36101 3.6324074e-16 -1.3511188)
(207.89684 -2.1642782e-16 -1.1957984)
(207.46219 0 -1.0557271)
(207.05784 -1.7164409e-16 -0.93271189)
(206.68448 1.8035998e-16 -0.82835531)
(206.34268 2.6810039e-17 -0.74395094)
(206.0326 0 -0.6802397)
(205.75348 -1.4247569e-16 -0.63717556)
(205.50316 7.3664811e-18 -0.61364737)
(205.27705 1.1212351e-16 -0.60715315)
(205.0671 -1.9803952e-17 -0.61351701)
(204.86064 9.3284009e-17 -0.62671201)
(204.63996 -1.0543891e-16 -0.63889484)
(204.38335 5.5235538e-18 -0.64087427)
(204.06839 -5.211868e-18 -0.62347621)
(203.67899 0 -0.58017898)
(203.2169 -4.6525453e-18 -0.511493)
(202.71274 4.4024145e-18 -0.43099004)
(202.22551 8.3420549e-18 -0.36229205)
(201.82566 9.8844333e-19 -0.32071456)
(201.5478 0 -0.34868699)
(201.38679 3.0307862e-17 -0.45442243)
(201.36845 -5.7662382e-17 -0.32480022)
(201.35798 2.584397e-17 -0.94175584)
(215.21737 0 -13.847639)
(252.32643 -1.235953e-16 1.0335137)
(237.46315 2.5190369e-16 -13.268721)
(245.80119 -2.2504499e-16 -0.5817396)
(240.59379 1.1112061e-16 -11.536676)
(243.11686 -3.2905511e-18 -2.7320981)
(241.03272 1.0014697e-16 -9.673393)
(241.63858 -9.4854257e-17 -4.7120634)
(240.67004 -5.6305194e-18 -8.2329834)
(240.52676 -5.3460337e-18 -6.1082109)
(239.94776 -1.0155191e-17 -7.4503051)
(239.54202 1.4009835e-16 -6.8514199)
(239.0395 -1.4201119e-16 -7.2269358)
(238.54615 1.3936478e-16 -7.1641191)
(238.02446 -1.1972401e-16 -7.2714483)
(237.48567 -1.5690404e-17 -7.3162617)
(236.92637 0 -7.3759213)
(236.34719 -1.2347312e-20 -7.4268741)
(235.74784 -2.2818146e-16 -7.4744028)
(235.12837 -3.5793766e-19 -7.5164656)
(234.48886 1.7489099e-16 -7.5526188)
(233.82949 1.7177592e-17 -7.5820546)
(233.15057 -2.1726375e-17 -7.604009)
(232.45252 0 -7.6176844)
(231.73591 7.5725856e-21 -7.6222811)
(231.00143 -1.6675407e-16 -7.6169975)
(230.24993 1.489784e-16 -7.6010452)
(229.4824 8.3142067e-18 -7.5736556)
(228.7 0 -7.5341005)
(227.90403 -7.4581386e-18 -7.4816988)
(227.09596 -4.8824029e-22 -7.4158375)
(226.2774 -2.0072584e-16 -7.335984)
(225.45013 2.0215964e-16 -7.2417022)
(224.61602 1.1976438e-17 -7.1326713)
(223.77708 -1.8130929e-16 -7.0086953)
(222.93543 1.4963976e-16 -6.8697204)
(222.09323 -1.8230473e-16 -6.7158444)
(221.25274 1.5280662e-16 -6.5473269)
(220.4162 -1.4466312e-16 -6.3645931)
(219.58588 1.3633864e-16 -6.1682399)
(218.764 1.6117773e-17 -5.959034)
(217.95274 0 -5.7379059)
(217.15419 2.0103049e-16 -5.5059449)
(216.37033 -2.4332599e-16 -5.264387)
(215.60303 0 -5.0146023)
(214.854 1.8055265e-16 -4.7580814)
(214.12482 -1.5844359e-16 -4.4964172)
(213.41688 1.7092219e-16 -4.23129)
(212.73145 -1.8078773e-16 -3.9644507)
(212.06962 0 -3.6977066)
(211.43235 1.7822684e-16 -3.432909)
(210.82045 -1.3394286e-16 -3.1719409)
(210.23465 0 -2.9167101)
(209.67557 0 -2.6691434)
(209.14378 1.254525e-16 -2.4311794)
(208.63982 -2.0949661e-16 -2.2047666)
(208.16423 1.2296791e-16 -1.9918512)
(207.71757 1.8502284e-16 -1.7943576)
(207.30046 1.8348613e-19 -1.6141477)
(206.91343 1.6184789e-19 -1.4529569)
(206.55695 -3.2552812e-16 -1.312284)
(206.2313 8.9828152e-17 -1.1932868)
(205.9363 0 -1.0965463)
(205.67076 1.4268534e-16 -1.0218233)
(205.43199 -1.6364883e-16 -0.96778881)
(205.21487 1.1181354e-16 -0.93169466)
(205.01078 1.3181738e-17 -0.90909162)
(204.80671 -8.6248527e-17 -0.89365875)
(204.58493 1.1578115e-17 -0.87730653)
(204.3242 2.1775883e-17 -0.85087713)
(204.00348 -1.0239451e-16 -0.80587263)
(203.60945 9.6327493e-17 -0.7373699)
(203.14785 -7.2591695e-17 -0.64837162)
(202.65248 1.3679686e-16 -0.5543262)
(202.18332 -5.6426993e-17 -0.47653948)
(201.80683 -6.0879796e-17 -0.42749812)
(201.54569 5.0287422e-17 -0.45427472)
(201.39482 0 -0.54441241)
(201.40932 3.2086833e-18 -0.40162971)
(201.28449 -1.2147898e-17 -1.0995627)
(216.23067 0 -16.770557)
(253.66138 0 -1.3180911)
(238.2178 0 -16.375466)
(246.89421 1.0756137e-16 -2.9095303)
(241.41383 -1.2486893e-16 -14.566741)
(244.09104 -2.2241142e-16 -5.1658584)
(241.86595 2.1151686e-16 -12.550842)
(242.50053 -1.2527901e-17 -7.2835253)
(241.46864 5.9651138e-18 -10.966754)
(241.29875 -1.754085e-16 -8.7703774)
(240.68052 1.7172376e-16 -10.105711)
(240.2343 1.0204929e-17 -9.5247552)
(239.69235 -1.5495466e-16 -9.8625399)
(239.1562 1.3765207e-16 -9.8077874)
(238.59133 -1.3954581e-20 -9.8930242)
(238.00771 -8.2542174e-18 -9.9279617)
(237.40249 0 -9.9707208)
(236.77624 -7.4509756e-18 -10.004684)
(236.12884 -2.1207907e-16 -10.032834)
(235.46045 2.1414596e-16 -10.053569)
(234.77127 1.2710603e-17 -10.066214)
(234.06166 -1.2050213e-17 -10.069875)
(233.3321 2.1712528e-16 -10.063687)
(232.58322 -1.7295425e-16 -10.046763)
(231.8158 1.0255992e-17 -10.018216)
(231.03078 1.9444856e-16 -9.9771774)
(230.22927 -1.286313e-16 -9.9228008)
(229.41256 0 -9.8542844)
(228.5821 1.4860098e-16 -9.7708823)
(227.73952 -1.2473523e-16 -9.6719282)
(226.88662 2.5135307e-16 -9.5568466)
(226.02534 -1.3444901e-17 -9.4251783)
(225.15776 -2.1112054e-16 -9.2765931)
(224.28609 1.7507796e-16 -9.110909)
(223.41264 -1.8860914e-16 -8.9281045)
(222.53978 -2.7283181e-20 -8.7283337)
(221.66991 2.1080193e-16 -8.5119336)
(220.80549 -3.1812365e-16 -8.2794295)
(219.9489 9.363114e-17 -8.031538)
(219.10251 3.544034e-17 -7.7691629)
(218.26859 -5.0112456e-17 -7.4933914)
(217.44929 0 -7.2054801)
(216.64664 -8.9151678e-17 -6.9068436)
(215.86251 1.3963445e-16 -6.5990357)
(215.09857 -2.1080127e-16 -6.2837312)
(214.35634 1.9806885e-16 -5.962707)
(213.63712 -2.1005135e-16 -5.6378182)
(212.94205 3.949426e-16 -5.3109798)
(212.27205 -3.0948216e-16 -4.9841481)
(211.62791 3.1031574e-16 -4.6593031)
(211.01024 -1.4564803e-16 -4.3384353)
(210.41954 1.37075e-16 -4.0235351)
(209.85618 -9.6361426e-17 -3.7165834)
(209.32048 3.0209882e-17 -3.4195495)
(208.8127 0 -3.134384)
(208.33309 0 -2.8630185)
(207.88193 0 -2.6073544)
(207.45953 2.3374767e-17 -2.3692433)
(207.06622 0 -2.1504499)
(206.70233 -1.6446088e-16 -1.9525856)
(206.36806 1.9250709e-16 -1.7769978)
(206.06339 -1.0832456e-16 -1.6246676)
(205.78779 -1.0590949e-19 -1.4959845)
(205.53967 2.5333151e-16 -1.3904973)
(205.31587 2.9733663e-17 -1.3066558)
(205.1108 -1.3888409e-16 -1.2414831)
(204.91548 5.2058999e-17 -1.1902962)
(204.71672 -1.4625458e-16 -1.1465408)
(204.49692 -4.5694242e-17 -1.1019711)
(204.23549 -6.4224909e-17 -1.0475699)
(203.91282 -6.0225693e-17 -0.97557711)
(203.51824 5.6458567e-17 -0.88267042)
(203.06093 0 -0.77435408)
(202.57743 0 -0.66776985)
(202.12851 -1.5572624e-17 -0.5819886)
(201.77652 0 -0.52900855)
(201.53284 6.8764416e-18 -0.55602979)
(201.39968 5.1713568e-17 -0.62641266)
(201.43255 -7.2961695e-17 -0.47405575)
(201.19288 -6.156445e-21 -1.2393164)
(217.07987 0 -19.888582)
(254.83413 -8.8955189e-18 -3.7479713)
(238.8537 2.6889981e-16 -19.62047)
(247.76278 -2.5125977e-16 -5.3617598)
(242.01272 2.5631806e-16 -17.713643)
(244.87254 -2.3454065e-16 -7.7511425)
(242.50995 -2.2354473e-16 -15.53385)
(243.16084 2.1162778e-16 -10.01117)
(242.06899 0 -13.802603)
(241.86131 0 -11.580426)
(241.2016 1.8133778e-16 -12.87375)
(240.70805 -1.7179451e-16 -12.329007)
(240.12184 -1.0205275e-17 -12.619305)
(239.53759 2.9025071e-17 -12.572027)
(238.92447 -9.18524e-18 -12.633126)
(238.29106 3.4834967e-17 -12.654554)
(237.63506 0 -12.677508)
(236.95702 0 -12.690761)
(236.25694 -2.3786201e-16 -12.6957)
(235.5351 2.1095487e-16 -12.690949)
(234.79188 0 -12.675651)
(234.02783 0 -12.648812)
(233.24365 -1.9190028e-16 -12.609446)
(232.44023 3.6315583e-16 -12.556567)
(231.61863 -1.7175742e-16 -12.489199)
(230.78011 -2.0347077e-17 -12.406399)
(229.92613 -3.853273e-17 -12.307277)
(229.05834 -1.4599277e-16 -12.191011)
(228.17856 1.2054152e-16 -12.056871)
(227.28883 0 -11.90424)
(226.39131 -3.0865076e-17 -11.732636)
(225.48836 0 -11.541731)
(224.5824 0 -11.331369)
(223.676 2.0832699e-16 -11.101583)
(222.77177 -2.2081084e-16 -10.852608)
(221.87235 2.3162466e-17 -10.584886)
(220.98036 -2.1853583e-17 -10.299078)
(220.09839 -4.1304991e-17 -9.9960554)
(219.22893 -7.9135403e-20 -9.6769013)
(218.37438 7.5163905e-20 -9.3428942)
(217.53696 -7.0918582e-20 -8.9955006)
(216.71873 0 -8.6363487)
(215.92153 -1.225772e-16 -8.2672137)
(215.14701 1.1510614e-16 -7.889988)
(214.39657 0 -7.5066578)
(213.6714 -5.1003421e-17 -7.1192811)
(212.97246 1.9169283e-16 -6.7299563)
(212.30049 -2.2471827e-16 -6.3408048)
(211.65605 -2.1138214e-16 -5.9539483)
(211.03951 1.5848062e-16 -5.571493)
(210.45109 1.1175395e-16 -5.1955156)
(209.8909 -1.394956e-16 -4.8280554)
(209.35896 -3.2702395e-17 -4.471106)
(208.85523 -2.1479878e-16 -4.1266164)
(208.37964 1.1487666e-16 -3.7964859)
(207.93215 -1.0772523e-16 -3.4825662)
(207.51274 1.0075378e-16 -3.1866521)
(207.12145 2.3602587e-16 -2.9104623)
(206.75837 -1.7651139e-16 -2.6556053)
(206.42356 0 -2.4235135)
(206.11695 -3.8612695e-17 -2.2153316)
(205.83822 -7.2259742e-17 -2.0318166)
(205.58645 1.3500708e-16 -1.873124)
(205.35968 1.2627681e-16 -1.7385556)
(205.15429 -2.3593417e-16 -1.6263139)
(204.96427 8.2610594e-17 -1.5331864)
(204.78036 5.1482656e-17 -1.4542757)
(204.58929 9.6237569e-17 -1.3828642)
(204.37381 1.348929e-16 -1.3106891)
(204.11418 2.01611e-20 -1.22906)
(203.79248 0 -1.1310878)
(203.40076 0 -1.0150449)
(202.95125 -3.4354535e-17 -0.88869137)
(202.48271 9.640889e-17 -0.77025667)
(202.0567 -9.0192756e-17 -0.67699882)
(201.73048 -8.441657e-17 -0.62301027)
(201.506 5.2655463e-17 -0.65122117)
(201.39292 0 -0.69918142)
(201.44608 4.6135839e-17 -0.53143278)
(201.08568 7.5473407e-21 -1.3608128)
(217.74281 0 -23.177358)
(255.81542 1.9422127e-20 -6.2589163)
(239.30512 9.1520339e-18 -22.966032)
(248.47218 2.9103892e-16 -7.9506904)
(242.44944 3.2597189e-19 -20.964994)
(245.432 -5.1041848e-16 -10.487856)
(242.92256 -3.1636027e-19 -18.613033)
(243.58922 4.6031523e-16 -12.899772)
(242.4415 -2.1177963e-16 -16.739036)
(242.18653 -1.2561151e-17 -14.538477)
(241.48346 1.1930432e-17 -15.75451)
(240.93724 -1.8114111e-16 -15.25887)
(240.30279 1.9298513e-16 -15.493845)
(239.66604 -1.8335247e-16 -15.450144)
(239.00022 3.088546e-16 -15.484726)
(238.31242 -3.1116826e-16 -15.488083)
(237.60092 1.3868213e-16 -15.487655)
(236.86622 0 -15.476005)
(236.10855 0 -15.453404)
(235.32837 1.4770499e-17 -15.418502)
(234.52631 -2.8002021e-17 -15.370237)
(233.70318 0 -15.307467)
(232.86003 2.0106159e-16 -15.229064)
(231.99809 4.6031312e-19 -15.133928)
(231.11882 -3.5981196e-16 -15.020996)
(230.2239 1.7000939e-16 -14.889268)
(229.31523 2.0114599e-17 -14.737844)
(228.39492 0 -14.565925)
(227.46527 -1.8014392e-16 -14.37286)
(226.52878 1.3584362e-16 -14.158153)
(225.58806 -2.252262e-16 -13.921497)
(224.64589 2.1200631e-16 -13.662788)
(223.70511 -2.2940581e-16 -13.382141)
(222.76861 2.1593921e-16 -13.079909)
(221.83931 7.6536471e-17 -12.756686)
(220.92006 0 -12.413306)
(220.01365 0 -12.050849)
(219.12273 4.2653686e-17 -11.670623)
(218.24981 4.0171249e-17 -11.274152)
(217.39718 -3.7817621e-17 -10.863158)
(216.56691 3.5586929e-17 -10.439534)
(215.76081 6.7121142e-17 -10.005311)
(214.98043 -6.3047742e-17 -9.5626422)
(214.22707 3.5542538e-16 -9.1137566)
(213.50173 -2.7801001e-16 -8.6609368)
(212.80516 5.2180374e-17 -8.2064889)
(212.13785 -4.9085558e-17 -7.7527127)
(211.50009 0 -7.3018812)
(210.89195 2.1573056e-16 -6.8562196)
(210.31336 -1.6157821e-16 -6.4178926)
(209.76409 0 -5.9889912)
(209.24383 0 -5.5715304)
(208.7522 1.3291118e-16 -5.1674437)
(208.28881 -6.21171e-17 -4.7785873)
(207.85326 0 -4.4067412)
(207.44521 -1.6317389e-16 -4.0536109)
(207.06435 1.0156503e-16 -3.7208221)
(206.71047 1.4253479e-16 -3.4099025)
(206.38339 -1.7728474e-16 -3.1222493)
(206.08293 1.6567863e-16 -2.859064)
(205.80872 -1.5452263e-16 -2.6212407)
(205.56015 6.799956e-20 -2.4092665)
(205.33596 0 -2.2230186)
(205.13379 6.2765771e-17 -2.0615134)
(204.94963 -2.9259898e-16 -1.9226767)
(204.77714 1.6360551e-16 -1.8030492)
(204.60686 0 -1.6975484)
(204.42561 -1.4219197e-16 -1.5993886)
(204.21667 8.8326514e-17 -1.5004764)
(203.96137 1.2356842e-16 -1.3926833)
(203.64376 2.6203253e-20 -1.2701813)
(203.25863 -7.1540355e-17 -1.1328821)
(202.82068 1.0006831e-16 -0.99038964)
(202.37022 -1.5550323e-16 -0.86097328)
(201.96892 8.6997584e-17 -0.76046967)
(201.66826 2.7021181e-17 -0.70792253)
(201.46348 5.0407483e-17 -0.73749581)
(201.37683 0 -0.75907704)
(201.44129 -4.3798185e-17 -0.58542196)
(200.9731 2.0347205e-17 -1.4782709)
(218.19794 0 -26.635831)
(256.59587 9.9013605e-18 -8.8690534)
(239.5624 -3.0857284e-16 -26.42986)
(249.00112 2.5204958e-16 -10.682619)
(242.69971 2.5882318e-16 -24.314383)
(245.75552 -5.0486093e-16 -13.377503)
(243.12052 2.3220571e-16 -21.775235)
(243.76244 2.3507877e-16 -15.950942)
(242.5705 -2.2278135e-16 -19.763778)
(242.25954 3.9652014e-17 -17.634918)
(241.51227 0 -18.738506)
(240.90809 0 -18.300697)
(240.22071 -2.2550271e-17 -18.4761)
(239.52594 -1.7118502e-16 -18.431389)
(238.80144 1.4167269e-16 -18.438276)
(238.053 1.921539e-17 -18.419701)
(237.27949 -3.6422613e-17 -18.392608)
(236.48158 3.1074697e-16 -18.351925)
(235.65979 -2.283648e-16 -18.297133)
(234.81489 2.4782895e-16 -18.226777)
(233.9479 -2.0480086e-16 -18.139594)
(233.06004 2.7762254e-17 -18.034292)
(232.15278 1.5772176e-16 -17.909619)
(231.22787 -1.9838014e-16 -17.764391)
(230.28726 0 -17.597501)
(229.33317 0 -17.407959)
(228.36807 0 -17.19492)
(227.39461 -1.9861473e-16 -16.957706)
(226.41564 1.8710458e-16 -16.695836)
(225.43419 -3.5444133e-17 -16.40905)
(224.45337 0 -16.097335)
(223.47639 -2.8410259e-16 -15.760939)
(222.50649 2.3746301e-16 -15.40038)
(221.54688 -5.6151594e-17 -15.016454)
(220.60068 1.5879092e-16 -14.610243)
(219.67089 -4.9356681e-17 -14.183086)
(218.76034 -1.8716664e-16 -13.736587)
(217.87164 2.2075713e-16 -13.272578)
(217.00713 -1.6573622e-16 -12.793093)
(216.16886 7.8157621e-17 -12.300345)
(215.35858 -7.3347102e-17 -11.79668)
(214.5777 1.3784823e-16 -11.284545)
(213.82734 -6.4600201e-17 -10.766453)
(213.10825 -2.4308216e-16 -10.24494)
(212.42092 5.1255718e-16 -9.7225355)
(211.76554 -2.1346191e-16 -9.2017315)
(211.14205 -1.5039855e-16 -8.6849566)
(210.55018 9.3523034e-17 -8.1745533)
(209.98948 8.7943264e-17 -7.6727651)
(209.45936 -1.6451991e-16 -7.1817252)
(208.95913 1.5370872e-16 -6.7034518)
(208.48804 0 -6.2398491)
(208.04534 1.3451041e-16 -5.7927085)
(207.63028 -1.8838771e-16 -5.3637173)
(207.24215 5.8698508e-17 -4.9544645)
(206.88031 5.4705674e-17 -4.5664446)
(206.54421 0 -4.2010551)
(206.2334 0 -3.8595791)
(205.94746 0 -3.5431535)
(205.68594 0 -3.2527031)
(205.44825 0 -2.9888291)
(205.23346 -7.1807596e-17 -2.7517069)
(205.03998 0 -2.5408935)
(204.86512 -5.7729596e-20 -2.3550831)
(204.70454 2.3173371e-16 -2.1918971)
(204.55161 -2.1553143e-16 -2.0476248)
(204.39678 -1.0031729e-16 -1.9170341)
(204.22709 -1.8649359e-16 -1.7933774)
(204.02646 2.599497e-16 -1.6689139)
(203.77757 7.2293383e-20 -1.5362891)
(203.46668 7.4880267e-17 -1.3909034)
(203.0913 0 -1.2343547)
(202.66826 0 -1.0776655)
(202.23886 0 -0.93828144)
(201.86362 -1.1185133e-16 -0.83124423)
(201.58731 0 -0.78196972)
(201.40464 -9.6548378e-17 -0.81145943)
(201.34613 1.3444395e-16 -0.79914668)
(201.40686 8.3252732e-17 -0.63590967)
(200.86065 -1.9219338e-17 -1.5876086)
(218.44564 0 -30.268557)
(257.17897 0 -11.587505)
(239.6279 3.2468643e-16 -30.023897)
(249.35113 1.9471593e-17 -13.570014)
(242.76949 -2.7173196e-16 -27.771672)
(245.87915 0 -16.441946)
(243.14063 1.6281114e-17 -25.018604)
(243.80493 -3.0859387e-17 -19.157267)
(242.4667 0 -22.8557)
(242.08089 1.9450647e-16 -20.851273)
(241.28334 -4.2109848e-16 -21.819221)
(240.6115 1.993937e-16 -21.446582)
(239.86213 2.3662779e-17 -21.563997)
(239.10011 0 -21.513676)
(238.30761 2.1233129e-17 -21.491868)
(237.48933 -3.4245588e-16 -21.44699)
(236.64481 7.5517332e-17 -21.388706)
(235.77498 2.523629e-16 -21.313343)
(234.88077 2.3962846e-16 -21.219882)
(233.9634 -2.5848097e-16 -21.106753)
(233.02438 0 -20.972532)
(232.06547 -2.8996662e-16 -20.81582)
(231.08873 2.4620528e-16 -20.635294)
(230.09651 -2.0748605e-16 -20.429752)
(229.09141 1.9556422e-16 -20.198134)
(228.07632 -1.853041e-16 -19.939549)
(227.05433 3.4955964e-16 -19.653328)
(226.02876 -1.6494302e-16 -19.339035)
(225.00306 1.5597808e-16 -18.996508)
(223.98082 -2.9404968e-16 -18.625871)
(222.96564 1.3839859e-16 -18.227564)
(221.96115 1.3068855e-16 -17.802346)
(220.97091 -2.4654853e-16 -17.351292)
(219.99833 5.7267885e-17 -16.875797)
(219.04665 -5.5677345e-19 -16.377557)
(218.11884 2.5647366e-16 -15.858536)
(217.2176 0 -15.320955)
(216.34529 1.8195587e-19 -14.767238)
(215.50389 0 -14.199976)
(214.69502 -8.0037002e-17 -13.621886)
(213.9199 -1.504001e-16 -13.035763)
(213.17936 7.0598858e-17 -12.444433)
(212.47386 0 -11.850715)
(211.80353 -6.2197601e-17 -11.257378)
(211.16818 2.9112227e-16 -10.66711)
(210.56733 -3.2682265e-16 -10.082491)
(210.00029 -3.0619554e-16 -9.5059697)
(209.46618 2.8590105e-16 -8.9398505)
(208.96399 -1.7839671e-16 -8.3862851)
(208.49261 0 -7.8472703)
(208.05089 0 -7.3246514)
(207.63767 7.2785106e-17 -6.820128)
(207.25184 6.7920221e-17 -6.3352662)
(206.89233 1.2657968e-16 -5.8715082)
(206.55816 -5.9014921e-17 -5.4301842)
(206.24845 -1.0992948e-16 -5.0125193)
(205.96245 -2.0497322e-16 -4.6196312)
(205.69946 -9.5607722e-17 -4.2525138)
(205.45889 1.774878e-16 -3.912004)
(205.24006 0 -3.5987127)
(205.04213 -7.6851849e-17 -3.3129134)
(204.86393 -1.4283248e-16 -3.0544357)
(204.70356 1.3267832e-16 -2.8224806)
(204.55805 6.1526086e-17 -2.6153901)
(204.42276 5.7217631e-17 -2.4304636)
(204.29091 0 -2.2637473)
(204.15293 1.9718897e-16 -2.1099112)
(203.99615 1.8295523e-16 -1.9623579)
(203.80527 -2.5456541e-16 -1.8138601)
(203.56449 7.8765127e-17 -1.6579865)
(203.26246 -7.2979302e-17 -1.4914678)
(202.89933 -3.2116109e-20 -1.3175778)
(202.49384 2.5100667e-16 -1.1483659)
(202.08794 -2.3267861e-16 -1.0001294)
(201.7399 5.3874279e-17 -0.88806181)
(201.48727 1.4982039e-16 -0.84247123)
(201.32865 -4.6250511e-17 -0.87104384)
(201.29709 -4.2771177e-17 -0.82933971)
(201.34523 0 -0.68345021)
(200.73636 3.6486693e-17 -1.6844061)
(218.49504 3.9470743e-16 -34.086902)
(257.56954 5.3129899e-19 -14.421246)
(239.48514 -3.6194943e-16 -33.762384)
(249.51818 0 -16.619958)
(242.59065 0 -31.31162)
(245.70895 -2.7006762e-16 -19.680526)
(242.85862 2.7319239e-16 -28.316546)
(243.37117 6.4792752e-17 -22.520906)
(242.08701 -2.4590291e-16 -26.042812)
(241.63012 2.3259537e-16 -24.208914)
(240.77209 -2.4855938e-16 -25.020692)
(240.02013 2.0891984e-16 -24.70952)
(239.19699 -4.9557925e-17 -24.768726)
(238.3563 -4.6988226e-17 -24.703687)
(237.48456 -1.7805511e-16 -24.648423)
(236.58562 1.6818e-16 -24.569752)
(235.6597 -3.5910776e-16 -24.472534)
(234.70816 6.036161e-16 -24.3538)
(233.73245 -2.8519467e-16 -24.212146)
(232.73441 -2.705598e-16 -24.045874)
(231.71617 2.5514725e-16 -23.853436)
(230.6802 -3.0369838e-17 -23.633377)
(229.62931 -2.2866675e-16 -23.384382)
(228.56659 2.1541171e-16 -23.105333)
(227.49544 2.5512917e-16 -22.795331)
(226.41951 -1.4387607e-16 -22.453736)
(225.34264 0 -22.080214)
(224.26884 2.572242e-16 -21.67475)
(223.2022 -3.2306933e-16 -21.23769)
(222.14684 1.1369168e-16 -20.769743)
(221.1068 -2.8734178e-16 -20.271994)
(220.08603 2.0244421e-16 -19.7459)
(219.08823 -6.3772231e-17 -19.19327)
(218.11688 2.396633e-16 -18.616243)
(217.17508 -2.2481313e-16 -18.01726)
(216.26557 -2.1184629e-16 -17.399009)
(215.39066 1.9856102e-16 -16.764387)
(214.5522 -4.6571979e-17 -16.116444)
(213.75158 0 -15.458324)
(212.9897 8.237626e-17 -14.793214)
(212.26706 -7.6903464e-17 -14.124294)
(211.58368 0 -13.454679)
(210.93924 1.3537307e-16 -12.787387)
(210.33305 -6.3318249e-17 -12.125295)
(209.76416 -1.7755925e-16 -11.471116)
(209.23136 5.537674e-16 -10.82738)
(208.73328 -2.0729491e-16 -10.19642)
(208.26842 9.6696768e-17 -9.5803698)
(207.83522 -2.7108047e-16 -8.9811649)
(207.43209 -1.8067772e-19 -8.4005513)
(207.05746 1.5715864e-16 -7.8400981)
(206.70981 -1.4659684e-16 -7.3012109)
(206.38773 -6.8223942e-17 -6.78515)
(206.0899 -6.3543686e-17 -6.293046)
(205.81513 -1.1861891e-16 -5.8259142)
(205.56237 2.2027759e-16 -5.3846626)
(205.33067 0 -4.9700903)
(205.1192 9.5175388e-17 -4.5828694)
(204.9272 -3.5408891e-16 -4.223509)
(204.7538 2.4639671e-16 -3.8922799)
(204.59797 7.6245079e-17 -3.5891034)
(204.4583 1.4161915e-16 -3.3134395)
(204.33267 1.3156632e-16 -3.0641078)
(204.21783 -1.2169497e-16 -2.8390808)
(204.10897 -1.1275627e-16 -2.6353326)
(203.99917 -3.1363831e-16 -2.4486905)
(203.87894 -4.3713688e-20 -2.2737917)
(203.73601 -8.9607318e-17 -2.1042991)
(203.55594 0 -1.9336186)
(203.32458 -2.3037459e-16 -1.7563161)
(203.03299 7.1064087e-17 -1.5704768)
(202.68387 0 -1.3809585)
(202.29767 1.2163877e-16 -1.2004805)
(201.9169 0 -1.0442894)
(201.59682 1.0391061e-16 -0.9289787)
(201.36765 -1.4395765e-16 -0.88637022)
(201.2334 1.3293713e-16 -0.9102521)
(201.22638 -8.1738974e-17 -0.84199893)
(201.25444 7.5408516e-17 -0.72644042)
(200.60301 0 -1.7635698)
(218.33816 -4.1470305e-16 -38.099956)
(257.75887 3.6676926e-16 -17.387387)
(239.09922 -3.358026e-16 -37.674507)
(249.45652 3.3403372e-16 -19.843302)
(242.13396 3.1978408e-16 -34.913192)
(245.2936 -1.8201966e-17 -23.100835)
(242.3275 -2.8633701e-16 -31.692925)
(242.79208 -2.7179219e-16 -26.073541)
(241.42865 2.8928174e-16 -29.347178)
(240.86498 0 -27.711951)
(239.93598 2.8863189e-17 -28.352248)
(239.09127 0 -28.090785)
(238.18169 -1.2978772e-16 -28.091224)
(237.25009 2.4506332e-16 -28.00006)
(236.28701 0 -27.903635)
(235.29584 0 -27.781)
(234.27762 0 -27.633999)
(233.23431 3.944949e-17 -27.459956)
(232.16811 0 -27.257188)
(231.08163 -2.4671883e-16 -27.023917)
(229.97787 3.3240493e-16 -26.758543)
(228.86019 1.2576388e-16 -26.459672)
(227.73232 1.7831345e-16 -26.126124)
(226.5983 -2.8006773e-16 -25.757027)
(225.46242 -5.2779934e-17 -25.351832)
(224.32921 -2.4972147e-16 -24.910361)
(223.20331 1.8794582e-16 -24.432842)
(222.08944 -2.2195124e-16 -23.919935)
(220.99225 8.3060826e-17 -23.37273)
(219.9163 7.8512398e-17 -22.79276)
(218.86591 0 -22.181985)
(217.84511 2.7921019e-16 -21.542754)
(216.85756 -2.6222026e-16 -20.877781)
(215.90645 0 -20.190084)
(214.99448 -2.3177842e-16 -19.482939)
(214.1238 2.1709867e-16 -18.759809)
(213.29601 -1.022796e-16 -18.024273)
(212.51214 1.9150246e-16 -17.279971)
(211.77268 -2.6906068e-16 -16.530524)
(211.07759 1.2395407e-19 -15.779483)
(210.42636 -1.5719397e-16 -15.03027)
(209.81807 -7.3566539e-17 -14.286137)
(209.25145 -1.3803967e-16 -13.550125)
(208.72494 2.5734189e-16 -12.825048)
(208.23675 -1.2009493e-16 -12.113467)
(207.78494 0 -11.417695)
(207.36748 -3.5497425e-19 -10.739791)
(206.9823 9.7677659e-17 -10.081575)
(206.62736 0 -9.4446412)
(206.30065 8.4946643e-17 -8.8303738)
(206.00028 7.9401756e-17 -8.2399722)
(205.72446 -7.3719908e-17 -7.6744708)
(205.47157 2.7445791e-16 -7.1347611)
(205.24012 -2.5512251e-16 -6.6216116)
(205.02879 -1.186372e-16 -6.1356826)
(204.83642 -1.1020255e-16 -5.6775355)
(204.66196 1.0231679e-16 -5.2476272)
(204.50447 1.8979372e-16 -4.8462909)
(204.36307 -3.5200609e-16 -4.4736939)
(204.23677 4.0789918e-16 -4.1297534)
(204.12437 -1.5112363e-16 -3.8140265)
(204.02429 1.4004682e-16 -3.5255927)
(203.93418 -1.2962544e-16 -3.2628797)
(203.85063 2.4003205e-16 -3.0234889)
(203.76868 -3.3315971e-16 -2.8040836)
(203.68137 2.0533805e-16 -2.6003094)
(203.57935 -8.9630505e-20 -2.4068427)
(203.45078 8.7764556e-17 -2.2177019)
(203.28219 0 -2.0269989)
(203.06117 0 -1.8303073)
(202.78113 0 -1.6270327)
(202.44707 -1.2759799e-16 -1.4234516)
(202.08112 3.6000648e-20 -1.2326191)
(201.7261 0 -1.0691961)
(201.43315 0 -0.95282977)
(201.22635 9.2274125e-17 -0.91261573)
(201.11697 -1.6988403e-16 -0.92430715)
(201.13213 0 -0.83435933)
(201.12116 0 -0.76652545)
(200.46066 -1.3174009e-16 -1.8195038)
(217.94609 2.7968065e-17 -42.316666)
(257.71669 -7.9412955e-16 -20.507838)
(238.44269 3.5136777e-16 -41.740389)
(248.91206 -2.1953724e-17 -23.25152)
(241.36898 3.7692888e-16 -38.623957)
(244.5601 -3.5549881e-16 -26.742099)
(241.50791 0 -35.184771)
(241.84209 -3.2016637e-16 -29.817776)
(240.4262 2.3536279e-16 -32.767599)
(239.7409 2.2352124e-16 -31.354158)
(238.72737 -2.4127513e-16 -31.817701)
(237.77583 0 -31.587427)
(236.7655 1.7928392e-19 -31.526714)
(235.72956 0 -31.3956)
(234.66212 3.8849471e-16 -31.246579)
(233.5666 -7.3388096e-16 -31.066309)
(232.44499 3.4646034e-16 -30.854821)
(231.30012 -4.092651e-17 -30.609563)
(230.13517 -3.8875044e-17 -30.32869)
(228.95382 3.6933349e-17 -30.010433)
(227.76017 -6.9006481e-17 -29.653304)
(226.55872 -3.2681931e-16 -29.25612)
(225.35431 3.0759677e-16 -28.818073)
(224.15209 5.7985736e-17 -28.338788)
(222.95736 -2.7470865e-16 -27.818343)
(221.77556 -6.7813224e-19 -27.257334)
(220.61208 2.917615e-16 -26.656865)
(219.47225 -1.831049e-16 -26.018566)
(218.36112 -5.8484041e-19 -25.344576)
(217.28343 0 -24.637513)
(216.2435 0 -23.900433)
(215.24509 -7.2009153e-17 -23.136767)
(214.29138 1.3482543e-16 -22.350264)
(213.3849 0 -21.544899)
(212.52751 -1.19127e-16 -20.724801)
(211.72036 2.2291995e-16 -19.894168)
(210.96395 -1.0442444e-16 -19.057176)
(210.25815 -1.9569067e-16 -18.217911)