/*--------------------------------*- C++ -*----------------------------------*\
  =========                 |
  \\      /  F ield         | OpenFOAM: The Open Source CFD Toolbox
   \\    /   O peration     | Website:  https://openfoam.org
    \\  /    A nd           | Version:  12
     \\/     M anipulation  |
\*---------------------------------------------------------------------------*/
FoamFile
{
    format      ascii;
    class       volVectorField;
    location    "0.14";
    object      U;
}
// * * * * * * * * * * * * * * * * * * * * * * * * * * * * * * * * * * * * * //

dimensions      [0 1 -1 0 0 0 0];

internalField   nonuniform List<vector> 
16000
(
(215.74234 -3.1384628e-17 -8.3922616)
(252.7111 0 5.3900432)
(238.72996 0 -7.5811359)
(246.47322 4.9661699e-17 3.7942371)
(241.7778 -4.9020481e-17 -5.9626858)
(243.98718 0 1.7584615)
(242.19046 0 -4.3325665)
(242.69685 8.3906462e-17 -0.026781102)
(241.85587 -7.9717723e-17 -3.1636681)
(241.7341 0 -1.2683344)
(241.21981 7.2031042e-17 -2.5683829)
(240.87207 -2.0521636e-16 -1.9864751)
(240.42808 1.2988906e-16 -2.4259445)
(239.99902 -1.2355478e-16 -2.3626602)
(239.54189 1.1722907e-16 -2.5237995)
(239.07091 -3.4774333e-18 -2.5955386)
(238.58131 -3.3034238e-18 -2.698839)
(238.074 -9.7479859e-17 -2.7913828)
(237.54843 1.9098393e-16 -2.8856807)
(237.00447 -9.0614558e-17 -2.977762)
(236.44196 1.7236186e-16 -3.0680132)
(235.86084 -1.6338465e-16 -3.1557394)
(235.26109 0 -3.2404448)
(234.64282 1.5208617e-16 -3.3215504)
(234.00622 -4.1158606e-18 -3.3984688)
(233.35159 -2.6543905e-16 -3.4705808)
(232.67933 1.2580909e-16 -3.5372601)
(231.98997 0 -3.5978674)
(231.28419 0 -3.6517666)
(230.56277 2.184911e-16 -3.6983298)
(229.82663 -2.0357569e-16 -3.736951)
(229.07685 0 -3.7670547)
(228.31463 0 -3.7881069)
(227.5413 0 -3.7996297)
(226.75833 5.1360221e-18 -3.8012111)
(225.96731 1.5586896e-16 -3.7925166)
(225.16991 -1.4268528e-16 -3.7733011)
(224.36793 -1.3974997e-16 -3.743416)
(223.56323 1.2374038e-16 -3.7028195)
(222.75774 0 -3.6515825)
(221.95342 -1.1843125e-16 -3.589891)
(221.15225 1.1178621e-16 -3.5180495)
(220.3562 -2.1185642e-16 -3.4364788)
(219.56721 1.9988179e-16 -3.3457122)
(218.78717 -1.9521462e-16 -3.2463892)
(218.0179 3.5740827e-16 -3.1392447)
(217.26111 5.5995346e-18 -3.0250978)
(216.51838 2.9698206e-19 -2.9048367)
(215.7912 -1.5043895e-16 -2.779402)
(215.08086 1.4228214e-16 -2.6497701)
(214.38852 -1.256795e-16 -2.5169346)
(213.71517 0 -2.3818882)
(213.06161 7.4696356e-18 -2.2456064)
(212.42846 0 -2.1090297)
(211.81616 6.647073e-18 -1.9730488)
(211.22497 2.0697796e-16 -1.8384934)
(210.65497 -3.7830585e-16 -1.7061198)
(210.10608 1.0924102e-17 -1.5766025)
(209.57804 1.6810723e-16 -1.4505247)
(209.07041 -1.4879849e-16 -1.3283878)
(208.58254 1.4015953e-16 -1.2105867)
(208.11371 -8.8194658e-18 -1.0974557)
(207.66303 0 -0.98922619)
(207.22934 0 -0.88602772)
(206.81116 -1.1114086e-16 -0.78790275)
(206.40656 1.1181975e-16 -0.69479962)
(206.01322 -9.9082211e-17 -0.60658555)
(205.6285 1.9340412e-16 -0.52305785)
(205.24978 -1.8874664e-16 -0.44396181)
(204.87462 8.3675309e-17 -0.36902143)
(204.5006 5.2838881e-18 -0.29796568)
(204.12485 0 -0.23053246)
(203.74369 4.750697e-18 -0.16652089)
(203.35331 -4.5126539e-18 -0.10578322)
(202.95148 0 -0.047848635)
(202.53809 -3.374819e-17 0.0061224552)
(202.10573 6.2467078e-17 0.056102502)
(201.71458 -3.1744123e-17 0.12540427)
(201.11679 0 0.064328955)
(200.96129 0 0.4250632)
(217.06101 0 -11.216875)
(254.3538 -3.7237726e-18 3.3442376)
(239.74601 -1.1968988e-16 -10.511921)
(247.93777 1.1034486e-16 1.7042933)
(242.88682 0 -8.8316124)
(245.32886 1.0152389e-16 -0.40271996)
(243.32734 -1.8747714e-16 -7.0837346)
(243.92303 -1.0236657e-19 -2.3110944)
(242.99064 8.4488089e-17 -5.7586349)
(242.86986 0 -3.6703926)
(242.31486 -1.5261518e-16 -5.0480322)
(241.93829 1.4928561e-16 -4.4335195)
(241.46238 1.4198551e-16 -4.8591505)
(240.999 -2.6137536e-16 -4.796569)
(240.50743 1.2015566e-16 -4.9374633)
(240.00012 1.1046445e-17 -5.0017934)
(239.47321 1.1551235e-16 -5.0894286)
(238.92729 -1.0287687e-16 -5.1681656)
(238.36197 0 -5.2463373)
(237.77713 0 -5.3212503)
(237.17272 5.6768374e-18 -5.3927879)
(236.54873 -1.7809015e-16 -5.4602451)
(235.9053 3.3769315e-16 -5.522992)
(235.24264 -3.1555058e-16 -5.5803493)
(234.56109 1.4262656e-16 -5.6316234)
(233.86111 0 -5.6761065)
(233.14328 1.2439738e-16 -5.7130821)
(232.40835 -1.3339144e-16 -5.7418405)
(231.65716 0 -5.7616858)
(230.89075 3.5250631e-18 -5.771948)
(230.11027 -1.3370976e-17 -5.7719939)
(229.31703 0 -5.7612429)
(228.51247 0 -5.7391747)
(227.69818 -1.7062209e-16 -5.7053496)
(226.87587 3.3879859e-16 -5.6594164)
(226.04735 -1.6268896e-16 -5.6011263)
(225.21455 -1.5909436e-16 -5.5303455)
(224.37946 1.4561306e-16 -5.4470614)
(223.54412 -1.1215561e-16 -5.3513926)
(222.71062 -2.8599278e-19 -5.2435927)
(221.88105 -2.6752089e-19 -5.124052)
(221.05747 2.3279626e-16 -4.9932969)
(220.24193 -1.0983682e-16 -4.8519847)
(219.43636 0 -4.7008953)
(218.64264 2.0238406e-16 -4.5409219)
(217.8625 1.1937645e-17 -4.3730555)
(217.09757 -5.1180391e-18 -4.1983685)
(216.3493 -1.6454657e-16 -4.0179963)
(215.61899 0 -3.8331172)
(214.90776 -1.4656501e-16 -3.6449315)
(214.21655 -8.8595735e-18 -3.4546416)
(213.5461 2.6013049e-16 -3.2634306)
(212.897 -1.3009749e-16 -3.0724441)
(212.26963 0 -2.8827721)
(211.66419 -2.0384187e-17 -2.6954334)
(211.08071 -2.1122271e-16 -2.5113645)
(210.51905 3.612976e-16 -2.3314074)
(209.97893 -2.1528773e-16 -2.1563026)
(209.4599 0 -1.9866813)
(208.96137 -1.7080576e-16 -1.8230748)
(208.48257 1.7948993e-16 -1.6658899)
(208.0226 2.6686677e-17 -1.5154494)
(207.58052 0 -1.3719746)
(207.1551 -1.4188941e-16 -1.2355643)
(206.74482 7.32145e-18 -1.1062237)
(206.34776 1.1170513e-16 -0.98385929)
(205.96157 -1.9735723e-17 -0.86829182)
(205.58357 9.2994162e-17 -0.75926711)
(205.21102 -1.0511539e-16 -0.65647099)
(204.84141 5.5080622e-18 -0.55956209)
(204.47231 -5.1971652e-18 -0.46819706)
(204.10092 0 -0.3820358)
(203.72359 -4.6371628e-18 -0.30084551)
(203.33626 4.3860879e-18 -0.22453916)
(202.93614 8.3071125e-18 -0.15282846)
(202.52314 9.8434056e-19 -0.085906701)
(202.10086 0 -0.020872987)
(201.66914 3.0223483e-17 0.03819123)
(201.16314 -5.7572198e-17 0.035912565)
(200.87152 2.5856589e-17 0.32923737)
(218.24329 0 -14.114356)
(255.84216 -1.2248067e-16 1.0966888)
(240.70575 2.4978061e-16 -13.525909)
(249.20143 -2.2306748e-16 -0.54941854)
(243.88923 1.101704e-16 -11.771602)
(246.4678 -3.262243e-18 -2.7533312)
(244.33861 9.9292782e-17 -9.8797125)
(244.96014 -9.4038277e-17 -4.7908852)
(243.97087 -5.5823526e-18 -8.4163947)
(243.82675 -5.3004239e-18 -6.2370218)
(243.23641 -1.0068916e-17 -7.6255382)
(242.82383 1.3891927e-16 -7.0167295)
(242.31244 -1.408143e-16 -7.4109948)
(241.81055 1.3820137e-16 -7.3554154)
(241.27987 -1.1872261e-16 -7.4748774)
(240.73179 -1.5560334e-17 -7.5310958)
(240.16284 0 -7.60305)
(239.5736 -1.2447421e-20 -7.6668561)
(238.96377 -2.2632212e-16 -7.7278624)
(238.33334 -3.6736966e-19 -7.7840453)
(237.68235 1.7347062e-16 -7.8349735)
(237.01095 1.703965e-17 -7.8798568)
(236.31941 -2.1552999e-17 -7.9179438)
(235.60811 0 -7.9484503)
(234.87758 7.4032015e-21 -7.9705856)
(234.12847 -1.6545385e-16 -7.9835557)
(233.36159 1.4781489e-16 -7.9865749)
(232.57791 8.2500132e-18 -7.9788738)
(231.77855 0 -7.959718)
(230.9648 -7.4014201e-18 -7.9284153)
(230.13809 -1.1477945e-21 -7.8843353)
(229.30001 -1.9923533e-16 -7.8269218)
(228.45231 2.0065513e-16 -7.7557085)
(227.59686 1.1889903e-17 -7.6703371)
(226.73565 -1.8000019e-16 -7.5705667)
(225.87076 1.4855501e-16 -7.4562903)
(225.00437 -1.8101466e-16 -7.3275441)
(224.13868 1.5172288e-16 -7.1845161)
(223.27594 -1.4365899e-16 -7.0275492)
(222.41837 1.3539184e-16 -6.857146)
(221.56819 1.6008686e-17 -6.6739655)
(220.72752 0 -6.4788152)
(219.89839 1.9969752e-16 -6.2726442)
(219.08275 -2.4171318e-16 -6.0565281)
(218.28235 0 -5.8316524)
(217.49882 1.7939882e-16 -5.5992948)
(216.73361 -1.5742698e-16 -5.3608011)
(215.98797 1.6985633e-16 -5.1175638)
(215.26295 -1.7966177e-16 -4.8709975)
(214.55941 0 -4.6225162)
(213.87801 1.7716036e-16 -4.3735108)
(213.21921 -1.3314215e-16 -4.1253263)
(212.58328 0 -3.8792431)
(211.97032 0 -3.6364607)
(211.38023 1.2474891e-16 -3.398081)
(210.81279 -2.0833683e-16 -3.1651005)
(210.26758 1.2229741e-16 -2.9383993)
(209.74409 1.8405231e-16 -2.718737)
(209.24167 1.9862671e-19 -2.5067466)
(208.75953 1.7666342e-19 -2.3029443)
(208.29675 -3.2395371e-16 -2.1077131)
(207.8523 8.940322e-17 -1.9213285)
(207.42511 0 -1.7439696)
(207.01389 1.4208994e-16 -1.5756798)
(206.61709 -1.629887e-16 -1.4164028)
(206.23276 1.1140086e-16 -1.2659821)
(205.85854 1.3148132e-17 -1.1241732)
(205.49173 -8.5958254e-17 -0.99065749)
(205.12956 1.1543023e-17 -0.86505994)
(204.76943 2.1707519e-17 -0.74698171)
(204.40896 -1.0208129e-16 -0.6360061)
(204.04545 9.6006733e-17 -0.53170595)
(203.67533 -7.2335999e-17 -0.4338474)
(203.29432 1.3625824e-16 -0.34243591)
(202.89958 -5.6188481e-17 -0.25696194)
(202.49218 -6.0624061e-17 -0.17669018)
(202.0742 5.0090081e-17 -0.10154308)
(201.63278 0 -0.04080991)
(201.17158 3.2055509e-18 0.0007458766)
(200.81347 -1.215658e-17 0.22834845)
(219.26709 0 -17.081655)
(257.18114 0 -1.2856536)
(241.46362 0 -16.675335)
(250.28762 1.0659895e-16 -2.9112292)
(244.70735 -1.2377852e-16 -14.841905)
(247.44133 -2.2044947e-16 -5.2226592)
(245.16974 2.0966748e-16 -12.794352)
(245.81968 -1.2418179e-17 -7.3985699)
(244.76606 5.9133884e-18 -11.184968)
(244.59443 -1.7389045e-16 -8.9356231)
(243.9641 1.7023705e-16 -10.314689)
(243.50992 1.0117347e-17 -9.7256507)
(242.95813 -1.5363154e-16 -10.080453)
(242.41236 1.3647417e-16 -10.033423)
(241.83741 -1.389409e-20 -10.130133)
(241.24337 -8.184569e-18 -10.176237)
(240.62736 0 -10.230874)
(239.98989 -7.3887444e-18 -10.277274)
(239.33082 -2.103237e-16 -10.318446)
(238.65024 2.123694e-16 -10.352813)
(237.94832 1.2606175e-17 -10.379715)
(237.22538 -1.1951799e-17 -10.398273)
(236.48185 2.15372e-16 -10.407637)
(235.71832 -1.7155504e-16 -10.406928)
(234.93552 1.0173843e-17 -10.395266)
(234.13435 1.9291177e-16 -10.371785)
(233.31591 -1.276115e-16 -10.335633)
(232.48143 0 -10.286002)
(231.63235 1.4745577e-16 -10.222131)
(230.77028 -1.2377152e-16 -10.143337)
(229.89698 2.4944862e-16 -10.049017)
(229.0144 -1.3323284e-17 -9.9386817)
(228.1246 -2.0953278e-16 -9.8119643)
(227.22979 1.7379164e-16 -9.6686394)
(226.33226 -1.8721784e-16 -9.5086354)
(225.43438 -2.9652581e-20 -9.3320497)
(224.53857 2.0929612e-16 -9.1391551)
(223.64725 -3.1586285e-16 -8.9304043)
(222.76282 9.2964134e-17 -8.7064322)
(221.88763 3.5196626e-17 -8.4680511)
(221.02393 -4.9769585e-17 -8.2162447)
(220.17385 0 -7.9521525)
(219.33936 -8.8559375e-17 -7.6770561)
(218.52227 1.3870065e-16 -7.3923567)
(217.7242 -2.094268e-16 -7.0995535)
(216.94654 1.9677635e-16 -6.8002197)
(216.19048 -2.0871285e-16 -6.4959727)
(215.45697 3.924488e-16 -6.1884496)
(214.74675 -3.0755205e-16 -5.8792807)
(214.06035 3.0840555e-16 -5.5700634)
(213.39807 -1.4475491e-16 -5.2623393)
(212.76001 1.3626027e-16 -4.9575735)
(212.14612 -9.5787769e-17 -4.6571343)
(211.55613 3.0036216e-17 -4.3622816)
(210.98965 0 -4.074151)
(210.44614 0 -3.7937491)
(209.92494 0 -3.5219467)
(209.42526 2.325005e-17 -3.2594765)
(208.94624 0 -3.0069314)
(208.48693 -1.6363711e-16 -2.7647739)
(208.04623 1.915606e-16 -2.5333301)
(207.623 -1.0782053e-16 -2.3128005)
(207.21606 -1.1700658e-19 -2.1032932)
(206.82405 2.5224853e-16 -1.9047784)
(206.44541 2.9626003e-17 -1.7171219)
(206.07819 -1.3834825e-16 -1.5400921)
(205.72004 5.1881426e-17 -1.3733711)
(205.36827 -1.4575089e-16 -1.2165699)
(205.02005 -4.5542078e-17 -1.0692519)
(204.67275 -6.4018483e-17 -0.93095998)
(204.32401 -6.0032818e-17 -0.80119602)
(203.97129 5.6258335e-17 -0.67945608)
(203.61109 0 -0.5655506)
(203.23898 0 -0.45949145)
(202.85235 -1.5507078e-17 -0.36024487)
(202.45271 0 -0.2671797)
(202.03878 6.8504244e-18 -0.18379156)
(201.60042 5.1585521e-17 -0.11336464)
(201.16545 -7.2874176e-17 -0.044613935)
(200.75717 -1.2071633e-20 0.12578799)
(220.11284 0 -20.247441)
(258.34762 -8.8118038e-18 -3.745018)
(242.09367 2.665454e-16 -19.961045)
(251.151 -2.4895525e-16 -5.3991651)
(245.28926 2.5404724e-16 -18.027568)
(248.21139 -2.3242467e-16 -7.8453452)
(245.80025 -2.2156482e-16 -15.81511)
(246.46742 2.0973733e-16 -10.164778)
(245.35214 0 -14.056956)
(245.14241 0 -11.784594)
(244.46988 1.7975092e-16 -13.118467)
(243.96736 -1.7028817e-16 -12.567702)
(243.37043 -1.0116494e-17 -12.873279)
(242.7756 2.8774233e-17 -12.834037)
(242.15144 -9.1060811e-18 -12.905943)
(241.50662 3.4536876e-17 -12.938182)
(240.83879 0 -12.972558)
(240.14844 0 -12.9978)
(239.43552 -2.3586742e-16 -13.01531)
(238.70027 2.0918097e-16 -13.023735)
(237.94303 0 -13.022228)
(237.16428 0 -13.009806)
(236.36469 -1.9033251e-16 -12.985487)
(235.5451 3.6019998e-16 -12.948288)
(234.70653 -1.7036294e-16 -12.897228)
(233.85021 -2.0183279e-17 -12.831355)
(232.97756 -3.8226952e-17 -12.749765)
(232.09022 -1.4484873e-16 -12.65162)
(231.18999 1.1959448e-16 -12.536166)
(230.27888 0 -12.402758)
(229.35907 -3.0630818e-17 -12.25088)
(228.4329 0 -12.080168)
(227.50281 0 -11.89042)
(226.57136 2.0678596e-16 -11.681624)
(225.64118 -2.1917672e-16 -11.453958)
(224.71492 2.299208e-17 -11.207808)
(223.79522 -2.1694488e-17 -10.94377)
(222.88468 -4.1014287e-17 -10.662645)
(221.98581 -8.5100306e-20 -10.365437)
(221.10099 8.0848265e-20 -10.05334)
(220.23243 -7.6308086e-20 -9.7277241)
(219.38218 0 -9.3901087)
(218.55205 -1.2175657e-16 -9.0421458)
(217.74361 1.1433471e-16 -8.6855856)
(216.95821 0 -8.3222492)
(216.19691 -5.0676611e-17 -7.9540015)
(215.46055 1.9046976e-16 -7.5827139)
(214.74969 -2.2328426e-16 -7.2102402)
(214.06466 -2.1006933e-16 -6.8383865)
(213.40557 1.5749688e-16 -6.4688867)
(212.77231 1.1108075e-16 -6.1033798)
(212.1646 -1.3865436e-16 -5.7433924)
(211.58197 -3.2507748e-17 -5.3903211)
(211.0238 -2.1355665e-16 -5.0454242)
(210.48936 1.1421753e-16 -4.7098108)
(209.97781 -1.0712509e-16 -4.3844394)
(209.4882 1.0019854e-16 -4.0701166)
(209.01951 2.3476863e-16 -3.7674969)
(208.57066 -1.7558568e-16 -3.4770866)
(208.14054 0 -3.1992542)
(207.7279 -3.8424007e-17 -2.9342303)
(207.33149 -7.1924321e-17 -2.6821148)
(206.95005 1.3439261e-16 -2.4429153)
(206.58217 1.2573735e-16 -2.2165099)
(206.22627 -2.3497105e-16 -2.00267)
(205.88044 8.2293111e-17 -1.8010763)
(205.54237 5.1298806e-17 -1.6113267)
(205.20937 9.5903756e-17 -1.4329568)
(204.87863 1.3444935e-16 -1.2654682)
(204.54746 2.4247205e-20 -1.1083426)
(204.21356 0 -0.96099541)
(203.87457 0 -0.82287092)
(203.52706 -3.4217232e-17 -0.69384335)
(203.16667 9.6004707e-17 -0.57377123)
(202.79111 -8.9793362e-17 -0.46109256)
(202.4013 -8.4056998e-17 -0.35629756)
(201.99357 5.2454736e-17 -0.26495655)
(201.5652 0 -0.18000899)
(201.1478 4.6079958e-17 -0.088962914)
(200.7072 2.1054486e-20 0.024539837)
(220.75958 0 -23.585863)
(259.31512 1.9150287e-20 -6.2805695)
(242.5277 9.0700518e-18 -23.342179)
(251.8469 2.8833855e-16 -8.0259655)
(245.71308 3.3410237e-19 -21.317067)
(248.74967 -5.0575307e-16 -10.61923)
(246.1855 -3.2427758e-19 -18.931168)
(246.87419 4.5615563e-16 -13.093878)
(245.69829 -2.0987663e-16 -17.029955)
(245.44356 -1.244925e-17 -14.783209)
(244.72733 1.1824113e-17 -16.035635)
(244.17136 -1.7954256e-16 -15.535942)
(243.52556 1.912804e-16 -15.784343)
(242.87741 -1.8175013e-16 -15.748849)
(242.19966 3.0616218e-16 -15.793669)
(241.49948 -3.0847062e-16 -15.807553)
(240.77505 1.3748229e-16 -15.818245)
(240.02685 0 -15.818305)
(239.25505 0 -15.808001)
(238.46006 1.4645154e-17 -15.785991)
(237.64246 -2.7768853e-17 -15.751212)
(236.80305 0 -15.702519)
(235.9428 1.9941153e-16 -15.638777)
(235.06291 4.7325969e-19 -15.558876)
(234.16483 -3.5688629e-16 -15.461736)
(233.25021 1.6863097e-16 -15.346344)
(232.32091 1.995265e-17 -15.211771)
(231.37905 0 -15.057196)
(230.42691 -1.7874136e-16 -14.881932)
(229.46699 1.3478168e-16 -14.685451)
(228.50193 -2.2350909e-16 -14.467402)
(227.5345 2.1037689e-16 -14.22764)
(226.56757 -2.2768889e-16 -13.966232)
(225.60407 2.143186e-16 -13.68348)
(224.64693 7.5975704e-17 -13.379924)
(223.69905 0 -13.05634)
(222.76323 0 -12.713748)
(221.84217 4.2345648e-17 -12.35339)
(220.93838 3.9884351e-17 -11.976722)
(220.05417 -3.7550564e-17 -11.585388)
(219.1916 3.5338485e-17 -11.181194)
(218.35249 6.6671952e-17 -10.766078)
(217.53833 -6.2621584e-17 -10.342079)
(216.75037 3.5306691e-16 -9.9112977)
(215.98952 -2.7618095e-16 -9.4758638)
(215.25642 5.1837225e-17 -9.037902)
(214.55141 -4.8776097e-17 -8.5994961)
(213.8746 0 -8.1626623)
(213.22581 2.1438499e-16 -7.7293198)
(212.60468 -1.6057716e-16 -7.3012712)
(212.01064 0 -6.8801802)
(211.44295 0 -6.4675617)
(210.90076 1.3213018e-16 -6.0647674)
(210.38307 -6.1756845e-17 -5.6729835)
(209.8888 0 -5.2932261)
(209.41682 -1.6226606e-16 -4.9263436)
(208.96592 1.0100649e-16 -4.5730211)
(208.53487 1.4177691e-16 -4.2337848)
(208.1224 -1.7635711e-16 -3.9090092)
(207.72724 1.6484282e-16 -3.5989317)
(207.34805 -1.5376209e-16 -3.3036529)
(206.98348 6.6232873e-20 -3.0231475)
(206.63221 0 -2.7573003)
(206.29282 6.2499147e-17 -2.50588)
(205.96373 -2.9139436e-16 -2.2685522)
(205.64308 1.6296833e-16 -2.0448999)
(205.32863 0 -1.8344314)
(205.01777 -1.4169426e-16 -1.6366046)
(204.70765 8.8018088e-17 -1.450859)
(204.39561 1.2313466e-16 -1.2766082)
(204.0794 3.3961409e-20 -1.1131839)
(203.75681 -7.1267727e-17 -0.96001469)
(203.42455 9.9671103e-17 -0.81701867)
(203.07852 -1.5483669e-16 -0.68373647)
(202.71667 8.6603973e-17 -0.55829786)
(202.33859 2.6904994e-17 -0.44299186)
(201.93961 5.0219986e-17 -0.34357888)
(201.52524 0 -0.2421981)
(201.12295 -4.3748673e-17 -0.13711537)
(200.65793 2.0374052e-17 -0.074079707)
(221.19118 0 -27.092918)
(260.07578 9.8049936e-18 -8.9226645)
(242.76127 -3.0577764e-16 -26.848603)
(252.35741 2.4966123e-16 -10.794674)
(245.94079 2.5645483e-16 -24.705903)
(249.04523 -5.0017976e-16 -13.548282)
(246.36785 2.3007194e-16 -22.129988)
(247.02324 2.3293173e-16 -16.185659)
(245.80389 -2.2075178e-16 -20.088911)
(245.48667 3.9293731e-17 -17.918571)
(244.72592 0 -19.05435)
(244.11105 0 -18.614888)
(243.41142 -2.2348561e-17 -18.802479)
(242.70412 -1.6967406e-16 -18.766483)
(241.96647 1.4041791e-16 -18.783514)
(241.20426 1.904842e-17 -18.775514)
(240.41634 -3.6108403e-17 -18.759537)
(239.60333 3.0807786e-16 -18.730523)
(238.7657 -2.2639417e-16 -18.687938)
(237.90421 2.4573146e-16 -18.630327)
(237.0198 -2.0306364e-16 -18.556418)
(236.11369 2.7532319e-17 -18.46491)
(235.18731 1.5642152e-16 -18.354534)
(234.24237 -1.9673798e-16 -18.22409)
(233.2808 0 -18.072449)
(232.30483 0 -17.898593)
(231.31689 0 -17.701645)
(230.31964 -1.9705347e-16 -17.480893)
(229.31596 1.8562543e-16 -17.235817)
(228.30887 -3.51733e-17 -16.966113)
(227.30153 0 -16.671723)
(226.29718 -2.8196787e-16 -16.352847)
(225.29909 2.3566521e-16 -16.009954)
(224.31052 -5.5741699e-17 -15.643792)
(223.33465 1.5764025e-16 -15.255389)
(222.37453 -4.8984424e-17 -14.846034)
(221.43302 -1.8581252e-16 -14.417278)
(220.51277 2.1920425e-16 -13.970897)
(219.61616 -1.6456497e-16 -13.508868)
(218.74526 7.7626202e-17 -13.033339)
(217.90182 -7.2840821e-17 -12.546587)
(217.08723 1.3692523e-16 -12.050975)
(216.30256 -6.4160694e-17 -11.54892)
(215.54851 -2.414837e-16 -11.042842)
(214.82547 5.0920128e-16 -10.535132)
(214.13349 -2.1207619e-16 -10.028112)
(213.47236 -1.4945096e-16 -9.5240038)
(212.84158 9.2917517e-17 -9.0249041)
(212.24046 8.7406254e-17 -8.5327587)
(211.66809 -1.6351483e-16 -8.0493474)
(211.12343 1.5277499e-16 -7.5762708)
(210.60528 0 -7.1149445)
(210.11239 1.3372282e-16 -6.6665938)
(209.64339 -1.873019e-16 -6.2322568)
(209.19691 5.8369518e-17 -5.8127872)
(208.77154 5.4398051e-17 -5.4088614)
(208.36585 0 -5.020989)
(207.97843 0 -4.6495209)
(207.60787 0 -4.2946602)
(207.25279 0 -3.9564802)
(206.91177 0 -3.6349252)
(206.58343 -7.1469861e-17 -3.3298234)
(206.2664 0 -3.0409219)
(205.95928 -5.4188912e-20 -2.7678675)
(205.66053 2.3077974e-16 -2.5102127)
(205.36836 -2.1468442e-16 -2.2674374)
(205.08063 -9.9936918e-17 -2.0389575)
(204.79482 -1.858165e-16 -1.8241546)
(204.50812 2.590129e-16 -1.6224043)
(204.2179 4.4807695e-20 -1.4330468)
(203.92195 7.4600999e-17 -1.2553436)
(203.61818 0 -1.0887444)
(203.30354 0 -0.93314759)
(202.97437 0 -0.7876482)
(202.62865 -1.1135287e-16 -0.6504377)
(202.26417 0 -0.52591133)
(201.8766 -9.6209807e-17 -0.41804572)
(201.4796 1.3413898e-16 -0.2989956)
(201.09159 8.3162502e-17 -0.1855904)
(200.60811 -1.9269471e-17 -0.16903983)
(221.41138 0 -30.777396)
(260.63583 0 -11.673338)
(242.80056 3.2170313e-16 -30.486844)
(252.68612 1.9302217e-17 -13.721927)
(245.98282 -2.6920019e-16 -28.204384)
(249.15833 0 -16.655059)
(246.35061 1.6129609e-17 -25.407363)
(247.0455 -3.0574563e-17 -19.431712)
(245.66224 0 -23.213154)
(245.27424 1.9273218e-16 -21.173675)
(244.46199 -4.1726316e-16 -22.170464)
(243.77773 1.9758108e-16 -21.798937)
(243.01448 2.3451547e-17 -21.927788)
(242.23816 0 -21.886755)
(241.43068 2.1043539e-17 -21.875157)
(240.59674 -3.3945087e-16 -21.840925)
(239.73583 7.483151e-17 -21.793753)
(238.84885 2.5016259e-16 -21.729981)
(237.9367 2.3758093e-16 -21.64858)
(237.00056 -2.562623e-16 -21.547977)
(236.0419 0 -21.426732)
(235.06245 -2.8754716e-16 -21.283432)
(234.06425 2.4414565e-16 -21.116731)
(233.04962 -2.0578908e-16 -20.925399)
(232.02116 1.9395975e-16 -20.708344)
(230.98176 -1.8381892e-16 -20.464638)
(229.93451 3.4676802e-16 -20.193573)
(228.88275 -1.6364084e-16 -19.894665)
(227.82998 1.547675e-16 -19.567708)
(226.77979 -2.9178604e-16 -19.212777)
(225.73588 1.3733276e-16 -18.830265)
(224.70191 1.2970282e-16 -18.42088)
(223.6815 -2.4471987e-16 -17.985654)
(222.67813 5.6812348e-17 -17.525934)
(221.69511 -5.7604072e-19 -17.043375)
(220.73548 2.5460606e-16 -16.5399)
(219.80199 0 -16.017688)
(218.89704 1.9378034e-19 -15.479125)
(218.02266 0 -14.926759)
(217.18048 -7.947601e-17 -14.36326)
(216.3717 -1.4936304e-16 -13.79137)
(215.59715 7.0127731e-17 -13.213847)
(214.85723 0 -12.63343)
(214.15197 -6.1798574e-17 -12.052788)
(213.48108 2.8925169e-16 -11.474479)
(212.84392 -3.2473811e-16 -10.900924)
(212.23962 -3.0427835e-16 -10.334376)
(211.66707 2.8409995e-16 -9.7768989)
(211.12497 -1.7729814e-16 -9.230353)
(210.6119 0 -8.6963887)
(210.12631 0 -8.1764415)
(209.66661 7.2362039e-17 -7.6717335)
(209.23115 6.7531067e-17 -7.1832795)
(208.81827 1.2585477e-16 -6.7118942)
(208.42633 -5.8687297e-17 -6.2582032)
(208.0537 -1.0932128e-16 -5.822656)
(207.6988 -2.0386476e-16 -5.4055398)
(207.36009 -9.5108659e-17 -5.0069917)
(207.03607 1.7657382e-16 -4.6270133)
(206.72529 0 -4.2654896)
(206.42633 -7.6481226e-17 -3.9221901)
(206.13778 -1.4216332e-16 -3.5967846)
(205.85831 1.3208296e-16 -3.2888748)
(205.58653 6.1263537e-17 -2.9979795)
(205.32097 5.6979972e-17 -2.7235365)
(205.05996 0 -2.4649221)
(204.80148 1.9643923e-16 -2.2214625)
(204.54314 1.8227915e-16 -1.9924661)
(204.28221 -2.5364749e-16 -1.7772423)
(204.01608 7.8446853e-17 -1.5750553)
(203.7426 -7.2714876e-17 -1.3851242)
(203.45976 -4.4511762e-20 -1.2069464)
(203.16484 2.4992925e-16 -1.040299)
(202.85479 -2.3163639e-16 -0.88377617)
(202.52734 5.3629045e-17 -0.73608763)
(202.17814 1.4917943e-16 -0.60366395)
(201.80448 -4.6084161e-17 -0.48684398)
(201.4276 -4.2689441e-17 -0.34978536)
(201.05349 0 -0.23272102)
(200.55648 3.6564237e-17 -0.25880387)
(221.43079 3.9127878e-16 -34.64908)
(261.00059 5.4360533e-19 -14.539993)
(242.62389 -3.5856481e-16 -34.273216)
(252.82689 0 -16.813559)
(245.76254 0 -31.778921)
(248.93235 -2.6751497e-16 -19.935512)
(246.02699 2.7062739e-16 -28.739732)
(246.55253 6.4186462e-17 -22.838749)
(245.24883 -2.4362618e-16 -26.437581)
(244.7819 2.3043676e-16 -24.574461)
(243.90759 -2.4628909e-16 -25.411079)
(243.14108 2.07007e-16 -25.103121)
(242.30209 -4.9110118e-17 -25.172824)
(241.44502 -4.6570738e-17 -25.117187)
(240.55618 -1.7647621e-16 -25.071957)
(239.63939 1.6668526e-16 -25.00376)
(238.69484 -3.5597126e-16 -24.917441)
(237.72384 5.9836937e-16 -24.810039)
(236.72782 -2.8272318e-16 -24.680132)
(235.70856 -2.6826461e-16 -24.526006)
(234.66818 2.5297635e-16 -24.346088)
(233.60913 -3.0127291e-17 -24.138893)
(232.53418 -2.267845e-16 -23.903072)
(231.44645 2.1363263e-16 -23.637465)
(230.34932 2.5307857e-16 -23.341126)
(229.24648 -1.4270225e-16 -23.013369)
(228.14179 0 -22.653807)
(227.03932 2.5521707e-16 -22.262374)
(225.9432 -3.2056288e-16 -21.839364)
(224.85762 1.1279235e-16 -21.385436)
(223.78671 -2.8518112e-16 -20.901629)
(222.73448 2.0092245e-16 -20.389356)
(221.70474 -6.3311755e-17 -19.850389)
(220.70103 2.3792464e-16 -19.286833)
(219.72655 -2.231773e-16 -18.701101)
(218.7841 -2.1034573e-16 -18.095856)
(217.87606 1.9715115e-16 -17.473972)
(217.00432 -4.6240644e-17 -16.838481)
(216.17029 0 -16.192503)
(215.3749 8.1829961e-17 -15.5392)
(214.6186 -7.6375562e-17 -14.881712)
(213.90139 0 -14.223109)
(213.22285 1.3448956e-16 -13.566338)
(212.5822 -6.2912053e-17 -12.914189)
(211.97834 -1.7640307e-16 -12.269255)
(211.40988 5.5024717e-16 -11.633913)
(210.87526 -2.0602078e-16 -11.010305)
(210.3727 9.6090524e-17 -10.400326)
(209.90036 -2.6943755e-16 -9.8056244)
(209.45629 -1.8484062e-19 -9.2276039)
(209.03853 1.5622347e-16 -8.6674296)
(208.64511 -1.4573973e-16 -8.1260391)
(208.2741 -6.7824203e-17 -7.604157)
(207.92359 -6.3177698e-17 -7.102309)
(207.59176 -1.1796772e-16 -6.6208388)
(207.27685 2.1907404e-16 -6.1599253)
(206.97717 0 -5.7195993)
(206.69113 9.4672424e-17 -5.2997592)
(206.4172 -3.5228197e-16 -4.9001864)
(206.15394 2.4517695e-16 -4.5205657)
(205.89994 7.5877001e-17 -4.1604835)
(205.65385 1.4095981e-16 -3.8194484)
(205.41437 1.3097247e-16 -3.496918)
(205.1802 -1.2118217e-16 -3.1922842)
(204.94996 -1.1229821e-16 -2.9048742)
(204.7221 -3.1239198e-16 -2.633966)
(204.49479 -4.1315909e-20 -2.3788033)
(204.26575 -8.9276869e-17 -2.1386258)
(204.03242 0 -1.9126741)
(203.79223 -2.2951026e-16 -1.7001417)
(203.54303 7.077216e-17 -1.5002436)
(203.28287 0 -1.3125289)
(203.00944 1.2108578e-16 -1.1365307)
(202.72048 0 -0.97039192)
(202.41307 1.0344841e-16 -0.81381487)
(202.08069 -1.4336255e-16 -0.67480388)
(201.72344 1.3248661e-16 -0.548502)
(201.36874 -8.1594059e-17 -0.39396552)
(201.00767 7.5363919e-17 -0.27678218)
(200.50239 0 -0.33814924)
(221.2372 -4.1104475e-16 -38.714357)
(261.15732 3.6304966e-16 -17.54039)
(242.19523 -3.326469e-16 -38.237836)
(252.71288 3.3076387e-16 -20.082434)
(245.25674 3.1675749e-16 -35.411933)
(248.47671 -1.8002793e-17 -23.401497)
(245.45952 -2.8362028e-16 -32.154722)
(245.92955 -2.6924064e-16 -26.438068)
(244.53967 2.8657171e-16 -29.781849)
(243.96483 0 -28.12253)
(243.01796 2.8594922e-17 -28.783574)
(242.15659 0 -28.526965)
(241.22916 -1.2861613e-16 -28.537048)
(240.27903 2.4284408e-16 -28.45516)
(239.2966 0 -28.368493)
(238.28524 0 -28.256045)
(237.24596 0 -28.119622)
(236.18066 3.9112824e-17 -27.956537)
(235.09153 0 -27.765076)
(233.98114 -2.4463133e-16 -27.543426)
(232.85249 3.2960243e-16 -27.289948)
(231.70894 1.2471902e-16 -27.003199)
(230.55421 1.7684951e-16 -26.681948)
(229.39237 -2.7778365e-16 -26.325266)
(228.22776 -5.2347458e-17 -25.932548)
(227.06495 -2.4774032e-16 -25.503556)
(225.90864 1.8645687e-16 -25.038461)
(224.76363 -2.2023199e-16 -24.537868)
(223.63466 8.2396988e-17 -24.002817)
(222.52639 7.7904716e-17 -23.434797)
(221.44323 0 -22.835728)
(220.38933 2.7716294e-16 -22.20793)
(219.36844 -2.6031487e-16 -21.554096)
(218.38385 0 -20.877228)
(217.43835 -2.3014003e-16 -20.180598)
(216.53417 2.1556009e-16 -19.467665)
(215.67294 -1.0158813e-16 -18.742011)
(214.85574 1.9019625e-16 -18.007278)
(214.08305 -2.6724367e-16 -17.267088)
(213.35482 1.2830995e-19 -16.524983)
(212.6705 -1.5614642e-16 -15.784366)
(212.02908 -7.3077377e-17 -15.048452)
(211.42918 -1.3715951e-16 -14.320227)
(210.8691 2.5568839e-16 -13.602418)
(210.34689 -1.1931867e-16 -12.897473)
(209.8604 0 -12.207552)
(209.40737 -3.8213948e-19 -11.53452)
(208.98546 9.7069648e-17 -10.879961)
(208.59229 0 -10.245179)
(208.22553 8.4432705e-17 -9.6312159)
(207.88286 7.8948673e-17 -9.0388728)
(207.56206 -7.3301636e-17 -8.4687247)
(207.26098 2.7291268e-16 -7.9211429)
(206.9776 -2.5370938e-16 -7.3963162)
(206.70998 -1.1799723e-16 -6.8942699)
(206.45633 -1.0961897e-16 -6.4148869)
(206.21494 1.0178583e-16 -5.9579248)
(205.98424 1.8881249e-16 -5.5230336)
(205.76275 -3.5023843e-16 -5.1097708)
(205.54907 4.0590326e-16 -4.7176215)
(205.34187 -1.5040015e-16 -4.3459927)
(205.13989 1.3940924e-16 -3.9942389)
(204.94193 -1.2905077e-16 -3.6616829)
(204.74678 2.3900515e-16 -3.3475978)
(204.5532 -3.3178673e-16 -3.0512106)
(204.35977 2.0452887e-16 -2.7717118)
(204.16485 -8.0500107e-20 -2.5082736)
(203.96636 8.7424273e-17 -2.2600728)
(203.76188 0 -2.0262787)
(203.54897 0 -1.8060297)
(203.32543 0 -1.5985795)
(203.08929 -1.2705507e-16 -1.4035002)
(202.83882 1.502768e-20 -1.2199646)
(202.57252 0 -1.0458429)
(202.2865 0 -0.8822268)
(201.97236 9.1896964e-17 -0.73784429)
(201.63409 -1.6935106e-16 -0.60162525)
(201.30311 0 -0.4311962)
(200.95346 0 -0.31847799)
(200.4454 -1.3192089e-16 -0.41208861)
(220.79701 2.7747273e-17 -42.982814)
(261.06905 -7.860322e-16 -20.697222)
(241.48705 3.4800707e-16 -42.342766)
(252.07253 -2.1741612e-17 -23.532609)
(244.43526 3.7334805e-16 -39.1664)
(247.68594 -3.5207438e-16 -27.091467)
(244.58164 0 -35.686479)
(244.91944 -3.1714981e-16 -30.229926)
(243.47795 2.3314922e-16 -33.241357)
(242.77872 2.2144972e-16 -31.810081)
(241.74576 -2.39037e-16 -32.290377)
(240.77538 0 -32.066167)
(239.74502 1.9099422e-19 -32.014491)
(238.68819 0 -31.89248)
(237.59892 3.8505763e-16 -31.752952)
(236.48059 -7.2741189e-16 -31.58255)
(235.33517 3.4341705e-16 -31.381257)
(234.16547 -4.0567657e-17 -31.146483)
(232.97467 -3.8549953e-17 -30.876335)
(231.76644 3.6640275e-17 -30.568992)
(230.54488 -6.8420049e-17 -30.222903)
(229.31454 -3.2413052e-16 -29.836825)
(228.08031 3.050638e-16 -29.409882)
(226.84736 5.750928e-17 -28.941632)
(225.6211 -2.7255069e-16 -28.432088)
(224.40703 -7.0033658e-19 -27.881785)
(223.21068 2.8947896e-16 -27.29177)
(222.03745 -1.8169156e-16 -26.663623)
(220.89254 -6.1499697e-19 -25.999444)
(219.78081 0 -25.30182)
(218.70669 0 -24.573788)
(217.67407 -7.1501012e-17 -23.818773)
(216.68625 1.3385918e-16 -23.040526)
(215.74585 0 -22.243038)
(214.85479 -1.1831729e-16 -21.430458)
(214.01429 2.2138846e-16 -20.607011)
(213.22487 -1.0371973e-16 -19.776901)