/*--------------------------------*- C++ -*----------------------------------*\
  =========                 |
  \\      /  F ield         | OpenFOAM: The Open Source CFD Toolbox
   \\    /   O peration     | Website:  https://openfoam.org
    \\  /    A nd           | Version:  12
     \\/     M anipulation  |
\*---------------------------------------------------------------------------*/
FoamFile
{
    format      ascii;
    class       volScalarField;
    location    "0.057";
    object      nut;
}
// * * * * * * * * * * * * * * * * * * * * * * * * * * * * * * * * * * * * * //

dimensions      [0 2 -1 0 0 0 0];

internalField   nonuniform List<scalar> 
16000
(
4.6517069e-07
9.9235098e-06
1.9094101e-05
2.3750496e-05
1.8329423e-05
2.5330367e-05
1.7710562e-05
2.4485323e-05
1.8827343e-05
2.6275314e-05
2.184646e-05
2.5967862e-05
2.3513427e-05
2.4238794e-05
2.3372881e-05
2.3253772e-05
2.2999527e-05
2.2930689e-05
2.293647e-05
2.3040739e-05
2.3234942e-05
2.3518757e-05
2.3889614e-05
2.43476e-05
2.4894673e-05
2.5536795e-05
2.6281722e-05
2.7142031e-05
2.8133121e-05
2.9271616e-05
3.0575619e-05
3.2069158e-05
3.3783304e-05
3.5756377e-05
3.8035595e-05
4.0677316e-05
4.3748725e-05
4.7329901e-05
5.151999e-05
5.6442164e-05
6.2241291e-05
6.9087872e-05
7.7197194e-05
8.683381e-05
9.831333e-05
0.00011201437
0.00012840692
0.0001480644
0.00017168555
0.000200122
0.00023441562
0.00027584231
0.00032595548
0.00038664623
0.00046021197
0.0005494493
0.00065776799
0.00078934848
0.00094937028
0.0010208341
0.0010207294
0.0010206439
0.0010205792
0.001020498
0.0010203867
0.0010202091
0.0010199089
0.0010193898
0.0010184993
0.0010170534
0.0010149303
0.0010122079
0.0010095385
0.0010081316
0.0010078567
0.0010083088
0.0010093356
0.0010100367
0.001011381
0.0010082373
4.1525505e-07
9.431874e-06
1.9749577e-05
2.1608253e-05
1.6554375e-05
2.2715265e-05
1.5752283e-05
2.1449802e-05
1.6692681e-05
2.3234158e-05
1.9839942e-05
2.3444422e-05
2.1552816e-05
2.1995001e-05
2.1320741e-05
2.1143296e-05
2.0932031e-05
2.0857652e-05
2.0865094e-05
2.0960113e-05
2.1139587e-05
2.1402713e-05
2.1747504e-05
2.217415e-05
2.2684076e-05
2.3282886e-05
2.3977298e-05
2.4778642e-05
2.5701481e-05
2.6762053e-05
2.7977258e-05
2.9369078e-05
3.0966305e-05
3.2804444e-05
3.4927708e-05
3.7389125e-05
4.0252355e-05
4.3592761e-05
4.7502776e-05
5.2099013e-05
5.7520748e-05
6.3928553e-05
7.152503e-05
8.056209e-05
9.134256e-05
0.0001042258
0.00011965911
0.00013818974
0.00016048555
0.00018736046
0.00021980967
0.00025905452
0.00030658303
0.00036420869
0.00043413528
0.00051904716
0.00062221906
0.00074765383
0.00090029027
0.0010199543
0.00101988
0.0010197707
0.0010196878
0.0010195827
0.0010194421
0.0010192303
0.0010188937
0.0010183447
0.0010174413
0.0010160033
0.0010139128
0.0010112826
0.0010088041
0.0010075597
0.0010074307
0.0010081155
0.0010091269
0.0010099147
0.0010107171
0.0010070312
3.7720753e-07
9.0550874e-06
1.8716259e-05
1.9716758e-05
1.4843984e-05
2.0025933e-05
1.4045218e-05
1.8661786e-05
1.5026096e-05
2.0395523e-05
1.8111062e-05
2.0887008e-05
1.9549305e-05
1.9711653e-05
1.9194697e-05
1.8992273e-05
1.8815114e-05
1.8746273e-05
1.8757521e-05
1.884782e-05
1.9015508e-05
1.9260094e-05
1.9579854e-05
1.9975269e-05
2.0447361e-05
2.100155e-05
2.1643825e-05
2.2384448e-05
2.3236962e-05
2.4217169e-05
2.5341115e-05
2.6629115e-05
2.8108002e-05
2.981077e-05
3.177886e-05
3.4062099e-05
3.6720838e-05
3.9826514e-05
4.3465658e-05
4.774798e-05
5.2807668e-05
5.8797105e-05
6.5907378e-05
7.4377734e-05
8.4499589e-05
9.6615241e-05
0.00011115112
0.00012863018
0.00014969162
0.00017511496
0.00020585218
0.00024307357
0.00028820545
0.00034298783
0.00040953536
0.00049042509
0.00058880486
0.0007085247
0.00085432085
0.0010191045
0.0010190723
0.0010189377
0.0010188325
0.0010186994
0.0010185252
0.0010182736
0.0010178923
0.0010173003
0.0010163675
0.0010149202
0.0010128434
0.0010102932
0.0010080561
0.0010070397
0.001007135
0.0010079008
0.00100884
0.0010095225
0.0010098467
0.0010062617
3.3585817e-07
8.7680147e-06
1.7791757e-05
1.8610806e-05
1.3377019e-05
1.7694784e-05
1.2533989e-05
1.6313481e-05
1.3543602e-05
1.7981412e-05
1.6555847e-05
1.8617393e-05
1.7695616e-05
1.765068e-05
1.7252063e-05
1.704644e-05
1.6899219e-05
1.684113e-05
1.6858774e-05
1.6947693e-05
1.7106885e-05
1.7336295e-05
1.7634495e-05
1.8002404e-05
1.8440788e-05
1.895503e-05
1.9550648e-05
2.0237068e-05
2.1026875e-05
2.1935508e-05
2.2978449e-05
2.4174595e-05
2.5549192e-05
2.7133079e-05
2.8965357e-05
3.1093105e-05
3.3573818e-05
3.6475833e-05
3.9880985e-05
4.3892595e-05
4.8640891e-05
5.4271984e-05
6.096771e-05
6.8956091e-05
7.8520023e-05
8.9988431e-05
0.00010377098
0.00012037136
0.00014040615
0.00016462877
0.00019395737
0.00022952337
0.000272706
0.00032519048
0.00038902592
0.00046671139
0.00056130407
0.00067655011
0.00081705715
0.00098853524
0.001018308
0.0010181447
0.0010180117
0.0010178457
0.0010176334
0.0010173388
0.0010169105
0.0010162736
0.001015312
0.0010138632
0.0010118135
0.0010093471
0.0010073447
0.0010065645
0.0010068252
0.0010076448
0.0010084759
0.0010089396
0.0010090242
0.0010056371
3.0118615e-07
8.5601664e-06
1.6996479e-05
1.8640889e-05
1.358557e-05
1.5662554e-05
1.1204624e-05
1.430002e-05
1.2264959e-05
1.5906158e-05
1.5171891e-05
1.6573047e-05
1.5963625e-05
1.5776887e-05
1.5465327e-05
1.5271142e-05
1.5147899e-05
1.5100654e-05
1.5122834e-05
1.5209189e-05
1.5358976e-05
1.5572764e-05
1.5849469e-05
1.6190525e-05
1.6596603e-05
1.7073083e-05
1.7625152e-05
1.826156e-05
1.8993938e-05
1.9837308e-05
2.0806761e-05
2.1920006e-05
2.3200966e-05
2.4678607e-05
2.6390004e-05
2.8379829e-05
3.0702993e-05
3.342527e-05
3.662491e-05
4.0399147e-05
4.4874775e-05
5.0193043e-05
5.6528405e-05
6.409828e-05
7.3178663e-05
8.4087596e-05
9.722043e-05
0.00011306445
0.0001322167
0.00015540893
0.00018353003
0.00021767805
0.00025919115
0.00030970693
0.00037121761
0.00044615399
0.00053749404
0.00064889328
0.00078484885
0.00095092813
0.0010175848
0.0010173905
0.0010172247
0.0010170214
0.0010167669
0.001016426
0.0010159479
0.0010152629
0.0010142699
0.0010128244
0.0010108171
0.0010084453
0.0010066926
0.0010061231
0.0010064984
0.0010073498
0.0010080605
0.0010083217
0.0010082053
0.0010049735
2.8088837e-07
8.436553e-06
1.6362084e-05
1.8350848e-05
1.3273038e-05
1.3878513e-05
1.0805689e-05
1.2635481e-05
1.1794041e-05
1.4184789e-05
1.3965478e-05
1.4780691e-05
1.43808e-05
1.4107447e-05
1.3849941e-05
1.366933e-05
1.3560941e-05
1.3520081e-05
1.3542948e-05
1.3624442e-05
1.3763786e-05
1.3962053e-05
1.4218354e-05
1.4534456e-05
1.4911137e-05
1.5353605e-05
1.5866831e-05
1.6459019e-05
1.7140874e-05
1.792697e-05
1.883218e-05
1.9873246e-05
2.1073047e-05
2.2458991e-05
2.4066486e-05
2.5938196e-05
2.8126838e-05
3.0696112e-05
3.3721901e-05
3.7296188e-05
4.154261e-05
4.6599061e-05
5.2635026e-05
5.985829e-05
6.8539841e-05
7.8989884e-05
9.159256e-05
0.00010682256
0.00012526132
0.00014762478
0.00017477873
0.00020779549
0.00024798114
0.00029693645
0.00035661059
0.00042938214
0.00051816871
0.00062655826
0.00075896798
0.00092086155
0.0010168974
0.0010166697
0.0010164661
0.0010162214
0.0010159212
0.0010155316
0.0010150029
0.0010142691
0.0010132444
0.0010118096
0.0010098654
0.0010076068
0.0010061099
0.001005721
0.0010061688
0.0010070176
0.0010076031
0.0010076995
0.0010074021
0.0010042453
2.5302344e-07
8.3687153e-06
1.5863622e-05
1.7276724e-05
1.3163691e-05
1.225335e-05
1.0742079e-05
1.1706869e-05
1.098157e-05
1.2633023e-05
1.2874693e-05
1.3193284e-05
1.2903442e-05
1.2590123e-05
1.2363306e-05
1.2197448e-05
1.2100329e-05
1.2065209e-05
1.2088905e-05
1.2166781e-05
1.2297738e-05
1.2483231e-05
1.2722454e-05
1.2940239e-05
1.3282758e-05
1.3688082e-05
1.416072e-05
1.4708105e-05
1.5339843e-05
1.6069734e-05
1.6912395e-05
1.7883639e-05
1.9005377e-05
2.0303537e-05
2.1811972e-05
2.3571505e-05
2.563279e-05
2.8057486e-05
3.0919858e-05
3.4566841e-05
3.8625883e-05
4.3469304e-05
4.9264049e-05
5.620955e-05
6.457288e-05
7.4659364e-05
8.684493e-05
0.00010159512
0.00011947899
0.00014120199
0.00016761206
0.00019976254
0.00023893515
0.00028670288
0.00034498318
0.00041611571
0.00050297244
0.0006090912
0.00073883221
0.00089758433
0.0010162428
0.0010159785
0.0010157328
0.0010154432
0.0010150946
0.0010146549
0.0010140762
0.0010132953
0.0010122398
0.0010108215
0.0010089621
0.0010068413
0.0010055825
0.0010053448
0.0010058367
0.0010066571
0.0010071175
0.0010070633
0.0010065792
0.0010035547
2.2837692e-07
8.3301369e-06
1.542971e-05
1.564406e-05
1.1808344e-05
1.0673041e-05
9.0958489e-06
1.0348248e-05
9.4964615e-06
1.1376842e-05
1.1762302e-05
1.1726645e-05
1.1484406e-05
1.1175849e-05
1.0974799e-05
1.08293e-05
1.0746439e-05
1.0720408e-05
1.0682644e-05
1.0744275e-05
1.0859006e-05
1.1027113e-05
1.1246769e-05
1.1517457e-05
1.1843717e-05
1.2228526e-05
1.2676302e-05
1.3194475e-05
1.3792098e-05
1.4482518e-05
1.5280523e-05
1.6201421e-05
1.7266647e-05
1.8501171e-05
1.9937907e-05
2.1616477e-05
2.3586237e-05
2.5907521e-05
2.8653864e-05
3.1914667e-05
3.5798741e-05
4.0443771e-05
4.6015991e-05
5.3152798e-05
6.1279639e-05
7.1099258e-05
8.2982667e-05
9.7389549e-05
0.00011487991
0.00013615422
0.00016204814
0.00019360304
0.00023208451
0.00027904733
0.00033638915
0.00040642489
0.00049199652
0.00059660998
0.00072459178
0.00088128645
0.0010156161
0.0010153124
0.0010150206
0.0010146836
0.001014285
0.001013795
0.0010131685
0.0010123451
0.0010112618
0.0010098624
0.0010081046
0.0010061443
0.0010050925
0.0010049798
0.001005494
0.0010062684
0.0010066102
0.0010064145
0.0010057561
0.0010027878
2.1064642e-07
8.2870979e-06
1.4960591e-05
1.3670327e-05
9.7041211e-06
9.4852639e-06
7.5263455e-06
8.8683103e-06
8.9757011e-06
1.0205706e-05
1.063253e-05
1.0362352e-05
1.0144885e-05
9.866364e-06
9.6908863e-06
9.5008017e-06
9.4088927e-06
9.3785278e-06
9.4015608e-06
9.4752857e-06
9.5957219e-06
9.7636046e-06
9.9788606e-06
1.0241126e-05
1.0554476e-05
1.0922806e-05
1.135065e-05
1.1845455e-05
1.2415901e-05
1.3074868e-05
1.3837407e-05
1.4718546e-05
1.5739525e-05
1.6924636e-05
1.8306188e-05
1.992304e-05
2.1823718e-05
2.4067758e-05
2.6727838e-05
2.9892235e-05
3.366967e-05
3.8195196e-05
4.3636974e-05
5.0189111e-05
5.8100203e-05
6.7678905e-05
7.9995274e-05
9.4193944e-05
0.00011145058
0.00013246586
0.000158069
0.00018929633
0.00022740558
0.00027394269
0.0003307972
0.00040027348
0.00048519884
0.00058906451
0.00071618492
0.00087188917
0.001015013
0.0010146676
0.0010143266
0.0010139404
0.0010134914
0.0010129517
0.0010122808
0.001011422
0.0010103175
0.001008936
0.0010072837
0.0010055072
0.001004631
0.0010046141
0.0010051293
0.0010058433
0.0010060821
0.0010057582
0.0010049503
0.0010021052
1.9364602e-07
8.244562e-06
1.3310333e-05
1.1879223e-05
7.8528936e-06
8.4424999e-06
6.7512004e-06
7.989127e-06
8.3098545e-06
9.123043e-06
9.511845e-06
9.1206478e-06
8.9130889e-06
8.5863056e-06
8.4021109e-06
8.2825291e-06
8.2235055e-06
8.2171281e-06
8.257546e-06
8.3412201e-06
8.4681652e-06
8.6368929e-06
8.8491722e-06
9.1050103e-06
9.4087723e-06
9.7647318e-06
1.0177559e-05
1.0654855e-05
1.1205066e-05
1.1840635e-05
1.2576929e-05
1.3428995e-05
1.4418098e-05
1.5568121e-05
1.691108e-05
1.8485468e-05
2.0339416e-05
2.2532176e-05
2.5136479e-05
2.8240677e-05
3.1953137e-05
3.6407912e-05
4.1775483e-05
4.8249014e-05
5.607793e-05
6.5570896e-05
7.7107203e-05
9.1128818e-05
0.00010918318
0.00013012928
0.0001556679
0.00018683716
0.00022489555
0.0002713898
0.00032821327
0.00039767446
0.00048260208
0.00058648998
0.00071366201
0.00086946124
0.0010144289
0.0010140401
0.001013648
0.0010132117
0.0010127128
0.0010121253
0.0010114138
0.0010105283
0.0010094137
0.0010080488
0.001006489
0.0010049217
0.001004195
0.0010042357
0.0010047327
0.0010053751
0.0010055358
0.001005109
0.0010041715
0.0010015473
1.7869757e-07
8.1974117e-06
1.0588101e-05
9.7549485e-06
6.4731307e-06
7.5094649e-06
6.1531284e-06
7.1704385e-06
7.7744644e-06
8.1382593e-06
8.4096968e-06
7.9055985e-06
7.6532344e-06
7.4235688e-06
7.2855598e-06
7.2036899e-06
7.1728474e-06
7.1863388e-06
7.2424438e-06
7.3370003e-06
7.4685598e-06
7.6392158e-06
7.8504753e-06
8.1027431e-06
8.400458e-06
8.7483259e-06
9.1512804e-06
9.6171279e-06
1.015427e-05
1.0774793e-05
1.1435136e-05
1.2259188e-05
1.3218157e-05
1.4335497e-05
1.5642924e-05
1.7178601e-05
1.8990332e-05
2.1137145e-05
2.3691946e-05
2.6743443e-05
3.0400658e-05
3.5071687e-05
4.0421573e-05
4.6884497e-05
5.4710825e-05
6.4210419e-05
7.5770797e-05
8.984104e-05
0.00010698432
0.00012789788
0.00015483244
0.00018621481
0.00022454646
0.00027138464
0.0003286388
0.00039863701
0.00048422637
0.00058892124
0.00071707641
0.00087407935
0.0010138595
0.0010134266
0.0010129824
0.001012496
0.0010119486
0.0010113159
0.0010105679
0.0010096642
0.0010085542
0.0010072127
0.0010057203
0.0010043826
0.0010037792
0.001003835
0.0010042981
0.0010048666
0.0010049753
0.0010044767
0.0010033629
0.0010011721
1.6548784e-07
8.1492236e-06
8.3687046e-06
8.3791798e-06
5.7256906e-06
6.641411e-06
5.6458279e-06
6.4571653e-06
7.2271757e-06
7.2195291e-06
7.2110496e-06
6.7787435e-06
6.5722119e-06
6.4015455e-06
6.3028299e-06
6.2519905e-06
6.2457775e-06
6.2786393e-06
6.3469266e-06
6.4510073e-06
6.5893025e-06
6.7634769e-06
6.9760248e-06
7.2278384e-06
7.5234406e-06
7.8337812e-06
8.2252884e-06
8.6789799e-06
9.2031158e-06
9.8093351e-06
1.0511638e-05
1.1328272e-05
1.2279764e-05
1.3389602e-05
1.4689747e-05
1.621869e-05
1.8024723e-05
2.0167518e-05
2.2721257e-05
2.5776286e-05
2.9443867e-05
3.3862748e-05
3.9202409e-05
4.5665098e-05
5.3504086e-05
6.3581234e-05
7.5277303e-05
8.9527296e-05
0.00010689978
0.00012810778
0.00015401369
0.00018741855
0.00022635239
0.00027392804
0.00033208338
0.00040318275
0.00049011036
0.00059642056
0.0007265215
0.0008858762
0.0010133002
0.0010128234
0.0010123277
0.0010117918
0.0010111981
0.001010524
0.0010097443
0.001008829
0.0010077378
0.0010064394
0.0010050137
0.0010038857
0.0010033781
0.0010034217
0.001003839
0.0010043304
0.001004397
0.001003868
0.0010027024
0.0010007768
1.5365829e-07
8.0890576e-06
6.6693067e-06
7.344053e-06
5.1012412e-06
5.8701679e-06
5.2083499e-06
5.8237707e-06
6.5733103e-06
6.176387e-06
6.1271834e-06
5.7923859e-06
5.6278053e-06
5.5050282e-06
5.4400831e-06
5.4171437e-06
5.4315344e-06
5.4810808e-06
5.56284e-06
5.6771206e-06
5.8232379e-06
6.0030984e-06
6.1930392e-06
6.4419372e-06
6.7342331e-06
7.0740197e-06
7.4682836e-06
7.924483e-06
8.4510876e-06
9.0599241e-06
9.7651253e-06
1.0584682e-05
1.1540326e-05
1.2655869e-05
1.3963765e-05
1.5503187e-05
1.732344e-05
1.9485332e-05
2.2065008e-05
2.5155442e-05
2.8870328e-05
3.3351003e-05
3.8775065e-05
4.5348924e-05
5.3332502e-05
6.3047667e-05
7.4892353e-05
8.9344014e-05
0.00010792851
0.00012961945
0.00015612373
0.00018852133
0.00023030498
0.00027902041
0.00033855861
0.00041133817
0.00050030203
0.00060906652
0.00074211785
0.00090502621
0.0010127468
0.001012227
0.0010116817
0.0010110979
0.0010104604
0.00100975
0.0010089445
0.0010080226
0.0010069591
0.0010057252
0.0010043819
0.0010034266
0.0010029851
0.0010030072
0.0010033722
0.0010037861
0.0010038132
0.0010032915
0.0010021783
0.0010003641
1.4310593e-07
8.016806e-06
5.3538061e-06
6.4098493e-06
4.5409832e-06
5.1820973e-06
4.8344346e-06
5.1780319e-06
5.7502366e-06
5.2700179e-06
5.1752412e-06
4.9291764e-06
4.8038306e-06
4.7211127e-06
4.6859776e-06
4.6875176e-06
4.7220066e-06
4.7879205e-06
4.8831538e-06
4.9896332e-06
5.1393874e-06
5.3227373e-06
5.5419113e-06
5.7998221e-06
6.1006944e-06
6.4490064e-06
6.8516587e-06
7.3167322e-06
7.8529134e-06
8.4721774e-06
9.1887609e-06
1.0020854e-05
1.0940632e-05
1.2062778e-05
1.3379249e-05
1.4929878e-05
1.6765188e-05
1.8947187e-05
2.1554032e-05
2.4681839e-05
2.8447742e-05
3.3247711e-05
3.8807708e-05
4.5555096e-05
5.3757516e-05
6.3744267e-05
7.593022e-05
9.0811082e-05
0.00010898882
0.00013240834
0.00015974059
0.00019315614
0.00023400424
0.00028665811
0.00034807482
0.00042313137
0.00051485538
0.00062695124
0.00076401201
0.00093174614
0.0010121952
0.0010116338
0.0010110424
0.0010104134
0.0010097354
0.0010089939
0.0010081704
0.0010072468
0.0010062111
0.0010050523
0.0010038116
0.0010029943
0.0010025997
0.0010026045
0.0010029157
0.0010032546
0.0010032497
0.0010027656
0.0010017501
0.0010000641
1.3368942e-07
7.8725828e-06
4.3487598e-06
5.5775645e-06
4.0405575e-06
4.5701039e-06
4.5059549e-06
4.4770908e-06
4.9186594e-06
4.4616614e-06
4.3496641e-06
4.1770104e-06
4.0888309e-06
4.0407735e-06
4.0327592e-06
4.0570506e-06
4.1105886e-06
4.1758525e-06
4.2796447e-06
4.4134515e-06
4.5781034e-06
4.7750851e-06
5.007316e-06
5.2779115e-06
5.5916625e-06
5.9533115e-06
6.369819e-06
6.8288923e-06
7.3753715e-06
8.0056014e-06
8.7338461e-06
9.5782908e-06
1.0561142e-05
1.171029e-05
1.3058936e-05
1.4648143e-05
1.6530634e-05
1.877062e-05
2.1449184e-05
2.46671e-05
2.8546573e-05
3.3241232e-05
3.8936047e-05
4.5857845e-05
5.4284731e-05
6.5099193e-05
7.7732989e-05
9.3169228e-05
0.00011203614
0.00013510127
0.00016483387
0.00019954612
0.00024198466
0.0002938482
0.00036063295
0.00043858381
0.00053382081
0.00065016888
0.00079236367
0.00096628349
0.0010116419
0.0010110405
0.0010104076
0.0010097379
0.0010090234
0.0010082557
0.0010074216
0.0010065026
0.001005489
0.0010043971
0.0010032895
0.0010025798
0.0010022227
0.0010022151
0.0010024757
0.0010027492
0.0010027272
0.0010023144
0.0010013928
0.00099986524
1.2533207e-07
7.5301877e-06
3.6591823e-06
4.8393634e-06
3.5942088e-06
4.0277048e-06
3.9928207e-06
3.8425126e-06
4.1168868e-06
3.7472828e-06
3.6419964e-06
3.5280112e-06
3.4745722e-06
3.4571021e-06
3.4738726e-06
3.5063134e-06
3.5720227e-06
3.6667544e-06
3.7896926e-06
3.9410559e-06
4.1223008e-06
4.3354345e-06
4.5837956e-06
4.8707868e-06
5.1896186e-06
5.5653157e-06
5.9963007e-06
6.490606e-06
7.0583353e-06
7.7115085e-06
8.4647481e-06
9.3369616e-06
1.0351247e-05
1.1536521e-05
1.292826e-05
1.4568984e-05
1.6514176e-05
1.8830989e-05
2.1603705e-05
2.493896e-05
2.89636e-05
3.3838676e-05
3.9760902e-05
4.6966655e-05
5.5749031e-05
6.6465426e-05
8.0259372e-05
9.637861e-05
0.00011608559
0.00014019195
0.00016966225
0.00020764858
0.00025201853
0.00030624898
0.00037249521
0.00045769542
0.00055722878
0.00067879574
0.00082731936
0.0010088889
0.0010110842
0.0010104442
0.0010097752
0.0010090709
0.0010083251
0.0010075348
0.001006694
0.0010057865
0.0010047928
0.0010037373
0.0010027997
0.001002177
0.001001851
0.0010018296
0.001002043
0.0010022632
0.0010022325
0.0010019033
0.0010011668
0.00099972514
1.1811986e-07
7.1258382e-06
3.2138147e-06
4.1840811e-06
3.1968455e-06
3.3969581e-06
3.5387002e-06
3.2612678e-06
3.3917397e-06
3.1271001e-06
3.0430791e-06
2.9754964e-06
2.9535591e-06
2.9634129e-06
2.9877508e-06
3.0490413e-06
3.1381762e-06
3.2539465e-06
3.396442e-06
3.566611e-06
3.7664549e-06
3.9982606e-06
4.2574125e-06
4.5613382e-06
4.9091227e-06
5.306405e-06
5.7599601e-06
6.2781034e-06
6.8711313e-06
7.5518233e-06
8.3352544e-06
9.2411208e-06
1.0293551e-05
1.1522887e-05
1.2910904e-05
1.4600241e-05
1.6604768e-05
1.8995114e-05
2.1991043e-05
2.5468934e-05
2.9670128e-05
3.4763121e-05
4.0957561e-05
4.8502199e-05
5.7704568e-05
6.894315e-05
8.2678917e-05
9.9472948e-05
0.00012108085
0.00014640932
0.00017738483
0.00021526037
0.00026403725
0.00032105787
0.00039071528
0.00048042366
0.00058506587
0.0007128622
0.00086897346
0.001011188
0.0010105199
0.0010098436
0.0010091433
0.0010084108
0.0010076402
0.00100683
0.0010059808
0.0010050853
0.0010041251
0.0010031139
0.001002328
0.0010017805
0.0010014789
0.0010014385
0.0010016034
0.0010017819
0.0010017608
0.0010015175
0.0010009675
0.00099978611
1.1230389e-07
6.105189e-06
2.8329859e-06
3.5892788e-06
2.8522342e-06
2.8156054e-06
3.0871334e-06
2.7354375e-06
2.7691306e-06
2.597577e-06
2.5414254e-06
2.5115095e-06
2.5103968e-06
2.537867e-06
2.5967227e-06
2.682886e-06
2.7944489e-06
2.9312208e-06
3.0940438e-06
3.2843073e-06
3.4991994e-06
3.7498063e-06
4.0361703e-06
4.3623135e-06
4.7330395e-06
5.1541745e-06
5.6328011e-06
6.1775521e-06
6.7990379e-06
7.4939068e-06
8.3060318e-06
9.2434402e-06
1.0331237e-05
1.1600842e-05
1.3091499e-05
1.4852205e-05
1.6943415e-05
1.9440671e-05
2.243749e-05
2.6049089e-05
3.041811e-05
3.5977156e-05
4.2484581e-05
5.0419107e-05
6.0104114e-05
7.1939297e-05
8.6412766e-05
0.00010412059
0.00012694384
0.00015366847
0.00018636542
0.00022635633
0.00027792766
0.00033815699
0.00041175609
0.00050165937
0.0006172423
0.00075231651
0.00091732039
0.0010106453
0.001009949
0.0010092394
0.0010085106
0.0010077546
0.0010069653
0.0010061395
0.0010052781
0.0010043831
0.0010034599
0.0010025433
0.0010018717
0.0010013896
0.0010011088
0.0010010482
0.0010011646
0.0010013081
0.0010013159
0.0010011758
0.0010007289
0.00099989067
1.0741735e-07
4.2847663e-06
2.4861235e-06
3.0389816e-06
2.4195252e-06
2.3283221e-06
2.6144781e-06
2.2679381e-06
2.2510612e-06
2.1518993e-06
2.1264319e-06
2.1218733e-06
2.1488138e-06
2.2067508e-06
2.2916152e-06
2.4010576e-06
2.5343896e-06
2.6921033e-06
2.8727923e-06
3.082544e-06
3.3223378e-06
3.5949983e-06
3.9039628e-06
4.253412e-06
4.648385e-06
5.0949509e-06
5.6004716e-06
6.1645203e-06
6.8132904e-06
7.5539338e-06
8.403446e-06
9.382915e-06
1.0518896e-05
1.1844705e-05
1.3402056e-05
1.5242866e-05
1.7431553e-05
2.0048115e-05
2.3191864e-05
2.6985724e-05
3.1581573e-05
3.7166027e-05
4.4296347e-05
5.2665176e-05
6.288829e-05
7.5389001e-05
9.0684871e-05
0.00010940935
0.00013233672
0.00016185124
0.00019647144
0.00023883358
0.00029065722
0.00035735711
0.00043541041
0.00053079395
0.0006535484
0.00079697659
0.0009722275
0.0010101012
0.0010093756
0.0010086351
0.0010078787
0.0010071004
0.0010062948
0.0010054576
0.0010045866
0.0010036832
0.0010027713
0.0010020204
0.0010014417
0.0010010176
0.0010007601
0.0010006878
0.0010007641
0.0010008773
0.001000916
0.0010008887
0.0010005735
0.00099998663
1.0225133e-07
3.5350742e-06
2.1268632e-06
2.5330636e-06
2.0648363e-06
1.9211542e-06
2.1298433e-06
1.8586014e-06
1.8300009e-06
1.7858637e-06
1.7868333e-06
1.8132539e-06
1.8719672e-06
1.9566929e-06
2.0650315e-06
2.1960854e-06
2.3500757e-06
2.5261177e-06
2.7290178e-06
2.9598619e-06
3.2211583e-06
3.5159486e-06
3.8478697e-06
4.2212637e-06
4.6413419e-06
5.1143919e-06
5.6416888e-06
6.2425356e-06
6.924133e-06
7.7007285e-06
8.590233e-06
9.6149865e-06
1.0803064e-05
1.2189729e-05
1.3819319e-05
1.5747279e-05
1.8042338e-05
2.0789524e-05
2.4094378e-05
2.8087038e-05
3.2928622e-05
3.909892e-05
4.633924e-05
5.5178569e-05
6.5985231e-05
7.920829e-05
9.5397443e-05
0.00011522564
0.00014080881
0.00017079814
0.00020751704
0.0002524741
0.0003075052
0.00037837371
0.00046136344
0.00056285673
0.00069359546
0.00084645267
0.0010103266
0.0010095606
0.0010088051
0.0010080362
0.0010072526
0.0010064506
0.0010056268
0.0010047775
0.001003902
0.0010030132
0.0010021808
0.0010015491
0.0010010574
0.0010006903
0.0010004612
0.0010003913
0.0010004392
0.0010005228
0.0010005775
0.0010006345
0.0010004388
0.001000047
9.8458807e-08
2.8232371e-06
1.8150787e-06
2.0246043e-06
1.7723093e-06
1.5733462e-06
1.6827825e-06
1.5122285e-06
1.4987702e-06
1.4982289e-06
1.5260366e-06
1.5856107e-06
1.670983e-06
1.7786441e-06
1.9076523e-06
2.0582032e-06
2.2302062e-06
2.4267961e-06
2.649522e-06
2.9006873e-06
3.1830468e-06
3.4998214e-06
3.8547832e-06
4.2523939e-06
4.6980003e-06
5.1944777e-06
5.7551035e-06
6.3872295e-06
7.10277e-06
7.9166666e-06
8.8478765e-06
9.9200687e-06
1.1163018e-05
1.2614079e-05
1.4320186e-05
1.6340305e-05
1.8748059e-05
2.1633678e-05
2.5109657e-05
2.9314191e-05
3.4644822e-05
4.090876e-05
4.8549026e-05
5.7885239e-05
6.9307514e-05
8.3294003e-05
0.00010042943
0.00012143057
0.00014850082
0.00018029363
0.0002192513
0.00026698521
0.00032546501
0.00040078552
0.00048913275
0.00059729924
0.00073674928
0.0009000483
0.0010098046
0.001009025
0.0010082424
0.0010074488
0.0010066402
0.0010058138
0.0010049687
0.0010041047
0.0010032257
0.0010023643
0.0010016856
0.0010011492
0.0010007352
0.0010004304
0.0010002296
0.0010001726
0.0010001958
0.0010002444
0.0010002948
0.0010004015
0.0010003216
0.0010001126
9.6251487e-08
2.2032005e-06
1.5441881e-06
1.541751e-06
1.5026504e-06
1.2761651e-06
1.3191099e-06
1.2360073e-06
1.2503489e-06
1.2806906e-06
1.3419957e-06
1.4276199e-06
1.5344879e-06
1.6612397e-06
1.8081066e-06
1.9760805e-06
2.1659853e-06
2.380809e-06
2.6223538e-06
2.8931463e-06
3.1960857e-06
3.5345109e-06
3.9122962e-06
4.3340013e-06
4.8050783e-06
5.3321546e-06
5.9233981e-06
6.5889584e-06
7.3330118e-06
8.1847943e-06
9.1584844e-06
1.0279177e-05
1.1578483e-05
1.3096062e-05
1.4881526e-05
1.7066269e-05
1.9609138e-05
2.2660054e-05
2.6339193e-05
3.0794562e-05
3.6208093e-05
4.2802997e-05
5.0854318e-05
6.0699582e-05
7.2753036e-05
8.7523173e-05
0.00010563263
0.00012896131
0.00015640792
0.00019006674
0.0002313475
0.00028197592
0.00034732339
0.00042401974
0.00051804774
0.00063334239
0.00078208014
0.0009566949
0.0010092908
0.0010084953
0.0010076906
0.0010068769
0.0010060483
0.0010052011
0.0010043349
0.0010034562
0.0010025892
0.0010018579
0.0010012848
0.0010008335
0.001000481
0.0010002404
0.0010000622
0.0010000211
0.0010000207
0.0010000357
0.0010000765
0.0010002069
0.0010002226
0.0010001259
9.6414948e-08
1.6742594e-06
1.3156478e-06
1.1723698e-06
1.2317751e-06
1.0275232e-06
1.0522434e-06
1.0319649e-06
1.0748921e-06
1.1347868e-06
1.2202835e-06
1.325568e-06
1.4495211e-06
1.5922602e-06
1.7548222e-06
1.9386906e-06
2.1453688e-06
2.3774253e-06
2.6370116e-06
2.9267663e-06
3.2496742e-06
3.6091527e-06
4.0091617e-06
4.4543622e-06
4.9503345e-06
5.5038742e-06
6.1233865e-06
6.819381e-06
7.6050856e-06
8.4972252e-06
9.5169365e-06
1.0690984e-05
1.2053087e-05
1.364563e-05
1.5521654e-05
1.7747295e-05
2.0404796e-05
2.3596405e-05
2.7448526e-05
3.2117452e-05
3.7795955e-05
4.4720765e-05
5.3180797e-05
6.3533188e-05
7.6215448e-05
9.2525054e-05
0.00011174619
0.00013532806
0.0001642704
0.00019980052
0.00024342264
0.00029977093
0.0003660196
0.00044735685
0.00054724827
0.00067646887
0.00082834104
0.0010096242
0.0010087905
0.0010079768
0.001007153
0.0010063222
0.0010054795
0.0010046198
0.0010037414
0.0010028631
0.0010020726
0.0010014597
0.001000977
0.0010006018
0.0010003179
0.0010001039
0.00099996196
0.00099992214
0.00099990397
0.00099989273
0.00099992519
0.0010000632
0.0010001441
0.0010001275
9.9754419e-08
1.2427113e-06
1.1265135e-06
9.0239675e-07
1.0736404e-06
8.2238663e-07
8.6906288e-07
8.9368202e-07
9.5952146e-07
1.0426346e-06
1.1456198e-06
1.2659771e-06
1.4040506e-06
1.5608141e-06
1.7377218e-06
1.9364781e-06
2.1590208e-06
2.4073614e-06
2.6841227e-06
2.9919205e-06
3.3338043e-06
3.713265e-06
4.1343517e-06
4.6018375e-06
5.1214472e-06
5.7001639e-06
6.346645e-06
7.0717869e-06
7.8893497e-06
8.8168099e-06
9.8762818e-06
1.1095844e-05
1.2510913e-05
1.4166044e-05
1.6117026e-05
1.8433469e-05
2.1201888e-05
2.4529499e-05
2.8548847e-05
3.342351e-05
3.962389e-05
4.6919697e-05
5.5835883e-05
6.6750043e-05
8.0125547e-05
9.6532023e-05
0.00011666992
0.00014140029
0.00017177833
0.0002110616
0.0002572863
0.0003140958
0.00038394072
0.00046984969
0.00058118203
0.00071229079
0.00087372861
0.0010091598
0.0010083152
0.00100748
0.0010066381
0.0010057901
0.0010049338
0.0010040677
0.0010031944
0.0010023448
0.0010016892
0.001001161
0.0010007441
0.0010004173
0.0010001985
0.0010000163
0.00099991852
0.00099986873
0.00099984044
0.00099981101
0.00099983246
0.00099996465
0.0010000902
0.0010001227
1.0637983e-07
9.6407871e-07
9.616474e-07
7.6280564e-07
7.6569251e-07
7.0137368e-07
7.4637838e-07
8.0625774e-07
8.8944327e-07
9.8875322e-07
1.1048573e-06
1.237638e-06
1.3881368e-06
1.5576572e-06
1.7477795e-06
1.9602677e-06
2.1970923e-06
2.4604476e-06
2.7527897e-06
3.0768818e-06
3.4358589e-06
3.8333168e-06
4.2734354e-06
4.7611553e-06
5.3024217e-06
5.9023927e-06
6.5731263e-06
7.3245554e-06
8.1783113e-06
9.1411282e-06
1.024119e-05
1.1508015e-05
1.2978814e-05
1.4700354e-05
1.6731161e-05
1.9144187e-05
2.2030063e-05
2.5501078e-05
2.9696022e-05
3.4786193e-05
4.098277e-05
4.8545913e-05
5.7795799e-05
6.912464e-05
8.3016994e-05
0.00010006853
0.00012208991
0.0001480285
0.00017990931
0.00021911358
0.00026734534
0.00032671409
0.00039983285
0.00049460131
0.0006065367
0.00074464476
0.00091517429
0.0010087394
0.001007879
0.0010070238
0.0010061642
0.0010052987
0.0010044247
0.0010035449
0.001002685
0.0010019727
0.0010014048
0.0010009541
0.0010005976
0.0010003255
0.0010001098
0.00099996299
0.00099990347
0.00099985702
0.00099982279
0.00099978662
0.0009997987
0.00099991058
0.0010000472
0.0010001038
1.2100428e-07
9.6838227e-07
8.0248466e-07
5.6561239e-07
6.0846102e-07
6.112541e-07
6.746472e-07
7.5337802e-07
8.501281e-07
9.6163277e-07
1.0888589e-06
1.2326186e-06
1.394192e-06
1.5749784e-06
1.7765847e-06
2.0007998e-06
2.2496233e-06
2.5252911e-06
2.8303115e-06
3.1675099e-06
3.5400893e-06
3.951717e-06
4.406648e-06
4.9099015e-06
5.4675124e-06
6.0868744e-06
6.7771968e-06
7.55009e-06
8.4203083e-06
9.4066385e-06
1.0532968e-05
1.182963e-05
1.3334916e-05
1.5096982e-05
1.7176088e-05
1.9647342e-05
2.260404e-05
2.6161718e-05
3.0463137e-05
3.5684409e-05
4.2042663e-05
5.0162295e-05
5.9733346e-05
7.1457304e-05
8.5837965e-05
0.00010349513
0.00012519352
0.00015187686
0.00018471071
0.00022513478
0.00027493659
0.00033943994
0.00041574079
0.00050993892
0.00062635637
0.00077038851
0.00094875992
0.0010083872
0.001007509
0.0010066328
0.0010057552
0.0010048748
0.0010039919
0.0010031177
0.0010023118
0.0010016933
0.0010012017
0.0010008149
0.0010005069
0.0010002791
0.0010001064
0.0009999907
0.00099991797
0.00099987417
0.00099983431
0.00099979865
0.00099980773
0.00099989764
0.0010000198
0.0010000669
1.1095013e-07
6.2647441e-07
6.3641261e-07
4.6836651e-07
5.1050229e-07
5.5618332e-07
6.3479415e-07
7.2719144e-07
8.3463604e-07
9.5644731e-07
1.0936876e-06
1.2473995e-06
1.4188911e-06
1.6096169e-06
1.8212173e-06
2.0555287e-06
2.3146065e-06
2.6007181e-06
2.916486e-06
3.2647872e-06
3.6488976e-06
4.0725593e-06
4.540105e-06
5.056636e-06
5.6282785e-06
6.2625337e-06
6.9687441e-06
7.758698e-06
8.6544677e-06
9.6642116e-06
1.0817208e-05
1.2144616e-05
1.3685726e-05
1.5489918e-05
1.7618945e-05
2.0149759e-05
2.3177921e-05
2.6821793e-05
3.1227697e-05
3.657625e-05
4.309016e-05
5.1043784e-05
6.0774892e-05
7.2701048e-05
8.7336756e-05
0.00010531752
0.00012742858
0.00015599815
0.00018975952
0.00023135703
0.00028265518
0.00034597568
0.00042422066
0.00052102456
0.00064094462
0.00078969877
0.00097444772
0.0010081314
0.001007237
0.0010063398
0.0010054404
0.0010045373
0.001003635
0.0010027624
0.0010020542
0.0010014951
0.0010010593
0.0010007228
0.0010004699