/*--------------------------------*- C++ -*----------------------------------*\
  =========                 |
  \\      /  F ield         | OpenFOAM: The Open Source CFD Toolbox
   \\    /   O peration     | Website:  https://openfoam.org
    \\  /    A nd           | Version:  12
     \\/     M anipulation  |
\*---------------------------------------------------------------------------*/
FoamFile
{
    format      ascii;
    class       volScalarField;
    location    "0.057";
    object      omega;
}
// * * * * * * * * * * * * * * * * * * * * * * * * * * * * * * * * * * * * * //

dimensions      [0 0 -1 0 0 0 0];

internalField   nonuniform List<scalar> 
16000
(
1089.5879
2186.6902
1076.2066
647.97783
457.79647
318.22956
241.80676
182.35378
147.04788
118.91325
101.11286
86.456656
75.699888
66.66568
59.315809
53.115414
47.883565
43.42065
39.585882
36.266335
33.377248
30.847276
28.617594
26.641294
24.880538
23.305925
21.893052
20.623084
19.480112
18.44964
17.518498
16.676265
15.914645
15.226622
14.606224
14.047908
13.546462
13.096955
12.695246
12.337874
12.020964
11.740396
11.493174
11.276613
11.087662
10.923169
10.780681
10.65787
10.552505
10.462468
10.385874
10.321084
10.26656
10.220939
10.183042
10.151976
10.127162
10.108433
10.096324
10.091692
10.092066
10.092338
10.092494
10.092752
10.092888
10.092641
10.091545
10.088816
10.08324
10.073396
10.058403
10.038993
10.02038
10.011902
10.01211
10.021881
10.035414
10.044534
10.058219
10.051138
1131.0763
2179.3546
1068.7858
647.90163
457.74605
321.03182
242.77187
184.09694
147.81415
119.91081
101.622
87.002695
76.039666
66.96423
59.528202
53.279843
48.002055
43.50543
39.644213
36.303741
33.398446
30.856727
28.618824
26.637136
24.872792
23.296029
21.881756
20.610778
19.467254
18.436944
17.50643
16.664936
15.904026
15.216565
14.596614
14.038693
13.537704
13.088661
12.687234
12.330068
12.01359
11.733467
11.486539
11.27023
11.081677
10.917587
10.775464
10.652998
10.547982
10.458297
10.382023
10.317535
10.263296
10.217947
10.180281
10.149371
10.12459
10.105621
10.092678
10.086626
10.086529
10.086799
10.086809
10.086886
10.086798
10.086284
10.08491
10.081971
10.076348
10.066648
10.052
10.033362
10.016202
10.009222
10.010983
10.021768
10.034791
10.044556
10.055464
10.044382
1170.9679
2181.8503
1055.9989
644.17545
454.20732
321.17433
241.57311
184.23197
147.30573
120.03466
101.43512
86.99603
75.916783
66.85182
59.383521
53.125637
47.838229
43.337637
39.476235
36.137717
33.236146
30.70005
28.469126
26.495554
24.739687
23.171683
21.766005
20.503185
19.367395
18.344758
17.421802
16.587494
15.833325
15.152069
14.53783
13.985173
13.489136
13.044785
12.647614
12.294235
11.981451
11.704823
11.461009
11.247443
11.061522
10.899853
10.759896
10.639359
10.536073
10.447949
10.373043
10.309759
10.256575
10.212155
10.175288
10.145029
10.120743
10.102068
10.089012
10.082111
10.081357
10.081579
10.081427
10.081298
10.080957
10.080139
10.078427
10.075179
10.069382
10.0597
10.04526
10.027279
10.01185
10.006535
10.010025
10.021629
10.033837
10.043037
10.050893
10.03859
1209.0496
2191.979
1046.3385
640.6251
450.29345
321.13524
240.08387
184.21159
146.65732
120.05897
101.19669
86.928191
75.75351
66.692616
59.199024
52.93319
47.639388
43.137185
39.27802
35.943723
33.047871
30.519257
28.297001
26.333188
24.587322
23.029534
21.633861
20.380552
19.2537
18.239831
17.325509
16.499416
15.752985
15.078871
14.471227
13.924648
13.434295
12.995343
12.603143
12.254138
11.945574
11.672961
11.432771
11.222349
11.039419
10.880506
10.743012
10.624659
10.523311
10.436934
10.363548
10.301596
10.249568
10.206159
10.170164
10.140617
10.116866
10.098521
10.085484
10.078093
10.076533
10.076647
10.076297
10.075926
10.0753
10.074158
10.072094
10.068526
10.062563
10.052956
10.038812
10.021479
10.007988
10.00406
10.009124
10.021213
10.032449
10.040182
10.046393
10.033588
1245.1449
2211.5754
1038.5026
636.9914
445.68227
320.35067
237.91902
183.70398
145.63636
119.80465
100.77032
86.68333
75.451743
66.401182
58.899817
52.636867
47.347641
42.852807
39.003925
35.68101
32.797109
30.281493
28.07276
26.123086
24.391203
22.847281
21.465006
20.224389
19.109352
18.106855
17.203617
16.388037
15.651526
14.986601
14.387474
13.848753
13.365708
12.933667
12.547926
12.204605
11.901417
11.633901
11.398388
11.191991
11.012828
10.857377
10.722974
10.607352
10.508402
10.424173
10.352648
10.292316
10.241682
10.199483
10.164529
10.13584
10.112752
10.094864
10.082005
10.074352
10.072067
10.072004
10.071426
10.070782
10.069844
10.068357
10.065925
10.062016
10.055863
10.046354
10.032595
10.016038
10.004669
10.001911
10.008298
10.020467
10.030711
10.036946
10.041469
10.029037
1279.1186
2238.3584
1035.1674
634.06033
441.76327
318.94191
235.30198
182.78966
144.36329
119.31273
100.20168
86.28433
75.031525
65.995281
58.500771
52.250199
46.974733
42.494905
38.663045
35.357604
32.490974
29.993103
27.802104
25.870263
24.155854
22.629024
21.263154
20.038087
18.937478
17.948706
17.058783
16.255812
15.531216
14.877352
14.288498
13.759272
13.285025
12.861251
12.483322
12.146921
11.850151
11.588676
11.358786
11.157207
10.982484
10.831106
10.700334
10.587919
10.49175
10.410008
10.340627
10.282152
10.233106
10.192273
10.158493
10.130778
10.108451
10.091108
10.078532
10.070766
10.067916
10.06761
10.066772
10.065827
10.064554
10.062709
10.059907
10.055651
10.049298
10.039923
10.026694
10.011062
10.001411
9.9999862
10.007424
10.019303
10.028561
10.033474
10.036278
10.024148
1310.9411
2269.8603
1035.7558
631.24345
437.7977
316.89897
232.68559
181.50604
143.00255
118.58927
99.50116
85.730469
74.4894
65.473019
57.998751
51.770221
46.51755
42.06045
38.252219
34.970454
32.126575
29.651372
27.48261
25.572003
23.878756
22.372472
21.026228
19.819787
18.736449
17.76396
16.889777
16.101684
15.391166
14.750388
14.173703
13.655737
13.191903
12.777835
12.409124
12.08112
11.791866
11.537379
11.314081
11.118159
10.948548
10.801847
10.675238
10.566497
10.473479
10.394548
10.327578
10.271183
10.223908
10.184585
10.152099
10.125462
10.103986
10.087267
10.075072
10.06733
10.064051
10.063442
10.062316
10.061044
10.059421
10.057211
10.054047
10.049456
10.042897
10.033677
10.021118
10.006517
9.9985174
9.9982909
10.006417
10.017759
10.026058
10.029769
10.030886
10.018622
1340.73
2303.6276
1037.4162
628.05555
433.88451
314.20193
229.97371
180.00125
141.40857
117.64911
98.685589
85.03021
73.826011
64.836115
57.393504
51.19608
45.974746
41.548045
37.769191
34.517245
31.70169
29.254167
27.112509
25.22464
23.556394
22.07435
20.75121
19.566752
18.503833
17.550462
16.694708
15.924007
15.229967
14.604516
14.042094
13.53733
13.085696
12.682919
12.324863
12.007483
11.726897
11.480323
11.264556
11.075246
10.911387
10.76992
10.647979
10.54335
10.453815
10.377981
10.313656
10.259536
10.214187
10.176494
10.145402
10.119933
10.099382
10.083352
10.071608
10.064004
10.060432
10.05947
10.058027
10.056412
10.054428
10.051854
10.048346
10.043451
10.036698
10.027633
10.015842
10.002446
9.9960903
9.9967925
10.005202
10.015903
10.023328
10.025977
10.025458
10.013253
1368.5756
2337.5396
1034.9921
624.04739
428.86545
310.81003
226.28391
178.07238
139.47486
116.52975
97.749248
84.181613
73.033606
64.079395
56.679673
50.521807
45.340443
40.952446
37.205782
33.989772
31.208458
28.793995
26.685187
24.828914
23.190099
21.736432
20.440161
19.281224
18.242012
17.310654
16.47602
15.725201
15.049998
14.442056
13.895909
13.406194
12.968441
12.578468
12.232204
11.925585
11.654983
11.417331
11.210028
11.028818
10.871343
10.735615
10.618884
10.51877
10.433014
10.360524
10.29904
10.247356
10.20406
10.168092
10.138469
10.114237
10.094674
10.079383
10.068144
10.060767
10.057024
10.055666
10.053886
10.051916
10.049568
10.046636
10.042807
10.037658
10.030752
10.021822
10.010839
9.9988873
9.9939922
9.9953516
10.00375
10.013792
10.020473
10.022254
10.020419
10.008424
1394.5553
2370.0838
1026.1338
618.93628
422.16412
306.98742
221.81227
175.70111
137.54243
115.22242
96.682261
83.179395
72.104126
63.194917
55.849221
49.734484
44.600656
40.260231
36.56034
33.3889
30.649402
28.274466
26.204134
24.38388
22.779195
21.358186
20.092716
18.963011
17.950992
17.044713
16.233961
15.505629
14.851736
14.263578
13.735794
13.263025
12.840857
12.465198
12.13214
11.837685
11.578123
11.350247
11.151983
10.978776
10.828402
10.698888
10.588245
10.493013
10.411359
10.342405
10.283926
10.234798
10.193654
10.159474
10.131368
10.108423
10.089895
10.07538
10.064678
10.057594
10.053786
10.052004
10.049873
10.04754
10.044834
10.041554
10.037432
10.03209
10.02511
10.016313
10.00607
9.9957988
9.9920883
9.9939442
10.002062
10.011449
10.017524
10.018637
10.015833
10.004521
1418.7872
2400.8221
1016.6568
612.72333
413.81363
302.78195
217.13472
173.12292
135.5022
113.73605
95.471731
82.016913
71.026025
62.162183
54.879542
48.829276
43.756749
39.475526
35.830911
32.712751
30.022678
27.693867
25.668134
23.889634
22.324032
20.940124
19.7096
18.613027
17.631884
16.753956
15.969624
15.26644
14.636395
14.070342
13.563031
13.109102
12.704202
12.344311
12.025693
11.744446
11.49695
11.279791
11.091275
10.926815
10.784027
10.660902
10.556015
10.466035
10.389083
10.323816
10.268511
10.22203
10.183101
10.150748
10.124174
10.102539
10.08508
10.071366
10.061219
10.054465
10.050676
10.04846
10.045968
10.043273
10.040216
10.036609
10.032221
10.026746
10.019804
10.011199
10.001518
9.9930696
9.9902653
9.9925045
10.000115
10.008879
10.014464
10.015094
10.011598
10.000652
1441.4084
2430.7407
1002.7333
604.87474
404.11434
298.15793
212.27723
170.29169
133.44378
112.07423
94.090377
80.663849
69.761344
60.974746
53.774246
47.802896
42.80489
38.594895
35.015968
31.96013
29.327896
27.052274
25.077415
23.346539
21.825385
20.482841
19.291623
18.232288
17.285885
16.439923
15.68326
15.007917
14.404321
13.86276
13.378078
12.944905
12.558969
12.216292
11.913354
11.646366
11.411837
11.206937
11.028672
10.873376
10.738628
10.622282
10.52339
10.438704
10.366139
10.304702
10.252938
10.209207
10.172538
10.142021
10.116967
10.096635
10.08026
10.067365
10.057777
10.051361
10.047651
10.045007
10.042155
10.0391
10.035708
10.031801
10.027179
10.021618
10.014822
10.006555
9.9974069
9.9905956
9.9885124
9.9910135
9.9979914
10.006109
10.011261
10.011594
10.007757
9.9977433
1462.7356
2458.5263
984.90654
596.29034
393.98715
293.12477
207.35602
167.26496
131.33742
110.21602
92.472337
79.103437
68.315137
59.626495
52.526688
46.65155
41.742377
37.616214
34.114239
31.130373
28.564842
26.350105
24.432229
22.755224
21.284482
19.985884
18.838471
17.820681
16.912996
16.103174
15.380037
14.735166
14.160456
13.645601
13.185485
12.774706
12.409126
12.084779
11.798395
11.546398
11.325207
11.131911
10.964409
10.818674
10.692332
10.583504
10.49061
10.41135
10.343414
10.285711
10.237107
10.196422
10.162079
10.133402
10.109827
10.090762
10.075465
10.063399
10.054366
10.048272
10.044665
10.041616
10.038413
10.03501
10.0313
10.027127
10.022317
10.016706
10.010114
10.002329
9.9938
9.9883203
9.9868731
9.9894766
9.9957853
10.003221
10.007957
10.008253
10.004728
9.9955366
1482.9944
2480.4633
962.93938
587.09768
383.4129
287.73939
202.45323
164.04907
129.11192
108.06497
90.60132
77.324634
66.674373
58.109031
51.130615
45.370035
40.565832
36.537428
33.12465
30.222492
27.733332
25.588154
23.731125
22.114351
20.70083
19.455732
18.357243
17.385654
16.520852
15.750689
15.063797
14.451946
13.907947
13.421698
12.987811
12.600773
12.256683
11.95154
11.682315
11.44579
11.238476
11.057337
10.900644
10.764543
10.646553
10.54461
10.457738
10.383867
10.320981
10.267145
10.221592
10.183545
10.151777
10.124983
10.102839
10.084968
10.07072
10.059484
10.051008
10.045195
10.041671
10.038257
10.034725
10.030992
10.026984
10.022586
10.017645
10.012018
10.005622
9.9983835
9.9906239
9.9862674
9.9853543
9.9879389
9.9936219
10.000342
10.004704
10.005152
10.002494
9.9940969
1502.4451
2491.8343
936.89339
577.27255
372.46455
282.02901
197.64448
160.56397
126.64588
105.62832
88.449685
75.309555
64.826443
56.412127
49.57864
43.953493
39.272303
35.356063
32.046498
29.233312
26.830456
24.764778
22.982641
21.433892
20.084324
18.898238
17.853875
16.932532
16.114478
15.387413
14.739762
14.163219
13.649951
13.19367
12.78727
12.424937
12.103147
11.817845
11.566144
11.345327
11.152024
10.983941
10.837978
10.711418
10.601885
10.507031
10.425981
10.357126
10.298672
10.24911
10.206633
10.171035
10.141472
10.116793
10.096079
10.07931
10.066045
10.055624
10.047719
10.042153
10.038626
10.0349
10.031068
10.027039
10.022761
10.01817
10.013153
10.00756
10.001317
9.9945694
9.987843
9.9843993
9.983904
9.9864181
9.9915641
9.9975739
10.001635
10.002529
10.001089
9.9934151
1521.3078
2481.5775
907.1708
566.8446
361.19034
276.0025
192.92302
156.68203
123.86133
102.86084
85.987446
73.035352
62.755197
54.524602
47.863285
42.396249
37.859043
34.066173
30.875323
28.171682
25.868797
23.893567
22.194896
20.722188
19.442984
18.322077
17.336887
16.467686
15.699466
15.018177
14.411887
13.872894
13.393614
12.967826
12.589506
12.252228
11.95296
11.687672
11.453404
11.248169
11.068322
10.911916
10.776585
10.659341
10.558119
10.470887
10.395603
10.331591
10.277176
10.231359
10.192308
10.159092
10.131501
10.108666
10.08958
10.073847
10.061469
10.051815
10.044499
10.039199
10.0355
10.031514
10.027421
10.023141
10.018632
10.013872
10.008809
10.003307
9.9972138
9.9907438
9.9853559
9.9826408
9.9824581
9.9848947
9.9895807
9.9949266
9.998745
10.000324
9.9995023
9.9937501
1539.7482
2429.8877
875.30234
555.85424
349.64527
269.57157
187.97661
152.37467
120.64382
99.714498
83.180702
70.477245
60.444678
52.436804
45.97795
40.688804
36.318539
32.679532
29.627636
27.048836
24.859976
22.986701
21.380715
19.991907
18.786644
17.735703
16.814407
16.003279
15.287017
14.653334
14.089634
13.588755
13.143452
12.747998
12.397405
12.084962
11.807903
11.562486
11.345407
11.1554
10.988801
10.843669
10.718413
10.610023
10.516404
10.435891
10.366788
10.307469
10.256833
10.214402
10.178361
10.147787
10.12201
10.100835
10.083204
10.068634
10.057036
10.048062
10.041305
10.036371
10.032291
10.02808
10.023763
10.019282
10.014591
10.009685
10.004564
9.9991651
9.9933407
9.9872261
9.9830403
9.9809395
9.9809977
9.9833409
9.9875947
9.9923595
9.9959799
9.9982468
9.998565
9.9948335
1557.6261
2395.4152
843.18924
544.23942
337.83181
262.19307
182.88041
147.53811
116.87875
96.131114
79.99419
67.611032
57.879448
50.140427
43.910126
38.842947
34.672588
31.211757
28.320239
25.883522
23.822019
22.061867
20.553673
19.25589
18.132824
17.155482
16.300504
15.548848
14.885294
14.299376
13.778397
13.315504
12.903909
12.537977
12.212903
11.924537
11.668861
11.442753
11.24334
11.067887
10.914099
10.779678
10.663804
10.563793
10.477366
10.402977
10.339145
10.284505
10.237823
10.198464
10.165161
10.136915
10.113084
10.093375
10.077111
10.06367
10.052799
10.04441
10.038075
10.033416
10.029025
10.024595
10.020081
10.015436
10.010615
10.005599
10.000397
9.9950152
9.9894944
9.9841348
9.9808687
9.9793174
9.9795796
9.9818083
9.9856492
9.9899355
9.993477
9.996436
9.9977031
9.995854
1574.4889
2352.5883
810.15744
531.66835
325.64559
253.63261
177.4406
142.05647
112.45667
92.049218
76.394104
64.415755
55.040718
47.621005
41.68549
36.881456
32.945496
29.68961
26.978766
24.700242
22.774143
21.137054
19.737431
18.534742
17.496032
16.593824
15.805722
15.113647
14.502197
13.961459
13.4821
13.055979
12.676934
12.33988
12.040478
11.774784
11.539243
11.330818
11.146935
10.985296
10.843823
10.720461
10.613268
10.520978
10.441243
10.372576
10.313616
10.263169
10.220168
10.18365
10.152836
10.126748
10.104746
10.08633
10.071268
10.058836
10.04878
10.040933
10.034911
10.030368
10.025719
10.02108
10.016379
10.011585
10.006658
10.00157
9.9963101
9.9908868
9.9854792
9.9814336
9.9789185
9.977866
9.9783372
9.9804673
9.9839472
9.9878344
9.9913589
9.9948957
9.9969156
9.996802
1589.6827
2285.0914
775.47892
517.65168
312.31115
243.73978
171.34109
135.78897
107.27616
87.409509
72.354395
60.872117
51.94615
44.927009
39.340917
34.843598
31.175809
28.148494
25.631414
23.524317
21.747441
20.238991
18.950809
17.844846
16.890503
16.062403
15.339264
14.703408
14.142975
13.647023
13.207101
12.815834
12.467416
12.157182
11.881371
11.636674
11.419877
11.228034
11.058737
10.909731
10.779163
10.665414
10.567085
10.481793
10.408168
10.344741
10.290223
10.2435
10.203618
10.17004
10.141431
10.117239
10.096844
10.079775
10.065768
10.054243
10.044937
10.037648
10.031922
10.027251
10.02241
10.017572
10.01269
10.00774
10.002695
9.9975315
9.9922544
9.986975
9.9822331
9.9791506
9.9773078
9.9766986
9.9774214
9.9794925
9.9826742
9.986201
9.9896458
9.9935219
9.9961175
9.9978712
1602.1039
2216.1937
738.25147
501.59345
298.19695
232.31712
164.10877
128.56721
101.25985
82.181982
67.869388
57.021744
48.65846
42.118199
36.936702
32.782931
29.410294
26.625915
24.319165
22.390637
20.766194
19.388132
18.211286
17.200351
16.32749
15.570048
14.907478
14.326303
13.813466
13.358964
12.955623
12.596638
12.276649
11.991273
11.737054
11.511271
11.311446
11.134603
10.978641
10.841373
10.720933
10.616366
10.525271
10.446371
10.378225
10.319534
10.269077
10.225825
10.188924
10.157641
10.131043
10.108536
10.08958
10.07372
10.060635
10.049891
10.041234
10.034466
10.029065
10.024109
10.01912
10.014111
10.00906
10.003947
9.9987642
9.9935044
9.9882083
9.9831567
9.9796615
9.9773917
9.9761512
9.97588
9.976896
9.9789215
9.9818225
9.9850072
9.9883435
9.9924364
9.9956391
9.9985135
1608.9597
2132.7988
698.22956
481.78903
283.02877
219.04728
155.26606
120.25291
94.407718
76.414845
63.024204
52.97417
45.27574
39.282038
34.547731
30.761368
27.694979
25.168657
23.075414
21.326158
19.852298
18.601254
17.53183
16.611694
15.815371
15.122679
14.517322
13.98563
13.516532
13.099799
12.729526
12.399699
12.10548
11.842824
11.608358
11.399454
11.214731
11.051166
10.906975
10.780316
10.669376
10.572416
10.488005
10.414777
10.351474
10.29696
10.250135
10.209883
10.175737
10.146542
10.121706
10.100662
10.082956
10.068213
10.055931
10.045845
10.037708
10.031304
10.026143
10.020984
10.015863
10.010716
10.005527
10.00027
9.9949455
9.9895942
9.9843963
9.9803412
9.9776586
9.9761175
9.9754912
9.975463
9.9767115
9.9786996
9.981332
9.9842205
9.9874789
9.9916727
9.9953599
9.9987066
1605.0947
2030.5382
654.89916
455.938
266.62749
203.5763
144.57074
110.87099
86.872357
70.237975
58.007029
48.878826
41.918799
36.514889
32.251989
28.843324
26.083602
23.813919
21.929761
20.353037
19.022166
17.890355
16.920983
16.085207
15.360171
14.727743
14.173457
13.685466
13.253962
12.871001
12.530014
12.225893
11.954359
11.711892
11.495516
11.302673
11.13117
10.979187
10.844979
10.726989
10.623737
10.533704
10.455204
10.387052
10.328021
10.277086
10.233583
10.19615
10.164085
10.136746
10.113489
10.093723
10.077179
10.063269
10.0517
10.042179
10.034498
10.028313
10.023206
10.017896
10.012649
10.007387
10.002096
9.9967446
9.9913344
9.9860069
9.9814298
9.9782947
9.9762592
9.975201
9.9749601
9.9755627
9.9768066
9.9787993
9.9812204
9.9838607
9.9870099
9.9911735
9.995187
9.9988754
1584.3775
1899.8775
608.46898
423.36433
249.00171
185.69418
132.2472
100.75054
79.007007
63.980461
53.041312
44.902677
38.711875
33.910481
30.121351
27.085129
24.619807
22.593866
20.90574
19.488462
18.288208
17.264184
16.38454
15.62407
14.962575
14.383813
13.874888
13.425849
13.027989
12.674316
12.358794
12.076909
11.824833
11.599438
11.398091
11.218534
11.058783
10.917051
10.79171
10.681262
10.584396
10.500285
10.426914
10.363211
10.308065
10.260461
10.219491
10.184324
10.154104
10.128277
10.106443
10.087858
10.072142
10.058953
10.047984
10.039005
10.031662
10.025666
10.020327
10.014904
10.009523
10.004143
9.9987537
9.9933506
9.98797
9.9828621
9.9793568
9.9769351
9.9754954
9.9748887
9.9747564
9.975771
9.9771871
9.9791819
9.9814679
9.9839246
9.9869353
9.990969
9.9951649
9.9989728
1537.9976
1740.8713
560.10885
384.8673
231.04422
165.67207
118.98611
90.521416
71.2726
57.969053
48.352998
41.206381
35.772006
31.553535
28.216969
25.533517
23.343501
21.533547
20.021376
18.745456
17.659962
16.729788
15.92762
15.231843
14.625045
14.092873
13.622789
13.206797
12.837158
12.508391
12.214473
11.951454
11.7159
11.505005
11.3164
11.148048
10.998159
10.865121
10.747453
10.643775
10.552792
10.473283
10.404066
10.343852
10.291668
10.246545
10.207671
10.174495
10.145962
10.121536
10.100686
10.082971
10.067978
10.055347
10.044887
10.036213
10.029106
10.023214
10.017676
10.012121
10.006606
10.0011
9.9955868
9.9900851
9.9847974
9.9807334
9.9778914
9.9760846
9.975118
9.9748027
9.9752704
9.9762207
9.9778002
9.9797846
9.9819807
9.9843291
9.9872169
9.9910421
9.9952213
9.9989735
1457.8519
1580.3671
510.82375
345.21246
206.96851
146.28176
105.73356
80.876834
64.128013
52.518546
44.157927
37.945144
33.209791
29.519852
26.587165
24.215685
22.268906
20.649869
19.288508
18.133437
17.145299
16.294139
15.556493
14.913756
14.350939
13.85583
13.418373
13.03024
12.684674
12.376049
12.099706
11.851977
11.629784
11.430585
11.252227
11.092852
10.950811
10.824605
10.712839
10.614201
10.527463
10.451545
10.385735
10.328427
10.27876
10.23582
10.198798
10.166958
10.139638
10.116198
10.096163
10.079109
10.064759
10.052624
10.042457
10.034011
10.027035
10.021164
10.015433
10.009728
10.004066
9.9984415
9.9928654
9.9874231
9.9825734
9.9792457
9.9769874
9.9756768
9.9751774
9.9751943
9.9758275
9.9769695
9.9785937
9.9805442
9.9826633
9.9849497
9.9877323
9.9913047
9.9952926
9.9988685
1345.7766
1493.5658
464.49602
297.66753
183.01536
128.07193
93.755667
72.339457
57.947435
47.922342
40.674076
35.270325
31.128931
27.879723
25.278755
23.16077
21.410702
19.946274
18.706445
17.648734
16.739238
15.952131
15.267025
14.667621
14.140705
13.675476
13.263001
12.895926
12.568286
12.275585
12.012885
11.776983
11.565059
11.374799
11.204237
11.051672
10.915592
10.794624
10.687484
10.592956
10.509867
10.437073
10.373449
10.318065
10.269976
10.228338
10.192383
10.161448
10.135068
10.112412
10.093049
10.076542
10.062528
10.050693
10.040757
10.032472
10.025586
10.019716
10.013825
10.00797
10.002131
9.9963155
9.9905731
9.9851475
9.9810997
9.9783123
9.9765708
9.9756643
9.9753828
9.9757275
9.9765541
9.9778343
9.9794819
9.981397
9.9834684
9.9857198
9.9883876
9.9916736
9.9953457
9.9987306
1213.2864
1254.8853
424.1652
255.25714
160.74255
112.88787
83.846814
65.446582
53.063112
44.380161
38.054675
33.295751
29.614742
26.700579
24.347771
22.416507
20.808976
19.455076
18.303434
17.315594
16.462333
15.720907
15.073308
14.504997
14.004033
13.560489
13.166299
12.814685
12.500062
12.217812
11.964157
11.735944
11.530583
11.345903
11.180061
11.03146
10.898678
10.780414
10.675459
10.582683
10.501065
10.429872
10.36755
10.313266
10.266103
10.225244
10.189935
10.159496
10.13332
10.110874
10.091677
10.075312
10.061417
10.049678
10.03982
10.031598
10.02476
10.01891
10.012965
10.007044
10.001113
9.9951742
9.9893102
9.9839237
9.9803069
9.9778345
9.9763806
9.9757692
9.9756995
9.9762387
9.9772265
9.9786037
9.9802935
9.9822082
9.9842815
9.9865395
9.9891182
9.9921246
9.9954255
9.9986058
1094.1983
1114.9737
391.31732
224.44888
144.08396
101.72061
76.509119
60.426378
49.571479
41.894488
36.244851
31.953453
28.60316
25.928083
23.751339
21.951773
20.444031
19.166544
18.073936
17.132105
16.314918
15.601966
14.97702
14.427048
13.941873
13.511127
13.127526
12.784668
12.477298
12.201044
11.9523
11.728095
11.525971
11.343874
11.180064
11.033032
10.901432
10.784034
10.679683
10.587282
10.505774
10.434148
10.371443
10.316727
10.269135
10.227858
10.192154
10.161349
10.134836
10.112075
10.092588
10.075957
10.061815
10.049847
10.039775
10.031353
10.024334
10.018361
10.012504
10.006651
10.000827
9.9950207
9.9892892
9.9839476
9.980383
9.9779687
9.9765701
9.9759819
9.9760579
9.976682
9.9777391
9.9791774
9.9809011
9.9828326
9.9849243
9.9871937
9.9897051
9.9924935
9.9954925
9.9985304
1039.472
1075.0803
366.93789
207.30987
133.17484
94.143163
71.04338
56.438245
46.598524
39.629789
34.485493
30.559908
27.481934
25.01399
22.997971
21.325195
19.918861
18.723401
17.697771
16.811078
16.039638
15.364943
14.772236
14.249512
13.786835
13.375883
13.009612
12.68209
12.38833
12.124176
11.886178
11.671489
11.477755
11.303017
11.145622
11.004146
10.877326
10.764014
10.663136
10.573669
10.494629
10.425063
10.36406
10.310748
10.264305
10.223963
10.189016
10.15882
10.132794
10.110416
10.091227
10.074821
10.060844
10.048986
10.038977
10.030573
10.023529
10.017479
10.011457
10.00545
9.9994687
9.9935435
9.9878297
9.9830297
9.9797793
9.977628
9.9764193
9.975979
9.9759213
9.9769128
9.9779682
9.979459
9.9811938
9.9831359
9.9852488
9.9875378
9.9900202
9.9926867
9.9955103
9.9984841
31055.348
79354.985
36940.798
10714.589
1420.2217
614.90845
436.96691
353.08211
292.57841
237.98523
193.77247
160.24571
135.47121
117.12713
103.02532
91.477415
81.686762
73.334588
66.187705
60.025304
54.665957
49.97323
45.841932
42.18623
38.940352
36.039375
33.43756
31.094599
28.978329
27.063385
25.328172
23.75347
22.322475
21.020368
19.835472
18.758006
17.779178
16.891202
16.086984
15.360051
14.704759
14.115549
13.587351
13.115588
12.69576
12.323621
11.995337
11.706859
11.454469
11.234797
11.044554
10.880575
10.739815
10.619699
10.517684
10.431493
10.359728
10.302561
10.261483
10.239967
10.23195
10.227223
10.221604
10.215405
10.209425
10.204108
10.19975
10.195088
10.189758
10.18316
10.179579
10.168686
10.162133
10.136653
10.12801
10.07732
10.062247
10.009982
9.9856762
10.067206
20399.183
58759.812
24299.033
5046.0586
973.1266
531.78374
400.60516
323.91216
266.06299
214.33053
175.60853
146.59674
125.38929
109.54294
97.02529
86.490386
77.496983
69.822641
63.233185
57.520909
52.529297
48.142015
44.266574
40.826431
37.759251
35.011552
32.541566
30.311551
28.293103
26.463405
24.802531
23.292663
21.918306
20.665805
19.524699
18.485942
17.541324
16.683613
15.906151
15.202879
14.568522
13.997755
13.485817
13.02837
12.621084
12.25992
11.941218
11.66103
11.415811
11.202323
11.017374
10.857898
10.720953
10.604078
10.504813
10.420875
10.350637
10.294651
10.254852
10.234591
10.227185
10.22256
10.217033
10.211059
10.205388
10.200412
10.19638
10.192545
10.187897
10.181956
10.178493
10.167898
10.160617
10.133602
10.124472
10.073072
10.059806
10.007904
9.988321
10.072472
29089.157
34444.764
13217.853
2520.2174
837.90757
502.0773
390.74227
308.66109
252.56151
202.69643
167.7967
140.52765
120.83564
105.90431
93.954069
83.817614
75.199174
67.850045
61.526496
56.034504
51.229966
47.003448
43.266531
39.945939
36.980406
34.322318
31.931176
29.77016
27.812937
26.037618
24.424984
22.957893
21.621532
20.402829
19.292024
18.280384
17.360027
16.524035
15.765989
15.080071
14.461227
13.904256
13.404603
12.958067
12.560425
12.207773
11.896566
11.622915
11.383403
11.174876
10.994207
10.838404
10.704617
10.59048
10.493451
10.411413
10.342567
10.28747
10.248671
10.22938
10.22243
10.217907
10.212505
10.206769
10.2014
10.196749
10.19303
10.189909
10.185963
10.180685
10.177311
10.166992
10.158841
10.129998
10.119577
10.068771
10.056854
10.006259
9.9909442
10.077771
36503.558
23847.647
8262.9914
1533.9514
757.12477
478.9948
378.46181
292.72058
241.30674
192.03016
160.74789
134.64975
116.50788
102.40639
91.013642
81.274104
73.020513
65.974738
59.899777
54.615252
49.986807
45.911225
42.304236
39.095864
36.228141
33.652811
31.335676
29.24
27.341055
25.617659
24.051273
22.625375
21.325764
20.139903
19.058691
18.073638
17.17717
16.362656
15.623885
14.955267
14.351941
13.808817
13.321538
12.886026
12.498152
12.154151
11.850578
11.5836
11.349928
11.146488
10.970217
10.8182
10.687744
10.576341
10.481642
10.401578
10.33434
10.280167
10.242418
10.224119
10.217626
10.21321
10.207949
10.20246
10.197395
10.193069
10.189664
10.187126
10.18391
10.179302
10.175998
10.165885
10.156666
10.125959
10.114185
10.064484
10.054206
10.005031
9.9932032
10.08297
40847.419
20502.081
5838.7861
1229.5444
723.93552
461.37082
368.86199
280.35762
233.13978
183.94713
155.76597
130.10564
113.24738
99.641481
88.650938
79.206463
71.237377
64.423456
58.540447
53.418245
48.929206
44.974325
41.472194
38.35522
35.56738
33.063021
30.805922
28.765318
26.915965
25.23709
23.710669
22.320638
21.053274
19.89645
18.841613
17.880395
17.005492
16.210491
15.489338
14.836626
14.247651
13.717396
13.241686
12.816526
12.43787
12.10207
11.805767
11.545166
11.317102
11.118566
10.946554
10.79823
10.670987
10.562272
10.469862
10.391746
10.326206
10.272943
10.236217
10.21886
10.212789
10.208487
10.203385
10.198153
10.193395
10.189393
10.186308
10.184215
10.181766
10.177829
10.174557
10.164543
10.153768
10.121804
10.109098
10.060462
10.052292
10.004103
9.9950044
10.087912
43597.67
19157.133
4507.7214
1159.3348
703.89173
443.41943
361.53723
270.67367
226.98275
177.47593
151.85966
126.27187
110.55387
97.263257
86.613434
77.413479
69.683072
63.060731
57.33873
52.353993
47.983815
44.1324
40.720626
37.682824
34.964688
32.521905
30.318271
28.326396
26.521068
24.881982
23.391479
22.033856
20.795791
19.665499
18.634904
17.695691
16.840808
16.064013
15.359376
14.721653
14.146263
13.628243
13.163584
12.748354
12.378573
12.050704
11.761453
11.507061
11.284481
11.090757
10.922953
10.77834
10.654185
10.548132
10.458004
10.381836
10.317968
10.265751
10.230034
10.213588
10.207918
10.203738
10.198814
10.19385
10.189405
10.185731
10.182972
10.181208
10.179541
10.176263
10.172987
10.162886
10.150565
10.117629
10.103199
10.056689
10.050539
10.003427
9.9967152
10.092449
45761.69
17220.318
3635.3513
1110.2981
689.00485
431.10225
355.73325
262.93102
222.19927
172.32514
148.75699
123.05471
108.31885
95.212745
84.853727
75.855141
68.324118
61.860567
56.273884
51.405597
47.136807
43.374168
40.040371
37.071281
34.413944
32.02529
29.870427
27.920465
26.154099
24.550584
23.092382
21.764061
20.552627
19.446578
18.438262
17.519349
16.683039
15.923213
15.234043
14.610424
14.047874
13.541467
13.08735
12.681623
12.320373
12.000157
11.717734
11.469376
11.25215
11.063157
10.899564
10.758468
10.637376
10.533965
10.446105
10.371878
10.309684
10.258612
10.223874
10.208307
10.203018
10.198973
10.194245
10.189562
10.185436
10.182097
10.179672
10.178226
10.177241
10.174601
10.171283
10.160888
10.147253
10.11323
10.09591
10.053042
10.048336
10.002994
9.9984863
10.096431
47358.288
14560.207
3075.1868
1080.0057