/*--------------------------------*- C++ -*----------------------------------*\
  =========                 |
  \\      /  F ield         | OpenFOAM: The Open Source CFD Toolbox
   \\    /   O peration     | Website:  https://openfoam.org
    \\  /    A nd           | Version:  12
     \\/     M anipulation  |
\*---------------------------------------------------------------------------*/
FoamFile
{
    format      ascii;
    class       volScalarField;
    location    "0.057";
    object      p;
}
// * * * * * * * * * * * * * * * * * * * * * * * * * * * * * * * * * * * * * //

dimensions      [1 -1 -2 0 0 0 0];

internalField   nonuniform List<scalar> 
16000
(
89696.3
89823.813
89835.629
89971.839
89997.807
90126.926
90177.5
90295.844
90370.043
90482.557
90575.338
90687.591
90794.715
90911.202
91029.532
91153.382
91281.323
91413.973
91551.205
91693.109
91839.694
91990.963
92146.899
92307.455
92472.564
92642.125
92816.01
92994.058
93176.074
93361.831
93551.065
93743.476
93938.731
94136.462
94336.27
94537.725
94740.371
94943.731
95147.308
95350.591
95553.063
95754.202
95953.49
96150.418
96344.493
96535.243
96722.221
96905.013
97083.237
97256.553
97424.66
97587.298
97744.249
97895.338
98040.425
98179.413
98312.235
98438.855
98559.261
98673.46
98781.476
98883.345
98979.13
99068.924
99152.864
99231.136
99303.986
99371.709
99434.625
99493.046
99547.279
99597.58
99644.042
99687.05
99727.838
99765.627
99797.208
99846.967
99859.364
99891.511
89340.809
89485.488
89494.864
89643.282
89670.856
89811.184
89864.035
89993.909
90071.949
90194.737
90294.001
90415.312
90530.872
90656.334
90784.054
90917.517
91055.493
91198.475
91346.382
91499.268
91657.127
91819.937
91987.646
92160.175
92337.415
92519.223
92705.422
92895.799
93090.104
93288.052
93489.315
93693.531
93900.301
94109.192
94319.739
94531.448
94743.804
94956.271
95168.301
95379.34
95588.831
95796.225
96000.985
96202.594
96400.562
96594.427
96783.767
96968.197
97147.377
97321.013
97488.855
97650.702
97806.392
97955.81
98098.875
98235.546
98365.812
98489.686
98607.204
98718.414
98823.376
98922.164
99014.87
99101.622
99182.587
99257.98
99328.073
99393.18
99453.635
99509.765
99561.888
99610.228
99654.915
99696.648
99736.18
99771.424
99805.845
99850.489
99861.573
99900.306
89015.925
89176.364
89185.433
89347.544
89375.238
89529.593
89584.201
89726.656
89809.653
89943.164
90050.333
90181.406
90306.72
90442.23
90580.593
90724.924
90874.209
91028.812
91188.664
91353.778
91524.118
91699.625
91880.208
92065.745
92256.08
92451.018
92650.328
92853.737
93060.931
93271.555
93485.21
93701.462
93919.835
94139.821
94360.882
94582.455
94803.96
95024.801
95244.38
95462.102
95677.378
95889.641
96098.348
96302.988
96503.088
96698.217
96887.992
97072.079
97250.197
97422.115
97587.655
97746.684
97899.115
98044.9
98184.03
98316.529
98442.445
98561.85
98674.827
98781.468
98881.873
98976.152
99064.429
99146.863
99223.651
99295.038
99361.317
99422.822
99479.899
99532.891
99582.116
99627.769
99670.075
99709.872
99747.301
99780.461
99815.604
99855.953
99865.22
99909.865
88726.8
88898.287
88908.088
89085.855
89112.991
89283.883
89340.749
89497.794
89586.692
89732.492
89849.088
89991.306
90128.039
90275.085
90425.63
90582.312
90744.332
90911.93
91085.042
91263.643
91447.668
91637.021
91831.573
92031.154
92235.554
92444.519
92657.75
92874.901
93095.578
93319.341
93545.706
93774.148
94004.105
94234.981
94466.156
94696.993
94926.842
95155.051
95380.976
95603.987
95823.48
96038.882
96249.663
96455.337
96655.47
96849.685
97037.661
97219.138
97393.912
97561.84
97722.827
97876.828
98023.841
98163.9
98297.075
98423.461
98543.174
98656.343
98763.103
98863.588
98957.939
99046.297
99128.817
99205.684
99277.119
99343.388
99404.802
99461.7
99514.44
99563.381
99608.835
99650.995
99690.21
99727.297
99761.997
99793.008
99827.636
99863.457
99870.495
99921.017
88476.828
88663.392
88669.984
88866.699
88892.728
89082.31
89141.285
89314.775
89410.845
89570.403
89698.266
89852.827
90002.485
90162.277
90326.203
90496.391
90672.262
90853.969
91041.452
91234.658
91433.488
91637.801
91847.414
92062.091
92281.55
92505.454
92733.412
92964.98
93199.663
93436.916
93676.148
93916.729
94157.994
94399.253
94639.798
94878.914
95115.887
95350.016
95580.625
95807.067
96028.742
96245.097
96455.639
96659.937
96857.624
97048.402
97232.041
97408.377
97577.311
97738.8
97892.854
98039.526
98178.909
98311.129
98436.338
98554.706
98666.417
98771.656
98870.608
98963.447
99050.348
99131.481
99207.025
99277.185
99342.201
99402.35
99457.949
99509.34
99556.886
99600.959
99641.863
99679.815
99715.282
99748.911
99780.269
99808.904
99842.275
99873.014
99877.615
99934.001
88270.351
88474.779
88479.438
88697.469
88722.403
88932.698
88994.049
89185.714
89290.141
89464.024
89604.248
89771.534
89934.953
90108.267
90286.491
90471.248
90662.14
90859.234
91062.443
91271.657
91486.712
91707.392
91933.426
92164.483
92400.174
92640.05
92883.6
93130.255
93379.395
93630.346
93882.393
94134.788
94386.753
94637.499
94886.232
95132.167
95374.54
95612.619
95845.72
96073.209
96294.518
96509.151
96716.686
96916.778
97109.164
97293.656
97470.144
97638.587
97799.008
97951.484
98096.141
98233.141
98362.679
98484.974
98600.262
98708.785
98810.79
98906.516
98996.187
99080.016
99158.2
99230.933
99298.411
99360.85
99418.499
99471.639
99520.582
99565.664
99607.25
99645.714
99681.355
99714.459
99745.587
99775.102
99802.46
99828.366
99859.73
99884.675
99886.96
99949.365
88106.969
88332.622
88334.406
88577.497
88601.337
88836.386
88900.798
89112.018
89224.772
89412.328
89565.947
89746.683
89925.32
90113.783
90308.104
90509.381
90717.304
90931.829
91152.797
91380.01
91613.205
91852.06
92096.184
92345.12
92598.344
92855.262
93115.215
93377.487
93641.305
93905.851
94170.273
94433.694
94695.226
94953.985
95209.105
95459.753
95705.14
95944.539
96177.29
96402.817
96620.628
96830.323
97031.596
97224.23
97408.1
97583.166
97749.463
97907.097
98056.229
98197.07
98329.868
98454.897
98572.455
98682.85
98786.394
98883.398
98974.16
99058.96
99138.058
99211.687
99280.065
99343.396
99401.883
99455.748
99505.235
99550.622
99592.206
99630.314
99665.303
99697.534
99727.308
99755.034
99781.244
99806.12
99829.092
99851.801
99880.198
99898.524
99898.921
99967.636
87980.127
88230.655
88228
88501.385
88521.811
88783.956
88851.354
89081.875
89206.606
89410.556
89581.444
89778.611
89975.624
90182.272
90395.577
90616.209
90843.891
91078.474
91319.711
91567.291
91820.829
92079.864
92343.857
92612.191
92884.171
93159.029
93435.93
93713.982
93992.242
94269.735
94545.464
94818.43
95087.645
95352.154
95611.047
95863.48
96108.685
96345.987
96574.808
96794.678
97005.237
97206.236
97397.529
97579.076
97750.927
97913.217
98066.152
98209.999
98345.069
98471.708
98590.288
98701.19
98804.806
98901.522
98991.715
99075.748
99153.956
99226.65
99294.106
99356.571
99414.266
99467.399
99516.17
99560.792
99601.502
99638.558
99672.241
99702.862
99730.764
99756.283
99779.726
99801.564
99822.398
99842.354
99860.34
99879.563
99903.98
99914.881
99914.002
99989.174
87888.181
88167.336
88160.292
88471.557
88485.736
88776.793
88850.027
89102.893
89244.785
89467.59
89659.443
89875.982
90094.461
90322.425
90557.75
90800.748
91051.113
91308.57
91572.741
91843.164
92119.292
92400.482
92686.002
92975.032
93266.667
93559.93
93853.778
94147.121
94438.836
94727.787
95012.843
95292.901
95566.909
95833.878
96092.911
96343.209
96584.091
96815
97035.512
97245.33
97444.29
97632.349
97809.575
97976.141
98132.304
98278.398
98414.812
98541.978
98660.354
98770.418
98872.65
98967.527
99055.515
99137.062
99212.591
99282.494
99347.13
99406.819
99461.841
99512.439
99558.828
99601.204
99639.755
99674.68
99706.194
99734.531
99759.95
99782.742
99803.232
99821.721
99838.536
99854.244
99869.393
99883.512
99896.282
99911.908
99931.43
99934.285
99932.866
100014.31
87835.234
88147.891
88137.967
88485.572
88499.79
88823.535
88908.512
89187.118
89349.251
89592.928
89809.411
90048.527
90291.738
90544.433
90805.092
91073.722
91349.909
91633.209
91923.061
92218.803
92519.663
92824.765
93133.128
93443.677
93755.256
94066.639
94376.554
94683.703
94986.785
95284.521
95575.68
95859.105
96133.733
96398.618
96652.952
96896.07
97127.466
97346.79
97553.852
97748.607
97931.149
98101.697
98260.574
98408.194
98545.039
98671.646
98788.582
98896.434
98995.795
99087.25
99171.367
99248.693
99319.746
99385.008
99444.923
99499.894
99550.278
99596.389
99638.492
99676.811
99711.544
99742.864
99770.938
99795.939
99818.054
99837.489
99854.473
99869.28
99882.199
99893.504
99903.557
99912.963
99922.05
99930.093
99937.585
99949.236
99963.031
99957.548
99956.379
100043.76
87828.19
88180.728
88166.728
88555.502
88573.766
88934.477
89034.393
89340.494
89528.593
89795.888
90041.218
90306.861
90578.563
90859.834
91149.519
91447.337
91752.696
92064.922
92383.202
92706.598
93034.043
93364.352
93696.232
94028.3
94359.107
94687.161
95010.952
95328.99
95639.826
95942.092
96234.526
96515.998
96785.54
97042.358
97285.845
97515.587
97731.362
97933.128
98121.014
98295.298
98456.388
98604.798
98741.129
98866.041
98980.234
99084.43
99179.353
99265.719
99344.22
99415.518
99480.238
99538.963
99592.23
99640.53
99684.3
99723.931
99759.757
99792.066
99821.091
99847.029
99870.043
99890.277
99907.867
99922.954
99935.692
99946.25
99954.835
99961.685
99967.052
99971.19
99974.515
99977.612
99980.462
99982.228
99984.51
99992.193
99999.377
99985.701
99985.818
100078.66
87875.043
88274.954
88257.169
88694.585
88717.52
89118.263
89237.923
89573.326
89793.299
90087.617
90366.252
90663.013
90967.492
91281.669
91604.507
91935.404
92273.489
92617.76
92967.051
93320.047
93675.295
94031.226
94386.174
94738.413
95086.183
95427.728
95761.335
96085.373
96398.331
96698.852
96985.769
97258.127
97515.198
97756.491
97981.751
98190.946
98384.251
98562.026
98724.788
98873.183
99007.956
99129.924
99239.947
99338.911
99427.699
99507.18
99578.192
99641.533
99697.954
99748.152
99792.768
99832.387
99867.531
99898.669
99926.209
99950.502
99971.845
99990.478
100006.6
100020.35
100031.87
100041.25
100048.6
100054.02
100057.62
100059.54
100059.95
100059.07
100057.08
100054.24
100051.02
100047.91
100044.54
100040.23
100037.71
100041.22
100040.93
100019.9
100022.88
100120.49
87976.252
88432.419
88411.287
88903.864
88935.514
89380.248
89527.473
89894.859
90153.979
90480.188
90797.344
91130.765
91473.136
91825.225
92185.86
92554.019
92928.411
93307.569
93689.85
94073.457
94456.469
94836.871
95212.594
95581.557
95941.715
96291.109
96627.915
96950.49
97257.42
97547.55
97820.006
98074.207
98309.868
98526.975
98725.776
98906.742
99070.533
99217.966
99349.97
99467.559
99571.794
99663.754
99744.516
99815.129
99876.604
99929.897
99975.901
100015.45
100049.29
100078.11
100102.54
100123.12
100140.33
100154.59
100166.25
100175.6
100182.9
100188.32
100192.01
100194.07
100194.57
100193.59
100191.17
100187.37
100182.28
100176
100168.67
100160.44
100151.48
100142.04
100132.61
100123.51
100114.07
100104.08
100097.34
100096.55
100088.24
100061
100069.18
100170.96
88137.676
88660.631
88636.861
89192.205
89238.833
89731.487
89915.625
90318.339
90624.479
90988.995
91350.805
91727.451
92113.724
92509.319
92912.653
93322.111
93735.813
94151.692
94567.513
94980.911
95389.436
95790.601
96181.942
96561.084
96925.805
97274.101
97604.245
97914.835
98204.82
98473.521
98720.624
98946.161
99150.483
99334.216
99498.215
99643.519
99771.297
99882.809
99979.362
100062.28
100132.86
100192.38
100242.04
100282.98
100316.26
100342.86
100363.65
100379.45
100390.96
100398.82
100403.59
100405.75
100405.7
100403.81
100400.34
100395.52
100389.54
100382.51
100374.51
100365.6
100355.81
100345.15
100333.64
100321.29
100308.14
100294.26
100279.76
100264.75
100249.35
100233.86
100218.73
100204.01
100188.87
100173.85
100163.56
100158.46
100141.9
100110.04
100125.97
100230.88
88365.866
88968.675
88944.224
89570.783
89639.754
90184.379
90416.885
90860.195
91222.471
91633.916
92047.954
92475.427
92912.197
93356.895
93807.271
94260.959
94715.344
95167.633
95614.901
96054.151
96482.384
96896.69
97294.333
97672.843
98030.099
98364.387
98674.449
98959.493
99219.197
99453.673
99663.428
99849.307
100012.43
100154.13
100275.88
100379.26
100465.88
100537.37
100595.29
100641.17
100676.46
100702.49
100720.51
100731.65
100736.95
100737.32
100733.59
100726.47
100716.61
100704.54
100690.72
100675.57
100659.38
100642.43
100624.92
100607
100588.76
100570.27
100551.55
100532.61
100513.42
100493.96
100474.19
100454.09
100433.66
100412.93
100391.98
100370.88
100349.75
100328.9
100308.71
100288.92
100268.73
100249.62
100236.54
100227.15
100202.35
100167.52
100194.04
100300.07
88667.136
89365.34
89343.082
90050.58
90153.466
90756.017
91051.755
91544.318
91973.347
92442.137
92916.779
93402.701
93895.971
94394.131
94894.054
95392.447
95885.785
96370.414
96842.643
97298.857
97735.647
98149.933
98539.085
98901.001
99234.171
99537.694
99811.267
100055.14
100270.06
100457.17
100617.97
100754.16
100867.65
100960.39
101034.38
101091.61
101133.98
101163.31
101181.32
101189.57
101189.52
101182.48
101169.63
101152.01
101130.56
101106.09
101079.3
101050.8
101021.1
100990.64
100959.77
100928.79
100897.91
100867.3
100837.09
100807.33
100778.07
100749.3
100720.98
100693.07
100665.52
100638.25
100611.17
100584.24
100557.41
100530.69
100504.11
100477.72
100451.66
100426.26
100401.75
100377.61
100353.31
100331.31
100316.2
100302.49
100270.81
100234.49
100272.29
100377.18
89049.248
89861.443
89847.125
90650.872
90804.831
91475.397
91851.595
92404.343
92910.798
93447.419
93990.436
94541.117
95095.019
95648.39
96196.906
96736.062
97261.237
97767.871
98251.651
98708.687
99135.682
99530.044
99889.968
100214.45
100503.27
100756.9
100976.44
101163.49
101320.02
101448.28
101550.68
101629.7
101687.82
101727.44
101750.88
101760.3
101757.72
101744.98
101723.75
101695.54
101661.66
101623.31
101581.52
101537.19
101491.09
101443.88
101396.12
101348.28
101300.73
101253.8
101207.71
101162.65
101118.74
101076.06
101034.64
100994.48
100955.53
100917.75
100881.05
100845.34
100810.52
100776.49
100743.13
100710.34
100678.06
100646.26
100614.94
100584.13
100554.02
100524.94
100496.92
100469.28
100442.02
100418.43
100402.02
100384.21
100347.15
100311.91
100360.5
100462.67
89532.545
90485.394
90490.361
91409.892
91632.593
92381.507
92855.645
93479.914
94073.437
94687.592
95305.486
95924.921
96540.078
97145.409
97734.993
98302.976
98843.797
99352.473
99824.819
100257.63
100648.74
100997.1
101302.65
101566.24
101789.5
101974.65
102124.37
102241.58
102329.38
102390.91
102429.22
102447.27
102447.84
102433.48
102406.57
102369.24
102323.38
102270.71
102212.71
102150.68
102085.78
102018.96
101951.06
101882.79
101814.74
101747.4
101681.17
101616.36
101553.23
101491.95
101432.65
101375.41
101320.25
101267.17
101216.11
101167.01
101119.78
101074.3
101030.45
100988.12
100947.16
100907.44
100868.8
100831.14
100794.37
100758.41
100723.26
100688.94
100655.7
100623.81
100593.09
100562.89
100533.89
100509.9
100492.65
100470.93
100430.08
100400.17
100459.6
100557.2
90149.496
91280.755
91315.104
92369.103
92679.618
93515.105
94106.222
94815.772
95506.001
96206.258
96902.599
97589.266
98258.227
98901.863
99512.861
100084.72
100612.08
101090.94
101518.75
101894.46
102218.35
102491.88
102717.46
102898.21
103037.74
103139.93
103208.76
103248.17
103261.98
103253.77
103226.87
103184.3
103128.81
103062.85
102988.56
102907.86
102822.37
102733.54
102642.57
102550.52
102458.25
102366.5
102275.88
102186.9
102099.95
102015.34
101933.33
101854.08
101777.71
101704.29
101633.83
101566.32
101501.7
101439.88
101380.75
101324.17
101270.01
101218.13
101168.35
101120.54
101074.53
101030.14
100987.22
100945.63
100905.27
100866.05
100827.94
100791.01
100755.52
100721.62
100688.97
100657.14
100627.53
100603.95
100586.03
100560.93
100518.67
100496.74
100566.51
100657.03
90928.78
92274.873
92353.441
93562.854
93994.929
94928.971
95658.799
96470.382
97264.787
98053.319
98821.467
99559.872
100258.55
100908.9
101503.95
102038.69
102510.16
102917.45
103261.46
103544.59
103770.41
103943.35
104068.29
104150.39
104194.79
104206.46
104190.11
104150.11
104090.39
104014.53
103925.67
103826.59
103719.69
103607.06
103490.49
103371.49
103251.37
103131.21
103011.9
102894.19
102778.69
102665.88
102556.17
102449.84
102347.12
102248.16
102153.05
102061.85
101974.56
101891.13
101811.5
101735.56
101663.17
101594.19
101528.46
101465.78
101405.99
101348.91
101294.35
101242.13
101192.06
101143.96
101097.65
101053
101009.88
100968.2
100927.93
100889.2
100852.22
100817.01
100783.14
100750.52
100721.18
100698.41
100679.71
100651.9
100610.53
100597.97
100674.67
100753.53
91901.447
93516.019
93676.067
95057.538
95657.639
96706.33
97592.027
98516.174
99409
100268.5
101078.61
101828.2
102507.96
103111.58
103635.72
104079.85
104445.93
104737.85
104960.93
105121.43
105226.05
105281.62
105294.77
105271.81
105218.54
105140.2
105041.49
104926.52
104798.89
104661.69
104517.58
104368.81
104217.28
104064.58
103912.05
103760.78
103611.68
103465.45
103322.7
103183.88
103049.35
102919.36
102794.1
102673.7
102558.21
102447.65
102341.99
102241.18
102145.1
102053.65
101966.66
101883.96
101805.37
101730.68
101659.68
101592.15
101527.9
101466.71
101408.38
101352.71
101299.49
101248.52
101199.62
101152.65
101107.48
101064.03
101022.3
100982.43
100944.56
100908.59
100874.09
100841.41
100812.88
100790.89
100771.15
100741.4
100702.64
100698.69
100776.93
100840.44
93151.62
95105.441
95392.265
96966.451
97782.506
98954.594
99991.08
101012.29
101966.23
102844.15
103632.14
104322.41
104911.24
105399.01
105789.42
106088.71
106304.81
106446.63
106523.4
106544.2
106517.63
106451.6
106353.26
106228.9
106084.01
105923.31
105750.84
105570
105383.66
105194.19
105003.57
104813.42
104625.07
104439.58
104257.83
104080.48
103908.07
103741
103579.57
103423.98
103274.36
103130.79
102993.27
102861.78
102736.26
102616.59
102502.66
102394.31
102291.36
102193.62
102100.88
102012.91
101929.47
101850.32
101775.23
101703.94
101636.24
101571.89
101510.68
101452.38
101396.77
101343.64
101292.82
101244.15
101197.52
101152.87
101110.21
101069.69
101031.36
100995.01
100960.35
100928.11
100900.63
100879.11
100858.07
100827.18
100792.1
100794.64
100868.77
100917.88
94812.42
97185.346
97654.522
99419.593
100486.99
101767.61
102901.92
103953.06
104882.96
105685.29
106355.75
106896.5
107314.14
107618.63
107821.87
107936.64
107975.7
107951.19
107874.25
107754.84
107601.67
107422.22
107222.85
107008.89
106784.79
106554.21
106320.16
106085.09
105850.98
105619.42
105391.68
105168.75
104951.42
104740.27
104535.75
104338.16
104147.73
103964.57
103788.76
103620.27
103459.08
103305.09
103158.19
103018.21
102885.01
102758.38
102638.11
102523.99
102415.79
102313.25
102216.11
102124.1
102036.96
101954.42
101876.21
101802.07
101731.77
101665.05
101601.68
101541.42
101484.04
101429.34
101377.13
101327.27
101279.64
101234.21
101191.03
101150.18
101111.65
101075.17
101040.67
101009.14
100982.62
100961.12
100938.61
100907.27
100876.22
100883.12
100950.19
100987.01
97076.153
99918.378
100632.74
102539.15
103819.75
105148
106262.43
107214.77
107991.84
108599.4
109048.56
109355.22
109537.42
109613.75
109602.03
109518.58
109377.85
109192.31
108972.53
108727.29
108463.83
108188.06
107904.75
107617.72
107330.03
107044.11
106761.85
106484.72
106213.88
105950.18
105694.25
105446.56
105207.42
104977.01
104755.45
104542.75
104338.87
104143.73
103957.2
103779.12
103609.31
103447.57
103293.66
103147.36
103008.42
102876.59
102751.59
102633.16
102521.02
102414.87
102314.43
102219.4
102129.49
102044.4
101963.86
101887.6
101815.36
101746.89
101681.94
101620.24
101561.58
101505.74
101452.56
101401.88
101353.61
101307.73
101264.27
101223.3
101184.71
101148.29
101114.15
101083.4
101057.53
101035.53
101011.6
100980.72
100953.94
100963.15
101020.71
101045.73
100198.37
103420.33
104443.99
106417.61
107739.7
108919.63
109846.47
110545.07
111033.29
111338
111487.37
111509.14
111428.62
111267.98
111046.01
110778.25
110477.37
110153.49
109814.67
109467.24
109116.14
108765.22
108417.41
108074.96
107739.58
107412.51
107094.68
106786.73
106489.1
106202.04
105925.71
105660.13
105405.25
105160.98
104927.14
104703.56
104490
104286.22
104091.96
103906.94
103730.89
103563.51
103404.52
103253.6
103110.47
102974.82
102846.35
102724.74
102609.68
102500.87
102397.98
102300.7
102208.72
102121.74
102039.47
101961.65
101887.99
101818.23
101752.11
101689.36
101629.77
101573.11
101519.23
101467.98
101419.31
101373.18
101329.62
101288.64
101250.09
101213.84
101180.17
101150.09
101124.44
101101.56
101076.52
101046.89
101024.12
101033.29
101078.96
101093.01
104437.75
107875.6
109104.08
110812.33
111950.24
112790.32
113331.54
113629.04
113727.82
113671.32
113496.33
113233.35
112906.84
112536.01
112135.76
111717.44
111289.7
110859.02
110430.22
110006.89
109591.64
109186.34
108792.32
108410.48
108041.4
107685.4
107342.65
107013.15
106696.83
106393.49
106102.93
105824.86
105558.99
105305
105062.55
104831.29
104610.88
104400.95
104201.17
104011.17
103830.6
103659.13
103496.41
103342.1
103195.87
103057.37
102926.29
102802.28
102685.01
102574.16
102469.39
102370.37
102276.8
102188.35
102104.75
102025.71
101950.94
101880.17
101813.13
101749.56
101689.22
101631.91
101577.46
101525.78
101476.79
101430.49
101386.88
101345.92
101307.46
101271.46
101238.25
101208.6
101182.76
101158.85
101133.16
101105.36
101085.75
101091.9
101123.13
101128.5
109723.48
113123.6
114255.06
115394.57
116014.08
116303.1
116326.69
116158.85
115854.12
115455.3
114994.17
114494.16
113972.28
113440.76
112908.33
112381.13
111863.44
111358.21
110867.4
110392.26
109933.52
109491.56
109066.49
108658.22
108266.54
107891.13
107531.62
107187.58
106858.58
106544.15
106243.82
105957.12
105683.58
105422.74
105174.15
104937.37
104711.97
104497.51
104293.6
104099.83
103915.81
103741.16
103575.5
103418.48
103269.74
103128.92
102995.67
102869.65
102750.51
102637.91
102531.51
102430.98
102336
102246.26
102161.46
102081.32
102005.54
101933.85
101865.96
101801.6
101740.54
101682.58
101627.57
101575.42
101526.09
101479.56
101435.83
101394.82
101356.43
101320.65
101287.78
101258.26
101231.91
101207.02
101181.19
101155.21
101137.13
101138.09
101154.64
101153.35
116006.12
118542.45
119161.11
119447.11
119354.55
119025.47
118539.91
117958.97
117323.57
116661.46
115991.06
115324.48
114669.6
114031.39
113412.91
112815.91
112241.27
111689.27
111159.82
110652.55
110166.94
109702.37
109258.15
108833.56
108427.89
108040.42
107670.43
107317.26
106980.23
106658.69
106352.05
106059.71
105781.09
105515.67
105262.91
105022.32
104793.41
104575.73
104368.84
104172.3
103985.71
103808.65
103640.75
103481.62
103330.89
103188.21
103053.21
102925.54
102804.84
102690.78
102583.01
102481.19
102385
102294.14
102208.31
102127.21
102050.55
101978.03
101909.38
101844.32
101782.61
101724.05
101668.51
101615.91
101566.2
101519.4
101475.49
101434.39
101396.04
101360.44
101327.78
101298.17
101271.18
101245.54
101219.99
101195.55
101177.22
101171.08
101175
101170.8
122695.28
123141.75
122924.2
122373.07
121638.24
120810.33
119945.87
119076.89
118222.04
117391.66
116591.23
115823.3
115088.72
114387.3
113718.27
113080.51
112472.75
111893.64
111341.84
110816.01
110314.9
109837.27
109382
108947.99
108534.22
108139.76
107763.69
107405.19
107063.45
106737.75
106427.37
106131.66
105850
105581.8
105326.5
105083.55
104852.47
104632.76
104423.97
104225.64
104037.36
103858.71
103689.3
103528.73
103376.65
103232.67
103096.43
102967.59
102845.78
102730.66
102621.89
102519.13
102422.06
102330.38
102243.78
102161.97
102084.66
102011.54
101942.34
101876.76
101814.56
101755.55
101699.58
101646.58
101596.53
101549.42
101505.26
101464
101425.58
101390.02
101357.36
101327.51
101299.92
101273.7
101248.29
101224.59
101205.29
101193.12
101187.26
101181.22
126602.19
125973.25
125052.6
123994.24
122903.41
121824.47
120780.28
119780.21
118827.75
117923.16
117065.15
116251.69
115480.4
114748.86
114054.66
113395.52
112769.31
112174.05
111607.88
111069.14
110556.25
110067.8
109602.46
109159.03
108736.39
108333.5
107949.41
107583.22
107234.12
106901.31
106584.09
106281.76
105993.7
105719.3
105457.98
105209.22
104972.5
104747.33
104533.25
104329.81
104136.58
103953.15
103779.13
103614.12
103457.76
103309.67
103169.5
103036.88
102911.47
102792.91
102680.86
102574.98
102474.95
102380.45
102291.2
102206.88
102127.2
102051.85
101980.54
101912.97
101848.89
101788.08
101730.4
101675.78
101624.19
101575.64
101530.13
101487.62
101448.09
101411.52
101377.9
101347.06
101318.46
101291.36
101265.5
101241.56
101221.04
101204.88
101193.14
101186.34
103802.48
103776.39
103826.67
103876.94
103914.25
103925.02
103908.17
103879.05
103843.9
103799.43
103741.09
103669.26
103587.96
103502.07
103412.38
103318.96
103222.15
103122.45
103020.3
102916.12
102810.27
102703.13
102595.01
102486.24
102377.09
102267.82
102158.69
102049.91
101941.7
101834.26
101727.79
101622.45
101518.42
101415.88
101314.98
101215.88
101118.75
101023.73
100930.98
100840.66
100752.91
100667.9
100585.77
100506.69
100430.8
100358.25
100289.21
100223.81
100162.2
100104.5
100050.86
100001.37
99956.14
99915.252
99878.764
99846.706
99819.073
99795.825
99776.876
99762.088
99751.265
99744.154
99740.442
99739.792
99741.781
99746.16
99752.277
99760.538
99769.217
99781.019
99790.378
99806.24
99813.733
99832.781
99839.203
99854.605
99873.966
99861.821
99933.485
99857.281
103189.91
103183.53
103196.28
103211.01
103208.54
103199.78
103187.46
103168.48
103137.6
103100.93
103057.39
103008.71
102954.21
102894.96
102831.05
102763.15
102691.48
102616.4
102538.23
102457.27
102373.83
102288.2
102200.67
102111.51
102021.01
101929.43
101837.02
101744.04
101650.73
101557.34
101464.1
101371.23
101278.96
101187.51
101097.08
101007.88
100920.13
100834.01
100749.74
100667.5
100587.48
100509.88
100434.88
100362.67
100293.42
100227.32
100164.54
100105.24
100049.58
99997.705
99949.748
99905.832
99866.059
99830.514
99799.253
99772.304
99749.66
99731.273
99717.052
99706.851
99700.465
99697.633
99698.032
99701.313
99707.053
99714.972
99724.467
99735.832
99747.548
99761.962
99774.11
99792.001
99801.816
99822.397
99830.732
99848.259
99867.551
99859.637
99929.313
99856.016
102777.21
102760.43
102728.89
102695.84
102664.19
102634.67
102600.52
102567.2
102530.33
102493.03
102451.86
102409.37
102363.44
102315.43
102264.47
102211.03
102154.95
102096.37
102035.35
101971.98
101906.4
101838.72
101769.09
101697.67
101624.64
101550.17
101474.45
101397.68
101320.06
101241.8
101163.12
101084.23
101005.36
100926.74
100848.57
100771.1
100694.55
100619.14
100545.1
100472.65
100402
100333.39
100267.02
100203.1
100141.85
100083.47
100028.14
99976.059
99927.395
99882.31
99840.951
99803.448
99769.912
99740.429
99715.059
99693.827
99676.724
99663.701
99654.66
99649.45
99647.861
99649.626
99654.416
99661.873
99671.576
99683.222
99696.243
99710.854
99725.682
99742.83
99757.759
99777.807
99789.831
99812.206
99822.343
99841.924
99861.443
99857.051
99925.028
99854.661
102162.05
102138.64
102109.15
102076.65
102044.28
102015.57
101982.38
101952.2
101917.86
101885.5
101849.7
101814.6
101776.83
101738.62
101698.36
101656.79
101613.46
101568.48
101521.76
101473.28
101423.05
101371.06
101317.37
101262.03
101205.1
101146.68
101086.89
101025.84
100963.68
100900.58
100836.71
100772.24
100707.37
100642.31
100577.27
100512.47
100448.14
100384.51
100321.8
100260.25
100200.1
100141.58
100084.93
100030.38
99978.161
99928.489
99881.578
99837.631
99796.835
99759.366
99725.384
99695.027
99668.413
99645.632
99626.744
99611.775
99600.714
99593.508
99590.055
99590.2
99593.731
99600.375
99609.803
99621.65
99635.497
99651.026
99667.697
99685.66
99703.662
99723.618
99741.315
99763.561
99777.793
99802.25
99813.977
99835.54
99855.553
99854.112
99920.322
99853.228
101418.27
101402.52
101387.01
101368.79
101348.42
101332.45
101310.4
101292.8
101269.7
101249.86
101225.58
101203
101177.31
101151.96
101124.6
101096.36
101066.52
101035.32
101002.63
100968.41
100932.63
100895.28
100856.37
100815.9
100773.92
100730.48
100685.63
100639.47
100592.09
100543.6
100494.15
100443.87
100392.92
100341.49
100289.77
100237.95
100186.24
100134.86
100084.05
100034.03
99985.043
99937.331
99891.136
99846.701
99804.264
99764.058
99726.306
99691.221
99659.003
99629.836
99603.889
99581.308
99562.213
99546.695
99534.814
99526.595
99522.025
99521.045
99523.549
99529.38
99538.322
99550.101
99564.389
99580.818
99598.974
99618.526
99638.958
99660.364
99681.597
99704.405
99724.854
99749.378
99765.863
99792.307
99805.613
99829.287
99849.832
99851.153
99915.848
99851.749
100693.71
100688.11
100684.09
100679.38
100670.36
100666.72
100655.57
100650.43
100638.35
100630.81
100617.67
100607.16
100592.88
100579.48
100563.95
100547.83
100530.13
100511.25
100491.04
100469.48
100446.56
100422.25
100396.55
100369.45
100340.97
100311.12
100279.94
100247.47
100213.79
100178.98
100143.12
100106.34
100068.76
100030.54
99991.821
99952.792
99913.64
99874.565
99835.782
99797.513
99759.988
99723.446
99688.126
99654.27
99622.117
99591.901
99563.849
99538.176
99515.087
99494.772
99477.399
99463.117
99452.044
99444.268
99439.848
99438.803
99441.116
99446.721
99455.508
99467.314
99481.922
99499.059
99518.397
99539.572
99562.177
99585.869
99610.155
99635.075
99659.583
99685.263
99708.437
99735.298
99754.063
99782.214
99797.285
99823.084
99844.22
99848.313
99911.916
99850.291
100042.15
100042.78
100043.99
100047.74
100045.94
100051.07
100047.25
100051.19
100046.76
100048.46
100043.89
100043.48
100038.54
100034.48
100028.06
100021.62
100013.85
100005.24
99995.563
99984.806
99972.935
99959.908
99945.702
99930.299
99913.689
99895.875
99876.87
99856.701
99835.406
99813.041
99789.675
99765.394
99740.301
99714.515
99688.168
99661.414
99634.415
99607.353
99580.421
99553.822
99527.774
99502.498
99478.222
99455.178
99433.595
99413.699
99395.711
99379.843
99366.294
99355.249
99346.875
99341.311
99338.671
99339.037
99342.457
99348.946
99358.475
99370.973
99386.319
99404.346
99424.836
99447.518
99472.066
99498.123
99525.288
99553.212
99581.424
99609.914
99637.727
99666.284
99692.168
99721.308
99742.419
99772.434
99789.061
99816.869
99838.693
99845.436
99908.251
99848.899
99460.161
99465.701
99469.925
99478.578
99480.169
99490.842
99490.984
99500.874
99501.108