/*--------------------------------*- C++ -*----------------------------------*\
  =========                 |
  \\      /  F ield         | OpenFOAM: The Open Source CFD Toolbox
   \\    /   O peration     | Website:  https://openfoam.org
    \\  /    A nd           | Version:  12
     \\/     M anipulation  |
\*---------------------------------------------------------------------------*/
FoamFile
{
    format      ascii;
    class       volScalarField;
    location    "0.057";
    object      T;
}
// * * * * * * * * * * * * * * * * * * * * * * * * * * * * * * * * * * * * * //

dimensions      [0 0 0 1 0 0 0];

internalField   nonuniform List<scalar> 
16000
(
294.66939
286.15258
289.474
287.64648
288.76534
288.24872
288.67399
288.55909
288.75685
288.78964
288.91088
288.99524
289.10053
289.20318
289.31186
289.4239
289.5401
289.66033
289.78465
289.91307
290.04561
290.18223
290.32292
290.4676
290.6162
290.76861
290.92469
291.08428
291.24719
291.41319
291.58203
291.75342
291.92705
292.10259
292.27965
292.45786
292.6368
292.81605
292.99516
293.1737
293.35122
293.52727
293.70142
293.87325
294.04236
294.20837
294.37093
294.52973
294.68448
294.83496
294.98098
295.12237
295.25906
295.39099
295.51818
295.64069
295.75863
295.87219
295.98157
296.08706
296.18896
296.28761
296.38333
296.47638
296.5669
296.6547
296.73923
296.81938
296.89348
296.95909
297.01284
297.05104
297.0719
297.07886
297.08333
297.09938
297.1336
297.22434
297.39249
297.73661
294.36777
285.75086
289.19456
287.29629
288.48146
287.92853
288.38821
288.26504
288.47646
288.51518
288.64321
288.7366
288.84903
288.96055
289.07767
289.19874
289.32414
289.45388
289.58796
289.7264
289.86917
290.01623
290.16751
290.32294
290.48238
290.64569
290.81269
290.98317
291.15689
291.33357
291.5129
291.69454
291.87812
292.06325
292.24949
292.43642
292.62357
292.81047
292.99664
293.1816
293.36489
293.54604
293.72461
293.90017
294.07234
294.24075
294.40508
294.56505
294.72043
294.87101
295.01666
295.15728
295.29282
295.4233
295.54876
295.66932
295.78514
295.89641
296.00339
296.10636
296.20564
296.30157
296.39446
296.48456
296.57195
296.65642
296.73736
296.81362
296.88342
296.94428
296.99294
297.02615
297.0432
297.04909
297.05573
297.07459
297.11856
297.21766
297.4035
297.75362
294.08164
285.38046
288.93605
286.98945
288.21338
287.65002
288.12435
288.00922
288.22548
288.27616
288.40971
288.51378
288.63436
288.75572
288.88249
289.01367
289.14946
289.28986
289.43487
289.58446
289.73859
289.89718
290.06013
290.22731
290.39856
290.57367
290.75242
290.93454
291.11973
291.30764
291.49791
291.69012
291.88385
292.07863
292.27397
292.46937
292.66433
292.85832
293.05083
293.24134
293.42937
293.61444
293.79611
293.97398
294.14766
294.31684
294.48122
294.64059
294.79474
294.94357
295.08697
295.22493
295.35746
295.48462
295.60655
295.72339
295.83536
295.9427
296.04568
296.14462
296.23984
296.33168
296.42043
296.50631
296.58935
296.6693
296.74544
296.81654
296.88075
296.93552
296.97781
297.00505
297.01785
297.02292
297.03192
297.05454
297.1074
297.21737
297.41892
297.77049
293.81955
285.04173
288.71762
286.72266
287.97948
287.40583
287.89511
287.78974
288.01136
288.07556
288.21564
288.33163
288.46172
288.59411
288.73181
288.87432
289.0217
289.17393
289.33099
289.49282
289.65934
289.83044
290.00597
290.18575
290.36957
290.55718
290.74827
290.94252
291.13954
291.33893
291.54023
291.74296
291.94661
292.15065
292.35452
292.55765
292.7595
292.95949
293.15707
293.35172
293.54293
293.73024
293.91323
294.09151
294.26475
294.43269
294.59509
294.75179
294.90268
295.04772
295.18688
295.32023
295.44784
295.56987
295.68648
295.79791
295.9044
296.00625
296.10376
296.19726
296.28707
296.37354
296.45693
296.53743
296.61501
296.68936
296.75968
296.82466
296.88237
296.93029
296.96571
296.9869
296.99589
297.0008
297.01224
297.03905
297.10079
297.2221
297.43627
297.78473
293.58265
284.74019
288.51224
286.49953
287.7923
287.20514
287.70531
287.61388
287.83986
287.91986
288.06722
288.19641
288.33733
288.48185
288.63168
288.78664
288.9467
289.11185
289.28203
289.45715
289.63709
289.82169
290.01076
290.20405
290.40127
290.6021
290.80616
291.01303
291.22223
291.43327
291.64561
291.85867
292.07185
292.28454
292.49613
292.70599
292.9135
293.11807
293.31914
293.51617
293.70867
293.8962
294.07838
294.25489
294.42545
294.58988
294.74802
294.8998
295.04521
295.18428
295.3171
295.44379
295.56453
295.67953
295.78905
295.89335
295.99276
296.0876
296.17819
296.26488
296.348
296.42788
296.50476
296.57877
296.64985
296.71758
296.7811
296.839
296.88931
296.92963
296.95771
296.9729
296.97866
296.98373
296.99729
297.02891
297.10001
297.23178
297.45454
297.79737
293.37474
284.483
288.3438
286.31449
287.63127
287.05438
287.56603
287.48745
287.71914
287.81457
287.96999
288.11308
288.26592
288.42344
288.58644
288.75491
288.92879
289.10803
289.29253
289.48215
289.6767
289.87597
290.07967
290.28746
290.49898
290.71379
290.9314
291.15129
291.37287
291.59554
291.81865
292.04152
292.26348
292.48383
292.70189
292.91697
293.12845
293.3357
293.53817
293.73535
293.92678
294.11208
294.29094
294.46313
294.62846
294.78684
294.93823
295.08267
295.22025
295.3511
295.47541
295.5934
295.70533
295.8115
295.9122
296.00779
296.09862
296.18503
296.26739
296.34604
296.42132
296.49351
296.56285
296.62941
296.69304
296.75326
296.80912
296.85913
296.90133
296.93355
296.95416
296.96369
296.96714
296.97233
296.98754
297.02493
297.10494
297.24493
297.47205
297.80873
293.19796
284.27109
288.20845
286.16652
287.50471
286.95399
287.46012
287.41091
287.64172
287.7606
287.9251
288.08289
288.24912
288.42097
288.5987
288.78229
288.97166
289.16666
289.36714
289.57288
289.78359
289.99895
290.21858
290.44202
290.66878
290.89829
291.12994
291.36308
291.59699
291.83094
292.06418
292.29593
292.52542
292.7519
292.97462
293.19289
293.40606
293.61352
293.81477
294.00934
294.19686
294.37705
294.5497
294.71468
294.87195
295.02154
295.16354
295.29811
295.42545
295.54581
295.65949
295.7668
295.86808
295.96369
296.054
296.13941
296.2203
296.29705
296.37002
296.43957
296.506
296.56958
296.63049
296.68876
296.74415
296.79611
296.84359
296.88507
296.91867
296.94256
296.95582
296.96019
296.9619
296.96682
296.98407
297.02826
297.11488
297.25986
297.4877
297.81935
293.04925
284.10174
288.10318
286.05368
287.41009
286.88244
287.39643
287.35651
287.61795
287.7561
287.93245
288.10692
288.2891
288.47764
288.67247
288.87352
289.08063
289.29358
289.51211
289.73589
289.96452
290.19755
290.43445
290.67464
290.91745
291.16218
291.40806
291.65429
291.90001
292.14438
292.38651
292.62555
292.86066
293.09103
293.3159
293.53459
293.74647
293.95102
294.1478
294.33646
294.51675
294.68851
294.8517
295.00633
295.15251
295.29043
295.42031
295.54245
295.65719
295.76489
295.86593
295.96071
296.04966
296.1332
296.21175
296.28572
296.35554
296.42159
296.48423
296.5438
296.60058
296.65481
296.70659
296.75591
296.80245
296.84556
296.88414
296.91668
296.94146
296.95708
296.9634
296.96283
296.96088
296.96696
296.98831
297.03856
297.12897
297.27542
297.50142
297.82929
292.92333
283.97303
288.03184
285.97689
287.36569
286.88491
287.39346
287.41431
287.64422
287.80577
287.99758
288.19132
288.39247
288.60047
288.81512
289.03626
289.26361
289.49687
289.73564
289.97945
290.22775
290.47993
290.73528
290.99304
291.25236
291.51237
291.77212
292.03064
292.28696
292.54008
292.78905
293.03293
293.27084
293.50198
293.72562
293.94114
294.148
294.34581
294.53425
294.71315
294.88242
295.04211
295.19232
295.33328
295.46526
295.58861
295.70371
295.811
295.91093
296.00396
296.09057
296.17124
296.24644
296.31665
296.38231
296.44387
296.50174
296.5563
296.60791
296.65687
296.70343
296.74777
296.78994
296.82985
296.86711
296.90101
296.9304
296.95386
296.96989
296.97757
296.97753
296.97311
296.97047
296.97696
297.00136
297.05432
297.14679
297.29161
297.51422
297.8381
292.82023
283.88801
288.00008
285.95566
287.37623
286.93538
287.43384
287.48528
287.73111
287.91881
288.12966
288.34523
288.56835
288.7987
289.036
289.27995
289.53015
289.78612
290.0473
290.31303
290.58256
290.85507
291.12963
291.40527
291.68092
291.95552
292.22792
292.49702
292.76169
293.02086
293.27349
293.51865
293.75548
293.98323
294.20128
294.40914
294.60644
294.79298
294.96865
295.1335
295.28767
295.43141
295.56506
295.68903
295.80379
295.90983
296.00771
296.09797
296.18116
296.25785
296.32858
296.39387
296.45425
296.5102
296.56219
296.61065
296.65599
296.69857
296.73872
296.7767
296.8127
296.84686
296.87916
296.90942
296.9372
296.96175
296.98193
296.99644
297.00408
297.00442
296.99873
296.99089
296.98722
296.99493
297.02114
297.07507
297.16846
297.30937
297.52721
297.84568
292.74458
283.85588
288.01443
286.0553
287.44483
287.04404
287.53622
287.63278
287.88787
288.1037
288.33761
288.57813
288.82653
289.08245
289.34549
289.61516
289.89089
290.17196
290.45759
290.74687
291.0388
291.33226
291.6261
291.91907
292.2099
292.49728
292.77992
293.05656
293.32601
293.58713
293.83892
294.08049
294.3111
294.53015
294.73723
294.93207
295.11457
295.28477
295.44286
295.58914
295.72402
295.848
295.96163
296.06553
296.16034
296.24671
296.3253
296.39677
296.46175
296.52085
296.57466
296.62374
296.6686
296.70975
296.74763
296.78266
296.81522
296.84563
296.87417
296.90106
296.92644
296.95036
296.97275
296.99336
297.01171
297.02703
297.03825
297.04423
297.04408
297.03784
297.0273
297.01659
297.01165
297.01886
297.04562
297.10161
297.19426
297.32972
297.54125
297.85265
292.70258
283.88861
288.08308
286.1941
287.55818
287.22431
287.70916
287.85155
288.12355
288.37008
288.63149
288.90065
289.17805
289.4631
289.75523
290.05368
290.35761
290.66602
290.9778
291.29172
291.60645
291.92058
292.23263
292.54109
292.84446
293.14126
293.43005
293.70951
293.97844
294.23578
294.48063
294.71229
294.93026
295.13423
295.32408
295.49988
295.66186
295.81041
295.94602
296.06931
296.18095
296.28169
296.37228
296.45352
296.52619
296.59106
296.64887
296.70035
296.74617
296.78696
296.82332
296.8558
296.88491
296.91112
296.93484
296.95646
296.9763
296.99465
297.01173
297.02769
297.04261
297.05649
297.06918
297.08038
297.08959
297.09606
297.09883
297.09695
297.08983
297.07787
297.06321
297.05004
297.04383
297.05062
297.07783
297.13413
297.22425
297.35324
297.55735
297.85983
292.69837
283.99152
288.21561
286.39545
287.73926
287.48076
287.96166
288.15352
288.44834
288.72897
289.02279
289.32498
289.6356
289.95373
290.27849
290.60879
290.94337
291.28085
291.61971
291.95834
292.295
292.62794
292.95539
293.27558
293.58682
293.88753
294.17625
294.45171
294.71284
294.9588
295.18899
295.40306
295.60088
295.78255
295.94839
296.09886
296.23462
296.35639
296.46503
296.56141
296.64648
296.72117
296.78642
296.84314
296.89221
296.93447
296.9707
297.00164
297.02796
297.05028
297.06918
297.08517
297.09872
297.11026
297.12014
297.1287
297.13622
297.1429
297.14891
297.15436
297.15924
297.1635
297.16693
297.1692
297.1698
297.16804
297.1631
297.15423
297.14108
297.12432
297.10626
297.09092
297.08333
297.08938
297.11667
297.17249
297.2585
297.38011
297.57643
297.86827
292.73403
284.1725
288.4169
286.67932
287.99529
287.82221
288.30437
288.54897
288.87438
289.19374
289.52555
289.86589
290.21445
290.56983
290.93068
291.29543
291.66231
292.02945
292.39482
292.75637
293.11197
293.45953
293.79701
294.1225
294.43424
294.73068
295.01055
295.27284
295.51683
295.74212
295.94859
296.13641
296.306
296.45796
296.5931
296.71235
296.81674
296.90737
296.98537
297.05187
297.10799
297.15481
297.19337
297.22463
297.24952
297.26887
297.28345
297.29398
297.30109
297.30535
297.30729
297.30736
297.30597
297.30347
297.30017
297.29634
297.29218
297.28784
297.28344
297.27899
297.27446
297.26973
297.26455
297.25858
297.25132
297.24217
297.23045
297.21558
297.19741
297.17679
297.15603
297.13883
297.12984
297.13503
297.16215
297.21661
297.29709
297.41078
297.59941
297.87839
292.81456
284.4449
288.69036
287.0521
288.33937
288.2603
288.75124
289.05278
289.41747
289.78163
290.1577
290.54183
290.93309
291.3295
291.72907
292.12957
292.52865
292.92383
293.31258
293.69238
294.06074
294.41535
294.75405
295.07497
295.37655
295.65758
295.91722
296.15502
296.37091
296.56512
296.73823
296.89106
297.02461
297.14007
297.23872
297.32191
297.39102
297.44742
297.49243
297.52735
297.55338
297.57166
297.58325
297.5891
297.59011
297.58706
297.58067
297.57157
297.56034
297.54747
297.53339
297.51851
297.50313
297.48756
297.47202
297.4567
297.44175
297.42726
297.41326
297.39975
297.38662
297.3737
297.36075
297.34741
297.33323
297.31769
297.30023
297.28042
297.25827
297.23472
297.21194
297.19326
297.18303
297.18744
297.2142
297.2665
297.34011
297.44557
297.62682
297.89003
292.94423
284.82705
289.03177
287.52696
288.78498
288.81039
289.32063
289.68497
290.09871
290.51486
290.94169
291.37491
291.81276
292.2525
292.69135
293.12633
293.55439
293.97245
294.37746
294.76657
295.13711
295.48679
295.81369
296.11637
296.39385
296.64564
296.87173
297.07253
297.24879
297.40161
297.53231
297.64239
297.73345
297.80717
297.86522
297.90926
297.94088
297.96159
297.97283
297.9759
297.97202
297.96229
297.9477
297.92914
297.90741
297.8832
297.85714
297.82977
297.80154
297.77287
297.74411
297.71555
297.68744
297.65998
297.63334
297.60764
297.58295
297.55932
297.53672
297.51509
297.49431
297.47417
297.45442
297.43471
297.41465
297.3938
297.3717
297.34803
297.32293
297.29734
297.27326
297.25358
297.24246
297.24635
297.27247
297.32179
297.38838
297.4852
297.65793
297.90248
293.12774
285.34878
289.45042
288.12233
289.35367
289.49597
290.0385
290.47274
290.94524
291.42045
291.90353
292.38952
292.87555
293.35795
293.83298
294.29683
294.74572
295.17606
295.58454
295.9683
296.32499
296.65285
296.95077
297.21826
297.4554
297.66284
297.84166
297.99331
298.11952
298.22221
298.30341
298.36519
298.4096
298.43864
298.45421
298.4581
298.45197
298.43734
298.41559
298.38798
298.3556
298.31946
298.28042
298.23925
298.19661
298.15308
298.10915
298.06525
298.02174
297.97891
297.93702
297.89629
297.85686
297.81888
297.78243
297.74756
297.71431
297.68264
297.65251
297.62382
297.59642
297.5701
297.54459
297.5196
297.49477
297.46971
297.44405
297.41758
297.3905
297.36374
297.33903
297.31891
297.30747
297.31118
297.33631
297.3818
297.44145
297.53011
297.6934
297.91632
293.37692
286.05733
289.98841
288.86941
290.07633
290.34832
290.93743
291.44846
291.98814
292.52807
293.07063
293.60989
294.14155
294.66075
295.16272
295.64289
296.09706
296.52163
296.91368
297.27109
297.5926
297.87773
298.12681
298.34082
298.5213
298.6702
298.78982
298.88262
298.95117
298.99804
299.02574
299.03669
299.03315
299.01722
298.99083
298.95572
298.91347
298.86547
298.81295
298.757
298.69857
298.63847
298.57742
298.51601
298.45478
298.39414
298.33447
298.27607
298.21918
298.16401
298.11071
298.0594
298.01018
297.9631
297.91818
297.87542
297.83481
297.79628
297.75974
297.72508
297.69213
297.66069
297.6305
297.6013
297.57277
297.54458
297.51641
297.48811
297.45996
297.4328
297.4081
297.38815
297.37697
297.3808
297.40444
297.44515
297.49805
297.58114
297.73514
297.93223
293.71865
286.93682
290.67279
289.80529
290.99069
291.40227
292.05376
292.64827
293.26153
293.86902
294.46985
295.05675
295.62376
296.16493
296.67484
297.14888
297.58339
297.97583
298.32477
298.62988
298.89183
299.11213
299.29298
299.43705
299.54738
299.62715
299.67962
299.708
299.71537
299.70462
299.67845
299.63931
299.58942
299.53077
299.46512
299.39402
299.31882
299.2407
299.16067
299.0796
298.99822
298.91717
298.83697
298.75806
298.6808
298.60548
298.53234
298.46157
298.3933
298.32764
298.26467
298.20442
298.14693
298.09217
298.04012
297.99075
297.94398
297.89973
297.8579
297.81835
297.7809
297.74537
297.71153
297.67913
297.6479
297.61754
297.58779
297.55855
297.53013
297.50325
297.47916
297.45995
297.44958
297.45367
297.47532
297.51067
297.55734
297.63647
297.7819
297.95052
294.19287
287.92847
291.54612
290.96612
292.14105
292.69999
293.43064
294.11432
294.80274
295.47327
296.12129
296.73826
297.3172
297.8521
298.33832
298.7728
299.154
299.48188
299.75769
299.98373
300.16315
300.29964
300.39722
300.46005
300.49226
300.49786
300.4806
300.44396
300.39112
300.32493
300.24794
300.16236
300.07017
299.97305
299.87247
299.76968
299.66574
299.56157
299.4579
299.35538
299.25453
299.15578
299.05947
298.96587
298.87521
298.78765
298.70331
298.62226
298.54455
298.47022
298.39925
298.33162
298.2673
298.20623
298.14833
298.09354
298.04177
297.9929
297.94682
297.90339
297.86244
297.82378
297.78721
297.75251
297.71945
297.68776
297.65723
297.62782
297.59981
297.57382
297.55085
297.53291
297.52378
297.52814
297.54732
297.57699
297.61781
297.69319
297.82891
297.96839
294.8556
289.2059
292.65649
292.40417
293.5886
294.29999
295.12089
295.89132
296.64331
297.35596
298.02198
298.63303
299.18327
299.669
300.08867
300.44277
300.73349
300.96437
301.13989
301.26517
301.34559
301.38659
301.39342
301.37106
301.3241
301.2567
301.17258
301.07503
300.9669
300.8507
300.72855
300.60229
300.47347
300.34339
300.21315
300.08367
299.95569
299.82984
299.70662
299.58643
299.4696
299.35636
299.2469
299.14136
299.03981
298.94232
298.8489
298.75954
298.67421
298.59287
298.51545
298.44187
298.37206
298.30591
298.24334
298.18423
298.1285
298.07601
298.02664
297.98025
297.93667
297.89572
297.85723
297.82101
297.78684
297.75452
297.72389
297.69495
297.66794
297.64333
297.62197
297.60576
297.59812
297.60257
297.61884
297.64269
297.67758
297.74767
297.8711
297.98369
295.76418
290.83018
294.09023
294.19906
295.41238
296.2698
297.17209
298.00478
298.78373
299.492
300.1232
300.67265
301.13904
301.52382
301.83066
302.06498
302.23324
302.34256
302.40019
302.41323
302.38839
302.33187
302.24922
302.1454
302.02473
301.89094
301.74725
301.59637
301.4406
301.28187
301.1218
300.9617
300.80268
300.64563
300.49129
300.34022
300.19291
300.04969
299.91085
299.77659
299.64705
299.52232
299.40245
299.28745
299.1773
299.07196
298.97137
298.87545
298.7841
298.69724
298.61473
298.53647
298.46234
298.39221
298.32598
298.26353
298.20475
298.14951
298.09768
298.04912
298.00366
297.96115
297.92142
297.88431
297.84964
297.81727
297.7871
297.75916
297.73363
297.71082
297.69146
297.67726
297.67114
297.67531
297.68827
297.70636
297.73513
297.79747
297.90522
297.99622
296.9005
292.92607
295.95296
296.43478
297.67874
298.65306
299.59101
300.42524
301.16208
301.79285
302.31752
302.73906
303.06362
303.29941
303.4559
303.54302
303.5706
303.54799
303.48374
303.38555
303.26013
303.11332
302.95009
302.77463
302.59047
302.40051
302.20719
302.01248
301.818
301.62506
301.43472
301.24781
301.06502
300.88684
300.71368
300.54584
300.38352
300.22686
300.07596
299.93084
299.7915
299.65791
299.53001
299.40772
299.29094
299.17955
299.07343
298.97244
298.87645
298.78532
298.69888
298.61701
298.53955
298.46637
298.39735
298.33236
298.27129
298.21402
298.16041
298.11033
298.06363
298.02014
297.97974
297.94227
297.90762
297.87568
297.84642
297.81989
297.79617
297.77543
297.75824
297.74611
297.74122
297.74458
297.75391
297.76649
297.78923
297.84261
297.93345
298.00549
298.44206
295.60626
298.33993
299.16421
300.38227
301.41785
302.30139
303.03884
303.6392
304.10646
304.45114
304.68581
304.82441
304.88104
304.86915
304.80109
304.6878
304.5388
304.36217
304.16471
303.95205
303.72882
303.49877
303.26498
303.0299
302.79549
302.56331
302.33461
302.11034
301.89124
301.67789
301.47069
301.26996
301.07589
300.88861
300.70819
300.53463
300.36791
300.20797
300.05471
299.90802
299.76778
299.63385
299.50607
299.38428
299.26832
299.15802
299.05319
298.95368
298.8593
298.76988
298.68526
298.60527
298.52978
298.45866
298.39177
298.32903
298.27029
298.21544
298.16435
298.11688
298.07289
298.03226
297.99487
297.96065
297.92953
297.90152
297.87663
297.85485
297.83622
297.82116
297.81085
297.80672
297.80875
297.81442
297.8222
297.83965
297.88399
297.95761
298.0114
300.42985
298.94059
301.24581
302.36121
303.54874
304.41534
305.12305
305.65035
306.01976
306.24994
306.36225
306.37702
306.31299
306.18663
306.01199
305.80082
305.56275
305.30557
305.03553
304.75758
304.47564
304.19278
303.91139
303.63333
303.36001
303.0925
302.83162
302.57794
302.33189
302.09374
301.86367
301.64176
301.42804
301.22246
301.02495
300.83541
300.6537
300.47966
300.31313
300.15392
300.00184
299.85671
299.71832
299.58648
299.46097
299.34161
299.22817
299.12047
299.01831
298.92148
298.8298
298.7431
298.6612
298.58396
298.51125
298.44295
298.37896
298.31917
298.26346
298.21171
298.16381
298.11964
298.0791
298.0421
298.00858
297.97853
297.95192
297.92871
297.9088
297.89214
297.879
297.87016
297.86632
297.86674
297.86911
297.87304
297.88592
297.92099
297.97706
298.01417
302.89336
302.91164
304.92138
305.8959
306.79094
307.40204
307.80773
308.02948
308.10387
308.06077
307.92711
307.7252
307.47317
307.18544
306.87329
306.54547
306.20869
305.86805
305.52741
305.18968
304.85702
304.53102
304.21283
303.90328
303.60293
303.31214
303.03113
302.75999
302.49872
302.24727
302.00553
301.77333
301.5505
301.33684
301.13212
300.93612
300.7486
300.56932
300.39805
300.23453
300.07853
299.9298
299.78812
299.65325
299.52496
299.40302
299.28721
299.17732
299.07311
298.97439
298.88096
298.79262
298.70922
298.6306
298.55664
298.48723
298.42226
298.36164
298.30527
298.25305
298.20488
298.16068
298.12035
298.08385
298.05113
298.02217
297.99692
297.97528
297.95707
297.94218
297.93073
297.92308
297.91927
297.91814
297.91778
297.91867
297.92719
297.95253
297.99158
298.01492
305.97552
307.36163
308.68789
309.3883
309.86437
310.07157
310.09231
309.96861
309.74128
309.44079
309.09066
308.70839
308.30689
307.8956
307.48135
307.06905
306.66221
306.26329
305.874
305.49549
305.1285
304.77348
304.43065
304.10007
303.78169
303.47537
303.18092
302.89809
302.62661
302.36619
302.11652
301.87729
301.6482
301.42892
301.21915
301.01858
300.82691
300.64384
300.46909
300.30238
300.14343
299.99198
299.84777
299.71054
299.58005
299.45607
299.33835
299.22666
299.12078
299.02049
298.92559
298.83587
298.75118
298.67137
298.59631
298.5259
298.46004
298.39865
298.34165
298.28896
298.2405
298.1962
298.15601
298.11988
298.08781
298.05975
298.03565
298.01536
297.99867
297.98537
297.97541
297.96875
297.96489
297.9625
297.96014
297.9586
297.96275
297.97826
298.00128
298.01133
309.94733
311.72452
312.25975
312.44227
312.38312
312.1443
311.78808
311.35699
310.88124
310.38156
309.87204
309.36215
308.85819
308.3643
307.88313
307.41633
306.96483
306.52911
306.10931
305.70536
305.31701
304.94397
304.58582
304.24216
303.91253
303.59648
303.29355
303.0033
302.72527
302.45905
302.2042
301.96032
301.72702
301.50392
301.29065
301.08687
300.89224
300.70642
300.52911
300.36
300.1988
300.04524
299.89904
299.75994
299.62768
299.50202
299.38271
299.26952
299.16221
299.06057
298.96438
298.87345
298.7876
298.7067
298.63061
298.55924
298.4925
298.43032
298.37263
298.31937
298.27048
298.22592
298.18564
298.14964
298.1179
298.0904
298.06709
298.04782
298.03234
298.02037
298.01165
298.00578
298.00196
297.99884
297.99531
297.99194
297.99164
297.99734
298.00639
298.00816
314.9262
315.28495
315.00445
314.62891
314.09891
313.49875
312.86378
312.21963
311.58045
310.95483
310.34753
309.76113
309.19679
308.65484
308.13509
307.63706
307.16009
306.70342
306.26626
305.84782
305.44728
305.0639
304.69693
304.34567
304.00945
303.68763
303.37963
303.08486
302.80279
302.53291
302.27475
302.02783
301.79173
301.56603
301.35034
301.14428
300.9475
300.75965
300.58041
300.40946
300.24651
300.09126
299.94345
299.80281
299.66907
299.54199
299.42132
299.30683
299.19828
299.09544
298.9981
298.90606
298.81915
298.73722
298.66015
298.58783
298.52019
298.45716
298.39869
298.34474
298.29525
298.2502
298.20956
298.17332
298.14146
298.11399
298.09087
298.07196
298.05708
298.04592
298.03802
298.03275
298.02906
298.02562
298.02143
298.01673
298.01276
298.01073
298.0097
298.00569
316.9257
317.087
316.49792
315.72713
314.93912
314.15077
313.38202
312.64046
311.92947
311.25
310.60172
309.98365
309.39451
308.83287
308.29729
307.78638
307.29877
306.83323
306.38855
305.96365
305.55751
305.16918
304.79779
304.44254
304.10266
303.77746
303.46629
303.16854
302.88363
302.61104
302.35025
302.1008
301.86223
301.63413
301.41609
301.20773
301.0087
300.81864
300.63724
300.46417
300.29915
300.14188
299.99209
299.84952
299.71391
299.58501
299.46259
299.3464
299.23622
299.1318
299.03295
298.93945
298.85113
298.76783
298.68943
298.61583
298.54696
298.48274
298.42312
298.36808
298.31756
298.27155
298.23001
298.19292
298.16025
298.13199
298.10811
298.08859
298.07329
298.06193
298.05399
298.04867
298.04497
298.04149
298.03673
298.0313
298.02518
298.01858
298.01153
298.00415
310.32126
309.06899
305.44665
302.60788
301.3365
301.04255
300.97043
300.96619
300.85527
300.79748
300.69023
300.6215
300.53201
300.44792
300.36168
300.27428
300.18614
300.09726
300.00765
299.91738
299.82652
299.7352
299.64353
299.55165
299.4597
299.3678
299.27611
299.18474
299.09382
299.0035
298.9139
298.82513
298.73732
298.6506
298.56508
298.48088
298.39814
298.31696
298.23747
298.15979
298.08404
298.01033
297.93878
297.86951
297.80261
297.73821
297.67639
297.61725
297.56087
297.50733
297.4567
297.40903
297.36439
297.32283
297.28443
297.24924
297.21734
297.18883
297.16379
297.14232
297.12462
297.11084
297.10121
297.0961
297.09606
297.10202
297.11504
297.13731
297.17006
297.21766
297.27856
297.3584
297.44408
297.53857
297.6164
297.66592
297.70205
297.64969
297.70286
297.57171
309.54477
306.66115
302.57399
300.55177
299.98125
299.97778
300.07576
300.08643
300.08011
300.05349
300.02943
299.99062
299.94726
299.89798
299.84503
299.78855
299.72876
299.66589
299.60027
299.53223
299.46204
299.38997
299.31628
299.24121
299.16498
299.08781
299.00991
298.93147
298.8527
298.77377
298.69486
298.61616
298.53784
298.46005
298.38298
298.30678
298.23161
298.15764
298.08501
298.01389
297.94441
297.87674
297.811
297.74733
297.68587
297.62675
297.57007
297.51594
297.46447
297.41573
297.36981
297.32678
297.28671
297.24967
297.21573
297.18496
297.15746
297.13331
297.1126
297.09546
297.08205
297.07255
297.06719
297.06635
297.07058
297.08084
297.09818
297.12472
297.16172
297.21309
297.27724
297.3586
297.44407
297.53607
297.60996
297.65473
297.68571
297.6325
297.68232
297.56409
308.15195
304.62796
301.61595
299.92182
299.58963
299.62722
299.6585
299.6315
299.60159
299.56762
299.53415
299.49788
299.45979
299.41909
299.37631
299.33111
299.28372
299.23416
299.18253
299.12891
299.0734
299.01611
298.95716
298.89668
298.83481
298.77168
298.70746
298.6423
298.57636
298.5098
298.44279
298.37551
298.30814
298.24084
298.17379
298.10718
298.04118
297.97598
297.91174
297.84865
297.78688
297.7266
297.66797
297.61115
297.55629
297.50355
297.45305
297.40492
297.35927
297.3162
297.27581
297.23817
297.20338
297.17151
297.14265
297.11688
297.0943
297.07499
297.05905
297.0466
297.03782
297.03289
297.03204
297.03567
297.04435
297.05902
297.08077
297.1116
297.15277
297.20778
297.27485
297.35745
297.44237
297.53198
297.60194
297.64288
297.66878
297.61416
297.66101
297.55721
307.00125
303.22239
300.42038
299.15313
299.10536
299.11949
299.13392
299.09785
299.07824
299.04854
299.02345
298.9936
298.96344
298.93138
298.89826
298.86353
298.82735
298.7896
298.75026
298.70934
298.66684
298.62279
298.57722
298.53018
298.48175
298.43199
298.381
298.32888
298.27575
298.22174
298.16699
298.11163
298.05583
297.99975
297.94355
297.88742
297.83154
297.77608
297.72123
297.66718
297.61412
297.56223
297.51168
297.46266
297.41534
297.36987
297.32641
297.2851
297.24606
297.2094
297.17525
297.14369
297.11482
297.08873
297.06551
297.04525
297.02807
297.01404
297.00326
296.99586
296.99202
296.99193
296.99583
297.00414
297.01745
297.03668
297.06293
297.09812
297.14341
297.20195
297.27168
297.3553
297.43942
297.52669
297.59267
297.63142
297.65123
297.59507
297.63911
297.5511
306.32952
302.02366
299.45683
298.51719
298.59166
298.56588
298.59017
298.55449
298.54678
298.52251
298.50644
298.48445
298.46347
298.44082
298.41762
298.39315
298.36758
298.34079
298.31274
298.28339
298.25272
298.2207
298.18733
298.15262
298.11659
298.07927
298.04072
298.00098
297.96015
297.91831
297.87556
297.83202
297.78782
297.74309
297.69799
297.65267
297.60731
297.56208
297.51716
297.47275
297.42902
297.38617
297.34438
297.30384
297.26474
297.22723
297.19148
297.15765
297.12587
297.09626
297.06895
297.04405
297.02165
297.00187
296.98479
296.97052
296.95916
296.9508
296.94554
296.94351
296.94489
296.94988
296.95875
296.97191
296.98999
297.0139
297.04472
297.08426
297.13361
297.1955
297.26762
297.35203
297.43519
297.52006
297.58211
297.62129
297.63289
297.57548
297.61715
297.54581
305.7542
300.83882
298.64979
297.90673
298.04989
297.99641
298.04029
298.00603
298.01304
297.99604
297.99113
297.97827
297.96727
297.95438
297.94115
297.92676
297.91139
297.89494
297.87738
297.85867
297.8388
297.81773
297.79545
297.77195
297.74724
297.72132
297.69423
297.66598
297.63664
297.60626
297.57492
297.5427
297.50971
297.47606
297.44188
297.4073
297.37249
297.3376
297.3028
297.26826
297.23418
297.20074
297.16813
297.13652
297.10611
297.07706
297.04954
297.0237
296.99969
296.97764
296.95769
296.93994
296.9245
296.91148
296.90098
296.8931
296.88795
296.88561
296.88617
296.88978
296.89663
296.90691
296.92093
296.93911
296.96208
296.99075
297.02619
297.07007
297.12338
297.18845
297.26268
297.34765
297.42976
297.51215
297.57035
297.61194
297.61367
297.55555
297.59531
297.54143
305.18015
299.80094
297.99751
297.35298
297.54042
297.46261
297.52531
297.49013
297.50913
297.49703
297.50102
297.49563
297.49257
297.4875
297.48232
297.47621
297.46931
297.46155
297.4529
297.4433
297.43274
297.42118
297.40858
297.39494
297.38024
297.36448
297.34766
297.32979
297.3109
297.29104
297.27024
297.24859
297.22614
297.203
297.17928
297.15508
297.13055
297.10582
297.08105
297.0564
297.03205
297.00816
296.98492
296.9625
296.94107
296.92081
296.90187
296.88441
296.86857
296.85449
296.8423
296.8321
296.82402
296.81815
296.8146
296.81347
296.81485
296.81882
296.82549
296.83498
296.84749
296.86325
296.88256
296.90589
296.93385
296.96734
297.00741
297.0556
297.11274
297.18079
297.25687
297.34215
297.42317
297.50317
297.55748
297.59715
297.59349
297.53533
297.57377
297.53802
304.71066
298.84908
297.445
296.84659
297.07095
296.96922
297.04984