/*--------------------------------*- C++ -*----------------------------------*\
  =========                 |
  \\      /  F ield         | OpenFOAM: The Open Source CFD Toolbox
   \\    /   O peration     | Website:  https://openfoam.org
    \\  /    A nd           | Version:  12
     \\/     M anipulation  |
\*---------------------------------------------------------------------------*/
FoamFile
{
    format      ascii;
    class       volScalarField;
    location    "0.088";
    object      Ma;
}
// * * * * * * * * * * * * * * * * * * * * * * * * * * * * * * * * * * * * * //

dimensions      [];

internalField   nonuniform List<scalar> 
16000
(
0.62285688
0.73998804
0.69522558
0.71977104
0.70481204
0.71170164
0.7060221
0.70753513
0.70489527
0.7044552
0.70283855
0.70170949
0.70030199
0.69892875
0.69747384
0.69597284
0.69441464
0.6928008
0.69113014
0.68940221
0.68761667
0.68577343
0.68387262
0.6819147
0.67990042
0.67783085
0.67570745
0.67353206
0.67130691
0.66903466
0.66671839
0.66436161
0.66196824
0.65954264
0.65708955
0.65461408
0.65212167
0.64961805
0.64710921
0.6446013
0.64210059
0.63961342
0.63714609
0.6347048
0.63229559
0.62992424
0.62759626
0.62531676
0.62309047
0.62092163
0.61881399
0.61677078
0.61479465
0.61288772
0.61105154
0.6092872
0.6075953
0.60597605
0.6044292
0.60295386
0.60154838
0.6002104
0.59893637
0.59772101
0.59655728
0.59543654
0.59434907
0.59328526
0.59223693
0.59119853
0.59016682
0.58913898
0.58810955
0.58706645
0.58599124
0.58487667
0.58369652
0.58236602
0.58107389
0.57968682
0.62734321
0.74521403
0.69881536
0.72441941
0.70864883
0.71599312
0.70987722
0.71150375
0.70868665
0.70817311
0.70647093
0.70522671
0.70372879
0.70224211
0.70067937
0.69906258
0.69738602
0.69564957
0.69385267
0.69199493
0.69007628
0.68809688
0.68605723
0.68395816
0.68180087
0.67958696
0.67731843
0.67499772
0.67262773
0.6702118
0.66775374
0.66525781
0.66272871
0.66017156
0.65759189
0.65499553
0.65238866
0.64977766
0.6471691
0.64456965
0.64198599
0.63942475
0.63689241
0.63439524
0.6319392
0.6295299
0.62717251
0.62487177
0.62263187
0.62045647
0.61834866
0.61631094
0.61434525
0.61245292
0.6106348
0.60889121
0.60722204
0.60562683
0.60410471
0.60265427
0.6012734
0.59995934
0.59870831
0.597515
0.5963725
0.59527234
0.59420495
0.59316063
0.5921309
0.59110968
0.59009342
0.58907935
0.58806173
0.58702676
0.58595643
0.58484197
0.583647
0.58230802
0.58103706
0.57952964
0.63154328
0.75000482
0.70238194
0.72848905
0.71226546
0.71971184
0.71343807
0.71495513
0.71208332
0.71141398
0.70964441
0.70826316
0.70666179
0.7050492
0.70336285
0.70161603
0.69980556
0.69793108
0.69599227
0.69398907
0.69192174
0.68979085
0.68759736
0.68534261
0.68302836
0.68065685
0.67823075
0.67575326
0.67322804
0.67065929
0.6680517
0.66541042
0.66274108
0.66004972
0.65734274
0.65462686
0.65190903
0.64919636
0.64649603
0.64381521
0.64116095
0.6385401
0.6359592
0.63342445
0.63094157
0.62851579
0.6261518
0.62385368
0.6216249
0.61946831
0.61738612
0.61537991
0.61345068
0.61159886
0.60982435
0.60812663
0.60650475
0.60495746
0.60348318
0.6020799
0.60074493
0.59947502
0.59826605
0.59711255
0.59600762
0.59494299
0.59390935
0.5928972
0.59189805
0.59090562
0.58991616
0.58892695
0.58793169
0.58691511
0.58585944
0.58475358
0.58355179
0.5822184
0.58097056
0.57936785
0.63539067
0.7543853
0.70543087
0.73206527
0.71543537
0.72298535
0.71654928
0.7179351
0.71500157
0.71415578
0.71230483
0.71077032
0.70904752
0.70729288
0.70546544
0.70357178
0.70161068
0.69958175
0.69748505
0.69532088
0.69308989
0.69079315
0.68843213
0.6860088
0.6835256
0.68098551
0.67839205
0.6757493
0.67306191
0.67033509
0.66757456
0.66478658
0.66197781
0.65915534
0.65632656
0.65349912
0.65068076
0.64787929
0.64510244
0.64235776
0.6396525
0.63699355
0.6343873
0.63183962
0.62935573
0.62694024
0.62459702
0.62232927
0.62013949
0.61802947
0.61600033
0.61405256
0.61218606
0.6104002
0.60869387
0.60706559
0.60551355
0.60403568
0.60262967
0.60129287
0.60002208
0.59881355
0.59766286
0.59656437
0.59551121
0.5944953
0.59350765
0.592539
0.59158095
0.59062709
0.58967361
0.58871785
0.58775292
0.58676256
0.58572914
0.58463729
0.58343447
0.58211735
0.58088724
0.57920193
0.63887203
0.75829055
0.70825206
0.7350123
0.71800378
0.72570613
0.71915555
0.72035053
0.71737456
0.71631714
0.71437403
0.71266862
0.71080577
0.70889335
0.70690766
0.70485094
0.70272297
0.70052359
0.69825312
0.69591226
0.69350215
0.69102444
0.68848129
0.68587543
0.68321021
0.68048959
0.67771819
0.67490124
0.67204462
0.66915478
0.66623873
0.66330399
0.66035846
0.65741038
0.65446821
0.65154052
0.64863583
0.64576255
0.6429288
0.6401423
0.63741029
0.6347394
0.63213557
0.62960401
0.62714914
0.62477456
0.62248307
0.62027668
0.61815661
0.61612338
0.61417682
0.61231615
0.61054003
0.60884668
0.60723391
0.60569926
0.60424
0.60285327
0.60153605
0.60028509
0.59909667
0.59796664
0.59689024
0.59586172
0.59487425
0.59391997
0.59299024
0.59207616
0.59116949
0.59026381
0.58935529
0.58844123
0.58751425
0.58655788
0.58555472
0.58448303
0.5832872
0.58199929
0.58078564
0.57903076
0.64193914
0.76163827
0.71062192
0.73750975
0.72023161
0.72779559
0.72112268
0.72212271
0.71911456
0.71782546
0.71577748
0.71388989
0.71187064
0.70978718
0.70762776
0.70539232
0.70308106
0.70069421
0.69823256
0.69569739
0.69309059
0.69041467
0.68767278
0.68486879
0.68200728
0.67909354
0.67613361
0.6731342
0.67010272
0.66704714
0.66397598
0.66089819
0.65782304
0.65475996
0.65171847
0.64870798
0.64573762
0.64281618
0.63995189
0.63715233
0.63442434
0.6317739
0.62920608
0.62672505
0.62433397
0.62203513
0.61982986
0.61771868
0.61570129
0.61377669
0.61194327
0.61019885
0.60854078
0.60696609
0.6054715
0.60405357
0.60270873
0.60143337
0.60022383
0.59907636
0.59798678
0.59695063
0.59596291
0.59501778
0.59410851
0.59322752
0.59236658
0.59151721
0.59067141
0.58982275
0.5889673
0.58810212
0.58721953
0.58630385
0.58533782
0.58429181
0.58311174
0.58186454
0.58066645
0.57885445
0.6445594
0.76440707
0.71254698
0.73951783
0.72199819
0.72923114
0.72258568
0.72321003
0.72021357
0.71865578
0.71648831
0.71440762
0.7122123
0.7099397
0.70758563
0.70514954
0.7026322
0.70003457
0.6973583
0.69460568
0.69177971
0.68888417
0.68592362
0.68290344
0.67982985
0.67670986
0.6735513
0.6703627
0.66715326
0.66393275
0.66071134
0.65749954
0.65430798
0.65114724
0.64802773
0.64495946
0.64195188
0.63901374
0.63615298
0.63337654
0.63069035
0.62809924
0.62560691
0.62321597
0.62092793
0.61874331
0.61666166
0.61468171
0.61280142
0.61101814
0.60932867
0.6077294
0.60621638
0.60478545
0.60343233
0.60215268
0.60094219
0.59979664
0.59871184
0.5976836
0.59670749
0.59577879
0.59489237
0.5940424
0.59322233
0.59242493
0.59164244
0.59086688
0.59009055
0.58930701
0.58851205
0.58770216
0.5868696
0.58600052
0.58507748
0.58406233
0.58290714
0.58170922
0.58052712
0.57867625
0.64676653
0.76662197
0.71406428
0.74106154
0.72336352
0.73021575
0.72357093
0.72404937
0.72066855
0.71882731
0.71650588
0.71420704
0.71180237
0.70930975
0.70672908
0.70406052
0.70130559
0.69846636
0.69554565
0.69254713
0.68947533
0.6863357
0.68313464
0.67987949
0.6765785
0.67324084
0.66987647
0.66649606
0.66311087
0.6597326
0.65637318
0.65304463
0.64975879
0.64652717
0.64336069
0.64026953
0.63726295
0.63434909
0.63153494
0.62882619
0.6262272
0.62374103
0.62136943
0.61911294
0.61697095
0.61494184
0.61302308
0.6112114
0.60950289
0.60789317
0.60637747
0.60495078
0.60360794
0.60234375
0.60115303
0.60003074
0.59897197
0.59797204
0.59702643
0.59613067
0.59528018
0.59447013
0.59369541
0.5929503
0.5922285
0.59152321
0.59082726
0.59013322
0.58943377
0.58872247
0.58799457
0.58724564
0.5864681
0.58565078
0.58477552
0.58379594
0.58267466
0.58153272
0.58036511
0.57850191
0.64862732
0.76831373
0.71513575
0.74214065
0.72408284
0.73029284
0.72373564
0.7234409
0.72040823
0.71829226
0.71576841
0.71321613
0.71056065
0.70780918
0.70496332
0.70202453
0.69899537
0.69587932
0.69268084
0.6894054
0.68605954
0.68265091
0.67918826
0.6756814
0.67214114
0.66857918
0.665008
0.66144069
0.65789072
0.65437175
0.65089737
0.64748084
0.64413488
0.64087138
0.63770122
0.63463402
0.63167807
0.62884013
0.6261254
0.6235375
0.62107851
0.618749
0.61654818
0.61447403
0.61252341
0.6106923
0.60897592
0.6073689
0.60586547
0.60445957
0.603145
0.60191553
0.60076497
0.59968726
0.5986766
0.59772741
0.59683446
0.59599279
0.59519771
0.59444468
0.59372912
0.59304627
0.59239113
0.59175822
0.5911416
0.59053499
0.58993183
0.58932535
0.58870872
0.58807552
0.58742025
0.58673721
0.58601926
0.5852583
0.58443466
0.58349515
0.58241743
0.5813384
0.58018215
0.5783251
0.65014757
0.76946175
0.7156904
0.74258014
0.72409299
0.72986964
0.72329985
0.72262292
0.71940231
0.71693577
0.71415948
0.71131597
0.70836613
0.70531337
0.7021603
0.69891015
0.69556716
0.6921368
0.68862574
0.68504194
0.68139464
0.67769434
0.6739528
0.67018292
0.66639856
0.66261443
0.65884581
0.65510831
0.65141759
0.64778907
0.64423758
0.64077713
0.63742057
0.63417935
0.63106333
0.6280806
0.6252374
0.62253806
0.61998504
0.61757898
0.61531887
0.61320217
0.61122501
0.60938245
0.6076686
0.60607693
0.60460041
0.60323169
0.60196329
0.60078773
0.59969762
0.59868578
0.59774529
0.59686957
0.59605241
0.59528802
0.59457104
0.5938965
0.59325975
0.59265635
0.59208188
0.59153181
0.59100139
0.59048548
0.5899786
0.58947504
0.58896892
0.58845419
0.58792459
0.58737382
0.58679546
0.58618241
0.58552826
0.58482764
0.58405851
0.58316381
0.58213979
0.58112795
0.57997929
0.57814549
0.65127027
0.76997031
0.71565443
0.7415509
0.7233395
0.72852597
0.72209974
0.72083304
0.71747903
0.71463914
0.71155279
0.70837248
0.70507942
0.70167746
0.6981705
0.69456406
0.69086482
0.68708102
0.68322242
0.67930031
0.67532751
0.67131826
0.66728807
0.66325355
0.65923213
0.65524177
0.65130063
0.64742673
0.64363752
0.63994956
0.63637814
0.63293696
0.62963783
0.62649049
0.62350242
0.62067882
0.6180226
0.61553447
0.61321309
0.61105528
0.60905626
0.60720989
0.60550896
0.60394548
0.60251085
0.60119618
0.59999241
0.59889056
0.59788178
0.59695754
0.59610966
0.59533039
0.59461245
0.59394906
0.59333396
0.59276143
0.59222622
0.59172359
0.59124913
0.59079869
0.59036815
0.58995336
0.58954993
0.58915319
0.58875818
0.5883598
0.58795288
0.58753208
0.58709185
0.58662608
0.58612742
0.58558755
0.58500086
0.5843637
0.58365099
0.58280627
0.58184594
0.58090235
0.57975691
0.57796411
0.65190262
0.76967076
0.71491417
0.73976829
0.72195563
0.72633104
0.71997028
0.71809914
0.71451562
0.71126242
0.707803
0.70423172
0.70054013
0.69673484
0.69282199
0.6888103
0.68470999
0.68053323
0.67629405
0.67200828
0.66769338
0.66336822
0.65905283
0.65476801
0.65053499
0.64637496
0.6423086
0.63835566
0.63453444
0.63086142
0.62735084
0.62401444
0.62086126
0.61789752
0.61512662
0.6125493
0.61016375
0.60796592
0.60594982
0.60410784
0.60243107
0.60090967
0.59953317
0.59829073
0.59717142
0.59616441
0.59525914
0.59444543
0.59371364
0.59305467
0.59246001
0.59192181
0.59143282
0.59098644
0.59057666
0.59019809
0.5898459
0.58951574
0.58920364
0.58890588
0.5886188
0.58833871
0.58806174
0.58778372
0.58750029
0.58720699
0.58689931
0.58657268
0.58622227
0.58584222
0.58542444
0.58495985
0.58444353
0.58387176
0.58321628
0.58242718
0.5815411
0.58066481
0.57951384
0.57777929
0.65197699
0.76848444
0.71332882
0.73731005
0.71972422
0.72310961
0.71678891
0.71426156
0.71036514
0.70664846
0.7027444
0.69871638
0.69456149
0.69029057
0.68591369
0.6814442
0.6768975
0.67229129
0.66764533
0.66298126
0.65832224
0.65369259
0.64911726
0.64462142
0.64022976
0.63596601
0.63185228
0.62790849
0.62415195
0.62059688
0.61725417
0.61413124
0.61123205
0.60855721
0.60610423
0.60386788
0.60184054
0.60001264
0.59837313
0.59690987
0.59560999
0.59446032
0.59344761
0.59255883
0.59178135
0.5911031
0.59051267
0.58999942
0.58955345
0.58916567
0.58882777
0.58853222
0.58827222
0.58804166
0.58783511
0.58764775
0.58747533
0.58731411
0.58716071
0.58701193
0.58686468
0.58671583
0.58656209
0.58639988
0.58622546
0.58603501
0.58582466
0.58559057
0.5853286
0.58503317
0.58469585
0.58430749
0.58386347
0.5833577
0.5827593
0.58203185
0.5812306
0.5804178
0.57925075
0.57759182
0.65147454
0.76631628
0.71082599
0.73375939
0.71648653
0.7187705
0.71240936
0.70917506
0.70485568
0.70060461
0.69617137
0.69160671
0.68691276
0.6821063
0.67720363
0.67222482
0.66719241
0.66213134
0.65706863
0.65203286
0.6470537
0.64216123
0.63738525
0.6327545
0.62829591
0.62403382
0.61998935
0.6161798
0.61261835
0.60931381
0.60627063
0.60348914
0.60096577
0.59869361
0.59666285
0.59486137
0.59327529
0.59188952
0.59068825
0.58965536
0.5887748
0.5880309
0.58740858
0.58689353
0.58647233
0.58613252
0.58586263
0.58565222
0.58549181
0.58537285
0.58528771
0.58522957
0.58519242
0.58517095
0.5851605
0.58515705
0.5851571
0.58515759
0.58515583
0.58514926
0.58513541
0.58511177
0.58507564
0.58502412
0.58495409
0.58486235
0.58474563
0.58460077
0.58442421
0.58421063
0.58395182
0.58363939
0.58326844
0.58282826
0.5822864
0.5816258
0.58091745
0.58016389
0.57897734
0.57740523
0.65033902
0.76299841
0.70734965
0.72904892
0.71209054
0.71314061
0.70663237
0.70262401
0.69775488
0.69287513
0.68781348
0.68261973
0.67730374
0.6718905
0.66640528
0.66087715
0.65533778
0.64982107
0.64436254
0.63899854
0.63376534
0.62869817
0.62383015
0.6191913
0.61480757
0.61070018
0.60688504
0.60337256
0.60016761
0.59726983
0.59467406
0.59237098
0.59034777
0.58858888
0.58707675
0.58579253
0.58471663
0.58382931
0.5831111
0.58254314
0.58210745
0.58178711
0.58156637
0.58143076
0.58136705
0.58136328
0.58140869
0.5814937
0.58160979
0.58174946
0.58190609
0.58207394
0.58224801
0.582424
0.58259822
0.58276751
0.58292923
0.58308109
0.58322112
0.58334744
0.58345823
0.58355161
0.58362552
0.5836777
0.58370569
0.58370688
0.58367859
0.58361822
0.5835226
0.58338666
0.58320303
0.58296486
0.58266639
0.58229078
0.58180518
0.5812144
0.5806016
0.5799074
0.5787123
0.57720223
0.64851441
0.7582937
0.70293488
0.7229835
0.70632814
0.70599753
0.69919086
0.69431332
0.68874632
0.68312077
0.67732028
0.67140058
0.665383
0.65930333
0.65319847
0.64710897
0.64107773
0.63514913
0.62936786
0.62377763
0.61841967
0.61333138
0.60854503
0.60408672
0.59997578
0.59622435
0.59283751
0.58981366
0.58714518
0.58481929
0.58281903
0.58112423
0.57971248
0.57856004
0.57764257
0.57693581
0.57641609
0.57606073
0.57584833
0.57575895
0.5757742
0.57587735
0.57605323
0.57628827
0.57657037
0.57688884
0.57723429
0.57759851
0.57797439
0.57835576
0.57873736
0.57911468
0.57948392
0.57984187
0.58018589
0.58051376
0.58082371
0.58111424
0.58138408
0.58163206
0.58185697
0.58205758
0.58223244
0.58237992
0.58249819
0.58258524
0.58263896
0.58265715
0.58263684
0.5825732
0.58246026
0.58229321
0.58206492
0.58175221
0.58132333
0.58080357
0.58028282
0.5796484
0.57845455
0.57700748
0.645944
0.75182123
0.69750315
0.71530471
0.69889506
0.69699829
0.68970015
0.68383195
0.67740834
0.67091018
0.66426238
0.65753044
0.65075161
0.64397604
0.63725576
0.63064572
0.62420176
0.61797889
0.61202919
0.60639989
0.60113153
0.59625656
0.59179841
0.58777115
0.5841796
0.58102003
0.57828109
0.57594504
0.57398914
0.57238698
0.57110972
0.57012728
0.56940928
0.56892583
0.56864814
0.56854896
0.56860286
0.56878644
0.56907836
0.56945937
0.56991225
0.57042173
0.57097433
0.57155828
0.57216333
0.57278064
0.57340264
0.57402284
0.57463579
0.57523689
0.57582231
0.5763889
0.57693408
0.57745579
0.57795241
0.57842268
0.57886564
0.57928057
0.57966688
0.58002403
0.58035145
0.58064845
0.58091419
0.58114761
0.58134748
0.58151237
0.58164074
0.58173068
0.58177918
0.58178175
0.58173412
0.58163349
0.58147101
0.58121838
0.58084743
0.58040047
0.57996552
0.57938568
0.57820284
0.57683056
0.64249838
0.74291125
0.69042181
0.70556372
0.68933697
0.68566876
0.67765612
0.67066439
0.66322761
0.65573347
0.64814519
0.64054326
0.63298727
0.62554715
0.61829369
0.61129735
0.60462506
0.59833738
0.59248591
0.58711134
0.58224222
0.57789455
0.57407214
0.57076768
0.56796418
0.56563678
0.56375466
0.5622829
0.56118413
0.56042002
0.55995252
0.55974473
0.55976162
0.5599705
0.56034128
0.56084661
0.56146187
0.56216512
0.562937
0.56376048
0.56462078
0.56550508
0.5664024
0.56730336
0.56820003
0.56908575
0.56995497
0.57080312
0.57162648
0.57242205
0.57318747
0.57392091
0.574621
0.57528677
0.57591756
0.57651299
0.57707288
0.5775972
0.57808599
0.57853927
0.57895704
0.57933913
0.5796852
0.57999472
0.58026699
0.58050117
0.5806962
0.58085039
0.58096064
0.58102296
0.58103473
0.58099445
0.5808912
0.58069441
0.58038367
0.58001384
0.57965704
0.5791148
0.57795061
0.5766778
0.63789201
0.73151371
0.68126549
0.69319741
0.6770745
0.67144822
0.66245895
0.65419313
0.64559192
0.6369955
0.62841414
0.61995191
0.61169738
0.60374321
0.59617684
0.58907734
0.58251136
0.57653051
0.57116965
0.56644659
0.5623628
0.55890513
0.55604809
0.55375651
0.55198825
0.55069672
0.54983319
0.54934861
0.54919513
0.54932717
0.54970216
0.55028097
0.55102815
0.55191194
0.55290418
0.55398011
0.55511818
0.55629972
0.5575087
0.55873146
0.55995641
0.56117384
0.56237564
0.56355512
0.56470684
0.5658264
0.56691031
0.56795589
0.5689611
0.56992448
0.57084504
0.57172219
0.57255565
0.57334543
0.57409175
0.574795
0.5754557
0.57607441
0.57665172
0.57718816
0.57768421
0.57814013
0.57855601
0.57893176
0.57926715
0.57956186
0.57981526
0.5800258
0.5801905
0.58030603
0.58037111
0.58038421
0.58033216
0.58018597
0.57993772
0.57964974
0.57936305
0.57883791
0.57769524
0.57655635
0.63175942
0.71873582
0.66947518
0.67762084
0.66139297
0.65361927
0.64334474
0.63363516
0.6237526
0.61402077
0.60450927
0.59535118
0.58666124
0.578545
0.57108994
0.56436236
0.55840504
0.5532371
0.54885546
0.54523762
0.54234526
0.54012818
0.53852824
0.53748284
0.53692799
0.53680065
0.53704055
0.53759133
0.53840136
0.53942401
0.54061777
0.54194605
0.54337697
0.54488296
0.54644035
0.54802902
0.54963193
0.55123482
0.55282579
0.55439504
0.55593454
0.55743784
0.55889978
0.56031637
0.56168454
0.56300207
0.56426741
0.56547958
0.5666381
0.56774288
0.56879414
0.56979238
0.57073829
0.57163271
0.57247661
0.57327104
0.57401709
0.57471585
0.57536836
0.57597559
0.57653839
0.5770574
0.57753304
0.57796556
0.57835512
0.57870179
0.57900527
0.57926419
0.57947597
0.57963828
0.57975056
0.57980989
0.57980094
0.57969975
0.57951368
0.57930764
0.57908422
0.57856921
0.57745672
0.57647404
0.62377636
0.70197026
0.65422452
0.65795432
0.64125536
0.63112897
0.61928628
0.60802943
0.59689469
0.58620048
0.57607229
0.5666593
0.55807732
0.55041324
0.54371987
0.53801665
0.53329231
0.52950945
0.52661029
0.52452257
0.52316531
0.52245374
0.52230329
0.5226326
0.52336558
0.52443267
0.5257714
0.52732653
0.52904984
0.53089968
0.5328404
0.53484179
0.53687839
0.53892894
0.54097581
0.54300453
0.54500326
0.54696251
0.54887468
0.55073385
0.55253548
0.5542762
0.55595361
0.55756615
0.55911294
0.56059366
0.56200845
0.56335784
0.56464267
0.565864
0.5670231
0.56812136
0.56916028
0.57014141
0.57106631
0.57193657
0.57275376
0.57351937
0.57423484
0.57490149
0.57552045
0.57609266
0.5766188
0.57709938
0.57753481
0.57792542
0.57827106
0.57857064
0.57882234
0.57902502
0.57917831
0.57927707
0.57930444
0.57924345
0.57911553
0.57898315
0.57881489
0.57832384
0.57727612
0.57641969
0.61330449
0.68026338
0.6341271
0.63278728
0.61519251
0.60259318
0.58911194
0.57646951
0.56444974
0.55334785
0.54330416
0.53443859
0.52681624
0.52045539
0.51533056
0.51138069
0.50851807
0.50663768
0.50562553
0.50536572
0.50574572
0.50666006
0.50801258
0.50971749
0.51169964
0.5138941
0.51624551
0.51870713
0.52123986
0.52381127
0.52639468
0.52896831
0.53151454
0.53401925
0.53647125
0.53886184
0.54118431
0.5434337
0.54560642
0.54770008
0.54971323
0.5516452
0.55349599
0.55526612
0.55695653
0.55856851
0.56010359
0.56156354
0.56295027
0.56426581
0.56551224
0.5666917
0.5678063
0.56885814
0.5698493
0.57078177
0.57165748
0.57247824
0.5732458
0.57396174
0.57462743
0.57524404
0.57581244
0.57633331
0.57680723
0.57723458
0.57761523
0.57794842
0.5782333
0.57846993
0.57865773
0.57878941
0.57884801
0.57882423
0.57874917
0.57867677
0.57854938
0.57809105
0.57713854
0.57640072
0.59919118
0.65151317
0.6072698
0.60036505
0.58159432
0.56663269
0.55192577
0.53858926
0.52658693
0.51613404
0.50730249
0.50010916
0.49450402
0.49038813
0.48762706
0.48606595
0.48554216
0.48589534
0.48697445
0.48864205
0.4907765
0.49327234
0.49603981
0.49900352
0.50210091
0.50528061
0.50850084
0.51172787
0.51493473
0.5181001
0.52120724
0.52424324
0.52719831
0.53006518
0.53283867
0.53551525
0.53809278
0.54057021
0.54294738
0.54522483
0.54740368
0.54948551
0.55147221
0.553366
0.55516927
0.55688456
0.55851454
0.56006192
0.56152946
0.56291993
0.56423605
0.56548051
0.56665591
0.56776478
0.56880956
0.56979255
0.57071596
0.57158184
0.57239216
0.57314869
0.573853
0.57450639
0.57510992
0.5756644
0.57617046
0.57662838
0.57703798
0.57739882
0.57771099
0.57797542
0.57819105
0.57834931
0.57843512
0.57844679
0.57841991
0.57839482
0.57829392
0.5778666
0.57702445
0.57645951
0.57947722
0.61337654
0.57145838
0.55888219
0.53942609
0.52253621
0.50774432
0.49512676
0.48465031
0.47635765
0.47015163
0.4658732
0.46331212
0.46223539
0.46240624
0.46359915
0.465609
0.46825561
0.47138499
0.47486828
0.47859949
0.48249263
0.48647877
0.49050321
0.49452299
0.4985047
0.50242265
0.50625737
0.50999436
0.51362306
0.51713606
0.52052845
0.52379729
0.5269412
0.52996
0.53285447
0.53562615
0.53827713
0.54080994
0.54322746
0.54553278
0.5477292
0.54982009
0.55180894
0.55369923
0.55549449
0.55719818
0.55881376
0.56034461
0.56179403
0.56316523
0.56446131
0.56568523
0.56683981
0.56792777
0.56895164
0.56991381
0.57081651
0.57166186
0.57245176
0.57318788
0.57387169
0.57450437
0.57508685
0.57561973
0.5761032
0.57653699
0.57692093
0.57725574
0.57754266
0.57778009
0.57795941
0.57806927
0.57811458
0.57813031
0.57814052
0.57805722
0.57766999
0.57695448
0.57652657
0.55154811
0.56334847
0.5253128
0.50697882
0.48643159
0.47102947
0.45811307
0.44827963
0.44126504
0.4368273
0.43462147
0.43428564
0.4354637
0.43783072
0.44110343
0.44504384
0.44945733
0.45418813
0.45911363
0.46413872
0.46919048
0.4742137
0.47916709
0.48402025
0.48875123
0.49334458
0.49778987
0.50208052
0.5062129
0.5101856
0.51399889
0.51765435
0.52115446
0.52450244
0.52770198
0.53075714
0.53367223
0.53645169
0.53910007
0.54162194
0.54402185
0.54630434
0.54847388
0.55053484
0.55249152
0.55434811
0.55610869
0.55777722
0.55935752
0.56085328
0.56226805
0.5636052
0.56486794
0.56605933
0.56718225
0.56823939
0.56923328
0.57016626
0.57104053
0.57185807
0.57262063
0.57332976
0.57398677
0.57459267
0.5751481
0.57565316
0.57610763
0.57651152
0.57686574
0.57717123
0.5774259
0.57762248
0.57775449
0.57783156
0.57788307
0.57791573
0.57783959
0.57749354
0.57691623
0.57666545
0.51129636
0.49884713
0.46178268
0.44396823
0.42662193
0.41447899
0.40621093
0.40160408
0.40000674
0.40083527
0.40352321
0.40758561
0.41262206
0.4183157
0.42442233
0.4307579
0.43718607
0.44360748
0.44995081
0.45616585
0.46221805
0.46808447
0.47375068
0.4792085
0.48445429
0.48948767
0.49431061
0.49892674
0.50334083
0.50755843
0.51158557
0.51542857
0.51909393
0.52258816
0.52591772
0.52908902
0.53210831
0.53498168
0.53771508
0.54031427
0.5427848
0.54513208
0.54736128
0.54947743
0.55148536
0.55338972
0.55519499
0.55690546
0.55852527
0.56005836
0.56150849
0.56287922
0.56417395
0.56539587
0.56654797
0.56763307
0.56865375
0.56961243
0.57051136
0.57135253
0.57213775
0.57286861
0.57354647
0.57417241
0.57474712
0.57527081
0.57574342
0.57616512
0.5765366
0.57685811
0.57712728
0.57733898
0.57749152
0.57759658
0.57767558
0.57772345
0.57766295
0.57738362
0.57693978
0.57674166
0.44983664
0.41740834
0.38782077
0.37304398
0.36225683
0.35748154
0.35692364
0.35966793
0.3647268
0.3713436
0.37893535
0.38707935
0.39547652
0.40392079
0.41227324
0.42044262
0.42837098
0.43602345
0.44338099
0.45043535
0.45718555
0.46363542
0.46979192
0.47566396
0.48126162
0.48659555
0.49167663
0.49651569
0.5011234
0.50551007
0.50968568
0.5136598
0.51744158
0.52103975
0.52446262
0.52771813
0.53081382
0.53375686
0.53655411
0.53921208
0.541737
0.5441348
0.54641115
0.54857145
0.55062089
0.55256439
0.5544067
0.55615232
0.55780558
0.55937057
0.56085119
0.56225113
0.56357387
0.5648227
0.56600068
0.56711069
0.56815538
0.56913718
0.57005835
0.57092091
0.57172665
0.57247714
0.57317376
0.57381759
0.57440939
0.57494956
0.5754383
0.57587594
0.57626286
0.57659867
0.57688114
0.5771072
0.57727799
0.57740425
0.57749991
0.57755584
0.57751459
0.57730735
0.57699183
0.57686931
0.35450545
0.32114271
0.30359692
0.29914131
0.30052428
0.30677056
0.31590875
0.32667804
0.33820823
0.34995028
0.36156994
0.37287216
0.38374986
0.39415041
0.40405442
0.41346244
0.42238661
0.43084548
0.43886088
0.44645586
0.45365359
0.46047663
0.46694653
0.47308366
0.47890714
0.48443479
0.48968322
0.49466788
0.49940311
0.50390227
0.50817777
0.51224119
0.51610332
0.51977425
0.52326342
0.52657969
0.52973137
0.53272631
0.53557188
0.53827507
0.54084247
0.54328035
0.54559465
0.547791
0.54987477
0.55185108
0.5537248
0.55550057
0.55718279
0.55877566
0.56028315
0.56170901
0.56305678
0.56432978
0.56553114
0.56666375
0.56773029
0.56873321
0.56967477
0.57055697
0.57138157
0.57215013
0.57286395
0.57352408
0.57413131
0.5746862
0.57518918
0.57564069
0.57604097
0.57638953
0.57668489
0.5769257
0.57711392
0.57725703
0.57736246
0.57742196
0.57740039
0.57726292
0.57705516
0.57696157
0.21589112
0.21462141
0.2199925
0.23334754
0.25059326
0.2689126
0.287106
0.30452589
0.32094444
0.33629821
0.35061253
0.36394777
0.37637758
0.38797715
0.3988181
0.40896638
0.41848161
0.42741722
0.43582089
0.44373509
0.45119769
0.45824247
0.46489966
0.47119637
0.47715698
0.4828035
0.48815585
0.4932321
0.49804875
0.50262083
0.50696218
0.51108549
0.51500249
0.51872402
0.52226015
0.52562026
0.52881311
0.53184686
0.53472922
0.53746741
0.54006823
0.54253812
0.54488316
0.54710911
0.54922145
0.55122537
0.55312582
0.55492749
0.55663486
0.55825215
0.55978337
0.5612323
0.56260251
0.56389736
0.56511999
0.56627331
0.56736
0.56838254
0.56934318
0.57024391
0.57108648
0.57187239
0.57260289
0.57327897
0.57390141
0.57447083
0.57498775
0.57545256
0.57586541
0.57622601
0.57653378
0.57678877
0.5769929
0.57715008
0.577263
0.57732648
0.57732451
0.57724494
0.57711682
0.57703512
0.091658336
0.12146313
0.15876494
0.19229942
0.22232735
0.2487588
0.27221267
0.29315358
0.31199661
0.32906707
0.34462721
0.35888708
0.37201718
0.38415706
0.39542214
0.40590877
0.41569812
0.42485913
0.4334508
0.44152401
0.44912289
0.456286
0.46304723
0.46943649
0.47548037
0.48120257
0.48662437
0.49176493
0.49664156
0.50127003
0.50566468
0.50983866
0.51380406
0.51757199
0.52115278
0.52455598
0.5277905
0.53086464
0.53378619
0.53656246
0.53920033
0.54170628
0.54408644
0.54634662
0.54849231
0.55052875
0.5524609
0.5542935
0.55603102
0.55767774
0.55923767
0.56071462
0.56211219
0.56343375
0.56468247
0.56586128
0.56697289
0.56801978
0.56900421
0.56992819
0.57079345
0.57160146
0.5723534
0.57305023
0.57369268
0.57428134
0.57481667
0.57529894
0.57572811
0.57610389
0.5764262
0.57669577
0.57691422
0.57708346
0.57720398
0.57727298
0.57728509
0.57723998
0.57715583
0.57707669
0.010840122
0.29810163
0.470134
0.51683658
0.52624484
0.52674344
0.52644825
0.52756639
0.5290634
0.53054503
0.53201949
0.53345363
0.5348673
0.53626582
0.53766188
0.53906462
0.54047519
0.54189403
0.54332087
0.54475471
0.5461941
0.54763725
0.54908218
0.55052678
0.55196891
0.55340639
0.55483707
0.55625884
0.55766964
0.55906744
0.56045027
0.56181622
0.5631634
0.56448995
0.56579405
0.56707389
0.56832769
0.56955367
0.57075007
0.57191513
0.57304709
0.57414421
0.57520476
0.576227
0.57720925
0.57814982
0.57904708
0.57989944
0.58070539
0.58146352
0.58217252
0.58283122
0.58343863
0.58399394
0.5844966
0.58494634
0.58534322
0.58568758
0.58598019
0.58622191
0.58641362
0.586557
0.58665454
0.58670934
0.58672364
0.58670089
0.58663773
0.58654047
0.58638577
0.58620558
0.58591366
0.5856494
0.58512635
0.58480713
0.5838767
0.58363054
0.58206799
0.58218823
0.57989591
0.58058289
0.066453757
0.38534319
0.51960014
0.54390165
0.54465858
0.54287575
0.54205392
0.54221578
0.54242495
0.54273429
0.54313265
0.54369735
0.54438067
0.54515218
0.5459845
0.54687492
0.54781696
0.54880603
0.54983679
0.55090413
0.55200336
0.5531301
0.55428019
0.55544972
0.55663497
0.55783238
0.55903858
0.5602503
0.56146443
0.56267797
0.563888
0.56509173
0.56628643
0.56746946
0.56863823
0.56979023
0.57092302
0.57203419
0.5731214
0.57418234
0.57521478
0.57621651
0.57718538
0.57811928
0.57901618
0.5798741
0.58069113
0.58146549
0.58219548
0.58287951
0.58351619
0.58410425
0.58464267
0.58513063
0.58556761
0.58595336
0.58628803
0.58657203
0.58680625
0.58699162
0.58712912
0.58722056
0.58726853
0.58727608
0.58724543
0.58717941
0.58707498
0.58693643
0.58674338
0.58652162
0.58619644
0.58588741
0.58534283
0.58497398
0.58405313
0.58374218
0.58220301
0.58224931
0.5799747
0.58063067
0.15273492
0.46537081
0.53868566
0.55119876
0.54979902
0.54891667
0.54893271
0.5494977
0.54992156
0.55045211
0.55096359
0.5515352
0.55212682
0.55275867
0.55342294
0.55412419
0.55485867
0.55562662
0.55642661
0.55725699
0.55811602
0.55900182
0.55991235
0.56084539
0.56179863
0.56276962
0.56375585
0.5647547
0.56576349
0.5667795
0.56779998
0.56882213
0.56984315
0.57086024
0.57187059
0.57287141
0.57385993
0.57483339
0.57578909
0.57672435
0.57763654
0.57852309
0.57938146
0.5802092
0.58100395
0.58176342
0.58248544
0.58316794
0.58380903
0.58440693
0.58496009
0.58546713
0.58592694
0.58633868
0.5867018
0.58701606
0.58728162
0.58749898
0.58766908
0.58779288
0.58787147
0.58790673
0.58790133
0.58785822
0.58777954
0.58766758
0.5875194
0.58733773
0.5871042
0.58684019
0.58647951
0.58612695
0.58555713
0.58514396
0.58421833
0.58385379
0.58232947
0.58231009
0.58005275
0.58067344
0.2340896
0.51116338
0.55232532
0.55959167
0.55694823
0.55720817
0.55727459
0.55787146
0.55814669
0.55859783
0.55897502
0.55943095
0.55989015
0.56037961
0.56088613
0.56141751
0.56197126
0.56254938
0.5631518
0.56377851
0.56442921
0.56510344
0.56580047
0.56651935
0.56725891
0.56801775
0.56879429
0.56958674
0.57039314
0.57121135
0.57203911
0.57287401
0.57371353
0.57455506
0.57539591
0.57623331
0.57706446
0.57788651
0.57869662
0.57949193
0.58026959
0.58102678
0.58176074
0.58246875
0.58314819
0.58379652
0.58441134
0.58499037
0.58553149
0.5860328
0.58649257
0.58690932
0.58728186
0.58760929
0.58789105