/*--------------------------------*- C++ -*----------------------------------*\
  =========                 |
  \\      /  F ield         | OpenFOAM: The Open Source CFD Toolbox
   \\    /   O peration     | Website:  https://openfoam.org
    \\  /    A nd           | Version:  12
     \\/     M anipulation  |
\*---------------------------------------------------------------------------*/
FoamFile
{
    format      ascii;
    class       volScalarField;
    location    "0.088";
    object      nut;
}
// * * * * * * * * * * * * * * * * * * * * * * * * * * * * * * * * * * * * * //

dimensions      [0 2 -1 0 0 0 0];

internalField   nonuniform List<scalar> 
16000
(
4.7129792e-07
9.9614635e-06
1.9912328e-05
2.3805624e-05
1.8446668e-05
2.5407198e-05
1.7857837e-05
2.4525538e-05
1.9009328e-05
2.6302832e-05
2.202056e-05
2.5979068e-05
2.3623934e-05
2.4290671e-05
2.3451093e-05
2.3322313e-05
2.3073683e-05
2.3005999e-05
2.3015332e-05
2.3123333e-05
2.3321934e-05
2.3610674e-05
2.398709e-05
2.4451218e-05
2.5005173e-05
2.5654922e-05
2.6408395e-05
2.7278317e-05
2.8280214e-05
2.9430835e-05
3.0748543e-05
3.2257713e-05
3.3989826e-05
3.5983701e-05
3.828715e-05
4.0957271e-05
4.4062169e-05
4.7683136e-05
5.1920866e-05
5.6900291e-05
6.2768333e-05
6.9698265e-05
7.7908755e-05
8.7668211e-05
9.9296953e-05
0.0001131801
0.00012979635
0.00014973096
0.00017369903
0.00020257491
0.0002374326
0.00027959587
0.00033069392
0.00039273915
0.00046822103
0.00056023778
0.00067267732
0.00081046865
0.00097988117
0.0010223101
0.0010220062
0.001021705
0.0010213094
0.0010208175
0.0010202196
0.0010195136
0.0010187032
0.001017793
0.0010167747
0.0010155974
0.0010141275
0.0010122689
0.0010105918
0.0010092405
0.0010082147
0.0010075063
0.0010070168
0.0010065
0.0010064674
0.0010074155
4.2283516e-07
9.4589996e-06
1.9930255e-05
2.1694055e-05
1.6672527e-05
2.2805437e-05
1.5884826e-05
2.1507995e-05
1.6842277e-05
2.327378e-05
1.9987303e-05
2.3465398e-05
2.1649801e-05
2.2049084e-05
2.1393311e-05
2.1210423e-05
2.1003413e-05
2.0930894e-05
2.094172e-05
2.1040407e-05
2.1224026e-05
2.1491693e-05
2.1841569e-05
2.2273785e-05
2.2789973e-05
2.3395748e-05
2.4098009e-05
2.4908245e-05
2.5841165e-05
2.6913127e-05
2.8141263e-05
2.9547898e-05
3.1162227e-05
3.3020277e-05
3.5166882e-05
3.7655863e-05
4.0551843e-05
4.3931427e-05
4.7888672e-05
5.2542136e-05
5.8033357e-05
6.4525969e-05
7.222651e-05
8.1391623e-05
9.2329943e-05
0.00010540889
0.00012108675
0.00013992581
0.00016261473
0.00018999632
0.00022310619
0.00026322419
0.00031192772
0.00037116908
0.00044336555
0.0005315254
0.00063941885
0.00077180868
0.00093474094
0.0010215925
0.0010212868
0.0010209779
0.0010205814
0.0010200913
0.0010194975
0.001018796
0.0010179879
0.0010170748
0.0010160476
0.0010148662
0.0010134163
0.0010115898
0.0010099656
0.0010086728
0.0010077147
0.0010070647
0.0010065754
0.0010060161
0.0010059258
0.00100605
3.8048898e-07
9.0711459e-06
1.8880352e-05
1.9843219e-05
1.4948636e-05
2.011287e-05
1.4164814e-05
1.872445e-05
1.5163027e-05
2.0449908e-05
1.825016e-05
2.0924951e-05
1.9643986e-05
1.9775143e-05
1.9270929e-05
1.9065338e-05
1.8891394e-05
1.8824416e-05
1.8838698e-05
1.8932411e-05
1.910402e-05
1.9352978e-05
1.9677764e-05
2.0078792e-05
2.0557312e-05
2.1118753e-05
2.1769292e-05
2.2519349e-05
2.338264e-05
2.4375115e-05
2.551307e-05
2.681719e-05
2.8314764e-05
3.0039379e-05
3.2033193e-05
3.4346952e-05
3.7042126e-05
4.019157e-05
4.3883673e-05
4.8230481e-05
5.336897e-05
5.9455203e-05
6.6685111e-05
7.5304028e-05
8.5610932e-05
9.7958453e-05
0.0001127871
0.00013063906
0.0001521799
0.00017822549
0.00020977812
0.00024807935
0.00029466072
0.00035142106
0.00042071328
0.0005054661
0.0006093473
0.00073698116
0.00089421784
0.0010209041
0.0010205965
0.0010202713
0.0010198645
0.0010193673
0.0010187696
0.0010180658
0.0010172549
0.0010163352
0.0010152946
0.0010140986
0.001012655
0.0010108665
0.0010093138
0.0010080943
0.0010072114
0.001006619
0.0010061275
0.0010055417
0.0010053666
0.0010051372
3.3925267e-07
8.779731e-06
1.7942824e-05
1.8419074e-05
1.3453015e-05
1.7779647e-05
1.2639037e-05
1.6380819e-05
1.36645e-05
1.804166e-05
1.6682763e-05
1.8666166e-05
1.7785766e-05
1.7719249e-05
1.7328672e-05
1.7121237e-05
1.6976279e-05
1.6919903e-05
1.6940319e-05
1.7032567e-05
1.7195727e-05
1.7429654e-05
1.7733154e-05
1.810704e-05
1.8552305e-05
1.9074321e-05
1.9678791e-05
2.0375291e-05
2.1176602e-05
2.209834e-05
2.3156256e-05
2.4369647e-05
2.5764254e-05
2.7371566e-05
2.9231469e-05
3.1392048e-05
3.3912035e-05
3.686133e-05
4.0323799e-05
4.4405401e-05
4.9239582e-05
5.4976639e-05
6.1803951e-05
6.9956726e-05
7.9726886e-05
9.1455553e-05
0.00010556901
0.00012259358
0.00014317675
0.00016811435
0.00019838303
0.00023519584
0.00028004977
0.00033480421
0.00040176499
0.00048380279
0.00058451
0.0007084102
0.00086121592
0.0010202572
0.001019949
0.0010196023
0.0010191798
0.0010186707
0.0010180646
0.0010173548
0.0010165377
0.0010156084
0.0010145517
0.0010133372
0.0010118977
0.0010101483
0.0010086736
0.0010075305
0.0010067196
0.0010061763
0.0010056803
0.0010050664
0.0010047992
0.0010042848
3.1057736e-07
8.5615584e-06
1.7126047e-05
1.8436686e-05
1.339856e-05
1.5738389e-05
1.1295081e-05
1.4364419e-05
1.2372954e-05
1.5958225e-05
1.5285205e-05
1.6625558e-05
1.604459e-05
1.5843252e-05
1.5536633e-05
1.534195e-05
1.5221058e-05
1.5176137e-05
1.5201683e-05
1.5292041e-05
1.5446511e-05
1.5665519e-05
1.594823e-05
1.6295963e-05
1.6709604e-05
1.719454e-05
1.7756144e-05
1.8403329e-05
1.914795e-05
2.0005251e-05
2.0990623e-05
2.2122207e-05
2.3424458e-05
2.4927045e-05
2.6667887e-05
2.8692741e-05
3.105787e-05
3.3830759e-05
3.7091867e-05
4.0941338e-05
4.5509608e-05
5.0942619e-05
5.7421029e-05
6.517047e-05
7.4477409e-05
8.5673882e-05
9.9174275e-05
0.00011549174
0.00013525852
0.00015925454
0.00018843498
0.0002239896
0.00026738642
0.00032045195
0.00038545287
0.00046521155
0.0005632577
0.00068403037
0.00083312915
0.0010175599
0.0010193389
0.0010189657
0.0010185214
0.0010179946
0.0010173752
0.0010166552
0.0010158282
0.0010148864
0.0010138113
0.0010125736
0.0010111343
0.0010094366
0.0010080478
0.0010069847
0.0010062419
0.0010057395
0.0010052428
0.0010046085
0.0010042213
0.0010034562
2.8563647e-07
8.428926e-06
1.6469273e-05
1.8239094e-05
1.3188345e-05
1.3947985e-05
1.0638313e-05
1.2695061e-05
1.1387099e-05
1.4192083e-05
1.4056288e-05
1.4828388e-05
1.4447987e-05
1.4167034e-05
1.3914115e-05
1.3735108e-05
1.3630215e-05
1.3592852e-05
1.3620027e-05
1.3706334e-05
1.3851065e-05
1.405515e-05
1.4317959e-05
1.4641221e-05
1.5025856e-05
1.5477199e-05
1.6000369e-05
1.6603761e-05
1.7298334e-05
1.8098919e-05
1.9020715e-05
2.0080924e-05
2.1302978e-05
2.2715026e-05
2.4353367e-05
2.6261816e-05
2.8494541e-05
3.1117089e-05
3.4207723e-05
3.7861559e-05
4.2206261e-05
4.7384891e-05
5.3573745e-05
6.0989726e-05
6.9915637e-05
8.0677334e-05
9.3680179e-05
0.00010942767
0.00012854038
0.0001517877
0.00018010881
0.00021467715
0.00025693992
0.00030870006
0.00037219688
0.00045021849
0.00054624952
0.0006646662
0.00081098454
0.0009921044
0.0010187616
0.001018358
0.0010178869
0.0010173374
0.0010167001
0.0010159662
0.0010151262
0.0010141693
0.0010130746
0.0010118115
0.0010103675
0.0010087347
0.0010074375
0.0010064565
0.001005776
0.0010053066
0.0010048154
0.0010041713
0.0010036458
0.0010026285
2.5321166e-07
8.3562822e-06
1.5955972e-05
1.7288651e-05
1.3083207e-05
1.2327996e-05
1.0704966e-05
1.1675428e-05
1.1073393e-05
1.2678526e-05
1.295134e-05
1.323882e-05
1.2965124e-05
1.2648633e-05
1.2426428e-05
1.2263247e-05
1.2170057e-05
1.2138792e-05
1.2166977e-05
1.2249777e-05
1.2386188e-05
1.2577585e-05
1.2823297e-05
1.3048487e-05
1.3398848e-05
1.3813131e-05
1.4295771e-05
1.4854443e-05
1.5499019e-05
1.6243578e-05
1.710308e-05
1.8093808e-05
1.923824e-05
2.0563062e-05
2.2103055e-05
2.3900242e-05
2.6006804e-05
2.8486364e-05
3.1415722e-05
3.5148747e-05
3.9310725e-05
4.4282611e-05
5.0238742e-05
5.7388485e-05
6.6011978e-05
7.643177e-05
8.9047033e-05
0.00010435488
0.00012296722
0.000145648
0.00017332535
0.00020716254
0.00024859356
0.000299406
0.0003618221
0.00043860808
0.00053321877
0.00064998603
0.00079436258
0.00097317064
0.0010182128
0.0010177759
0.0010172735
0.0010166969
0.0010160375
0.0010152859
0.00101443
0.0010134558
0.0010123415
0.0010110537
0.0010095986
0.0010080486
0.0010068454
0.0010059453
0.0010053205
0.0010048766
0.0010043961
0.0010037527
0.0010030965
0.0010018359
2.3233654e-07
8.3161249e-06
1.551842e-05
1.5741714e-05
1.206422e-05
1.0746819e-05
9.3158349e-06
1.0438671e-05
9.7715966e-06
1.1390986e-05
1.1840392e-05
1.1779503e-05
1.1549e-05
1.1238567e-05
1.104079e-05
1.0897563e-05
1.0818075e-05
1.0795486e-05
1.0761933e-05
1.0828184e-05
1.0948078e-05
1.112204e-05
1.134778e-05
1.1625599e-05
1.1959754e-05
1.2353377e-05
1.2811106e-05
1.3340552e-05
1.3951035e-05
1.4656195e-05
1.5471176e-05
1.6411762e-05
1.7499968e-05
1.8761543e-05
2.0230363e-05
2.1947298e-05
2.3963312e-05
2.6340813e-05
2.9156027e-05
3.2501872e-05
3.6491768e-05
4.1269451e-05
4.7009082e-05
5.4368189e-05
6.2769326e-05
7.294186e-05
8.5281967e-05
0.00010028355
0.00011855305
0.00014085436
0.00016810993
0.00020147951
0.00024239191
0.00029262849
0.00035440541
0.00043048033
0.00052429449
0.00064015556
0.000783476
0.00096102934
0.001017688
0.0010172149
0.0010166776
0.0010160702
0.0010153847
0.0010146119
0.0010137376
0.0010127443
0.0010116113
0.0010103034
0.0010088302
0.0010073811
0.0010062706
0.0010054483
0.0010048732
0.0010044484
0.00100398
0.001003345
0.0010026105
0.0010011955
2.1439961e-07
8.2758605e-06
1.5066238e-05
1.3771493e-05
9.9288839e-06
9.5556075e-06
7.6799011e-06
8.8944265e-06
9.0486277e-06
1.0253319e-05
1.0708338e-05
1.0420462e-05
1.0209964e-05
9.9302779e-06
9.7570166e-06
9.5689318e-06
9.4800697e-06
9.4529691e-06
9.4798589e-06
9.5579544e-06
9.6831784e-06
9.8568373e-06
1.0078301e-05
1.0347459e-05
1.0668543e-05
1.104558e-05
1.1483268e-05
1.1989247e-05
1.2572464e-05
1.3246101e-05
1.4025572e-05
1.4926395e-05
1.5970401e-05
1.7182681e-05
1.8596537e-05
2.0252129e-05
2.2199662e-05
2.4500849e-05
2.7231203e-05
3.048272e-05
3.4369011e-05
3.9031576e-05
4.4647075e-05
5.1420971e-05
5.9616981e-05
6.9563897e-05
8.2379019e-05
9.720751e-05
0.00011529167
0.00013740045
0.00016445623
0.00019762261
0.0002383307
0.00028836519
0.00034994736
0.00042583988
0.00051948674
0.00063519168
0.00077834949
0.00095571067
0.0010171817
0.0010166699
0.0010160951
0.001015454
0.0010147392
0.0010139419
0.0010130469
0.0010120333
0.0010108821
0.0010095626
0.001008075
0.0010067349
0.0010057128
0.0010049637
0.0010044339
0.0010040242
0.0010035678
0.0010029461
0.001002176
0.0010008298
1.961415e-07
8.2347709e-06
1.3672501e-05
1.1984496e-05
8.0402093e-06
8.4770494e-06
6.8034067e-06
8.0274648e-06
8.3792823e-06
9.1687433e-06
9.5799417e-06
9.1771273e-06
8.973912e-06
8.6470662e-06
8.4650281e-06
8.3476356e-06
8.2916832e-06
8.2887589e-06
8.3329054e-06
8.4207648e-06
8.552869e-06
8.72699e-06
8.9453176e-06
9.2079382e-06
9.519295e-06
9.8838022e-06
1.0306307e-05
1.0794603e-05
1.1357399e-05
1.2007448e-05
1.2760493e-05
1.3632081e-05
1.4644082e-05
1.5821198e-05
1.7196477e-05
1.880976e-05
2.0710926e-05
2.2961511e-05
2.5637224e-05
2.8830333e-05
3.2654368e-05
3.7250212e-05
4.2797396e-05
4.9501142e-05
5.7627009e-05
6.7505224e-05
7.9543982e-05
9.4224322e-05
0.00011318271
0.00013528783
0.00016236905
0.00019560019
0.00023642378
0.00028663734
0.0003484791
0.00042473087
0.0005188563
0.00063517657
0.00077909273
0.00095735567
0.0010166879
0.0010161354
0.0010155214
0.0010148444
0.0010140976
0.0010132729
0.0010123551
0.0010113207
0.0010101509
0.0010088288
0.0010073504
0.0010061107
0.001005171
0.0010044904
0.0010040049
0.0010036101
0.0010031675
0.0010025704
0.0010017782
0.0010005037
1.8114747e-07
8.1887751e-06
1.0864941e-05
9.9829685e-06
6.5909274e-06
7.5413097e-06
6.1966598e-06
7.2079443e-06
7.8350171e-06
8.1816021e-06
8.4684461e-06
7.9575398e-06
7.7084067e-06
7.479732e-06
7.3440965e-06
7.2647913e-06
7.2369952e-06
7.2545337e-06
7.3138986e-06
7.4128122e-06
7.5491151e-06
7.7251079e-06
7.9422739e-06
8.2011467e-06
8.5062634e-06
8.8624688e-06
9.2748729e-06
9.7514743e-06
1.0300938e-05
1.0935665e-05
1.1612096e-05
1.2455258e-05
1.3436713e-05
1.4580747e-05
1.5920137e-05
1.7494433e-05
1.9353242e-05
2.1557962e-05
2.4184598e-05
2.7325944e-05
3.1096429e-05
3.5917328e-05
4.1452637e-05
4.8154146e-05
5.6289348e-05
6.619107e-05
7.8277725e-05
9.3040082e-05
0.00011109811
0.0001332264
0.00016184442
0.00019541148
0.00023667457
0.0002874541
0.00035001741
0.0004271805
0.00052244386
0.00064016811
0.00078578669
0.00096607332
0.0010162005
0.0010156055
0.0010149512
0.0010142371
0.0010134565
0.0010126019
0.0010116594
0.0010106044
0.0010094153
0.0010080945
0.0010066557
0.0010055088
0.0010046449
0.0010040287
0.0010035897
0.0010032143
0.0010027882
0.0010022324
0.0010014547
0.0010002279
1.6768855e-07
8.1416864e-06
8.567695e-06
8.4427852e-06
5.7707728e-06
6.6786598e-06
5.6846654e-06
6.4885373e-06
7.2825776e-06
7.2593809e-06
7.2623906e-06
6.8263741e-06
6.6224445e-06
6.4533062e-06
6.357013e-06
6.3092811e-06
6.3055946e-06
6.3417711e-06
6.4139862e-06
6.52224e-06
6.6651847e-06
6.8445006e-06
7.0627566e-06
7.3209588e-06
7.623727e-06
7.9420969e-06
8.3427278e-06
8.8068129e-06
9.3428758e-06
9.9628712e-06
1.0681208e-05
1.1516639e-05
1.249034e-05
1.3626657e-05
1.4958646e-05
1.6526235e-05
1.8379587e-05
2.0580843e-05
2.3207424e-05
2.6353954e-05
3.0137373e-05
3.4703966e-05
4.0233239e-05
4.6940852e-05
5.5098092e-05
6.5608045e-05
7.78544e-05
9.2830086e-05
0.00011116391
0.00013365096
0.00016126519
0.00019704885
0.00023907946
0.0002908172
0.00035457109
0.00043320715
0.00053028056
0.00065021378
0.00079850176
0.00098196458
0.001015713
0.0010150741
0.0010143793
0.0010136276
0.0010128126
0.0010119265
0.0010109572
0.0010098823
0.0010086749
0.0010073512
0.00100599
0.0010049297
0.0010041354
0.0010035798
0.0010031914
0.0010028443
0.0010024359
0.001001935
0.0010012324
0.0010000873
1.5566485e-07
8.084498e-06
6.8056284e-06
7.4055719e-06
5.1357496e-06
5.9004471e-06
5.24471e-06
5.8524992e-06
6.6240266e-06
6.214056e-06
6.1726629e-06
5.8361052e-06
5.6736236e-06
5.5525801e-06
5.4899185e-06
5.4695127e-06
5.4869799e-06
5.539822e-06
5.6251891e-06
5.7434808e-06
5.8940395e-06
6.0788347e-06
6.2742793e-06
6.5293038e-06
6.8284739e-06
7.1760308e-06
7.5791194e-06
8.0454032e-06
8.5836205e-06
9.2059205e-06
9.9268538e-06
1.0764937e-05
1.1742571e-05
1.288445e-05
1.4224157e-05
1.580235e-05
1.7670277e-05
1.9891307e-05
2.2544963e-05
2.5728689e-05
2.9562112e-05
3.4194471e-05
3.9813921e-05
4.6640969e-05
5.4954529e-05
6.5102062e-05
7.7516027e-05
9.2720499e-05
0.00011234289
0.00013537604
0.00016367478
0.00019847818
0.00024361954
0.00029671106
0.00036212848
0.00044280486
0.00054236898
0.00066532693
0.00081726743
0.001005087
0.0010152192
0.0010145359
0.0010138009
0.0010130119
0.0010121626
0.0010112445
0.0010102465
0.001009152
0.0010079326
0.0010065972
0.0010053523
0.0010043753
0.0010036457
0.0010031457
0.0010028108
0.0010025033
0.0010021134
0.0010016638
0.0010010848
0.001000019
1.4492862e-07
8.0130581e-06
5.4498513e-06
6.4614421e-06
4.572038e-06
5.2094835e-06
4.8681055e-06
5.2045918e-06
5.795012e-06
5.3050278e-06
5.2153504e-06
4.968823e-06
4.8453036e-06
4.7643985e-06
4.7315035e-06
4.7355754e-06
4.7728699e-06
4.8419109e-06
4.9406142e-06
5.0509589e-06
5.2049576e-06
5.3930158e-06
5.6174341e-06
5.8812191e-06
6.1887036e-06
6.544514e-06
6.9557181e-06
7.4306059e-06
7.9781371e-06
8.6106171e-06
9.34271e-06
1.0193146e-05
1.1134262e-05
1.2282507e-05
1.3630618e-05
1.5219943e-05
1.7102998e-05
1.9344419e-05
2.2025849e-05
2.5248018e-05
2.91342e-05
3.4094479e-05
3.9855554e-05
4.6864199e-05
5.5407943e-05
6.5842912e-05
7.8620259e-05
9.4284636e-05
0.00011350427
0.00013836818
0.00016757497
0.00020350423
0.00024772835
0.00030509423
0.00037264792
0.00045593162
0.00055866926
0.00068547112
0.00084205248
0.001015418
0.0010147137
0.0010139863
0.0010132119
0.0010123865
0.0010115039
0.0010105548
0.0010095272
0.0010084106
0.0010071914
0.0010058706
0.0010047433
0.0010038494
0.0010031808
0.0010027302
0.0010024464
0.0010021883
0.0010018223
0.0010014034
0.0010010056
0.00099996046
1.3534758e-07
7.8876066e-06
4.4140047e-06
5.6213309e-06
4.0673656e-06
4.5937779e-06
4.5376661e-06
4.5012691e-06
4.9574092e-06
4.4935973e-06
4.3848552e-06
4.2125231e-06
4.1260149e-06
4.0797781e-06
4.0739143e-06
4.1006192e-06
4.1568599e-06
4.2251494e-06
4.332247e-06
4.4696998e-06
4.6383843e-06
4.8398533e-06
5.0771002e-06
5.3533412e-06
5.6734775e-06
6.0424019e-06
6.4672472e-06
6.9358391e-06
7.4934265e-06
8.1366337e-06
8.8801546e-06
9.7427198e-06
1.074724e-05
1.1922514e-05
1.3302929e-05
1.4931106e-05
1.6861815e-05
1.9161972e-05
2.1916252e-05
2.5230199e-05
2.9232373e-05
3.4084898e-05
3.9984095e-05
4.717204e-05
5.5947362e-05
6.7237681e-05
8.0481989e-05
9.6728039e-05
0.00011667281
0.00014117694
0.00017291101
0.00021022676
0.00025616084
0.0003127189
0.0003860435
0.0004724929
0.00057907888
0.00071053714
0.00087273809
0.0010149314
0.0010141919
0.0010134223
0.0010126099
0.0010117494
0.0010108345
0.0010098565
0.0010088018
0.0010076601
0.0010064424
0.0010051842
0.0010041665
0.0010033559
0.0010027463
0.0010023387
0.0010020969
0.0010018897
0.0010015679
0.0010011847
0.0010009269
0.0010000019
1.2684243e-07
7.5708257e-06
3.6900591e-06
4.8753413e-06
3.6178873e-06
4.0480968e-06
4.0221453e-06
3.8647813e-06
4.149578e-06
3.7757762e-06
3.6726137e-06
3.5594198e-06
3.5075872e-06
3.4919304e-06
3.5107819e-06
3.5455758e-06
3.6138715e-06
3.7114437e-06
3.8375046e-06
3.992319e-06
4.1773992e-06
4.3948242e-06
4.6480117e-06
4.9404676e-06
5.2654985e-06
5.6482919e-06
6.0874401e-06
6.5911928e-06
7.1699212e-06
7.835984e-06
8.6044373e-06
9.4947406e-06
1.0530706e-05
1.1742178e-05
1.3165839e-05
1.4845795e-05
1.683962e-05
1.9217224e-05
2.2066558e-05
2.5499138e-05
2.9648306e-05
3.4683814e-05
4.0814022e-05
4.8290915e-05
5.7428621e-05
6.8612889e-05
8.3049782e-05
9.9996827e-05
0.00012080593
0.00014638389
0.00017782352
0.00021855282
0.00026649482
0.00032552007
0.00039819584
0.00049232094
0.00060340827
0.00074031486
0.00090909155
0.0010144272
0.0010136519
0.0010128422
0.0010119935
0.0010110997
0.001010154
0.0010091486
0.0010080723
0.0010069102
0.0010056824
0.0010045408
0.001003625
0.0010028965
0.0010023457
0.0010019767
0.001001765
0.0010015995
0.0010013405
0.00100102
0.001000758
0.0010000492
1.1948664e-07
7.1573888e-06
3.2394618e-06
4.2141219e-06
3.2174627e-06
3.4143256e-06
3.5654255e-06
3.2815057e-06
3.4187332e-06
3.1519844e-06
3.0695442e-06
3.003046e-06
2.9826932e-06
2.9943275e-06
3.0207045e-06
3.0842126e-06
3.1757749e-06
3.2942117e-06
3.4396539e-06
3.6131031e-06
3.8166205e-06
4.0525685e-06
4.3164141e-06
4.6256745e-06
4.9795582e-06
5.3838463e-06
5.8454886e-06
6.3730157e-06
6.9769932e-06
7.670538e-06
8.4691587e-06
9.3931058e-06
1.0467225e-05
1.1722792e-05
1.3142029e-05
1.4870433e-05
1.6923408e-05
1.9374339e-05
2.2449113e-05
2.6024825e-05
3.0351218e-05
3.5605539e-05
4.2009166e-05
4.9826528e-05
5.9386272e-05
7.1095346e-05
8.5453125e-05
0.00010307255
0.00012582066
0.00015262736
0.00018558006
0.00022610479
0.0002785712
0.00034039775
0.00041649661
0.00051515218
0.00063135286
0.00077445976
0.00095072537
0.0010139051
0.0010130937
0.0010122464
0.0010113631
0.0010104379
0.0010094634
0.0010084316
0.0010073371
0.0010061732
0.0010049544
0.0010039406
0.0010031203
0.0010024706
0.0010019787
0.0010016477
0.0010014579
0.0010013183
0.0010011136
0.0010008666
0.0010006333
0.0010000662
1.1354826e-07
6.2402777e-06
2.8542755e-06
3.6140237e-06
2.8699339e-06
2.8301976e-06
3.1108618e-06
2.7534147e-06
2.7913617e-06
2.6191074e-06
2.5642973e-06
2.5356002e-06
2.5360368e-06
2.5652317e-06
2.6259792e-06
2.7142047e-06
2.828035e-06
2.9673201e-06
3.1329489e-06
3.3263675e-06
3.5448336e-06
3.7994875e-06
4.0904624e-06
4.4218773e-06
4.7986524e-06
5.2267538e-06
5.7134349e-06
6.2675404e-06
6.8999462e-06
7.6074912e-06
8.4346899e-06
9.3900216e-06
1.0499295e-05
1.1794844e-05
1.3317109e-05
1.5116653e-05
1.7255994e-05
1.9813399e-05
2.2885994e-05
2.6593789e-05
3.1085807e-05
3.6808835e-05
4.3522899e-05
5.1726479e-05
6.1763553e-05
7.4061582e-05
8.9146113e-05
0.00010766375
0.00013160586
0.00015977772
0.00019440852
0.00023698831
0.00029216636
0.00035708651
0.00043697024
0.00053527478
0.00066246574
0.0008124577
0.00099705633
0.0010133676
0.0010125194
0.001011637
0.0010107206
0.0010097653
0.0010087648
0.0010077095
0.001006595
0.0010054386
0.0010042939
0.001003385
0.0010026526
0.0010020759
0.0010016422
0.0010013509
0.0010011799
0.0010010535
0.0010008894
0.0010007228
0.0010005332
0.0010000678
1.0862977e-07
4.3365374e-06
2.50632e-06
3.0579343e-06
2.4350328e-06
2.3406673e-06
2.6348905e-06
2.2837479e-06
2.2695233e-06
2.1704702e-06
2.1461971e-06
2.1428801e-06
2.1712828e-06
2.2308159e-06
2.3174283e-06
2.4287964e-06
2.5642725e-06
2.7243936e-06
2.9078092e-06
3.1206465e-06
3.3639509e-06
3.6406165e-06
3.9541614e-06
4.3088603e-06
4.7098645e-06
5.1633784e-06
5.6769294e-06
6.2502289e-06
6.9098225e-06
7.6631437e-06
8.5275977e-06
9.5247993e-06
1.0681986e-05
1.2033357e-05
1.3621785e-05
1.5500698e-05
1.7736496e-05
2.0411785e-05
2.3629325e-05
2.75166e-05
3.2231539e-05
3.7968805e-05
4.5303616e-05
5.3930488e-05
6.4490183e-05
7.7432009e-05
9.3308538e-05
0.00011280046
0.00013674585
0.00016766667
0.00020410865
0.00024890683
0.00030399329
0.00037523218
0.00045918916
0.00056246428
0.00069613371
0.0008535895
0.0010136947
0.0010128179
0.0010119329
0.0010110177
0.0010100698
0.001009085
0.0010080595
0.0010069873
0.0010058582
0.0010046933
0.0010036932
0.0010028761
0.0010022224
0.0010017112
0.0010013325
0.0010010822
0.0010009311
0.0010008123
0.0010006734
0.0010005712
0.0010004386
0.0010001089
1.0336396e-07
3.5756134e-06
2.1429865e-06
2.5469832e-06
2.0791029e-06
1.9319225e-06
2.1465476e-06
1.8723254e-06
1.8453914e-06
1.8017743e-06
1.8038405e-06
1.8314612e-06
1.8915234e-06
1.977729e-06
2.08771e-06
2.2206023e-06
2.3766683e-06
2.5550727e-06
2.7606572e-06
2.9945628e-06
3.2593559e-06
3.5581442e-06
3.8946408e-06
4.2732772e-06
4.6993712e-06
5.1793389e-06
5.7145673e-06
6.3246175e-06
7.0169046e-06
7.8059809e-06
8.7101455e-06
9.7522357e-06
1.0960968e-05
1.2372436e-05
1.4032056e-05
1.599668e-05
1.8336867e-05
2.1140041e-05
2.4514884e-05
2.8595657e-05
3.3548925e-05
3.9867023e-05
4.7291556e-05
5.6368487e-05
6.7483232e-05
8.1107742e-05
9.7822485e-05
0.0001183419
0.00014487507
0.00017608456
0.00021442689
0.00026155101
0.00031948168
0.00039438321
0.00048261494
0.0005911155
0.00073155621
0.00089689825
0.0010131612
0.0010122597
0.0010113401
0.0010103935
0.0010094164
0.0010084037
0.0010073517
0.0010062625
0.0010051462
0.0010040348
0.0010031437
0.0010024145
0.0010018309
0.0010013773
0.0010010479
0.0010008353
0.0010007053
0.0010005972
0.001000483
0.0010004332
0.0010003522
0.001000138
9.9496607e-08
2.8553985e-06
1.8288071e-06
2.0355959e-06
1.7848962e-06
1.5824709e-06
1.695938e-06
1.5238881e-06
1.5115716e-06
1.5117436e-06
1.5405908e-06
1.6012976e-06
1.6879336e-06
1.7970038e-06
1.9276015e-06
2.079957e-06
2.2540201e-06
2.4529605e-06
2.6783718e-06
2.9326055e-06
3.2184701e-06
3.5392478e-06
3.8987816e-06
4.3016163e-06
4.7531974e-06
5.2564915e-06
5.8249586e-06
6.4661126e-06
7.1920892e-06
8.0181098e-06
8.9634868e-06
1.0052342e-05
1.1315029e-05
1.2789646e-05
1.4524085e-05
1.6578551e-05
1.9028264e-05
2.1965511e-05
2.5505458e-05
2.9789761e-05
3.5224171e-05
4.161537e-05
4.9417098e-05
5.8959295e-05
7.0645753e-05
8.4972855e-05
0.00010254974
0.00012412608
0.00015198072
0.00018477365
0.00022505535
0.00027455081
0.00033538318
0.00041397345
0.00050656808
0.00062041351
0.0007677355
0.00094118771
0.0010126248
0.0010116998
0.0010107491
0.0010097723
0.0010087668
0.0010077297
0.0010066555
0.0010055422
0.0010044185
0.0010034456
0.0010026469
0.0010019981
0.0010014783
0.0010010762
0.0010007888
0.0010006076
0.0010004965
0.0010004028
0.0010003173
0.001000311
0.0010002778
0.001000139
9.7223596e-08
2.2261835e-06
1.5556315e-06
1.5498691e-06
1.513666e-06
1.2838421e-06
1.3293049e-06
1.2457613e-06
1.2609957e-06
1.2921376e-06
1.3544257e-06
1.4411335e-06
1.5492244e-06
1.6773631e-06
1.8258136e-06
1.9955992e-06
2.187578e-06
2.4047721e-06
2.6490237e-06
2.9229031e-06
3.2293585e-06
3.5717841e-06
3.9541183e-06
4.3809955e-06
4.8579561e-06
5.3917335e-06
5.9906252e-06
6.6649402e-06
7.4189594e-06
8.2823088e-06
9.2694155e-06
1.0405765e-05
1.1723461e-05
1.3262787e-05
1.5074144e-05
1.7290825e-05
1.9871405e-05
2.2968088e-05
2.6703078e-05
3.1226942e-05
3.6724864e-05
4.3424203e-05
5.1605344e-05
6.1612732e-05
7.386964e-05
8.8896437e-05
0.00010733154
0.00013109444
0.00015908004
0.00019343789
0.00023563329
0.0002874685
0.00035448599
0.00043333747
0.00053024588
0.00064939239
0.00080348097
0.00098502738
0.0010120933
0.0010111459
0.0010101692
0.0010091653
0.0010081313
0.0010070684
0.0010059797
0.001004873
0.0010037827
0.0010029154
0.0010022023
0.001001625
0.0010011633
0.001000808
0.0010005576
0.001000402
0.0010003072
0.0010002307
0.0010001762
0.0010002043
0.0010002135
0.0010001332
9.7339659e-08
1.6902089e-06
1.3251643e-06
1.1783435e-06
1.2407506e-06
1.0339284e-06
1.0601694e-06
1.0400824e-06
1.083797e-06
1.1445143e-06
1.2309629e-06
1.3373183e-06
1.4624963e-06
1.6066389e-06
1.770811e-06
1.9565234e-06
2.1653088e-06
2.3997677e-06
2.6620869e-06
2.9549434e-06
3.2813655e-06
3.6448187e-06
4.0493187e-06
4.4995905e-06
5.0012896e-06
5.5613015e-06
6.1881404e-06
6.8924495e-06
7.6876215e-06
8.5905854e-06
9.6227306e-06
1.0811135e-05
1.2189902e-05
1.3801891e-05
1.5700716e-05
1.795321e-05
2.0642447e-05
2.3871669e-05
2.7768454e-05
3.2490474e-05
3.8232121e-05
4.5232016e-05
5.3781272e-05
6.4239644e-05
7.7047756e-05
9.3514965e-05
0.00011291543
0.00013671178
0.00016591304
0.00020176011
0.00024577713
0.00030265343
0.0003695542
0.00045174428
0.00055276173
0.00068354974
0.0008374531
0.0010125523
0.0010115782
0.0010106072
0.0010096089
0.0010085846
0.0010075287
0.0010064396
0.001005323
0.0010042112
0.001003239
0.0010024497
0.0010018101
0.0010012948
0.0010008853
0.0010005732
0.0010003569
0.0010002246
0.0010001452
0.0010000861
0.0010000593
0.001000111
0.0010001539
0.0010001263
1.0065352e-07
1.2528964e-06
1.1343034e-06
9.0673287e-07
1.0817522e-06
8.2787619e-07
8.7534841e-07
9.0048122e-07
9.6707439e-07
1.0510147e-06
1.1549547e-06
1.2764047e-06
1.4157358e-06
1.5739434e-06
1.7525048e-06
1.9531485e-06
2.1778383e-06
2.4286128e-06
2.7081262e-06
3.0190269e-06
3.3644011e-06
3.7477795e-06
4.1732566e-06
4.6456572e-06
5.1707656e-06
5.7556357e-06
6.4090096e-06
7.1418867e-06
7.9681516e-06
8.9054323e-06
9.9760235e-06
1.1208219e-05
1.2637682e-05
1.4309254e-05
1.6279032e-05
1.8616947e-05
2.1409827e-05
2.4765148e-05
2.8815615e-05
3.3724771e-05
3.9965082e-05
4.7300985e-05
5.6257976e-05
6.7211125e-05
8.0619869e-05
9.7048028e-05
0.00011718787
0.00014188941
0.00017219346
0.00021134189
0.00025734076
0.00031380737
0.00038315272
0.00046835255
0.00057867335
0.00070842334
0.00086805137
0.0010120887
0.0010110949
0.001010098
0.001009078
0.0010080355
0.0010069667
0.0010058707
0.0010047541
0.0010036573
0.0010027765
0.0010020543
0.0010014747
0.0010010123
0.0010006489
0.0010003764
0.0010001903
0.0010000796
0.0010000148
0.00099997286
0.00099997028
0.00100004
0.0010001116
0.0010001148
1.0727178e-07
9.6700141e-07
9.6786792e-07
7.6704044e-07
7.7058606e-07
7.0586882e-07
7.5157986e-07
8.1205638e-07
8.959992e-07
9.9616043e-07
1.1132512e-06
1.2471673e-06
1.3989709e-06
1.5699839e-06
1.7618066e-06
1.9762239e-06
2.2152286e-06
2.4810385e-06
2.7761351e-06
3.1033083e-06
3.4657222e-06
3.8670035e-06
4.3113663e-06
4.8037891e-06
5.3502603e-06
5.9559582e-06
6.6330434e-06
7.391498e-06
8.2531325e-06
9.2246139e-06
1.0334295e-05
1.1611798e-05
1.3094431e-05
1.4829026e-05
1.6874118e-05
1.9302561e-05
2.2204712e-05
2.5692304e-05
2.9903152e-05
3.5006952e-05
4.1212376e-05
4.8775784e-05
5.8011718e-05
6.930418e-05
8.3126041e-05
0.00010005659
0.0001218822
0.00014752096
0.00017895711
0.00021751799
0.00026483596
0.00032292432
0.00039426626
0.00048651075
0.00059507124
0.00072860363
0.00089299782
0.0010116768
0.0010106633
0.0010096425
0.0010085994
0.0010075349
0.001006447
0.0010053388
0.0010042302
0.0010032133
0.0010023981
0.0010017334
0.0010012027
0.0010007845
0.0010004606
0.0010002243
0.0010000611
0.00099996659
0.00099991128
0.000999882
0.00099989597
0.00099997412
0.0010000644
0.0010000923
1.2189896e-07
9.7367342e-07
8.0743597e-07
5.6850797e-07
6.1214328e-07
6.1509474e-07
6.7912126e-07
7.5849483e-07
8.5601893e-07
9.6841364e-07
1.0966699e-06
1.2416125e-06
1.4045377e-06
1.5868608e-06
1.7902055e-06
2.0163782e-06
2.267397e-06
2.5455169e-06
2.8532659e-06
3.1934893e-06
3.5694105e-06
3.9847177e-06
4.4436871e-06
4.9513605e-06
5.513797e-06
6.1384172e-06
6.8344603e-06
7.6135691e-06
8.4905311e-06
9.4841616e-06
1.0618364e-05
1.1923456e-05
1.3437666e-05
1.5208992e-05
1.7297395e-05
1.9777456e-05
2.2741599e-05
2.6303988e-05
3.0605269e-05
3.5818389e-05
4.2155805e-05
5.0235842e-05
5.9736895e-05
7.134751e-05
8.5551971e-05
0.00010294305
0.00012424851
0.00015036215
0.00018238247
0.0002216591
0.0002698582
0.00033207146
0.0004052821
0.0004952378
0.00060585917
0.00074202322
0.00090980592
0.0010113357
0.0010103053
0.0010092647
0.0010082025
0.0010071196
0.0010060156
0.0010048974
0.0010037981
0.0010028633
0.001002103
0.0010014878
0.0010009969
0.0010006136
0.0010003237
0.0010001122
0.00099996667
0.00099988088
0.00099982873
0.00099980486
0.00099982546
0.00099990477
0.0010000041
0.0010000473
1.1178124e-07
6.28344e-07
6.3993604e-07
4.7073622e-07
5.1349123e-07
5.5956304e-07
6.3879148e-07
7.3188006e-07
8.4013982e-07
9.6289129e-07
1.1012123e-06
1.2561574e-06
1.4290482e-06
1.6213531e-06
1.8347271e-06
2.071021e-06
2.3323054e-06
2.620862e-06
2.939328e-06
3.2905939e-06
3.6779476e-06
4.1051421e-06
4.5765188e-06
5.0971868e-06
5.6732778e-06
6.3122969e-06
7.0235879e-06
7.8189347e-06
8.7204975e-06
9.7362328e-06
1.0895422e-05
1.2229095e-05
1.3776318e-05
1.5586093e-05
1.7719568e-05
2.0252745e-05
2.3279734e-05
2.6916722e-05
3.1306816e-05
3.6625945e-05
4.3090057e-05
5.0963831e-05
6.0571319e-05
7.2310791e-05
8.6669873e-05
0.000104247
0.00012577682
0.00015349733
0.0001860835
0.00022603897
0.00027505744
0.00033522758
0.000409134
0.00049998184
0.00061175699
0.00074943324
0.00091922701
0.0010110856
0.0010100418
0.001008985
0.0010079061
0.0010068069
0.0010056893
0.001004564
0.0010034738
0.0010025992
0.0010018835
0.0010013093
0.0010008515
0.0010004899