/*--------------------------------*- C++ -*----------------------------------*\
  =========                 |
  \\      /  F ield         | OpenFOAM: The Open Source CFD Toolbox
   \\    /   O peration     | Website:  https://openfoam.org
    \\  /    A nd           | Version:  12
     \\/     M anipulation  |
\*---------------------------------------------------------------------------*/
FoamFile
{
    format      ascii;
    class       surfaceScalarField;
    location    "0.088";
    object      phi;
}
// * * * * * * * * * * * * * * * * * * * * * * * * * * * * * * * * * * * * * //

dimensions      [1 0 -1 0 0 0 0];

internalField   nonuniform List<scalar> 
31760
(
-0.00063287937
-0.050816969
0.051450152
-0.0015886591
-0.064233887
0.065189609
-0.0025732913
-0.0628681
0.063856916
-0.0035851261
-0.068535408
0.069547029
-0.0046512048
-0.07020661
0.071272581
-0.0057460318
-0.074466463
0.07556115
-0.006909583
-0.077390504
0.078553992
-0.0081127151
-0.081392391
0.082595451
-0.0093750218
-0.085010288
0.086272547
-0.010696202
-0.089123026
0.09044416
-0.012072311
-0.093251742
0.094627815
-0.013515445
-0.097657802
0.099100896
-0.015020059
-0.10222777
0.10373234
-0.016594464
-0.10702386
0.10859821
-0.018238181
-0.11203479
0.11367845
-0.019955949
-0.1172772
0.11899489
-0.021750399
-0.12275912
0.12455347
-0.023624708
-0.12849196
0.13036613
-0.025582086
-0.1344867
0.1364439
-0.027625901
-0.1407546
0.1427982
-0.029759551
-0.14730802
0.14944141
-0.031986762
-0.15415895
0.15638582
-0.034311087
-0.16132093
0.16364485
-0.03673639
-0.16880767
0.17123249
-0.039265595
-0.17663369
0.17916231
-0.041903232
-0.1848131
0.18745005
-0.044653139
-0.19336215
0.19611124
-0.047518683
-0.20229744
0.20516203
-0.050503295
-0.21163591
0.21461942
-0.053610953
-0.22139567
0.22450205
-0.056844888
-0.23159567
0.23482813
-0.060208352
-0.24225578
0.24561754
-0.063704069
-0.25339753
0.25689131
-0.06733499
-0.26504213
0.26867083
-0.071102999
-0.27721372
0.28097921
-0.075009643
-0.28993671
0.2938405
-0.079056126
-0.30323694
0.3072802
-0.08324279
-0.31714227
0.3213253
-0.08756931
-0.33168087
0.3360033
-0.092034224
-0.34688441
0.35134473
-0.09663538
-0.3627849
0.3673809
-0.1013692
-0.37941644
0.38414446
-0.10623091
-0.3968154
0.40167062
-0.11121454
-0.41502009
0.41999646
-0.11631221
-0.43407132
0.43916086
-0.1215146
-0.45401128
0.45920462
-0.12681
-0.47488552
0.48017087
-0.13218537
-0.49674112
0.50210532
-0.13762508
-0.51962895
0.52505629
-0.14311075
-0.54360169
0.54907367
-0.1486213
-0.56871471
0.57421013
-0.15413319
-0.59502707
0.6005223
-0.15961909
-0.62260024
0.62806779
-0.16504809
-0.651499
0.65690787
-0.17038586
-0.68179119
0.68710688
-0.17559266
-0.71354886
0.71873152
-0.1806247
-0.74684682
0.75185251
-0.18543296
-0.78176382
0.78654338
-0.18996152
-0.81838295
0.82288035
-0.19414877
-0.85679074
0.86094428
-0.19792527
-0.8970775
0.90081772
-0.20121389
-0.93933691
0.9425867
-0.20392801
-0.98366602
0.98633878
-0.20597102
-1.030164
1.0321631
-0.20723496
-1.0789305
1.0801477
-0.2076
-1.1300676
1.1303824
-0.20693138
-1.1836787
1.1829549
-0.20508547
-1.2398694
1.2379616
-0.2018973
-1.2987569
1.2954982
-0.19718087
-1.3604649
1.3556683
-0.1907327
-1.4251248
1.4185875
-0.18232842
-1.4928698
1.4843705
-0.17170799
-1.5638337
1.5531168
-0.15860205
-1.6381321
1.624932
-0.14270467
-1.7158731
1.699886
-0.12369498
-1.797177
1.7780844
-0.10123828
-1.8821424
1.8596118
-0.074953842
-1.9707213
1.944364
-0.044242218
-2.0632847
2.0325461
-2.1603947
2.1251829
-0.00062921284
-0.050187281
-0.0014917784
-0.063371388
-0.0023755515
-0.061986013
-0.0033288725
-0.067581996
-0.0042924125
-0.069242919
-0.0053332858
-0.073425518
-0.0063887116
-0.07633497
-0.0075239908
-0.080257052
-0.0086846035
-0.083849612
-0.0099193584
-0.087888235
-0.011196631
-0.091974446
-0.01254103
-0.096313404
-0.013942456
-0.10082636
-0.015410031
-0.10555633
-0.01694391
-0.11050099
-0.018548239
-0.11567299
-0.020225194
-0.12108232
-0.021978528
-0.12673882
-0.023811443
-0.13265403
-0.025727498
-0.13883885
-0.02773033
-0.14530557
-0.029823164
-0.15206656
-0.032010078
-0.15913455
-0.034294728
-0.16652365
-0.036681876
-0.17424728
-0.039174297
-0.18232154
-0.041776643
-0.19076079
-0.044492606
-0.19958262
-0.047326418
-0.20880341
-0.0502816
-0.21844199
-0.053362172
-0.22851681
-0.056571401
-0.2390485
-0.059912518
-0.25005863
-0.063388432
-0.26156871
-0.067001481
-0.2736035
-0.070753895
-0.28618748
-0.074646743
-0.29934766
-0.078681422
-0.3131116
-0.08285717
-0.32750961
-0.087173467
-0.34257314
-0.091628592
-0.3583354
-0.096219324
-0.37483199
-0.10094117
-0.39210058
-0.10578894
-0.41018016
-0.11075541
-0.42911357
-0.1158319
-0.44894448
-0.12100806
-0.46972011
-0.12627115
-0.49148993
-0.1316068
-0.51430646
-0.13699838
-0.53822465
-0.14242646
-0.56330266
-0.147869
-0.58960221
-0.15330077
-0.61718789
-0.15869355
-0.64612755
-0.16401534
-0.67649276
-0.16923003
-0.70835973
-0.17429742
-0.74180737
-0.1791723
-0.77691939
-0.18380382
-0.81378457
-0.18813566
-0.85249481
-0.19210442
-0.89314749
-0.19563946
-0.93584344
-0.19866136
-0.98068843
-0.20108262
-1.0277897
-0.20280428
-1.0772586
-0.20371778
-1.1292073
-0.20369852
-1.1837556
-0.20261274
-1.2410191
-0.20031148
-1.3011304
-0.19662754
-1.3642309
-0.19137659
-1.4304676
-0.1843488
-1.4999971
-0.17531254
-1.5729731
-0.16401246
-1.6495346
-0.15017721
-1.7298066
-0.13350942
-1.8139348
-0.11370562
-1.9020267
-0.090401051
-1.9940969
-0.063094731
-2.0906218
-2.1918473
-0.00056787845
-0.049618919
-0.0013726003
-0.062566583
-0.0021757266
-0.06118281
-0.0030722187
-0.066685408
-0.0039575248
-0.068357479
-0.0049292435
-0.072453733
-0.0059019373
-0.075362198
-0.0069580409
-0.079200916
-0.008032798
-0.082774828
-0.0091802407
-0.086740798
-0.010367028
-0.090787683
-0.011617481
-0.095063006
-0.012922463
-0.099521463
-0.014290285
-0.10418863
-0.015721587
-0.10906985
-0.01721994
-0.11417483
-0.01878867
-0.11951383
-0.020430699
-0.12509709
-0.022150271
-0.13093481
-0.02395018
-0.13703936
-0.025834883
-0.14342136
-0.027807871
-0.15009415
-0.029872991
-0.1570701
-0.032034991
-0.16436243
-0.034297104
-0.17198606
-0.036664496
-0.17995518
-0.039140573
-0.18828589
-0.041730351
-0.19699418
-0.044437327
-0.20609797
-0.047266587
-0.21561447
-0.050221173
-0.22556419
-0.053305333
-0.23596656
-0.056522788
-0.24684367
-0.059876132
-0.25821817
-0.063368854
-0.27011392
-0.067003016
-0.28255684
-0.070780743
-0.29557388
-0.074702435
-0.30919431
-0.078768987
-0.32344798
-0.08297976
-0.33836786
-0.087332844
-0.35398846
-0.091825994
-0.37034569
-0.096455707
-0.38747848
-0.1012164
-0.40542793
-0.10610195
-0.4242374
-0.11110428
-0.44395255
-0.11621407
-0.46462182
-0.12141935
-0.48629737
-0.12670751
-0.50903235
-0.13206288
-0.53288476
-0.13746733
-0.55791528
-0.14290148
-0.58418682
-0.14834212
-0.61176786
-0.15376347
-0.6407288
-0.15913656
-0.67114444
-0.16442872
-0.70309468
-0.1696037
-0.73666202
-0.17461974
-0.77193567
-0.1794319
-0.80900761
-0.1839883
-0.84797664
-0.18823215
-0.88894495
-0.19209918
-0.93202085
-0.19551847
-0.97731661
-0.19840983
-1.0249488
-0.20068394
-1.0750379
-0.2022403
-1.1277077
-0.20297153
-1.1830854
-0.20275271
-1.2413047
-0.20144581
-1.3025118
-0.19890426
-1.3668565
-0.19495533
-1.4345106
-0.18941558
-1.5056395
-0.1820703
-1.5804263
-0.17269173
-1.6590224
-0.16102749
-1.7415768
-0.14681123
-1.8282486
-0.12976583
-1.9191589
-0.10954849
-2.014386
-0.08573112
-2.1144731
-2.2194451
-0.00051206337
-0.049106492
-0.001256835
-0.061821808
-0.0019868716
-0.060452328
-0.0028316085
-0.065840676
-0.0036514388
-0.067537603
-0.004557256
-0.071547935
-0.0054537381
-0.074465713
-0.0064372611
-0.078217436
-0.0074325752
-0.081779558
-0.0085000293
-0.08567342
-0.0096037552
-0.089684053
-0.010768288
-0.0938986
-0.011985507
-0.098304402
-0.013262711
-0.10291162
-0.014601549
-0.10773124
-0.01600577
-0.11277089
-0.017478656
-0.11804128
-0.01902357
-0.12355257
-0.020643967
-0.12931487
-0.022344179
-0.13533968
-0.024127357
-0.1416388
-0.025998544
-0.14822368
-0.027961623
-0.15510784
-0.030020557
-0.16230443
-0.032180467
-0.16982722
-0.034445272
-0.17769158
-0.036819966
-0.18591257
-0.039308841
-0.19450686
-0.041917293
-0.20349127
-0.044648616
-0.21288512
-0.047507867
-0.22270716
-0.050499325
-0.23297759
-0.053626594
-0.24371919
-0.056893452
-0.25495444
-0.060303196
-0.26670766
-0.063858166
-0.27900576
-0.067560448
-0.29187594
-0.071411827
-0.30534777
-0.075412517
-0.31945268
-0.079562425
-0.33422396
-0.083860806
-0.34969676
-0.088304848
-0.36590907
-0.092891608
-0.38289996
-0.097616591
-0.40071208
-0.10247375
-0.41939034
-0.10745649
-0.43898098
-0.11255503
-0.45953561
-0.11776039
-0.48110562
-0.12305974
-0.503748
-0.12843943
-0.52752158
-0.13388384
-0.55248903
-0.13937441
-0.57871621
-0.14489099
-0.60627318
-0.15041086
-0.63523293
-0.15590714
-0.66567445
-0.1613517
-0.69767888
-0.16671139
-0.73133376
-0.17194975
-0.76673163
-0.1770261
-0.80396865
-0.18189458
-0.84314881
-0.18650419
-0.88437939
-0.19079778
-0.92777473
-0.19471189
-0.97345337
-0.19817491
-1.02154
-0.20110703
-1.0721633
-0.20342096
-1.1254548
-0.20501197
-1.1815597
-0.20577497
-1.2406126
-0.20558263
-1.3027824
-0.20430394
-1.3682222
-0.20178689
-1.4371241
-0.1978553
-1.509676
-0.19233068
-1.586062
-0.18499896
-1.6664679
-0.17563875
-1.7510491
-0.1640111
-1.8399808
-0.14985527
-1.9334076
-0.13285183
-2.0314631
-0.11264355
-2.1347187
-2.2430781
-0.00045709801
-0.048649087
-0.0011552271
-0.061123724
-0.0018077192
-0.059799846
-0.0025972341
-0.065051211
-0.0033438913
-0.066790932
-0.0041924471
-0.070699434
-0.0050226269
-0.073635571
-0.0059414579
-0.077298691
-0.006865943
-0.080855166
-0.0078611427
-0.08467835
-0.008891392
-0.088653958
-0.0099799034
-0.092810279
-0.011120747
-0.097163786
-0.012320117
-0.10171252
-0.0135804
-0.10647128
-0.014904692
-0.11144696
-0.016296747
-0.11664965
-0.017760336
-0.12208947
-0.019299142
-0.12777664
-0.020917184
-0.13372229
-0.022619161
-0.13993757
-0.024408401
-0.14643528
-0.026290394
-0.15322681
-0.028269698
-0.16032622
-0.030350805
-0.16774734
-0.032538953
-0.17550483
-0.034839311
-0.18361378
-0.037256771
-0.19209116
-0.039796206
-0.20095381
-0.042462762
-0.21022078
-0.045261252
-0.21991115
-0.048196077
-0.23004553
-0.05127152
-0.24064684
-0.054491853
-0.25173755
-0.057860147
-0.26334322
-0.061379395
-0.2754908
-0.065052001
-0.2882081
-0.068879762
-0.30152532
-0.072863323
-0.31547502
-0.077002961
-0.33009087
-0.081297515
-0.34540947
-0.085745691
-0.36146894
-0.090344084
-0.37831048
-0.095088892
-0.39597711
-0.099975538
-0.41451457
-0.10499694
-0.43397158
-0.11014577
-0.4544
-0.11541283
-0.47585313
-0.12078734
-0.49838952
-0.1262577
-0.52206885
-0.13180939
-0.54695669
-0.13742699
-0.57311985
-0.14309248
-0.60063098
-0.1487856
-0.62956533
-0.1544841
-0.66000387
-0.16016235
-0.69203116
-0.16579137
-0.72573811
-0.1713401
-0.76121933
-0.17677229
-0.79857619
-0.18204842
-0.83791589
-0.18712334
-0.87935135
-0.19194719
-0.9230015
-0.19646378
-0.9689912
-0.20061065
-1.0174513
-0.20431763
-1.0685183
-0.20750473
-1.1223337
-0.21008727
-1.1790478
-0.21195994
-1.2388162
-0.2130228
-1.3018028
-0.21314336
-1.368193
-0.21219479
-1.4381724
-0.21002458
-1.5119536
-0.20646662
-1.589733
-0.20133722
-1.6717136
-0.19443451
-1.7580677
-0.18554444
-1.8489805
-0.17443973
-1.9446099
-0.16080978
-2.0451689
-0.14436274
-2.1512066
-2.262594
-0.00040715245
-0.048241685
-0.0010643457
-0.060466601
-0.0016547036
-0.059209439
-0.0023866696
-0.064319323
-0.0030582403
-0.066119411
-0.0038558511
-0.069901925
-0.0046201062
-0.072871409
-0.0054801985
-0.076438739
-0.0063422927
-0.079993223
-0.0072760381
-0.083744797
-0.008246311
-0.087683905
-0.0092728444
-0.091784006
-0.010352025
-0.096084906
-0.011488517
-0.10057637
-0.012685156
-0.10527504
-0.013945787
-0.11018679
-0.015273903
-0.11532206
-0.01667336
-0.12069061
-0.018148637
-0.12630204
-0.0197037
-0.132168
-0.021343617
-0.13829852
-0.023073168
-0.14470672
-0.024897462
-0.15140362
-0.026821563
-0.15840336
-0.02885104
-0.16571927
-0.030991656
-0.17336578
-0.03324809
-0.18135911
-0.035626583
-0.18971465
-0.038132367
-0.19845023
-0.040770743
-0.20758487
-0.043547217
-0.21713743
-0.046466274
-0.22712954
-0.04953321
-0.23758332
-0.052751221
-0.24852335
-0.056124705
-0.25997396
-0.059656886
-0.27196331
-0.063349854
-0.28452035
-0.067205484
-0.29767548
-0.07122521
-0.31146171
-0.075408993
-0.3259142
-0.07975662
-0.34106972
-0.084265988
-0.35696828
-0.08893527
-0.37365081
-0.093761129
-0.39116186
-0.098738419
-0.40954897
-0.10386199
-0.42886089
-0.10912601
-0.44915014
-0.1145216
-0.47047312
-0.12004077
-0.49288748
-0.12567211
-0.51645632
-0.131405
-0.54124442
-0.1372255
-0.56732197
-0.14311864
-0.59476262
-0.14906742
-0.62364366
-0.15505266
-0.6540483
-0.1610528
-0.68606345
-0.16704438
-0.71978195
-0.17299969
-0.7553027
-0.17888868
-0.79272937
-0.18467688
-0.8321736
-0.19032674
-0.87375133
-0.19579507
-0.91758709
-0.20103396
-0.96381038
-0.20598927
-1.0125583
-0.21060022
-1.063974
-0.21479837
-1.1182067
-0.21850695
-1.1754156
-0.22164207
-1.2357635
-0.22410183
-1.2994325
-0.22578559
-1.3666064
-0.22656997
-1.4374925
-0.22632581
-1.5123083
-0.2249086
-1.5912653
-0.22215527
-1.6745847
-0.21788844
-1.7624521
-0.2119231
-1.8550581
-0.20404577
-1.9525876
-0.19398335
-2.0553099
-0.18148984
-2.1637446
-2.277811
-0.00036478281
-0.047876708
-0.00099136429
-0.059840124
-0.0015269811
-0.058673823
-0.0022119549
-0.063634464
-0.0028241901
-0.065507256
-0.0035749196
-0.069151343
-0.0042833005
-0.072163185
-0.0050824607
-0.075639768
-0.005902862
-0.079173029
-0.0067907114
-0.082857195
-0.0077154033
-0.086759494
-0.0086928945
-0.090806839
-0.0097228093
-0.095055361
-0.010809148
-0.099490458
-0.011955955
-0.10412871
-0.013166689
-0.1089766
-0.014446189
-0.11404317
-0.015798524
-0.11933897
-0.01722847
-0.12487288
-0.018741397
-0.13065595
-0.020341881
-0.13669903
-0.022036095
-0.14301362
-0.023829219
-0.14961175
-0.025726907
-0.15650708
-0.027735467
-0.16371228
-0.029860488
-0.17124252
-0.032108799
-0.17911277
-0.034485896
-0.18733975
-0.036997439
-0.19594114
-0.039649956
-0.20493508
-0.042448367
-0.21434206
-0.04539817
-0.22418312
-0.048503946
-0.2344813
-0.051770711
-0.24526075
-0.055201418
-0.25654789
-0.058799627
-0.26837024
-0.062568342
-0.28075733
-0.066509133
-0.29374099
-0.070623009
-0.30735481
-0.074910502
-0.32163442
-0.079371455
-0.33661728
-0.084004499
-0.35234463
-0.088807966
-0.36885769
-0.093778592
-0.38620264
-0.098913362
-0.40442675
-0.10420764
-0.42358041
-0.1096559
-0.44371706
-0.11525256
-0.46489313
-0.1209896
-0.48716872
-0.12685958
-0.5106064
-0.13285244
-0.53527354
-0.13895788
-0.56124061
-0.14516423
-0.58858261
-0.15145748
-0.61737923
-0.15782262
-0.64771466
-0.16424202
-0.67967848
-0.17069665
-0.71336492
-0.17716443
-0.74887595
-0.18362045
-0.78631809
-0.19003726
-0.82580551
-0.19638289
-0.86745863
-0.2026223
-0.911405
-0.20871523
-0.95777928
-0.21461682
-1.0067232
-0.22027627
-1.0583858
-0.2256355
-1.112924
-0.23062959
-1.1705039
-0.23518595
-1.2312962
-0.23921898
-1.295496
-0.24263608
-1.3632933
-0.24533861
-1.4349005
-0.24721091
-1.5105511
-0.24812715
-1.5904666
-0.24795402
-1.6748765
-0.24653142
-1.7639926
-0.24369733
-1.8580049
-0.23926979
-1.9571163
-0.23300444
-2.0616563
-0.22468936
-2.1721074
-2.2885152
-0.00032230058
-0.047554261
-0.00092393601
-0.059238623
-0.0014106825
-0.058187116
-0.0020500754
-0.062995219
-0.0026175165
-0.064939935
-0.0033394411
-0.068429607
-0.0040146971
-0.071488107
-0.0047976442
-0.074857047
-0.0055794909
-0.078391436
-0.006422161
-0.082014823
-0.0073055523
-0.085876439
-0.0082410616
-0.089871713
-0.0092312231
-0.094065634
-0.010279421
-0.098442751
-0.011390095
-0.10301859
-0.012567805
-0.10779952
-0.013816496
-0.11279519
-0.015142131
-0.11801413
-0.016549522
-0.12346638
-0.018044322
-0.12916215
-0.019632344
-0.13511213
-0.021319559
-0.14132766
-0.023112237
-0.14782047
-0.025017576
-0.15460331
-0.027040995
-0.16169061
-0.029189922
-0.16909555
-0.031470428
-0.17683444
-0.03388927
-0.18492333
-0.036452871
-0.19338024
-0.039167199
-0.20222375
-0.042037888
-0.21147471
-0.045070568
-0.22115415
-0.048270257
-0.23128573
-0.051640889
-0.24189469
-0.055186582
-0.25300725
-0.058910719
-0.2646517
-0.062815361
-0.27685888
-0.06690265
-0.28966054
-0.071173812
-0.30309121
-0.075629313
-0.31718725
-0.080268897
-0.33198688
-0.085092468
-0.34753117
-0.090097865
-0.36386343
-0.09528345
-0.38102929
-0.10064667
-0.39907698
-0.10618414
-0.41805771
-0.11189223
-0.4380252
-0.11776658
-0.45903657
-0.12380198
-0.48115283
-0.12999261
-0.50443714
-0.13633211
-0.52895744
-0.14281239
-0.55478594
-0.14942511
-0.58199789
-0.15616027
-0.61067469
-0.16300691
-0.64090147
-0.16995243
-0.67276947
-0.17698188
-0.70637534
-0.18407889
-0.74182246
-0.19122475
-0.77921968
-0.19839791
-0.81868401
-0.20557395
-0.86033872
-0.21272512
-0.90431465
-0.21981956
-0.95075053
-0.22682172
-0.99979174
-0.2336901
-1.0515935
-0.24037864
-1.1063174
-0.24683367
-1.1641374
-0.25299306
-1.2252328
-0.25878912
-1.289804
-0.26414692
-1.3580473
-0.26897107
-1.4301941
-0.27317573
-1.5064673
-0.2766508
-1.5871129
-0.27928285
-1.6723647
-0.28094035
-1.7624529
-0.28148507
-1.8575722
-0.28075384
-1.9579471
-0.27854058
-2.0639467
-0.27467114
-2.1760264
-2.2944388
-0.00028084708
-0.04727331
-0.0008637699
-0.058655858
-0.0013097058
-0.057741253
-0.0019257135
-0.062379389
-0.0024711821
-0.064394616
-0.0031685957
-0.067732403
-0.0038179995
-0.07083892
-0.0045780155
-0.074097322
-0.0053308578
-0.077638896
-0.0061418764
-0.081204153
-0.0069989187
-0.085019788
-0.0079086251
-0.088962449
-0.0088759372
-0.09309882
-0.0099042471
-0.097415002
-0.010998636
-0.10192483
-0.012163925
-0.10663494
-0.013405771
-0.11155414
-0.014729569
-0.11669122
-0.016141311
-0.12205563
-0.017647741
-0.12765684
-0.019254866
-0.13350625
-0.020970173
-0.13961374
-0.022799989
-0.14599222
-0.024751648
-0.15265339
-0.026832663
-0.15961153
-0.029049744
-0.16688063
-0.031410336
-0.17447625
-0.03392121
-0.18241513
-0.036588701
-0.19071572
-0.0394195
-0.19939625
-0.042419546
-0.20847832
-0.045593769
-0.21798398
-0.048946917
-0.22793707
-0.052483664
-0.23836291
-0.056207553
-0.24928886
-0.060121222
-0.26074411
-0.064227438
-0.27275937
-0.068527964
-0.28536741
-0.073023747
-0.29860357
-0.077715778
-0.31250419
-0.08260398
-0.32710855
-0.087687957
-0.34245804
-0.092967372
-0.35859594
-0.098441513
-0.37556825
-0.10410865
-0.39342423
-0.1099673
-0.41221483
-0.11601538
-0.43199442
-0.12225066
-0.45282025
-0.12867063
-0.47475363
-0.13527177
-0.49785872
-0.14205082
-0.52220326
-0.14900355
-0.5478604
-0.15612481
-0.57490635
-0.16340922
-0.60342275
-0.17084975
-0.63349639
-0.1784387
-0.66521923
-0.18616621
-0.69869007
-0.19402222
-0.73401253
-0.20199355
-0.77129859
-0.21006534
-0.81066691
-0.21822078
-0.8522427
-0.22643991
-0.89615993
-0.2346998
-0.94256027
-0.24297327
-0.99159336
-0.25123048
-1.0434172
-0.25943531
-1.0981999
-0.26754771
-1.1561195
-0.2755176
-1.2173657
-0.28329202
-1.282141
-0.29080433
-1.3506544
-0.29798851
-1.423135
-0.30476671
-1.4998162
-0.31105599
-1.5809493
-0.31675788
-1.6667853
-0.32176638
-1.7575627
-0.32596529
-1.8534843
-0.32921195
-1.9547971
-0.33134264
-2.0618901
-0.33220991
-2.1752088
-2.2952384
-0.0002429415
-0.047030309
-0.00081496535
-0.05808402
-0.0012314602
-0.057324866
-0.001869882
-0.061741168
-0.00240111
-0.063863574
-0.0030790959
-0.067054668
-0.0037060319
-0.070212252
-0.0044250919
-0.073378568
-0.0051642767
-0.07690006
-0.0059598249
-0.080409004
-0.0068073001
-0.084172759
-0.0077094114
-0.088060841
-0.0086733617
-0.092135434
-0.0097030506
-0.096385946
-0.010804232
-0.10082436
-0.01198265
-0.10545731
-0.013244528
-0.11029315
-0.014596526
-0.11534022
-0.016045409
-0.12060786
-0.017597854
-0.12610563
-0.019262439
-0.13184305
-0.021045563
-0.13783216
-0.02295603
-0.14408347
-0.025001046
-0.15061029
-0.027188355
-0.15742636
-0.029525952
-0.1645454
-0.032021128
-0.17198371
-0.034680732
-0.17975845
-0.037512035
-0.18788766
-0.040520875
-0.19639101
-0.043712699
-0.20529048
-0.047093012
-0.21460808
-0.050666096
-0.22436887
-0.054436002
-0.23459839
-0.058405875
-0.24532493
-0.062578394
-0.25657815
-0.066955667
-0.26838932
-0.071539279
-0.28079176
-0.076330863
-0.29382074
-0.081330989
-0.30751369
-0.086540463
-0.32190965
-0.091959951
-0.33705017
-0.097589823
-0.35297881
-0.10342998
-0.36974208
-0.10948116
-0.38738838
-0.11574377
-0.40596903
-0.12221767
-0.42553892
-0.12890324
-0.44615483
-0.13580061
-0.46787831
-0.14290996
-0.4907735
-0.15023053
-0.51490906
-0.1577626
-0.54035716
-0.16550478
-0.56719567
-0.17345571
-0.5955062
-0.1816136
-0.62537603
-0.18997544
-0.65689834
-0.19853777
-0.69017243
-0.20729541
-0.72530363
-0.21624243
-0.76240468
-0.2253712
-0.80159596
-0.23467159
-0.84300512
-0.2441324
-0.8867672
-0.2537394
-0.93302689
-0.26347595
-0.98193626
-0.27332146
-1.0336574
-0.28325188
-1.0883621
-0.29323823
-1.1462337
-0.30324729
-1.2074658
-0.31323647
-1.2722701
-0.32315942
-1.3408579
-0.33296511
-1.4134611
-0.34258803
-1.4903262
-0.35196961
-1.5716978
-0.36103601
-1.657844
-0.3697039
-1.7490141
-0.37786967
-1.8454285
-0.38542367
-1.9473361
-0.39223663
-2.0551471
-0.39819768
-2.1692954
-2.2905539
-0.00020893043
-0.046821358
-0.00078139258
-0.057511768
-0.0011750639
-0.056931336
-0.0018330129
-0.061083463
-0.0023429199
-0.063353892
-0.0030137087
-0.066384172
-0.0036336239
-0.069592644
-0.0043473457
-0.07266521
-0.0050895468
-0.076158256
-0.0058858111
-0.079613189
-0.0067415234
-0.08331755
-0.0076566518
-0.087146275
-0.008639722
-0.091152994
-0.0096955178
-0.095330855
-0.010830696
-0.099689969
-0.012051952
-0.10423693
-0.013366439
-0.10897964
-0.014781458
-0.11392629
-0.016305402
-0.11908514
-0.017946145
-0.12446626
-0.019711899
-0.13007882
-0.021611506
-0.13593425
-0.023653028
-0.14204383
-0.025845081
-0.14842034
-0.02819628
-0.15507749
-0.030713914
-0.16203036
-0.0334057
-0.1692948
-0.036278804
-0.17688854
-0.039339851
-0.18483015
-0.04259394
-0.19314084
-0.046047364
-0.20184139
-0.049703841
-0.21095638
-0.053568013
-0.22050997
-0.057642524
-0.2305297
-0.061930062
-0.24104381
-0.066433435
-0.25208184
-0.071154442
-0.26367608
-0.076094496
-0.27586024
-0.08125522
-0.28866939
-0.086638309
-0.30214089
-0.092245164
-0.31631408
-0.098077473
-0.33123024
-0.10413679
-0.34693306
-0.11042562
-0.36346813
-0.11694618
-0.38088411
-0.12370076
-0.39923228
-0.13069292
-0.41856628
-0.13792507
-0.43894404
-0.14540115
-0.46042559
-0.15312447
-0.48307573
-0.16109886
-0.50696258
-0.16932726
-0.53215925
-0.17781359
-0.55874263
-0.18656131
-0.58679482
-0.19557316
-0.61640383
-0.20485187
-0.6476629
-0.21439988
-0.68067161
-0.22421837
-0.71553659
-0.23430796
-0.75237113
-0.24466801
-0.79129689
-0.2552977
-0.83244166
-0.26619318
-0.87594351
-0.27734986
-0.92194783
-0.28876091
-0.97060901
-0.30041688
-1.0220919
-0.31230555
-1.0765712
-0.32441137
-1.1342339
-0.33671234
-1.19528
-0.34918585
-1.2599211
-0.36179905
-1.3283772
-0.37451099
-1.4008863
-0.38728937
-1.477685
-0.40008302
-1.5590372
-0.41284311
-1.6452109
-0.42550659
-1.7364706
-0.43800239
-1.8330415
-0.450231
-1.935196
-0.46210999
-2.0433307
-0.47355495
-2.1578932
-2.2799573
-0.00018780785
-0.046633568
-0.00077968754
-0.056920125
-0.001169661
-0.056541537
-0.0018217128
-0.060431687
-0.002325172
-0.062850696
-0.0029987375
-0.065710933
-0.0036344756
-0.068957253
-0.0043558143
-0.071944273
-0.0051204399
-0.075394075
-0.0059387449
-0.078795384
-0.0068246143
-0.082432238
-0.0077771194
-0.086194395
-0.0088058687
-0.090124942
-0.0099169105
-0.094220592
-0.01111795
-0.098489799
-0.012416854
-0.102939
-0.013822036
-0.10757554
-0.015342289
-0.11240725
-0.016986195
-0.11744258
-0.018763639
-0.12269031
-0.020683352
-0.12816078
-0.022754914
-0.13386455
-0.024987049
-0.13981377
-0.027388747
-0.14602093
-0.029968402
-0.15250039
-0.032733948
-0.15926764
-0.035692254
-0.16633963
-0.038850308
-0.17373395
-0.042213417
-0.18147088
-0.045787428
-0.18957107
-0.049576001
-0.19805749
-0.053583138
-0.20695441
-0.057812012
-0.21628678
-0.062265072
-0.2260829
-0.066944663
-0.2363711
-0.0718529
-0.24718116
-0.07699136
-0.25854592
-0.082362393
-0.27049832
-0.087967833
-0.28307394
-0.093810306
-0.29630937
-0.099892605
-0.31024379
-0.10621801
-0.32491799
-0.11279058
-0.34037489
-0.11961448
-0.35665999
-0.12669449
-0.37382135
-0.13403647
-0.39190917
-0.14164618
-0.41097722
-0.14953021
-0.43108258
-0.15769527
-0.45228521
-0.16614885
-0.47464911
-0.17489853
-0.49824237
-0.18395284
-0.52313712
-0.19331961
-0.54941097
-0.2030074
-0.57714536
-0.2130242
-0.60642883
-0.22337919
-0.63735351
-0.23407999
-0.67002053
-0.24513485
-0.70453591
-0.25655166
-0.74101332
-0.2683379
-0.7795748
-0.28049995
-0.82034924
-0.29304388
-0.86347501
-0.30597449
-0.90909875
-0.31929523
-0.95737627
-0.33300823
-1.0084739
-0.3471133
-1.0625688
-0.36160759
-1.1198507
-0.37648485
-1.1805232
-0.39173848
-1.244797
-0.40734755
-1.3129051
-0.42329768
-1.3850769
-0.43956084
-1.4615613
-0.45611654
-1.5426155
-0.4729411
-1.6285132
-0.48999227
-1.7195384
-0.50721267
-1.8159267
-0.5245328
-1.9179568
-0.54190614
-2.0260097
-0.55927735
-2.1405566
-2.2629514
-0.0001697908
-0.046463829
-0.00079072832
-0.056299447
-0.0011879867
-0.056144481
-0.0018502988
-0.05976967
-0.0023663979
-0.062334893
-0.0030557157
-0.065021975
-0.0037224086
-0.068290946
-0.0044676556
-0.071199469
-0.0052728485
-0.074589372
-0.0061355579
-0.077933225
-0.0070756601
-0.08149275
-0.0080929968
-0.085177744
-0.0091979104
-0.089020795
-0.010398098
-0.09302126
-0.011702589
-0.097186263
-0.013120682
-0.10152197
-0.014662091
-0.10603532
-0.016336878
-0.11073379
-0.018155262
-0.11562567
-0.020127113
-0.1207201
-0.022262769
-0.12602694
-0.024571749
-0.1315576
-0.027063155
-0.13732461
-0.02974607
-0.14334052
-0.03262816
-0.14962107
-0.035716598
-0.15618228
-0.039018464
-0.16304116
-0.042538495
-0.17021768
-0.046281789
-0.17773173
-0.050252146
-0.18560528
-0.054452864
-0.19386181
-0.058886877
-0.20252594
-0.063555452
-0.2116243
-0.068461738
-0.22118331
-0.073607094
-0.23123309
-0.078993409
-0.24180291
-0.084623522
-0.25292465
-0.090499666
-0.26463185
-0.096625989
-0.27695822
-0.10300624
-0.28994073
-0.10964503
-0.3036177
-0.11654788
-0.31802904
-0.12372148
-0.3332165
-0.13117272
-0.34922538
-0.13890966
-0.36610261
-0.14694125
-0.38389749
-0.15527683
-0.4026634
-0.1639266
-0.4224566
-0.17290177
-0.44333602
-0.18221364
-0.46536563
-0.19187472
-0.4886123
-0.20189703
-0.51314866
-0.21229469
-0.53905025
-0.22308082
-0.56639953
-0.23427014
-0.59528348
-0.24587649
-0.62579508
-0.25791534
-0.65803392
-0.27040144
-0.6921067
-0.28334991
-0.72812676
-0.29677683
-0.76621514
-0.31069687
-0.80650216
-0.32512556
-0.84912528
-0.34007802
-0.89423157
-0.3555686
-0.94197764
-0.37161057
-0.99253103
-0.38821687
-1.0460695
-0.40539899
-1.1027843
-0.42316709
-1.1628798
-0.44152467
-1.2265728
-0.46047564
-1.2940941
-0.48001729
-1.3656776
-0.50014689
-1.4415712
-0.52085976
-1.5220353
-0.54214986
-1.6073474
-0.5640129
-1.6977904
-0.58640404
-1.793634
-0.60928816
-1.8951419
-0.63263109
-2.0027055
-0.65642666
-2.1167819
-2.2389705
-0.00015600536
-0.046307908
-0.00081898154
-0.055636752
-0.0012305276
-0.055733167
-0.001923245
-0.059077277
-0.0024700239
-0.061788441
-0.0031880733
-0.064304319
-0.0039060207
-0.067573424
-0.0046963708
-0.070409603
-0.0055650508
-0.07372123
-0.0064993338
-0.076999544
-0.0075230089
-0.080469748
-0.0086381291
-0.084063375
-0.0098560858
-0.087803676
-0.011186642
-0.091691639
-0.012640354
-0.095733594
-0.014228266
-0.099935226
-0.015961475
-0.10430341
-0.017851164
-0.10884554
-0.019908395
-0.11357005
-0.022143897
-0.11848639
-0.02456769
-0.12360514
-0.027189602
-0.12893789
-0.030018709
-0.13449796
-0.033062417
-0.14029953
-0.036328128
-0.14635836
-0.039821685
-0.15269204
-0.043547839
-0.15931868
-0.047510814
-0.16625875
-0.051713653
-0.17353335
-0.056158623
-0.18116522
-0.060847419
-0.18917841
-0.065782081
-0.1975972
-0.070964024
-0.20644886
-0.076394979
-0.21575948
-0.082077409
-0.22555847
-0.088013975
-0.23587489
-0.094208132
-0.24673985
-0.10066497
-0.25818526
-0.10738886
-0.27024553
-0.11438688
-0.28295497
-0.12166592
-0.29635206
-0.12923533
-0.31047428
-0.13710355
-0.32536429
-0.14528144
-0.341065
-0.153781
-0.35762218
-0.16261393
-0.37508547
-0.17179398
-0.3935062
-0.18133569
-0.41293986
-0.1912539
-0.4334451
-0.20156509
-0.45508423
-0.21228576
-0.47792417
-0.22343444
-0.5020355
-0.23502891
-0.52749454
-0.2470887
-0.554382
-0.25963441
-0.58278386
-0.27268676
-0.61279298
-0.28626717
-0.64450824
-0.30039885
-0.67803458
-0.31510477
-0.71348558
-0.33040837
-0.75098182
-0.34633446
-0.79065219
-0.36290844
-0.83263357
-0.3801557
-0.87707303
-0.39810153
-0.92412735
-0.41677283
-0.97396255
-0.43619521
-1.0267578
-0.45639412
-1.0827046
-0.47739443
-1.1420076
-0.49921805
-1.2048852
-0.52188814
-1.2715652
-0.54542006
-1.3422876
-0.56982692
-1.4173017
-0.5951263
-1.4968646
-0.62134256
-1.5812498
-0.64848607
-1.6707536
-0.67654635
-1.7656598
-0.70550455
-1.8662362
-0.73536729
-1.972863
-0.76613198
-2.086016
-2.2073877
-0.00014820072
-0.046159823
-0.00087202841
-0.054913227
-0.001303318
-0.055302138
-0.0020399689
-0.058340976
-0.0026379648
-0.061190804
-0.0034030693
-0.06353964
-0.0041954004
-0.066781556
-0.0050557771
-0.069549752
-0.0060136735
-0.072763919
-0.0070509266
-0.075962946
-0.0081933646
-0.079328042
-0.0094466295
-0.082810928
-0.010823605
-0.086427615
-0.012336093
-0.09018017
-0.013996448
-0.094074377
-0.015816975
-0.098115968
-0.017809937
-0.10231186
-0.019987154
-0.1066699
-0.022360062
-0.11119889
-0.024939313
-0.11590908
-0.027734848
-0.12081177
-0.030755227
-0.12591991
-0.034007952
-0.13124789
-0.037499701
-0.13681071
-0.041235073
-0.14262623
-0.045218321
-0.14871237
-0.049451566
-0.15508937
-0.053936916
-0.16177774
-0.058675744
-0.16879929
-0.063668727
-0.17617747
-0.068917104
-0.18393577
-0.074421716
-0.19209888
-0.080184713
-0.20069275
-0.086208287
-0.20974345
-0.092496284
-0.21927872
-0.099052639
-0.22932756
-0.10588359
-0.23991876
-0.11299533
-0.2510843
-0.12039685
-0.26285578
-0.12809664
-0.27526805
-0.1361064
-0.28835636
-0.14443677
-0.30215928
-0.15310148
-0.31671637
-0.16211499
-0.33206983
-0.17149218
-0.34826505
-0.18124968
-0.36534987
-0.19140517
-0.38337465
-0.20197728
-0.4023939
-0.21298604
-0.42246489
-0.22445193