/*--------------------------------*- C++ -*----------------------------------*\
  =========                 |
  \\      /  F ield         | OpenFOAM: The Open Source CFD Toolbox
   \\    /   O peration     | Website:  https://openfoam.org
    \\  /    A nd           | Version:  12
     \\/     M anipulation  |
\*---------------------------------------------------------------------------*/
FoamFile
{
    format      ascii;
    class       volScalarField;
    location    "0.088";
    object      T;
}
// * * * * * * * * * * * * * * * * * * * * * * * * * * * * * * * * * * * * * //

dimensions      [0 0 0 1 0 0 0];

internalField   nonuniform List<scalar> 
16000
(
295.53902
287.12739
290.38624
288.60181
289.70143
289.19506
289.61389
289.50173
289.69693
289.72928
289.84864
289.9319
290.03569
290.13687
290.24398
290.35437
290.46884
290.58725
290.70967
290.8361
290.96653
291.10095
291.23932
291.38158
291.52763
291.67738
291.83068
291.98736
292.14724
292.31008
292.47564
292.64363
292.81374
292.98563
293.15893
293.33326
293.5082
293.68333
293.85821
294.03238
294.2054
294.3768
294.54613
294.71296
294.87686
295.03742
295.19426
295.34703
295.49539
295.63905
295.77775
295.91126
296.03938
296.16196
296.27888
296.39006
296.49544
296.595
296.68877
296.77681
296.85924
296.93624
297.00806
297.07506
297.13766
297.19626
297.25111
297.30227
297.34967
297.39344
297.43433
297.47381
297.51368
297.55516
297.59839
297.64228
297.68878
297.7462
297.80783
297.9047
295.23341
286.72282
290.12576
288.24643
289.41226
288.86954
289.32292
289.20167
289.41087
289.44876
289.57489
289.66696
289.77777
289.88765
290.00304
290.12228
290.24577
290.37351
290.50549
290.64173
290.78219
290.92684
291.0756
291.22838
291.38507
291.54551
291.70951
291.87688
292.04736
292.22068
292.39653
292.57457
292.75444
292.93574
293.11806
293.30094
293.48394
293.66657
293.84837
294.02885
294.20754
294.38395
294.55763
294.72815
294.89509
295.05807
295.21672
295.37072
295.5198
295.66369
295.80218
295.9351
296.06232
296.18372
296.29924
296.40886
296.51257
296.6104
296.7024
296.78868
296.8694
296.94474
297.01497
297.08045
297.14158
297.19874
297.25215
297.30183
297.3477
297.38987
297.42918
297.46726
297.5061
297.5472
297.59059
297.63517
297.68349
297.74228
297.80483
297.90822
294.94222
286.34751
289.84744
287.9337
289.13885
288.58608
289.05312
288.93944
289.15345
289.20303
289.33454
289.43705
289.55583
289.67532
289.80013
289.92926
290.0629
290.20107
290.34374
290.4909
290.64249
290.79843
290.95862
291.12293
291.29119
291.46319
291.63872
291.81749
291.99921
292.18355
292.37011
292.55852
292.74833
292.93908
293.13029
293.32147
293.5121
293.70167
293.88966
294.07556
294.25888
294.43912
294.61584
294.78862
294.95706
295.1208
295.27954
295.433
295.58095
295.7232
295.8596
295.99005
296.11447
296.23282
296.34512
296.45137
296.55165
296.64604
296.73464
296.8176
296.89509
296.96735
297.03467
297.09739
297.15591
297.21059
297.2616
297.30893
297.35244
297.39227
297.42929
297.46532
297.50255
297.54266
297.58563
297.63049
297.68031
297.74014
297.80342
297.91259
294.67435
286.00367
289.62556
287.65726
288.8983
288.33562
288.81647
288.71211
288.93134
288.99419
289.13208
289.24623
289.3743
289.50457
289.64009
289.78031
289.92531
290.07507
290.22956
290.38873
290.55248
290.72069
290.89323
291.06991
291.25051
291.43478
291.62241
291.81308
292.0064
292.20198
292.39936
292.59806
292.79757
292.99738
293.19693
293.39566
293.59301
293.78843
293.98137
294.17129
294.35769
294.54011
294.71811
294.89128
295.0593
295.22184
295.37867
295.52958
295.6744
295.81302
295.94538
296.07144
296.19121
296.30473
296.41207
296.51333
296.60861
296.69807
296.78185
296.86013
296.93314
297.00113
297.06439
297.1233
297.17824
297.22953
297.27733
297.32155
297.36203
297.39891
297.43313
297.46658
297.5017
297.54031
297.58238
297.62719
297.67827
297.73872
297.8029
297.91717
294.42982
285.69514
289.41335
287.42608
288.70203
288.12634
288.61719
288.52682
288.74973
288.82853
288.97357
289.10067
289.23938
289.38158
289.52903
289.68151
289.839
290.00148
290.16888
290.34112
290.51807
290.69957
290.88541
291.07535
291.2691
291.46634
291.66669
291.86972
292.07497
292.28196
292.49012
292.69892
292.90774
293.116
293.32307
293.52834
293.7312
293.93106
294.12736
294.31956
294.50719
294.68978
294.86696
295.03838
295.20375
295.36286
295.51554
295.66165
295.80114
295.93399
296.06022
296.17988
296.29307
296.3999
296.50052
296.59508
296.68378
296.76679
296.84433
296.9166
296.98386
297.04639
297.1045
297.15856
297.20895
297.25596
297.2997
297.34008
297.37688
297.41025
297.44116
297.47162
297.50421
297.54084
297.58151
297.62589
297.67782
297.73829
297.80343
297.92206
294.21237
285.42922
289.23502
287.2334
288.52965
287.96458
288.46552
288.38988
288.61553
288.71181
288.86487
289.00574
289.15625
289.31131
289.47177
289.63758
289.8087
289.98506
290.16655
290.35305
290.54435
290.74024
290.94044
291.1446
291.35237
291.56329
291.7769
291.99267
292.21003
292.42837
292.64706
292.86543
293.0828
293.2985
293.51185
293.72218
293.92885
294.13127
294.32887
294.52116
294.70767
294.88803
295.06191
295.22905
295.38927
295.54245
295.68851
295.82744
295.95928
296.08413
296.20209
296.31333
296.41801
296.51635
296.60855
296.69484
296.77546
296.85065
296.92064
296.98569
297.04607
297.10208
297.15404
297.20232
297.24728
297.2892
297.32814
297.36398
297.3965
297.42586
297.45306
297.48019
297.50994
297.54423
297.58308
297.62671
297.679
297.7389
297.80499
297.92724
294.02517
285.20792
289.08985
287.07713
288.39594
287.85235
288.35061
288.30483
288.52956
288.64609
288.8082
288.96359
289.12729
289.29647
289.47141
289.65208
289.83839
290.03021
290.22738
290.42966
290.6368
290.84845
291.06424
291.28372
291.50639
291.7317
291.95903
292.18775
292.41714
292.64649
292.87504
293.10204
293.32673
293.54835
293.76619
293.97955
294.1878
294.39034
294.58666
294.77631
294.95892
295.1342
295.30193
295.46196
295.61424
295.75876
295.89558
296.02482
296.14664
296.26122
296.36881
296.46964
296.56398
296.65211
296.73431
296.81087
296.88206
296.94816
297.00946
297.06621
297.11871
297.16727
297.21221
297.2539
297.29268
297.32878
297.36226
297.39294
297.42064
297.44552
297.46866
297.4922
297.51887
297.55054
297.58726
297.62985
297.68196
297.74076
297.80779
297.93264
293.86664
285.02956
288.97489
286.95625
288.28994
287.77435
288.27548
288.23939
288.49219
288.63003
288.8037
288.97539
289.15468
289.34017
289.53183
289.72957
289.93324
290.14262
290.35745
290.5774
290.80207
291.03101
291.2637
291.49956
291.73793
291.97811
292.21934
292.46083
292.70174
292.94122
293.17842
293.41248
293.64258
293.86793
294.08777
294.30145
294.50834
294.70793
294.89978
295.08355
295.25898
295.42592
295.58429
295.7341
295.87545
296.00846
296.13335
296.25037
296.3598
296.46195
296.55714
296.64573
296.72804
296.80444
296.87524
296.94078
297.00138
297.05734
297.10896
297.15652
297.20032
297.24067
297.27789
297.31233
297.34429
297.37399
297.40144
297.42645
297.44886
297.46888
297.48765
297.50739
297.53082
297.55966
297.59403
297.63537
297.68676
297.7439
297.81198
297.93815
293.73193
284.89201
288.89328
286.87102
288.23384
287.76658
288.26034
288.27887
288.50887
288.66727
288.85601
289.04653
289.24435
289.44889
289.65995
289.87736
290.10086
290.33014
290.5648
290.80437
291.04831
291.296
291.54675
291.7998
292.05432
292.30942
292.56419
292.81767
293.06889
293.31687
293.56067
293.79938
294.03213
294.25813
294.47667
294.68713
294.88899
295.08186
295.26544
295.43954
295.60408
295.75907
295.90463
296.04095
296.16828
296.28692
296.39723
296.4996
296.59443
296.68215
296.76315
296.83788
296.90672
296.97008
297.02833
297.08183
297.13092
297.17591
297.2171
297.25479
297.28927
297.32084
297.34981
297.37649
297.40118
297.42402
297.44501
297.46396
297.48072
297.49558
297.50974
297.52551
297.54555
297.57139
297.60329
297.64319
297.6933
297.7484
297.81757
297.94369
293.61983
284.79706
288.85044
286.83476
288.2308
287.76474
288.28889
288.34136
288.58178
288.76637
288.97377
289.18575
289.40514
289.63163
289.86494
290.10476
290.35069
290.60227
290.85891
291.11999
291.38474
291.65236
291.92192
292.19246
292.46295
292.7323
292.99942
293.26318
293.5225
293.77632
294.02362
294.26349
294.49507
294.71763
294.93058
295.13342
295.32581
295.50752
295.67847
295.83868
295.9883
296.12755
296.25675
296.37629
296.4866
296.58815
296.68144
296.76699
296.84529
296.91687
296.9822
297.04176
297.09601
297.14536
297.19021
297.23093
297.26786
297.30131
297.33159
297.35897
297.38373
297.40615
297.42652
297.44514
297.46224
297.47794
297.4922
297.50483
297.51571
297.5252
297.53461
297.54629
297.56281
297.5855
297.61484
297.65311
297.70141
297.75412
297.82445
297.94957
293.53365
284.75233
288.85193
286.90842
288.2858
287.90047
288.37801
288.47225
288.72381
288.93602
289.16616
289.40272
289.64701
289.89866
290.15729
290.4224
290.69341
290.96965
291.2503
291.53448
291.8212
292.10936
292.3978
292.68531
292.97062
293.25245
293.52952
293.80061
294.06452
294.32016
294.56653
294.80277
295.02815
295.24209
295.44417
295.63414
295.81189
295.97748
296.13106
296.27294
296.40351
296.52324
296.63267
296.73237
296.82295
296.90503
296.97924
297.04618
297.10645
297.1606
297.20918
297.25269
297.29159
297.32631
297.35726
297.38478
297.40922
297.43086
297.44999
297.46686
297.48173
297.49485
297.50649
297.5169
297.52629
297.53472
297.54213
297.54833
297.55324
297.5573
297.56191
297.56945
297.58234
297.60176
297.62847
297.66487
297.7108
297.76101
297.83268
297.95578
293.47996
284.77077
288.90646
287.04332
288.38784
288.05614
288.53599
288.67592
288.94375
289.18627
289.44349
289.70826
289.9811
290.26142
290.54865
290.84206
291.14079
291.44388
291.75021
292.05858
292.36767
292.67607
292.98235
293.28501
293.58257
293.87356
294.1566
294.43037
294.69369
294.94552
295.18499
295.41141
295.62429
295.82333
296.0084
296.17959
296.33711
296.48133
296.61274
296.73193
296.83955
296.93631
297.02295
297.10023
297.16889
297.22966
297.28326
297.33036
297.37159
297.40755
297.43878
297.46578
297.48901
297.50889
297.5258
297.54006
297.55197
297.56181
297.56982
297.57623
297.58126
297.58514
297.58811
297.59036
297.59207
297.59328
297.59387
297.59368
297.59268
297.59138
297.59125
297.59467
297.60385
297.61991
297.64394
297.67817
297.72119
297.76903
297.84237
297.96235
293.46401
284.85893
289.02436
287.22778
288.55392
288.29928
288.77308
288.96165
289.252
289.52811
289.81721
290.11449
290.42003
290.73289
291.05222
291.37693
291.7058
292.03745
292.37039
292.703
293.03359
293.36044
293.68179
293.99591
294.30113
294.5959
294.87879
295.14855
295.40414
295.64473
295.86973
296.0788
296.27182
296.44888
296.61029
296.75652
296.88818
297.00599
297.11078
297.2034
297.28475
297.35576
297.41731
297.47029
297.51554
297.55386
297.586
297.61265
297.63445
297.65198
297.66576
297.67628
297.68396
297.68917
297.69225
297.69349
297.69316
297.69148
297.68865
297.68488
297.68035
297.67525
297.66977
297.66409
297.65833
297.65249
297.64646
297.64007
297.63334
297.62688
297.6222
297.62158
297.62702
297.6397
297.66104
297.69272
297.73233
297.77819
297.85361
297.96918
293.48746
285.02421
289.21089
287.49647
288.79553
288.62383
289.09937
289.33993
289.66038
289.97465
290.30116
290.63601
290.97888
291.3284
291.68325
292.04186
292.40249
292.76329
293.12227
293.47739
293.82657
294.16774
294.4989
294.81817
295.12383
295.41436
295.6885
295.94526
296.18395
296.40418
296.60583
296.78906
296.95427
297.10207
297.23324
297.34868
297.44941
297.5365
297.61103
297.67411
297.72683
297.77023
297.80531
297.83301
297.85421
297.86972
297.88027
297.88653
297.88911
297.88853
297.88529
297.87981
297.87244
297.86352
297.85333
297.8421
297.83006
297.81739
297.80424
297.79077
297.77713
297.76347
297.74996
297.73671
297.72383
297.71128
297.69893
297.68665
297.67452
297.66322
297.65427
297.64976
297.65149
297.66084
297.67952
297.70839
297.74414
297.78842
297.86612
297.97596
293.55528
285.27951
289.46968
287.85244
289.12337
289.04458
289.52868
289.82538
290.18453
290.54295
290.91307
291.29105
291.67599
292.06593
292.45889
292.85269
293.245
293.63338
294.01534
294.38839
294.7501
295.09817
295.43051
295.74526
296.0409
296.31624
296.57048
296.80315
297.01419
297.20384
297.37265
297.52143
297.65116
297.76299
297.8582
297.93808
298.00399
298.05725
298.09916
298.13098
298.15388
298.16896
298.17724
298.17965
298.17704
298.17017
298.15972
298.1463
298.13043
298.11259
298.09318
298.07255
298.05101
298.02881
298.00617
297.98328
297.9603
297.93736
297.91458
297.89206
297.86993
297.84829
297.82727
297.80696
297.78742
297.76861
297.75039
297.73265
297.71555
297.69983
297.68695
297.67875
297.67691
297.68307
297.69922
297.72513
297.75678
297.79943
297.87917
297.98268
293.67189
285.64308
289.79747
288.3097
289.55185
289.57602
290.07916
290.43781
290.84531
291.25501
291.67519
292.10158
292.53245
292.96509
293.39675
293.82452
294.24537
294.65628
295.05424
295.43645
295.8003
296.14352
296.46426
296.76108
297.03302
297.27962
297.50086
297.69713
297.86918
298.0181
298.14515
298.25183
298.33969
298.41037
298.46552
298.50674
298.53559
298.55355
298.56201
298.56225
298.55544
298.54265
298.52485
298.50289
298.47753
298.44944
298.41922
298.38736
298.35431
298.32044
298.28608
298.2515
298.21692
298.18253
298.14849
298.11492
298.08193
298.0496
298.01801
297.98723
297.95733
297.92839
297.90051
297.87374
297.84811
297.82357
297.80001
297.77735
297.7558
297.73614
297.71974
297.70817
297.70299
297.70623
297.71999
297.74294
297.77042
297.81084
297.89203
297.98958
293.84182
286.14394
290.19918
288.88597
290.10192
290.24143
290.77648
291.20415
291.66965
292.13767
292.61336
293.09182
293.57023
294.04495
294.5123
294.96853
295.40993
295.83296
296.23438
296.61137
296.96162
297.28343
297.57569
297.83791
298.07019
298.27317
298.4479
298.5958
298.71859
298.81813
298.89641
298.95547
298.99731
299.02388
299.03705
299.03857
299.03005
299.01298
298.98871
298.95844
298.92327
298.88414
298.84189
298.79726
298.75089
298.70333
298.65503
298.60641
298.55779
298.50944
298.46161
298.41447
298.36818
298.32286
298.27859
298.23545
298.19348
298.15275
298.11327
298.07507
298.03821
298.00273
297.96869
297.93613
297.90505
297.87542
297.84711
297.82012
297.79472
297.77167
297.7522
297.73763
297.72952
297.73022
297.74172
297.7616
297.78494
297.82273
297.9042
297.99808
294.07618
286.83002
290.71936
289.61223
290.80434
291.07194
291.65308
292.15665
292.68851
293.22046
293.75489
294.28595
294.8094
295.32045
295.81442
296.28681
296.7335
297.15093
297.53626
297.88739
298.20309
298.4829
298.72714
298.93677
299.11329
299.25866
299.37509
299.46503
299.53098
299.57548
299.60098
299.60986
299.60432
299.58644
299.55808
299.52096
299.47661
299.42639
299.3715
299.31299
299.25178
299.18866
299.12432
299.05932
298.99416
298.92925
298.86493
298.80147
298.7391
298.67801
298.61833
298.56016
298.50358
298.44865
298.3954
298.34385
298.29401
298.24588
298.19946
298.15476
298.11178
298.07054
298.03109
297.99345
297.95761
297.92354
297.89115
297.86047
297.83184
297.80597
297.78392
297.76682
297.7563
297.75488
297.76407
297.78052
297.79998
297.83597
297.91701
298.00615
294.4014
287.69239
291.38491
290.5258
291.69683
292.10233
292.74513
293.33122
293.93578
294.53448
295.12648
295.70463
296.26306
296.7959
297.29784
297.76434
298.1918
298.57772
298.9207
299.22044
299.47757
299.69359
299.87067
300.01143
300.11886
300.19609
300.24633
300.27273
300.27831
300.26592
300.23819
300.19754
300.14613
300.08593
300.01864
299.94578
299.86866
299.78844
299.70608
299.62244
299.53823
299.45404
299.37037
299.28764
299.20618
299.12626
299.0481
298.97187
298.89767
298.82561
298.75574
298.68808
298.62266
298.55946
298.49847
298.43968
298.38304
298.32854
298.27614
298.22581
298.17755
298.13136
298.08726
298.04526
298.00535
297.96752
297.93172
297.89803
297.86679
297.83867
297.81453
297.79542
297.78306
297.77987
297.78657
297.79923
297.81529
297.85075
297.93086
298.01325
294.85762
288.65977
292.23755
291.66223
292.82317
293.37428
294.09532
294.7696
295.44848
296.10954
296.7483
297.35632
297.92673
298.45362
298.93242
299.36013
299.73522
300.05768
300.32871
300.55062
300.72648
300.85993
300.95494
301.0156
301.04599
301.05003
301.03143
300.9936
300.93968
300.87245
300.79442
300.70777
300.61441
300.51601
300.414
300.30958
300.2038
300.09753
299.99149
299.88631
299.78246
299.68036
299.58032
299.48261
299.3874
299.29485
299.20506
299.11807
299.03393
298.95265
298.87419
298.79854
298.72566
298.65548
298.58795
298.52302
298.46063
298.40072
298.34324
298.28815
298.23542
298.18504
298.13701
298.09135
298.04806
298.00713
297.96858
297.93253
297.8993
297.86947
297.84373
297.82313
297.80944
297.80475
297.80885
297.81767
297.83105
297.86678
297.94509
298.01882
295.50057
289.91171
293.32499
293.07312
294.24374
294.94572
295.75606
296.51626
297.25818
297.96115
298.61799
299.22049
299.76291
300.24157
300.65499
301.00364
301.28967
301.51657
301.68879
301.81136
301.88959
301.92883
301.93429
301.91084
301.86302
301.79493
301.71022
301.61212
301.50346
301.38668
301.26387
301.13682
301.00705
300.87584
300.74425
300.61317
300.48331
300.35529
300.22957
300.10653
299.98647
299.86961
299.75611
299.64608
299.53959
299.43666
299.3373
299.24148
299.14916
299.06026
298.97472
298.89246
298.81339
298.73741
298.66445
298.59441
298.52721
298.46278
298.40106
298.342
298.28554
298.23168
298.18041
298.13175
298.08571
298.04232
298.00164
297.96382
297.92917
297.89812
297.87126
297.84963
297.83504
297.8291
297.83073
297.83608
297.84736
297.88304
297.95791
298.02224
296.38802
291.50643
294.73225
294.83771
296.03714
296.88388
297.775
298.59714
299.36616
300.06525
300.68816
301.23024
301.69022
302.06952
302.37179
302.60236
302.76763
302.87462
302.93048
302.94224
302.91652
302.85942
302.77644
302.67245
302.55171
302.4179
302.27419
302.12324
301.96732
301.80831
301.6478
301.48707
301.3272
301.16905
301.01333
300.8606
300.71129
300.56574
300.42419
300.28684
300.15379
300.02511
299.90083
299.78093
299.66539
299.55414
299.44709
299.34415
299.24521
299.15016
299.05887
298.97123
298.8871
298.80638
298.72895
298.65471
298.58356
298.51541
298.4502
298.38785
298.32834
298.27163
298.21774
298.16666
298.11845
298.07316
298.03089
297.99184
297.95624
297.92442
297.89687
297.87466
297.85949
297.85248
297.85192
297.85449
297.8641
297.89869
297.96829
298.0236
297.50488
293.56855
296.56468
297.03964
298.26995
299.23281
300.15984
300.98413
301.71212
302.33515
302.85325
303.26931
303.58944
303.82176
303.97562
304.06085
304.08717
304.06381
303.99924
303.90103
303.77584
303.62942
303.46667
303.29174
303.10809
302.9186
302.72564
302.53116
302.33674
302.14367
301.95298
301.76548
301.58182
301.40248
301.22785
301.05819
300.8937
300.73449
300.58062
300.43211
300.28894
300.15104
300.01834
299.89073
299.76808
299.65027
299.53715
299.42857
299.32438
299.22442
299.12853
299.03656
298.94836
298.86381
298.78275
298.70509
298.63071
298.55953
298.49146
298.42645
298.36445
298.30545
298.24945
298.19648
298.14659
298.09987
298.05647
298.01659
297.98042
297.94819
297.92035
297.89792
297.88241
297.8744
297.87191
297.87247
297.88107
297.91389
297.97663
298.02342
299.02043
296.21056
298.91799
299.73261
300.93875
301.96225
302.83625
303.56551
304.15907
304.62085
304.96128
305.1928
305.32922
305.38448
305.37191
305.30369
305.19069
305.04229
304.86651
304.67004
304.45845
304.23631
304.00733
303.77454
303.54034
303.30668
303.07508
302.84676
302.62264
302.40345
302.18973
301.98189
301.7802
301.58484
301.39592
301.21349
301.03753
300.868
300.70481
300.54785
300.39698
300.25205
300.11291
299.97936
299.85124
299.72836
299.61051
299.49753
299.38921
299.28537
299.18583
299.09041
298.99896
298.91132
298.82735
298.74692
298.66993
298.59628
298.52589
298.4587
298.3947
298.33386
298.27619
298.22174
298.17058
298.12282
298.07863
298.03821
298.0017
297.96931
297.94145
297.91908
297.90336
297.89438
297.89016
297.88932
297.89755
297.92833
297.98291
298.01988
300.98245
299.5028
301.78942
302.89211
304.06805
304.92602
305.62659
306.14835
306.5137
306.7411
306.85174
306.86574
306.80168
306.67586
306.5022
306.29233
306.05576
305.80022
305.53186
305.25561
304.97532
304.69401
304.41406
304.13727
303.86504
303.59842
303.33819
303.08493
302.83902
302.60072
302.3702
302.14753
301.9327
301.72566
301.52632
301.33454
301.15018
300.97306
300.80298
300.63975
300.48314
300.33295
300.18895
300.05092
299.91862
299.79184
299.67035
299.55394
299.44239
299.33549
299.23306
299.1349
299.04085
298.95072
298.8644
298.78173
298.70261
298.62695
298.55467
298.48572
298.42008
298.35776
298.29876
298.24315
298.19102
298.14248
298.09773
298.05691
298.02019
297.98775
297.96003
297.93784
297.92194
297.91202
297.90639
297.90468
297.91269
297.9409
297.98729
298.01618
303.41701
303.43236
305.42504
306.39048
307.27767
307.88295
308.2847
308.50408
308.57739
308.53422
308.40131
308.20072
307.95045
307.66477
307.35486
307.02938
306.69496
306.35665
306.01826
305.68267
305.352
305.02782
304.71126
304.40312
304.10394
303.81407
303.53371
303.26294
303.00174
302.75005
302.50773
302.27461
302.05051
301.83519
301.62842
301.42996
301.23954
301.05691
300.8818
300.71395
300.55309
300.39895
300.25128
300.10982
299.9743
299.8445
299.72015
299.60103
299.48691
299.37757
299.2728
299.17241
299.07622
298.98406
298.89578
298.81126
298.73037
298.65303
298.57917
298.50875
298.44175
298.37818
298.31808
298.26151
298.20858
298.15942
298.11419
298.07305
298.03616
298.00372
297.97617
297.95412
297.93799
297.92725
297.92071
297.91879
297.92649
297.9509
297.98826
298.01096
306.4675
307.84054
309.15693
309.85123
310.32333
310.5286
310.54894
310.42601
310.2003
309.90204
309.55455
309.17517
308.77671
308.36851
307.95734
307.54805
307.14411
306.74794
306.36124
305.98512
305.62031
305.26724
304.92611
304.59699
304.27979
303.97437
303.68051
303.39798
303.12647
302.86568
302.61531
302.37502
302.14448
301.92336
301.71134
301.50809
301.31329
301.12662
300.94778
300.77645
300.61234
300.45515
300.30461
300.16043
300.02234
299.89007
299.76338
299.64202
299.52575
299.41434
299.30758
299.20529
299.10726
299.01333
298.92336
298.83721
298.75478
298.67597
298.60073
298.529
298.4608
298.39613
298.33503
298.2776
298.22393
298.17417
298.12848
298.08703
298.04998
298.01756
297.99013
297.96811
297.95163
297.9402
297.9331
297.93104
297.93783
297.95777
297.9869
298.00551
310.40073
312.16762
312.69923
312.88031
312.82163
312.58457
312.23104
311.80322
311.3311
310.83525
310.32963
309.82364
309.32351
308.83333
308.35574
307.89233
307.44403
307.01129
306.59425
306.19282
305.80674
305.4357
305.07929
304.73708
304.40861
304.09342
303.79104
303.50101
303.22288
302.95619
302.70052
302.45545
302.22056
301.99548
301.7798
301.57316
301.37521
301.18559
301.00397
300.83001
300.6634
300.50384
300.35102
300.20466
300.06447
299.93018
299.80154
299.67829
299.56019
299.44702
299.33855
299.2346
299.13497
299.03949
298.94803
298.86045
298.77664
298.69653
298.62004
298.54715
298.47785
298.41217
298.35016
298.29191
298.23752
298.18715
298.14096
298.09915
298.06189
298.02941
298.00195
297.97972
297.96273
297.95068
297.94331
297.94131
297.94695
297.96232
297.98414
298.0002
315.34378
315.70131
315.42337
315.05069
314.52467
313.92898
313.29877
312.65947
312.02511
311.40424
310.80155
310.21959
309.6595
309.12158
308.60565
308.11121
307.63759
307.18402
306.74971
306.33384
305.93563
305.55428
305.18906
304.83926
304.50419
304.18322
303.87574
303.58116
303.29895
303.02857
302.76953
302.52136
302.28361
302.05584
301.83766
301.62865
301.42845
301.23669
301.05301
300.87708
300.70856
300.54716
300.39255
300.24445
300.10257
299.96664
299.8364
299.71158
299.59195
299.47728
299.36735
299.26197
299.16095
299.06413
298.97135
298.88249
298.79745
298.71614
298.63851
298.56452
298.49418
298.42752
298.36458
298.30547
298.25029
298.19919
298.15233
298.10991
298.07214
298.03923
298.01139
297.98871
297.97116
297.9586
297.95107
297.94906
297.95356
297.96509
297.98135
297.99556
317.32963
317.4906
316.90649
316.14128
315.35905
314.57647
313.81338
313.07732
312.37163
311.69724
311.05382
310.44039
309.85563
309.29815
308.76648
308.25922
307.77502
307.31262
306.87083
306.44856
306.04477
305.65852
305.28892
304.93517
304.59649
304.27218
303.96158
303.66407
303.37907
303.10602
302.84442
302.59376
302.3536
302.12349
301.90301
301.69176
301.48936
301.29544
301.10963
300.93162
300.76106
300.59764
300.44106
300.29102
300.14723
300.00943
299.87735
299.75073
299.62933
299.51293
299.40131
299.29426
299.19161
299.09319
298.99884
298.90845
298.8219
298.73911
298.66003
298.58463
298.5129
298.44488
298.38062
298.32022
298.26379
298.21147
298.16344
298.11989
298.08108
298.04726
298.01862
297.99522
297.97697
297.96377
297.95578
297.9534
297.95698
297.96619
297.97937
297.99326
311.09036
309.81397
306.17963
303.34248
302.08409
301.79917
301.73091
301.72704
301.61668
301.55877
301.45285
301.38608
301.29964
301.21476
301.12935
301.04327
300.95652
300.86909
300.78098
300.69224
300.60297
300.51326
300.42324
300.33303
300.24277
300.1526
300.06264
299.97304
299.88392
299.79541
299.70764
299.62074
299.53483
299.45002
299.36645
299.28424
299.20349
299.12433
299.04688
298.97125
298.89755
298.8259
298.75642
298.6892
298.62435
298.56199
298.5022
298.44507
298.39069
298.33913
298.29045
298.2447
298.20192
298.16212
298.12529
298.0914
298.06039
298.03217
298.0066
297.98354
297.96283
297.94427
297.92757
297.91244
297.89859
297.88566
297.87362
297.86197
297.85179
297.84184
297.83668
297.83144
297.83879
297.84116
297.86682
297.8725
297.91382
297.91343
297.96775
297.9809
310.33757
307.42497
303.33019
301.30636
300.74405
300.74442
300.84369
300.85385
300.84777
300.82183
300.79856
300.76028
300.71728
300.6694
300.61781
300.56255
300.50401
300.44245
300.37819
300.31154
300.24279
300.17218
300.09998
300.02642
299.95172
299.87611
299.79979
299.72296
299.64582
299.56855
299.49134
299.41436
299.33779
299.26179
299.18654
299.1122
299.03891
298.96685
298.89615
298.82697
298.75946
298.69374
298.62997
298.56826
298.50876
298.45157
298.3968
298.34457
298.29496
298.24806
298.20393
298.16262
298.12418
298.0886
298.05589
298.026
297.99887
297.97439
297.95243
297.93283
297.91543
297.90002
297.88633
297.87405
297.86295
297.8527
297.84328
297.83431
297.82672
297.81961
297.81691
297.81469
297.82388
297.829
297.85531
297.86323
297.90391
297.9056
297.9596
297.97446
308.93497
305.39817
302.36948
300.68143
300.35669
300.39595
300.42834
300.4018
300.37319
300.34035
300.30826
300.27322
300.23654
300.19705
300.15544
300.11147
300.06537
300.01711
299.96677
299.91445
299.86025
299.80427
299.74665
299.6875
299.62697
299.56521
299.50237
299.43861
299.37409
299.30899
299.24347
299.17771
299.11189
299.04619
298.98078
298.91584
298.85154
298.78807
298.7256
298.66429
298.60432
298.54584
298.48902
298.43401
298.38094
298.32997
298.28122
298.2348
298.19083
298.14938
298.11055
298.07438
298.04091
298.01016
297.98211
297.95673
297.93394
297.91363
297.89566
297.87987
297.86611
297.85415
297.84372
297.83456
297.82643
297.81905
297.81243
297.80627
297.80143
297.7972
297.7971
297.79778
297.80893
297.81653
297.8435
297.85355
297.89434
297.89769
297.95128
297.968
307.78232
303.99563
301.19445
299.92805
299.88292
299.89755
299.91398
299.87828
299.86005
299.83127
299.80747
299.77854
299.74946
299.71848
299.68643
299.65277
299.61767
299.58099
299.54273
299.50289
299.46147
299.41849
299.37401
299.32806
299.28073
299.23209
299.18223
299.13127
299.07933
299.02653
298.97302
298.91895
298.86448
298.80976
298.75498
298.7003
298.6459
298.59196
298.53867
298.4862
298.43474
298.38445
298.33552
298.28811
298.24238
298.19848
298.15656
298.11674
298.07914
298.04386
298.01098
297.98057
297.95267
297.92729
297.90441
297.884
297.86599
297.85025
297.83663
297.82499
297.81515
297.80691
297.8
297.79416
297.7892
297.78487
297.78121
297.77799
297.77603
297.77474
297.77733
297.78086
297.79411
297.804
297.8318
297.84336
297.8847
297.88977
297.94284
297.9615
307.10778
302.80143
300.24579
299.30582
299.38356
299.35752
299.38365
299.3476
299.34119
299.31736
299.30232
299.28088
299.26076
299.23888
299.21641
299.19271
299.16793
299.14192
299.11466
299.08611
299.05623
299.02502
298.99246
298.95857
298.92338
298.88691
298.84922
298.81039
298.77048
298.72959
298.68783
298.64532
298.60219
298.55858
298.51463
298.47053
298.42641
298.38247
298.33888
298.29581
298.25345
298.21198
298.17158
298.13242
298.09468
298.0585
298.02405
297.99145
297.96083
297.9323
297.90595
297.88184
297.86
297.84047
297.82322
297.8082
297.79535
297.78454
297.77561
297.7684
297.76277
297.75849
297.75532
297.75301
297.75139
297.75028
297.74971
297.74956
297.75057
297.75227
297.75761
297.76393
297.7793
297.79143
297.82005
297.83304
297.87543
297.8818
297.93478
297.95514
306.54811
301.62836
299.45314
298.70872
298.85646
298.80162
298.84742
298.81215
298.82048
298.80342
298.79935
298.78663
298.77623
298.76381
298.75104
298.73714
298.72228
298.70633
298.68928
298.67109
298.65175
298.63121
298.60948
298.58654
298.5624
298.53708
298.51059
298.48298
298.45431
298.42463
298.39402
298.36257
298.3304
298.29761
298.26434
298.23072
298.1969
298.16305
298.12932
298.0959
298.06294
298.03064
297.99916
297.96869
297.93938
297.91139
297.88489
297.86
297.83685
297.81555
297.79619
297.77883
297.7635
297.75023
297.739
297.72975
297.7224
297.71683
297.71288
297.7104
297.70921
297.70912
297.70989
297.71129
297.71318
297.71542
297.71808
297.72109
297.72515
297.72989
297.73799
297.74704
297.76451
297.77884
297.80831
297.82265
297.86614
297.87378
297.92688
297.94897
305.98153
300.59732
298.8134
298.16673
298.36014
298.27999
298.34492
298.3082
298.32865
298.31611
298.32086
298.31528
298.3127
298.30788
298.30298
298.29716
298.29055
298.28309
298.27473
298.26544
298.25518
298.24393
298.23166
298.21836
298.204
298.1886
298.17215
298.15469
298.13623
298.11683
298.09653
298.0754
298.05353
298.03101
298.00795
297.98446
297.96068
297.93674
297.9128
297.88901
297.86553
297.84252
297.82016
297.7986
297.778
297.75852
297.7403
297.72347
297.70816
297.69447
297.68248
297.67224
297.66379
297.65714
297.65225
297.64909
297.64755
297.64751
297.6488
297.65126
297.65474
297.65904
297.66392
297.66919
297.67473
297.68045
297.68643
297.69268
297.69985
297.70764
297.71851
297.73025
297.74974
297.76626
297.7968
297.81254
297.85653
297.86557
297.9192
297.94303
305.51446
299.66039
298.27403