/*--------------------------------*- C++ -*----------------------------------*\
  =========                 |
  \\      /  F ield         | OpenFOAM: The Open Source CFD Toolbox
   \\    /   O peration     | Website:  https://openfoam.org
    \\  /    A nd           | Version:  12
     \\/     M anipulation  |
\*---------------------------------------------------------------------------*/
FoamFile
{
    format      ascii;
    class       volScalarField;
    location    "0.141";
    object      omega;
}
// * * * * * * * * * * * * * * * * * * * * * * * * * * * * * * * * * * * * * //

dimensions      [0 0 -1 0 0 0 0];

internalField   nonuniform List<scalar> 
16000
(
1089.7862
2192.3874
1070.452
644.67794
454.88321
316.30902
240.04538
181.19728
145.99306
118.18101
100.42944
85.950545
75.233707
66.273076
58.964729
52.805858
47.607034
43.172796
39.362668
36.064541
33.194155
30.680507
28.465175
26.50155
24.752075
23.187528
21.783709
20.521928
19.386347
18.362522
17.437381
16.600609
15.84399
15.160572
14.544422
13.990027
13.492201
13.046047
12.647468
12.293015
11.978809
11.700766
11.455916
11.24156
11.054636
10.892017
10.751278
10.630114
10.526316
10.437791
10.362667
10.299307
10.246182
10.201941
10.165406
10.135682
10.112182
10.094699
10.083615
10.079591
10.080159
10.080176
10.079639
10.078711
10.077257
10.075227
10.072592
10.069349
10.065467
10.060837
10.055205
10.048052
10.039075
10.031108
10.025045
10.020108
10.016107
10.017291
10.017951
10.034759
1131.4629
2183.2993
1062.6728
645.00024
455.01124
319.18772
241.09478
182.99333
146.81182
119.2034
100.96347
86.508207
75.588462
66.581117
59.186711
52.977966
47.73245
43.263576
39.426291
36.106606
33.2195
30.693664
28.469729
26.500378
24.747016
23.180049
21.774579
20.51156
19.375237
18.351406
17.426733
16.590548
15.83449
15.151494
14.535661
13.981546
13.484071
13.038281
12.639893
12.285572
11.971737
11.694085
11.44949
11.235371
11.048844
10.886634
10.746271
10.62547
10.522046
10.433902
10.359131
10.296111
10.243308
10.199376
10.16311
10.133571
10.11013
10.092467
10.0807
10.075457
10.075615
10.075605
10.074993
10.074005
10.072509
10.070444
10.067771
10.064487
10.060569
10.055916
10.050315
10.043322
10.034586
10.027012
10.021321
10.016753
10.013398
10.013186
10.017375
10.03448
1171.5528
2184.5767
1051.2102
641.33367
451.63426
319.4211
239.98675
183.17263
146.35813
119.35419
100.80447
86.51508
75.481713
66.47996
59.052849
52.832846
47.576746
43.102924
39.264636
35.946181
33.062186
30.541439
28.324016
26.362374
24.617125
23.058595
21.661424
20.406292
19.277467
18.261103
17.343802
16.514627
15.765145
15.088199
14.477934
13.928953
13.436315
12.995112
12.600879
12.250262
11.940055
11.665841
11.424313
11.212914
11.029012
10.869226
10.73104
10.612187
10.510518
10.423965
10.350597
10.288818
10.237106
10.194137
10.158707
10.129854
10.106928
10.089581
10.077783
10.071871
10.071484
10.071369
10.070628
10.069525
10.067931
10.065778
10.063021
10.059652
10.055656
10.050933
10.045295
10.03838
10.029867
10.022764
10.0175
10.013426
10.010453
10.009853
10.015567
10.029242
1209.8572
2192.5824
1041.3225
637.89125
447.84639
319.44825
238.58117
183.19148
145.76403
119.40503
100.59475
86.460713
75.334381
66.332081
58.879109
52.649509
47.386028
42.90963
39.072762
35.757812
32.878925
30.365136
28.155917
26.203634
24.468031
22.919402
21.53195
20.286066
19.165948
18.158155
17.249306
16.428176
15.686272
15.016319
14.41251
13.869479
13.382413
12.946506
12.557148
12.210821
11.904766
11.634511
11.396559
11.188276
11.007355
10.850326
10.714611
10.597957
10.498249
10.413467
10.341651
10.281236
10.230712
10.188783
10.154252
10.12614
10.10377
10.086771
10.075041
10.068746
10.067723
10.067448
10.066544
10.065289
10.063563
10.061292
10.058422
10.054938
10.050833
10.046016
10.040307
10.033443
10.025111
10.018498
10.013692
10.010125
10.007462
10.006868
10.013446
10.024698
1246.1916
2210.6964
1032.9358
634.14382
443.30682
318.73872
236.49632
182.72568
144.79285
119.17848
100.19767
86.230319
75.048603
66.052517
58.590868
52.362566
47.102591
42.632588
38.805161
35.500875
32.63332
30.132003
27.935839
25.997297
24.275321
22.740245
21.365907
20.132453
19.023918
18.027294
17.129346
16.318563
15.586419
14.925506
14.330075
13.794775
13.314902
12.885806
12.50281
12.162082
11.861334
11.59612
11.362795
11.158505
10.981337
10.827768
10.69515
10.58124
10.483947
10.401336
10.331408
10.272643
10.223541
10.182843
10.149376
10.122148
10.10046
10.083925
10.072403
10.065949
10.064337
10.063841
10.062737
10.06129
10.059395
10.056972
10.053957
10.050328
10.046084
10.041144
10.035327
10.028477
10.020396
10.014295
10.009969
10.006899
10.00456
10.00416
10.010758
10.019893
1280.4141
2236.3804
1028.7941
631.14153
439.27
317.40254
233.93163
181.85225
143.54637
118.71221
99.657531
85.845961
74.643755
65.658439
58.202575
51.98519
46.737921
42.282012
38.470796
35.183312
32.332432
29.848362
27.669475
25.748383
24.043532
22.525241
21.167032
19.94887
18.854529
17.871427
16.986612
16.188269
15.467882
14.817882
14.232586
13.706653
13.235462
12.81453
12.439253
12.105358
11.810955
11.551723
11.32397
11.12446
10.951714
10.802213
10.673227
10.562531
10.468032
10.387925
10.320161
10.263278
10.215787
10.176473
10.144194
10.117958
10.097048
10.081057
10.069828
10.063333
10.061278
10.060507
10.05917
10.057498
10.0554
10.052795
10.04961
10.04581
10.041399
10.036313
10.030361
10.023477
10.015755
10.010189
10.006358
10.003773
10.001798
10.001657
10.008021
10.015648
1312.4806
2267.2578
1028.7363
628.30655
435.31524
315.42877
231.25947
180.60677
142.11413
118.0088
98.983283
85.306432
74.116056
65.147731
57.711026
51.514407
46.288945
41.854944
38.066582
34.802149
31.973443
29.511562
27.354464
25.454226
23.770195
22.272142
20.933282
19.733487
18.656181
17.689154
16.819893
16.036258
15.329788
14.692724
14.119458
13.604656
13.143761
12.732429
12.366277
12.040689
11.753727
11.501423
11.280208
11.086312
10.918653
10.773818
10.648992
10.541972
10.450632
10.373345
10.308006
10.253221
10.207518
10.169725
10.138747
10.113602
10.093556
10.078184
10.067319
10.060887
10.058509
10.05742
10.055819
10.053891
10.05156
10.048747
10.045368
10.041376
10.036771
10.031518
10.025419
10.018437
10.011254
10.006242
10.002911
10.000797
9.9992277
9.9993543
10.00523
10.011355
1342.5008
2300.7838
1030.2852
625.16399
431.43325
312.80909
228.61126
179.12792
140.60304
117.09107
98.191781
84.620229
73.466631
64.522447
57.116327
50.949662
45.754555
41.350186
37.59043
34.355201
31.554237
29.119551
26.98911
25.111229
23.451855
21.977724
20.661684
19.483608
18.426478
17.478352
16.627326
15.860908
15.170752
14.548862
13.989715
13.487983
13.039167
12.639018
12.283424
11.968368
11.689995
11.44554
11.2318
11.044467
10.88253
10.742913
10.622746
10.519833
10.431975
10.357788
10.2951
10.2426
10.198835
10.162677
10.13309
10.109114
10.090003
10.07531
10.064862
10.05857
10.055979
10.054538
10.052647
10.050438
10.04785
10.044803
10.041212
10.037013
10.032194
10.026752
10.020518
10.013374
10.006931
10.002496
9.9996643
9.9980064
9.9968792
9.9972722
10.002503
10.007952
1370.5706
2334.7381
1028.7806
621.25036
426.66046
309.48846
225.08398
177.25865
138.76296
115.9884
97.278896
83.786529
72.688509
63.7779
56.413467
50.285227
45.129049
40.762614
37.034286
33.834361
31.06705
28.664906
26.566871
24.720164
23.08985
21.643766
20.354301
19.201475
18.167799
17.24146
16.411353
15.664637
14.993148
14.38861
13.845593
13.358774
12.923716
12.536261
12.192358
11.887974
11.619504
11.383902
11.178567
10.99928
10.843688
10.709788
10.594816
10.496406
10.412322
10.341471
10.281619
10.231555
10.189848
10.155414
10.127284
10.104533
10.086412
10.072449
10.062454
10.056349
10.053635
10.051819
10.049617
10.047108
10.04424
10.040943
10.037124
10.032708
10.027663
10.022005
10.015668
10.008489
10.002831
9.9989921
9.9966563
9.9954358
9.9947732
9.9954461
9.9999829
10.004571
1396.7853
2367.4744
1020.1349
616.24961
420.17329
305.72526
220.721
174.91653
136.86415
114.70485
96.234251
82.800049
71.773602
62.906058
55.59436
49.508183
44.398477
40.078832
36.396506
33.240471
30.514397
28.151218
26.091186
24.280078
22.683512
21.269744
20.010774
18.886899
17.880156
16.978659
16.172224
15.447806
14.797452
14.212537
13.687733
13.217723
12.798123
12.424868
12.094071
11.801758
11.544247
11.318349
11.121989
10.950651
10.802116
10.674401
10.565492
10.471947
10.391948
10.324619
10.267757
10.220238
10.180678
10.148026
10.121391
10.099899
10.082803
10.069608
10.060093
10.054197
10.051422
10.049218
10.046691
10.043865
10.040704
10.03714
10.033083
10.028444
10.023174
10.017277
10.010838
10.0039
9.9989905
9.9957611
9.9939165
9.9931119
9.9929167
9.9938771
9.9977802
10.001611
1421.2615
2398.2759
1011.2408
610.17883
412.0366
301.56354
216.0997
172.37867
134.86889
113.24006
95.044909
81.653637
70.710173
61.886304
54.636386
48.613597
43.564153
39.302828
35.675133
32.571608
29.894351
27.576773
25.560856
23.791066
22.233186
20.856163
19.63182
18.540785
17.56465
16.691256
15.911024
15.211557
14.584871
14.021893
13.517409
13.066098
12.663638
12.306036
11.989575
11.710378
11.464849
11.249594
11.062918
10.900267
10.759267
10.637904
10.534725
10.446407
10.371084
10.307417
10.253703
10.208808
10.171447
10.140607
10.115476
10.095251
10.079195
10.066793
10.057778
10.05209
10.049281
10.046689
10.043827
10.040677
10.037212
10.033371
10.029067
10.024205
10.018718
10.012586
10.005985
9.9996357
9.9954439
9.992826
9.9914689
9.9910579
9.9913113
9.9925719
9.9959462
9.9991662
1444.1224
2428.153
997.82149
602.57526
402.499
296.99446
211.3065
169.58567
132.84838
111.60007
93.683662
80.316912
69.460404
60.71215
53.543077
47.598109
42.622286
38.43112
34.868481
31.826626
29.206583
26.941634
24.976094
23.253479
21.739636
20.403611
19.21824
18.164138
17.222463
16.380777
15.628
14.956168
14.355743
13.817084
13.335071
12.904373
12.520746
12.180241
11.879355
11.614322
11.381677
11.1786
11.002106
10.848559
10.715544
10.600916
10.503698
10.420643
10.349676
10.289807
10.239592
10.197408
10.162277
10.133251
10.109607
10.090629
10.075603
10.064004
10.055511
10.050015
10.047156
10.044187
10.040986
10.03751
10.033736
10.029612
10.025057
10.019971
10.01428
10.007965
10.001142
9.9957265
9.9922163
9.9901989
9.9893289
9.989293
9.9899506
9.9915288
9.9945514
9.9971756
1465.6771
2456.2684
980.48496
594.0553
392.45009
292.01591
206.44339
166.59456
130.77698
109.76286
92.085318
78.773148
68.029335
59.377514
52.307873
46.457893
41.570061
37.46194
33.975412
31.004824
28.450848
26.246212
24.337146
22.667936
21.204077
19.911635
18.769718
17.756842
16.853591
16.047777
15.328278
14.686702
14.114969
13.602841
13.145235
12.736786
12.373385
12.051092
11.766658
11.516522
11.29713
11.105584
10.939785
10.795733
10.671064
10.563899
10.472638
10.394971
10.328594
10.272418
10.225317
10.186122
10.153269
10.126049
10.103848
10.086071
10.072042
10.061235
10.053287
10.047975
10.044996
10.04167
10.038133
10.034333
10.03025
10.025841
10.021035
10.01573
10.009837
10.00343
9.9968085
9.9921904
9.9893268
9.987883
9.9874995
9.9878303
9.9888256
9.9907135
9.9936457
9.9959782
1486.1618
2478.8833
958.98168
584.9807
381.95653
286.68099
201.59651
163.41229
128.58331
107.63318
90.234025
77.011455
66.404105
57.874086
50.924602
45.188106
40.404193
36.392927
32.994818
30.105228
27.626962
25.491289
23.642567
22.033102
20.626015
19.386656
18.293291
17.326277
16.465604
15.699169
15.015663
14.406885
13.865669
13.381972
12.950434
12.565583
12.223543
11.92034
11.652963
11.418208
11.21261
11.033144
10.878084
10.743599
10.627218
10.526882
10.441595
10.369274
10.307897
10.255536
10.211431
10.174812
10.144461
10.119073
10.098263
10.081617
10.068532
10.058474
10.051087
10.04599
10.042758
10.039101
10.035236
10.031119
10.026733
10.022039
10.016981
10.011475
10.005403
9.9988761
9.9929584
9.9890618
9.9867893
9.9858754
9.9859702
9.9866711
9.9879369
9.9900901
9.9930527
9.9953998
1505.834
2491.3149
933.35816
575.25765
371.08597
281.02221
196.84041
159.95964
126.147
105.21826
88.102376
75.013998
64.57217
56.191684
49.385847
43.783632
39.12173
35.221729
31.925995
29.124672
26.732027
24.675227
22.900813
21.358854
20.015247
18.834467
17.794837
16.87772
16.06348
15.339856
14.695335
14.121641
13.610975
13.15707
12.752862
12.392578
12.072712
11.789238
11.539286
11.320148
11.128478
10.961986
10.817585
10.692573
10.584581
10.491269
10.411748
10.344394
10.287399
10.23925
10.198157
10.163914
10.135687
10.112333
10.092904
10.077305
10.065095
10.055718
10.048865
10.044064
10.040416
10.036447
10.032267
10.027846
10.023166
10.018197
10.012885
10.007182
10.001024
9.9944738
9.9895904
9.9863567
9.9846164
9.9841733
9.984719
9.9857975
9.9872889
9.9896635
9.9928074
9.9954541
1524.9135
2483.1445
903.99522
564.93409
359.88502
275.04541
192.16858
156.10907
123.39066
102.47309
85.660567
72.757997
62.517446
54.319166
47.684185
42.23891
37.719916
33.942388
30.764502
28.071915
25.7785
23.811477
22.119921
20.653454
19.379717
18.263667
17.282806
16.417491
15.652765
14.974631
14.371218
13.83485
13.357975
12.934397
12.558117
12.222754
11.925292
11.661724
11.429111
11.225467
11.047173
10.892287
10.758446
10.642679
10.542927
10.457159
10.383339
10.320768
10.267761
10.223296
10.185553
10.153611
10.127264
10.105657
10.087777
10.073166
10.061758
10.052982
10.046561
10.042024
10.037959
10.033688
10.02921
10.0245
10.019538
10.014305
10.008752
10.002837
9.9966727
9.9907357
9.9866778
9.9840778
9.9828156
9.9827781
9.9837195
9.9851697
9.9868885
9.9894534
9.9929635
9.9959
1543.5681
2434.1809
872.35443
554.04272
348.41067
268.66315
187.27059
151.8327
120.20076
99.34982
82.874855
70.218746
60.224034
52.246902
45.813015
40.544453
36.191279
32.566562
29.526674
26.958063
24.777883
22.912104
21.312594
19.929456
18.729175
17.682637
16.765263
15.957658
15.244576
14.613768
14.0527
13.554233
13.111151
12.717748
12.369056
12.058403
11.783039
11.53924
11.323722
11.135223
10.970097
10.826413
10.702575
10.59559
10.503368
10.424246
10.356526
10.29858
10.249291
10.208151
10.173347
10.143957
10.119325
10.099263
10.082733
10.069217
10.058537
10.050306
10.044195
10.039806
10.03538
10.030814
10.026055
10.021075
10.015847
10.010361
10.004598
9.9985118
9.9922622
9.9875174
9.9842164
9.9822077
9.9813843
9.981694
9.9829525
9.9847291
9.9867092
9.9894685
9.9932853
9.9965219
1561.6628
2398.6596
840.44652
542.527
336.66557
261.3336
182.22022
147.0272
116.4634
95.790387
79.710125
67.372131
57.676562
49.966613
43.759899
38.711921
34.557376
31.109688
28.229139
25.801683
23.748032
21.994634
20.49229
19.199599
18.081003
17.107616
16.256168
15.507689
14.847017
14.263712
13.745135
13.284456
12.874909
12.510882
12.187589
11.900898
11.646813
11.422226
11.224279
11.050252
10.89786
10.764813
10.650286
10.551606
10.4665
10.393427
10.3309
10.277553
10.23214
10.194006
10.161871
10.134729
10.11194
10.093221
10.077922
10.065428
10.055425
10.047718
10.041836
10.037416
10.032681
10.027831
10.022805
10.017575
10.012104
10.006373
10.000408
9.994318
9.9886453
9.9847577
9.9821708
9.9807127
9.9803005
9.9809186
9.982413
9.9844295
9.9866744
9.9896048
9.9934952
9.9970857
1578.7401
2356.6569
807.62137
530.05211
324.54654
252.82219
176.82378
141.57721
112.06988
91.733621
76.132806
64.197324
54.856352
47.463896
41.550233
36.763829
32.842262
29.598264
26.897289
24.627059
22.707991
21.076915
19.682489
18.484333
17.449609
16.550935
15.765995
15.076777
14.467933
13.929581
13.452416
13.028327
12.651174
12.315889
12.018148
11.754023
11.519976
11.312985
11.130488
10.970197
10.830041
10.707973
10.602055
10.511022
10.432531
10.365099
10.307362
10.258124
10.216308
10.180939
10.15122
10.126161
10.105111
10.087572
10.073327
10.061688
10.052395
10.045199
10.039566
10.03487
10.02988
10.02476
10.019478
10.014012
10.008327
10.002392
9.9962452
9.9901576
9.9856109
9.9824542
9.9804967
9.9795466
9.9795199
9.9804263
9.9820971
9.9842445
9.9866718
9.9898076
9.9937244
9.9975867
1594.1355
2288.8626
773.14065
516.11956
311.28693
242.9796
170.76632
135.34291
106.91958
87.120585
72.117021
60.675102
51.780846
44.786731
39.220501
34.739059
31.084127
28.067388
25.559076
23.459312
21.688637
20.185492
18.9019
17.799948
16.849145
16.024197
15.303893
14.670615
14.11254
13.61876
13.180846
12.79145
12.444782
12.136196
11.86194
11.618717
11.403327
11.212836
11.044846
10.897114
10.76779
10.655263
10.55813
10.47402
10.401562
10.339288
10.28591
10.240309
10.201525
10.169005
10.141411
10.118174
10.098655
10.082368
10.069048
10.058144
10.049418
10.042657
10.037266
10.03222
10.027003
10.021638
10.016112
10.010416
10.004533
9.9984434
9.9922671
9.9868534
9.9830815
9.9805752
9.9791522
9.9786581
9.9789946
9.98016
9.9819784
9.984195
9.9867259
9.9900266
9.9939708
9.9979918
1606.7559
2219.9761
736.1004
500.14877
297.24204
231.61006
163.57682
128.15686
100.93555
81.921329
67.657015
56.84662
48.512119
41.9943
36.830463
32.690723
29.329381
26.554297
24.25523
22.333129
20.714125
19.340722
18.167917
17.160528
16.290814
15.536189
14.876173
14.297326
13.78663
13.334115
12.932621
12.575365
12.257003
11.973164
11.720403
11.49601
11.297511
11.121946
10.967218
10.831151
10.711885
10.608463
10.518495
10.440703
10.373646
10.316028
10.266624
10.224404
10.188507
10.158192
10.132519
10.110883
10.092726
10.077576
10.065088
10.054829
10.046555
10.040087
10.034848
10.029517
10.024088
10.018507
10.012766
10.00685
10.000775
9.9946017
9.9885763
9.9841599
9.9810461
9.9790879
9.9781056
9.977977
9.9786544
9.9800498
9.9819959
9.9842578
9.9868533
9.9902677
9.9942461
9.9982759
1613.8015
2136.4572
696.26554
480.44017
282.14485
218.39411
154.77986
119.88126
94.117608
76.183528
62.83711
52.820424
45.147425
39.173386
34.454489
30.680352
27.623796
25.105556
23.019013
21.275372
19.806278
18.55933
17.493472
16.576481
15.782966
15.092808
14.489756
13.960181
13.493041
13.078135
12.709571
12.38135
12.088649
11.827432
11.594338
11.386745
11.203277
11.04092
10.897898
10.772372
10.662535
10.566653
10.483297
10.411104
10.348815
10.295295
10.24944
10.210132
10.176896
10.148575
10.124567
10.104298
10.087302
10.07319
10.061441
10.051768
10.043899
10.037604
10.03238
10.026822
10.02119
10.015417
10.009496
10.003401
9.9971367
9.9909026
9.9856982
9.981972
9.9794445
9.9779533
9.9773527
9.9775252
9.9784557
9.9800395
9.9820899
9.9844003
9.9870512
9.9905063
9.9944897
9.9984353
1610.1056
2034.0003
653.12119
454.69276
265.81585
202.98049
144.13423
110.54086
86.61735
70.035993
57.844039
48.744844
41.806784
36.419824
32.170226
28.772147
26.02096
23.758295
21.87998
20.308173
18.981494
17.853303
16.887098
16.05413
15.331615
14.701476
14.149288
13.663238
13.23354
12.852269
12.512873
12.210254
11.940143
11.699031
11.483946
11.29234
11.122025
10.971188
10.838087
10.72117
10.618959
10.529939
10.452427
10.385239
10.32715
10.277132
10.234517
10.197943
10.166703
10.140147
10.117622
10.09853
10.082592
10.069214
10.058094
10.048928
10.041479
10.035348
10.029925
10.024211
10.018393
10.012433
10.006343
10.000136
9.993859
9.98778
9.9834107
9.9802638
9.978214
9.9771039
9.9768241
9.9772716
9.9783864
9.9801004
9.9822192
9.9845814
9.9873044
9.9907739
9.9947269
9.9985734
1589.5159
1902.918
606.87718
422.23056
248.25936
185.16096
131.86287
100.46279
78.785895
63.805618
52.899893
44.786014
38.613983
33.82712
30.049444
27.022392
24.564512
22.544687
20.861684
19.448738
18.252199
17.2314
16.354594
15.596655
14.937446
14.360771
13.853772
13.406524
13.010339
12.658242
12.344208
12.063735
11.813002
11.588888
11.388765
11.210382
11.051759
10.911114
10.786824
10.677392
10.58151
10.498351
10.425906
10.3631
10.308824
10.262064
10.221907
10.187521
10.158044
10.132915
10.111724
10.093721
10.078513
10.065751
10.055121
10.046385
10.039179
10.033178
10.027571
10.021744
10.015794
10.009682
10.003413
9.9970269
9.9907357
9.9854507
9.9816415
9.9789941
9.9773301
9.9765049
9.976454
9.9771774
9.9784217
9.9802215
9.9823742
9.9847742
9.98756
9.9910216
9.9949142
9.998671
1543.1977
1743.0744
558.69859
383.84628
230.39081
165.20873
118.65318
90.273441
71.081758
57.817597
48.229866
41.104319
35.68601
31.480035
28.153366
25.477882
23.294379
21.489821
19.982181
18.710118
17.627949
16.700682
15.901088
15.20762
14.602918
14.07267
13.604371
13.190047
12.821977
12.494689
12.202175
11.940489
11.706208
11.496529
11.309087
11.141853
10.993038
10.861035
10.744365
10.64165
10.551598
10.472988
10.40464
10.345264
10.293887
10.24954
10.211409
10.17894
10.151073
10.127267
10.106982
10.089767
10.075199
10.062911
10.052702
10.044182
10.037127
10.031166
10.025395
10.019465
10.013424
10.007244
10.00092
9.9945032
9.9882932
9.9836915
9.9803345
9.9780888
9.9767678
9.9762038
9.9761832
9.9771886
9.9785223
9.9803736
9.9825439
9.9849764
9.9878107
9.9912468
9.9950548
9.9986681
1462.9892
1581.056
509.57499
344.30954
206.39635
145.88162
105.44804
80.662722
63.962133
52.386128
44.049731
37.855054
33.133571
29.454465
26.530399
24.165898
22.224863
20.610624
19.253325
18.101735
17.116621
16.26812
15.532843
14.892243
14.331376
13.838066
13.402283
13.015719
12.671632
12.364409
12.089397
11.842938
11.621957
11.423918
11.246672
11.088365
10.947352
10.822135
10.711322
10.613602
10.527749
10.452683
10.387693
10.331171
10.282256
10.240034
10.203692
10.172493
10.145771
10.12288
10.103337
10.08671
10.072713
10.060849
10.050862
10.042498
10.035504
10.029514
10.023574
10.017509
10.011344
10.005066
9.9986905
9.9923318
9.9865521
9.9824075
9.9794031
9.9774282
9.9763329
9.9759841
9.9763226
9.9772377
9.9786656
9.9805288
9.9827005
9.9851496
9.9880016
9.9913913
9.9951234
9.9986485
1350.709
1493.2739
463.38822
296.87921
182.52423
127.72909
93.509165
72.152279
57.801024
47.804691
40.57751
35.189569
31.060324
27.820654
25.227323
23.115564
21.370654
19.910565
18.674444
17.619933
16.713235
15.928603
15.245713
14.648319
14.123244
13.659721
13.248838
12.88326
12.557034
12.265674
12.004251
11.769567
11.558807
11.369662
11.200169
11.048629
10.913537
10.793518
10.687293
10.593646
10.511406
10.439426
10.376583
10.321944
10.274563
10.233594
10.198265
10.167915
10.142074
10.119904
10.100971
10.084829
10.071107
10.059483
10.04967
10.041414
10.034461
10.028436
10.022366
10.016175
10.009872
10.003461
9.9969873
9.9906588
9.9853825
9.9815516
9.9788366
9.9770958
9.976188
9.9759208
9.9764003
9.9773678
9.978838
9.9806957
9.9828598
9.9853086
9.9881308
9.9914068
9.9949976
9.9984948
1217.8931
1251.9816
423.162
254.5654
160.32192
112.58908
83.629191
65.279233
52.931155
44.273392
37.966502
33.221611
29.551475
26.645922
24.300072
22.374531
20.771779
19.421928
18.273759
17.288935
16.438324
15.699253
15.053772
14.487387
13.988194
13.546294
13.15364
12.803473
12.490217
12.209266
11.956847
11.729814
11.52558
11.341979
11.177171
11.029563
10.897734
10.780387
10.676316
10.584389
10.503587
10.43318
10.37161
10.31804
10.271554
10.231329
10.196611
10.166716
10.141032
10.119024
10.100205
10.084153
10.070499
10.058922
10.049141
10.040906
10.033963
10.027936
10.021846
10.015616
10.009257
10.002767
9.9962038
9.9898322
9.984799
9.9811292
9.9785616
9.9769454
9.9761415
9.9759199
9.9765131
9.9775191
9.9790052
9.9808657
9.9830379
9.9855039
9.988308
9.9914818
9.994929
9.9983877
1098.4772
1113.7127
390.43923
223.8184
143.71107
101.44965
76.310311
60.272312
49.449224
41.794884
36.162121
31.88355
28.543286
25.876223
23.706011
21.91186
20.408674
19.135069
18.045811
17.106901
16.292288
15.581631
14.958754
14.410666
13.927222
13.498084
13.115987
12.774544
12.468512
12.193526
11.945988
11.722931
11.521902
11.340852
11.178044
11.031973
10.901295
10.784783
10.681286
10.589705
10.508988
10.438121
10.376143
10.32212
10.275183
10.23452
10.199385
10.1691
10.143054
10.120703
10.101565
10.085216
10.071285
10.059449
10.049427
10.040967
10.033825
10.027664
10.021668
10.0155
10.009229
10.002836
9.9963713
9.9900655
9.9849325
9.9812228
9.9786283
9.9770112
9.97625
9.9760832
9.976604
9.9776281
9.9791056
9.9809602
9.9831414
9.9856276
9.9884247
9.9915285
9.9948735
9.9983164
1043.6143
1072.7682
366.14305
206.71302
132.82496
93.884495
70.853681
56.291151
46.481563
39.534102
34.405605
30.49208
27.423585
24.963265
22.953506
21.285956
19.884051
18.692393
17.670063
16.786266
16.017392
15.344995
14.754367
14.233544
13.77262
13.363301
12.998561
12.672483
12.380091
12.117237
11.880476
11.666967
11.474359
11.300696
11.144328
11.003835
10.877956
10.765546
10.665532
10.576893
10.498645
10.429839
10.369559
10.316932
10.271133
10.231392
10.196998
10.167303
10.141721
10.11973
10.100863
10.084713
10.07092
10.059171
10.049193
10.040743
10.033581
10.027376
10.021316
10.015095
10.008774
10.002338
9.995845
9.9895638
9.9846667
9.9810662
9.9785513
9.9769748
9.9762092
9.9760078
9.9766387
9.9776386
9.9791076
9.9809506
9.9831369
9.9856421
9.988446
9.9915162
9.994812
9.998269
31493.161
79196.919
37075.935
10736.688
1413.7323
612.75365
435.10533
351.40739
291.16408
236.853
192.93998
159.59384
134.94571
116.66375
102.59808
91.094283
81.353587
73.042671
65.926951
59.790269
54.453684
49.781181
45.667675
42.027625
38.795552
35.906805
33.315875
30.982655
28.875178
26.968222
25.240278
23.67218
22.247188
20.950564
19.770728
18.697948
17.723464
16.839515
16.039017
15.31552
14.663402
14.077091
13.551512
13.082092
12.664334
12.294
11.967259
11.680077
11.428764
11.209964
11.020401
10.856955
10.716648
10.596948
10.495333
10.409553
10.339144
10.284027
10.244296
10.222887
10.215818
10.213677
10.21135
10.208184
10.204538
10.200453
10.195721
10.188709
10.178794
10.167182
10.151557
10.136664
10.106971
10.091268
10.070536
10.071015
10.041712
10.059234
9.9976183
10.022711
19958.95
59620.736
24681.195
5101.0537
975.01159
530.02678
398.68955
322.22152
264.70254
213.2527
174.83625
145.9569
124.85571
109.04346
96.558538
86.07749
77.139728
69.506525
62.94837
57.263272
52.296128
47.930575
44.07428
40.65106
37.598879
34.864529
32.406468
30.187178
28.178453
26.357615
24.704818
23.202299
21.834642
20.588281
19.45286
18.419377
17.479656
16.626487
15.853229
15.153847
14.523088
13.955616
13.446664
12.991899
12.587003
12.227939
11.91105
11.632408
11.388498
11.176095
10.992025
10.833272
10.696962
10.580673
10.481966
10.398603
10.329705
10.275912
10.237417
10.217266
10.2108
10.208823
10.206521
10.20342
10.199862
10.195859
10.19135
10.185063
10.175837
10.164737
10.1497
10.135049
10.106316
10.090968
10.070393
10.070864
10.041872
10.059768
9.9981924
10.023293
28186.74
35573.731
13567.175
2557.4997
838.67058
500.03012
388.63681
306.92444
251.23947
201.64306
167.03648
139.85314
120.27485
105.35762
93.449104
83.37707
74.817554
67.509296
61.218384
55.755586
50.97729
46.77401
43.057606
39.755199
36.805842
34.162172
31.78394
29.634576
27.687941
25.922286
24.318468
22.85941
21.530385
20.318423
19.213871
18.208037
17.293076
16.462093
15.708685
15.027067
14.412204
13.858882
13.362544
12.918997
12.52403
12.173743
11.864592
11.59271
11.354712
11.147459
10.967845
10.812933
10.679941
10.566538
10.470206
10.388882
10.321294
10.268524
10.23098
10.211787
10.205774
10.203943
10.201688
10.198667
10.195203
10.191292
10.186834
10.181268
10.17277
10.162213
10.147788
10.133396
10.105689
10.090576
10.070139
10.070608
10.041925
10.060174
9.9987816
10.02388
35721.162
24038.399
8371.243
1551.0185
756.31109
476.71959
376.21485
290.9666
239.97696
190.94229
159.97937
133.92996
115.92344
101.81296
90.477846
80.810728
72.617657
65.612527
59.571878
54.318376
49.717661
45.666599
42.081292
38.892179
36.041606
33.481616
31.178227
29.094988
27.207363
25.494308
23.937363
22.520072
21.228333
20.049722
18.975244
17.996446
17.105796
16.296686
15.56292
14.898946
14.299925
13.760747
13.27706
12.844795
12.459837
12.118422
11.817107
11.552084
11.3201
11.118092
10.943025
10.792041
10.662515
10.551974
10.458092
10.37886
10.312774
10.261049
10.224489
10.206237
10.200719
10.199037
10.196834
10.1939
10.190534
10.186717
10.182356
10.177242
10.169502
10.159515
10.145723
10.131603
10.104943
10.090065
10.06976
10.07026
10.04187
10.060464
9.9993801
10.024476
40256.882
20457.974
5889.977
1231.1569
721.73162
459.21806
366.5083
278.48704
231.76357
182.76305
154.97792
129.32681
112.63818
98.998187
88.088247
78.721363
70.814212
64.041435
58.194873
53.105525
48.645661
44.716543
41.237202
38.140474
35.37067
32.88245
30.63986
28.612381
26.77498
25.10703
23.590583
22.209648
20.950613
19.801473
18.753776
17.799194
16.930466
16.141199
15.425358
14.77758
14.193179
13.667119
13.19523
12.773531
12.397991
12.06496
11.77108
11.51259
11.286357
11.089384
10.9187
10.771529
10.645329
10.537584
10.446092
10.368904
10.304416
10.253676
10.218063
10.200601
10.195653
10.194111
10.191968
10.189129
10.185866
10.182145
10.177877
10.173014
10.16606
10.156668
10.143528
10.129698
10.104095
10.089443
10.06925
10.069827
10.041695
10.060644
9.9999842
10.025085
43055.868
19080.848
4529.2248
1158.8053
701.18733
440.8013
358.9853
268.64355
225.47238
176.22887
151.05325
125.43012
109.92336
96.571505
86.029089
76.908415
69.241458
62.661216
56.977888
52.027687
47.688013
43.8635
40.475516
37.458838
34.759515
32.333573
30.145105
28.166946
26.374112
24.746447
23.266364
21.918247
20.688894
19.566648
18.543532
17.611268
16.762854
15.992063
15.292991
14.660438
14.08984
13.576215
13.115562
12.703964
12.337461
12.012507
11.725812
11.473655
11.253019
11.060964
10.894588
10.751225
10.628208
10.523215
10.434087
10.358927
10.296146
10.246358
10.211674
10.195053
10.19059
10.18917
10.187095
10.184357
10.1812
10.177579
10.173408
10.16862
10.162434
10.153663
10.141193
10.127672
10.103111
10.088727
10.068634
10.069313
10.041417
10.060711
10.000592
10.025702
45280.184
17175.584
3636.4125
1107.8035
685.79344
428.12775
353.04834
260.74188
220.61174
171.0282
147.92821
122.14998
107.67159
94.477261
84.253079
75.332452
67.866499
61.446153
55.90019
51.067891
46.830776
43.096049
39.786922
36.839721
34.201872
31.830665
29.691511
27.755787
26.00238
24.410703
22.963294
21.644817
20.442409
19.344703
18.34414
17.432432
16.602826
15.84922
15.165814
14.547551
13.989965
13.488109
13.038139
12.636178
12.278329
11.961141
11.681375
11.435347
11.220154
11.03291
10.870821
10.731056
10.61118
10.508901
10.422107
10.348952
10.287926
10.239107
10.205332
10.18956
10.185524
10.18422
10.182221
10.179589
10.17654
10.173021
10.168949
10.164264
10.158625
10.150502
10.138716
10.125524
10.101972
10.087904
10.067926
10.068694
10.041071
10.060658
10.001204
10.026299
46923.579
14532.842
3068.6264
1076.7511
674.08049
417.91244
347.89315
254.27427