/*--------------------------------*- C++ -*----------------------------------*\
  =========                 |
  \\      /  F ield         | OpenFOAM: The Open Source CFD Toolbox
   \\    /   O peration     | Website:  https://openfoam.org
    \\  /    A nd           | Version:  12
     \\/     M anipulation  |
\*---------------------------------------------------------------------------*/
FoamFile
{
    format      ascii;
    class       volVectorField;
    location    "0.141";
    object      U;
}
// * * * * * * * * * * * * * * * * * * * * * * * * * * * * * * * * * * * * * //

dimensions      [0 1 -1 0 0 0 0];

internalField   nonuniform List<vector> 
16000
(
(215.75158 -3.1381671e-17 -8.3925201)
(252.72651 0 5.3891658)
(238.78314 0 -7.580322)
(246.48582 4.9656086e-17 3.7975759)
(241.79022 -4.9015016e-17 -5.9605991)
(244.00086 0 1.760537)
(242.20375 0 -4.3310575)
(242.71093 8.3897444e-17 -0.025264475)
(241.86992 -7.9709193e-17 -3.1624903)
(241.74849 0 -1.2673044)
(241.23432 7.2023453e-17 -2.5674545)
(240.88674 -2.0519477e-16 -1.9856852)
(240.44287 1.298754e-16 -2.425206)
(240.0139 -1.2354187e-16 -2.3619849)
(239.55685 1.1721679e-16 -2.5231505)
(239.08592 -3.4770685e-18 -2.594905)
(238.59636 -3.3030777e-18 -2.6982045)
(238.08907 -9.7469727e-17 -2.7907359)
(237.56352 1.9096407e-16 -2.8850117)
(237.01957 -9.0605125e-17 -2.9770627)
(236.45705 1.72344e-16 -3.0672774)
(235.87591 -1.6336768e-16 -3.1549616)
(235.27614 0 -3.2396207)
(234.65785 1.5207048e-16 -3.3206763)
(234.02122 -4.1153794e-18 -3.3975417)
(233.36655 -2.6541172e-16 -3.4695977)
(232.69425 1.2579614e-16 -3.5362186)
(232.00485 0 -3.596765)
(231.29902 0 -3.650601)
(230.57754 2.1846886e-16 -3.697099)
(229.84134 -2.0355495e-16 -3.735653)
(229.0915 0 -3.7656878)
(228.3292 0 -3.7866695)
(227.5558 0 -3.7981202)
(226.77274 5.1355051e-18 -3.7996277)
(225.98162 1.5585343e-16 -3.7908566)
(225.18412 -1.4267106e-16 -3.771561)
(224.38203 -1.3973617e-16 -3.7415909)
(223.57722 1.2372816e-16 -3.7009028)
(222.77161 0 -3.6495664)
(221.96717 -1.1841973e-16 -3.5877662)
(221.16586 1.1177533e-16 -3.5158057)
(220.36967 -2.1183601e-16 -3.4341048)
(219.58054 1.9986255e-16 -3.3431958)
(218.80035 -1.9519603e-16 -3.2437172)
(218.03091 3.573744e-16 -3.1364021)
(217.27394 5.5990802e-18 -3.0220674)
(216.53102 2.9702254e-19 -2.9015981)
(215.80361 -1.5042499e-16 -2.7759315)
(215.09303 1.4226912e-16 -2.6460401)
(214.40041 -1.2566808e-16 -2.5129143)
(213.72673 0 -2.3775432)
(213.07279 7.4689709e-18 -2.2408989)
(212.43921 0 -2.1039187)
(211.82642 6.6464985e-18 -1.9674905)
(211.23467 2.0696052e-16 -1.8324411)
(210.66405 -3.7827452e-16 -1.6995247)
(210.11448 1.0923151e-17 -1.5694132)
(209.58571 1.6809388e-16 -1.4426863)
(209.07729 -1.4878702e-16 -1.3198395)
(208.58859 1.4014898e-16 -1.201259)
(208.11884 -8.8188159e-18 -1.0872662)
(207.66715 0 -0.97807658)
(207.23231 0 -0.87380237)
(206.81275 -1.1113387e-16 -0.77447182)
(206.40651 1.1181307e-16 -0.68002748)
(206.01122 -9.9076856e-17 -0.59034315)
(205.6243 1.9339452e-16 -0.50523554)
(205.24322 -1.8873827e-16 -0.42447769)
(204.86566 8.3671983e-17 -0.34782208)
(204.48933 5.283704e-18 -0.27502418)
(204.11139 0 -0.20586323)
(203.72823 4.7505865e-18 -0.14020979)
(203.33625 -4.5125729e-18 -0.077980079)
(202.93365 0 -0.018813121)
(202.52061 -3.3747922e-17 0.035661757)
(202.08816 6.2466431e-17 0.086034986)
(201.70418 -3.1743898e-17 0.15905829)
(201.09325 0 0.081819824)
(200.96111 0 0.48172318)
(217.0732 0 -11.217504)
(254.36908 -3.7233978e-18 3.3435338)
(239.74086 -1.1967762e-16 -10.511656)
(247.95422 1.10332e-16 1.7061613)
(242.90306 0 -8.8302927)
(245.34479 1.0151259e-16 -0.40196507)
(243.34316 -1.8745655e-16 -7.0826829)
(243.93862 -1.0239451e-19 -2.3105183)
(243.00615 8.4478978e-17 -5.7579169)
(242.88522 0 -3.6699089)
(242.33014 -1.52599e-16 -5.0474965)
(241.95348 1.4926979e-16 -4.4330859)
(241.47751 1.4197057e-16 -4.8587011)
(241.01408 -2.6134789e-16 -4.7961436)
(240.52246 1.2014304e-16 -4.9370276)
(240.01512 1.1045287e-17 -5.0013457)
(239.48817 1.1550031e-16 -5.0889584)
(238.94222 -1.0286612e-16 -5.1676661)
(238.37687 0 -5.2458024)
(237.79201 0 -5.3206747)
(237.18756 5.6762444e-18 -5.3921673)
(236.56355 -1.7807171e-16 -5.4595755)
(235.92008 3.3765817e-16 -5.52227)
(235.25739 -3.1551796e-16 -5.5795719)
(234.5758 1.4261182e-16 -5.630788)
(233.87578 0 -5.6752106)
(233.15791 1.2438463e-16 -5.7121235)
(232.42292 -1.3337774e-16 -5.7408172)
(231.67168 0 -5.7605959)
(230.90521 3.524699e-18 -5.7707897)
(230.12466 -1.3369612e-17 -5.7707654)
(229.33135 0 -5.7599424)
(228.52671 0 -5.7378002)
(227.71233 -1.7060501e-16 -5.7038987)
(226.88992 3.387647e-16 -5.6578862)
(226.0613 -1.6267272e-16 -5.5995127)
(225.22839 -1.5907863e-16 -5.5286435)
(224.39318 1.4559867e-16 -5.4452646)
(223.55772 -1.1214464e-16 -5.3494934)
(222.72409 -2.8602986e-19 -5.2415822)
(221.89439 -2.6755524e-19 -5.1219204)
(221.07067 2.3277377e-16 -4.9910333)
(220.25497 -1.0982625e-16 -4.8495772)
(219.44925 0 -4.6983312)
(218.65536 2.0236491e-16 -4.5381866)
(217.87504 1.1936597e-17 -4.3701329)
(217.10992 -5.1174894e-18 -4.1952399)
(216.36144 -1.6453129e-16 -4.0146402)
(215.6309 0 -3.829509)
(214.9194 -1.465517e-16 -3.6410434)
(214.2279 -8.8588255e-18 -3.4504425)
(213.55712 2.6010735e-16 -3.258886)
(212.90764 -1.3008605e-16 -3.0675161)
(212.27983 0 -2.8774195)
(211.67389 -2.0382446e-17 -2.6896122)
(211.08985 -2.1120506e-16 -2.505028)
(210.52757 3.6126795e-16 -2.3245071)
(209.98677 -2.1527039e-16 -2.1487875)
(209.46702 0 -1.9784974)
(208.9677 -1.7079271e-16 -1.8141631)
(208.48805 1.7947655e-16 -1.6561837)
(208.02717 2.6684748e-17 -1.5048706)
(207.58407 0 -1.3604305)
(207.15749 -1.4188005e-16 -1.222946)
(206.74584 7.3208988e-18 -1.0924092)
(206.34715 1.1169857e-16 -0.96872111)
(205.95903 -1.9734651e-17 -0.85170929)
(205.57884 9.2989707e-17 -0.74113876)
(205.20395 -1.0511073e-16 -0.63672263)
(204.83198 5.50786e-18 -0.53814677)
(204.46063 -5.1970036e-18 -0.44509355)
(204.08715 0 -0.35726478)
(203.70795 -4.6370723e-18 -0.27448631)
(203.31917 4.3860253e-18 -0.19670639)
(202.91837 8.3069952e-18 -0.12384049)
(202.50535 9.8433213e-19 -0.056580077)
(202.08425 0 0.0094016509)
(201.65667 3.0223687e-17 0.069874595)
(201.14432 -5.7571286e-17 0.054074839)
(200.86876 2.585701e-17 0.38457159)
(218.256 0 -14.115359)
(255.85851 -1.2246766e-16 1.0972918)
(240.72294 2.4976033e-16 -13.527043)
(249.21705 -2.2304499e-16 -0.55037401)
(243.90439 1.101593e-16 -11.772819)
(246.48307 -3.2619084e-18 -2.7538765)
(244.35373 9.9282601e-17 -9.880386)
(244.97518 -9.4028553e-17 -4.7913401)
(243.98588 -5.5817692e-18 -8.4166764)
(243.84168 -5.2998686e-18 -6.2373033)
(243.25131 -1.006786e-17 -7.6256266)
(242.83868 1.3890479e-16 -7.0168045)
(242.32726 -1.4079958e-16 -7.4109584)
(241.82534 1.3818694e-16 -7.3553267)
(241.29462 -1.1871018e-16 -7.4747207)
(240.74652 -1.5558706e-17 -7.5308804)
(240.17754 0 -7.6027769)
(239.58828 -1.2454414e-20 -7.6665265)
(238.97843 -2.2629855e-16 -7.7274767)
(238.34797 -3.6740649e-19 -7.7836033)
(237.69695 1.7345254e-16 -7.8344745)
(237.02552 1.7037877e-17 -7.8792997)
(236.33395 -2.1550764e-17 -7.9173275)
(235.62261 0 -7.9477733)
(234.89204 7.4130278e-21 -7.9698464)
(234.14288 -1.6543683e-16 -7.9827526)
(233.37595 1.4779967e-16 -7.9857064)
(232.59222 8.2491721e-18 -7.9779381)
(231.7928 0 -7.9587135)
(230.97897 -7.4006702e-18 -7.9273401)
(230.15219 -1.134804e-21 -7.8831873)
(229.31403 -1.9921526e-16 -7.8256987)
(228.46624 2.006349e-16 -7.7544074)
(227.61069 1.1888697e-17 -7.6689546)
(226.74937 -1.7998229e-16 -7.5690984)
(225.88437 1.4854023e-16 -7.4547309)
(225.01786 -1.8099682e-16 -7.3258873)
(224.15204 1.5170794e-16 -7.1827544)
(223.28917 -1.43645e-16 -7.0256741)
(222.43147 1.3537865e-16 -6.855148)
(221.58114 1.6007133e-17 -6.6718339)
(220.74031 0 -6.4765385)
(219.91102 1.9967852e-16 -6.2702097)
(219.0952 -2.416902e-16 -6.0539215)
(218.29462 0 -5.8288582)
(217.5109 1.7938208e-16 -5.5962954)
(216.74549 -1.5741235e-16 -5.3575764)
(215.99962 1.6984074e-16 -5.1140912)
(215.27435 -1.7964536e-16 -4.8672517)
(214.57053 0 -4.6184688)
(213.88883 1.7714455e-16 -4.3691301)
(213.22968 -1.3313039e-16 -4.1205772)
(212.59336 0 -3.8740871)
(211.97995 0 -3.6308559)
(211.38936 1.247384e-16 -3.3919829)
(210.82135 -2.0831956e-16 -3.1584621)
(210.27552 1.2228748e-16 -2.9311719)
(209.75135 1.8403771e-16 -2.71087)
(209.2482 1.9862864e-19 -2.4981868)
(208.76527 1.7666692e-19 -2.2936345)
(208.30164 -3.2392993e-16 -2.0975899)
(207.85627 8.9396886e-17 -1.9103182)
(207.42806 0 -1.7319858)
(207.01566 1.4208074e-16 -1.5626212)
(206.61748 -1.6297864e-16 -1.4021555)
(206.23152 1.1139451e-16 -1.2504272)
(205.85539 1.3147536e-17 -1.1071985)
(205.48642 -8.595408e-17 -0.97217004)
(205.12194 1.1542548e-17 -0.844994)
(204.75951 2.1706669e-17 -0.72529869)
(204.39686 -1.0207805e-16 -0.61269517)
(204.03138 9.6004069e-17 -0.50680037)
(203.65955 -7.2334539e-17 -0.4074268)
(203.27726 1.3625604e-16 -0.31461884)
(202.88189 -5.6187743e-17 -0.22815914)
(202.4745 -6.0623545e-17 -0.1476135)
(202.05805 5.008961e-17 -0.071342139)
(201.61893 0 -0.011069177)
(201.15386 3.2055702e-18 0.020114414)
(200.80962 -1.2156983e-17 0.28226047)
(219.27904 0 -17.082699)
(257.19666 0 -1.2856382)
(241.47893 0 -16.67625)
(250.30246 1.0658776e-16 -2.9113341)
(244.72179 -1.2376564e-16 -14.842485)
(247.45592 -2.204264e-16 -5.222897)
(245.18433 2.0964552e-16 -12.794653)
(245.83425 -1.2416867e-17 -7.3988669)
(244.78067 5.9127725e-18 -11.185109)
(244.60901 -1.7387222e-16 -8.9358503)
(243.97868 1.7021917e-16 -10.314767)
(243.52449 1.0116292e-17 -9.7257496)
(242.97269 -1.5361544e-16 -10.080474)
(242.4269 1.3645983e-16 -10.033408)
(241.85194 -1.3904067e-20 -10.130067)
(241.25789 -8.1836947e-18 -10.176121)
(240.64186 0 -10.230706)
(240.00437 -7.3879757e-18 -10.277054)
(239.34527 -2.1030175e-16 -10.318171)
(238.66466 2.123472e-16 -10.352482)
(237.96272 1.2604869e-17 -10.379327)
(237.23974 -1.1950563e-17 -10.397826)
(236.49617 2.1534968e-16 -10.40713)
(235.7326 -1.7153724e-16 -10.406359)
(234.94975 1.0172797e-17 -10.394634)
(234.14854 1.9289193e-16 -10.371088)
(233.33003 -1.2759836e-16 -10.334869)
(232.49549 0 -10.28517)
(231.64634 1.4744075e-16 -10.221229)
(230.78419 -1.2375891e-16 -10.142361)
(229.91081 2.4942344e-16 -10.047966)
(229.02814 -1.332183e-17 -9.9375518)
(228.13824 -2.095117e-16 -9.8107518)
(227.24332 1.7377432e-16 -9.6673396)
(226.34567 -1.8719918e-16 -9.5072429)
(225.44767 -2.9631581e-20 -9.3305582)
(224.55173 2.0927558e-16 -9.1375571)
(223.66027 -3.1583196e-16 -8.9286915)
(222.7757 9.2955062e-17 -8.7045953)
(221.90036 3.519321e-17 -8.4660797)
(221.0365 -4.9764796e-17 -8.2141273)
(220.18625 0 -7.9498765)
(219.35158 -8.855099e-17 -7.6746078)
(218.53431 1.3868758e-16 -7.3897207)
(217.73605 -2.0940726e-16 -7.0967129)
(216.95818 1.9675805e-16 -6.7971555)
(216.20189 -2.0869368e-16 -6.4926639)
(215.46815 3.9241298e-16 -6.1848728)
(214.75767 -3.0752424e-16 -5.8754098)
(214.07099 3.0837797e-16 -5.5658693)
(213.40839 -1.4474213e-16 -5.2577898)
(212.76998 1.3624839e-16 -4.9526327)
(212.15567 -9.5779526e-17 -4.651763)
(211.56523 3.0033645e-17 -4.3564373)
(210.99824 0 -4.0677885)
(210.45416 0 -3.7868211)
(209.93233 0 -3.5144041)
(209.43197 2.324824e-17 -3.2512688)
(208.95222 0 -2.9980062)
(208.49212 -1.6362488e-16 -2.7550758)
(208.05057 1.9154668e-16 -2.522799)
(207.62642 -1.0781295e-16 -2.301368)
(207.21844 -1.1700954e-19 -2.0908792)
(206.82526 2.522324e-16 -1.8912899)
(206.44523 2.9624285e-17 -1.7024539)
(206.07639 -1.383404e-16 -1.5241347)
(205.71636 5.1878855e-17 -1.3560205)
(205.36247 -1.4574394e-16 -1.1977409)
(205.01199 -4.5540094e-17 -1.0488863)
(204.66245 -6.4016091e-17 -0.90902763)
(204.31162 -6.0030943e-17 -0.77769952)
(203.95705 5.6256758e-17 -0.65444586)
(203.59529 0 -0.53911785)
(203.22205 0 -0.43178932)
(202.83484 -1.5506915e-17 -0.33175948)
(202.43529 0 -0.23845838)
(202.02297 6.850378e-18 -0.15397117)
(201.58616 5.1585794e-17 -0.085284915)
(201.14888 -7.2873318e-17 -0.024388429)
(200.75327 -1.2502264e-20 0.17820471)
(220.12487 0 -20.248671)
(258.36303 -8.8108542e-18 -3.7452099)
(242.10769 2.6651784e-16 -19.962101)
(251.16579 -2.4892871e-16 -5.3993156)
(245.30385 2.5402053e-16 -18.028237)
(248.22603 -2.3240006e-16 -7.8457406)
(245.81485 -2.2154148e-16 -15.815526)
(246.48196 2.0971518e-16 -10.165238)
(245.3667 0 -14.057238)
(245.15692 0 -11.784975)
(244.48437 1.7973201e-16 -13.118697)
(243.98182 -1.7027019e-16 -12.567949)
(243.38487 -1.0115434e-17 -12.87345)
(242.79001 2.8771195e-17 -12.834167)
(242.16583 -9.1051286e-18 -12.906019)
(241.52099 3.4533243e-17 -12.938205)
(240.85313 0 -12.972527)
(240.16275 0 -12.997714)
(239.44981 -2.3584276e-16 -13.015167)
(238.71453 2.0915906e-16 -13.023534)
(237.95725 0 -13.021968)
(237.17846 0 -13.009487)
(236.37883 -1.903128e-16 -12.985107)
(235.55918 3.6016265e-16 -12.947845)
(234.72056 -1.7034529e-16 -12.89672)
(233.86418 -2.018121e-17 -12.830782)
(232.99147 -3.8223028e-17 -12.749125)
(232.10404 -1.4483395e-16 -12.650909)
(231.20373 1.1958225e-16 -12.535383)
(230.29254 0 -12.4019)
(229.37264 -3.0627711e-17 -12.249943)
(228.44636 0 -12.079147)
(227.51616 0 -11.889312)
(226.5846 2.0676543e-16 -11.680422)
(225.65429 -2.1915496e-16 -11.452656)
(224.7279 2.2989825e-17 -11.206399)
(223.80806 -2.1692373e-17 -10.942245)
(222.89737 -4.1010279e-17 -10.660995)
(221.99834 -8.5062587e-20 -10.363652)
(221.11335 8.0812571e-20 -10.051409)
(220.24463 -7.6274193e-20 -9.7256339)
(219.3942 0 -9.3878459)
(218.56387 -1.2174513e-16 -9.0396953)
(217.75524 1.14324e-16 -8.6829309)
(216.96963 0 -8.3193722)
(216.20812 -5.0671923e-17 -7.9508823)
(215.47152 1.9045241e-16 -7.5793306)
(214.76041 -2.2326407e-16 -7.2065686)
(214.07511 -2.1005051e-16 -6.8343999)
(213.41573 1.5748291e-16 -6.4645553)
(212.78215 1.1107101e-16 -6.0986707)
(212.17407 -1.3864236e-16 -5.738269)
(211.59102 -3.2504996e-17 -5.3847433)
(211.03239 -2.1353869e-16 -5.039349)
(210.49744 1.142081e-16 -4.7031922)
(209.98531 -1.071164e-16 -4.3772297)
(209.49506 1.0019058e-16 -4.0622663)
(209.02569 2.3475032e-16 -3.7589556)
(208.57611 -1.7557238e-16 -3.4678026)
(208.1452 0 -3.1891743)
(207.73171 -3.8421301e-17 -2.9232977)
(207.33438 -7.1919442e-17 -2.6702663)
(206.9519 1.3438373e-16 -2.4300777)
(206.58284 1.2572944e-16 -2.2025981)
(206.22556 -2.3495713e-16 -1.9875881)
(205.87812 8.2288681e-17 -1.7847232)
(205.53819 5.1296283e-17 -1.5936066)
(205.20313 9.5899347e-17 -1.4137922)
(204.87018 1.3444396e-16 -1.2448087)
(204.53686 2.4274134e-20 -1.0861689)
(204.20097 0 -0.93732831)
(203.86025 0 -0.79778409)
(203.51134 -3.4216426e-17 -0.66745239)
(203.14994 9.6003155e-17 -0.54628331)
(202.77385 -8.9792056e-17 -0.43304548)
(202.38422 -8.4056208e-17 -0.32807284)
(201.97808 5.2454206e-17 -0.23578795)
(201.55075 0 -0.15350404)
(201.13192 4.6079156e-17 -0.06873938)
(200.70344 2.1886841e-20 0.07563543)
(220.77169 0 -23.58729)
(259.33049 1.9162577e-20 -6.2808341)
(242.54201 9.0691137e-18 -23.343504)
(251.86164 2.8830792e-16 -8.0263813)
(245.72756 3.3412867e-19 -21.318039)
(248.76419 -5.0569948e-16 -10.619812)
(246.19995 -3.2430451e-19 -18.931813)
(246.88861 4.5610734e-16 -13.09452)
(245.71268 -2.0985439e-16 -17.030424)
(245.45793 -1.2447923e-17 -14.78376)
(244.74168 1.182287e-17 -16.036035)
(244.18569 -1.7952359e-16 -15.536343)
(243.53986 1.9126013e-16 -15.784671)
(242.89168 -1.8173097e-16 -15.749128)
(242.21392 3.0612985e-16 -15.793894)
(241.51371 -3.084381e-16 -15.807723)
(240.78925 1.3746778e-16 -15.818359)
(240.04102 0 -15.818363)
(239.26918 0 -15.808002)
(238.47415 1.4643629e-17 -15.785934)
(237.65652 -2.7765935e-17 -15.751096)
(236.81705 0 -15.702343)
(235.95675 1.9939082e-16 -15.63854)
(235.07681 4.7330581e-19 -15.558576)
(234.17867 -3.5684942e-16 -15.461372)
(233.26397 1.6861357e-16 -15.345913)
(232.3346 1.9950613e-17 -15.211272)
(231.39265 0 -15.056625)
(230.44042 -1.7872321e-16 -14.881287)
(229.4804 1.34768e-16 -14.684727)
(228.51523 -2.2348663e-16 -14.466596)
(227.54769 2.1035575e-16 -14.226746)
(226.58065 -2.2766626e-16 -13.965244)
(225.61702 2.1429729e-16 -13.682393)
(224.65974 7.5968207e-17 -13.378729)
(223.71171 0 -13.055029)
(222.77574 0 -12.712311)
(221.85452 4.2341565e-17 -12.351818)
(220.95056 3.988053e-17 -11.975004)
(220.06617 -3.7546991e-17 -11.58351)
(219.20342 3.5335146e-17 -11.179143)
(218.36411 6.6665649e-17 -10.763839)
(217.54976 -6.2615778e-17 -10.339636)
(216.76159 3.5303417e-16 -9.9086337)
(216.00053 -2.7615547e-16 -9.4729593)
(215.2672 5.1832518e-17 -9.0347363)
(214.56195 -4.8771661e-17 -8.5960466)
(213.88488 0 -8.1589041)
(213.23581 2.1436601e-16 -7.7252258)
(212.61438 -1.6056306e-16 -7.2968109)
(212.02 0 -6.87532)
(211.45194 0 -6.4622644)
(210.90933 1.3211903e-16 -6.0589922)
(210.39117 -6.1751672e-17 -5.6666867)
(209.89638 0 -5.2863613)
(209.42383 -1.6225299e-16 -4.9188623)
(208.97229 1.0099856e-16 -4.5648738)
(208.54056 1.4176596e-16 -4.2249211)
(208.12735 -1.7634393e-16 -3.8993785)
(207.7314 1.6483081e-16 -3.5884827)
(207.35136 -1.5375128e-16 -3.2923325)
(206.98587 6.6050584e-20 -3.0108973)
(206.63357 0 -2.7440538)
(206.293 6.2495369e-17 -2.4915601)
(205.96255 -2.9137733e-16 -2.2530714)
(205.64031 1.6295959e-16 -2.0281656)
(205.32405 0 -1.8163557)
(205.01116 -1.4168798e-16 -1.6171176)
(204.69893 8.8014537e-17 -1.4299194)
(204.38482 1.2313006e-16 -1.2542116)
(204.06674 3.4019476e-20 -1.0893748)
(203.74254 -7.1265843e-17 -0.93489709)
(203.40901 9.9669147e-17 -0.79074434)
(203.06206 -1.5483424e-16 -0.65657684)
(202.69972 8.6602553e-17 -0.53081931)
(202.32191 2.6904527e-17 -0.41541358)
(201.9245 5.0219465e-17 -0.31528705)
(201.51084 0 -0.21725912)
(201.10773 -4.374792e-17 -0.11685361)
(200.65476 2.0374857e-17 -0.024149439)
(221.2033 0 -27.094541)
(260.09104 9.8039366e-18 -8.923075)
(242.77544 -3.0574553e-16 -26.85012)
(252.37207 2.4963445e-16 -10.795204)
(245.95514 2.5642769e-16 -24.70703)
(249.05965 -5.0012641e-16 -13.549005)
(246.38222 2.3004745e-16 -22.130782)
(247.03757 2.3290695e-16 -16.186454)
(245.8182 -2.2072826e-16 -20.08953)
(245.50094 3.9289541e-17 -17.919271)
(244.74017 0 -19.054908)
(244.12527 0 -18.615439)
(243.4256 -2.2346203e-17 -18.802963)
(242.71828 -1.696561e-16 -18.766917)
(241.9806 1.4040301e-16 -18.783895)
(241.21836 1.9046394e-17 -18.775841)
(240.4304 -3.610457e-17 -18.75981)
(239.61735 3.0804544e-16 -18.73074)
(238.77969 -2.2637032e-16 -18.688099)
(237.91815 2.4570575e-16 -18.630431)
(237.03369 -2.0304232e-16 -18.556464)
(236.12753 2.7529435e-17 -18.464897)
(235.20109 1.5640532e-16 -18.35446)
(234.25607 -1.9671755e-16 -18.223954)
(233.29444 0 -18.072248)
(232.31838 0 -17.898325)
(231.33036 0 -17.701308)
(230.33302 -1.9703343e-16 -17.480482)
(229.32923 1.8560658e-16 -17.235329)
(228.32203 -3.5169741e-17 -16.965543)
(227.31457 0 -16.671066)
(226.31009 -2.8193977e-16 -16.352097)
(225.31187 2.3564176e-16 -16.009105)
(224.32316 -5.5736186e-17 -15.642834)
(223.34714 1.5762483e-16 -15.254315)
(222.38685 -4.8979528e-17 -14.844835)
(221.44518 -1.8579448e-16 -14.415943)
(220.52476 2.1918321e-16 -13.969415)
(219.62798 -1.6454921e-16 -13.507226)
(218.75689 7.7618819e-17 -13.031524)
(217.91325 -7.2834017e-17 -12.544584)
(217.09847 1.3691236e-16 -12.048768)
(216.31359 -6.4154769e-17 -11.546492)
(215.55932 -2.4146153e-16 -11.040175)
(214.83606 5.0915485e-16 -10.532206)
(214.14384 -2.1205699e-16 -10.024905)
(213.48246 -1.4943757e-16 -9.5204936)
(212.85142 9.2909307e-17 -9.021065)
(212.25002 8.7398531e-17 -8.528563)
(211.67734 -1.6350064e-16 -8.0447642)
(211.13234 1.5276189e-16 -7.571266)
(210.61381 0 -7.1094803)
(210.12049 1.3371166e-16 -6.660629)
(209.65103 -1.8728648e-16 -6.2257471)
(209.20402 5.8364758e-17 -5.8056855)
(208.77807 5.4393794e-17 -5.4011191)
(208.37175 0 -5.0125563)
(207.98364 0 -4.6403478)
(207.61235 0 -4.2846973)
(207.25648 0 -3.9456782)
(206.91462 0 -3.6232342)
(206.58536 -7.1465183e-17 -3.3171901)
(206.26731 0 -3.027286)
(205.95902 -5.4001427e-20 -2.7531591)
(205.65892 2.3076656e-16 -2.4943523)
(205.3652 -2.1467303e-16 -2.2503401)
(205.0757 -9.9931844e-17 -2.0205432)
(204.78795 -1.858081e-16 -1.8043617)
(204.49923 2.5900249e-16 -1.6012029)
(204.20703 4.422381e-20 -1.4104518)
(203.90931 7.4598722e-17 -1.2314303)
(203.60406 0 -1.0636543)
(203.28826 0 -0.90707843)
(202.95825 0 -0.76093881)
(202.61208 -1.1135146e-16 -0.62365887)
(202.24796 0 -0.49913383)
(201.86196 -9.6209659e-17 -0.39085178)
(201.46544 1.3413781e-16 -0.2757029)
(201.07716 8.3161047e-17 -0.16567041)
(200.60578 -1.9271106e-17 -0.12024667)
(221.42354 0 -30.779232)
(260.65104 0 -11.673892)
(242.81464 3.2166916e-16 -30.488581)
(252.70074 1.930025e-17 -13.72261)
(245.99709 -2.6917143e-16 -28.20571)
(249.17271 0 -16.65595)
(246.36488 1.6127896e-17 -25.408332)
(247.05977 -3.0571268e-17 -19.432674)
(245.67644 0 -23.213944)
(245.28842 1.927116e-16 -21.174536)
(244.47614 -4.172186e-16 -22.171198)
(243.79185 1.9755996e-16 -21.799654)
(243.02857 2.3449035e-17 -21.928445)
(242.25221 0 -21.887362)
(241.4447 2.1041316e-17 -21.875712)
(240.61071 -3.3941497e-16 -21.841427)
(239.74976 7.4823451e-17 -21.794202)
(238.86274 2.501361e-16 -21.730376)
(237.95054 2.3755598e-16 -21.648921)
(237.01434 -2.5623534e-16 -21.548261)
(236.05562 0 -21.426959)
(235.0761 -2.8751726e-16 -21.283601)
(234.07783 2.4412024e-16 -21.116839)
(233.06312 -2.0576786e-16 -20.925446)
(232.03458 1.9393971e-16 -20.708326)
(230.99508 -1.8380013e-16 -20.464553)
(229.94774 3.4673264e-16 -20.193416)
(228.89587 -1.6362415e-16 -19.894433)
(227.84298 1.5475192e-16 -19.567395)
(226.79267 -2.9175671e-16 -19.212379)
(225.74863 1.37319e-16 -18.829774)
(224.71452 1.2968995e-16 -18.42029)
(223.69396 -2.4469579e-16 -17.984957)
(222.69044 5.6806655e-17 -17.52512)
(221.70725 -5.7611051e-19 -17.042436)
(220.74745 2.5458138e-16 -16.538825)
(219.81378 0 -16.016465)
(218.90865 1.9374236e-19 -15.477742)
(218.03408 0 -14.925202)
(217.1917 -7.9468559e-17 -14.361514)
(216.38273 -1.4934917e-16 -13.789419)
(215.60797 7.0121188e-17 -13.211676)
(214.86783 0 -12.63102)
(214.16236 -6.1792922e-17 -12.05012)
(213.49123 2.8922556e-16 -11.471533)
(212.85384 -3.2470897e-16 -10.897679)
(212.24929 -3.0425133e-16 -10.330808)
(211.67647 2.8407505e-16 -9.7729816)
(211.13409 -1.7728275e-16 -9.2260588)
(210.62071 0 -8.6916865)
(210.13478 0 -8.1712967)
(209.6747 7.2355935e-17 -7.666108)
(209.23881 6.752545e-17 -7.1771318)
(208.82546 1.2584457e-16 -6.7051794)
(208.43299 -5.8682589e-17 -6.2508742)
(208.05978 -1.0931276e-16 -5.8146638)
(207.70424 -2.0384914e-16 -5.3968345)
(207.36485 -9.510137e-17 -4.9975241)
(207.0401 1.7656105e-16 -4.616735)
(206.72854 0 -4.2543537)
(206.42875 -7.6475913e-17 -3.9101499)
(206.13929 -1.4215396e-16 -3.5837912)
(205.85881 1.3207456e-16 -3.2748734)
(205.58589 6.1260055e-17 -2.9829069)
(205.31901 5.6976722e-17 -2.7073202)
(205.05649 0 -2.4474847)
(204.79631 1.9642983e-16 -2.2027316)
(204.53609 1.8227125e-16 -1.9723896)
(204.27323 -2.5363783e-16 -1.7558048)
(204.00524 7.8443598e-17 -1.5522963)
(203.7301 -7.2712921e-17 -1.3611555)
(203.44588 -4.4638933e-20 -1.1819528)
(203.14988 2.4992403e-16 -1.0145322)
(202.83906 -2.3163264e-16 -0.85763909)
(202.51119 5.3627974e-17 -0.71012616)
(202.16247 1.4917757e-16 -0.57781654)
(201.79045 -4.6083677e-17 -0.46093204)
(201.41402 -4.2689377e-17 -0.32820891)
(201.04023 0 -0.21359527)
(200.55518 3.6567061e-17 -0.21153317)
(221.44298 3.9123949e-16 -34.65114)
(261.01574 5.4364781e-19 -14.540701)
(242.63788 -3.5852659e-16 -34.275172)
(252.84147 0 -16.814396)
(245.77671 0 -31.780452)
(248.94664 -2.6748619e-16 -19.936568)
(246.04116 2.7059828e-16 -28.74089)
(246.56669 6.4179553e-17 -22.83989)
(245.26296 -2.4360007e-16 -26.438562)
(244.79598 2.3041198e-16 -24.575498)
(243.92164 -2.4626273e-16 -25.412007)
(243.15508 2.069848e-16 -25.104021)
(242.31606 -4.9104873e-17 -25.17367)
(241.45895 -4.6565751e-17 -25.117983)
(240.57006 -1.7645748e-16 -25.072703)
(239.65322 1.6666753e-16 -25.004455)
(238.70863 -3.5593368e-16 -24.918084)
(237.73757 5.9830621e-16 -24.81063)
(236.74149 -2.8269335e-16 -24.68067)
(235.72217 -2.6823656e-16 -24.52649)
(234.68171 2.5294985e-16 -24.346515)
(233.62258 -3.0124132e-17 -24.139264)
(232.54755 -2.2676107e-16 -23.903383)
(231.45973 2.1361052e-16 -23.637714)
(230.3625 2.5305265e-16 -23.34131)
(229.25955 -1.4268762e-16 -23.013484)
(228.15475 0 -22.653848)
(227.05215 2.5519135e-16 -22.262337)
(225.9559 -3.2053068e-16 -21.839242)
(224.87018 1.1278105e-16 -21.385224)
(223.79912 -2.8515291e-16 -20.901318)
(222.74674 2.0090255e-16 -20.388938)
(221.71684 -6.3305551e-17 -19.849855)
(220.71296 2.3790156e-16 -19.286173)
(219.7383 -2.2315567e-16 -18.700304)
(218.79567 -2.103256e-16 -18.09491)
(217.88745 1.9713232e-16 -17.472865)
(217.01551 -4.6236279e-17 -16.837199)
(216.18129 0 -16.191031)
(215.3857 8.1822327e-17 -15.537523)
(214.6292 -7.6368521e-17 -14.879814)
(213.91178 0 -14.220971)
(213.23302 1.3447735e-16 -13.563944)
(212.59216 -6.2906345e-17 -12.911518)
(211.98806 -1.7638738e-16 -12.266288)
(211.41937 5.5019848e-16 -11.630627)
(210.88449 -2.0600261e-16 -11.006676)
(210.38167 9.6082228e-17 -10.396329)
(209.90904 -2.6941436e-16 -9.8012321)
(209.46467 -1.8479902e-19 -9.2227841)
(209.04657 1.562104e-16 -8.6621476)
(208.65277 -1.4572769e-16 -8.1202566)
(208.28133 -6.781874e-17 -7.5978321)
(207.93035 -6.3172699e-17 -7.0953968)
(207.59799 -1.179583e-16 -6.6132919)
(207.2825 2.1905725e-16 -6.1516946)
(206.98219 0 -5.7106354)
(206.69546 9.4665583e-17 -5.2900134)
(206.42081 -3.5225671e-16 -4.8896119)
(206.15678 2.451602e-16 -4.5091176)
(205.90197 7.5872028e-17 -4.1481185)
(205.65499 1.4095069e-16 -3.8061215)
(205.41453 1.3096386e-16 -3.4825794)
(205.17924 -1.2117508e-16 -3.1768763)
(204.94773 -1.1229219e-16 -2.8883308)
(204.71842 -3.1237601e-16 -2.616217)
(204.48946 -4.1226671e-20 -2.3597845)
(204.25864 -8.9273276e-17 -2.1182964)
(204.02346 0 -1.8910365)
(203.7815 -2.2950269e-16 -1.6772645)
(203.53073 7.0769883e-17 -1.4762788)
(203.26928 0 -1.2877078)
(202.99487 1.2108293e-16 -1.111164)
(202.70518 0 -0.94493656)
(202.39741 1.0344737e-16 -0.78876005)
(202.06566 -1.4336104e-16 -0.64997388)
(201.71014 1.3248541e-16 -0.52397506)
(201.35605 -8.1594138e-17 -0.37402788)
(200.9962 7.5363613e-17 -0.25862432)
(200.50239 0 -0.29450784)
(221.2494 -4.1100309e-16 -38.716663)
(261.17241 3.6300936e-16 -17.54126)
(242.20913 -3.3261136e-16 -38.239991)
(252.7274 3.3072773e-16 -20.083407)
(245.27081 3.1672339e-16 -35.413681)
(248.49092 -1.8000725e-17 -23.40274)
(245.4736 -2.8358962e-16 -32.156082)
(245.94361 -2.6921168e-16 -26.439402)
(244.55369 2.8654076e-16 -29.78304)
(243.97879 0 -28.123756)
(243.03189 2.8591864e-17 -28.784709)
(242.17047 0 -28.528064)
(241.24299 -1.2860243e-16 -28.538098)
(240.29281 2.4281812e-16 -28.456161)
(239.31033 0 -28.369446)
(238.29891 0 -28.256949)
(237.25957 0 -28.120476)
(236.1942 3.9108691e-17 -27.957342)
(235.105 0 -27.765829)
(233.99453 -2.4460582e-16 -27.544127)
(232.8658 3.2956799e-16 -27.290594)
(231.72215 1.247061e-16 -27.003789)
(230.56732 1.7683134e-16 -26.682479)
(229.40538 -2.7775505e-16 -26.325735)
(228.24065 -5.2342119e-17 -25.93295)
(227.07771 -2.4771523e-16 -25.503887)
(225.92128 1.8643798e-16 -25.038716)
(224.77612 -2.2020995e-16 -24.538039)
(223.64701 8.2388703e-17 -24.002898)
(222.53858 7.7897e-17 -23.43478)
(221.45526 0 -22.835604)
(220.40119 2.7713593e-16 -22.20769)
(219.38013 -2.6028952e-16 -21.553728)
(218.39536 0 -20.876723)
(217.44968 -2.3011806e-16 -20.179942)
(216.5453 2.1553955e-16 -19.466845)
(215.68389 -1.0157855e-16 -18.741015)
(214.86649 1.9017848e-16 -18.006091)
(214.0936 -2.6721881e-16 -17.265694)
(213.36517 1.2831794e-19 -16.523366)
(212.68064 -1.5613212e-16 -15.782511)
(212.03901 -7.3070776e-17 -15.04634)
(211.4389 -1.371472e-16 -14.31784)
(210.8786 2.5566558e-16 -13.599736)
(210.35617 -1.1930817e-16 -12.894477)
(209.86945 0 -12.204218)
(209.41617 -3.8200913e-19 -11.530827)
(208.994 9.7061371e-17 -10.875882)
(208.60056 0 -10.240686)
(208.23349 8.4425661e-17 -9.6262782)
(207.89048 7.8942034e-17 -9.0334551)
(207.56931 -7.3295634e-17 -8.4627885)
(207.26781 2.7289063e-16 -7.9146463)
(206.98396 -2.5368929e-16 -7.3892142)
(206.71582 -1.1798798e-16 -6.8865151)
(206.46159 -1.0961055e-16 -6.4064304)
(206.21957 1.0177818e-16 -5.9487177)
(205.9882 1.887988e-16 -5.5130281)
(205.76599 -3.5021387e-16 -5.0989217)
(205.55156 4.0587579e-16 -4.7058862)
(205.34356 -1.503905e-16 -4.3333307)
(205.14072 1.3940052e-16 -3.9806089)
(204.94181 -1.2904321e-16 -3.6470394)
(204.74559 2.3899165e-16 -3.3318883)
(204.55078 -3.3176884e-16 -3.0343749)
(204.35595 2.0451875e-16 -2.7536869)
(204.15945 -8.0072268e-20 -2.4890048)
(203.95926 8.7420414e-17 -2.2395322)
(203.75303 0 -2.00449)
(203.53843 0 -1.7830937)
(203.31339 0 -1.5746885)
(203.07604 -1.2705198e-16 -1.3789324)
(202.82466 1.4628383e-20 -1.1950889)
(202.55768 0 -1.0211532)
(202.27139 0 -0.85812945)
(201.95805 9.1896279e-17 -0.71408461)
(201.62155 -1.6934971e-16 -0.57852681)
(201.29138 0 -0.4126938)
(200.94421 0 -0.30023677)
(200.44697 -1.3192621e-16 -0.36923714)
(220.8092 2.7744566e-17 -42.985383)
(261.08407 -7.8594452e-16 -20.698247)
(241.50084 3.4796957e-16 -42.345154)
(252.08688 -2.1739221e-17 -23.533761)
(244.44919 3.7330765e-16 -39.168362)
(247.70003 -3.5203597e-16 -27.092914)
(244.5956 0 -35.688048)
(244.93338 -3.1711553e-16 -30.23146)
(243.49183 2.3312394e-16 -33.242769)
(242.79255 2.214259e-16 -31.811509)
(241.75954 -2.390112e-16 -32.291732)
(240.7891 0 -32.06748)
(239.75869 1.9094376e-19 -32.015759)
(238.70179 0 -31.893701)
(237.61245 3.8501676e-16 -31.754127)
(236.49406 -7.2733474e-16 -31.583679)
(235.34857 3.4338066e-16 -31.382339)
(234.17878 -4.0563396e-17 -31.147518)
(232.98789 -3.8545916e-17 -30.877321)
(231.77956 3.6636455e-17 -30.569927)
(230.55791 -6.8412957e-17 -30.223785)
(229.32746 -3.2409717e-16 -29.83765)
(228.09311 3.050324e-16 -29.410648)
(226.86003 5.7503412e-17 -28.942334)
(225.63364 -2.7252314e-16 -28.432721)
(224.41943 -7.0041905e-19 -27.882342)
(223.22292 2.8944994e-16 -27.292245)
(222.04954 -1.8167341e-16 -26.664008)
(220.90446 -6.1496846e-19 -25.999731)
(219.79256 0 -25.301999)
(218.71827 0 -24.57385)
(217.68548 -7.1494112e-17 -23.818706)
(216.69747 1.3384633e-16 -23.040318)
(215.75689 0 -22.242677)
(214.86564 -1.1830612e-16 -21.429932)
(214.02494 2.2136771e-16 -20.606306)
(213.23533 -1.0371001e-16 -19.776003)