/*--------------------------------*- C++ -*----------------------------------*\
  =========                 |
  \\      /  F ield         | OpenFOAM: The Open Source CFD Toolbox
   \\    /   O peration     | Website:  https://openfoam.org
    \\  /    A nd           | Version:  12
     \\/     M anipulation  |
\*---------------------------------------------------------------------------*/
FoamFile
{
    format      ascii;
    class       volScalarField;
    location    "300";
    object      alphat;
}
// * * * * * * * * * * * * * * * * * * * * * * * * * * * * * * * * * * * * * //

dimensions      [1 -1 -1 0 0 0 0];

internalField   nonuniform List<scalar> 
16200
(
0.000492467102
0.001664741881
0.002774081339
0.003649473873
0.003954305286
0.003520346237
0.002614659613
0.001462027591
0.0007345934654
0.0002737980032
8.392623725e-06
2.90650718e-06
2.616774312e-06
2.486927812e-06
1.959978901e-06
1.678247721e-06
1.455661426e-06
1.303863291e-06
1.211455129e-06
1.157122886e-06
1.131398797e-06
1.129907813e-06
1.148479639e-06
1.184825237e-06
1.238768596e-06
1.31236444e-06
1.410199014e-06
1.540221961e-06
1.715312897e-06
1.956340244e-06
2.297923976e-06
2.79992295e-06
3.570667457e-06
4.815676451e-06
6.946229239e-06
1.082532402e-05
1.833009649e-05
3.362128401e-05
6.605386445e-05
0.00013686507
0.0002948669733
0.0006531746288
0.0011661312
0.001166714264
0.001166472987
0.001165424728
0.001164694974
0.001164492196
0.001164490576
0.001164553683
0.001164628751
0.00116469864
0.001164760625
0.001164818282
0.001164876521
0.001164944713
0.001165027994
0.001165152069
0.001165309485
0.001165593857
0.0004818989158
0.00161827768
0.002668502634
0.003447660992
0.003590622705
0.003038225268
0.00214596405
0.001074637541
0.0005899513201
5.735703932e-05
3.052451608e-06
2.428845885e-06
2.1975863e-06
2.157119406e-06
1.736319717e-06
1.483311457e-06
1.283857602e-06
1.148279373e-06
1.068224027e-06
1.022950379e-06
1.003521083e-06
1.005579736e-06
1.025313296e-06
1.060669299e-06
1.111658476e-06
1.180386484e-06
1.271351089e-06
1.392247941e-06
1.555404428e-06
1.780426692e-06
2.099208069e-06
2.566128102e-06
3.279137986e-06
4.424104575e-06
6.372694611e-06
9.904329115e-06
1.671186636e-05
3.054668398e-05
5.983203697e-05
0.0001236760125
0.0002659456888
0.0005882229191
0.00116598334
0.001166609869
0.001166421194
0.001165459049
0.001164712577
0.001164503086
0.001164499641
0.001164563078
0.001164639188
0.001164710108
0.001164772906
0.001164830873
0.001164889319
0.001164956859
0.001165039682
0.001165162253
0.001165319438
0.001165607053
0.0004728679746
0.001575152443
0.002567556188
0.003249516948
0.00323241307
0.002583986378
0.001701996161
0.0007912163778
0.0004148832899
1.635437121e-05
2.290874174e-06
2.032125157e-06
1.84443905e-06
1.805212412e-06
1.526714851e-06
1.301577496e-06
1.12497601e-06
1.005319805e-06
9.369663938e-07
9.00001033e-07
8.860664707e-07
8.908540055e-07
9.108837806e-07
9.44340938e-07
9.914297569e-07
1.054380881e-06
1.137763363e-06
1.249245976e-06
1.400863143e-06
1.611297705e-06
1.910243133e-06
2.347462063e-06
3.011966449e-06
4.072579767e-06
5.866998504e-06
9.102854292e-06
1.531390453e-05
2.789310107e-05
5.443493091e-05
0.0001121233975
0.0002402727184
0.0005297074393
0.001165905808
0.001166548987
0.001166388
0.001165495376
0.001164735934
0.001164519554
0.001164513017
0.001164575421
0.001164651449
0.001164722586
0.001164785675
0.001164843694
0.001164902137
0.001164969036
0.001165051394
0.001165172679
0.001165329698
0.001165620622
0.0004660865774
0.001535601576
0.002468447455
0.00302794094
0.002868569131
0.002164921597
0.001228670704
0.000581753684
0.0002220897887
6.960428212e-06
1.9004301e-06
1.715814273e-06
1.562939517e-06
1.525496873e-06
1.344713606e-06
1.1436078e-06
9.869768012e-07
8.81530289e-07
8.234350957e-07
7.937288878e-07
7.844760002e-07
7.914129066e-07
8.113772348e-07
8.428837346e-07
8.864586622e-07
9.446178569e-07
1.022156953e-06
1.126857333e-06
1.270626472e-06
1.471529835e-06
1.757704676e-06
2.175590558e-06
2.807726543e-06
3.810752826e-06
5.498713003e-06
8.529960927e-06
1.433055121e-05
2.605160936e-05
5.073352147e-05
0.0001042760679
0.0002229719604
0.0004905165248
0.001101550894
0.001166540945
0.001166381899
0.001165533608
0.001164766639
0.00116454352
0.001164532444
0.001164592139
0.001164666631
0.001164736914
0.00116479951
0.001164857106
0.001164915223
0.001164981429
0.001165063215
0.001165183361
0.001165340122
0.001165633945
0.0004600512375
0.001498745231
0.002371290882
0.002794368429
0.002508391661
0.001799391698
0.0008780365385
0.0004521911783
6.350980372e-05
2.367500277e-06
1.599684529e-06
1.452432179e-06
1.328456789e-06
1.294053501e-06
1.181038906e-06
1.002340327e-06
8.643504984e-07
7.722489315e-07
7.234726844e-07
7.000745227e-07
6.945849115e-07
7.029229301e-07
7.223646768e-07
7.518955525e-07
7.924565495e-07
8.468946906e-07
9.202373872e-07
1.020373067e-06
1.159113551e-06
1.354035133e-06
1.632049069e-06
2.036966984e-06
2.646145212e-06
3.606476853e-06
5.213340196e-06
8.086532418e-06
1.356781608e-05
2.461726993e-05
4.783473552e-05
9.808858358e-05
0.0002092316042
0.0004591549664
0.001028611831
0.001166574187
0.001166397029
0.001165573756
0.001164803191
0.001164573344
0.00116455652
0.001164612144
0.001164683956
0.001164752533
0.001164814044
0.001164870865
0.001164928427
0.001164993915
0.001165075116
0.001165194273
0.001165350797
0.001165647353
0.0004542703757
0.001463366824
0.002274119633
0.002558169818
0.002154881147
0.001452605727
0.0006536695707
0.0003256790556
1.9568822e-05
1.673378479e-06
1.355746415e-06
1.235519111e-06
1.134977997e-06
1.103611374e-06
1.035997549e-06
8.771891184e-07
7.557458499e-07
6.755607394e-07
6.348031725e-07
6.166275757e-07
6.141213701e-07
6.235317853e-07
6.426194519e-07
6.708267526e-07
7.094549152e-07
7.616556246e-07
8.327029476e-07
9.306256764e-07
1.067207657e-06
1.259713149e-06
1.534221536e-06
1.932688885e-06
2.528695767e-06
3.462023287e-06
5.014747779e-06
7.779754435e-06
1.304011978e-05
2.362186306e-05
4.581275582e-05
9.374242757e-05
0.0001995006777
0.0004367450328
0.0009760271978
0.001166642673
0.001166431092
0.001165613975
0.00116484424
0.00116460815
0.001164584717
0.001164635138
0.001164703268
0.00116476937
0.001164829253
0.001164884965
0.001164941767
0.001165006503
0.001165087114
0.001165205415
0.001165361716
0.001165660781
0.0004483439233
0.001428237897
0.002174380633
0.002310924961
0.001815794998
0.001065919838
0.0004884552025
0.0002013152454
7.900766454e-06
1.373148615e-06
1.15216217e-06
1.052382061e-06
9.704270937e-07
9.418767084e-07
9.036898657e-07
7.632095701e-07
6.571007256e-07
5.882276096e-07
5.549972155e-07
5.417601862e-07
5.421862994e-07
5.528987087e-07
5.721358414e-07
5.997742378e-07
6.374603145e-07
6.885782178e-07
7.58887004e-07
8.564908758e-07
9.931632656e-07
1.185945489e-06
1.460782578e-06
1.857765165e-06
2.448004727e-06
3.366104559e-06
4.884733284e-06
7.578305362e-06
1.268966173e-05
2.295150704e-05
4.443036645e-05
9.072273863e-05
0.0001926270767
0.0004206567028
0.0009377005729
0.001166737838
0.001166479861
0.001165653576
0.001164888529
0.001164646801
0.001164616178
0.001164660531
0.00116472418
0.001164787185
0.001164844997
0.001164899326
0.001164955208
0.001165019171
0.001165099214
0.00116521679
0.001165372904
0.001165674284
0.0004416961215
0.00139189998
0.002069150385
0.002051533254
0.001506784816
0.0007705698012
0.0003766661806
8.72944942e-05
2.823097697e-06
1.152039008e-06
9.787381477e-07
8.953976236e-07
8.284503132e-07
8.02982708e-07
7.83036903e-07
6.600419695e-07
5.686279472e-07
5.108434789e-07
4.849575418e-07
4.765380787e-07
4.798210754e-07
4.91839591e-07
5.113691739e-07
5.388182869e-07
5.761724267e-07
6.274260631e-07
6.98326464e-07
7.972377551e-07
9.359616032e-07
1.131455699e-06
1.408966993e-06
1.809091349e-06
2.3999899e-06
3.3131431e-06
4.815220726e-06
7.469559812e-06
1.249497773e-05
2.256672431e-05
4.360999288e-05
8.886925705e-05
0.0001882664714
0.0004101301212
0.000911919928
0.001166852055
0.001166539388
0.001165691649
0.001164934815
0.001164688237
0.00116465013
0.001164687802
0.001164746365
0.001164805782
0.001164861169
0.001164913894
0.001164968733
0.001165031913
0.001165111424
0.001165228401
0.001165384373
0.001165687869
0.0004342213513
0.001352483206
0.0019426941
0.001788438695
0.001223105482
0.0005721644543
0.0002905337724
3.867211756e-05
1.557896558e-06
9.73780351e-07
8.353687393e-07
7.651648148e-07
7.102201252e-07
6.878480376e-07
6.780185754e-07
5.707438191e-07
4.925522163e-07
4.44833961e-07
4.254244275e-07
4.211074402e-07
4.267280336e-07
4.397747346e-07
4.594706155e-07
4.870362161e-07
5.248847936e-07
5.771217029e-07
6.497637497e-07
7.512938857e-07
8.935902561e-07
1.093654841e-06
1.376733037e-06
1.783015464e-06
2.379820933e-06
3.296441897e-06
4.796342824e-06
7.437844521e-06
1.242903899e-05
2.2417042e-05
4.325086743e-05
8.797022544e-05
0.0001859570831
0.0004041320474
0.0008963303768
0.001166978221
0.001166605735
0.00116572773
0.001164982061
0.001164731481
0.001164685822
0.001164716432
0.001164769486
0.001164824956
0.001164877655
0.00116492861
0.001164982322
0.001165044723
0.00116512375
0.001165240253
0.001165396139
0.001165701555
0.0004256797431
0.001309322166
0.001788829125
0.001526485902
0.0009167450085
0.000429270409
0.0002072590262
1.930816149e-05
1.165953525e-06
8.279565381e-07
7.16898897e-07
6.576751925e-07
6.125410851e-07
5.932690397e-07
5.881812225e-07
4.946920515e-07
4.280196829e-07
3.89024001e-07
3.749150921e-07
3.737661038e-07
3.811627863e-07
3.950073148e-07
4.153866309e-07
4.43574867e-07
4.82524354e-07
5.366249569e-07
6.119955131e-07
7.172014743e-07
8.642758933e-07
1.070416573e-06
1.361077718e-06
1.776429243e-06
2.383567474e-06
3.310791473e-06
4.820766667e-06
7.472024133e-06
1.247340309e-05
2.246914122e-05
4.328811732e-05
8.789174112e-05
0.0001854104932
0.0004020223468
0.000889481007
0.001167110299
0.00116667535
0.001165761497
0.001165029396
0.001164775681
0.001164722591
0.001164745956
0.001164793239
0.001164844523
0.001164894352
0.001164943425
0.001164995958
0.001165057596
0.001165136197
0.001165252359
0.001165408209
0.00116571535
0.0004156140994
0.001261443211
0.001620349278
0.001275348377
0.0006625476224
0.0003276702773
0.0001358364861
1.262342583e-05
9.495890047e-07
7.044442123e-07
6.158178426e-07
5.655254964e-07
5.284735947e-07
5.121053461e-07
5.085425122e-07
4.278313885e-07
3.71815187e-07
3.408697706e-07
3.314655731e-07
3.329955546e-07
3.417263077e-07
3.567195092e-07
3.78092935e-07
4.075408022e-07
4.482821858e-07
5.049524314e-07
5.838058986e-07
6.935057123e-07
8.463027614e-07
1.059731867e-06
1.359635624e-06
1.786478146e-06
2.407649969e-06
3.3514842e-06
4.881927289e-06
7.562243957e-06
1.261193905e-05
2.269415644e-05
4.366589938e-05
8.851895303e-05
0.000186379809
0.0004032534597
0.0008901309789
0.001167243327
0.001166745131
0.001165792824
0.00116507614
0.001164820125
0.001164759861
0.001164775963
0.001164817355
0.001164864318
0.001164911168
0.001164958293
0.001165009626
0.001165070532
0.001165148777
0.001165264734
0.001165420584
0.001165729261
0.0004039579103
0.001207564736
0.001444788456
0.001032993321
0.0004939555808
0.0002552112314
6.609285767e-05
6.617846769e-06
7.730553664e-07
6.000089013e-07
5.283903975e-07
4.851556648e-07
4.543199378e-07
4.403812782e-07
4.362367089e-07
3.675857e-07
3.218350248e-07
2.987510205e-07
2.939622385e-07
2.979779893e-07
3.083665449e-07
3.244187889e-07
3.470504218e-07
3.782778919e-07
4.213780846e-07
4.811305212e-07
5.639996967e-07
6.788199294e-07
8.380926458e-07
1.059794012e-06
1.370316349e-06
1.81067867e-06
2.449007392e-06
3.414573049e-06
4.974446975e-06
7.700641615e-06
1.283211041e-05
2.307015476e-05
4.434249353e-05
8.976703339e-05
0.0001886839599
0.0004074253377
0.000897375363
0.001167373426
0.00116681249
0.001165821701
0.001165121775
0.001164864239
0.001164797157
0.001164806107
0.001164841603
0.001164884198
0.001164928024
0.001164973177
0.001165023316
0.001165083531
0.001165161502
0.001165277388
0.001165433258
0.001165743293
0.0003907593293
0.001146143257
0.001262931013
0.000784324674
0.0003761869097
0.0001950042001
3.125480448e-05
3.178353915e-06
6.293698711e-07
5.109308762e-07
4.525374696e-07
4.157278304e-07
3.900795843e-07
3.784996454e-07
3.726881313e-07
3.150557103e-07
2.786991668e-07
2.626682502e-07
2.619135701e-07
2.684191975e-07
2.804622405e-07
2.977281233e-07
3.217979879e-07
3.55091314e-07
4.009433352e-07
4.641719171e-07
5.514461773e-07
6.718664271e-07
8.382215195e-07
1.068993491e-06
1.39127129e-06
1.846851235e-06
2.504977603e-06
3.496664408e-06
5.093770593e-06
7.880679103e-06
1.312369399e-05
2.357955807e-05
4.528490007e-05
9.156947909e-05
0.0001921817645
0.0004142269547
0.0009105114377
0.001167497691
0.001166875344
0.001165848203
0.001165165932
0.001164907577
0.001164834097
0.001164836105
0.001164865791
0.001164904045
0.001164944855
0.001164988048
0.00116503702
0.001165096597
0.00116517438
0.00116529031
0.001165446231
0.001165757451
0.0003762897619
0.001076100062
0.001078198068
0.0005830245676
0.0002962931783
0.0001460485895
1.866192446e-05
1.746507764e-06
5.19484655e-07
4.360799977e-07
3.89165801e-07
3.578475534e-07
3.365116579e-07
3.270377427e-07
3.190279999e-07
2.710500265e-07
2.428542466e-07
2.326838592e-07
2.348420996e-07
2.435751741e-07
2.571584335e-07
2.759465847e-07
3.017281207e-07
3.372542671e-07
3.860993901e-07
4.531296868e-07
5.451230086e-07
6.715019658e-07
8.454210885e-07
1.085909615e-06
1.420943256e-06
1.8931019e-06
2.573273777e-06
3.594884734e-06
5.236111617e-06
8.097043499e-06
1.347858371e-05
2.42087403e-05
4.646799028e-05
9.38762714e-05
0.0001967678397
0.0004234270405
0.0009290174082
0.001167614061
0.001166932088
0.001165872457
0.001165208361
0.001164949808
0.001164870385
0.001164865731
0.001164889765
0.001164923764
0.001164961607
0.001165002882
0.001165050734
0.001165109734
0.001165187415
0.001165303474
0.001165459498
0.001165771743
0.0003614547686
0.0009998523481
0.0008813068044
0.0004457051352
0.000238664425
0.000104778805
1.307697966e-05
1.019236541e-06
4.340569014e-07
3.731625882e-07
3.359623693e-07
3.092501793e-07
2.91252717e-07
2.835263722e-07
2.732567962e-07
2.339648338e-07
2.130684327e-07
2.079298603e-07
2.126670996e-07
2.229481143e-07
2.378830574e-07
2.583258899e-07
2.861016706e-07
3.240839746e-07
3.760967218e-07
4.471615939e-07
5.441221541e-07
6.767156283e-07
8.585674606e-07
1.109292444e-06
1.457773349e-06
1.947789186e-06
2.651934836e-06
3.706802082e-06
5.398320242e-06
8.345411354e-06
1.389034563e-05
2.494714334e-05
4.787267452e-05
9.6649946e-05
0.0002023639434
0.0004348546292
0.0009525080458
0.001167721171
0.001166981542
0.001165894616
0.00116524891
0.001164990697
0.001164905802
0.001164894814
0.001164913405
0.001164943278
0.00116497824
0.001165017662
0.001165064455
0.001165122948
0.00116520062
0.001165316849
0.001165473052
0.00116578617
0.0003470157853
0.0009158833237
0.0007157480287
0.0003613744841
0.0001999445594
5.812262151e-05
7.72792108e-06
6.439444531e-07
3.640130646e-07
3.181913133e-07
2.882512807e-07
2.664269198e-07
2.514901953e-07
2.456023775e-07
2.33705602e-07
2.025813688e-07
1.88333615e-07
1.872329352e-07
1.943479862e-07
2.060158129e-07
2.222607956e-07
2.443804474e-07
2.742759283e-07
3.149884981e-07
3.703249867e-07
4.455285401e-07
5.476195291e-07
6.866059455e-07
8.766635648e-07
1.138042702e-06
1.500610545e-06
2.009497623e-06
2.73929034e-06
3.830375138e-06
5.577802628e-06
8.62230963e-06
1.435396111e-05
2.578677497e-05
4.9484873e-05
9.98633988e-05
0.0002089141557
0.000448388247
0.0009807100434
0.001167818211
0.001167022883
0.001165914848
0.001165287503
0.001165030089
0.001164940191
0.001164923229
0.001164936622
0.001164962533
0.001164994724
0.001165032376
0.001165078186
0.001165136245
0.001165214003
0.001165330401
0.001165486888
0.001165800732
0.0003356520194
0.0008231348099
0.0005815065124
0.0003062870229
0.0001685057332
3.181275661e-05
3.685529196e-06
4.525514051e-07
3.070208023e-07
2.712252632e-07
2.470854966e-07
2.292372439e-07
2.172495592e-07
2.130246129e-07
2.000538048e-07
1.764198238e-07
1.680691045e-07
1.70506477e-07
1.79295702e-07
1.922297894e-07
2.098869236e-07
2.337355496e-07
2.65882594e-07
3.094535375e-07
3.682105795e-07
4.475620909e-07
5.548639237e-07
7.003716614e-07
8.988346412e-07
1.171208821e-06
1.548390602e-06
2.077020294e-06
2.833933384e-06
3.963910196e-06
5.772449946e-06
8.924992698e-06
1.486560134e-05
2.672177208e-05
5.129462723e-05
0.0001034980028
0.0002163807592
0.0004639466752
0.001013440978
0.001167904798
0.001167055589
0.001165933324
0.001165324125
0.001165067895
0.001164973451
0.001164950887
0.001164959352
0.001164981486
0.001165011037
0.001165047018
0.001165091927
0.001165149634
0.001165227563
0.001165344129
0.001165500999
0.001165815424
0.0003305515765
0.0007250540687
0.0004829651365
0.0002568532258
0.0001368471262
1.907046471e-05
1.78780502e-06
3.39612221e-07
2.610769947e-07
2.323623897e-07
2.126189242e-07
1.977768674e-07
1.88267727e-07
1.854001192e-07
1.718679173e-07
1.549381955e-07
1.513725866e-07
1.568589261e-07
1.670736282e-07
1.812471935e-07
2.003739985e-07
2.260467143e-07
2.606014996e-07
3.069538637e-07
3.691478798e-07
4.526415245e-07
5.651795875e-07
7.173019205e-07
9.243175243e-07
1.207950493e-06
1.60020365e-06
2.149337827e-06
2.93469201e-06
4.106019826e-06
5.980574638e-06
9.251336883e-06
1.542243993e-05
2.77480445e-05
5.329538369e-05
0.0001075420983
0.000224740948
0.0004814816128
0.001050592853
0.001167980866
0.00116707937
0.001165950212
0.001165358803
0.001165104074
0.001165005521
0.001164977732
0.001164981551
0.001165000111
0.001165027165
0.001165061585
0.001165105683
0.00116516312
0.0011652413
0.001165358113
0.001165515372
0.001165830234
0.0003347452046
0.0006260737529
0.0003936818689
0.0002204067494
0.0001075787687
1.269233286e-05
8.750349349e-07
2.679240116e-07
2.225688157e-07
1.992163826e-07
1.829885541e-07
1.707454008e-07
1.633489825e-07
1.618206967e-07
1.48552038e-07
1.376645725e-07
1.382427821e-07
1.458055713e-07
1.572899542e-07
1.727535654e-07
1.933982606e-07
2.209693569e-07
2.579128074e-07
3.069587387e-07
3.725647528e-07
4.602140915e-07
5.779839249e-07
7.367804363e-07
9.524561056e-07
1.247570603e-06
1.65528436e-06
2.22560254e-06
3.040604702e-06
4.255586102e-06
6.200854596e-06
9.599752161e-06
1.602250409e-05
2.886300626e-05
5.548347549e-05
0.0001119899369
0.0002339845752
0.0005009727098
0.001092120905
0.001168046581
0.001167094114
0.001165965671
0.001165391595
0.001165138627
0.001165036376
0.001165003733
0.001165003195
0.001165018391
0.001165043102
0.001165076076
0.001165119459
0.001165176708
0.001165255219
0.001165372427
0.001165530023
0.001165845151
0.0003498517668
0.000532574914
0.0003343969681
0.0001971642011
6.224087679e-05
7.980373605e-06
4.632685331e-07
2.186429093e-07
1.896683723e-07
1.706588003e-07
1.574340012e-07
1.475566179e-07
1.421352986e-07
1.418509451e-07
1.296761986e-07
1.241254166e-07
1.279542926e-07
1.370157245e-07
1.496472486e-07
1.663977949e-07
1.88588732e-07
2.180585164e-07
2.572450067e-07
3.090222023e-07
3.779846867e-07
4.697943487e-07
5.927747159e-07
7.582748321e-07
9.826930332e-07
1.289476508e-06
1.712998549e-06
2.305122402e-06
3.150899453e-06
4.411731309e-06
6.432289246e-06
9.969110917e-06
1.666454948e-05
3.006533837e-05
5.7857643e-05
0.0001168406624
0.0002441119205
0.0005224225444
0.001138031365
0.001168102268
0.001167099832
0.001165979856
0.001165422579
0.001165171579
0.001165066013
0.001165028879
0.001165024271
0.001165036317
0.001165058844
0.001165090494
0.00116513326
0.001165190404
0.001165269342
0.001165387029
0.001165544972
0.001165860165
0.0003742014948
0.0005006008337
0.0002989452384
0.0001802038314
3.34328618e-05
3.326309744e-06
2.823035043e-07
1.827757072e-07
1.623453783e-07
1.467732939e-07
1.360140079e-07
1.282306638e-07
1.244763375e-07
1.252443006e-07
1.148384334e-07
1.136423475e-07
1.199432226e-07
1.301580272e-07
1.438501059e-07
1.618521213e-07
1.855849048e-07
2.169032831e-07
2.582552746e-07
3.127817066e-07
3.850292563e-07
4.809636442e-07
6.091226646e-07
7.813352402e-07
1.01456304e-06
1.333181445e-06
1.772833028e-06
2.38734619e-06
3.264972938e-06
4.573789104e-06
6.674158994e-06
1.035868786e-05
1.734796439e-05
3.135482254e-05
6.041872147e-05
0.000122097685
0.0002551323606
0.0005458536854
0.001169016766
0.001168148365
0.001167096615
0.001165992908
0.001165451851
0.001165202977
0.001165094451
0.001165053173
0.001165044778
0.00116505389
0.001165074391
0.001165104842
0.001165147091
0.001165204215
0.001165283681
0.001165401864
0.001165560222
0.001165875263
0.0004035702336
0.0004446953246
0.0002711101714
0.0001613197724
1.828723061e-05
1.28816017e-06
1.981892197e-07
1.553840093e-07
1.399412124e-07
1.270577633e-07
1.182567897e-07
1.123394819e-07
1.098338638e-07
1.109803529e-07
1.034609245e-07
1.058154172e-07
1.137107025e-07
1.248888331e-07
1.395945662e-07
1.588392591e-07
1.840835966e-07
2.172049049e-07
2.606984507e-07
3.178984474e-07
3.933631418e-07
4.933596098e-07
6.266605937e-07
8.055842927e-07
1.047680563e-06
1.378287031e-06
1.834372925e-06
2.471834372e-06
3.382352988e-06
4.741255516e-06
6.925958891e-06
1.076806534e-05
1.807262407e-05
3.273209846e-05
6.31692044e-05
0.0001277678441
0.0002670626808
0.0005713051504
0.001169101302
0.001168185381
0.001167084591
0.001166004959
0.001165479509
0.001165232882
0.001165121721
0.001165076629
0.001165064722
0.001165071111
0.001165089749
0.001165119125
0.001165160956
0.001165218145
0.001165298233
0.00116541692
0.001165575769
0.001165890429
0.0004386762908
0.0004131053476
0.0002594221768
0.0001396195608
1.080278307e-05
4.692826542e-07
1.563037533e-07
1.334245182e-07
1.21211709e-07
1.105515931e-07
1.035291283e-07
9.898311828e-08
9.764136675e-08
9.789328423e-08
9.490820165e-08
9.988372023e-08
1.088838572e-07
1.209373634e-07
1.366432898e-07
1.571205045e-07
1.838306148e-07
2.187026835e-07
2.642928741e-07
3.240694667e-07
4.026828814e-07
5.066769559e-07
6.450828496e-07
8.307137027e-07
1.081735767e-06
1.424478739e-06
1.897296795e-06
2.55825358e-06
3.502692134e-06
4.913780568e-06
7.187386189e-06
1.119711267e-05
1.883885275e-05
3.419858675e-05
6.611307644e-05
0.0001338610264
0.000279926189
0.0005988303443
0.001169173816
0.001168213871
0.001167063886
0.001166016132
0.001165505657
0.001165261363
0.001165147862
0.001165099268
0.001165084114
0.001165087988
0.001165104922
0.001165133349
0.00116517486
0.001165232198
0.001165312998
0.001165432186
0.00116559161
0.001165905639
0.0004766568114
0.0004036440838
0.0002572370067
9.353510663e-05
4.952050952e-06
2.006017063e-07
1.313268671e-07
1.151648515e-07
1.053898583e-07
9.66826684e-08
9.095329378e-08
8.772370834e-08
8.753313416e-08
8.781751539e-08
8.858545642e-08
9.532603664e-08
1.052067354e-07
1.180988436e-07
1.347976371e-07
1.564753588e-07
1.845892147e-07
2.211487801e-07
2.687679731e-07
3.31038044e-07
4.127328648e-07
5.20665214e-07
6.641427294e-07
8.564797594e-07
1.116489118e-06
1.471519747e-06
1.961369541e-06
2.646368249e-06
3.625757282e-06
5.091154605e-06
7.458320697e-06
1.16459553e-05
1.964737029e-05
3.575638732e-05
6.925560248e-05
0.0001403897086
0.0002937516954
0.0006284947949
0.001169235082
0.001168234426
0.001167034598
0.001166026537
0.001165530398
0.001165288491
0.001165172921
0.001165121118
0.001165102969
0.00116510453
0.001165119916
0.001165147518
0.001165188807
0.001165246377
0.001165327972
0.001165447653
0.001165607743
0.001165920865
0.0005315655878
0.0004114876574
0.0002609586685
4.538346395e-05
1.275339547e-06
1.317335697e-07
1.128605946e-07
1.00236239e-07
9.201745104e-08
8.481389846e-08
8.031824888e-08
7.837540654e-08
7.931804628e-08
8.034889333e-08
8.395822303e-08
9.186977788e-08
1.024951931e-07
1.162001617e-07
1.338675084e-07
1.566929755e-07
1.861438088e-07
2.243239391e-07
2.739055914e-07
3.385915262e-07
4.233041688e-07
5.351193974e-07
6.836402784e-07
8.826875603e-07
1.151750544e-06
1.519224428e-06
2.026409243e-06
2.735999841e-06
3.751379437e-06
5.273245685e-06
7.738744678e-06
1.21148667e-05
2.049913572e-05
3.740803522e-05
7.260292175e-05
0.0001473682408
0.0003085721775
0.0006603735272
0.001169285852
0.001168247663
0.001167004348
0.001166036275
0.001165553831
0.001165314342
0.001165196945
0.001165142207
0.001165121305
0.001165120748
0.001165134738
0.001165161637
0.001165202797
0.001165260684
0.001165343153
0.001165463306
0.001165624162
0.00116593608
0.0005894034778
0.0004133271883
0.000259242295
2.152041583e-05
2.966112107e-07
1.097247133e-07
9.811650651e-08
8.768131481e-08
8.071546017e-08
7.481846695e-08
7.150463337e-08
7.080563551e-08
7.282079982e-08
7.501324694e-08
8.057126858e-08
8.928976922e-08
1.005899167e-07
1.150749908e-07
1.336682932e-07
1.575743017e-07
1.883088273e-07
2.280408114e-07
2.795217799e-07
3.465534584e-07
4.342276856e-07
5.498745544e-07
7.034172508e-07
9.091868876e-07
1.187375953e-06
1.567455113e-06
2.092284259e-06
2.827024271e-06
3.879450814e-06
5.459995105e-06
8.028734897e-06
1.260425255e-05
2.139531392e-05
3.915642781e-05
7.616188107e-05
0.000154812458
0.0003244238699
0.0006945489056
0.00116932684
0.001168253939
0.001166975773
0.001166045437
0.001165576052
0.001165338987
0.001165219984
0.001165162567
0.001165139142
0.001165136653
0.001165149396
0.001165175709
0.001165216833
0.001165275118
0.001165358532
0.001165479132
0.001165640861
0.001165951259
0.0006467120489
0.0004096513517
0.0002478044026
1.105750179e-05
1.44904763e-07
9.504151727e-08
8.589494382e-08
7.722025895e-08
7.127550533e-08
6.652223473e-08
6.435010225e-08
6.48304548e-08
6.781403597e-08
7.128054334e-08
7.807964745e-08
8.74158788e-08
9.93454982e-08
1.145706729e-07
1.340370182e-07
1.589592633e-07
1.909290608e-07
2.321488553e-07
2.854683709e-07
3.547822666e-07
4.453696685e-07
5.64807437e-07
7.233594893e-07
9.358753062e-07
1.223273148e-06
1.61613079e-06
2.158925889e-06
2.919388604e-06
4.009946532e-06
5.651444837e-06
8.328496262e-06
1.311469189e-05
2.233732512e-05
4.100487794e-05
7.994007128e-05
0.0001627396319
0.0003413459428
0.0007311095298
0.00116935873
0.001168253519
0.001166948855
0.001166054103
0.00116559715
0.001165362497
0.001165242086
0.001165182229
0.001165156497
0.001165152255
0.001165163894
0.001165189739
0.001165230912
0.001165289678
0.0011653741
0.001165495117
0.001165657829
0.001165966374
0.0006830425321
0.0004040793598
0.0002233959093
6.745526223e-06
1.098816505e-07
8.324375485e-08
7.576579744e-08
6.848007658e-08
6.339346866e-08
5.969679078e-08
5.865112958e-08
6.021825766e-08
6.403631587e-08
6.866522389e-08
7.625004738e-08
8.611265223e-08
9.863299551e-08
1.145545555e-07
1.348391249e-07
1.60723279e-07
1.938758787e-07
2.365273426e-07
2.91624532e-07
3.631645253e-07
4.566213208e-07
5.79821051e-07
7.433770288e-07
9.626713101e-07
1.25936902e-06
1.665186862e-06
2.22627945e-06
3.013051144e-06
4.142851251e-06
5.84764624e-06
8.638243737e-06
1.364677512e-05
2.332660579e-05
4.295673428e-05
8.394518381e-05
0.000171167326
0.0003593783792
0.0007701461945
0.00116938217
0.001168246656
0.001166923568
0.001166062345
0.001165617206
0.001165384938
0.001165263298
0.001165201224
0.001165173389
0.001165167567
0.00116517824
0.001165203726
0.001165245034
0.001165304362
0.001165389844
0.001165511249
0.001165675055
0.001165981391
0.0006808350521
0.0004049402306
0.0001882305776
2.65893451e-06
9.083841489e-08
7.352803611e-08
6.730200304e-08
6.112838014e-08
5.680316349e-08
5.4139395e-08
5.419876551e-08
5.672124806e-08
6.122656684e-08
6.6799681e-08
7.492475776e-08
8.526401978e-08
9.833795144e-08
1.149124199e-07
1.359654195e-07
1.627679889e-07
1.970463553e-07
2.410809035e-07
2.978993226e-07
3.716191532e-07
4.679079282e-07
5.948513179e-07
7.63414993e-07
9.895277757e-07
1.295626186e-06
1.714595623e-06
2.29432866e-06
3.10801087e-06
4.278193722e-06
6.048700068e-06
8.958248777e-06
1.420115781e-05
2.436466885e-05
4.50154401e-05
8.818503676e-05
0.0001801132903
0.000378561478
0.0008117503158
0.001169397782
0.001168233566
0.00116689988
0.001166070226
0.001165636298
0.001165406375
0.001165283666
0.00116521958
0.001165189838
0.001165182597
0.001165192436
0.001165217672
0.001165259194
0.001165319164
0.001165405745
0.001165527512
0.001165692525
0.001165996256
0.0006737948818
0.000409076804
0.0001025337527
9.107031894e-07
7.816620734e-08
6.549903218e-08
6.022979921e-08
5.49608091e-08
5.134133544e-08
4.970317474e-08
5.079386189e-08
5.410659522e-08
5.904947398e-08
6.544827007e-08
7.399446991e-08
8.477434554e-08
9.836544421e-08
1.15551624e-07
1.373304527e-07
1.650154487e-07
2.003585225e-07
2.457313341e-07
3.042215656e-07
3.800823185e-07
4.791731589e-07
6.098461945e-07
7.834290039e-07
1.016405287e-06
1.332011301e-06
1.764329732e-06
2.363053035e-06
3.20425756e-06
4.415987563e-06
6.254683965e-06
9.288745217e-06
1.47784283e-05
2.545290084e-05
4.718419519e-05
9.26669748e-05
0.0001895943415
0.0003989336802
0.0008560095699
0.001169406157
0.001168214418
0.001166877757
0.001166077801
0.001165654495
0.001165426865
0.00116530323
0.001165237325
0.001165205858
0.001165197354
0.001165206488
0.001165231576
0.001165273386
0.001165334079
0.001165421784
0.001165543887
0.001165710217
0.00116601091
0.0006608769766
0.0004098277755
5.681393379e-05
3.466687497e-07
6.88846716e-08
5.883043607e-08
5.427400869e-08
4.977264685e-08
4.686201335e-08
4.62376075e-08
4.822865056e-08
5.216071905e-08
5.751161061e-08
6.446483582e-08
7.337265406e-08
8.456141507e-08
9.86350272e-08
1.163953681e-07
1.388630005e-07
1.673905258e-07
2.037484831e-07
2.504187306e-07
3.105417034e-07
3.885096331e-07
4.903824293e-07
6.247759878e-07
8.033963164e-07
1.043288143e-06
1.368515384e-06
1.814387754e-06
2.432459662e-06
3.301810528e-06
4.556278206e-06
6.465708596e-06
9.629996079e-06
1.537918726e-05
2.659265391e-05
4.946604955e-05
9.73979143e-05
0.0001996262052
0.000420530771
0.0009030053735
0.001169407875
0.001168189302
0.00116685716
0.001166085118
0.00116567186
0.001165446462
0.001165322032
0.001165254487
0.001165221466
0.001165211846
0.001165220397
0.001165245433
0.001165287603
0.001165349096
0.001165437936
0.001165560353
0.001165728095
0.001166025316
0.000641781409
0.0004003643511
2.903960864e-05
1.535274978e-07
6.16320061e-08
5.336470555e-08
4.928353491e-08
4.542345051e-08
4.324768092e-08
4.358779308e-08
4.631113996e-08
5.070897456e-08
5.642532084e-08
6.375674529e-08
7.299002525e-08
8.455824643e-08
9.908236803e-08
1.173830363e-07
1.405043854e-07
1.698271652e-07
2.0717042e-07
2.551030666e-07
3.168290187e-07
3.968755306e-07