/*--------------------------------*- C++ -*----------------------------------*\
  =========                 |
  \\      /  F ield         | OpenFOAM: The Open Source CFD Toolbox
   \\    /   O peration     | Website:  https://openfoam.org
    \\  /    A nd           | Version:  12
     \\/     M anipulation  |
\*---------------------------------------------------------------------------*/
FoamFile
{
    format      ascii;
    class       volScalarField;
    location    "300";
    object      k;
}
// * * * * * * * * * * * * * * * * * * * * * * * * * * * * * * * * * * * * * //

dimensions      [0 2 -2 0 0 0 0];

internalField   nonuniform List<scalar> 
16200
(
424.9599311
481.6333016
438.5881192
397.9730372
346.372171
268.2896403
156.1887338
48.61643441
6.04591845
0.2344877373
0.002819636827
0.001036302485
0.0009891581573
0.0009635821908
0.0009493005703
0.0009406700584
0.000935062284
0.0009317038215
0.0009299838105
0.0009293775888
0.0009296218109
0.0009305561601
0.0009320847804
0.0009341454449
0.0009367010427
0.0009397309163
0.0009432158407
0.0009471240206
0.0009514010297
0.0009559606282
0.0009606812481
0.0009654116126
0.0009699876461
0.0009742561855
0.0009780982209
0.000981437639
0.0009842417095
0.0009865078224
0.0009882552281
0.0009895096718
0.0009902972329
0.0009906285416
0.0009904853169
0.0009897966098
0.0009884151408
0.0009860886953
0.0009844431887
0.00098374637
0.0009834676376
0.0009833766029
0.0009833798186
0.0009834470701
0.0009835793007
0.0009837963828
0.0009841335669
0.0009846459795
0.0009854139871
0.0009865688309
0.0009883195695
0.0009910952068
442.0055495
496.3213198
446.2927986
398.4526213
337.0729561
245.3414891
122.6858576
29.52539763
2.625883758
0.06509851472
0.001237034378
0.001020552859
0.0009787194256
0.0009553853152
0.0009424047422
0.0009346740113
0.0009297330118
0.0009268889334
0.0009255945922
0.000925360135
0.0009259464991
0.000927209889
0.000929068639
0.000931469914
0.0009343808123
0.0009377812984
0.0009416475244
0.0009459366261
0.000950576878
0.000955459715
0.0009604410439
0.0009653537153
0.0009700301107
0.0009743272495
0.0009781453848
0.0009814321871
0.0009841748922
0.0009863863337
0.0009880925111
0.0009893221982
0.0009901004271
0.0009904384418
0.0009903204731
0.0009896828925
0.0009883900463
0.000986198846
0.0009845315895
0.0009838283048
0.0009835512348
0.0009834657081
0.0009834758366
0.0009835499259
0.0009836879217
0.0009839087733
0.0009842470331
0.000984756948
0.0009855193183
0.0009866669459
0.0009884178292
0.0009912344465
458.6950171
510.0796182
452.5384546
396.6342106
323.7100603
217.2571194
89.40604312
16.06544231
0.975169533
0.01599975204
0.001093548037
0.001007221207
0.0009692939565
0.0009480694819
0.0009363279861
0.0009294522626
0.0009251567599
0.0009228188428
0.0009219487188
0.0009220911421
0.0009230306344
0.000924638441
0.0009268454904
0.0009296072397
0.0009328937174
0.0009366834883
0.0009409450218
0.0009456200224
0.0009506136566
0.0009557899875
0.0009609805608
0.0009660048735
0.0009706980488
0.0009749348011
0.0009786419594
0.0009817953425
0.0009844050792
0.00098649978
0.0009881126424
0.0009892743184
0.0009900078476
0.0009903230408
0.0009902046368
0.0009895937803
0.0009883649965
0.0009862926367
0.0009846149322
0.0009839084062
0.0009836331897
0.0009835524458
0.0009835686828
0.0009836490511
0.0009837926186
0.0009840174676
0.000984357462
0.000984866036
0.0009856241495
0.0009867660424
0.000988517363
0.000991371488
474.3605917
521.9798942
456.696441
391.5261847
304.793621
183.4417579
59.45349163
7.705212394
0.3075615854
0.003615105549
0.001059382112
0.000995199354
0.0009608801058
0.0009416674553
0.0009311169376
0.000925055052
0.000921382989
0.0009195405875
0.0009190904645
0.000919611132
0.0009209099145
0.0009228716817
0.0009254389247
0.0009285743237
0.0009322491782
0.000936437401
0.0009410949968
0.0009461417894
0.0009514540275
0.0009568657377
0.000962186541
0.00096723012
0.0009718443121
0.0009759304527
0.000979447626
0.0009824014357
0.0009848246243
0.0009867594362
0.0009882447064
0.000989310878
0.0009899776713
0.0009902515984
0.0009901162674
0.0009895153902
0.0009883312343
0.0009863536161
0.0009846835799
0.000983980919
0.0009837100442
0.0009836347464
0.0009836571453
0.0009837437768
0.0009838930632
0.0009841223549
0.0009844648583
0.0009849732646
0.0009857285795
0.0009868662735
0.0009886187329
0.0009915076757
489.0188227
532.3999496
458.7582517
383.0785418
281.1973232
145.9731461
35.41337254
3.366028823
0.0884123852
0.001410280238
0.001040326853
0.000984432002
0.0009534801536
0.0009361784401
0.0009267720315
0.0009214883785
0.0009184218694
0.0009170676838
0.0009170358241
0.000917937771
0.0009196035365
0.0009219312445
0.0009248743259
0.0009284012348
0.0009324811252
0.0009370776344
0.0009421270623
0.0009475201456
0.0009530995076
0.0009586696044
0.0009640249464
0.0009689844087
0.0009734199378
0.000977267553
0.0009805220958
0.0009832185945
0.000985410001
0.0009871493023
0.0009884786018
0.0009894262988
0.0009900074659
0.0009902240071
0.0009900571051
0.0009894513601
0.000988294633
0.0009863921301
0.0009847425547
0.0009840485086
0.0009837833851
0.0009837136828
0.0009837420337
0.0009838347543
0.0009839897853
0.0009842238542
0.0009845695458
0.000985078871
0.0009858327653
0.0009869677693
0.0009887221156
0.0009916431089
502.5662069
541.3903133
458.3226527
370.1941042
251.6760798
108.1552993
20.39852697
1.394115997
0.0248134499
0.001158208024
0.001024783522
0.000974872986
0.0009470680659
0.0009315767863
0.0009232652165
0.0009187240747
0.0009162441364
0.0009153704778
0.0009157564433
0.0009170468415
0.0009190940698
0.0009218084539
0.0009251514953
0.0009290931914
0.0009335946705
0.0009386019303
0.0009440238671
0.000949716221
0.0009554867653
0.0009611158492
0.0009663943983
0.0009711601832
0.0009753203029
0.0009788512142
0.0009817839166
0.0009841799223
0.0009861082089
0.0009876286938
0.0009887839447
0.0009895985089
0.0009900816701
0.0009902297964
0.0009900207541
0.0009893988497
0.0009882555437
0.0009864076504
0.0009847911705
0.0009841107022
0.0009838529871
0.00098378923
0.0009838234664
0.0009839221881
0.0009840830372
0.0009843222238
0.0009846717604
0.0009851830379
0.0009859368533
0.0009870706536
0.0009888277308
0.0009917781502
514.9399632
548.9574754
455.190177
351.4800712
215.022503
73.4815403
10.91931253
0.5492113655
0.006947677878
0.001102123218
0.001010996781
0.0009664389236
0.0009415708009
0.0009277923469
0.0009205301871
0.000916705075
0.0009148030758
0.0009144145514
0.0009152317404
0.0009169320782
0.0009193887509
0.000922520328
0.0009262915438
0.0009306683861
0.0009355978644
0.0009410015382
0.0009467542409
0.00095267317
0.0009585344955
0.0009641051053
0.0009691873633
0.0009736519508
0.0009774497342
0.0009805997686
0.0009831664868
0.0009852329318
0.0009868789674
0.000988167401
0.0009891385555
0.0009898116027
0.0009901892014
0.0009902616192
0.0009900028636
0.0009893561941
0.0009882152461
0.0009864043271
0.0009848310486
0.0009841682008
0.0009839192564
0.0009838617244
0.0009839017789
0.0009840064229
0.0009841731613
0.0009844177834
0.0009847717842
0.0009852859889
0.0009860410081
0.0009871750482
0.0009889357305
0.0009919129988
525.7868976
554.7655044
448.9626438
326.9097885
173.353612
45.39336104
5.508624514
0.2198280047
0.002500321745
0.001074831015
0.0009987749707
0.0009590996011
0.0009369688945
0.0009248147427
0.000918566704
0.0009154457359
0.0009141261722
0.0009142379783
0.0009155075643
0.0009176416399
0.000920531927
0.000924102799
0.0009283182833
0.0009331349289
0.0009384789513
0.0009442404849
0.0009502548708
0.0009563004817
0.0009621303999
0.0009675135601
0.0009722803304
0.0009763462388
0.0009797104977
0.000982432941
0.0009846060008
0.0009863280002
0.0009876842766
0.000988736695
0.0009895209998
0.0009900498375
0.0009903187435
0.0009903116327
0.0009899984004
0.0009893208374
0.0009881739028
0.0009863849404
0.0009848631167
0.0009842213218
0.0009839823668
0.0009839313514
0.0009839772049
0.0009840877342
0.0009842604552
0.0009845108276
0.0009848698866
0.0009853879436
0.0009861453954
0.0009872810696
0.0009890462438
0.0009920478489
534.5068109
558.2528059
437.9333345
295.6422199
130.7644254
26.60836644
2.680717175
0.09298100952
0.001616850005
0.001054756478
0.0009881562226
0.0009529371472
0.0009333510451
0.0009227325775
0.0009174600516
0.0009150289103
0.0009142907731
0.0009149104615
0.0009166430555
0.0009192218029
0.0009225548148
0.0009265709872
0.0009312305657
0.0009364745439
0.0009421989209
0.0009482539681
0.0009544330075
0.0009604811925
0.0009661428823
0.0009712077637
0.0009755496163
0.0009791364818
0.0009820156808
0.0009842824384
0.0009860499625
0.0009874251981
0.0009884939034
0.0009893137557
0.0009899141452
0.0009903004734
0.0009904609829
0.0009903732435
0.0009900030079
0.0009892904048
0.0009881314114
0.0009863528509
0.0009848886175
0.0009842705438
0.0009840425698
0.0009839983319
0.0009840499922
0.0009841664017
0.000984345217
0.0009846016517
0.0009849663392
0.0009854891278
0.0009862501837
0.0009873888291
0.000989159368
0.0009921828451
541.0016297
559.4241832
420.5472432
256.1213034
90.50445672
15.07358113
1.249480524
0.03983497226
0.001383582048
0.001037910485
0.0009791882555
0.0009480334264
0.0009307988371
0.0009216136271
0.0009172588055
0.0009154857171
0.0009153113688
0.0009164320385
0.0009186284579
0.0009216587509
0.0009254421818
0.000929905437
0.0009349991428
0.0009406421779
0.0009466909307
0.0009529480534
0.000959168008
0.000965076533
0.0009704284875
0.0009750529355
0.0009788785052
0.00098192786
0.0009842916513
0.0009860925832
0.0009874567059
0.0009884933028
0.0009892842929
0.0009898806957
0.0009903043799
0.0009905531961
0.0009906082062
0.000990440845
0.0009900128546
0.0009892626477
0.0009880873077
0.0009863110388
0.0009849086662
0.0009843162969
0.0009841000911
0.0009840628656
0.000984120369
0.0009842426878
0.0009844277305
0.000984690541
0.0009850614087
0.0009855897659
0.0009863555407
0.0009874984346
0.0009892751762
0.0009923181036
545.6486846
558.20027
396.5562921
210.0306871
56.9543748
8.191644566
0.5792993497
0.01840944097
0.00129554509
0.001023588007
0.0009717983738
0.0009443354174
0.0009292648337
0.000921412447
0.0009179191045
0.0009167738375
0.0009171449872
0.0009187573213
0.0009214185297
0.0009249111486
0.0009291586907
0.0009340732894
0.0009395821269
0.0009455740852
0.0009518629315
0.000958202343
0.0009643175273
0.000969935685
0.0009748432772
0.0009789235273
0.0009821653528
0.0009846426036
0.0009864810364
0.0009878217322
0.0009887959463
0.0009895099559
0.0009900386007
0.000990424596
0.0009906816938
0.0009908002426
0.0009907544555
0.0009905099861
0.0009900248094
0.0009892356409
0.0009880409682
0.0009862622569
0.0009849243383
0.0009843590183
0.0009841551662
0.0009841251554
0.0009841885601
0.0009843168473
0.0009845082705
0.0009847777729
0.0009851553557
0.0009856900795
0.0009864616334
0.0009876099895
0.0009893937166
0.0009924537099
548.5736159
553.4691327
365.5011992
162.3751163
34.63307034
4.273973344
0.2709243163
0.00927808663
0.001214928725
0.00101129701
0.0009657192955
0.0009416360493
0.0009285875186
0.0009220126107
0.0009193677778
0.0009188477555
0.0009197690897
0.0009218832492
0.0009250145628
0.0009289703473
0.0009336801798
0.0009390363344
0.000944923812
0.0009511856366
0.0009575966146
0.0009638728662
0.0009697256717
0.0009749066922
0.0009792531921
0.0009827109791
0.0009853281209
0.0009872217836
0.0009885427177
0.0009894413559
0.000990047555
0.0009904604765
0.0009907457007
0.000990936748
0.0009910391396
0.0009910360432
0.0009908953081
0.0009905772512
0.0009900363936
0.0009892078043
0.0009879916884
0.000986208866
0.0009849365933
0.0009843991186
0.0009842080265
0.0009841854008
0.0009842547833
0.0009843891252
0.000984587101
0.0009848636154
0.0009852484332
0.0009857902856
0.000986568626
0.0009877235899
0.000989515015
0.0009925897242
549.6551364
543.8162894
324.8904106
116.5598539
20.95787951
2.263076559
0.1315544259
0.005231648437
0.001148691972
0.001000816435
0.0009608146376
0.0009398298397
0.0009286719514
0.0009233208727
0.0009215129985
0.0009216499756
0.0009231642343
0.0009258253537
0.0009294414489
0.0009338523709
0.0009389915934
0.0009447411815
0.0009509399411
0.000957363199
0.0009637486392
0.00096979958
0.0009752340242
0.0009798477393
0.0009835427109
0.0009863287856
0.0009883062788
0.0009896250921
0.0009904505369
0.0009909344117
0.0009912000116
0.0009913365684
0.0009913991854
0.0009914119236
0.0009913723256
0.000991256887
0.0009910276703
0.0009906401457
0.0009900457307
0.0009891779121
0.00098793877
0.0009861528472
0.000984946276
0.0009844369827
0.0009842589008
0.0009842438007
0.0009843192522
0.0009844597586
0.0009846644763
0.0009849483261
0.0009853408855
0.0009858905944
0.0009866766758
0.0009878393181
0.0009896390796
0.0009927261839
548.7701947
528.094155
275.4140147
77.77088397
12.71157983
1.229098729
0.06857600987
0.003361200762
0.001101778481
0.0009920311998
0.0009572036851
0.0009390376499
0.0009296234446
0.0009254160968
0.00092440327
0.0009251926653
0.0009273026754
0.0009305153641
0.0009346463831
0.0009395318665
0.0009450594427
0.0009511143584
0.0009575125714
0.0009639624233
0.0009701587324
0.0009758188743
0.0009806936209
0.0009846364495
0.0009876203357
0.0009897143351
0.0009910601317
0.0009918288869
0.0009921909719
0.000992293165
0.000992248581
0.0009921348901
0.0009919962906
0.0009918475922
0.0009916788609
0.0009914605413
0.0009911495256
0.0009906969388
0.0009900514572
0.0009891450604
0.0009878815716
0.0009860958031
0.0009849541081
0.0009844729633
0.0009843080122
0.000984300552
0.0009843821753
0.0009845289763
0.0009847406402
0.000985032152
0.0009854329469
0.0009859912082
0.0009867859319
0.0009879572404
0.000989765902
0.0009928631064
546.2753773
505.2946548
223.2534135
50.54381013
7.483907067
0.6702396476
0.03608189836
0.002281334532
0.001065420883
0.0009848353996
0.0009549014294
0.0009393192789
0.0009315100157
0.0009283686533
0.0009281072449
0.0009295172197
0.0009321953883
0.0009359334192
0.0009405615176
0.0009458965345
0.0009517979042
0.0009580584325
0.0009645016444
0.0009708191187
0.0009766619118
0.000981776679
0.0009859750733
0.0009891758637
0.0009914206269
0.000992828005
0.0009935683678
0.0009938233004
0.0009937604421
0.0009935169486
0.0009931935648
0.000992855739
0.0009925369288
0.0009922432216
0.0009919578602
0.0009916459071
0.0009912597025
0.0009907465135
0.0009900526318
0.0009891086235
0.0009878195427
0.000986038996
0.0009849606961
0.0009845073805
0.0009843555769
0.0009843558481
0.0009844437558
0.0009845969985
0.0009848158259
0.0009851153289
0.0009855248411
0.0009860923201
0.0009868965358
0.0009880774097
0.0009898954574
0.0009930004896
543.0247578
472.0625094
174.5889465
34.72265418
4.626729065
0.3705931186
0.01902053964
0.001686995341
0.001040137122
0.0009793829779
0.0009537525742
0.0009405940251
0.0009342743402
0.0009321397058
0.0009326009184
0.0009346194089
0.0009378525775
0.0009420975627
0.000947170386
0.0009528770095
0.0009590607616
0.0009654396728
0.0009717586429
0.0009777670178
0.0009830996916
0.0009875379033
0.0009909750617
0.0009933967575
0.0009949031842
0.0009956502684
0.0009958245951
0.0009956090048
0.0009951626292
0.0009946100873
0.00099403875
0.0009935019131
0.0009930228604
0.00099259968
0.0009922095145
0.0009918127157
0.0009913576646
0.0009907882271
0.0009900486476
0.0009890682037
0.0009877522363
0.000985983392
0.0009849665414
0.0009845405227
0.0009844018019
0.0009844098785
0.0009845041906
0.0009846640367
0.0009848902559
0.0009851980811
0.0009856167806
0.0009861941131
0.0009870086204
0.0009881998682
0.0009900277054
0.0009931383126
540.0612773
426.0471171
130.7988854
24.56926838
2.922561968
0.2123929412
0.01071362979
0.001390427209
0.001023500989
0.0009755642551
0.0009537300162
0.0009427807449
0.0009378809632
0.0009367182142
0.0009378887128
0.0009404987639
0.0009442585383
0.0009489666239
0.0009544288825
0.0009604231154
0.0009667381887
0.0009730847722
0.0009791310603
0.0009846489899
0.0009893287773
0.0009929927832
0.0009956194724
0.0009972568981
0.0009980495394
0.0009981777955
0.0009978336421
0.0009971941452
0.0009964061209
0.0009955801576
0.0009947901468
0.0009940777998
0.0009934570357
0.0009929187586
0.0009924347462
0.0009919612816
0.0009914433365
0.000990821792
0.0009900391553
0.000989023584
0.0009876793106
0.0009859297106
0.0009849720543
0.0009845726479
0.0009844468849
0.0009844628268
0.0009845636701
0.000984730293
0.0009849641414
0.0009852806206
0.0009857089656
0.0009862967586
0.0009871223054
0.0009883246529
0.0009901625912
0.0009932765367
538.6534706
369.546518
95.77776525
16.22544652
1.793967377
0.1191303082
0.006058121664
0.001217529721
0.00101174555
0.0009732560727
0.0009548118085
0.0009458732007
0.000942302583
0.0009420603915
0.0009439175832
0.0009471164085
0.0009513827103
0.0009564915417
0.0009622490237
0.0009684127787
0.0009747151215
0.0009808302522
0.000986457477
0.0009913188308
0.0009952296965
0.0009980611657
0.0009998632352
0.001000737849
0.001000858812
0.001000419255
0.0009996080668
0.000998591678
0.0009975024733
0.0009964366084
0.0009954550099
0.0009945886762
0.0009938430889
0.0009932028036
0.0009926349401
0.000992092306
0.0009915169624
0.0009908471775
0.0009900239978
0.0009889746857
0.000987600516
0.0009858784704
0.0009849775672
0.0009846039865
0.000984491013
0.0009845148703
0.0009846223768
0.00098479596
0.0009850376823
0.0009853631471
0.0009858015839
0.0009864004155
0.0009872376964
0.000988451815
0.0009903000443
0.000993415106
539.9483685
307.4198686
66.99871769
10.84196423
1.092348363
0.0643922865
0.003456925084
0.001120647373
0.001003898111
0.0009724199236
0.0009569945971
0.0009498856393
0.0009475366438
0.0009481518773
0.0009506552647
0.0009544097035
0.0009591381852
0.0009645909841
0.0009705235129
0.000976700193
0.0009828173775
0.0009885254447
0.0009935670223
0.0009976492948
0.001000715636
0.001002693812
0.001003687205
0.001003840358
0.001003343075
0.001002391429
0.001001165202
0.0009998172514
0.0009984647344
0.0009971897388
0.0009960411251
0.0009950402029
0.0009941849722
0.0009934544464
0.0009928117428
0.0009922067287
0.000991578998
0.0009908645324
0.0009900031582
0.0009889215348
0.0009875156792
0.0009858300326
0.0009849833486
0.0009846347442
0.0009845343627
0.0009845661788
0.0009846804853
0.0009848612201
0.0009851110668
0.0009854458477
0.0009858948099
0.0009865052295
0.0009873548886
0.0009885814058
0.0009904399842
0.0009935539495
543.6252268
244.8890634
50.07720841
7.584782845
0.6605632813
0.03339203374
0.002136508838
0.001071509783
0.0009991274557
0.0009729918343
0.0009602627055
0.0009548236923
0.0009536014874
0.000955010886
0.0009581065106
0.0009623411722
0.0009674363661
0.0009731251851
0.0009791117496
0.0009851217756
0.0009908713801
0.0009960070122
0.001000305115
0.001003546642
0.001005734386
0.001006869357
0.001007092944
0.001006579192
0.001005522986
0.001004115898
0.001002524808
0.001000887603
0.0009993063665
0.0009978499697
0.0009965563074
0.0009954380679
0.0009944866951
0.0009936764091
0.000992966916
0.0009923056162
0.0009916300261
0.0009908741237
0.0009899767179
0.0009888642353
0.0009874246774
0.0009857846353
0.000984989614
0.0009846651043
0.0009845770996
0.0009846169138
0.0009847381613
0.0009849262457
0.0009851844713
0.0009855288964
0.0009859888048
0.0009866113327
0.0009874739687
0.000988713432
0.0009905823239
0.0009936929834
546.9991035
186.7471188
40.03632253
5.424443067
0.3924531762
0.01665998724
0.001514691114
0.001047366552
0.0009967677959
0.0009749496327
0.0009646230819
0.0009606938835
0.0009604849813
0.000962606005
0.0009662186487
0.000970842597
0.0009761832703
0.0009819492213
0.0009878354245
0.0009935041146
0.0009987132401
0.001003134197
0.001006584963
0.001008953092
0.001010262834
0.001010588929
0.00101009727
0.001008978448
0.001007424204
0.001005616514
0.00100370738
0.001001819462
0.001000040536
0.0009984273765
0.000997008082
0.0009957877599
0.0009947521577
0.0009938713776
0.0009931022379
0.0009923900858
0.000991670699
0.0009908762937
0.0009899448261
0.0009888029524
0.0009873274146
0.0009857424249
0.0009849965367
0.0009846952308
0.0009846193784
0.0009846672283
0.0009847955611
0.000984991198
0.0009852580598
0.0009856124541
0.0009860837154
0.0009867188432
0.0009875950089
0.0009888478621
0.0009907269582
0.0009938321121
549.9108117
147.5355817
30.99025326
3.734466376
0.214312879
0.007602132968
0.001228906548
0.00103524263
0.0009963904508
0.0009782277685
0.0009700334468
0.0009674478907
0.0009681247023
0.0009708591266
0.0009748927461
0.0009797895345
0.0009852352726
0.0009909154376
0.0009965082567
0.001001680883
0.001006202905
0.001009803635
0.00101235825
0.001013839642
0.001014300935
0.001013870422
0.001012727173
0.001011067562
0.001009074576
0.001006917551
0.001004732984
0.001002628827
0.001000679663
0.0009989313983
0.0009974034884
0.0009960944279
0.0009949850437
0.0009940419174
0.000993219436
0.000992461251
0.0009917016948
0.0009908714267
0.0009899076762
0.0009887379011
0.0009872237922
0.0009857034789
0.0009850042558
0.0009847252699
0.000984661343
0.000984717266
0.0009848528316
0.0009850562278
0.0009853319845
0.0009856966682
0.0009861796745
0.000986827864
0.0009877180611
0.0009889846588
0.0009908737634
0.0009939712266
550.2757176
126.1578777
25.10165655
2.475695628
0.1019974412
0.003230620845
0.001118020845
0.001029508394
0.0009977212329
0.0009827140139
0.0009764043942
0.00097497401
0.0009764182974
0.0009796569092
0.0009839992337
0.0009890338832
0.0009944277876
0.0009998502371
0.001004974597
0.001009508391
0.001013229658
0.001015944145
0.001017588047
0.001018203429
0.001017866671
0.001016743024
0.001015015429
0.001012878172
0.001010502094
0.001008042437
0.001005620512
0.001003330529
0.001001235162
0.0009993706799
0.0009977489751
0.0009963628044
0.0009951887603
0.0009941904238
0.0009933201448
0.0009925201864
0.0009917236891
0.0009908599265
0.000989865488
0.0009886693424
0.0009871136795
0.0009856678248
0.0009850128832
0.0009847553525
0.0009847031267
0.0009847671613
0.0009849101096
0.0009851214743
0.0009854063846
0.0009857816722
0.0009862767995
0.0009869384825
0.0009878431597
0.0009891237774
0.0009910226008
0.0009941102053
546.4769282
116.8330524
20.63384269
1.52545302
0.0389640182
0.001599791374
0.001084552478
0.001027220346
0.001000578833
0.0009882924016
0.0009835867018
0.0009831638414
0.0009852515569
0.0009888723445
0.0009933931803
0.000998413619
0.001003589536
0.001008587279
0.00101309599
0.001016870319
0.00101971546
0.001021517291
0.001022268349
0.001022062053
0.001020990687
0.001019242512
0.001016997268
0.001014441954
0.001011733601
0.001009013043
0.001006387294
0.001003938036
0.001001717346
0.0009997530205
0.0009980503674
0.000996597181
0.0009953664154
0.0009943190996
0.0009934058841
0.0009925679077
0.0009917373366
0.0009908422017
0.0009898184962
0.0009885975848
0.0009869968831
0.0009856354547
0.0009850225087
0.0009847855952
0.0009847448523
0.0009848170388
0.0009849675216
0.0009851870656
0.0009854813868
0.0009858675856
0.0009863751927
0.0009870507694
0.0009879703225
0.0009892651553
0.0009911733178
0.0009942489141
537.4979522
115.6023083
16.76332275
0.8655291805
0.01161837623
0.001211754075
0.001074460688
0.001027299934
0.001004766545
0.0009947937749
0.0009914842454
0.0009919142253
0.0009945062713
0.0009983689162
0.001002918193
0.001007760644
0.001012553358
0.001016975435
0.001020748589
0.001023681057
0.001025616167
0.00102651408
0.00102641506
0.001025447211
0.001023711146
0.001021407408
0.001018707881
0.001015789145
0.001012793977
0.001009849261
0.001007048917
0.001004463386
0.001002135407
0.001000085371
0.0009983128691
0.0009968014065
0.0009955208124
0.0009944299468
0.0009934780493
0.0009926053605
0.0009917432617
0.0009908186576
0.0009897669411
0.0009885229944
0.0009868842708
0.0009856063354
0.0009850332044
0.000984816102
0.0009847866318
0.0009848670132
0.0009850251836
0.0009852531178
0.0009855571043
0.000985954513
0.0009864749399
0.0009871647778
0.0009880995484
0.0009894087109
0.0009913257465
0.0009943872087
523.2144517
109.2000911
12.82941496
0.4458590781
0.003058519779
0.001160487148
0.001069579258
0.001029068126
0.001010091346
0.001002123131
0.0009999974834
0.001001109286
0.001004046816
0.001007993247
0.00101240813
0.001016908837
0.001021167482
0.001024890329
0.001027842844
0.001029887621
0.001030919386
0.001030949547
0.001030059971
0.001028398857
0.001026069394
0.001023276209
0.001020180775
0.001016947654
0.001013705727
0.001010568859
0.001007619194
0.001004917206
0.001002497455
0.001000373872
0.0009985410905
0.0009969789054
0.000995654459
0.0009945247685
0.0009935379083
0.0009926334153
0.0009917420509
0.00099078969
0.0009897110597
0.0009884455755
0.0009867798142
0.0009855804167
0.0009850450277
0.000984846965
0.0009848285673
0.0009849171888
0.0009850832006
0.0009853197347
0.0009856336369
0.0009860425437
0.00098657611
0.0009872805428
0.0009882308165
0.0009895543436
0.0009914797033
0.0009945249379
503.832454
97.95004187
9.136846204
0.2028569008
0.001668894891
0.001144609827
0.001067153287
0.001032340323
0.001016420578
0.001010155387
0.001008993304
0.00101060192
0.001013712852
0.001017577159
0.001021695775
0.001025705326
0.001029305642
0.001032240777
0.001034325338
0.001035475813
0.001035638172
0.001034855546
0.001033244081
0.001030960663
0.001028106829
0.001024885623
0.001021446852
0.001017942643
0.00101448886
0.001011187494
0.001008110245
0.001005308805
0.001002810596
0.001000623915
0.0009987390936
0.0009971327083
0.0009957695871
0.0009946051804
0.000993586607
0.0009926528684
0.0009917342533
0.0009907556846
0.0009896510975
0.000988365217
0.0009866831621
0.0009855576365
0.0009850580236
0.0009848782653
0.0009848707506
0.0009849676599
0.0009851416666
0.0009853870081
0.0009857110704
0.0009861317514
0.0009866787546
0.0009873980803
0.0009883640855
0.0009897019334
0.0009916349901
0.0009946619419
479.9741386
83.91579196
6.064754494
0.09219218324
0.001413205775
0.001133648635
0.001066841502
0.00103690094
0.001023579984
0.001018726074
0.001018305163
0.001020220724
0.001023331403
0.001026952886
0.001030628384
0.001034023536
0.00103687554
0.001038972085
0.001040177945
0.001040460879
0.001039803589
0.001038274588
0.001036013251
0.001033177115
0.001029863214
0.001026269631
0.001022534017
0.001018796465
0.00101516097
0.001011718856
0.001008532638
0.001005646299
0.001003081033
0.001000840222
0.0009989104488
0.0009972654913
0.0009958681776
0.0009946726259
0.0009936251778
0.0009926644467
0.000991720381
0.0009907170181
0.0009895873118
0.0009882818204
0.0009865939695
0.0009855379248
0.0009850722269
0.0009849100739
0.0009849132631
0.0009850185102
0.0009852006641
0.0009854550169
0.0009857894762
0.0009862221938
0.0009867829071
0.0009875173866
0.0009884992924
0.0009898513408
0.0009917913935
0.0009947980518
451.962454
70.04695337
3.89881152
0.04104157423
0.001304749513
0.00112623522
0.001068303649
0.00104250625
0.001031366457
0.00102764654
0.001027749175
0.001029785959
0.001032732169
0.001035966953
0.00103907836
0.001041769264
0.001043819755
0.001045062478
0.001045409918
0.001044873733
0.001043457918
0.001041253983
0.001038414065
0.001035090852
0.001031375286
0.001027458744
0.001023466912
0.001019528634
0.001015737324
0.001012174786
0.001008895509
0.001005936711
0.00100331415
0.001001026904
0.0009990582776
0.0009973796055
0.0009959519814
0.0009947283892
0.0009936545473
0.0009926688109
0.0009917009113
0.0009906740587
0.0009895199716
0.000988195271
0.000986511902
0.0009855212064
0.0009850876627
0.0009849424515
0.0009849561766
0.0009850698129
0.000985260264
0.0009855238268
0.0009858689108
0.0009863139114
0.000986888582
0.0009876384368
0.0009886363518
0.0009900024056
0.0009919486852
0.0009949330864
419.5919996
56.80065384
2.486750635
0.01564509869
0.001254610176
0.001121755143
0.001071229038
0.0010489146
0.001039570056
0.001036722163
0.001037140991
0.001039125976
0.001041762345
0.001044492121
0.001046950648
0.001048883071
0.001050113621
0.001050517673
0.001050050494
0.001048757194
0.001046649127
0.001043841956
0.001040491343
0.00103674119
0.001032676092
0.001028479846
0.001024267006
0.00102015604
0.001016231081
0.001012565482
0.001009206731
0.001006186108
0.001003514612
0.001001187537
0.0009991853094
0.0009974771177
0.0009960225467
0.0009947736146
0.0009936755492
0.0009926665644
0.0009916762921
0.0009906271719
0.0009894493655
0.0009881054107
0.0009864366387
0.0009855074027
0.0009851043478
0.0009849754494
0.0009849995523
0.00098512163
0.0009853205251
0.0009855934899
0.0009859494152
0.0009864069268
0.0009869957737
0.0009877611846
0.0009887751548
0.0009901549457
0.0009921066215
0.0009950668537
382.8879509
44.73866307
1.524891808
0.006584927511
0.001229279611
0.0011196334
0.001075303456
0.001055886178
0.001047982204
0.0010457634
0.001046309476
0.001048090977
0.00105029849
0.001052436077
0.001054187025
0.001055340232
0.001055761851
0.001055365379
0.001054142139
0.001052158331
0.001049427337
0.001046085743
0.001042287023
0.001038163729
0.001033794994
0.001029356516
0.001024952954
0.0010206933
0.001016653605
0.001012899748
0.001009473114
0.001006399752
0.00100368648
0.001001325247
0.0009992939396
0.0009975598509
0.000996081247
0.0009948093244
0.0009936889351
0.0009926582587
0.0009916469434
0.0009905767218
0.0009893758078
0.000988012002
0.0009863678716
0.000985496432
0.0009851222912
0.0009850091093
0.0009850434414
0.0009851740126
0.0009853814938
0.0009856640443
0.0009860310143
0.0009865012448
0.0009871044563
0.0009878855609
0.0009889155687
0.0009903087564
0.0009922649407
0.0009951991606
343.0997356
33.66277249
0.8713101347
0.003238326794
0.001214144131
0.001119381034
0.0010802192
0.00106320119
0.001056412459
0.001054597246
0.00105510614
0.001056560954
0.001058251417
0.001059742256
0.001060763163
0.001061144978
0.001060791253
0.001059647755
0.001057734053
0.001055125699
0.001051841961
0.001048029712
0.00104383911
0.001039390065
0.001034757603
0.001030109199
0.001025540827
0.001021152971
0.001017014655
0.001013185156
0.001009700527
0.001006582193
0.00100383328
0.001001442762
0.0009993862691
0.0009976294133
0.0009961293027
0.0009948364346
0.0009936953866
0.0009926444023
0.0009916132646
0.0009905230778
0.0009892996569
0.0009879146949
0.0009863053071
0.000985488211
0.0009851414945
0.0009850434637
0.0009850878844
0.000985227
0.0009854432032
0.0009857355127
0.0009861137156
0.0009865968499
0.0009872145817
0.0009880114723
0.0009890574348
0.0009904636106