/*--------------------------------*- C++ -*----------------------------------*\
  =========                 |
  \\      /  F ield         | OpenFOAM: The Open Source CFD Toolbox
   \\    /   O peration     | Website:  https://openfoam.org
    \\  /    A nd           | Version:  12
     \\/     M anipulation  |
\*---------------------------------------------------------------------------*/
FoamFile
{
    format      ascii;
    class       volScalarField;
    location    "300";
    object      Ma;
}
// * * * * * * * * * * * * * * * * * * * * * * * * * * * * * * * * * * * * * //

dimensions      [];

internalField   nonuniform List<scalar> 
16200
(
0.5214274469
0.6213576772
0.6776002607
0.7220051676
0.7634850949
0.807366653
0.8558346781
0.9012226086
0.9188870476
0.9196423274
0.9185525725
0.9175525864
0.9163109003
0.9149342071
0.9133033115
0.9114385841
0.9092694006
0.9067606982
0.9038464436
0.9004633242
0.8965340438
0.89197595
0.8867010193
0.8806174376
0.8736371458
0.8656872924
0.8567242482
0.846754362
0.8358580301
0.8242113934
0.8120946782
0.7998744112
0.787958084
0.7767322469
0.7665078214
0.757487516
0.7497614839
0.7433221692
0.7380881045
0.7339305248
0.730695508
0.7282245732
0.7263669499
0.7249894136
0.7239790994
0.7232448201
0.7227147761
0.722334237
0.7220620257
0.7218678668
0.7217295783
0.7216310428
0.7215607104
0.721509988
0.7214732136
0.7214446111
0.7214235375
0.7214031351
0.7213903467
0.7213654003
0.5318156326
0.6345071254
0.6923019498
0.738054627
0.7812381037
0.8275168246
0.8777959922
0.9177497933
0.9283220268
0.9281888775
0.9270285011
0.9259463336
0.924611557
0.9231239916
0.9213577055
0.9193284837
0.9169622232
0.9142169353
0.9110211306
0.9073037139
0.9029803527
0.8979604308
0.8921496686
0.8854519695
0.8777787674
0.8690632934
0.8592780766
0.8484596816
0.836735573
0.8243430533
0.8116261841
0.7989998369
0.7868876346
0.7756545892
0.7655609126
0.7567462797
0.7492439607
0.7430050711
0.7379277177
0.7338778029
0.7307079379
0.72826952
0.7264230493
0.7250439703
0.7240260495
0.7232820884
0.7227426615
0.722354028
0.7220753853
0.7218763579
0.7217345469
0.7216336094
0.7215616866
0.7215100837
0.7214727044
0.7214441322
0.7214226668
0.7214027066
0.7213897407
0.7213637305
0.5420213831
0.6475119565
0.7069079077
0.7541236947
0.7992093
0.8479298251
0.8993466189
0.9307798117
0.936094971
0.9353572101
0.9341239814
0.9329456802
0.9314916416
0.9298626244
0.9279284884
0.925698672
0.9230960331
0.9200709792
0.9165464444
0.9124432385
0.9076698984
0.9021280561
0.8957175221
0.8883388029
0.8799046366
0.8703583795
0.859696553
0.8479986276
0.8354549587
0.8223778703
0.8091808361
0.7963205714
0.7842201315
0.773202345
0.76345834
0.7550531413
0.7479564671
0.7420766862
0.7372906231
0.7334604278
0.7304462053
0.7281119182
0.7263316223
0.7249925052
0.7239976127
0.7232662679
0.7227334327
0.7223480532
0.7220709739
0.7218726881
0.7217312753
0.7216306406
0.7215589968
0.721507761
0.7214706796
0.7214426434
0.7214213313
0.7214019486
0.7213893983
0.7213636525
0.5515504802
0.659614463
0.7205579984
0.769434761
0.8167690478
0.8677345463
0.9181209647
0.9400005185
0.9419216057
0.9409762071
0.9396637487
0.9383763681
0.9367936424
0.935009927
0.9328924196
0.9304423308
0.9275795734
0.9242462205
0.9203594345
0.9158318742
0.910564985
0.9044527333
0.8973892616
0.8892731588
0.8800226722
0.8695999309
0.8580392877
0.845480537
0.8321930502
0.8185717633
0.805092727
0.7922335772
0.7803891198
0.7698153478
0.7606193127
0.7527867496
0.7462262826
0.7408091242
0.7363962425
0.7328505558
0.7300426956
0.7278517347
0.7261672255
0.724890011
0.7239340183
0.7232265458
0.7227081434
0.7223314146
0.7220595461
0.7218644534
0.7217250771
0.7216258169
0.7215551605
0.7215047211
0.7214682428
0.7214408736
0.72141987
0.7214010301
0.7213888594
0.7213630383
0.5604549776
0.6710373363
0.7335072903
0.7841986337
0.8341506615
0.8873638922
0.932298383
0.946044084
0.946177537
0.9451244726
0.943712119
0.9422979032
0.9405674517
0.938605987
0.936279878
0.933580653
0.9304253724
0.9267470696
0.9224563484
0.9174566369
0.9116410149
0.9048950904
0.8971082671
0.8881815258
0.8780476539
0.8667018744
0.8542348572
0.840865491
0.8269546632
0.8129787852
0.7994584479
0.786862286
0.7755260048
0.7656167471
0.7571483423
0.7500285504
0.7441120829
0.7392411205
0.7352675613
0.7320595962
0.7295011201
0.7274880026
0.725926487
0.7247321842
0.7238309349
0.7231590505
0.7226635652
0.7223015423
0.7220391408
0.7218501998
0.7217148938
0.7216183886
0.7215496537
0.7215006177
0.7214651598
0.7214386819
0.7214182043
0.7213999427
0.721388282
0.7213625265
0.5686864476
0.681825711
0.7458456196
0.798443074
0.8511298696
0.9062787252
0.9425048323
0.9498716702
0.948985557
0.947850876
0.9463225958
0.9447655185
0.9428707502
0.9407106288
0.9381517776
0.9351741276
0.9316907885
0.9276240743
0.9228762026
0.9173401098
0.9109004161
0.9034369742
0.8948404359
0.8850240901
0.8739489118
0.8616603336
0.8483244355
0.8342550287
0.8199085278
0.8058287958
0.7925504712
0.7804964236
0.7699132749
0.760863763
0.7532674578
0.7469623576
0.7417609372
0.7374869407
0.7339910268
0.7311513467
0.7288675152
0.7270532705
0.7256320402
0.7245345444
0.7236989021
0.7230708836
0.7226044667
0.7222616268
0.7220118889
0.7218313478
0.7217016684
0.7216089803
0.7215428826
0.7214957158
0.7214615925
0.7214361772
0.7214163768
0.7213987146
0.7213876126
0.7213618816
0.5762565461
0.6920716649
0.7577348427
0.8124717556
0.8678555427
0.9229642979
0.9490758731
0.9522566053
0.9504709115
0.949240444
0.9475795113
0.9458567052
0.9437714359
0.9413796643
0.9385485796
0.9352447689
0.9313763839
0.9268544625
0.9215728511
0.9154156955
0.9082624479
0.8999928135
0.8905068673
0.8797414859
0.8677004226
0.8544968301
0.8403900358
0.8257993155
0.8112694679
0.797384012
0.7846518568
0.7734127326
0.7638009497
0.7557690133
0.7491495619
0.743724312
0.7392774454
0.7356253138
0.732624717
0.7301677661
0.7281715409
0.726568044
0.7252977609
0.7243062897
0.7235439075
0.7229658775
0.7225332664
0.7222131742
0.7219787175
0.7218084606
0.7216857378
0.7215977901
0.7215349606
0.7214900811
0.7214575724
0.7214333792
0.7214143913
0.7213973575
0.7213868772
0.7213611844
0.582999963
0.7016160994
0.769121615
0.8264071085
0.8846301797
0.9354418842
0.9525975165
0.9521779847
0.9505737515
0.949220275
0.9474021541
0.945481729
0.9431697543
0.9405029785
0.9373496267
0.9336624407
0.9293448666
0.9242980491
0.9184094618
0.9115577366
0.9036208812
0.8944829243
0.8840599412
0.87232388
0.8593392109
0.8453078
0.8305979514
0.815735167
0.8013308462
0.7879673791
0.7760839545
0.7659054454
0.7574414727
0.7505390753
0.7449584155
0.740441689
0.736759258
0.7337303932
0.7312243014
0.7291500806
0.7274432383
0.7260538351
0.7249387843
0.7240578899
0.7233730835
0.7228488239
0.7224531451
0.7221582725
0.721940984
0.7217824109
0.7216676572
0.7215851666
0.7215261017
0.7214838435
0.7214531739
0.7214303336
0.7214122652
0.7213958853
0.7213860729
0.7213604079
0.5885299827
0.7100591668
0.7797751828
0.8399225139
0.9006169818
0.9434513326
0.9516142744
0.9508372595
0.9491065911
0.9475985145
0.9456039743
0.9434610004
0.9408948341
0.9379212517
0.9344098561
0.9302993557
0.9254882066
0.9198682755
0.9133212453
0.9057221156
0.8969512083
0.8869035327
0.8755212625
0.8628271206
0.8489690543
0.8342607806
0.8191875561
0.8043647754
0.7904321502
0.7779221512
0.7671634792
0.758245793
0.7510544293
0.7453451137
0.7408246205
0.7372132839
0.7342809945
0.7318585428
0.7298322327
0.7281300284
0.7267060478
0.7255276916
0.7245672973
0.7237979052
0.7231923419
0.7227237405
0.7223667928
0.7220986976
0.7218998448
0.7217539409
0.7216478953
0.7215714004
0.7215164817
0.7214771073
0.7214484548
0.721427074
0.7214100124
0.7213943084
0.7213851992
0.721359563
0.5927400669
0.7174519931
0.7898439489
0.8529962199
0.914330097
0.9476367506
0.9493130436
0.9479089857
0.9460714949
0.9443871051
0.9421980684
0.9398105827
0.9369669195
0.9336610378
0.9297635839
0.9251987775
0.9198582954
0.9136233786
0.9063683729
0.8979658093
0.8883050912
0.8773066477
0.8649591824
0.8513582849
0.8367563122
0.8215938938
0.8064662886
0.7920424008
0.7789389906
0.767590437
0.7581849137
0.7506709982
0.7448221105
0.74032337
0.7368489928
0.7341139715
0.7318988573
0.730052405
0.7284810395
0.7271323772
0.7259786599
0.7250035238
0.7241934797
0.723533653
0.7230068495
0.722594213
0.7222766582
0.7220360958
0.7218563897
0.7217237606
0.7216269066
0.7215567764
0.7215062751
0.7214699763
0.7214434735
0.7214236343
0.7214076458
0.7213926293
0.7213842502
0.7213586484
0.5959252041
0.724301045
0.7998031914
0.8662087622
0.9242878154
0.9451281512
0.9451183059
0.9436810732
0.9417091364
0.9398189369
0.9374065189
0.9347399171
0.9315789638
0.9278950578
0.9235595819
0.918483443
0.9125511481
0.905634316
0.8976028722
0.8883314817
0.8777267808
0.8657507205
0.852465427
0.8380681007
0.8229291132
0.8076111963
0.7927938746
0.7791486175
0.7672135963
0.7572863686
0.7494003143
0.743371479
0.7388827116
0.7355722782
0.7331017789
0.7311948018
0.7296509276
0.72834109
0.72719332
0.7261747401
0.725274715
0.7244917535
0.7238251537
0.7232708907
0.722820761
0.7224631825
0.7221847853
0.7219718627
0.7218115549
0.7216924865
0.7216050894
0.7215415464
0.7214956364
0.7214625428
0.7214382822
0.7214200444
0.7214051757
0.7213908475
0.7213832368
0.7213576675
0.5983138873
0.7309085464
0.8097253211
0.8792363426
0.9304485858
0.9419075563
0.9398856384
0.9383151163
0.9361807631
0.9340556808
0.9313852708
0.9283950989
0.924861668
0.9207331756
0.9158810535
0.9102044924
0.9035845475
0.8958913871
0.8870024236
0.8768060199
0.8652367143
0.852308412
0.8381763661
0.823168804
0.8077822877
0.7926732875
0.778560551
0.7660625508
0.755589071
0.7472774847
0.7410091432
0.7364877091
0.7333316966
0.731156017
0.7296268098
0.7284868842
0.7275604031
0.726742683
0.7259835749
0.725268852
0.7246036512
0.7239998527
0.7234681115
0.7230140074
0.7226373266
0.7223330038
0.7220928445
0.7219071602
0.7217661329
0.7216606487
0.7215827907
0.7215259319
0.7214847034
0.7214548896
0.7214329284
0.7214163311
0.7214026124
0.7213889732
0.7213821772
0.7213566207
0.5999384002
0.73739198
0.8195912305
0.8905971734
0.9323877514
0.9357644299
0.9334521832
0.9317674391
0.9294286362
0.9270289154
0.9240565696
0.9206924327
0.9167296161
0.9120941144
0.9066563128
0.9003043922
0.8929185958
0.8843737348
0.8745615292
0.863403384
0.8508878551
0.8371009771
0.8222981731
0.806946689
0.7916698319
0.7771748041
0.7641583615
0.7531342023
0.7443485971
0.7377731242
0.733154676
0.7301119021
0.7282260451
0.7271094166
0.7264460383
0.7260051462
0.7256385112
0.7252663965
0.7248597344
0.7244216097
0.7239713838
0.7235327662
0.7231263648
0.7227661608
0.7224589615
0.7222054755
0.7220021431
0.7218429165
0.7217207687
0.7216286854
0.7215603015
0.7215101216
0.7214735948
0.7214470885
0.7214274538
0.7214125185
0.721399967
0.7213870312
0.7213810583
0.7213555083
0.6006933012
0.7437003654
0.8294952282
0.8986796219
0.9264909173
0.9283112844
0.9256766591
0.9238156888
0.921241399
0.9185349031
0.9152274313
0.9114546591
0.9070252354
0.9018443752
0.895780554
0.8887133044
0.8805228915
0.8710920238
0.8603329752
0.8482165909
0.8348097084
0.8203153259
0.8051033013
0.7897500577
0.7749829586
0.7615148152
0.7499524723
0.7406625485
0.7337130495
0.7289211028
0.7259269084
0.7242939828
0.7235909573
0.7234441118
0.7235646438
0.7237523313
0.7238875296
0.7239147944
0.7238247574
0.7236361956
0.7233810741
0.7230934243
0.7228024759
0.7225294853
0.7222873723
0.7220819149
0.7219136672
0.7217798503
0.7216759726
0.7215969505
0.7215378613
0.7214942728
0.7214624112
0.7214392018
0.721421895
0.7214086276
0.7213972488
0.7213850372
0.7213798923
0.7213543302
0.6006842666
0.7498016844
0.8388666993
0.9031396741
0.920215341
0.9193183347
0.9165372288
0.9144792584
0.91164922
0.9086113721
0.9049382357
0.9007215153
0.8957828869
0.8900093274
0.8832687067
0.8754372859
0.8664012731
0.85606197
0.8443708031
0.8313618786
0.8171944618
0.8022062838
0.7869131457
0.7719618815
0.7581233829
0.7460693559
0.7362580897
0.7288818885
0.7238371331
0.7208110916
0.7193696677
0.7190496156
0.7194272014
0.7201545897
0.7209757277
0.7217225287
0.7223033906
0.7226856895
0.7228779976
0.722913046
0.7228338031
0.7226832001
0.7224978612
0.7223052882
0.72212368
0.7219632335
0.7218281273
0.7217184961
0.7216321351
0.7215657211
0.7215156616
0.7214785144
0.7214512363
0.7214312819
0.7214162835
0.7214046766
0.7213944649
0.7213829933
0.7213786818
0.7213530875
0.6005302852
0.7562375085
0.8466887267
0.903211545
0.9107180365
0.90922772
0.9063095042
0.903985649
0.9008509227
0.897424599
0.893320033
0.8885884606
0.8830641288
0.8766213193
0.8691323447
0.8604787213
0.8505617593
0.8393140214
0.8267418948
0.8129649648
0.7982603133
0.7830858245
0.7680878516
0.7539768972
0.7414785998
0.7311691501
0.7233250265
0.7179567772
0.7148127718
0.7134826254
0.7134899157
0.714368784
0.7157181575
0.7172236145
0.7186643534
0.719904138
0.7208778455
0.7215737197
0.7220163459
0.7222506726
0.7223291542
0.7223023162
0.7222130691
0.7220942348
0.7219685416
0.721850014
0.721746006
0.7216592344
0.7215895443
0.7215352084
0.721493852
0.7214629493
0.7214401389
0.721423373
0.7214106464
0.7214006817
0.7213916232
0.7213809131
0.7213774295
0.7213517792
0.6008936934
0.7627043693
0.8518168175
0.895208349
0.9000633375
0.8979730007
0.8948684878
0.8922201875
0.8887334841
0.8848666807
0.880274379
0.8749702605
0.868800693
0.8616318644
0.8533440147
0.843832678
0.8330292541
0.8209169532
0.8075740484
0.7932226274
0.7782734341
0.7633037087
0.7490216912
0.7361865699
0.7253975688
0.7170816653
0.7113303762
0.7079845663
0.7066775546
0.706935421
0.7082674329
0.7102237457
0.7124358857
0.7146266789
0.7166107596
0.7182821845
0.7196001422
0.7205715709
0.7212351252
0.721646314
0.721865683
0.7219501787
0.7219480128
0.7218965083
0.7218222564
0.7217425805
0.7216676032
0.7216023192
0.721548403
0.721505567
0.7214725466
0.7214476585
0.7214291744
0.7214155116
0.7214050068
0.7213966571
0.7213887349
0.7213788827
0.7213761296
0.7213504043
0.6023434307
0.7683803449
0.8536585648
0.8874085658
0.8876832205
0.8853225428
0.8820235822
0.8790212487
0.8751583284
0.8708245353
0.8657133704
0.8598040381
0.8529541971
0.8450270335
0.8359153118
0.8255395708
0.8138791739
0.8009918854
0.7870576388
0.7724105833
0.7575808862
0.7432451237
0.7301281073
0.7189562746
0.7101663637
0.7039998232
0.7003797345
0.6990038627
0.6994259313
0.7011401452
0.7036637195
0.7065757775
0.7095459951
0.7123354432
0.7147927854
0.7168400462
0.7184582737
0.7196708929
0.7205287663
0.7210964363
0.721441286
0.7216256448
0.7217021615
0.7217119431
0.7216848578
0.7216410598
0.7215930761
0.721547904
0.7215088452
0.7214769057
0.7214518291
0.7214327039
0.7214183872
0.7214077279
0.7213993848
0.7213926162
0.7213858133
0.7213768164
0.7213747955
0.721348975
0.6056878788
0.7724615004
0.8522472374
0.8756449736
0.8739481973
0.8714070079
0.8678594901
0.8644618901
0.8601807152
0.8553328545
0.8496508659
0.843085339
0.8355083534
0.8267906892
0.8168494314
0.8056462484
0.7932225209
0.7797250978
0.7654521808
0.7508649852
0.7365796146
0.7233215991
0.7117960939
0.7025921788
0.6959928245
0.6920410246
0.6905156313
0.6910063983
0.6930210097
0.6960482885
0.6996294561
0.7033804814
0.7070113025
0.7103202419
0.7131876035
0.7155606786
0.7174398653
0.7188629556
0.7198913014
0.7205971046
0.7210534783
0.7213272284
0.7214746904
0.7215401322
0.7215561886
0.7215454328
0.7215224738
0.7214960647
0.7214709501
0.7214492963
0.721431759
0.7214181321
0.7214078119
0.7214000468
0.7213937975
0.721388571
0.7213828608
0.7213745815
0.7213734429
0.7213474967
0.6112676253
0.7745084941
0.8465268639
0.8620724003
0.8589509246
0.8561907457
0.852335661
0.8484843275
0.8437276528
0.8383081424
0.8320000086
0.8247340108
0.8164020529
0.806894819
0.7961664898
0.7842353665
0.7712204015
0.7573687967
0.7430923461
0.7289718638
0.7156769042
0.7039229633
0.6943378246
0.6873203008
0.6830066498
0.6812552717
0.6817298751
0.6839497246
0.6874053719
0.6916003707
0.6961102726
0.7005916686
0.7047944035
0.7085517928
0.7117728838
0.7144274334
0.7165327712
0.7181390972
0.7193167065
0.7201442473
0.7206995971
0.7210532547
0.7212645957
0.7213805112
0.7214359604
0.7214555764
0.7214557661
0.7214468183
0.7214347551
0.7214227812
0.7214123763
0.7214039771
0.7213974757
0.7213924886
0.7213882597
0.7213845313
0.7213798735
0.7213723725
0.7213719787
0.7213459675
0.6181971698
0.7742960963
0.8337597713
0.8464921208
0.8424571316
0.8394331188
0.835226742
0.8308856817
0.8256237298
0.8196092
0.8126593096
0.8046946776
0.7956319296
0.78539319
0.7739817465
0.7614871177
0.7481208341
0.7342392148
0.7203605626
0.7071366299
0.6952606715
0.6853781804
0.6779843683
0.6732871241
0.6712680465
0.6716374717
0.6739767463
0.6777688924
0.6825100298
0.6877322104
0.6930508808
0.6981639987
0.702859345
0.7070022749
0.7105275131
0.7134245634
0.7157254479
0.7174910116
0.7187991283
0.7197338362
0.720376944
0.7208019711
0.7210707794
0.7212324217
0.7213238006
0.721371297
0.7213928663
0.7214001388
0.721400266
0.7213973806
0.7213937056
0.7213902626
0.7213873991
0.7213850698
0.7213827846
0.7213805066
0.7213768559
0.7213701532
0.7213704786
0.7213443953
0.6238517156
0.771810659
0.8215193066
0.8289949847
0.8243599459
0.8210523976
0.816482136
0.8116417626
0.8058696252
0.7992643004
0.7916850248
0.7830536073
0.7733177776
0.7624446135
0.7505010444
0.7376625641
0.7242425711
0.7107037783
0.69764888
0.6857484545
0.6756722699
0.667946863
0.6629013712
0.6605665146
0.6607785576
0.6631411617
0.6671856072
0.6723863831
0.6782613929
0.6843794597
0.6903978818
0.6960546731
0.7011726455
0.7056459608
0.7094320096
0.7125375145
0.715007174
0.7169109238
0.7183330283
0.7193620056
0.7200828825
0.7205716257
0.7208921107
0.721095159
0.7212192878
0.7212923558
0.7213336498
0.72135597
0.7213674655
0.7213730976
0.7213757595
0.7213770048
0.7213775979
0.7213778043
0.7213773836
0.7213765051
0.7213738155
0.7213679174
0.7213688987
0.721342787
0.6282844289
0.7664924146
0.8058079557
0.8098666845
0.8048770274
0.8012220732
0.7962697885
0.7909137831
0.7846180692
0.7774218541
0.7692258018
0.7599669153
0.7496345689
0.7382560205
0.7259763749
0.713066835
0.6999417335
0.6871510209
0.6753401296
0.6651567892
0.6571895526
0.6518130168
0.6491812003
0.6491685491
0.6514940329
0.6556919189
0.6612716784
0.6677197472
0.6745861916
0.681480563
0.6881014536
0.6942243663
0.6997038072
0.7044595071
0.7084687022
0.7117530523
0.714368153
0.7163916788
0.7179132625
0.7190251237
0.7198149005
0.7203605202
0.7207274703
0.7209680059
0.7211219776
0.7212184888
0.7212779682
0.7213142354
0.7213363201
0.7213499233
0.7213585422
0.7213642136
0.7213680841
0.7213707036
0.7213720673
0.7213725345
0.7213707586
0.7213656868
0.7213672473
0.7213411551
0.6307484119
0.7584468383
0.7877330571
0.7894162142
0.7841461479
0.780067031
0.7747030884
0.7688055866
0.7619649603
0.7541782033
0.7453888108
0.7355653249
0.7247512525
0.7130476549
0.700687019
0.6880359313
0.6755943971
0.6639658952
0.6537921048
0.6456542503
0.6400144242
0.6370821714
0.6368456157
0.639053211
0.6433385686
0.6491990168
0.6561444083
0.6636869966
0.671414654
0.6789784838
0.6861162172
0.6926376253
0.6984254812
0.7034220175
0.7076217579
0.7110592823
0.7137995375
0.7159267731
0.7175351174
0.7187198299
0.7195706462
0.7201670424
0.7205757779
0.7208502566
0.7210314217
0.7211494206
0.7212256597
0.7212748456
0.7213067854
0.7213278402
0.7213420512
0.7213518944
0.7213588665
0.7213637773
0.7213668455
0.7213686021
0.7213676923
0.7213634654
0.7213655164
0.7213395091
0.6306443126
0.7440459924
0.7679773585
0.7676091163
0.7621141398
0.7575354953
0.7517341527
0.745285418
0.7379003311
0.7295552194
0.720240514
0.7099705924
0.6988538597
0.6870732311
0.6749491029
0.6629315564
0.6515789685
0.6415071731
0.6333089036
0.6274599745
0.6242687034
0.6237883005
0.6258619332
0.6301451852
0.6362173545
0.6435648089
0.6517136131
0.6602102263
0.6686824337
0.6768216143
0.6844015924
0.6912629537
0.6973134411
0.7025149841
0.7068771261
0.7104456124
0.7132934102
0.7155103516
0.7171943186
0.718443051
0.7193479478
0.7199896865
0.7204360109
0.7207412321
0.7209471809
0.7210848755
0.7211765573
0.7212377047
0.7212788104
0.7213068249
0.7213262794
0.7213400495
0.7213499517
0.7213570338
0.7213617272
0.7213647146
0.721364624
0.7213612617
0.7213637046
0.7213378568
0.6276900817
0.727490343
0.7461629052
0.7442760418
0.7385990457
0.7334941899
0.7272592312
0.7202938133
0.7124161185
0.7036022904
0.693894438
0.6833639777
0.6721911025
0.6606419902
0.6491165042
0.638126322
0.6282531574
0.6200830207
0.6141211205
0.6107105568
0.61000003
0.611907029
0.6161580219
0.6223475085
0.630027106
0.6386915732
0.6478935324
0.6572177436
0.6663315471
0.6749640636
0.682921774
0.6900726687
0.696346415
0.7017221386
0.706222424
0.7099026715
0.7128427329
0.7151371795
0.7168870194
0.7181920003
0.7191448187
0.7198270615
0.7203072143
0.7206402906
0.7208688334
0.7210245837
0.7211304943
0.7212027139
0.7212523403
0.7212868504
0.7213112169
0.7213286785
0.7213413446
0.7213504805
0.7213567209
0.7213608783
0.7213615622
0.7213590815
0.7213618084
0.7213362073
0.6216862595
0.7090389559
0.7224194503
0.7193556997
0.7135199839
0.7079245603
0.7012961182
0.6938901489
0.6856196433
0.6764776868
0.6665627703
0.656011453
0.6450780662
0.6341061147
0.6235575842
0.6139759799
0.6059283112
0.5999329623
0.5963792076
0.5954648624
0.5971942498
0.60137081
0.6076364746
0.6155522641
0.6246633261
0.634485858
0.6446050573
0.6546449628
0.6643105357
0.6733654769
0.6816454305
0.6890425924
0.6955058182
0.7010292403
0.7056467788
0.7094221987
0.7124412721
0.7148025957
0.716609774
0.7179641645
0.7189594542
0.7196778932
0.7201885048
0.7205468317
0.7207959802
0.7209682865
0.7210873078
0.7211697747
0.721227319
0.7212678877
0.7212968515
0.7213177795
0.7213330489
0.7213441242
0.7213518347
0.7213570994
0.7213585164
0.7213569304
0.721359827
0.7213345717
0.6125937682
0.6891568388
0.696959837
0.6929854218
0.6869908408
0.6809639212
0.6740030578
0.6662555357
0.6577215888
0.6484270148
0.6385298039
0.6282345427
0.6178653809
0.6078290315
0.5986244735
0.5907929932
0.5848509771
0.5812199143
0.5801572392
0.5817190745
0.5857907611
0.5920838112
0.6001865805
0.609649117
0.6200255246
0.63086134
0.6417769753
0.6524347242
0.6625743343
0.671990725
0.6805453618
0.6881517411
0.6947754984
0.7004238797
0.7051406822
0.7089969398
0.7120835281
0.7145024666
0.7163595093
0.7177572887
0.7187902237
0.7195410215
0.7200790714
0.7204602991
0.7207282475
0.7209157387
0.7210468413
0.7211387909
0.7212036905
0.7212499068
0.7212831698
0.7213073494
0.7213250672
0.721337971
0.7213470766
0.7213533836
0.721355497
0.7213548127
0.7213577589
0.7213329673
0.6006741297
0.6663653822
0.6700059468
0.6653035788
0.6591663311
0.6527806672
0.6455726404
0.6376113332
0.6289759497
0.6197378388
0.6101157699
0.6003792569
0.5909106463
0.5821588194
0.5746302814
0.5688306099
0.5651963187
0.5640337085
0.5654653916
0.5694223743
0.5756984073
0.5839353148
0.5936942485
0.6045317247
0.6160207916
0.6277404589
0.6393464588
0.65053718
0.6610839129
0.6708094847
0.6795981074
0.6873819959
0.6941414747
0.6998952798
0.7046958448
0.7086205431
0.7117646632
0.7142331382
0.7161334942
0.717569357
0.7186356605
0.719415396
0.7199781743
0.7203801814
0.7206652884
0.7208667101
0.7210089463
0.72110967
0.7211813996
0.7212328777
0.7212701579
0.7212973843
0.7213174017
0.7213320267
0.7213424538
0.7213497367
0.7213525151
0.7213527338
0.7213556034
0.721331417
0.5862635524
0.6412320713
0.6417109426
0.6364433954
0.6302059135
0.6235577067
0.6162154915
0.6082006018
0.5996608866
0.5907194857
0.5816538692
0.5727901724
0.5645512418
0.5574026308
0.5518287432
0.5482708338
0.5470656494
0.5483973918
0.5522622678
0.5584903895
0.5668073878
0.5768084436
0.5880477771
0.6001008433
0.6125650583
0.6250544638
0.6372585652
0.6489090852
0.6598055597
0.669795604
0.6787834222
0.6867176901
0.6935916226
0.6994340613
0.7043050233
0.7082874353
0.711480414
0.7139913752
0.7159292989
0.7173985668
0.7184944455
0.7193000658
0.7198851394
0.7203060087
0.7206067819
0.7208209859
0.7209734827
0.7210823233
0.7211603931
0.7212167704
0.7212578013
0.7212878797
0.7213100535
0.7213262966
0.7213379734
0.7213461643
0.721349583
0.7213506986
0.7213533649
0.7213299474
0.569462579
0.6141196836
0.6122257767
0.6065718024
0.6002940447
0.5935091473
0.5861710091
0.5782882313
0.5700696679
0.5616884471
0.5534715484
0.5457886824
0.5390825186
0.5338086273
0.5304030241
0.5292216908
0.5304917456
0.5342784751
0.5404684248
0.5488166773
0.5589986847
0.5705867332
0.5831417499
0.5962659866
0.6095834725
0.6227430381
0.6354655685
0.647513082
0.6587102243
0.6689265501
0.6780838371
0.6861452693
0.6931154167
0.6990320509
0.7039618807
0.7079927202
0.711227019
0.7137743109
0.7157447605
0.7172433054
0.7183653925
0.7191941713
0.7197993534
0.7202373507
0.7205524314
0.7207783661
0.7209403186
0.7210566668
0.7211406196
0.7212015559
0.7212460856
0.7212788304
0.7213030236
0.7213207859
0.7213336419
0.7213426722
0.7213467139
0.7213487099
0.7213510595
0.7213285855
0.5505116115
0.585331698
0.5820939871
0.5758492854
0.5696202944
0.5628656671
0.5557076347
0.5481676834
0.5405115349
0.5329612248
0.5258793912
0.5196613075
0.5147485443
0.5115621699
0.5104689104
0.5117271416
0.5154536771
0.5216057638
0.5299812138
0.5402830021
0.55215324
0.5651601781
0.578880289
0.5929467742
0.6070106748
0.6207540719
0.6339264907
0.6463171937
0.6577730531
0.6681830204
0.6774843481
0.6856530514
0.6927037503
0.6986821477
0.7036608885
0.7077321082
0.7110011692
0.7135794127
0.7155779599
0.7171021355
0.718247439
0.719096938
0.7197202605
0.7201738151
0.7205019648
0.7207386656
0.7209093312
0.7210326213
0.7211220303
0.7211872058
0.7212349965
0.7212702315
0.7212963126
0.7213154995
0.721329465
0.7213392665
0.7213439211
0.7213467678
0.7213487222
0.7213272957
0.529520979
0.5550788479
0.550316417
0.5445629361
0.538469476
0.5319137983
0.5251278444
0.5181525511
0.5113019423
0.5048419603
0.4991585016
0.4946508336
0.4917387175
0.490788666
0.4920837825
0.4957807923
0.5018928286
0.5102847793
0.5206871845
0.5327700222
0.546158718
0.5604288614
0.5751784877
0.5900732205
0.6047904121
0.6190430319
0.6326064163
0.6452941907
0.6569728499
0.6675485043
0.6769720711
0.6852309607
0.6923487321
0.6983781697
0.7033972114
0.7075018315
0.7107999453
0.7134044367
0.7154271891
0.7169737718
0.7181396302
0.7190076665
0.7196473558
0.7201150432
0.7204551316
0.7207017127
0.7208804054
0.7210101119
0.7211045782
0.7211736927
0.7212245197
0.7212620772
0.7212899205
0.7213104419
0.7213254482
0.7213359535
0.7213412182
0.7213448716
0.7213463728
0.7213260668
0.5065956118
0.5237280259
0.5186600619
0.5129348256
0.5071198432
0.5009341714
0.4947148918
0.488526271
0.4827196994
0.4775892759
0.4735333253
0.4709354222
0.470174212
0.4715472121
0.4752465623
0.4813301775
0.489719072
0.5002034684
0.5124665805
0.5261614951
0.5409101036
0.5563020926
0.5719607691
0.5875840343
0.6028738519
0.6175714426
0.6314752401
0.644420583
0.6562912882
0.6670086767
0.6765357805
0.6848701786
0.692043424
0.6981146579
0.7031665619
0.7072985353
0.710620738
0.713247369
0.7152909089
0.7168570509
0.7180410975
0.7189257169
0.7195801747
0.7200607026
0.7204116979
0.7206673458
0.7208534319
0.7209890665
0.7210882176
0.7211609892
0.7212146403
0.7212543612
0.7212838468
0.7213056171
0.7213215954
0.7213327401
0.7213386179
0.7213430219
0.7213440234
0.7213249126
0.4817943334
0.4917361281
0.4866951203
0.4812295452
0.475836347
0.470204036
0.4647465031
0.4595568087
0.4550124226
0.4514214913
0.4491798433
0.4486395009
0.4501223633
0.4538480795
0.4599168102
0.4682954554
0.4788272265
0.491245308
0.5052031493
0.5203500999
0.5363131078
0.5527000842
0.5691615952
0.5854267405
0.6012193801
0.6163065909
0.6305073724
0.6436763652
0.6557127079
0.666551243
0.6761657943
0.6845630593
0.6917817785
0.6978868289
0.7029651641
0.7071192509
0.710461227
0.7131064108
0.7151677375
0.7167509232
0.717951053
0.7188505056
0.7195182905
0.720010486
0.7203714456
0.7206354128
0.7208283067
0.7209694158
0.7210729039
0.7211490679
0.7212053433
0.7212470766
0.7212780902
0.7213010283
0.7213179102
0.7213296335
0.7213361314
0.7213412201
0.721341683
0.7213238448
0.4557215692
0.4594934367
0.4548356153
0.4497373704
0.4449077535
0.4400035811
0.43549065
0.4314906852
0.428394753
0.4265151198
0.4262275629
0.4278398696
0.4316062897
0.4376647848
0.4460275284
0.4565812823
0.46910677
0.4832963851
0.498788645
0.5152389546
0.5322844246
0.5495534046
0.5667246785
0.5835563717
0.5997913511
0.6152204279
0.6296807969
0.6430442451
0.6552234972
0.6661654537
0.6758535982
0.6843028421
0.691558422
0.6976904143
0.7027896357
0.7069613095
0.7103193199
0.7129799337
0.7150564198
0.7166544312
0.7178687747
0.718781495
0.719461308
0.7199641068
0.7203341699
0.7206057697
0.7208049304
0.7209510927
0.7210585932
0.7211379015
0.7211966129
0.7212402155
0.721272649
0.7212966777
0.7213143948
0.7213266418
0.7213337685
0.7213394656
0.7213393694
0.721322887
0.4285729617
0.4274002842
0.4233190511
0.41872577
0.4145963481
0.4105797084
0.4071738619
0.4045262402
0.4030300527
0.4029909872
0.4047500698
0.4085613543
0.4146046696
0.422936602
0.4334887825
0.4460802062
0.4604442567
0.4762466415
0.4931228309
0.5107404723
0.5287501665
0.5468015562
0.5646015962
0.5819339989
0.5985590167
0.6142887468
0.6289764602
0.6425091987
0.6548117732
0.6658418764
0.6755916821
0.6840835331
0.6913685683
0.6975215958
0.7026369395
0.7068223068
0.7101931248
0.7128664611
0.7149558136
0.7165667002
0.7177936005
0.7187181889
0.7194088609
0.7199212978
0.7202996789
0.7205782805
0.7207832083
0.7209340328
0.7210452427
0.7211274629
0.7211884332
0.7212337697
0.7212675206
0.7212925668
0.7213110508
0.7213237737
0.7213315372
0.721337755
0.7213371123
0.7213220482
0.400670164
0.3958178498
0.3924249241
0.3884598623
0.3851482158
0.3821541324
0.3799887745
0.378821648
0.3790377147
0.3809253525
0.3847798019
0.3907934908
0.3990691084
0.4095850437
0.4222019746
0.4366841468
0.4527317134
0.469995421
0.4881162911
0.5067777142
0.5256463647
0.5443927223
0.5627507669
0.5805261179
0.5974959459
0.6134906513
0.6283778209
0.6420580981
0.6544670809
0.665572156
0.6753733488
0.6838997564
0.6912079021
0.6973769155
0.7025043143
0.7067000486
0.7100809098
0.7127646361
0.7148648653
0.7164869202
0.7177249141
0.7186601239
0.7193606047
0.7198818062
0.720267789
0.7205528141
0.7207630483
0.7209181723
0.7210328095
0.7211177243
0.721180787
0.7212277298
0.7212627018
0.7212886958
0.721307879
0.721321039
0.7213294433