/*--------------------------------*- C++ -*----------------------------------*\
  =========                 |
  \\      /  F ield         | OpenFOAM: The Open Source CFD Toolbox
   \\    /   O peration     | Website:  https://openfoam.org
    \\  /    A nd           | Version:  12
     \\/     M anipulation  |
\*---------------------------------------------------------------------------*/
FoamFile
{
    format      ascii;
    class       surfaceScalarField;
    location    "300";
    object      phi;
}
// * * * * * * * * * * * * * * * * * * * * * * * * * * * * * * * * * * * * * //

dimensions      [1 0 -1 0 0 0 0];

internalField   nonuniform List<scalar> 
32120
(
-0.000645881192
-0.04614190569
0.04678778689
-0.001462180909
-0.0655395734
0.06635587505
-0.002471997038
-0.08518470804
0.0861945255
-0.00369101484
-0.1082147329
0.1094337521
-0.005052271896
-0.1365130105
0.1378742692
-0.006363415722
-0.1724063793
0.1737175256
-0.007570988686
-0.218639741
0.2198473178
-0.01038985144
-0.2753191826
0.2781380516
-0.01771293169
-0.3345818472
0.341904937
-0.02784316112
-0.3990799245
0.4092101672
-0.03994622008
-0.4750237647
0.4871268406
-0.05431341127
-0.5655031582
0.5798703698
-0.07139232897
-0.6730927287
0.6901716704
-0.09169972891
-0.8011941384
0.8215015661
-0.115842484
-0.9536206432
0.9777634303
-0.1445490166
-1.135031943
1.163738512
-0.1786797379
-1.350862084
1.384992846
-0.2192643374
-1.607625148
1.648209793
-0.2675267708
-1.913007872
1.961270355
-0.3249342922
-2.276153477
2.333561053
-0.3932368987
-2.707857278
2.776159942
-0.4745325882
-3.220862498
3.302158249
-0.5713415205
-3.830204277
3.927013268
-0.6867011872
-4.553578279
4.66893801
-0.8242873538
-5.411731771
5.549317989
-0.9885585956
-6.428957125
6.593228424
-1.184927726
-7.633652353
7.830021517
-1.419943414
-9.059015536
9.294031255
-1.701455171
-10.74397972
11.0254915
-2.038726293
-12.73452466
13.07179585
-2.442470858
-15.0855084
15.48925304
-2.924846944
-17.86307695
18.34545315
-3.499523659
-21.14756433
21.72224119
-4.18193736
-25.03670094
25.71911476
-4.989846205
-29.64900594
30.45691491
-5.94407701
-35.12742944
36.08166037
-7.069397912
-41.64346252
42.76878355
-8.395277219
-49.40198592
50.72786541
-9.956512208
-58.64713087
60.20836597
-11.79362082
-69.66939059
71.50649944
-13.95306023
-82.81431308
84.97375256
-16.487217
-98.49310475
101.0272618
-19.4540837
-117.1955399
120.1624066
-22.91643311
-139.5056403
142.9679899
-26.94013165
-166.1206264
170.1443248
-31.5911231
-197.8738646
202.5248562
-36.93032763
-235.7625841
241.1017886
-43.00544118
-280.9815077
287.0566214
-49.83809845
-334.9637439
341.7964012
-57.40426434
-399.4307168
406.9968828
-65.60472682
-476.4533921
484.6538545
-74.22124988
-568.5277055
577.1442287
-82.852003
-678.668016
687.2987691
-90.81712996
-810.5234763
818.4886033
-97.02155913
-968.5239854
974.7284146
-99.75614635
-1158.063913
1160.7985
-96.4118074
-1385.736568
1382.392229
-83.06621924
-1659.63912
1646.293532
-53.89397447
-1989.73026
1960.558016
-2388.405554
2334.8325
-0.0005724344503
-0.04556947035
-0.001306836845
-0.06480516915
-0.002207423649
-0.08428411974
-0.003276249747
-0.1071459051
-0.004446561205
-0.1353426967
-0.005551384792
-0.1713015523
-0.006633595207
-0.217557525
-0.0103374619
-0.2716153071
-0.01753003207
-0.3273892643
-0.02653716095
-0.3900727792
-0.03725271139
-0.4643081944
-0.05000719843
-0.5527486478
-0.06518318278
-0.6579167172
-0.08324786056
-0.7831294293
-0.1047481621
-0.932120306
-0.1303432063
-1.109436859
-0.1608104865
-1.320394758
-0.1970825389
-1.571353045
-0.2402694506
-1.869820906
-0.2917023091
-2.224720559
-0.3529718595
-2.646587667
-0.425993171
-3.147841121
-0.5130829204
-3.743114468
-0.6170530367
-4.449608096
-0.7413300681
-5.287454691
-0.8900984023
-6.280188736
-1.068466642
-7.455284083
-1.282634732
-8.844847404
-1.540028953
-10.48658541
-1.84935609
-12.42519741
-2.220559615
-14.7143047
-2.664743735
-17.41889252
-3.194201185
-20.61810669
-3.82267592
-24.4082257
-4.565926234
-28.90575554
-5.442473245
-34.25088158
-6.474446075
-40.61148969
-7.688303078
-48.18812764
-9.115436477
-57.21999759
-10.79253288
-67.99229275
-12.76178874
-80.84505743
-15.07087518
-96.18401716
-17.77264186
-114.4937737
-20.9243315
-136.3539502
-24.58604099
-162.458917
-28.81796888
-193.6419362
-33.67578851
-230.9047642
-39.20320015
-275.4540956
-45.4202971
-328.7466466
-52.30577663
-392.545237
-59.77017789
-468.9889904
-67.6160958
-560.6817874
-75.47961682
-670.8044946
-82.74462125
-803.2584715
-88.41827832
-962.8503281
-90.95064741
-1155.531543
-87.97511247
-1388.712104
-75.93365457
-1671.680579
-49.54095511
-2016.122961
-2436.928748
-0.000453947425
-0.04511552175
-0.001021282714
-0.06423783149
-0.001700875549
-0.08360452496
-0.002462890055
-0.1063838884
-0.003198913116
-0.1346066706
-0.003765026621
-0.170735434
-0.004460526683
-0.2168620172
-0.008373505403
-0.2677023166
-0.01495058846
-0.320812165
-0.02298495608
-0.382038391
-0.03253915601
-0.4547539698
-0.04391102773
-0.5413767474
-0.05744156709
-0.6443861448
-0.07354861718
-0.7670223413
-0.09271881922
-0.9129500611
-0.1155416119
-1.086614018
-0.1427121633
-1.293224154
-0.1750671042
-1.538998047
-0.213606341
-1.831281608
-0.2595368925
-2.178789943
-0.3143118591
-2.591812638
-0.3796936409
-3.082459272
-0.4578295
-3.664978554
-0.551344457
-4.356093079
-0.6634598568
-5.175339254
-0.7981406797
-6.145507871
-0.9602565121
-7.29316824
-1.155726795
-8.649377106
-1.391597679
-10.25071451
-1.676012018
-12.14078301
-2.018085741
-14.37223092
-2.427794769
-17.00918336
-2.916026962
-20.12987444
-3.494905847
-23.82934663
-4.17838514
-28.22227623
-4.982992203
-33.44627425
-5.928596745
-39.66588516
-7.039068969
-47.07765506
-8.342808669
-55.91625794
-9.873082589
-66.46201845
-11.66821829
-79.04992185
-13.77157779
-94.08065737
-16.23128589
-112.0340658
-19.09950814
-133.4857278
-22.43105545
-159.1273698
-26.28087607
-189.7921154
-30.69986583
-226.4857745
-35.72811887
-270.4258424
-41.38439079
-323.0903747
-47.64998093
-386.2796468
-54.44448913
-462.1944823
-61.58976978
-553.5365067
-68.75683818
-663.6374263
-75.38823277
-796.6270769
-80.58512073
-957.6534403
-82.94383953
-1153.172825
-80.32048761
-1391.335456
-69.49146086
-1682.509606
-45.66724382
-2039.947178
-2480.798169
-0.0003518912377
-0.04476362926
-0.0007783129485
-0.06381140723
-0.001272816735
-0.08311001905
-0.001768512586
-0.1058881901
-0.002099625006
-0.1342755547
-0.002146245092
-0.1706888085
-0.002973472955
-0.2160347807
-0.006990133674
-0.263685643
-0.012910475
-0.3148918064
-0.02001576594
-0.3749330788
-0.02846406792
-0.4463056426
-0.03852323665
-0.5313175493
-0.05049253546
-0.6324168122
-0.06474452676
-0.7527703114
-0.08171217441
-0.8959823698
-0.101923386
-1.066402757
-0.1260030594
-1.269144427
-0.1547068578
-1.51029419
-0.1889424702
-1.797045936
-0.2298119132
-2.137920436
-0.2786491049
-2.542975385
-0.3370799644
-3.024028348
-0.4070994942
-3.594958973
-0.4911704101
-4.272022107
-0.592350598
-5.074159037
-0.7144421715
-6.023416269
-0.8621354604
-7.145474943
-1.041106312
-8.470406259
-1.25801564
-10.03380517
-1.520392105
-11.8784065
-1.836451497
-14.05617147
-2.214996718
-16.63063806
-2.665541612
-19.67932949
-3.198717623
-23.29617051
-3.826893403
-27.59410041
-4.564880817
-32.70828667
-5.430608101
-38.80015784
-6.445691489
-46.06257145
-7.635885635
-54.72606379
-9.031389653
-65.06651417
-10.667027
-77.41428455
-12.58223347
-92.16545071
-14.82081468
-109.7954847
-17.43029742
-130.8762449
-20.4606634
-156.0970039
-23.96208005
-186.2906987
-27.98111048
-222.4667441
-32.55460792
-265.8523449
-37.70018626
-317.9447964
-43.40164164
-380.5781913
-49.58701869
-456.0091052
-56.09599466
-547.0275307
-62.63181625
-657.1016047
-68.69106804
-790.5678251
-73.46141658
-952.8830918
-75.67369929
-1150.960542
-73.3887061
-1393.620449
-63.69004519
-1692.208267
-42.24356816
-2061.393655
-2520.37287
-0.0002542510743
-0.04450937659
-0.0005327982578
-0.06353285744
-0.0008293034671
-0.08281351156
-0.001051362054
-0.1056661287
-0.00098588004
-0.1343410327
-0.0005093045156
-0.1711653777
-0.001663104873
-0.2148809705
-0.005539905007
-0.2598088288
-0.01076661396
-0.3096650792
-0.01700266133
-0.3686970094
-0.02442379298
-0.4388844851
-0.03326630152
-0.5224750109
-0.04379512763
-0.6218879519
-0.05634356308
-0.7402218372
-0.07129832452
-0.8810275651
-0.08913313946
-1.048567894
-0.1104102691
-1.247867246
-0.1358109631
-1.48489344
-0.1661560608
-1.766700781
-0.2024458462
-2.10163059
-0.2459014921
-2.499519684
-0.298027883
-2.971901897
-0.3607012136
-3.532285598
-0.4362746167
-4.196448654
-0.5277058837
-4.982727747
-0.6386941389
-5.912427994
-0.7737887376
-7.01038034
-0.9384211228
-8.305773879
-1.138819071
-9.833407211
-1.381814788
-11.63541074
-1.674648203
-13.763338
-2.024930532
-16.28035565
-2.440875765
-19.26338419
-2.931785304
-22.80526088
-3.508669973
-27.01721568
-4.184885601
-32.03207093
-4.976697929
-38.00834546
-5.903757368
-45.13551184
-6.98947457
-53.64034655
-8.261296904
-63.79469165
-9.750874658
-75.92470679
-11.49407074
-90.42225449
-13.53075065
-107.7588048
-15.90420724
-128.5027882
-18.66001967
-153.3411915
-21.84400984
-183.1067084
-25.49882039
-218.8119336
-29.6584056
-261.6927596
-34.33942559
-313.2637764
-39.52808757
-375.3895293
-45.1603285
-450.3768643
-51.09235306
-541.0955061
-57.05722633
-651.1367315
-62.60134106
-785.0237104
-66.99208017
-948.4923527
-69.08405835
-1148.868564
-67.12635985
-1395.578148
-58.48501959
-1700.849607
-39.24440331
-2080.634271
-2555.977949
-0.0001687960083
-0.04434057889
-0.0003069035209
-0.06339474722
-0.000408194841
-0.08271221782
-0.0003556438892
-0.1057186767
7.537122613e-05
-0.1347720435
0.0008510142318
-0.1719410138
-0.0006061975231
-0.2134237482
-0.004145733311
-0.2562692784
-0.008736304854
-0.3050744893
-0.01420423652
-0.3632290557
-0.02071389303
-0.4323748031
-0.02847492096
-0.5147139536
-0.03771946866
-0.6126433706
-0.048743437
-0.7291978309
-0.06188913929
-0.8678818206
-0.07757731994
-1.032879667
-0.09630940236
-1.229135114
-0.1186955842
-1.462507205
-0.1454780197
-1.739918292
-0.1775715622
-2.069536991
-0.2161105754
-2.460980621
-0.2625202318
-2.925492187
-0.3186087522
-3.476197039
-0.3866731092
-4.128384254
-0.4696160275
-4.899784811
-0.5710592172
-5.810984791
-0.6954081139
-6.886031438
-0.8478092625
-8.153372723
-1.033976639
-9.647239813
-1.259954055
-11.40943327
-1.531954042
-13.49133795
-1.856430614
-15.95587901
-2.240426226
-18.87938852
-2.692106927
-22.35358011
-3.221348997
-26.48797355
-3.840280284
-31.41313956
-4.563734012
-37.28489168
-5.409631125
-44.28961461
-6.399292142
-52.65068549
-7.557687559
-62.6362961
-8.913595927
-74.5687984
-10.49963401
-88.83621631
-12.3520815
-105.9063574
-14.5103766
-126.3444931
-17.01609881
-150.8354693
-19.9111311
-180.2116761
-23.23458311
-215.4884815
-27.01783058
-257.9095121
-31.27676717
-309.0048398
-35.99994011
-370.6663563
-41.13069731
-445.2461071
-46.54061514
-535.6855883
-51.99033914
-645.6870075
-57.07231379
-779.9417357
-61.12742812
-944.4372384
-63.12433481
-1146.871657
-61.48549569
-1397.216987
-53.83680489
-1708.498298
-36.64759184
-2097.823484
-2587.907206
-9.439329448e-05
-0.04424618408
-0.0001040756079
-0.06338506272
-1.462199926e-05
-0.08280166939
0.0003307471758
-0.1060640433
0.001165006672
-0.1356062991
0.001871457625
-0.1726474587
0.0002137158604
-0.2117659975
-0.00305542625
-0.2530001244
-0.007057609615
-0.3010722913
-0.0118234662
-0.3584631818
-0.01749559026
-0.4267026589
-0.02425850412
-0.5079510165
-0.03231337695
-0.6045884714
-0.04191911187
-0.7195920662
-0.05337637169
-0.8564245279
-0.0670569142
-1.019199089
-0.08340984945
-1.21278214
-0.1029898258
-1.442927187
-0.1264812955
-1.716426781
-0.1547463147
-2.041271927
-0.1888708478
-2.426856048
-0.2302347079
-2.884128283
-0.2806065528
-3.425825165
-0.3422511237
-4.066739649
-0.4180362486
-4.823999673
-0.5115117094
-5.717509328
-0.6269130215
-6.770630116
-0.76903357
-8.011252158
-0.9429757266
-9.473297618
-1.153914636
-11.1984943
-1.407031007
-13.23822151
-1.707716957
-15.65519298
-2.062016966
-18.52508844
-2.477168522
-21.93842849
-2.962118532
-26.00302348
-3.527957272
-30.84730075
-4.188270061
-36.62457884
-4.959440505
-43.51844407
-5.860913449
-51.7492125
-6.915421973
-61.58178747
-8.149145268
-73.33507508
-9.591753554
-87.39360795
-11.27627108
-104.2218398
-13.2386395
-124.3821246
-15.5168125
-148.5572963
-18.14911715
-177.5793714
-21.1714943
-212.4661044
-24.61304845
-254.4679579
-28.48908379
-305.1288044
-32.79044705
-366.364993
-37.46746491
-440.5690892
-42.40604571
-530.7470075
-47.39244264
-640.7006106
-52.06169168
-775.2724867
-55.82257178
-940.6763584
-57.74896333
-1144.945266
-56.42310148
-1398.542849
-49.71024143
-1715.211158
-34.43413274
-2113.099593
-2616.425542
-3.182419647e-05
-0.04421435837
7.106082032e-05
-0.06348794557
0.0003479366423
-0.08307854316
0.0009926547911
-0.1067087588
0.002239064597
-0.1368527049
0.002656444173
-0.1730648321
0.0007566429772
-0.2098661876
-0.002135030362
-0.2501084397
-0.005555206274
-0.2976521015
-0.009635989083
-0.3543823827
-0.01449771876
-0.4218409105
-0.020302207
-0.5021465069
-0.02722491442
-0.5976657398
-0.03549394255
-0.711323011
-0.04537704942
-0.8465413913
-0.05720779978
-1.007368306
-0.07139626133
-1.198593645
-0.08845547222
-1.42586794
-0.1090301977
-1.69585202
-0.133947456
-2.01635463
-0.1642647968
-2.396538676
-0.2013377837
-2.84705526
-0.2469157127
-3.380247214
-0.3032501651
-4.010405171
-0.3731910245
-4.754058803
-0.460211942
-5.630488409
-0.568325353
-6.662516693
-0.7018730868
-7.877704394
-0.8652441904
-9.30992647
-1.062701997
-11.00103643
-1.298453968
-13.00246947
-1.576981518
-15.37666537
-1.903529107
-18.19854079
-2.284603089
-21.55735445
-2.728393179
-25.55923334
-3.245102482
-30.33059139
-3.847212432
-36.02246884
-4.549725176
-42.81593125
-5.370390698
-50.92854693
-6.329918175
-60.62225992
-7.452131343
-72.21286187
-8.764033539
-86.08170569
-10.29570054
-102.6901728
-12.07991023
-122.5979149
-14.15134408
-146.4858624
-16.54513272
-175.1855827
-19.29439366
-209.7168434
-22.42624954
-251.336102
-25.95559745
-301.5994565
-29.87555332
-362.4450371
-34.14305415
-436.3015884
-38.65741596
-526.2326456
-43.22870142
-636.1293251
-47.53144411
-770.969744
-51.03723613
-937.1705664
-52.91714548
-1143.065356
-51.90088145
-1399.559113
-46.07439922
-1721.03764
-32.58807333
-2126.585919
-2641.77119
2.10558546e-05
-0.04423541312
0.0002352546429
-0.06370214251
0.0007141919466
-0.08355747871
0.001662924427
-0.107657489
0.003183848021
-0.1383736251
0.003314095323
-0.1731950744
0.001456368782
-0.208008454
-0.0009700059916
-0.2476820559
-0.003853063907
-0.2947690327
-0.007299974637
-0.3509354593
-0.01141214941
-0.417728721
-0.01633341775
-0.4972252217
-0.02222112419
-0.5917780143
-0.02928252866
-0.7042615851
-0.03776312122
-0.8380607752
-0.04796867573
-0.9971627252
-0.0602799898
-1.186282303
-0.07517828464
-1.410969615
-0.09327346948
-1.677756807
-0.1153580652
-1.994270003
-0.1424697415
-2.369426975
-0.1759701443
-2.813554828
-0.2176310584
-3.338586285
-0.2697205709
-3.958315641
-0.335070374
-4.688708988
-0.4170383985
-5.548520379
-0.5193218155
-6.56023326
-0.6456933174
-7.751332855
-0.7997524542
-9.155867279
-0.984870095
-10.81591873
-1.204403965
-12.78293553
-1.462112745
-15.11895652
-1.762636939
-17.89801654
-2.111920339
-21.20807099
-2.517529365
-25.15362426
-2.988892148
-29.85922855
-3.537497968
-35.47386298
-4.177096354
-42.1763328
-4.923899638
-50.18174361
-5.796782095
-59.74937739
-6.817438246
-71.19220569
-8.010459124
-84.88868476
-9.403260286
-101.2973716
-11.025767
-120.9754081
-12.90972172
-144.6019077
-15.08739747
-173.0079069
-17.58941305
-207.2148278
-20.44119088
-248.4843241
-23.65739622
-298.3832511
-27.23341134
-358.869022
-31.13246532
-432.4025344
-35.26645856
-522.0986524
-39.46767277
-631.9281109
-43.44732281
-766.9900939
-46.7352301
-933.8826591
-48.59238631
-1141.2082
-47.8848033
-1400.266696
-42.90219207
-1726.020251
-31.09631445
-2138.391797
-2664.157634
6.631030479e-05
-0.04430172236
0.0004011837143
-0.06403701395
0.001099376732
-0.08425566985
0.002377999098
-0.1089361089
0.003900324455
-0.1398959468
0.003464312813
-0.1727590574
0.001850868705
-0.2063950028
-0.000164488858
-0.2456666895
-0.002550162952
-0.292383348
-0.005413315446
-0.3480722943
-0.008840546768
-0.4143014754
-0.01296006376
-0.4931056884
-0.01791378138
-0.5868242784
-0.02389000543
-0.6982853406
-0.03111420427
-0.8308365542
-0.03987250796
-0.9884043972
-0.05052747439
-1.175627312
-0.06354471681
-1.397952345
-0.07951437162
-1.661787128
-0.0992118608
-1.974572486
-0.1236725233
-2.344966293
-0.1542865671
-2.782940762
-0.1928840162
-3.299988826
-0.2417686808
-3.909430969
-0.3037173186
-4.62676034
-0.381883371
-5.470354317
-0.4795312102
-6.462585397
-0.5997629481
-7.631101076
-0.7453714888
-9.010258685
-0.9189269378
-10.64236322
-1.123109088
-12.57875332
-1.361149518
-14.88091603
-1.637256422
-17.62190958
-1.956940402
-20.88838697
-2.327239876
-24.78332474
-2.756889914
-29.42957847
-3.256475809
-34.97427705
-3.838604108
-41.59420444
-4.518088778
-49.50225891
-5.312142835
-58.95532327
-6.240537131
-70.26381136
-7.325689655
-83.8035322
-8.592622167
-100.0304391
-10.06870175
-119.4993285
-11.78304178
-142.8875676
-13.76537908
-171.0255696
-16.0441448
-204.936062
-18.64332707
-245.8851418
-21.57754197
-295.4490362
-24.8444484
-355.6021155
-28.41330008
-428.8336827
-32.20786462
-518.3040878
-36.08120284
-628.0547727
-39.77870721
-763.2925896
-42.8842794
-930.7770869
-44.74228848
-1139.350191
-44.34488559
-1400.664099
-40.17021662
-1730.19492
-29.94849168
-2148.613522
-2683.775438
0.0001104262589
-0.04441214758
0.0005714793528
-0.06449806504
0.001481293698
-0.08516548225
0.003077577536
-0.1105323902
0.004381815471
-0.141200181
0.003660072052
-0.1720373088
0.002238830825
-0.2049737547
0.0005634301033
-0.2439912802
-0.001433598833
-0.2903863089
-0.003838342724
-0.3456675386
-0.006723586206
-0.4114162184
-0.01019905685
-0.4896302024
-0.0143851553
-0.5826381628
-0.01944206639
-0.6932284104
-0.02556978758
-0.8247088125
-0.0330512811
-0.9809228814
-0.04223494135
-1.166443629
-0.05357878342
-1.386608479
-0.06770108158
-1.647664808
-0.08541951721
-1.956854027
-0.1078043393
-2.322581455
-0.1362711436
-2.75447394
-0.1726899597
-3.263570003
-0.2193870826
-3.862733844
-0.279020961
-4.567126453
-0.3544199718
-5.394955286
-0.4483045793
-6.368700761
-0.5630592431
-7.51634637
-0.7007266215
-8.872591251
-0.8632267929
-10.47986298
-1.052752283
-12.38922777
-1.272184184
-14.66148407
-1.525430628
-17.36866308
-1.817657929
-20.59615962
-2.155440255
-24.44554237
-2.546879261
-29.03813942
-3.001729623
-34.51942665
-3.531552126
-41.06438189
-4.149890256
-48.88392075
-4.872454394
-58.23275908
-5.717283912
-69.41898182
-6.704845898
-82.81597018
-7.858018409
-98.87726656
-9.201884348
-118.1554626
-10.76322437
-141.3262276
-12.56954016
-169.2192538
-14.64736949
-202.8582326
-17.0195297
-243.5129816
-19.7007646
-292.7678012
-22.69104487
-352.6118352
-25.96542788
-425.5592996
-29.45891637
-514.8105993
-33.0440883
-624.4696007
-36.49826595
-759.8384119
-39.45569379
-927.8196591
-41.3381875
-1137.467697
-41.25490329
-1400.747383
-37.85850513
-1733.591318
-29.13686577
-2157.335161
-2700.793849
0.0001547499204
-0.0445668963
0.0007497359172
-0.06509304867
0.001863414215
-0.0862791582
0.003657554597
-0.1123265274
0.004608569284
-0.1421511912
0.003864564581
-0.171293298
0.002683198495
-0.2037923809
0.001270968417
-0.2425790407
-0.0004078157759
-0.2887075136
-0.002426363116
-0.3436489784
-0.004847051643
-0.4089955151
-0.007765333404
-0.486711904
-0.01128972916
-0.5791137488
-0.01556783664
-0.688950283
-0.0207919986
-0.8194846295
-0.02721724976
-0.9744976078
-0.03518411488
-1.158476742
-0.04514937595
-1.376643195
-0.05779232373
-1.635021841
-0.07398965302
-1.940656677
-0.09490419432
-2.301666901
-0.1219984336
-2.727379687
-0.1571287908
-3.228439639
-0.2025766874
-3.817285945
-0.2607987203
-4.508904413
-0.334179485
-5.321574503
-0.4248242252
-6.278055989
-0.5344243941
-7.406746159
-0.6643938243
-8.74262177
-0.8161831444
-10.32807361
-0.9916774893
-12.21373337
-1.193546448
-14.45961505
-1.425487639
-17.13672185
-1.692377564
-20.32926965
-2.000367021
-24.13755288
-2.356970967
-28.68153544
-2.771177706
-34.10521989
-3.253592585
-40.58196697
-3.816607219
-48.32090609
-4.474579297
-57.57478696
-5.243994901
-68.64956619
-6.143577134
-81.91638791
-7.194296168
-97.8265475
-8.419210186
-116.9305485
-9.84304223
-139.9023955
-11.49134767
-167.5709483
-13.38905501
-200.9605252
-15.55806067
-241.3439759
-18.01342149
-290.3124404
-20.75747005
-349.8677867
-23.770893
-422.5458767
-26.99939243
-511.5820999
-30.33392854
-621.1350646
-33.58175341
-756.590587
-36.42412828
-924.9772843
-38.35497119
-1135.536854
-38.5921838
-1400.51017
-35.95036214
-1736.23314
-28.65623197
-2164.629291
-2715.362191
0.0002137550278
-0.04478065011
0.0009703017311
-0.0658495933
0.002333145225
-0.08764199954
0.004159306218
-0.1141526856
0.004452449834
-0.1424443308
0.003733808863
-0.1705746517
0.002825475024
-0.2028840404
0.001742931794
-0.2414964895
0.0004428336348
-0.2874074061
-0.001139007484
-0.3420671264
-0.003061858257
-0.4070726521
-0.005416688289
-0.4843570602
-0.008312115069
-0.5762183069
-0.01189718801
-0.6853651935
-0.0163680188
-0.8150137813
-0.02197186573
-0.9688937422
-0.02906280367
-1.151385786
-0.03812685532
-1.367579124
-0.04981830239
-1.623330379
-0.06504363281
-1.92543133
-0.08509664515
-2.28161388
-0.1115461708
-2.700930153
-0.1462105328
-3.193775269
-0.191197644
-3.772298827
-0.2486561315
-4.451445915
-0.3204488851
-5.249781727
-0.4080536499
-6.190451193
-0.5125607374
-7.302239031
-0.6349166963
-8.62026576
-0.7762827824
-10.18670747
-0.9383833502
-12.05163275
-1.123771323
-14.27422703
-1.335985506
-16.92450762
-1.579642035
-20.08561308
-1.86049608
-23.8566988
-2.185515715
-28.35651576
-2.562983948
-33.72775163
-3.002636396
-40.14231448
-3.515825204
-47.80771726
-4.115696595
-56.97491553
-4.817350491
-67.94791227
-5.637962966
-81.09577541
-6.596815312
-96.86769514
-7.715184343
-115.8121795
-9.015999969
-138.6015798
-10.52314493
-166.0638034
-12.26020881
-199.2234613
-14.24841544
-239.3557692
-16.50332053
-288.0575353
-19.02968889
-347.3414183
-21.81370708
-419.7618585
-24.81130889
-508.584498
-27.93087236
-618.0155011
-31.00779987
-753.5136595
-33.76736457
-922.2177196
-35.77082303
-1133.533396
-36.33736755
-1399.943626
-34.43219468
-1738.138313
-28.50387244
-2170.557613
-2727.611203
0.0002745114562
-0.0450551601
0.001200489936
-0.06677556927
0.002817126085
-0.08925863304
0.00453740261
-0.1158729586
0.004542864719
-0.1424497882
0.003992887214
-0.1700246681
0.003313343511
-0.2022044892
0.002489149642
-0.2406722867
0.00148207552
-0.2864003216
0.0002339265742
-0.3408189656
-0.001310845284
-0.4055278669
-0.00323869287
-0.4824291979
-0.005656526033
-0.5738004579
-0.008712239607
-0.682309463
-0.01260453216
-0.8111214717
-0.0176041842
-0.9638940724
-0.02409025592
-1.144899698
-0.03259195133
-1.359077412
-0.04380480649
-1.612117511
-0.05870195234
-1.910534171
-0.07853269263
-2.261783132
-0.1049912725
-2.674471568
-0.1398751932
-3.158891343
-0.1849794556
-3.727194559
-0.2420363033
-4.394389057
-0.3123691253
-5.179448886
-0.3968787071
-6.10594158
-0.49619385
-7.20292385
-0.6109677927
-8.505491772
-0.7422255435
-10.05544967
-0.8916338205
-11.90222442
-1.061682633
-14.10417817
-1.255775878
-16.73041433
-1.478283917
-19.86310501
-1.734587995
-23.60039469
-2.031147907
-28.05995582
-2.375600756
-33.38329876
-2.776895912
-39.74101928
-3.245454832
-47.33915832
-3.793343767
-56.42702656
-4.434437076
-67.30681894
-5.184546089
-80.34566637
-6.061471948
-95.99076926
-7.084942926
-114.7887085
-8.276343451
-137.4101793
-9.658146545
-164.6820003
-11.25286487
-197.628743
-13.08129329
-237.5273408
-15.15967648
-285.979152
-17.49530167
-345.0057931
-20.07976537
-417.1773947
-22.87885283
-505.7854105
-25.81751628
-615.0768377
-28.75772222
-750.5734535
-31.46613317
-919.5093086
-33.56704433
-1131.432485
-34.47426192
-1399.036408
-33.29338468
-1739.31919
-28.67945816
-2175.17154
-2737.654136
0.0003380184902
-0.0453931775
0.001433165962
-0.06787071491
0.003192768845
-0.09101823395
0.004623723358
-0.1173039105
0.004555893734
-0.1423819552
0.004108231885
-0.1695770019
0.003576249251
-0.2016725014
0.002926364747
-0.2400223961
0.002129602734
-0.2856035524
0.001133696284
-0.3398230509
-0.0001148672969
-0.404279294
-0.001698751756
-0.480845303
-0.003727824443
-0.5717713739
-0.006357386347
-0.6796798888
-0.009805228462
-0.8076736169
-0.0143741598
-0.9593251275
-0.02048593528
-1.13878791
-0.02871414651
-1.350849187
-0.0398463814
-1.600985266
-0.05492926015
-1.895451281
-0.0752277896
-2.241484596
-0.1022885145
-2.647410839
-0.1378813774
-3.123298471
-0.183429462
-3.681646461
-0.2401729347
-4.337645568
-0.3089260228
-5.110695775
-0.3901210618
-6.024746511
-0.4840881036
-7.108956773
-0.5913449291
-8.398234902
-0.7128916469
-9.933902905
-0.8503974719
-11.76471855
-1.006311758
-13.94826384
-1.183910043
-16.55281601
-1.387325544
-19.65968948
-1.621586752
-23.36613346
-1.892684237
-27.78885831
-2.207669687
-33.0683133
-2.574787799
-39.37390114
-3.003633183
-46.91031292
-3.505319447
-55.92534026
-4.092646151
-66.71949222
-4.78023292
-79.65807958
-5.584600853
-95.18640131
-6.524144778
-113.8491646
-7.618946232
-136.3153778
-8.890318638
-163.4106278
-10.35995377
-196.1591078
-12.04845558
-235.838839
-13.97295692
-284.0546507
-16.14337595
-342.835374
-18.55667104
-414.7640996
-21.18817552
-503.153906
-23.97867426
-612.2863389
-26.81536071
-747.7367671
-29.50390937
-916.82076
-31.72786758
-1129.208526
-32.98967837
-1397.774598
-32.52616241
-1739.782706
-29.18506008
-2178.512642
-2745.587781
0.0004515182078
-0.0458446944
0.001723590366
-0.06914278462
0.003489060754
-0.09278370173
0.004268154267
-0.1180830007
0.004102072506
-0.1422158691
0.003792894013
-0.1692678181
0.00343092677
-0.2013105277
0.002970933787
-0.2395623956
0.002388719586
-0.2850213296
0.001633205519
-0.3390675272
0.0006475836549
-0.4032936614
-0.0006546802733
-0.4795430274
-0.002391645406
-0.5700343965
-0.004730244721
-0.6773412766
-0.007913809128
-0.8044900399
-0.01229228534
-0.9549466383
-0.01833793351
-1.132742251
-0.02669039408
-1.342496715
-0.03818736254
-1.589488288
-0.05390725357
-1.87973138
-0.07517638742
-2.220215454
-0.1033615227
-2.619225698
-0.13992059
-3.0867394
-0.1859842094
-3.635582834
-0.2422683899
-4.281361375
-0.3091493646
-5.043814783
-0.3867437385
-5.947152109
-0.4752376131
-7.020462866
-0.5751342286
-8.298338247
-0.6874758467
-9.821561247
-0.8139590618
-11.6382353
-0.9569953618
-13.8052275
-1.119731018
-16.39008032
-1.306069758
-19.47335071
-1.520710884
-23.15149231
-1.769217726
-27.54035144
-2.058117097
-32.77941391
-2.395029539
-39.03698867
-2.788823088
-46.51651936
-3.249781678
-55.46438164
-3.789770912
-66.17950297
-4.422386815
-79.02546366
-5.163055395
-94.44573271
-6.02905167
-112.9831683
-7.039379995
-135.3050495
-8.214439232
-162.2355686
-9.575349304
-194.7981977
-11.1427629
-234.2714253
-12.93490387
-282.2625097
-14.96445049
-340.8058274
-17.23371643
-412.4948337
-19.7273372
-500.6602853
-22.40134287
-609.6123333
-25.16695072
-744.9711592
-27.86681409
-914.1208966
-30.24033394
-1126.835007
-31.87328406
-1396.141648
-32.12551439
-1739.530476
-30.02504726
-2180.61311
-2751.493359
0.0006315962581
-0.04647628975
0.002056152067
-0.07056733833
0.003742645583
-0.09447019305
0.004242044787
-0.1185823971
0.004136166714
-0.1421099875
0.003931370206
-0.1690630173
0.003686288969
-0.2010654413
0.003349932131
-0.2392260327
0.002895999699
-0.2845673902
0.002271339345
-0.338442859
0.001413049775
-0.4024353631
0.0002264652149
-0.4783564332
-0.001420516913
-0.5683874041
-0.003714753206
-0.6750470293
-0.006923645982
-0.8012811363
-0.01141909651
-0.9504511766
-0.0177261605
-1.126435177
-0.0265742512
-1.333648614
-0.03886905681
-1.577193474
-0.05568840827
-1.862912019
-0.07827547524
-2.197628375
-0.107871929
-2.589629233
-0.1454580259
-3.049153291
-0.1918797482
-3.589161096
-0.2473808481
-4.225860258
-0.3120172956
-4.979178315
-0.3857490491
-5.873420328
-0.4687400675
-6.937471819
-0.5615553942
-8.205522883
-0.665309301
-9.717807302
-0.7817282618
-11.5218163
-0.9131785886
-13.67377714
-1.062675397
-16.24058348
-1.233904063
-19.30212202
-1.431261732
-22.95413462
-1.659928726
-27.31168442
-1.925968449
-32.51337418
-2.236456616
-38.72650048
-2.599632123
-46.15334384
-3.025065293
-55.03894845
-3.523825632
-65.68074262
-4.108643381
-78.44064589
-4.794030324
-93.76034576
-5.596341808
-112.1808568
-6.533727482
-134.3676638
-7.625907726
-161.1433883
-8.893675472
-193.53043
-10.35797261
-232.8071282
-12.03832686
-280.5821554
-13.95032482
-338.8938294
-16.10166638
-410.3434921
-18.48612625
-498.2758254
-21.07447087
-607.0239886
-23.80095062
-742.2446795
-26.54339512
-911.3784521
-29.09410973
-1124.284292
-31.11747679
-1394.11828
-32.08906052
-1738.558892
-31.20612127
-2181.496049
-2755.437297
0.0008532590184
-0.04732954744
0.002343883311
-0.07205796004
0.003869599598
-0.09599590658
0.004301475935
-0.1190142701
0.004197221365
-0.1420057287
0.004039466339
-0.1689052571
0.003841726459
-0.2008676954
0.003553647201
-0.2389379465
0.003146371589
-0.2841601068
0.002563576281
-0.3378600549
0.001733501756
-0.4016052791
0.0005494042945
-0.4771723256
-0.001141063073
-0.5666969263
-0.003555547138
-0.6726325345
-0.007001507193
-0.797835166
-0.01189806274
-0.9455546106
-0.01882365175
-1.119509579
-0.02853382717
-1.323938428
-0.04200240098
-1.563724891
-0.06027228033
-1.84464213
-0.08442897196
-2.173471673
-0.1154550749
-2.55860312
-0.1539573697
-3.01065099
-0.200391576
-3.542726882
-0.2546904046
-4.171561416
-0.3167241405
-4.917144563
-0.3864227001
-5.803721743
-0.464009222
-6.85988527
-0.5501480761
-8.119383997
-0.6460300436
-9.621925301
-0.753401548
-11.41444477
-0.8745749404
-13.55260371
-1.012435227
-16.10272317
-1.170464872
-19.14409235
-1.352789824
-22.77180965
-1.564253701
-27.10022053
-1.810518756
-32.26710911
-2.098193385
-38.43882582
-2.434982486
-45.81655473
-2.829853825
-54.64407709
-3.293214843
-65.21738159
-3.837079806
-77.89678091
-4.47521982
-93.12220573
-5.223266238
-111.4328103
-6.098728265
-133.4922017