/*--------------------------------*- C++ -*----------------------------------*\
  =========                 |
  \\      /  F ield         | OpenFOAM: The Open Source CFD Toolbox
   \\    /   O peration     | Website:  https://openfoam.org
    \\  /    A nd           | Version:  12
     \\/     M anipulation  |
\*---------------------------------------------------------------------------*/
FoamFile
{
    format      ascii;
    class       volVectorField;
    location    "300";
    object      U;
}
// * * * * * * * * * * * * * * * * * * * * * * * * * * * * * * * * * * * * * //

dimensions      [0 1 -1 0 0 0 0];

internalField   nonuniform List<vector> 
16200
(
(180.1453324 -7.354904509e-17 -1.470872939)
(214.6656702 3.557321939e-17 -1.392985872)
(234.0349569 -2.473583446e-20 -1.562397672)
(249.2254239 0 -1.728371344)
(263.2400958 0 -1.9095542)
(277.7214871 -2.518456091e-17 -2.127400251)
(292.9362876 2.880874761e-17 -2.426833545)
(305.5582043 6.247313871e-17 -2.795448867)
(309.6434728 -1.221279845e-16 -2.944038071)
(309.7019767 1.095786021e-16 -2.933646383)
(309.3872615 -4.68181881e-17 -3.008072147)
(309.0977902 0 -3.001138374)
(308.7379608 0 -3.088400383)
(308.3397804 -5.461929227e-17 -3.112451418)
(307.8673442 4.560886956e-17 -3.202533671)
(307.3272963 0 -3.266187616)
(306.6983004 0 -3.370228975)
(305.9703426 8.371152373e-19 -3.474860463)
(305.1235933 4.529091304e-17 -3.607919392)
(304.1392984 -3.678495553e-17 -3.756465783)
(302.9941671 0 -3.930234408)
(301.6632195 -2.540435336e-17 -4.12550317)
(300.1194808 2.274182381e-17 -4.343498536)
(298.3345082 3.869945571e-17 -4.579755363)
(296.2804647 -3.25203163e-17 -4.827471786)
(293.9334925 -2.780250493e-17 -5.073889989)
(291.2779053 2.338546488e-17 -5.299837181)
(288.3125301 0 -5.478483048)
(285.0582131 0 -5.576576313)
(281.564822 5.838573225e-17 -5.558614283)
(277.9143628 -3.681930862e-17 -5.395124506)
(274.2162189 -1.057985881e-17 -5.073003396)
(270.5938673 0 -4.603402341)
(267.1662322 -4.645603294e-17 -4.022512418)
(264.0308342 5.218243629e-17 -3.383636207)
(261.2533107 -8.957978275e-17 -2.744149691)
(258.8653451 7.552779529e-17 -2.15267388)
(256.868464 0 -1.641128513)
(255.2407767 0 -1.223143001)
(253.9448936 0 -0.8972575217)
(252.934744 7.774947175e-17 -0.6525562293)
(252.1621101 -1.312670102e-16 -0.4739083921)
(251.580641 1.104474693e-16 -0.3459580672)
(251.1491086 0 -0.2552171541)
(250.8324279 1.569042677e-16 -0.190967043)
(250.6021686 -1.320127723e-16 -0.1451900132)
(250.4358991 -3.673853262e-20 -0.1121700085)
(250.3164969 1.871936992e-16 -0.08794674245)
(250.2310672 -3.153883063e-16 -0.06983021601)
(250.1701227 2.656440028e-16 -0.05600445417)
(250.1267089 2.23928706e-16 -0.04524390377)
(250.0957708 3.777716162e-16 -0.03671446838)
(250.0736849 -3.188532264e-16 -0.02984304374)
(250.0577547 8.082496239e-16 -0.02422874015)
(250.046203 -4.557997841e-16 -0.01959063655)
(250.0372158 0 -0.01574193957)
(250.0305864 1.63851337e-16 -0.01245504483)
(250.0241533 0 -0.009944716184)
(250.0201135 -4.753408579e-16 -0.006284132681)
(250.0124484 -3.971129506e-19 -0.008010145784)
(183.505237 -1.554700255e-16 -4.0627464)
(218.9327161 1.522135609e-16 -4.303300845)
(238.7914597 -5.500944234e-17 -4.782932612)
(254.3883604 -4.917451426e-17 -5.158489492)
(268.8912355 5.050278937e-17 -5.535135867)
(283.9861486 0 -5.96102371)
(299.3739186 0 -6.496450666)
(309.9075002 6.746725993e-17 -6.937700746)
(312.201372 -6.338540815e-17 -7.051326707)
(312.0908254 0 -7.02640578)
(311.7545944 0 -7.114562256)
(311.4436051 0 -7.096773568)
(311.0571422 -6.775041384e-17 -7.189556858)
(310.6283751 5.655957244e-17 -7.206948317)
(310.1175357 -1.452534607e-18 -7.295775907)
(309.5313414 -1.21756639e-18 -7.353144499)
(308.8465019 0 -7.450284079)
(308.0515653 -2.581710019e-18 -7.544758513)
(307.1247512 0 -7.664071025)
(306.0451933 1.208002649e-18 -7.794409941)
(304.7873924 4.100531246e-18 -7.943977424)
(303.3240118 -2.957526199e-17 -8.107735888)
(301.6261149 -1.783379854e-17 -8.284441724)
(299.6638882 3.953061182e-17 -8.466648826)
(297.4092114 0 -8.643418582)
(294.8399055 7.129170771e-18 -8.796917047)
(291.9450011 -1.212544671e-17 -8.901839118)
(288.7323336 0 -8.924730535)
(285.2369446 -3.541273153e-17 -8.82642408)
(281.5272802 1.47973643e-17 -8.568445051)
(277.7048104 -3.851599163e-17 -8.123865891)
(273.893652 1.095085552e-17 -7.488933154)
(270.2220846 -3.74667719e-17 -6.689786082)
(266.8021948 -1.594546245e-17 -5.77988609)
(263.7156715 0 -4.82841421)
(261.0085837 4.638280733e-17 -3.904653383)
(258.6950595 -3.910061589e-17 -3.064400913)
(256.7639932 0 -2.342487905)
(255.1874106 1.126911845e-16 -1.752116725)
(253.9265385 -9.523536517e-17 -1.289061647)
(252.9375855 8.039906776e-17 -0.9381315739)
(252.1756042 2.712354255e-16 -0.679214147)
(251.5978968 -1.141101434e-16 -0.4918995692)
(251.1660306 0 -0.3580461456)
(250.8470486 4.857540307e-16 -0.262943845)
(250.6137996 -5.448054505e-16 -0.1953372235)
(250.4446132 -3.437495071e-16 -0.1469988844)
(250.3226866 3.855658833e-16 -0.1120862035)
(250.2352477 0 -0.08653699311)
(250.1727806 -2.728461267e-16 -0.06755106688)
(250.1282644 2.295699523e-16 -0.05321222907)
(250.0965742 5.796801334e-16 -0.04220017686)
(250.0739902 3.253897166e-16 -0.03360672136)
(250.0577843 -2.740797407e-16 -0.02678882172)
(250.0460432 9.240042215e-16 -0.02131901598)
(250.0370658 -7.793132928e-16 -0.01686897129)
(250.0303146 -4.933772289e-16 -0.01318274438)
(250.0240221 5.558572872e-16 -0.01043148208)
(250.0199247 1.058111648e-15 -0.006448351869)
(250.011931 9.803894407e-17 -0.008112280906)
(186.780592 -1.60746747e-19 -6.723885509)
(223.1199082 1.634052212e-16 -7.452350344)
(243.4771101 -2.385427402e-16 -8.226225084)
(259.510139 1.080660599e-16 -8.83690554)
(274.5495359 1.129090298e-16 -9.440295373)
(290.2155172 -2.543351696e-16 -10.11119431)
(305.3997569 2.828361947e-16 -10.89919807)
(313.2378481 3.68400583e-19 -11.32823663)
(314.2470916 -2.677711946e-16 -11.42271868)
(314.012934 1.169987664e-16 -11.37898406)
(313.6561727 0 -11.47600872)
(313.3192119 8.038336751e-17 -11.44232783)
(312.898436 -6.704629952e-17 -11.5347039)
(312.4305137 -2.670586365e-18 -11.54071607)
(311.871987 4.930401661e-17 -11.62179494)
(311.2293859 3.850329636e-18 -11.66763038)
(310.4774836 -3.356980786e-17 -11.75177373)
(309.6032132 1.771385023e-18 -11.83085366)
(308.5828033 -4.76404389e-17 -11.93114226)
(307.3931638 3.744445962e-17 -12.03841746)
(306.0065749 -1.73476388e-20 -12.15858697)
(304.3934054 -2.148986181e-17 -12.28469026)
(302.5228872 1.798594349e-17 -12.41205809)
(300.3641266 0 -12.52930982)
(297.8893092 -4.346254002e-17 -12.62027861)
(295.0792165 7.182597785e-18 -12.66077877)
(291.9300531 3.770334889e-17 -12.61799916)
(288.4626138 2.173698892e-17 -12.45087584)
(284.7310341 1.872574426e-17 -12.11482491)
(280.8265793 -1.521252873e-17 -11.5714254)
(276.8717848 1.633649434e-19 -10.80180506)
(273.0032986 -4.55071241e-17 -9.818059688)
(269.3488431 3.871269498e-17 -8.666439432)
(266.0071698 -9.940578196e-17 -7.419607417)
(263.0384633 2.799059081e-17 -6.161026178)
(260.46573 0 -4.967854786)
(258.2836 -8.124800459e-17 -3.898288641)
(256.4679882 -6.891495171e-17 -2.985919122)
(254.9846175 -1.850495373e-20 -2.24074494)
(253.7938357 4.923470903e-17 -1.654458714)
(252.8544264 -8.285683451e-17 -1.207421222)
(252.1255441 -6.990220712e-17 -0.8750533686)
(251.568852 2.355371068e-16 -0.6326597132)
(251.149672 2.975105885e-16 -0.4582165393)
(250.8380011 -1.667417935e-16 -0.3336446582)
(250.6087607 2.805171816e-16 -0.2449091916)
(250.4416718 5.894154182e-16 -0.1815735063)
(250.3207837 -3.9627395e-16 -0.1360962588)
(250.2338459 6.659090009e-16 -0.1031483761)
(250.171618 -2.797291363e-16 -0.07900290811)
(250.1272308 -4.699562663e-16 -0.0610771485)
(250.0956382 1.973537284e-16 -0.04757733439)
(250.0731435 -6.630959061e-16 -0.03726221815)
(250.0570539 0 -0.02925095313)
(250.0454069 -1.871201527e-15 -0.02296131746)
(250.0365983 7.858476329e-16 -0.0179298714)
(250.0298963 3.300436176e-16 -0.01385712298)
(250.0237871 -1.38614843e-16 -0.01087466294)
(250.0198178 -9.315477845e-16 -0.006591368329)
(250.0119011 0 -0.008204015799)
(189.8074023 -3.478805974e-16 -9.494256437)
(226.9730809 -1.711642005e-19 -10.808041)
(247.8039339 0 -11.87158739)
(264.3264573 1.164172898e-19 -12.73945481)
(279.9899981 -1.267397971e-16 -13.59632757)
(296.1021536 1.428884046e-16 -14.53829228)
(310.2960922 -3.030425576e-19 -15.51954875)
(315.4398954 -6.044249659e-19 -15.84317961)
(315.6945865 1.083566637e-18 -15.93049814)
(315.4218404 1.182020816e-16 -15.86495379)
(315.0408863 -9.975385204e-17 -15.97222108)
(314.6746861 1.305494318e-18 -15.92406797)
(314.2166626 -6.969810549e-17 -16.01605797)
(313.7057664 6.005981609e-17 -16.0124466)
(313.0949656 4.890851802e-17 -16.08608628)
(312.3901943 -4.350038368e-17 -16.1215316)
(311.5642946 -4.296717952e-18 -16.19267414)
(310.6023592 0 -16.25589921)
(309.4786127 0 -16.33514163)
(308.1677091 0 -16.41554957)
(306.6397547 -3.912343835e-17 -16.50013605)
(304.8628508 1.454037549e-17 -16.57971055)
(302.8044955 3.730135263e-17 -16.64586434)
(300.4331863 -2.092052721e-17 -16.68277343)
(297.7227373 2.678950003e-17 -16.66814363)
(294.6595913 1.517020524e-17 -16.570179)
(291.2514394 -2.60118939e-17 -16.3475236)
(287.5374493 2.189918191e-17 -15.95173432)
(283.5958209 -1.880804847e-17 -15.33540802)
(279.542886 -2.630955127e-19 -14.46532085)
(275.5199345 2.73199992e-17 -13.33707789)
(271.6694278 4.693499622e-17 -11.98398706)
(268.1097708 0 -10.4746636)
(264.9186823 6.828767112e-17 -8.899627287)
(262.1302599 0 -7.352704543)
(259.7431368 0 -5.91417492)
(257.7333333 2.095648488e-16 -4.64039349)
(256.0656071 3.53849121e-17 -3.560701508)
(254.7011086 2.401510285e-16 -2.68022815)
(253.6007281 5.072813059e-17 -1.986026547)
(252.7267714 5.557367343e-16 -1.454219696)
(252.043287 -2.161032139e-16 -1.056379998)
(251.5169042 -1.213225559e-16 -0.7642841237)
(251.1172971 -9.182534033e-16 -0.5527418194)
(250.8179194 -1.348469734e-19 -0.4008983444)
(250.5962206 7.20646736e-16 -0.2923836382)
(250.4336904 6.0535774e-16 -0.2148637909)
(250.3155345 -1.118075684e-15 -0.1593074703)
(250.2302425 -5.118532971e-16 -0.1192496011)
(250.1690231 2.862952099e-16 -0.09011808515)
(250.125279 -1.20047702e-15 -0.06871180406)
(250.0941203 0 -0.05279205824)
(250.071937 1.349529046e-15 -0.04079998682)
(250.0560984 1.130447498e-15 -0.03162766007)
(250.0446414 9.464433633e-16 -0.02454033258)
(250.0360426 0 -0.01894729046)
(250.0294383 6.621750959e-16 -0.01449704299)
(250.0235015 6.915462962e-17 -0.0112953762)
(250.0196496 -2.078028932e-15 -0.006734070022)
(250.011706 3.174846942e-15 -0.008288323925)
(192.5965751 -7.368180097e-16 -12.42204655)
(230.5642166 3.765798109e-16 -14.34380831)
(251.8545762 -1.41443073e-16 -15.71780208)
(268.900234 -5.565593513e-22 -16.86779112)
(285.2612217 0 -18.00885403)
(301.7044392 3.136141983e-19 -19.24829404)
(313.6342477 2.725455021e-21 -20.29356889)
(316.7380849 0 -20.48165508)
(316.631509 -2.248059746e-18 -20.58054422)
(316.3361536 -1.21037352e-16 -20.49268614)
(315.9248866 1.017685557e-16 -20.60896272)
(315.524498 0 -20.54673499)
(315.0235826 -7.343140764e-17 -20.63622956)
(314.4630775 -1.990357275e-18 -20.62245204)
(313.7927162 4.678192432e-17 -20.68566669)
(313.0174407 -8.402141761e-17 -20.70792298)
(312.108248 7.479455826e-17 -20.76138249)
(311.048118 3.706063481e-18 -20.80315919)
(309.8090965 0 -20.85419744)
(308.3632149 4.227300595e-17 -20.89933011)
(306.6780471 -4.438173364e-17 -20.93858345)
(304.7192134 3.775282864e-17 -20.96026479)
(302.4528041 -3.813684143e-17 -20.95130984)
(299.8480829 0 -20.88978964)
(296.8833401 -1.837223496e-17 -20.74528174)
(293.5551619 0 -20.47675919)
(289.8884853 2.68783644e-17 -20.03404204)
(285.9466554 -2.263334263e-17 -19.36330476)
(281.8356957 0 -18.41916484)
(277.6963995 0 -17.18061927)
(273.6828834 0 -15.66469763)
(269.9338573 0 -13.93013496)
(266.5487254 0 -12.06802849)
(263.5774309 1.063584249e-16 -10.18334433)
(261.0253563 -1.50352622e-16 -8.375122166)
(258.8673933 1.021596934e-16 -6.72166712)
(257.0633461 -1.726821929e-16 -5.273520046)
(255.5694261 -1.829917696e-16 -4.053225426)
(254.344348 -9.244725985e-17 -3.059781689)
(253.3509402 -1.563129136e-16 -2.275300395)
(252.5558641 -5.712750905e-16 -1.672000786)
(251.9285708 -2.96117151e-16 -1.218273407)
(251.4410157 4.362636121e-16 -0.8831490255)
(251.0675649 8.382501054e-16 -0.6390123986)
(250.785448 -7.044028054e-16 -0.4628628276)
(250.5749654 -7.393805944e-16 -0.336482893)
(250.4196556 -8.687704406e-16 -0.2459966741)
(250.3061319 1.041071563e-15 -0.1811303529)
(250.2238212 1.221968413e-15 -0.1344472463)
(250.1645388 -1.462754581e-16 -0.1006364814)
(250.1220762 1.347351298e-15 -0.07594583497)
(250.0917846 -1.845092227e-15 -0.05773368614)
(250.070206 -2.914484981e-15 -0.04414908282)
(250.054809 -1.00271995e-15 -0.03387393098)
(250.043673 0 -0.02602877959)
(250.0353544 1.595141989e-15 -0.01990479232)
(250.0289159 -4.980914536e-16 -0.01509466456)
(250.0231625 -2.070580897e-16 -0.01168583787)
(250.0194693 1.83298346e-15 -0.006871115798)
(250.0115424 -3.034127198e-15 -0.008365306981)
(195.1269816 1.900838055e-19 -15.49539571)
(233.9034671 0 -18.05856277)
(255.6557635 1.507821806e-19 -19.76318726)
(273.2406626 -1.446753022e-19 -21.22087197)
(290.2852892 -3.125319219e-19 -22.6763753)
(306.7804078 0 -24.21432927)
(315.8394678 7.09935719e-19 -25.17734839)
(317.3989543 -1.32313234e-18 -25.23815606)
(317.0821327 1.15462992e-18 -25.34962857)
(316.7677805 -9.730355075e-19 -25.23822838)
(316.3213668 0 -25.35984297)
(315.8824625 8.685862293e-17 -25.28202114)
(315.3339417 -7.255859482e-17 -25.36402315)
(314.7179136 6.285028191e-17 -25.33712346)
(313.9811901 -5.09956906e-17 -25.38476762)
(313.1270414 5.36241685e-18 -25.38943942)
(312.1244213 0 -25.41987008)
(310.9535823 -6.469140401e-17 -25.43487071)
(309.5839266 5.106971378e-17 -25.45179991)
(307.9844515 -1.08191562e-17 -25.45487387)
(306.120234 9.131045785e-18 -25.44010329)
(303.9552434 0 -25.39175163)
(301.4560641 0 -25.29023176)
(298.5958445 0 -25.10560839)
(295.3616428 0 -24.79795247)
(291.7655511 -6.498351254e-17 -24.31676618)
(287.8556753 -3.326314676e-19 -23.60480446)
(283.7243332 -2.364671125e-17 -22.60730082)
(279.5063352 2.190047797e-19 -21.28788236)
(275.3621553 1.711972669e-17 -19.64564635)
(271.4488515 -2.965301898e-17 -17.72489341)
(267.8897518 1.26075693e-16 -15.61124885)
(264.7560169 -8.607828508e-17 -13.41529938)
(262.0652553 -7.283236949e-17 -11.25085072)
(259.7941339 1.237466351e-16 -9.216209495)
(257.8966087 -1.049517995e-16 -7.382946474)
(256.3200431 0 -5.792700024)
(255.0154528 -1.884974184e-16 -4.459611549)
(253.9415531 -2.861178461e-16 -3.376009109)
(253.0645453 1.071175069e-16 -2.519195764)
(252.3561827 8.713586185e-20 -1.85801329)
(251.7916283 2.65973276e-16 -1.358377991)
(251.3483 -5.112965954e-16 -0.9873278917)
(251.0053524 4.298995705e-16 -0.7155206641)
(250.7438984 1.443724599e-15 -0.5184036772)
(250.5472263 1.514820668e-16 -0.3763824644)
(250.4010656 -1.269892968e-16 -0.2743915299)
(250.2935782 0 -0.2011674993)
(250.2152516 -1.604884209e-15 -0.1484767246)
(250.1586116 1.492235265e-16 -0.1103869647)
(250.1179186 2.246334481e-15 -0.08267212043)
(250.0888275 3.127807495e-15 -0.06233774927)
(250.0680783 4.176609897e-15 -0.04727281437)
(250.0532689 0 -0.03597005778)
(250.0425525 0 -0.02741737636)
(250.0345678 -1.605630057e-15 -0.02079857526)
(250.0283426 1.664876439e-16 -0.01565023469)
(250.0227792 -2.756081654e-16 -0.01204726476)
(250.0192601 -1.820454965e-15 -0.007003521844)
(250.0113372 -5.849452637e-18 -0.008436533139)
(197.3968965 -2.016639263e-19 -18.71019155)
(237.0131317 2.180176069e-16 -21.9462286)
(259.2488162 -3.388331736e-16 -24.00771394)
(277.4292246 1.645995545e-16 -25.80319712)
(295.0854272 3.511953356e-19 -27.6087963)
(310.863513 1.928223571e-16 -29.36848059)
(317.0202915 -1.922564857e-16 -30.13693936)
(317.6088322 1.372260702e-18 -30.09099154)
(317.07699 -1.497600496e-16 -30.21034001)
(316.7391466 1.265285164e-16 -30.07274686)
(316.2525818 -1.652869501e-18 -30.19602168)
(315.768678 0 -30.10287142)
(315.1650386 2.707712422e-22 -30.17416798)
(314.4838954 -3.885810587e-18 -30.13341018)
(313.6694145 3.261417262e-18 -30.16297423)
(312.7224394 3.29678033e-17 -30.14841378)
(311.6097812 -3.682262482e-17 -30.15324262)
(310.3086774 0 -30.13817891)
(308.7860205 6.571190791e-18 -30.11575354)
(307.0083024 -3.341598288e-17 -30.06829206)
(304.9392216 3.734924539e-17 -29.9860666)
(302.542891 1.59441275e-17 -29.84756931)
(299.7889675 0 -29.62558958)
(296.6580146 -2.304612398e-17 -29.28166521)
(293.1504449 0 -28.76643726)
(289.2993551 -2.93689355e-19 -28.02096744)
(285.1814943 2.840605047e-17 -26.98423152)
(280.9211124 4.858587071e-17 -25.60699428)
(276.6790514 -4.156815979e-17 -23.87034679)
(272.626242 0 -21.80088614)
(268.9099349 0 -19.47348314)
(265.6264559 7.495140749e-19 -16.99866848)
(262.8118325 -5.389879957e-19 -14.50071195)
(260.4499826 3.773152637e-17 -12.09535437)
(258.4915243 -1.597310753e-16 -9.87434123)
(256.8739071 -2.708052384e-17 -7.898657089)
(255.5364895 2.059262128e-16 -6.199047617)
(254.428539 -2.71159439e-16 -4.780569687)
(253.5110383 2.606653249e-16 -3.628964057)
(252.7547647 2.755540166e-17 -2.717197452)
(252.1370674 -9.253850353e-17 -2.011387249)
(251.6389135 3.890613419e-17 -1.475685529)
(251.2431227 6.549542792e-17 -1.075835305)
(250.9335522 -9.347908389e-16 -0.7813989197)
(250.6951531 -7.385276706e-16 -0.5668104882)
(250.514208 0 -0.4115318016)
(250.3786804 1.03838184e-15 -0.2996400666)
(250.2783466 0 -0.2191270742)
(250.204825 0 -0.161136212)
(250.1514182 0 -0.119234207)
(250.1129122 -4.190146999e-15 -0.08880277614)
(250.0853112 -1.588665108e-15 -0.06654908825)
(250.0655892 -2.823192886e-15 -0.05013800161)
(250.0514987 -2.494925928e-15 -0.03789701806)
(250.0412898 -1.827752771e-15 -0.02869609142)
(250.0336892 0 -0.02162356361)
(250.0277195 0 -0.01616255726)
(250.0223551 1.376026056e-16 -0.01237859264)
(250.01903 1.809381637e-15 -0.007130724257)
(250.0111155 -1.156403445e-17 -0.008502155264)
(199.346431 2.135106081e-19 -22.09285984)
(239.8392047 0 -25.99187221)
(262.6101997 1.814579599e-19 -28.45704417)
(281.4805249 -1.188091409e-22 -30.6264905)
(299.6716047 -1.99670197e-16 -32.82662156)
(313.4648615 2.099784118e-16 -34.62122406)
(317.3345916 0 -35.14508171)
(317.0544554 0 -35.0215475)
(316.5939618 1.528325587e-16 -35.15613958)
(316.224613 2.000862078e-19 -34.9964997)
(315.6904307 -1.076103976e-16 -35.11971578)
(315.1520823 0 -35.01345652)
(314.4827211 2.361039267e-18 -35.0722379)
(313.7236114 6.748761475e-17 -35.0175177)
(312.8167924 -5.653299399e-17 -35.02611333)
(311.7602349 5.598787679e-18 -34.98853271)
(310.5189479 -4.730444714e-18 -34.96120739)
(309.0674453 7.980720946e-18 -34.90658182)
(307.3708453 -5.392057624e-17 -34.83133406)
(305.3941293 -3.624999627e-19 -34.71507643)
(303.1008391 8.668342606e-17 -34.54167552)
(300.4567182 -4.878770488e-17 -34.28289367)
(297.4366789 0 -33.9030453)
(294.0323784 -2.403709667e-19 -33.35469955)
(290.2632054 2.00200435e-17 -32.57964774)
(286.1897462 3.430554334e-17 -31.51279589)
(281.9220252 0 -30.09452114)
(277.6158348 0 -28.28960641)
(273.4504555 -2.171720895e-17 -26.10568576)
(269.5939693 1.831749672e-17 -23.60222651)
(266.1699848 0 -20.88417264)
(263.2383019 -1.338829828e-16 -18.08141846)
(260.7965687 1.365834868e-16 -15.32412843)
(258.7970648 -1.929278432e-17 -12.72285914)
(257.1692273 -5.197570516e-19 -10.35789983)
(255.8393796 -2.224314611e-16 -8.277104276)
(254.7434073 -4.458027208e-16 -6.499510391)
(253.832001 4.149410762e-16 -5.021255605)
(253.070304 -3.335310075e-17 -3.822085921)
(252.434557 0 -2.8713502)
(251.90796 -4.739387245e-17 -2.133161625)
(251.4771867 -5.977257995e-16 -1.570584687)
(251.1302396 0 -1.148686731)
(250.8554538 0 -0.8364814215)
(250.6414528 -7.545629728e-16 -0.607855316)
(250.4774155 0 -0.4417059023)
(250.3534992 -9.26914653e-16 -0.3215500686)
(250.2610931 1.662193379e-15 -0.2348584944)
(250.1929676 -9.263629728e-17 -0.172314894)
(250.1432328 -2.39790242e-15 -0.1271007435)
(250.1072312 2.19341127e-15 -0.09428614437)
(250.0813452 -3.546250084e-15 -0.07033488258)
(250.0628062 0 -0.05272492749)
(250.0495394 2.37350242e-15 -0.03964369237)
(250.0399083 5.897885721e-15 -0.0298592842)
(250.0327328 0 -0.02237707837)
(250.0270521 1.673188109e-16 -0.01663150491)
(250.0218945 -1.374314601e-16 -0.01267973932)
(250.0187777 1.79963049e-15 -0.007252680219)
(250.0108689 5.871415626e-15 -0.008562604153)
(200.8485451 -9.271292782e-16 -25.60181508)
(242.2531833 2.539692333e-16 -30.18312178)
(265.6697912 -1.99594849e-19 -33.10122151)
(285.2856559 3.991890197e-19 -35.68615849)
(303.7086004 4.262884846e-19 -38.29479518)
(314.7179553 -2.219572493e-16 -39.8858405)
(316.3152214 2.07881007e-16 -40.19712096)
(316.0897381 0 -40.03000065)
(315.5721487 1.557411201e-16 -40.19096009)
(315.1627494 2.282258471e-19 -40.00934971)
(314.5751575 -1.079332391e-16 -40.12825889)
(313.9748423 0 -40.00883421)
(313.231787 2.416107864e-18 -40.05043834)
(312.3852607 0 -39.97808106)
(311.3758516 -1.513430034e-20 -39.95862672)
(310.1982806 0 -39.88879184)
(308.8159929 -3.877061127e-17 -39.81637407)
(307.2008526 -1.635559933e-19 -39.70532857)
(305.3164976 2.058086476e-17 -39.55611047)
(303.1269346 4.685399785e-17 -39.34551047)
(300.596722 -4.920475127e-17 -39.0510832)
(297.6954053 -1.689067933e-17 -38.63704012)
(294.4065631 -2.876644836e-17 -38.05754265)
(290.7381192 2.419578857e-17 -37.25468313)
(286.735537 2.096183939e-17 -36.16253142)
(282.4937123 1.81953724e-17 -34.71504435)
(278.1577397 0 -32.8624233)
(273.9089115 -5.249976036e-17 -30.59324329)
(269.9320806 8.975942495e-17 -27.94938756)
(266.3768858 5.747076476e-17 -25.0248253)
(263.3308987 1.466871454e-16 -21.94975001)
(260.8117973 1.109807265e-16 -18.86507779)
(258.7797733 0 -15.89842358)
(257.1604404 0 -13.14892924)
(255.8682693 1.00715284e-16 -10.68204015)
(254.824013 2.557671621e-16 -8.531361906)
(253.9641906 1.920247518e-16 -6.704457676)
(253.2435133 3.240321258e-16 -5.189357967)
(252.6326684 5.469742843e-16 -3.960741813)
(252.1138835 4.604922043e-16 -2.985185938)
(251.6762201 -4.842854111e-17 -2.22552007)
(251.3118017 6.915559962e-16 -1.644332402)
(251.0134782 -1.093825525e-15 -1.206542059)
(250.7737457 -5.737672004e-17 -0.8810690031)
(250.5846542 8.17616775e-16 -0.6416395915)
(250.4381107 -8.060550553e-17 -0.4669066824)
(250.3263666 6.744390502e-17 -0.340082016)
(250.2423752 -3.609837922e-15 -0.2483117043)
(250.1800426 0 -0.1819666845)
(250.1342886 2.515104755e-15 -0.1339498245)
(250.101023 -2.095226972e-15 -0.0990955235)
(250.0770207 6.970475411e-15 -0.07367713741)
(250.0597843 -1.808439142e-16 -0.05502233037)
(250.0474236 -2.247327973e-15 -0.04120358551)
(250.0384262 -3.83853428e-15 -0.03090362772)
(250.0317092 -3.367854345e-15 -0.02305746051)
(250.0263449 0 -0.01705714623)
(250.0214005 0 -0.01295062033)
(250.0185038 -3.582151475e-15 -0.007369228809)
(250.0106007 -5.806325384e-15 -0.008617923218)
(201.8632945 6.231112751e-20 -29.21113669)
(244.2650746 -2.757834863e-16 -34.52425338)
(268.4612824 0 -37.95145136)
(288.8157369 4.464398327e-19 -41.00383604)
(306.7273922 -9.338898064e-19 -43.93684799)
(314.9325695 0 -45.13536263)
(314.9235992 -2.143915859e-16 -45.31449383)
(314.5616831 1.863101068e-16 -45.09314841)
(314.0113426 -1.254900183e-18 -45.26166448)
(313.5555314 0 -45.05997313)
(312.9091859 3.502988534e-18 -45.16951893)
(312.240109 9.38448223e-17 -45.03590749)
(311.4167094 -2.199350233e-18 -45.05442119)
(310.4751311 2.521049387e-19 -44.95949645)
(309.3550775 -5.902094108e-17 -44.90476848)
(308.0475242 0 -44.79404311)
(306.5142068 4.926472519e-18 -44.66515297)
(304.7239115 -8.319838274e-18 -44.48280508)
(302.6385739 -2.83638739e-17 -44.24018838)
(300.2217615 1.178314642e-17 -43.90962704)
(297.4412618 2.0425804e-17 -43.46131993)
(294.2748963 2.403338578e-20 -42.85151424)
(290.7213115 0 -42.02418479)
(286.8117997 2.530703468e-17 -40.91086625)
(282.6243918 3.486318741e-19 -39.44054042)
(278.2921669 -1.831161101e-17 -37.55467956)
(273.9918391 0 -35.22481723)
(269.917698 1.078018664e-16 -32.47236024)
(266.2434798 -1.147409522e-16 -29.37710675)
(263.0854775 -5.867351297e-17 -26.06432624)
(260.4867153 -1.332563653e-16 -22.68093269)
(258.4219811 1.505427024e-17 -19.36916588)
(256.8186931 -3.616306614e-17 -16.24637552)
(255.5826904 -3.068664717e-16 -13.39574779)
(254.6200824 -2.937599946e-16 -10.86622026)
(253.8511392 -1.896759072e-16 -8.677333398)
(253.2163665 3.690867093e-16 -6.826211972)
(252.676393 3.52438744e-16 -5.294008549)
(252.2083054 -1.134044409e-15 -4.051430359)
(251.8005007 -4.402732503e-16 -3.063152351)
(251.4477065 -2.468083195e-17 -2.291389956)
(251.1471217 -4.151457885e-17 -1.698780028)
(250.8960329 1.114716785e-15 -1.250524176)
(250.6907247 9.061249968e-16 -0.9158126792)
(250.5263792 4.897806969e-17 -0.6685218988)
(250.3974192 0 -0.4873196685)
(250.2980514 -2.196227711e-15 -0.3553240639)
(250.2227098 1.834966807e-15 -0.2595232397)
(250.1663922 -9.571872766e-17 -0.1901028075)
(250.1248083 -8.625845869e-21 -0.1397817036)
(250.0944301 1.990887255e-16 -0.1032274654)
(250.0724272 -3.63890923e-15 -0.07657203427)
(250.0565785 0 -0.05702726259)
(250.0451839 2.570329294e-15 -0.042574856)
(250.0368618 -1.247075711e-16 -0.03182821079)
(250.0306292 3.281540817e-15 -0.02366422098)
(250.0256019 -2.689053345e-15 -0.01743990697)
(250.020874 0 -0.01319146127)
(250.0182063 3.567235681e-15 -0.007480317583)
(250.0103105 5.759120265e-15 -0.008668003272)
(202.4787968 -5.222763486e-16 -32.92798355)
(246.0276675 -3.007048313e-16 -39.03581373)
(271.1058032 2.50298325e-16 -43.03093486)
(292.1716028 -4.918804397e-19 -46.60722768)
(308.3663091 -2.570486591e-16 -49.60457106)
(313.1491476 4.882817267e-16 -50.31000914)
(312.9464091 -2.19466039e-16 -50.45469442)
(312.5677472 1.486038713e-18 -50.21023354)
(311.9705354 -1.593971018e-16 -50.3835534)
(311.4609842 -2.960220764e-19 -50.15380295)
(310.7489083 1.100516472e-16 -50.24010436)
(310.0018138 -9.858440274e-17 -50.08278642)
(309.0878763 8.004209347e-17 -50.06491922)
(308.0387963 0 -49.93551594)
(306.793949 -4.986313024e-17 -49.83286539)
(305.3404792 9.577994485e-17 -49.66860707)
(303.638604 -3.013337101e-17 -49.47002503)
(301.6543772 3.432376523e-17 -49.20131283)
(299.3493334 -2.881821267e-17 -48.84625775)
(296.6886195 -2.483269094e-17 -48.36872652)
(293.646369 2.074740061e-17 -47.72812642)
(290.2138407 1.79099228e-17 -46.8719482)
(286.4127077 0 -45.73732012)
(282.3060901 0 -44.2505198)
(278.0084679 -4.40481847e-17 -42.3411267)
(273.6885323 -3.827382754e-17 -39.96751368)
(269.5448552 0 -37.13436836)
(265.7677136 -1.112324419e-16 -33.90204227)
(262.5023041 -9.550255025e-17 -30.38621013)
(259.8203214 2.029297535e-17 -26.7355852)
(257.7171158 1.210014537e-16 -23.10320034)
(256.1284243 -1.016978515e-16 -19.62325903)
(254.956232 -1.85770191e-16 -16.3969321)
(254.0942335 3.126681377e-16 -13.48895922)
(253.4463392 2.817876476e-16 -10.93171486)
(252.9365222 2.378231721e-16 -8.731862402)
(252.5117241 -4.261850881e-16 -6.877633613)
(252.1396806 -3.16811707e-16 -5.344726197)
(251.8042547 5.690400377e-16 -4.100995984)
(251.499909 -2.994512603e-17 -3.110032574)
(251.2266868 8.30574079e-16 -2.334019462)
(250.9864115 4.227790081e-17 -1.73607078)
(250.780356 2.021837376e-20 -1.28200709)
(250.6081968 -9.813370774e-16 -0.9415685375)
(250.4679314 -4.9838463e-17 -0.6890207292)
(250.3562641 -1.246396523e-20 -0.503250121)
(250.2691953 4.497656979e-15 -0.367450856)
(250.2025351 0 -0.268590116)
(250.1523103 -9.711821727e-17 -0.1967755107)
(250.1149857 1.617258969e-16 -0.1446236215)
(250.0875777 2.083777406e-15 -0.1066957182)
(250.0676438 0 -0.07902632274)
(250.0532372 0 -0.05874299451)
(250.0428493 -1.524772204e-16 -0.04375913137)
(250.0352316 4.142599054e-15 -0.0326339007)
(250.0295019 1.030089475e-16 -0.02419773585)
(250.0248264 2.610451746e-15 -0.01778048885)
(250.0203148 -1.096771863e-15 -0.01340266613)
(250.0178892 -1.777166499e-15 -0.007585744353)
(250.0099993 -5.739987589e-15 -0.008712412956)
(202.7614588 0 -36.7666074)
(247.6314967 6.386831102e-19 -43.73937528)
(273.6095268 0 -48.36323056)
(295.1612616 -2.76176369e-16 -52.49293477)
(308.7730802 7.8345817e-19 -55.2849897)
(311.1442768 5.060697317e-16 -55.55818702)
(310.5311437 -2.242403846e-16 -55.68482802)
(310.1363827 -1.93360359e-16 -55.38911921)
(309.4859895 -2.909487557e-18 -55.5603464)
(308.9145457 1.399611546e-16 -55.30104037)
(308.1280314 0 -55.35313586)
(307.2905922 1.003677084e-16 -55.16471087)
(306.2713663 -8.666929247e-17 -55.09926025)
(305.0965893 6.894240747e-17 -54.92236897)
(303.7059829 -5.052284672e-17 -54.75411754)
(302.0828004 0 -54.51487603)
(300.1868597 -1.028935764e-17 -54.22236935)
(297.9840166 -3.51586908e-17 -53.83882733)
(295.4391803 -3.002338579e-19 -53.338262)
(292.5228536 6.295289415e-17 -52.67532572)
(289.2195386 -2.131501725e-17 -51.79605921)
(285.5381034 -1.816995897e-17 -50.63573984)
(281.5293713 1.573675496e-17 -49.12649686)
(277.2959874 -1.325377727e-17 -47.19985886)
(272.9898809 6.920412573e-17 -44.79778788)
(268.8052537 -2.003209436e-17 -41.90414783)
(264.9468985 -8.441748941e-17 -38.56461223)
(261.583046 8.556787344e-17 -34.88005471)
(258.8156314 7.278504352e-17 -30.99458752)
(256.6660018 -1.049125252e-17 -27.06923837)
(255.0842435 -1.053387678e-16 -23.25246358)
(253.9743669 -1.198809789e-16 -19.66283646)
(253.221515 1.891090237e-16 -16.3817803)
(252.7145491 1.711315127e-16 -13.45507566)
(252.3603293 0 -10.8997455)
(252.0896219 0 -8.711406909)
(251.8573576 -4.09674812e-16 -6.871175418)
(251.638943 3.448155934e-16 -5.350731705)
(251.4250059 5.982434046e-16 -4.116124376)
(251.2157583 -5.029293601e-16 -3.130570813)
(251.0161061 -1.612822103e-15 -2.356700704)
(250.8320075 6.664563094e-16 -1.758437637)
(250.6682615 1.190186403e-15 -1.302471267)
(250.5275376 -3.021743456e-17 -0.9592965562)
(250.4103302 0 -0.7037454082)
(250.3153842 4.234857913e-17 -0.5150770143)
(250.2403224 -2.299717494e-15 -0.376693584)
(250.1822156 5.90567586e-17 -0.2756507842)
(250.1380455 -4.920750231e-17 -0.2020662267)
(250.1049869 0 -0.1485226276)
(250.0805747 0 -0.1095269822)
(250.06274 1.127182658e-16 -0.08105488625)
(250.0498036 2.982056986e-15 -0.06017766839)
(250.0404458 -2.304995491e-16 -0.04476078783)