/*--------------------------------*- C++ -*----------------------------------*\
  =========                 |
  \\      /  F ield         | OpenFOAM: The Open Source CFD Toolbox
   \\    /   O peration     | Website:  https://openfoam.org
    \\  /    A nd           | Version:  12
     \\/     M anipulation  |
\*---------------------------------------------------------------------------*/
FoamFile
{
    format      ascii;
    class       volScalarField;
    location    "0.136";
    object      T;
}
// * * * * * * * * * * * * * * * * * * * * * * * * * * * * * * * * * * * * * //

dimensions      [0 0 0 1 0 0 0];

internalField   nonuniform List<scalar> 
16000
(
294.73952
286.29433
289.56156
287.78089
288.88624
288.37864
288.80018
288.68915
288.88551
288.91913
289.03977
289.12427
289.22934
289.3318
289.44023
289.55194
289.66779
289.78759
289.91145
290.03936
290.17133
290.30735
290.44739
290.59138
290.73927
290.89094
291.04626
291.20509
291.36723
291.53248
291.70058
291.87127
292.04425
292.21918
292.39572
292.57348
292.75206
292.93106
293.11004
293.28857
293.46621
293.64252
293.81708
293.98945
294.15925
294.32609
294.48962
294.64952
294.80548
294.95727
295.10465
295.24744
295.38551
295.51875
295.64709
295.77049
295.88897
296.00255
296.11129
296.2153
296.31471
296.40967
296.50036
296.58698
296.66981
296.74921
296.82562
296.89964
296.97188
297.04291
297.11322
297.1833
297.25381
297.32577
297.40047
297.47917
297.56419
297.65071
297.77728
297.85018
294.43388
285.89004
289.31518
287.42567
288.59806
288.05365
288.51024
288.39
288.60066
288.63982
288.7674
288.86081
288.97304
289.08431
289.20114
289.32185
289.44685
289.57613
289.70971
289.84758
289.98975
290.13616
290.28676
290.44146
290.60016
290.76271
290.92894
291.09864
291.27158
291.4475
291.6261
291.80706
291.99
292.17456
292.36032
292.54685
292.73371
292.92043
293.10655
293.29161
293.47513
293.65667
293.83578
294.01205
294.18508
294.35452
294.52004
294.68134
294.83817
294.99033
295.13763
295.27994
295.41719
295.5493
295.67628
295.79814
295.91492
296.0267
296.13358
296.23571
296.33325
296.42638
296.51529
296.60023
296.68145
296.75933
296.83433
296.90701
296.97802
297.04797
297.11737
297.18668
297.25656
297.32809
297.40258
297.4812
297.56515
297.65792
297.76938
297.86519
294.14302
285.51461
289.03603
287.11416
288.32626
287.77169
288.24208
288.12956
288.34513
288.39608
288.52917
288.63312
288.75346
288.87447
289.00088
289.13162
289.26694
289.4068
289.55124
289.70021
289.85369
290.01158
290.17381
290.34023
290.5107
290.68503
290.86298
291.04431
291.22872
291.41587
291.60542
291.79697
291.99009
292.18434
292.37924
292.57431
292.76905
292.96295
293.1555
293.34622
293.53461
293.72021
293.90259
294.08134
294.25609
294.42651
294.59232
294.75326
294.90915
295.05983
295.20519
295.34516
295.47973
295.60889
295.7327
295.85124
295.96461
296.07294
296.17637
296.27509
296.3693
296.45921
296.54504
296.62704
296.70551
296.78079
296.85336
296.92378
296.9927
297.06076
297.12846
297.19628
297.26487
297.33531
297.4089
297.48661
297.57007
297.66399
297.76793
297.87559
293.87624
285.17148
288.81372
286.8399
288.08805
287.52335
288.00777
287.90463
288.12561
288.18991
288.32952
288.44526
288.57502
288.70698
288.84425
288.98625
289.13308
289.28472
289.44116
289.60232
289.76814
289.9385
290.11328
290.29228
290.47531
290.6621
290.85239
291.04584
291.24209
291.44073
291.64133
291.84342
292.0465
292.25005
292.45354
292.65641
292.85812
293.05812
293.25586
293.45084
293.64256
293.83057
294.01444
294.19381
294.36835
294.53777
294.70185
294.86041
295.01334
295.16054
295.302
295.43771
295.56773
295.69215
295.81108
295.92465
296.03304
296.13642
296.235
296.32898
296.41861
296.50413
296.58578
296.66383
296.73858
296.81038
296.87969
296.94707
297.01318
297.07866
297.14404
297.20978
297.27652
297.34536
297.41751
297.49388
297.57673
297.66975
297.769
297.88487
293.63364
284.86451
288.60535
286.61157
287.8953
287.31698
287.8117
287.72253
287.94749
288.02775
288.17467
288.3035
288.44406
288.5881
288.73745
288.89186
289.05135
289.21588
289.38541
289.55983
289.73905
289.92289
290.11118
290.30366
290.50007
290.70008
290.90332
291.10938
291.31781
291.52812
291.73978
291.95222
292.16488
292.37714
292.58842
292.79809
293.00556
293.21025
293.41161
293.60911
293.80229
293.9907
294.17398
294.3518
294.5239
294.69007
294.85018
295.00413
295.15189
295.29347
295.42892
295.55836
295.6819
295.79972
295.91199
296.01893
296.12076
296.21771
296.31003
296.39796
296.48178
296.56176
296.63816
296.71125
296.78135
296.84879
296.91403
296.97761
297.04018
297.10241
297.16483
297.22788
297.29221
297.35889
297.42903
297.50365
297.58539
297.67625
297.77202
297.89276
293.41909
284.60092
288.43
286.4214
287.72767
287.15902
287.66459
287.5895
287.81801
287.91536
288.07043
288.21315
288.36563
288.52267
288.68518
288.85308
289.02637
289.20495
289.38877
289.57765
289.77144
289.96991
290.17278
290.37974
290.59041
290.80437
291.02115
291.24022
291.46103
291.68297
291.90543
292.12772
292.3492
292.56919
292.78701
293.002
293.21355
293.42105
293.62396
293.82178
294.01407
294.20046
294.38065
294.55439
294.72152
294.88194
295.03561
295.18253
295.32279
295.45651
295.58383
295.70496
295.82011
295.92952
296.03345
296.13218
296.22597
296.31512
296.39991
296.48061
296.55752
296.63093
296.70112
296.76837
296.83299
296.8953
296.95574
297.01484
297.07324
297.13161
297.19048
297.25031
297.31172
297.37572
297.44332
297.51581
297.59588
297.68372
297.7763
297.90021
293.23551
284.38251
288.28865
286.26809
287.5964
287.05112
287.55489
287.50831
287.7361
287.85446
288.01869
288.17606
288.34189
288.51321
288.69038
288.87334
289.06204
289.25631
289.45603
289.66095
289.87082
290.08532
290.30406
290.52661
290.75247
290.9811
291.21189
291.4442
291.67734
291.91058
292.14319
292.37441
292.60349
292.82967
293.05225
293.27055
293.48391
293.69178
293.89364
294.08905
294.27765
294.45916
294.63338
294.8002
294.95956
295.11149
295.25607
295.39345
295.52383
295.64742
295.76449
295.87533
295.98024
296.07955
296.17357
296.26263
296.34706
296.42718
296.50329
296.57572
296.64476
296.71071
296.77387
296.83451
296.89293
296.94945
297.00447
297.05849
297.11215
297.16611
297.22091
297.27702
297.33504
297.39586
297.46046
297.53044
297.60829
297.69241
297.78176
297.90748
293.08071
284.20714
288.17768
286.15024
287.49496
286.97646
287.48281
287.44579
287.70414
287.84348
288.01946
288.19337
288.37501
288.56288
288.75702
288.95731
289.16363
289.37573
289.59338
289.81624
290.04395
290.27602
290.51197
290.7512
290.99307
291.23687
291.48187
291.72727
291.97223
292.21591
292.45746
292.69603
292.9308
293.16097
293.38583
293.60468
293.81693
294.02207
294.21966
294.40938
294.59099
294.76434
294.92937
295.08613
295.2347
295.37527
295.50807
295.63337
295.75149
295.86277
295.96758
296.0663
296.1593
296.24697
296.3297
296.40784
296.48176
296.55181
296.61832
296.68161
296.742
296.79978
296.85524
296.90865
296.96029
297.01047
297.05956
297.10803
297.15648
297.20556
297.25585
297.30781
297.36202
297.41922
297.48039
297.54753
297.62262
297.70242
297.78852
297.91489
292.94971
284.07285
288.10057
286.06816
287.44338
286.97353
287.47289
287.49559
287.72572
287.88646
288.07778
288.27079
288.47123
288.67842
288.89223
289.11246
289.3389
289.57119
289.80897
290.05176
290.29904
290.55018
290.8045
291.06124
291.31958
291.57863
291.83749
292.09519
292.35077
292.60325
292.8517
293.09519
293.33288
293.56396
293.78774
294.0036
294.21104
294.40964
294.59915
294.77936
294.95023
295.11179
295.26415
295.40754
295.54224
295.66856
295.78691
295.89769
296.00134
296.09832
296.18907
296.27406
296.35372
296.42849
296.49878
296.565
296.62752
296.68671
296.74289
296.79641
296.84756
296.89663
296.9439
296.98963
297.03408
297.07752
297.12029
297.16283
297.20571
297.24956
297.29497
297.34244
297.39247
297.44565
297.50305
297.56703
297.63882
297.71377
297.79671
297.92267
292.84177
283.98191
288.06293
286.03706
287.44642
287.01146
287.50847
287.5606
287.80531
287.99235
288.20256
288.41728
288.63954
288.86894
289.10528
289.3482
289.59736
289.85224
290.11233
290.37694
290.64536
290.91676
291.19023
291.4648
291.73944
292.01308
292.2846
292.5529
292.81689
293.07549
293.32771
293.57262
293.80937
294.03724
294.25563
294.46405
294.66217
294.84978
295.02679
295.19326
295.34932
295.49525
295.63137
295.75809
295.87588
295.98523
296.08668
296.18076
296.26802
296.349
296.42422
296.49419
296.5594
296.62031
296.67735
296.73094
296.78145
296.82924
296.87465
296.91798
296.95954
296.99958
297.03837
297.07614
297.11313
297.14958
297.18579
297.22217
297.25923
297.29758
297.33785
297.38056
297.42613
297.47497
297.52832
297.58884
297.65675
297.72645
297.80645
297.93096
292.76064
283.9424
288.07071
286.12429
287.50813
287.11409
287.60358
287.70022
287.95473
288.16968
288.40283
288.64239
288.88981
289.14465
289.40661
289.67513
289.94969
290.22957
290.514
290.80207
291.0928
291.38509
291.67779
291.96967
292.25947
292.5459
292.8277
293.10362
293.37247
293.63316
293.88469
294.12618
294.35692
294.57633
294.78401
294.97969
295.1633
295.33488
295.49462
295.64284
295.77995
295.90644
296.02287
296.12985
296.22801
296.31801
296.4005
296.47611
296.54547
296.60918
296.66781
296.7219
296.77194
296.8184
296.86172
296.90229
296.94049
296.97665
297.01109
297.04408
297.07591
297.10682
297.13702
297.16674
297.19617
297.22554
297.25509
297.28519
297.3163
297.34902
297.38398
297.42174
297.46263
297.50692
297.55604
297.61279
297.67623
297.74047
297.81795
297.93952
292.71267
283.96721
288.13229
286.26229
287.61662
287.28626
287.76928
287.91144
288.18275
288.4283
288.6888
288.95687
289.23316
289.517
289.8079
290.10506
290.4077
290.71479
291.02527
291.33789
291.65135
291.96425
292.27514
292.58251
292.88488
293.18079
293.46883
293.74769
294.01618
294.27326
294.51807
294.7499
294.96827
295.17289
295.36365
295.54062
295.70405
295.85432
295.99194
296.11752
296.23174
296.33532
296.42905
296.51369
296.59004
296.65884
296.72085
296.77677
296.82726
296.87295
296.91442
296.95219
296.98678
297.01861
297.0481
297.07563
297.10153
297.1261
297.14964
297.1724
297.1946
297.21646
297.23818
297.25992
297.28187
297.3042
297.32714
297.35098
297.37614
297.40319
297.43278
297.46549
297.50156
297.54117
297.58597
297.63863
297.69708
297.75588
297.83126
297.94812
292.70269
284.0624
288.25785
286.45345
287.79049
287.53529
288.01446
288.20575
288.49979
288.77927
289.072
289.37293
289.68227
289.99902
290.32239
290.65125
290.98441
291.32045
291.65791
291.99516
292.33051
292.6622
292.98849
293.30763
293.61796
293.9179
294.20602
294.48107
294.74199
294.98796
295.2184
295.43295
295.63151
295.8142
295.98131
296.13334
296.27091
296.39479
296.5058
296.60483
296.69282
296.77071
296.83941
296.89986
296.9529
296.99939
297.04009
297.07573
297.10697
297.13444
297.15869
297.18022
297.19949
297.21691
297.23284
297.24761
297.26153
297.27485
297.28781
297.30064
297.31352
297.32664
297.34013
297.35415
297.36883
297.38433
297.40082
297.41855
297.43788
297.45934
297.48359
297.51122
297.5424
297.57735
297.61783
297.66605
297.71903
297.77271
297.84619
297.95709
292.73269
284.23555
288.45244
286.73046
288.03981
287.86906
288.34963
288.59335
288.91779
289.23584
289.56634
289.90523
290.25231
290.60614
290.96544
291.3286
291.69393
292.05952
292.42342
292.78355
293.13782
293.48416
293.82056
294.14511
294.45609
294.75197
295.03148
295.29363
295.53773
295.76338
295.97047
296.15917
296.3299
296.48328
296.62011
296.74132
296.84794
296.94106
297.02181
297.09133
297.15071
297.20105
297.24337
297.27864
297.30777
297.3316
297.35089
297.36635
297.3786
297.38821
297.39569
297.40149
297.406
297.40958
297.41254
297.41516
297.41767
297.4203
297.42324
297.42666
297.43072
297.43554
297.44124
297.44792
297.4557
297.46468
297.47501
297.48688
297.5006
297.51665
297.53569
297.55828
297.58458
297.61498
297.6512
297.69465
297.7417
297.79078
297.86275
297.96625
292.80755
284.49983
288.71946
287.09531
288.37661
288.29922
288.78863
289.089
289.45248
289.81513
290.18966
290.57213
290.96172
291.35639
291.75424
292.15303
292.55044
292.94401
293.33125
293.70964
294.07674
294.43023
294.76801
295.08821
295.38929
295.67005
295.92968
296.16773
296.38413
296.57914
296.75331
296.90746
297.04261
297.15994
297.26072
297.3463
297.41804
297.47731
297.52545
297.56372
297.59333
297.61543
297.63106
297.64117
297.64665
297.6483
297.64681
297.64282
297.63689
297.62952
297.62113
297.6121
297.60277
297.59341
297.58427
297.57556
297.56748
297.56019
297.55383
297.54852
297.54439
297.54151
297.53996
297.53982
297.54116
297.54405
297.5486
297.55496
297.56339
297.57431
297.58835
297.60599
297.62749
297.65349
297.6856
297.724
297.76468
297.80953
297.88052
297.97543
292.93159
284.87364
289.05514
287.56223
288.81469
288.84107
289.34973
289.71261
290.12487
290.53927
290.96433
291.39567
291.83165
292.26948
292.70647
293.13963
293.56597
293.98241
294.38595
294.77375
295.14318
295.49197
295.81823
296.12052
296.39788
296.64983
296.87636
297.07788
297.25515
297.40926
297.54152
297.65342
297.74656
297.82261
297.88323
297.93007
297.96471
297.98867
298.00336
298.01009
298.01008
298.00442
297.99411
297.98002
297.96296
297.94361
297.9226
297.90045
297.87765
297.85457
297.83158
297.80895
297.78695
297.76578
297.74562
297.72662
297.70891
297.6926
297.67779
297.66455
297.65297
297.64308
297.63493
297.62856
297.624
297.6213
297.62053
297.6218
297.62532
297.63148
297.64078
297.65365
297.67048
297.69226
297.72039
297.75363
297.78771
297.82835
297.89848
297.98461
293.10944
285.38656
289.46667
288.14914
289.37532
289.51791
290.05875
290.49125
290.96197
291.43519
291.91625
292.40015
292.88413
293.36448
293.83756
294.29955
294.74674
295.17555
295.58273
295.96542
296.3213
296.64865
296.94634
297.2139
297.45143
297.65956
297.83936
297.99229
298.12006
298.22457
298.30786
298.37196
298.41892
298.45074
298.46929
298.47637
298.47361
298.46255
298.44456
298.42087
298.39261
298.36076
298.32618
298.28964
298.2518
298.21325
298.17446
298.13587
298.09783
298.06064
298.02455
297.98977
297.95646
297.92477
297.89479
297.86663
297.84036
297.81603
297.7937
297.7734
297.75517
297.73902
297.72497
297.713
297.70314
297.6954
297.68982
297.68648
297.68554
297.68734
297.69225
297.7006
297.71295
297.73066
297.75485
297.78302
297.81079
297.84696
297.91537
297.99486
293.35261
286.08552
289.99723
288.88719
290.08937
290.36096
290.94821
291.4572
291.99479
292.53247
293.07278
293.60975
294.13921
294.65629
295.15631
295.6347
296.08735
296.51064
296.90172
297.25847
297.57964
297.86478
298.11421
298.32888
298.51035
298.66055
298.78176
298.87642
298.94709
298.99632
299.02661
299.04036
299.03981
299.02707
299.00403
298.97246
298.93389
298.88973
298.84121
298.78941
298.73527
298.67962
298.62316
298.56651
298.51016
298.45457
298.40008
298.34701
298.29561
298.24606
298.19853
298.15314
298.10998
298.06911
298.0306
297.99447
297.96073
297.92942
297.90052
297.87405
297.85
297.82836
297.80911
297.79222
297.77768
297.76548
297.75562
297.74816
297.74325
297.74112
297.74203
297.7462
297.75437
297.76814
297.7883
297.81152
297.83382
297.866
297.93171
298.00539
293.6878
286.95527
290.67374
289.81355
290.99454
291.40497
292.05431
292.64645
293.2573
293.86228
294.46065
295.04514
295.60992
296.14904
296.65717
297.12971
297.56307
297.9547
298.3032
298.60824
298.8705
299.09147
299.27333
299.41874
299.53072
299.61242
299.6671
299.69792
299.70795
299.70006
299.67694
299.64103
299.59452
299.53941
299.47743
299.41014
299.33887
299.26482
299.18897
299.11221
299.03527
298.95878
298.88326
298.80915
298.73682
298.66656
298.5986
298.53314
298.4703
298.4102
298.35291
298.29848
298.24693
298.19826
298.15246
298.10953
298.06943
298.03213
297.99762
297.96585
297.93679
297.91041
297.88666
297.86551
297.8469
297.83081
297.81721
297.80614
297.79773
297.79213
297.78946
297.7899
297.7943
297.80429
297.82021
297.83845
297.85624
297.88586
297.94847
298.01446
294.1552
287.93683
291.53855
290.9639
292.13477
292.69183
293.41994
294.10093
294.78665
295.45448
296.09997
296.71459
297.29148
297.82463
298.3095
298.74301
299.12367
299.45142
299.72751
299.95424
300.13472
300.27262
300.37194
300.43681
300.47133
300.47947
300.46498
300.43131
300.38162
300.31873
300.24518
300.16319
300.07469
299.98139
299.88473
299.78597
299.68616
299.5862
299.48686
299.38876
299.29243
299.19829
299.1067
299.01793
298.93219
298.84965
298.77044
298.69462
298.62226
298.55337
298.48795
298.42598
298.36742
298.31223
298.26036
298.21173
298.1663
298.12399
298.08474
298.0485
298.0152
297.98479
297.9572
297.93239
297.9103
297.89086
297.87404
297.85987
297.84843
297.8398
297.834
297.83121
297.83235
297.83881
297.85034
297.86344
297.87739
297.9058
297.96544
298.02142
294.81053
289.20307
292.63939
292.39024
293.57083
294.27974
295.09772
295.8652
296.61436
297.32435
297.98802
298.59706
299.14574
299.63035
300.04937
300.4033
300.6943
300.9259
301.10256
301.22935
301.31163
301.35479
301.36407
301.3444
301.30035
301.23604
301.15518
301.06103
300.95645
300.8439
300.72551
300.60311
300.47823
300.35218
300.22605
300.10075
299.97703
299.85551
299.7367
299.62099
299.50872
299.40011
299.29537
299.19462
299.09795
299.00541
298.91702
298.83278
298.75265
298.67659
298.60453
298.5364
298.47212
298.4116
298.35473
298.30143
298.2516
298.20515
298.16198
298.12201
298.08517
298.05138
298.02057
297.99266
297.9676
297.94532
297.92576
297.90895
297.89491
297.88366
297.87517
297.86967
297.86809
297.8714
297.87866
297.88672
297.897
297.9241
297.98032
298.02614
295.7107
290.81441
294.06185
294.17206
295.38153
296.23602
297.13518
297.9649
298.74122
299.44722
300.07666
300.62483
301.09049
301.47506
301.78223
302.01733
302.18684
302.2978
302.35744
302.37281
302.35059
302.29691
302.21733
302.11676
301.99949
301.86924
301.7292
301.58207
301.43014
301.27534
301.11926
300.96322
300.80831
300.65544
300.50533
300.35855
300.21557
300.07674
299.94235
299.8126
299.68762
299.5675
299.4523
299.34203
299.23667
299.13617
299.04048
298.94952
298.8632
298.78141
298.70404
298.63098
298.56209
298.49727
298.43637
298.37929
298.32589
298.27606
298.22969
298.18667
298.14691
298.11031
298.0768
298.04631
298.01874
297.99405
297.97218
297.95313
297.9369
297.9234
297.91262
297.90487
297.90101
297.90157
297.90506
297.90874
297.91554
297.93978
297.99029
298.02952
296.83813
292.89525
295.91139
296.39299
297.63324
298.60442
299.53947
300.37117
301.10605
301.73541
302.2593
302.68064
303.00558
303.24229
303.40017
303.48912
303.51891
303.49883
303.4374
303.34225
303.22009
303.0767
302.91704
302.74526
302.56488
302.37879
302.18941
301.9987
301.80827
301.61944
301.43324
301.25052
301.07195
300.89804
300.72919
300.56568
300.40774
300.2555
300.10904
299.96841
299.8336
299.70457
299.58127
299.46362
299.3515
299.24482
299.14344
299.04723
298.95605
298.86976
298.7882
298.71123
298.63869
298.57044
298.50633
298.44621
298.38995
298.3374
298.28844
298.24294
298.2008
298.1619
298.12617
298.09351
298.06385
298.03712
298.0133
297.99235
297.97422
297.95882
297.94613
297.93651
297.93069
297.92878
297.92899
297.92929
297.93352
297.95466
297.99822
298.03044
298.36886
295.55811
298.28338
299.1062
300.32145
301.35373
302.23519
302.97113
303.5707
304.03781
304.38301
304.61877
304.75899
304.8177
304.80827
304.743
304.63278
304.48707
304.31392
304.12009
303.91118
303.69179
303.46568
303.23588
303.00484
302.77451
302.54647
302.32192
302.10183
301.88695
301.67783
301.4749
301.27845
301.08868
300.90573
300.72966
300.56048
300.39816
300.24264
300.09383
299.95161
299.81586
299.68643
299.56316
299.44591
299.33449
299.22874
299.12849
299.03355
298.94376
298.85893
298.77889
298.70348
298.63252
298.56585
298.50332
298.44476
298.39002
298.33897
298.29148
298.24741
298.20665
298.1691
298.13465
298.10324
298.07481
298.04931
298.02671
298.00694
297.98989
297.97558
297.96441
297.95687
297.95266
297.95001
297.94768
297.95021
297.96864
298.00481
298.02701
300.34534
298.87293
301.17365
302.28625
303.47121
304.33641
305.04339
305.57066
305.9408
306.17233
306.28658
306.30376
306.24253
306.11929
305.94805
305.74047
305.50615
305.25284
304.98676
304.71285
304.43501
304.15628
303.87906
303.60519
303.33607
303.07279
302.81613
302.5667
302.3249
302.09101
301.86521
301.64758
301.43815
301.23688
301.0437
300.85849
300.68113
300.51145
300.34929
300.19446
300.04677
299.90603
299.77203
299.64457
299.52345
299.40844
299.29937
299.19601
299.09817
299.00566
298.91827
298.83583
298.75813
298.68502
298.6163
298.55182
298.49141
298.43491
298.38217
298.33305
298.28741
298.24513
298.2061
298.1702
298.13735
298.10749
298.08056
298.05652
298.03527
298.01674
298.00102
297.98845
297.97932
297.97307
297.96807
297.96387
297.96502
297.98011
298.00833
298.02297
302.79577
302.82431
304.83054
305.80427
306.69878
307.31008
307.71682
307.94032
308.01709
307.97685
307.84646
307.64811
307.39987
307.1161
306.80805
306.4844
306.15185
305.81548
305.47914
305.14572
304.81736
304.49567
304.18179
303.87654
303.58047
303.29396
303.01723
302.75035
302.49335
302.24617
302.00868
301.78075
301.5622
301.35281
301.15238
300.96067
300.77744
300.60247
300.43549
300.27627
300.12456
299.98011
299.84269
299.71206
299.58798
299.47022
299.35855
299.25276
299.15263
299.05794
298.9685
298.88409
298.80454
298.72965
298.65923
298.59313
298.53116
298.47318
298.41901
298.36853
298.32158
298.27803
298.23777
298.20067
298.16663
298.13558
298.10745
298.08216
298.05961
298.03976
298.02271
298.00875
297.99799
297.9898
297.98298
297.97768
297.9779
297.98949
298.00943
298.01584
305.86308
307.25404
308.58065
309.28203
309.75977
309.96936
309.99313
309.87293
309.64949
309.35314
309.00733
308.62949
308.2325
307.82576
307.41607
307.00833
306.60603
306.21163
305.82683
305.45279
305.09023
304.73961
304.40114
304.07491
303.76085
303.45883
303.16865
302.89007
302.62284
302.36665
302.12121
301.88622
301.66134
301.44629
301.24074
301.04439
300.85694
300.67809
300.50754
300.34502
300.19025
300.04294
299.90285
299.7697
299.64324
299.52324
299.40944
299.30162
299.19955
299.10302
299.0118
298.9257
298.84451
298.76805
298.69613
298.62858
298.56523
298.5059
298.45046
298.39874
298.35061
298.30594
298.26458
298.22643
298.19137
298.15931
298.13016
298.10383
298.08021
298.05926
298.04105
298.02575
298.01332
298.00323
297.99476
297.9884
297.98716
297.99465
298.00798
298.01241
309.8161
311.59907
312.13844
312.32452
312.26957
312.03522
311.68376
311.25759
310.78685
310.29221
309.78772
309.28284
308.78384
308.29485
307.81853
307.35651
306.90974
306.47868
306.06348
305.66407
305.28022
304.91162
304.55788
304.21857
303.89326
303.5815
303.28283
302.99682
302.723
302.46097
302.2103
301.9706
301.74146
301.52251
301.31339
301.11375
300.92324
300.74154
300.56832
300.40329
300.24614
300.09658
299.95434
299.81915
299.69073
299.56885
299.45324
299.34368
299.23994
299.14178
299.049
298.96138
298.87873
298.80085
298.72757
298.65869
298.59406
298.5335
298.47687
298.42401
298.37479
298.32905
298.28669
298.24756
298.21156
298.17859
298.14855
298.12133
298.09684
298.07503
298.05593
298.03955
298.02579
298.01427
298.00467
297.99746
297.99441
297.99724
298.00383
298.00557
314.77696
315.14551
314.87348
314.50379
313.98
313.38585
312.75682
312.11848
311.48498
310.86493
310.26307
309.682
309.12286
308.58601
308.07127
307.57815
307.106
306.65408
306.22159
305.80774
305.41175
305.03284
304.6703
304.32341
303.99152
303.674
303.37025
303.07971
302.80184
302.53614
302.28213
302.03935
301.80738
301.58578
301.37419
301.17221
300.97948
300.79567
300.62044
300.45346
300.29445
300.14309
299.9991
299.86221
299.73215
299.60866
299.4915
299.38042
299.27519
299.17559
299.0814
298.99241
298.90841
298.82923
298.75466
298.68455
298.6187
298.55697
298.4992
298.44524
298.39494
298.34817
298.30479
298.26468
298.22773
298.19383
298.16288
298.13476
298.10941
298.08676
298.06679
298.04946
298.03463
298.02214
298.01187
298.00413
297.99966
297.99896
298.00087
298.00174
316.77362
316.93957
316.36222
315.5986
314.81786
314.03625
313.27396
312.53858
311.83356
311.15986
310.51718
309.90456
309.32073
308.76428
308.23378
307.72784
307.24512
306.78438
306.34442
305.92417
305.52262
305.13882
304.77192
304.42109
304.0856
303.76475
303.45789
303.16441
302.88375
302.61538
302.35879
302.11352
301.87911
301.65515
301.44123
301.23697
301.042
300.85598
300.67858
300.50947
300.34834
300.1949
300.04886
299.90996
299.77791
299.65247
299.53338
299.42041
299.31332
299.2119
299.11592
299.02518
298.93947
298.85861
298.78241
298.71069
298.64329
298.58005
298.52081
298.46543
298.41375
298.36565
298.321
298.27967
298.24154
298.2065
298.17445
298.14528
298.11893
298.09533
298.07443
298.05613
298.04036
298.02702
298.01615
298.00784
298.00225
297.99961
297.9991
297.99954
310.59246
309.26482
305.5819
302.68376
301.40095
301.11207
301.04376
301.04091
300.92921
300.87259
300.76963
300.69832
300.61191
300.52527
300.43907
300.35245
300.26516
300.17718
300.08851
299.99922
299.90938
299.81912
299.72854
299.63779
299.547
299.4563
299.36584
299.27574
299.18616
299.09721
299.00904
298.92176
298.8355
298.7504
298.66657
298.58413
298.50322
298.42394
298.34644
298.27082
298.1972
298.12573
298.05651
297.98967
297.92534
297.86363
297.80467
297.74857
297.69544
297.64539
297.59852
297.55493
297.5147
297.47791
297.44463
297.41492
297.38882
297.36636
297.34756
297.33243
297.32099
297.31324
297.30914
297.30862
297.31164
297.31815
297.32823
297.34179
297.35942
297.38015
297.40638
297.43305
297.47005
297.49918
297.55348
297.57827
297.66689
297.68151
297.82222
297.85047
309.795
306.86033
302.67717
300.61175
300.03889
300.03977
300.14118
300.15223
300.14646
300.12022
300.09626
300.05885
300.01603
299.9684
299.91685
299.86151
299.80283
299.74109
299.67662
299.60973
299.54069
299.46978
299.39726
299.32336
299.24832
299.17236
299.0957
299.01854
298.94107
298.8635
298.78601
298.70878
298.63198
298.5558
298.4804
298.40595
298.3326
298.26053
298.18989
298.12084
298.05352
297.9881
297.92472
297.86353
297.80468
297.74829
297.69452
297.64349
297.59532
297.55013
297.50803
297.46912
297.43349
297.40122
297.37238
297.34702
297.32518
297.30689
297.29215
297.28097
297.27336
297.26932
297.26878
297.27167
297.27795
297.28755
297.30055
297.31687
297.33703
297.36024
297.38855
297.41758
297.45603
297.48757
297.54246
297.56997
297.65844
297.67613
297.81841
297.84592
308.37419
304.784
301.67992
299.97541
299.64473
299.68496
299.71855
299.69249
299.66394
299.63129
299.59955
299.5646
299.528
299.4885
299.44686
299.40284
299.35664
299.30825
299.25774
299.20522
299.15079
299.09457
299.03669
298.97727
298.91647
298.85444
298.79134
298.72733
298.66258
298.59726
298.53156
298.46564
298.3997
298.3339
298.26845
298.2035
298.13926
298.07589
298.01359
297.95252
297.89288
297.83482
297.77853
297.72417
297.67191
297.6219
297.57431
297.52927
297.48693
297.44741
297.41083
297.3773
297.34692
297.31977
297.29591
297.27541
297.2583
297.2446
297.2343
297.22741
297.22395
297.22388
297.22715
297.23366
297.24338
297.25623
297.27228
297.29147
297.31427
297.34001
297.37051
297.40188
297.44195
297.47573
297.53156
297.56164
297.65037
297.67079
297.81467
297.84175
307.18287
303.33796
300.50514
299.21841
299.16775
299.1837
299.20055
299.16482
299.14632
299.11733
299.09335
299.06436
299.03514
299.00398
298.97174
298.93787
298.90254
298.86561
298.8271
298.78698
298.74529
298.70205
298.65729
298.61108
298.56349
298.51461
298.46454
298.41338
298.36126
298.30832
298.2547
298.20055
298.14603
298.09132
298.03658
297.982
297.92776
297.87404
297.82103
297.76892
297.71791
297.66818
297.61991
297.5733
297.52853
297.48576
297.44517
297.40692
297.37115
297.33801
297.30763
297.28012
297.25558
297.23409
297.21574
297.20056
297.18861
297.17989
297.1744
297.17214
297.17311
297.17728
297.18458
297.19492
297.20825
297.2245
297.24373
297.26589
297.29142
297.31974
297.3525
297.3862
297.42801
297.46393
297.52091
297.55348
297.64257
297.66552
297.81101
297.8378
306.4824
302.1242
299.54122
298.58883
298.66555
298.64
298.66585
298.62935
298.62245
298.59818
298.58282
298.56109
298.54066
298.51843
298.49564
298.4716
298.44649
298.42016
298.39259
298.36372
298.33354
298.30203
298.2692
298.23505
298.19962
298.16294
298.12506
298.08607
298.04604
298.00507
297.96326
297.92075
297.87766
297.83413
297.79033
297.74642
297.70256
297.65895
297.61575
297.57317
297.53139
297.49061
297.45102
297.41281
297.37618
297.34131
297.30837
297.27753
297.24895
297.22278
297.19916
297.1782
297.16001
297.14468
297.13227
297.12285
297.11645
297.11307
297.11271
297.11536
297.12103
297.12967
297.14121
297.15556
297.17266
297.19244
297.21495
297.24017
297.2685
297.29945
297.33454
297.37056
297.41418
297.45219
297.51045
297.54537
297.63508
297.66036
297.80745
297.83409
305.9126
300.93591
298.73764
297.98444
298.13266
298.07743
298.12312
298.08727
298.0952
298.07766
298.07329
298.06027
298.04956
298.0368
298.02369
298.00947
297.99428
297.97802
297.96066
297.94218
297.92255
297.90174
297.87976
297.8566
297.83225
297.80676
297.78013
297.75242
297.72368
297.69398
297.6634
297.63202
297.59997
297.56736
297.53431
297.50099
297.46753
297.43411
297.4009
297.36808
297.33584
297.30436
297.27384
297.24447
297.21643
297.18992
297.16511
297.14218
297.12128
297.10257
297.08618
297.07223
297.06083
297.05207
297.04601
297.04271
297.04221
297.04449
297.04955
297.05738
297.06798
297.0813
297.09726
297.11577
297.13677
297.16019
297.18608
297.21443
297.24562
297.27925
297.3167
297.35505
297.40052
297.4406
297.50022
297.53745
297.62786
297.65537
297.804
297.83063
305.3339
299.88644
298.08696
297.43371
297.6291
297.54802
297.61318
297.5758
297.59607
297.58311
297.5877
297.58185
297.57904
297.57396
297.5688
297.56272
297.55586
297.54814
297.53953
297.53
297.51952
297.50805
297.49559
297.48211
297.46761
297.4521
297.43558
297.41807
297.39962
297.38026
297.36006
297.33908
297.31742
297.29516
297.27242
297.24932
297.226
297.20261
297.1793
297.15623
297.13359
297.11155
297.09028
297.06998
297.05082
297.03298
297.01664
297.00197
296.98912
296.97825
296.96947
296.96291
296.95867
296.95683
296.95746
296.9606
296.96629
296.97451
296.98524
296.99848
297.01422
297.0324
297.05294
297.07575
297.10075
297.12791
297.15724
297.18878
297.22288
297.2592
297.29904
297.33972
297.38707
297.42924
297.49025
297.52972
297.62088
297.65058
297.80062
297.82741
304.85441
298.9379
297.53946
296.92998
297.16338
297.05737
297.14114
297.09913
297.13039