# Force coefficients
# liftDir         : (0.0000000000e+00 0.0000000000e+00 1.0000000000e+00)
# dragDir         : (1.0000000000e+00 0.0000000000e+00 0.0000000000e+00)
# pitchAxis       : (0.0000000000e+00 1.0000000000e+00 0.0000000000e+00)
# magUInf         : 2.5000000000e+02
# lRef            : 1.0000000000e+00
# Aref            : 1.0000000000e+00
# CofR            : (2.0000000000e-01 0.0000000000e+00 0.0000000000e+00)
# Time            	Cm                	Cd                	Cl                	Cl(f)             	Cl(r)             
0                 	-9.4893722509e-17	1.9507346327e-03	8.4870883469e-17	-5.2458280775e-17	1.3732916424e-16
1                 	-3.4396094705e-06	4.2427479569e-01	1.1991049775e-05	2.5559154170e-06	9.4351343581e-06
2                 	4.9816401032e-05	3.5476587702e-01	-2.0043900065e-04	-5.0403099294e-05	-1.5003590136e-04
3                 	-1.0549187634e-04	1.1391873640e-01	2.2894409338e-04	8.9801703487e-06	2.1996392304e-04
4                 	-1.5153051014e-04	-1.2126024448e-01	4.1103689073e-04	5.3987935232e-05	3.5704895550e-04
5                 	-2.5569757486e-05	-1.6268360897e-01	1.4264509747e-04	4.5752791251e-05	9.6892306224e-05
6                 	4.4899813857e-05	-3.5081802331e-02	-5.2171641883e-05	1.8813992915e-05	-7.0985634798e-05
7                 	-7.4061951305e-05	8.7541063706e-02	4.1128334877e-04	1.3157972308e-04	2.7970362569e-04
8                 	-1.5462545623e-04	1.0583951968e-01	-1.1992628613e-04	-2.1458859929e-04	9.4662313162e-05
9                 	-8.5168792128e-04	4.6603457184e-02	9.6881422867e-04	-3.6728080694e-04	1.3360950356e-03
10                	-1.7695290660e-03	-1.3841411716e-02	3.0182310948e-03	-2.6041351859e-04	3.2786446134e-03
11                	-1.8079976484e-03	-3.0195155384e-02	3.6026387928e-03	-6.6782519964e-06	3.6093170448e-03
12                	-1.5186458681e-03	-8.5106990983e-03	3.4120194215e-03	1.8736384269e-04	3.2246555788e-03
13                	-1.1409038187e-03	1.9234718341e-02	2.4276968279e-03	7.2944595224e-05	2.3547522327e-03
14                	-9.9051476064e-04	3.1640949914e-02	1.7491201681e-03	-1.1595467661e-04	1.8650748447e-03
15                	-1.3318586958e-03	2.5124339008e-02	2.4283302812e-03	-1.1769355518e-04	2.5460238364e-03
16                	-1.7757759910e-03	9.9432821568e-03	3.8995727254e-03	1.7401037169e-04	3.7255623537e-03
17                	-1.7139381897e-03	-2.7409571925e-03	3.9641251520e-03	2.6812438632e-04	3.6960007657e-03
18                	-1.2685504361e-03	-4.4169037460e-03	2.9841224464e-03	2.2351078709e-04	2.7606116593e-03
19                	-8.0222896138e-04	3.4335907970e-03	1.9359920279e-03	1.6576705259e-04	1.7702249753e-03
20                	-5.9271053160e-04	1.2936730130e-02	1.6952522527e-03	2.5491559476e-04	1.4403366580e-03
21                	-5.6247318974e-04	1.6041216865e-02	1.9101653869e-03	3.9260950373e-04	1.5175558832e-03
22                	-4.4027184233e-04	1.1555022700e-02	1.7333174988e-03	4.2638690708e-04	1.3069305917e-03
23                	-1.6478544548e-04	4.4371966916e-03	1.2213067338e-03	4.4586792143e-04	7.7543881238e-04
24                	3.1266669751e-04	9.8393176266e-04	2.9673564451e-04	4.6103451976e-04	-1.6429887525e-04
25                	7.6383154490e-04	3.1403481192e-03	-5.3143547629e-04	4.9811380675e-04	-1.0295492830e-03
26                	1.0178130664e-03	7.4011333094e-03	-6.7096825119e-04	6.8232894082e-04	-1.3532971920e-03
27                	1.1630716798e-03	1.0219904523e-02	-1.2601511368e-03	5.3299611134e-04	-1.7931472482e-03
28                	1.2896328762e-03	1.0237089521e-02	-2.2628680791e-03	1.5819883671e-04	-2.4210669158e-03
29                	1.3188525196e-03	8.2209372780e-03	-2.4625100660e-03	8.7597486647e-05	-2.5501075526e-03
30                	1.2044494034e-03	6.3655550627e-03	-1.5499935976e-03	4.2945260462e-04	-1.9794462022e-03
31                	1.0011016835e-03	6.9477380371e-03	-1.0337644126e-03	4.8421947724e-04	-1.5179838898e-03
32                	6.8666236030e-04	8.4592673096e-03	-6.4659363207e-04	3.6336554427e-04	-1.0099591763e-03
33                	3.3519182542e-04	9.8420634401e-03	-4.0727304611e-04	1.3155530236e-04	-5.3882834848e-04
34                	1.1010756165e-04	9.9945873548e-03	-2.0917866740e-04	5.5182279545e-06	-2.1469689536e-04
35                	-2.7028503005e-04	1.0463816020e-02	8.0414881793e-04	1.3178937892e-04	6.7235943901e-04
36                	-5.4891688707e-04	1.0552328826e-02	1.6734388685e-03	2.8780254719e-04	1.3856363213e-03
37                	-7.8515847121e-04	1.0415681774e-02	2.1193449641e-03	2.7451401082e-04	1.8448309532e-03
38                	-9.9944404763e-04	1.0486338454e-02	2.2773662898e-03	1.3923909728e-04	2.1381271925e-03
39                	-1.2763304452e-03	1.0786390326e-02	2.6646391237e-03	5.5989116636e-05	2.6086500071e-03
40                	-1.4675520256e-03	1.1154500720e-02	3.0488112995e-03	5.6853624149e-05	2.9919576753e-03
41                	-1.8414427040e-03	1.1144106222e-02	4.0214470625e-03	1.6928082720e-04	3.8521662353e-03
42                	-2.0740168656e-03	1.1033567627e-02	4.6319978343e-03	2.4198205153e-04	4.3900157828e-03
43                	-2.2043041332e-03	1.1011034296e-02	4.8846901999e-03	2.3804096675e-04	4.6466492332e-03
44                	-2.1544708272e-03	1.1033069192e-02	4.7698064767e-03	2.3043241112e-04	4.5393740655e-03
45                	-1.9970620815e-03	1.1039799265e-02	4.5151892835e-03	2.6053256022e-04	4.2546567233e-03
46                	-1.9161641361e-03	1.1028498319e-02	4.4640256514e-03	3.1584868959e-04	4.1481769618e-03
47                	-1.8533009543e-03	1.0991050878e-02	4.4290536315e-03	3.6122586151e-04	4.0678277700e-03
48                	-1.8106328505e-03	1.0980164920e-02	4.3720473227e-03	3.7539081084e-04	3.9966565119e-03
49                	-1.6827732374e-03	1.0946262327e-02	4.1071517721e-03	3.7080264869e-04	3.7363491234e-03
50                	-1.5485489592e-03	1.0896391780e-02	3.9108340454e-03	4.0686806353e-04	3.5039659819e-03
51                	-1.3928887583e-03	1.0830375477e-02	3.6703842532e-03	4.4230336830e-04	3.2280808849e-03
52                	-1.2619834763e-03	1.0782923379e-02	3.4417673124e-03	4.5890017989e-04	2.9828671325e-03
53                	-1.0977670999e-03	1.0769977805e-02	3.1403687540e-03	4.7241727707e-04	2.6679514769e-03
54                	-9.6791469470e-04	1.0803022054e-02	2.8961354718e-03	4.8015304121e-04	2.4159824306e-03
55                	-8.7338323319e-04	1.0846225350e-02	2.7103958160e-03	4.8181467481e-04	2.2285811412e-03
56                	-7.9026574747e-04	1.0857350604e-02	2.5363285620e-03	4.7789853353e-04	2.0584300285e-03
57                	-7.2572891873e-04	1.0834281832e-02	2.4072935330e-03	4.7791784779e-04	1.9293756853e-03
58                	-6.5599466703e-04	1.0795125273e-02	2.2679667946e-03	4.7798873026e-04	1.7899780643e-03
59                	-5.8755758434e-04	1.0786210616e-02	2.1314568856e-03	4.7817085847e-04	1.6532860271e-03
60                	-5.3311542655e-04	1.0813949089e-02	2.0260979252e-03	4.7993353604e-04	1.5461643891e-03
61                	-4.9482835135e-04	1.0870131503e-02	1.9492065375e-03	4.7977491742e-04	1.4694316201e-03
62                	-4.6382757282e-04	1.0899172232e-02	1.8882379912e-03	4.8029142277e-04	1.4079465684e-03
63                	-4.4002027535e-04	1.0902251544e-02	1.8371326144e-03	4.7854603184e-04	1.3585865825e-03
64                	-4.1884280112e-04	1.0900200733e-02	1.7905817100e-03	4.7644805387e-04	1.3141336561e-03
65                	-4.0508129816e-04	1.0894576823e-02	1.7735440708e-03	4.8169073723e-04	1.2918533336e-03
66                	-3.6113215295e-04	1.0918917247e-02	1.6600828563e-03	4.6890927519e-04	1.1911735811e-03
67                	-3.3491584359e-04	1.0930178810e-02	1.6046379762e-03	4.6740314451e-04	1.1372348317e-03
68                	-3.3094399283e-04	1.0922042253e-02	1.6121280352e-03	4.7512002477e-04	1.1370080104e-03
69                	-3.2590961348e-04	1.0950587291e-02	1.6044371170e-03	4.7630894503e-04	1.1281281720e-03
70                	-3.1667257250e-04	1.0995837380e-02	1.5790014685e-03	4.7282816176e-04	1.1061733068e-03
71                	-3.0521478256e-04	1.1015192412e-02	1.5515932862e-03	4.7058186053e-04	1.0810114257e-03
72                	-2.9390042739e-04	1.0995950354e-02	1.5296461115e-03	4.7092262837e-04	1.0587234831e-03
73                	-2.8494837388e-04	1.0949862622e-02	1.5138530902e-03	4.7197817125e-04	1.0418749190e-03
74                	-2.7862311832e-04	1.0909906381e-02	1.4968828856e-03	4.6981832446e-04	1.0270645611e-03
75                	-2.7428412230e-04	1.0893558339e-02	1.4789824298e-03	4.6520709260e-04	1.0137753372e-03
76                	-2.7031177473e-04	1.0894256255e-02	1.4650770825e-03	4.6222676653e-04	1.0028503160e-03
77                	-2.6532236327e-04	1.0909048301e-02	1.4538289608e-03	4.6159211715e-04	9.9223684369e-04
78                	-2.5850736740e-04	1.0918985596e-02	1.4372053060e-03	4.6009528562e-04	9.7711002041e-04
79                	-2.4985063997e-04	1.0903768685e-02	1.4150742350e-03	4.5768647755e-04	9.5738775749e-04
80                	-2.3964170805e-04	1.0879061632e-02	1.3893925770e-03	4.5505458044e-04	9.3433799655e-04
81                	-2.2779831398e-04	1.0858791529e-02	1.3565225480e-03	4.5046296002e-04	9.0605958797e-04
82                	-2.1735282562e-04	1.0844465270e-02	1.3225026236e-03	4.4389848618e-04	8.7860413741e-04
83                	-2.1738404724e-04	1.0840497598e-02	1.3205614361e-03	4.4289667082e-04	8.7766476529e-04
84                	-2.1303346313e-04	1.0817920683e-02	1.3036096829e-03	4.3877137832e-04	8.6483830459e-04
85                	-2.1126400281e-04	1.0810402963e-02	1.2987144534e-03	4.3809322388e-04	8.6062122949e-04
86                	-2.0735229921e-04	1.0798701503e-02	1.2891084745e-03	4.3720193803e-04	8.5190653645e-04
87                	-2.0058521829e-04	1.0788476673e-02	1.2714532130e-03	4.3514138819e-04	8.3631182476e-04
88                	-1.9154026500e-04	1.0790002822e-02	1.2445393394e-03	4.3072940471e-04	8.1380993472e-04
89                	-1.8279121025e-04	1.0808178867e-02	1.2131054670e-03	4.2376152324e-04	7.8934394375e-04
90                	-1.7750228938e-04	1.0833832448e-02	1.1859704129e-03	4.1548291707e-04	7.7048749583e-04
91                	-1.7678931724e-04	1.0846633936e-02	1.1694857738e-03	4.0795356968e-04	7.6153220416e-04
92                	-1.7857058142e-04	1.0830994457e-02	1.1618756875e-03	4.0236726234e-04	7.5950842518e-04
93                	-1.7923714678e-04	1.0784245834e-02	1.1557123145e-03	3.9861901046e-04	7.5709330402e-04
94                	-1.7563936527e-04	1.0716777658e-02	1.1433020366e-03	3.9601165302e-04	7.4729038356e-04
95                	-1.6675178594e-04	1.0649797391e-02	1.1206840775e-03	3.9359025280e-04	7.2709382469e-04
96                	-1.5411431804e-04	1.0602965485e-02	1.0887678724e-03	3.9026961816e-04	6.9849825424e-04
97                	-1.4036789867e-04	1.0586678168e-02	1.0503291428e-03	3.8479667271e-04	6.6553247005e-04
98                	-1.2910820980e-04	1.0604313761e-02	1.0098718637e-03	3.7582772207e-04	6.3404414167e-04
99                	-1.2414744928e-04	1.0708000880e-02	9.3441829759e-04	3.4306169951e-04	5.9135659808e-04
100               	-1.4029134972e-04	1.0663455849e-02	9.6021520368e-04	3.3981625212e-04	6.2039895156e-04
101               	-1.5518619606e-04	1.0540245225e-02	1.0222733994e-03	3.5595050363e-04	6.6632289576e-04
102               	-1.5629456948e-04	1.0462267736e-02	1.0683721803e-03	3.7789152068e-04	6.9048065965e-04
103               	-1.3743992472e-04	1.0527571617e-02	1.0226493874e-03	3.7388476899e-04	6.4876461842e-04
104               	-1.2419201789e-04	1.0602253664e-02	9.4780450854e-04	3.4971023639e-04	5.9809427216e-04
105               	-1.2143629078e-04	1.0623546089e-02	8.9396183214e-04	3.2554462529e-04	5.6841720685e-04
106               	-1.2613267149e-04	1.0583783006e-02	8.8139779816e-04	3.1456622759e-04	5.6683157057e-04
107               	-1.3273426153e-04	1.0513991753e-02	9.0492973667e-04	3.1973060680e-04	5.8519912986e-04
108               	-1.3463936199e-04	1.0468833047e-02	9.3032914642e-04	3.3052521122e-04	5.9980393520e-04
109               	-1.3040299024e-04	1.0467423211e-02	9.2513832121e-04	3.3216617036e-04	5.9297215085e-04
110               	-1.2451775331e-04	1.0485618884e-02	8.9703125699e-04	3.2399787518e-04	5.7303338181e-04
111               	-1.1911617567e-04	1.0505405527e-02	8.5715223603e-04	3.0945994235e-04	5.4769229368e-04
112               	-1.1687428966e-04	1.0507642245e-02	8.2743536572e-04	2.9684339319e-04	5.3059197252e-04
113               	-1.1662993934e-04	1.0485546429e-02	8.1678673646e-04	2.9176342889e-04	5.2502330757e-04
114               	-1.1608563592e-04	1.0459384439e-02	8.1386224883e-04	2.9084548849e-04	5.2301676034e-04
115               	-1.1478246945e-04	1.0443407655e-02	8.0884044950e-04	2.8963775529e-04	5.1920269420e-04
116               	-1.1351665698e-04	1.0441425946e-02	8.0001470367e-04	2.8649069486e-04	5.1352400881e-04
117               	-1.1329490045e-04	1.0440583222e-02	7.9028708781e-04	2.8184864346e-04	5.0843844435e-04
118               	-1.1364072510e-04	1.0430069233e-02	7.8146578809e-04	2.7709216894e-04	5.0437361915e-04
119               	-1.1284446512e-04	1.0416455587e-02	7.6969893202e-04	2.7200500089e-04	4.9769393113e-04
120               	-1.1039067222e-04	1.0409106557e-02	7.5199197312e-04	2.6560531435e-04	4.8638665878e-04
121               	-1.0770283552e-04	1.0407823537e-02	7.3303126542e-04	2.5881279719e-04	4.7421846822e-04
122               	-1.0704449841e-04	1.0402538899e-02	7.2278103180e-04	2.5434601749e-04	4.6843501431e-04
123               	-1.0838019749e-04	1.0391259087e-02	7.2119878347e-04	2.5221919425e-04	4.6897958922e-04
124               	-1.0959609565e-04	1.0380593053e-02	7.1892598967e-04	2.4986689918e-04	4.6905909049e-04
125               	-1.0916648134e-04	1.0375163993e-02	7.0944211084e-04	2.4555457408e-04	4.6388753676e-04
126               	-1.0749737425e-04	1.0371179249e-02	6.9510459182e-04	2.4005492166e-04	4.5504967016e-04
127               	-1.0609733205e-04	1.0361739666e-02	6.8344678684e-04	2.3562606137e-04	4.4782072547e-04
128               	-1.0540089770e-04	1.0348953795e-02	6.7598397929e-04	2.3259109195e-04	4.4339288734e-04
129               	-1.0494390109e-04	1.0339049819e-02	6.6899025003e-04	2.2955122392e-04	4.3943902611e-04
130               	-1.0432814249e-04	1.0334218734e-02	6.5970650306e-04	2.2552510904e-04	4.3418139402e-04
131               	-1.0386809953e-04	1.0329575062e-02	6.4992616318e-04	2.2109498206e-04	4.2883118113e-04
132               	-1.0409996255e-04	1.0320867371e-02	6.4269508213e-04	2.1724757852e-04	4.2544750361e-04
133               	-1.0461589723e-04	1.0310640185e-02	6.3683373355e-04	2.1380096955e-04	4.2303276400e-04
134               	-1.0471525588e-04	1.0302703777e-02	6.2978842943e-04	2.1017895883e-04	4.1960947060e-04
135               	-1.0436693364e-04	1.0296577179e-02	6.2183379901e-04	2.0654996586e-04	4.1528383314e-04
136               	-1.0394913094e-04	1.0288745361e-02	6.1490872296e-04	2.0350523054e-04	4.1140349242e-04
137               	-1.0366464755e-04	1.0278609614e-02	6.0922841233e-04	2.0094955861e-04	4.0827885372e-04
138               	-1.0347328006e-04	1.0268800014e-02	6.0349411199e-04	1.9827377594e-04	4.0522033605e-04
139               	-1.0324203427e-04	1.0261216209e-02	5.9666499115e-04	1.9509046130e-04	4.0157452985e-04
140               	-1.0292040386e-04	1.0254783899e-02	5.8921979319e-04	1.9168949274e-04	3.9753030045e-04
141               	-1.0250472375e-04	1.0247438950e-02	5.8212816216e-04	1.8855935733e-04	3.9356880484e-04
142               	-1.0190392254e-04	1.0239080718e-02	5.7521449602e-04	1.8570332547e-04	3.8951117055e-04
143               	-1.0121050485e-04	1.0230770424e-02	5.6816500525e-04	1.8287199777e-04	3.8529300747e-04
144               	-1.0088126946e-04	1.0222655976e-02	5.6180764714e-04	1.8002255411e-04	3.8178509303e-04
145               	-1.0122396842e-04	1.0213839322e-02	5.5714043501e-04	1.7734624908e-04	3.7979418593e-04
146               	-1.0218352379e-04	1.0204092127e-02	5.5435710540e-04	1.7499502891e-04	3.7936207649e-04
147               	-1.0334699597e-04	1.0194562046e-02	5.5239606083e-04	1.7285103445e-04	3.7954502638e-04
148               	-1.0425560435e-04	1.0186456532e-02	5.4985372685e-04	1.7067125908e-04	3.7918246778e-04
149               	-1.0478607154e-04	1.0179572189e-02	5.4632596051e-04	1.6837690872e-04	3.7794905179e-04
150               	-1.0506464903e-04	1.0172468659e-02	5.4228230020e-04	1.6607650107e-04	3.7620579913e-04
151               	-1.0528748646e-04	1.0164242694e-02	5.3838620034e-04	1.6390561371e-04	3.7448058663e-04
152               	-1.0553220159e-04	1.0155398943e-02	5.3481190502e-04	1.6187375092e-04	3.7293815410e-04
153               	-1.0570288702e-04	1.0146844201e-02	5.3124193819e-04	1.5991808207e-04	3.7132385612e-04
154               	-1.0570582820e-04	1.0138726977e-02	5.2751828362e-04	1.5805331361e-04	3.6946497001e-04
155               	-1.0551719560e-04	1.0130561659e-02	5.2372103649e-04	1.5634332265e-04	3.6737771384e-04
156               	-1.0513586758e-04	1.0122169727e-02	5.1980138240e-04	1.5476482362e-04	3.6503655878e-04
157               	-1.0455420004e-04	1.0113927296e-02	5.1549197655e-04	1.5319178823e-04	3.6230018832e-04
158               	-1.0384203179e-04	1.0106126726e-02	5.1077299694e-04	1.5154446668e-04	3.5922853026e-04
159               	-1.0317402004e-04	1.0098526739e-02	5.0612827711e-04	1.4989011852e-04	3.5623815860e-04
160               	-1.0270474455e-04	1.0090706382e-02	5.0212308357e-04	1.4835679723e-04	3.5376628634e-04
161               	-1.0245936353e-04	1.0082618554e-02	4.9889944764e-04	1.4699036029e-04	3.5190908734e-04
162               	-1.0234986370e-04	1.0074531151e-02	4.9617043904e-04	1.4573535582e-04	3.5043508322e-04
163               	-1.0227581795e-04	1.0066574121e-02	4.9360147157e-04	1.4452491784e-04	3.4907655373e-04
164               	-1.0221869332e-04	1.0058603068e-02	4.9110230273e-04	1.4333245805e-04	3.4776984468e-04
165               	-1.0219290271e-04	1.0050509649e-02	4.8869745989e-04	1.4215582724e-04	3.4654163265e-04
166               	-1.0219126970e-04	1.0042443827e-02	4.8635713586e-04	1.4098729823e-04	3.4536983762e-04
167               	-1.0218605804e-04	1.0034616946e-02	4.8402452291e-04	1.3982620341e-04	3.4419831950e-04
168               	-1.0215268036e-04	1.0027013264e-02	4.8171313829e-04	1.3870388878e-04	3.4300924951e-04
169               	-1.0207816791e-04	1.0019416940e-02	4.7949057330e-04	1.3766711874e-04	3.4182345456e-04
170               	-1.0137976270e-04	1.0013551194e-02	4.7302893843e-04	1.3513470651e-04	3.3789423191e-04
171               	-1.0156553181e-04	1.0001028491e-02	4.7262556068e-04	1.3474724853e-04	3.3787831215e-04
172               	-1.0197648524e-04	9.9873989347e-03	4.7457202041e-04	1.3530952497e-04	3.3926249544e-04
173               	-1.0172951321e-04	9.9799370307e-03	4.7385986178e-04	1.3520041768e-04	3.3865944410e-04
174               	-1.0078951572e-04	9.9779964184e-03	4.6957524998e-04	1.3399810927e-04	3.3557714071e-04
175               	-9.9840804875e-05	9.9748704795e-03	4.6451704072e-04	1.3241771548e-04	3.3209932523e-04
176               	-9.9446550726e-05	9.9662613136e-03	4.6151906025e-04	1.3131297940e-04	3.3020608085e-04
177               	-9.9509557253e-05	9.9542325427e-03	4.6078783081e-04	1.3088435815e-04	3.2990347266e-04
178               	-9.9512372728e-05	9.9436403095e-03	4.6044415508e-04	1.3070970481e-04	3.2973445027e-04
179               	-9.9129921326e-05	9.9368095618e-03	4.5886275774e-04	1.3030145754e-04	3.2856130020e-04
180               	-9.8508515675e-05	9.9320701228e-03	4.5611880978e-04	1.2955088922e-04	3.2656792057e-04
181               	-9.8016324155e-05	9.9263723585e-03	4.5344567370e-04	1.2870651270e-04	3.2473916101e-04
182               	-9.7833271054e-05	9.9184421662e-03	4.5173600321e-04	1.2803473055e-04	3.2370127266e-04
183               	-9.7823660218e-05	9.9093250653e-03	4.5082701574e-04	1.2758984765e-04	3.2323716809e-04
184               	-9.7734687297e-05	9.9007181183e-03	4.4997544581e-04	1.2725303561e-04	3.2272241020e-04
185               	-9.7439974045e-05	9.8933783491e-03	4.4865306989e-04	1.2688656090e-04	3.2176650899e-04
186               	-9.7004220597e-05	9.8868654021e-03	4.4688892475e-04	1.2644024178e-04	3.2044868297e-04
187               	-9.6571727763e-05	9.8802834161e-03	4.4505671885e-04	1.2595663166e-04	3.1910008719e-04
188               	-9.6223800953e-05	9.8730852852e-03	4.4346155970e-04	1.2550697889e-04	3.1795458080e-04
189               	-9.5930355836e-05	9.8653476999e-03	4.4211550079e-04	1.2512739456e-04	3.1698810623e-04
190               	-9.5607861446e-05	9.8575271609e-03	4.4082155949e-04	1.2480291830e-04	3.1601864119e-04
191               	-9.5205636690e-05	9.8500353992e-03	4.3940060214e-04	1.2449466438e-04	3.1490593776e-04
192               	-9.4739736195e-05	9.8429646603e-03	4.3782965590e-04	1.2417509175e-04	3.1365456414e-04
193               	-9.4265002711e-05	9.8361002924e-03	4.3621537464e-04	1.2384268461e-04	3.1237269003e-04
194               	-9.3824075929e-05	9.8291478424e-03	4.3467247530e-04	1.2351216172e-04	3.1116031358e-04
195               	-9.3336812791e-05	9.8219396862e-03	4.3252424037e-04	1.2292530739e-04	3.0959893298e-04
196               	-9.3139315723e-05	9.8135298857e-03	4.3231245209e-04	1.2301691032e-04	3.0929554177e-04
197               	-9.2686513236e-05	9.8062927157e-03	4.3057700230e-04	1.2260198791e-04	3.0797501439e-04
198               	-9.2224916055e-05	9.7995151135e-03	4.2896960187e-04	1.2225988488e-04	3.0670971699e-04
199               	-9.1828695215e-05	9.7925201046e-03	4.2771898671e-04	1.2203079814e-04	3.0568818857e-04
200               	-9.1470999071e-05	9.7853858395e-03	4.2660528846e-04	1.2183164516e-04	3.0477364330e-04
201               	-9.1091642979e-05	9.7784397198e-03	4.2535265602e-04	1.2158468503e-04	3.0376797099e-04
202               	-9.0674307771e-05	9.7716370888e-03	4.2393698957e-04	1.2129418701e-04	3.0264280255e-04
203               	-9.0245548762e-05	9.7646861453e-03	4.2251640140e-04	1.2101265194e-04	3.0150374946e-04
204               	-8.9825229843e-05	9.7575140705e-03	4.2119121133e-04	1.2077037582e-04	3.0042083551e-04
205               	-8.9403490771e-05	9.7503550883e-03	4.1991112320e-04	1.2055207083e-04	2.9935905237e-04
206               	-8.8961369939e-05	9.7434360389e-03	4.1857650102e-04	1.2032688057e-04	2.9824962045e-04
207               	-8.8496286598e-05	9.7367262118e-03	4.1715863646e-04	1.2008303163e-04	2.9707560483e-04
208               	-8.8021592171e-05	9.7300212417e-03	4.1570614039e-04	1.1983147802e-04	2.9587466237e-04
209               	-8.7548252302e-05	9.7231866111e-03	4.1426932393e-04	1.1958640966e-04	2.9468291427e-04
210               	-8.7073756282e-05	9.7162683919e-03	4.1284728933e-04	1.1934988838e-04	2.9349740095e-04
211               	-8.6588401218e-05	9.7093962575e-03	4.1140412966e-04	1.1911366361e-04	2.9229046605e-04
212               	-8.6088226509e-05	9.7026403314e-03	4.0991423384e-04	1.1886889041e-04	2.9104534343e-04
213               	-8.5579875705e-05	9.6959704343e-03	4.0838779693e-04	1.1861402276e-04	2.8977377417e-04
214               	-8.5074743219e-05	9.6893169716e-03	4.0685509246e-04	1.1835280301e-04	2.8850228945e-04
215               	-8.4579871660e-05	9.6826422754e-03	4.0533694859e-04	1.1808860263e-04	2.8724834595e-04
216               	-8.4094272033e-05	9.6759584202e-03	4.0383171925e-04	1.1782158759e-04	2.8601013166e-04
217               	-8.3612469927e-05	9.6693005755e-03	4.0232489091e-04	1.1754997553e-04	2.8477491538e-04
218               	-8.3130272911e-05	9.6626903154e-03	4.0080564972e-04	1.1727255195e-04	2.8353309777e-04
219               	-8.2647338915e-05	9.6561230408e-03	3.9927406450e-04	1.1698969334e-04	2.8228437117e-04
220               	-8.2165683462e-05	9.6495815815e-03	3.9773627488e-04	1.1670245398e-04	2.8103382090e-04
221               	-8.1686882851e-05	9.6430514523e-03	3.9619648137e-04	1.1641135783e-04	2.7978512353e-04
222               	-8.1210894276e-05	9.6365320878e-03	3.9465389658e-04	1.1611605402e-04	2.7853784257e-04
223               	-8.0736773044e-05	9.6300312168e-03	3.9310529541e-04	1.1581587466e-04	2.7728942075e-04
224               	-8.0266605254e-05	9.6235583518e-03	3.9155589385e-04	1.1551134167e-04	2.7604455218e-04
225               	-7.9806055809e-05	9.6171180178e-03	3.9001928363e-04	1.1520358600e-04	2.7481569762e-04
226               	-7.9355451524e-05	9.6107067235e-03	3.8849516397e-04	1.1489213046e-04	2.7360303351e-04
227               	-7.8908544460e-05	9.6043178212e-03	3.8696931931e-04	1.1457611520e-04	2.7239320412e-04
228               	-7.8460885236e-05	9.5979465897e-03	3.8543131773e-04	1.1425477363e-04	2.7117654410e-04
229               	-7.7994627449e-05	9.5914342043e-03	3.8372964214e-04	1.1387019362e-04	2.6985944852e-04
230               	-7.7585138560e-05	9.5850718320e-03	3.8241302639e-04	1.1362137464e-04	2.6879165176e-04
231               	-7.7114833177e-05	9.5786872410e-03	3.8073217466e-04	1.1325125415e-04	2.6748092050e-04
232               	-7.6645199070e-05	9.5724620937e-03	3.7907915802e-04	1.1289437994e-04	2.6618477808e-04
233               	-7.6190175595e-05	9.5662396082e-03	3.7750265076e-04	1.1256114978e-04	2.6494150097e-04
234               	-7.5737564264e-05	9.5599930529e-03	3.7593340859e-04	1.1222914003e-04	2.6370426856e-04
235               	-7.5273153285e-05	9.5537841123e-03	3.7430092148e-04	1.1187730746e-04	2.6242361402e-04
236               	-7.4799483623e-05	9.5476268760e-03	3.7261284438e-04	1.1150693857e-04	2.6110590581e-04
237               	-7.4329708460e-05	9.5414718970e-03	3.7092409875e-04	1.1113234092e-04	2.5979175784e-04
238               	-7.3866923480e-05	9.5352937612e-03	3.6925495173e-04	1.1076055239e-04	2.5849439935e-04
239               	-7.3404210266e-05	9.5291282748e-03	3.6758537980e-04	1.1038847963e-04	2.5719690016e-04
240               	-7.2938315496e-05	9.5230226192e-03	3.6589656408e-04	1.1000996654e-04	2.5588659754e-04
241               	-7.2473060005e-05	9.5169785711e-03	3.6419246704e-04	1.0962317352e-04	2.5456929353e-04
242               	-7.2015233004e-05	9.5109577299e-03	3.6249235514e-04	1.0923094457e-04	2.5326141057e-04
243               	-7.1569268065e-05	9.5049291776e-03	3.6081146455e-04	1.0883646421e-04	2.5197500034e-04
244               	-7.1134863761e-05	9.4988979972e-03	3.5915042287e-04	1.0844034767e-04	2.5071007519e-04
245               	-7.0709540879e-05	9.4928913877e-03	3.5750135672e-04	1.0804113748e-04	2.4946021924e-04
246               	-7.0290908253e-05	9.4869267127e-03	3.5585728096e-04	1.0763773223e-04	2.4821954873e-04
247               	-6.9878616732e-05	9.4809981910e-03	3.5421841905e-04	1.0723059279e-04	2.4698782626e-04
248               	-6.9473672977e-05	9.4750893876e-03	3.5258936617e-04	1.0682101011e-04	2.4576835606e-04
249               	-6.9076437325e-05	9.4691922078e-03	3.5097241250e-04	1.0640976892e-04	2.4456264357e-04
250               	-6.8685592970e-05	9.4633091192e-03	3.4936485958e-04	1.0599683682e-04	2.4336802276e-04
251               	-6.8298826154e-05	9.4574478930e-03	3.4776175323e-04	1.0558205046e-04	2.4217970277e-04
252               	-6.7914239588e-05	9.4516133512e-03	3.4615984348e-04	1.0516568215e-04	2.4099416133e-04
253               	-6.7531135269e-05	9.4458039804e-03	3.4455885580e-04	1.0474829263e-04	2.3981056317e-04
254               	-6.7149835234e-05	9.4400151590e-03	3.4296024033e-04	1.0433028493e-04	2.3862995540e-04
255               	-6.6771085736e-05	9.4342441390e-03	3.4136561708e-04	1.0391172280e-04	2.3745389427e-04
256               	-6.6396047195e-05	9.4284916724e-03	3.3977704798e-04	1.0349247679e-04	2.3628457118e-04
257               	-6.6026324624e-05	9.4227601722e-03	3.3819765669e-04	1.0307250372e-04	2.3512515297e-04
258               	-6.5662827093e-05	9.4170513653e-03	3.3662981044e-04	1.0265207812e-04	2.3397773231e-04
259               	-6.5306116847e-05	9.4113649028e-03	3.3507553424e-04	1.0223165027e-04	2.3284388397e-04
260               	-6.4955659513e-05	9.4056995273e-03	3.3353471421e-04	1.0181169759e-04	2.3172301662e-04
261               	-6.4611453022e-05	9.4000538723e-03	3.3200785023e-04	1.0139247209e-04	2.3061537814e-04
262               	-6.4273816491e-05	9.3944274995e-03	3.3049571777e-04	1.0097404239e-04	2.2952167538e-04
263               	-6.3942721619e-05	9.3888211839e-03	3.2899846010e-04	1.0055650843e-04	2.2844195167e-04
264               	-6.3617737851e-05	9.3832358621e-03	3.2751567378e-04	1.0014009904e-04	2.2737557474e-04
265               	-6.3298175796e-05	9.3776718307e-03	3.2604660816e-04	9.9725128286e-05	2.2632147988e-04
266               	-6.2984420184e-05	9.3721287141e-03	3.2459204789e-04	9.9311603760e-05	2.2528044413e-04
267               	-6.2677240148e-05	9.3666058918e-03	3.2315348068e-04	9.8899500194e-05	2.2425398049e-04
268               	-6.2376344522e-05	9.3611027862e-03	3.2173105117e-04	9.8489181062e-05	2.2324187011e-04
269               	-6.2079861732e-05	9.3556194118e-03	3.2032205511e-04	9.8081165822e-05	2.2224088929e-04
270               	-6.1780123195e-05	9.3501568164e-03	3.1891240007e-04	9.7676076841e-05	2.2123632323e-04
271               	-6.1473647535e-05	9.3447150355e-03	3.1749638151e-04	9.7274543221e-05	2.2022183829e-04
272               	-6.1164779595e-05	9.3392931908e-03	3.1608171003e-04	9.6876075422e-05	2.1920563461e-04
273               	-6.0857140631e-05	9.3338907671e-03	3.1467411224e-04	9.6479915489e-05	2.1819419675e-04
274               	-6.0552548813e-05	9.3285078141e-03	3.1327646493e-04	9.6085683651e-05	2.1719078128e-04
275               	-6.0251410428e-05	9.3231445764e-03	3.1188972468e-04	9.5693451910e-05	2.1619627277e-04
276               	-5.9953691707e-05	9.3178012245e-03	3.1051426731e-04	9.5303441945e-05	2.1521082536e-04
277               	-5.9659525938e-05	9.3124776781e-03	3.0915061464e-04	9.4915781382e-05	2.1423483326e-04
278               	-5.9369198391e-05	9.3071737043e-03	3.0779939846e-04	9.4530500837e-05	2.1326889762e-04
279               	-5.9082890258e-05	9.3018890441e-03	3.0646107133e-04	9.4147645408e-05	2.1231342592e-04