/*--------------------------------*- C++ -*----------------------------------*\
  =========                 |
  \\      /  F ield         | OpenFOAM: The Open Source CFD Toolbox
   \\    /   O peration     | Website:  https://openfoam.org
    \\  /    A nd           | Version:  12
     \\/     M anipulation  |
\*---------------------------------------------------------------------------*/
FoamFile
{
    format      ascii;
    class       volScalarField;
    location    "0.052";
    object      alphat;
}
// * * * * * * * * * * * * * * * * * * * * * * * * * * * * * * * * * * * * * //

dimensions      [1 -1 -1 0 0 0 0];

internalField   nonuniform List<scalar> 
16000
(
5.0194767e-07
1.0796779e-05
1.9584275e-05
2.5897125e-05
1.9903723e-05
2.7304483e-05
1.9353283e-05
2.6439351e-05
2.0726914e-05
2.843359e-05
2.4050535e-05
2.8161371e-05
2.5746139e-05
2.6415843e-05
2.5556046e-05
2.5424725e-05
2.5182247e-05
2.5131532e-05
2.5167939e-05
2.5312497e-05
2.5557989e-05
2.5903331e-05
2.6346179e-05
2.6886997e-05
2.7528209e-05
2.8276724e-05
2.9141603e-05
3.0137227e-05
3.1281074e-05
3.2591995e-05
3.4090781e-05
3.5805015e-05
3.7770263e-05
4.0030367e-05
4.2639264e-05
4.5661356e-05
4.9173431e-05
5.3267185e-05
5.8056223e-05
6.3681373e-05
7.0308207e-05
7.8132312e-05
8.7400572e-05
9.8415855e-05
0.00011153959
0.00012720691
0.0001459592
0.00016845976
0.0001955218
0.00022814414
0.00026755947
0.00031529498
0.00037324318
0.00044376304
0.00052980233
0.00063506493
0.00076424048
0.00092332985
0.0011200425
0.0011856664
0.0011862438
0.0011866431
0.0011867546
0.0011865944
0.0011862068
0.0011856745
0.0011851118
0.0011846513
0.001184412
0.0011844389
0.0011846309
0.0011846974
0.001184365
0.0011837172
0.00118242
0.001180318
0.0011774299
0.0011724904
0.0011690764
0.0011722702
4.4665974e-07
1.0236473e-05
2.1362252e-05
2.334938e-05
1.7933617e-05
2.4498122e-05
1.7161442e-05
2.3171487e-05
1.8283979e-05
2.5120242e-05
2.1744679e-05
2.5379806e-05
2.3521095e-05
2.3920491e-05
2.3251576e-05
2.3066852e-05
2.2867652e-05
2.2811845e-05
2.2848781e-05
2.2981874e-05
2.3209364e-05
2.352985e-05
2.394158e-05
2.4445212e-05
2.5042616e-05
2.5740291e-05
2.6546141e-05
2.7473163e-05
2.8537926e-05
2.9758826e-05
3.115524e-05
3.2752425e-05
3.458335e-05
3.6688684e-05
3.9118983e-05
4.193494e-05
4.5209414e-05
4.9028822e-05
5.3499374e-05
5.8754916e-05
6.4955179e-05
7.228519e-05
8.0978674e-05
9.1326013e-05
0.00010367641
0.00011844636
0.00013615618
0.00015744593
0.00018310274
0.00021409515
0.00025162019
0.00029716564
0.00035257857
0.00042016744
0.00050282339
0.0006041842
0.00072885483
0.00088271826
0.0010733434
0.001185375
0.0011859173
0.0011862859
0.0011863842
0.0011862297
0.0011858661
0.0011853732
0.0011848569
0.0011844379
0.0011842232
0.0011842502
0.0011844222
0.0011844635
0.0011840631
0.0011833284
0.001181973
0.0011798699
0.0011768701
0.0011724579
0.0011693685
0.0011716136
4.0047359e-07
9.8020282e-06
2.0191583e-05
2.1279901e-05
1.6045779e-05
2.1566133e-05
1.526695e-05
2.013199e-05
1.6424934e-05
2.2030465e-05
1.9807036e-05
2.2586944e-05
2.1289273e-05
2.1411402e-05
2.0901132e-05
2.0695028e-05
2.0530718e-05
2.0480919e-05
2.0521051e-05
2.0647938e-05
2.0861336e-05
2.1160305e-05
2.154336e-05
2.2011527e-05
2.2566262e-05
2.3213854e-05
2.3961417e-05
2.4820771e-05
2.5807412e-05
2.6939303e-05
2.8234896e-05
2.9717635e-05
3.1418379e-05
3.3375111e-05
3.5635455e-05
3.8256766e-05
4.130852e-05
4.4873126e-05
4.90507e-05
5.3968202e-05
5.9780797e-05
6.6665646e-05
7.4845443e-05
8.4599161e-05
9.6266848e-05
0.00011025058
0.00012705371
0.0001472977
0.00017174887
0.00020135217
0.00023727611
0.00028097715
0.00033426531
0.00039940642
0.00047924148
0.00057734734
0.00069824732
0.0008477057
0.0010331209
0.0011852528
0.0011857389
0.0011860533
0.0011861144
0.0011859439
0.0011855852
0.0011851162
0.0011846371
0.0011842562
0.0011840641
0.001184083
0.001184214
0.0011842164
0.0011837553
0.0011829507
0.0011815608
0.0011794498
0.0011764569
0.0011724781
0.0011696183
0.0011717077
3.6073225e-07
9.4720378e-06
1.9150034e-05
1.9814724e-05
1.4418351e-05
1.9033906e-05
1.3595212e-05
1.7586809e-05
1.4772991e-05
1.9412445e-05
1.8067103e-05
2.0122056e-05
1.9237963e-05
1.9158757e-05
1.8766181e-05
1.856018e-05
1.8426337e-05
1.8387765e-05
1.8433993e-05
1.855855e-05
1.8761858e-05
1.9043522e-05
1.9402325e-05
1.9839777e-05
2.0357073e-05
2.0960432e-05
2.1656457e-05
2.2456041e-05
2.3373668e-05
2.442696e-05
2.5633779e-05
2.7016047e-05
2.8602935e-05
3.0430145e-05
3.2542851e-05
3.4995561e-05
3.7854866e-05
4.1200098e-05
4.5126583e-05
4.9754869e-05
5.5236731e-05
6.1743513e-05
6.948917e-05
7.8742588e-05
8.9837616e-05
0.00010316558
0.00011921678
0.00013859862
0.00016206181
0.00019053472
0.00022516478
0.00026738653
0.00031898366
0.00038219179
0.00045981578
0.00055538899
0.00067337657
0.00081945644
0.0010009015
0.0011853321
0.0011857493
0.0011859957
0.0011860063
0.0011858065
0.0011854391
0.0011849786
0.0011845193
0.0011841574
0.0011839662
0.0011839532
0.0011840182
0.001183943
0.0011834304
0.0011825871
0.001181198
0.0011791018
0.0011761639
0.0011726216
0.0011699137
0.0011716195
3.1977009e-07
9.2256714e-06
1.8244722e-05
1.9779961e-05
1.4421053e-05
1.6828788e-05
1.2130723e-05
1.5406376e-05
1.3355753e-05
1.7158218e-05
1.6523971e-05
1.7906677e-05
1.733081e-05
1.7116093e-05
1.6810682e-05
1.6619647e-05
1.6511128e-05
1.648448e-05
1.6535658e-05
1.6657419e-05
1.6850433e-05
1.7115043e-05
1.745037e-05
1.7858462e-05
1.8340468e-05
1.8902593e-05
1.9551091e-05
2.0296131e-05
2.1151198e-05
2.2133537e-05
2.3260643e-05
2.455319e-05
2.6038974e-05
2.7751752e-05
2.9734615e-05
3.2039623e-05
3.4730822e-05
3.7885108e-05
4.1594306e-05
4.5972875e-05
5.1169845e-05
5.7352416e-05
6.4727946e-05
7.355593e-05
8.4165998e-05
9.6941618e-05
0.00011236278
0.00013102601
0.00015366979
0.00018121073
0.00021478001
0.0002557963
0.00030602358
0.00036767485
0.00044352728
0.00053708041
0.00065275547
0.00079616254
0.00097446805
0.0011855967
0.0011859319
0.0011860957
0.0011860409
0.0011857968
0.001185406
0.0011849389
0.0011844832
0.0011841227
0.0011839128
0.0011838473
0.0011838297
0.0011836713
0.0011831146
0.0011822624
0.0011809008
0.0011788442
0.0011760117
0.0011728608
0.0011703337
0.0011716834
2.9599748e-07
9.0740201e-06
1.752798e-05
1.9491133e-05
1.4127272e-05
1.4903333e-05
1.1485519e-05
1.3608407e-05
1.2419731e-05
1.5265181e-05
1.517751e-05
1.5966509e-05
1.5595829e-05
1.5301766e-05
1.5051444e-05
1.4877433e-05
1.4785344e-05
1.4766141e-05
1.4818403e-05
1.493508e-05
1.5116799e-05
1.5364537e-05
1.5677691e-05
1.6058518e-05
1.6508467e-05
1.7033565e-05
1.7639815e-05
1.8336827e-05
1.913712e-05
2.0057529e-05
2.1115378e-05
2.2330347e-05
2.3729162e-05
2.5343979e-05
2.7216213e-05
2.9395919e-05
3.1945019e-05
3.4938526e-05
3.8466151e-05
4.2637134e-05
4.7598058e-05
5.3513682e-05
6.0587465e-05
6.907045e-05
7.9290107e-05
9.1625315e-05
0.00010654894
0.00012465053
0.00014666024
0.00017348887
0.00020625724
0.00024637556
0.00029559669
0.00035612096
0.00043070976
0.0005228423
0.00063691325
0.0007784876
0.0009546524
0.0011744079
0.0011862782
0.0011863476
0.0011862147
0.0011859127
0.001185484
0.0011849947
0.0011845248
0.0011841457
0.001183896
0.0011837584
0.0011836448
0.0011834021
0.0011828158
0.0011819845
0.0011806756
0.0011786827
0.0011759864
0.0011732058
0.001170886
0.0011719766
2.6999682e-07
8.9876198e-06
1.6968194e-05
1.8431338e-05
1.4007428e-05
1.3168433e-05
1.1510294e-05
1.2534032e-05
1.1922333e-05
1.3622841e-05
1.3973869e-05
1.4257352e-05
1.3992878e-05
1.3664504e-05
1.3445244e-05
1.3288094e-05
1.3208045e-05
1.3194907e-05
1.3247818e-05
1.3360316e-05
1.3532572e-05
1.3766077e-05
1.4060642e-05
1.4333574e-05
1.4745859e-05
1.5230207e-05
1.5791971e-05
1.6439995e-05
1.7185623e-05
1.8044912e-05
1.9034974e-05
2.0174519e-05
2.1489288e-05
2.3009904e-05
2.4776215e-05
2.683644e-05
2.9250495e-05
3.2091524e-05
3.544796e-05
3.9721795e-05
4.4493282e-05
5.0196341e-05
5.703329e-05
6.5248021e-05
7.516699e-05
8.7167739e-05
0.00010171916
0.0001194075
0.00014095799
0.00016728138
0.00019949364
0.00023900348
0.00028756084
0.00034736305
0.00042116747
0.00051244637
0.00062558423
0.00076612199
0.0009410888
0.0011593857
0.0011867732
0.0011867384
0.0011865165
0.0011861435
0.0011856624
0.0011851345
0.0011846314
0.0011842127
0.0011839035
0.0011836801
0.0011834665
0.0011831475
0.0011825598
0.0011817746
0.0011805363
0.0011786256
0.0011760789
0.0011736206
0.0011716018
0.0011724387
2.4153537e-07
8.9397736e-06
1.6490732e-05
1.677253e-05
1.2832345e-05
1.1478664e-05
9.962091e-06
1.118602e-05
1.049351e-05
1.2247499e-05
1.2766012e-05
1.2690573e-05
1.2467064e-05
1.2147994e-05
1.1954176e-05
1.1818543e-05
1.1753065e-05
1.1749075e-05
1.173454e-05
1.182882e-05
1.1982626e-05
1.2196372e-05
1.2468862e-05
1.2799775e-05
1.3194215e-05
1.3656109e-05
1.4190891e-05
1.4807349e-05
1.5516246e-05
1.63332e-05
1.7275584e-05
1.8361615e-05
1.9616597e-05
2.1070207e-05
2.2761425e-05
2.4737357e-05
2.7056782e-05
2.9791785e-05
3.3030554e-05
3.6880803e-05
4.1474306e-05
4.6978315e-05
5.3596035e-05
6.2084319e-05
7.1793539e-05
8.3567318e-05
9.7874174e-05
0.00011530065
0.00013657071
0.00016260122
0.00019450922
0.00023370952
0.00028195817
0.00034146019
0.00041498185
0.00050600315
0.00061891538
0.0007592573
0.00093402132
0.0011520229
0.0011873989
0.0011872519
0.0011869314
0.0011864757
0.0011859277
0.0011853442
0.0011847885
0.0011843104
0.0011839257
0.0011836109
0.0011833058
0.0011829242
0.0011823708
0.0011816491
0.0011804884
0.0011786705
0.0011762778
0.0011740271
0.0011724431
0.00117299
2.2237854e-07
8.8943029e-06
1.5997889e-05
1.4688967e-05
1.0561499e-05
1.0205897e-05
8.2138574e-06
9.5398992e-06
9.7463946e-06
1.1023612e-05
1.1544183e-05
1.1235654e-05
1.1030824e-05
1.0746224e-05
1.0578287e-05
1.0393752e-05
1.0317558e-05
1.0308201e-05
1.0358599e-05
1.0465655e-05
1.062435e-05
1.0838764e-05
1.1106095e-05
1.1427486e-05
1.1807839e-05
1.2251896e-05
1.2765206e-05
1.3356611e-05
1.4036483e-05
1.4819983e-05
1.5724853e-05
1.6769071e-05
1.7977827e-05
1.9380166e-05
2.1014578e-05
2.2927555e-05
2.5177271e-05
2.7835344e-05
3.0989563e-05
3.4747119e-05
3.9240674e-05
4.4635817e-05
5.1139755e-05
5.8994681e-05
6.8512069e-05
8.0081438e-05
9.5005721e-05
0.00011232209
0.00013349128
0.00015944234
0.00019129987
0.0002304926
0.00027879214
0.00033842236
0.00041217206
0.00050354425
0.0006169537
0.00075795818
0.00093353662
0.0011524311
0.0011881336
0.0011878673
0.0011874406
0.0011868916
0.0011862629
0.0011856072
0.0011849809
0.0011844268
0.0011839572
0.0011835558
0.0011831806
0.0011827564
0.0011822711
0.0011816178
0.0011805269
0.0011787957
0.0011765679
0.0011744697
0.0011733726
0.001173777
2.0455834e-07
8.850156e-06
1.4471932e-05
1.2806691e-05
8.5499108e-06
9.0654515e-06
7.2913628e-06
8.6144949e-06
9.028654e-06
9.8682047e-06
1.0335988e-05
9.9104359e-06
9.7112567e-06
9.3755523e-06
9.1970763e-06
9.0882879e-06
9.046874e-06
9.0635983e-06
9.131217e-06
9.2507737e-06
9.4163555e-06
9.6302852e-06
9.8943584e-06
1.0208795e-05
1.0578813e-05
1.1009626e-05
1.1506952e-05
1.2079831e-05
1.2738399e-05
1.3497389e-05
1.4374982e-05
1.5389257e-05
1.6565546e-05
1.7932572e-05
1.9528696e-05
2.1400254e-05
2.3605308e-05
2.6215612e-05
2.9319602e-05
3.3025322e-05
3.7466022e-05
4.2807468e-05
4.9261312e-05
5.7070859e-05
6.6551569e-05
7.8097071e-05
9.219583e-05
0.00010942731
0.00013172386
0.00015781263
0.00018987895
0.00022937322
0.00027809282
0.00033829204
0.00041279648
0.00050514815
0.00061980166
0.00076235413
0.00093979631
0.0011608119
0.001188952
0.001188561
0.0011880219
0.0011873705
0.0011866489
0.0011859065
0.0011851951
0.0011845545
0.0011839999
0.0011835257
0.0011831083
0.001182683
0.0011822686
0.0011816736
0.0011806331
0.0011789707
0.0011768539
0.0011749354
0.0011743443
0.0011746469
1.8864907e-07
8.8044767e-06
1.1500274e-05
1.0670713e-05
7.0192158e-06
8.0737414e-06
6.6488591e-06
7.7444575e-06
8.4520179e-06
8.8210948e-06
9.1515661e-06
8.6128626e-06
8.3620132e-06
8.1315895e-06
8.0023495e-06
7.9341839e-06
7.9217779e-06
7.9616872e-06
8.0462188e-06
8.1748862e-06
8.3463731e-06
8.5625433e-06
8.8255079e-06
9.1361679e-06
9.4998332e-06
9.922204e-06
1.0409309e-05
1.0970445e-05
1.1615735e-05
1.2359568e-05
1.3153169e-05
1.4138265e-05
1.5283557e-05
1.6617415e-05
1.8178053e-05
2.0011678e-05
2.2176305e-05
2.4743862e-05
2.7803545e-05
3.1464527e-05
3.5861765e-05
4.1485503e-05
4.7954101e-05
5.5796384e-05
6.5331905e-05
7.6959739e-05
9.118336e-05
0.00010859745
0.00012995659
0.00015620885
0.00019025309
0.000230364
0.00027988044
0.00034109896
0.00041689643
0.00051087065
0.00062753216
0.00077253629
0.00095291357
0.0011773155
0.0011898263
0.0011893069
0.001188651
0.0011878905
0.0011870667
0.0011862273
0.0011854219
0.0011846924
0.0011840619
0.0011835348
0.0011830951
0.0011827066
0.001182349
0.0011817861
0.0011807713
0.0011791668
0.0011771392
0.0011754426
0.0011753107
0.001175561
1.7475655e-07
8.761589e-06
9.0785417e-06
9.0472937e-06
6.1616367e-06
7.1596849e-06
6.1101614e-06
6.986654e-06
7.8681393e-06
7.8452212e-06
7.8677576e-06
7.4106696e-06
7.2070272e-06
7.0401821e-06
6.9527262e-06
6.9184735e-06
6.9326793e-06
6.9907495e-06
7.0895138e-06
7.2288287e-06
7.4073305e-06
7.6273156e-06
7.8918347e-06
8.2022692e-06
8.5640396e-06
8.9449026e-06
9.419883e-06
9.968304e-06
1.0600164e-05
1.1329404e-05
1.2172847e-05
1.3152356e-05
1.4292694e-05
1.5622417e-05
1.7180238e-05
1.9013004e-05
2.1179645e-05
2.3753285e-05
2.6825191e-05
3.0507187e-05
3.4937825e-05
4.0290843e-05
4.6780122e-05
5.4663781e-05
6.4267562e-05
7.6658898e-05
9.113722e-05
0.00010888656
0.00013067686
0.0001574865
0.00019052285
0.00023346813
0.00028416415
0.00034685908
0.00042449542
0.00052074428
0.00064018871
0.00078855965
0.00097295738
0.0011912738
0.0011907269
0.0011900782
0.0011893035
0.0011884305
0.0011874998
0.0011865589
0.0011856581
0.0011848444
0.0011841515
0.001183591
0.0011831391
0.0011828058
0.0011824734
0.0011819094
0.0011809069
0.0011793771
0.001177476
0.0011760003
0.001176265
0.0011764975
1.6238212e-07
8.7116191e-06
7.2239818e-06
7.9493443e-06
5.4943512e-06
6.3412906e-06
5.6504218e-06
6.3179639e-06
7.1733117e-06
6.7369946e-06
6.7099917e-06
6.3599247e-06
6.1997746e-06
6.0842334e-06
6.0325579e-06
6.027351e-06
6.06417e-06
6.1405788e-06
6.2535433e-06
6.4038315e-06
6.5909725e-06
6.8173522e-06
7.0567781e-06
7.3642145e-06
7.7226991e-06
8.1372866e-06
8.6163359e-06
9.1688443e-06
9.8050878e-06
1.0539287e-05
1.1388496e-05
1.2374406e-05
1.3523295e-05
1.486424e-05
1.6436736e-05
1.8288691e-05
2.0480554e-05
2.3087219e-05
2.6202824e-05
2.9943001e-05
3.4450106e-05
3.9902187e-05
4.6524303e-05
5.4581608e-05
6.4410558e-05
7.6431985e-05
9.1171896e-05
0.00010927146
0.00013268437
0.00016027003
0.00019428105
0.00023627191
0.0002909278
0.00035555756
0.0004355783
0.00053475284
0.00065775487
0.00081040733
0.00099991023
0.0011922972
0.0011916242
0.0011908485
0.0011899568
0.0011889722
0.0011879352
0.0011868948
0.0011859036
0.001185015
0.0011842703
0.0011836834
0.0011832372
0.0011829353
0.0011825901
0.0011820013
0.0011810249
0.0011796199
0.0011778948
0.0011765734
0.0011771797
0.0011774287
1.5140986e-07
8.6502768e-06
5.7970977e-06
6.9528286e-06
4.9037571e-06
5.6154069e-06
5.2608099e-06
5.6372979e-06
6.2959615e-06
5.7749482e-06
5.6941962e-06
5.4407196e-06
5.3216872e-06
5.2490167e-06
5.2291753e-06
5.2503133e-06
5.3085855e-06
5.4026005e-06
5.5303146e-06
5.6717784e-06
5.8629172e-06
6.0932833e-06
6.3656876e-06
6.683752e-06
7.0526113e-06
7.477764e-06
7.9675126e-06
8.5315994e-06
9.1805899e-06
9.9289424e-06
1.0793912e-05
1.179753e-05
1.2908291e-05
1.4261379e-05
1.5849308e-05
1.7720994e-05
1.9938619e-05
2.2578875e-05
2.573878e-05
2.9538312e-05
3.4124721e-05
3.9982486e-05
4.6797524e-05
5.5101084e-05
6.5241465e-05
7.7651937e-05
9.2883399e-05
0.00011160491
0.00013464208
0.00016452296
0.00019976802
0.00024329219
0.00029708938
0.00036713381
0.00045007421
0.00055281088
0.00068013012
0.00083796334
0.0010336393
0.0011932868
0.0011924904
0.0011915937
0.0011905906
0.0011895002
0.0011883631
0.0011872297
0.0011861559
0.0011852007
0.0011844069
0.0011837789
0.0011833546
0.0011830422
0.0011826536
0.0011820385
0.0011811279
0.0011798985
0.0011783518
0.001177164
0.0011781087
0.0011783569
1.4169876e-07
8.536888e-06
4.7081952e-06
6.0675195e-06
4.3770476e-06
4.9701234e-06
4.9227112e-06
4.8960712e-06
5.409389e-06
4.9166425e-06
4.8136737e-06
4.6398101e-06
4.5601057e-06
4.524616e-06
4.5338862e-06
4.5795731e-06
4.6585797e-06
4.7515663e-06
4.8886274e-06
5.0605624e-06
5.2685719e-06
5.5146142e-06
5.8022799e-06
6.1354273e-06
6.5198476e-06
6.9613519e-06
7.4683448e-06
8.0270095e-06
8.6897145e-06
9.4529381e-06
1.0334035e-05
1.1355125e-05
1.2543297e-05
1.3932628e-05
1.5563884e-05
1.7487669e-05
1.9769055e-05
2.2487717e-05
2.5744631e-05
2.9665918e-05
3.4405656e-05
4.0158599e-05
4.7161467e-05
5.5707247e-05
6.6158837e-05
7.9627944e-05
9.5471166e-05
0.00011495551
0.00013894476
0.00016851148
0.00020691199
0.00025226546
0.00030831977
0.00037763673
0.00046783462
0.00057473842
0.00070709889
0.00087097602
0.0010738537
0.0011942154
0.0011933011
0.0011922921
0.001191187
0.0011900007
0.0011887728
0.001187555
0.0011864045
0.0011853809
0.0011845277
0.0011838617
0.0011834371
0.0011830836
0.0011826414
0.0011820188
0.0011812147
0.0011801961
0.0011788387
0.0011778122
0.0011790153
0.0011791457
1.3315988e-07
8.2216463e-06
3.9513993e-06
5.2823388e-06
3.9095753e-06
4.3996542e-06
4.3846843e-06
4.2259536e-06
4.5534509e-06
4.1573756e-06
4.0590171e-06
3.9487315e-06
3.9061599e-06
3.9036914e-06
3.939843e-06
3.994109e-06
4.0863567e-06
4.2121078e-06
4.3706969e-06
4.5626211e-06
4.7897783e-06
5.0547091e-06
5.3614846e-06
5.714291e-06
6.1055503e-06
6.5644544e-06
7.0896027e-06
7.6907545e-06
8.3801736e-06
9.1724893e-06
1.008554e-05
1.1142382e-05
1.2371259e-05
1.3807603e-05
1.5495023e-05
1.7486051e-05
1.9849295e-05
2.2668245e-05
2.6048102e-05
3.0122483e-05
3.5051668e-05
4.1040135e-05
4.833969e-05
5.7256138e-05
6.8172096e-05
8.1559532e-05
9.8872493e-05
0.00011925563
0.00014435429
0.00017529985
0.0002134651
0.00026305562
0.00032169004
0.00039417076
0.00048378404
0.00060023252
0.00073829662
0.00090901648
0.0011200519
0.0011950614
0.0011940358
0.001192925
0.0011917292
0.0011904589
0.0011891502
0.0011878552
0.0011866292
0.0011855261
0.0011845806
0.0011839088
0.0011834489
0.001183043
0.0011825599
0.001181959
0.0011812833
0.0011804799
0.0011793283
0.0011785285
0.0011796864
0.0011797231
1.2587111e-07
7.7996571e-06
3.4830797e-06
4.586964e-06
3.4949517e-06
3.7316036e-06
3.910341e-06
3.6119133e-06
3.7782481e-06
3.4975128e-06
3.4204984e-06
3.3605925e-06
3.3520372e-06
3.3793421e-06
3.423391e-06
3.5096269e-06
3.6280944e-06
3.7776691e-06
3.9586801e-06
4.1724296e-06
4.4214219e-06
4.7085064e-06
5.028539e-06
5.4019006e-06
5.8278249e-06
6.313164e-06
6.8661557e-06
7.4969125e-06
8.2179637e-06
9.0448725e-06
9.9960663e-06
1.1095609e-05
1.2373058e-05
1.3865651e-05
1.5552824e-05
1.7606932e-05
2.0047045e-05
2.2961002e-05
2.6617643e-05
3.0873513e-05
3.6027103e-05
4.229237e-05
4.9937265e-05
5.9283223e-05
7.0731178e-05
8.4779582e-05
0.00010204295
0.00012327925
0.00015075878
0.00018324981
0.00022331663
0.00027275688
0.00033695497
0.00041293185
0.00050679606
0.00062883943
0.00077317467
0.00095143499
0.0011714748
0.0011958078
0.001194678
0.0011934758
0.0011922008
0.0011908578
0.0011894766
0.0011881069
0.0011867988
0.0011856055
0.0011845888
0.0011838905
0.0011833832
0.0011829338
0.001182439
0.0011818894
0.0011813433
0.0011807275
0.0011797769
0.0011791525
0.0011801728
0.0011802557
1.2013421e-07
6.8334919e-06
3.084666e-06
3.9562056e-06
3.1378518e-06
3.1147613e-06
3.4375524e-06
3.055594e-06
3.1121662e-06
2.9337052e-06
2.8859809e-06
2.8671516e-06
2.8810627e-06
2.9275641e-06
3.0101424e-06
3.1244341e-06
3.2685077e-06
3.442353e-06
3.6471242e-06
3.8846024e-06
4.1516781e-06
4.4613795e-06
4.8139578e-06
5.2143022e-06
5.66825e-06
6.1828799e-06
6.7668024e-06
7.4305239e-06
8.186974e-06
9.032504e-06
1.0019879e-05
1.1159325e-05
1.2481619e-05
1.4025355e-05
1.5838844e-05
1.7982549e-05
2.0531327e-05
2.3579009e-05
2.724222e-05
3.166534e-05
3.7028026e-05
4.3865593e-05
5.1897306e-05
6.1723668e-05
7.3764503e-05
8.854341e-05
0.00010670683
0.00012905364
0.00015800653
0.00019217953
0.00023430884
0.00028626706
0.0003537753
0.00043350616
0.00053193043
0.00065342698
0.00081097594
0.00099732607
0.0011976353
0.0011964421
0.0011952157
0.0011939304
0.0011925849
0.0011911786
0.0011897301
0.0011882838
0.0011868843
0.0011855724
0.0011845497
0.0011838113
0.0011832619
0.0011827907
0.0011823173
0.0011818428
0.0011814104
0.00118093
0.0011801669
0.0011796854
0.0011806767
0.0011808666
1.1556307e-07
4.772386e-06
2.7265154e-06
3.3710757e-06
2.6843134e-06
2.5983153e-06
2.9386878e-06
2.5599815e-06
2.5576123e-06
2.4588937e-06
2.4442211e-06
2.4530576e-06
2.4980171e-06
2.5787621e-06
2.6909324e-06
2.8320493e-06
3.0015059e-06
3.2000286e-06
3.4261049e-06
3.6869508e-06
3.9838464e-06
4.3202306e-06
4.7002779e-06
5.1290597e-06
5.6126907e-06
6.1585421e-06
6.7755656e-06
7.4634314e-06
8.253718e-06
9.1553184e-06
1.0189002e-05
1.1380583e-05
1.2762606e-05
1.4375968e-05
1.6271968e-05
1.851459e-05
2.1183434e-05
2.4377639e-05
2.8220697e-05
3.2866053e-05
3.8504155e-05
4.5370264e-05
5.4155662e-05
6.4501653e-05
7.7182481e-05
9.2747727e-05
0.00011187577
0.00013540547
0.00016437364
0.00020185537
0.00024615761
0.00030076315
0.00036809243
0.00045535944
0.00055853129
0.00068576162
0.00085072549
0.0010455131
0.0011982312
0.0011969557
0.0011956414
0.0011942782
0.0011928659
0.0011914015
0.001189889
0.0011883608
0.0011868787
0.0011855047
0.0011844679
0.0011836979
0.0011831223
0.0011826523
0.0011822247
0.0011818383
0.0011815035
0.0011811049
0.0011804772
0.0011801329
0.0011810728
0.0011815926
1.1070575e-07
3.9640984e-06
2.3501416e-06
2.832109e-06
2.3153779e-06
2.1673453e-06
2.4214699e-06
2.1246551e-06
2.106726e-06
2.069012e-06
2.0832392e-06
2.1266892e-06
2.2076761e-06
2.3191962e-06
2.4586812e-06
2.6252386e-06
2.819248e-06
3.0397584e-06
3.2925027e-06
3.5788454e-06
3.901829e-06
4.2651358e-06
4.673169e-06
5.1311886e-06
5.6455151e-06
6.2237837e-06
6.8676156e-06
7.6003729e-06
8.4308991e-06
9.3765796e-06
1.045929e-05
1.1706347e-05
1.3152116e-05
1.4839809e-05
1.682383e-05
1.9172317e-05
2.1969899e-05
2.5321524e-05
2.93578e-05
3.424029e-05
4.0169727e-05
4.7737476e-05
5.6637732e-05
6.7528861e-05
8.0879505e-05
9.7265227e-05
0.0001173961
0.00014214884
0.00017420466
0.00021199305
0.0002585141
0.00031581346
0.00038640657
0.00047784011
0.00058580898
0.00071883076
0.00089123091
0.0010945655
0.0011986978
0.0011973469
0.001195953
0.0011945152
0.0011930342
0.0011915103
0.00118994
0.0011883321
0.0011867528
0.001185415
0.0011843693
0.0011835834
0.0011829991
0.0011825467
0.0011821763
0.0011818778
0.0011816279
0.001181293
0.0011807463
0.0011805089
0.0011814135
0.001182246
1.0743371e-07
3.1934972e-06
2.026331e-06
2.2883092e-06
2.0125112e-06
1.7984433e-06
1.9402233e-06
1.7551745e-06
1.7525519e-06
1.7637806e-06
1.8080795e-06
1.8895015e-06
2.0014227e-06
2.1398966e-06
2.3039382e-06
2.4938579e-06
2.7095987e-06
2.9549265e-06
3.2317231e-06
3.5427686e-06
3.8913868e-06
4.2814664e-06
4.7175675e-06
5.2050905e-06
5.7505164e-06
6.357338e-06
7.0416738e-06
7.8124787e-06
8.684262e-06
9.6752343e-06
1.0808514e-05
1.2112984e-05
1.3625003e-05
1.5390214e-05
1.7466012e-05
1.9924563e-05
2.2856072e-05
2.6371274e-05
3.0608454e-05
3.5737865e-05
4.224667e-05
4.9904441e-05
5.9257276e-05
7.0704025e-05
8.4733816e-05
0.00010194923
0.00012309146
0.00014907488
0.00018265715
0.00022225625
0.00027097205
0.00033092403
0.00040472198
0.00050017777
0.00061282778
0.00075149972
0.00093109172
0.001142791
0.0011990404
0.0011976207
0.0011961554
0.0011946472
0.0011930953
0.0011915042
0.001189879
0.0011882305
0.0011866143
0.0011853136
0.0011842779
0.0011834912
0.00118291
0.0011824824
0.0011821695
0.0011819501
0.0011817681
0.0011814852
0.0011810405
0.0011809239
0.0011818092
0.0011826193
1.0604891e-07
2.5172942e-06
1.7463171e-06
1.7662099e-06
1.7333882e-06
1.4828032e-06
1.5471006e-06
1.4605777e-06
1.4886774e-06
1.5350524e-06
1.6180712e-06
1.7300279e-06
1.8674524e-06
2.0287978e-06
2.2143828e-06
2.4254128e-06
2.6628777e-06
2.9303725e-06
3.2300623e-06
3.5649858e-06
3.9386336e-06
4.3550304e-06
4.8188532e-06
5.3356144e-06
5.9119148e-06
6.5557888e-06
7.2771501e-06
8.0883287e-06
8.9943476e-06
1.0030846e-05
1.121504e-05
1.2577467e-05
1.4156593e-05
1.6000686e-05
1.8170134e-05
2.0824994e-05
2.3914973e-05
2.7622777e-05
3.2094912e-05
3.7511969e-05
4.4096206e-05
5.2120717e-05
6.19226e-05
7.3916421e-05
8.8612239e-05
0.00010663796
0.00012876505
0.0001573046
0.00019094284
0.00023227442
0.00028307801
0.00034554157
0.00042635466
0.00052151997
0.00063854902
0.00078250446
0.00096873222
0.0011882615
0.0011992725
0.0011977888
0.0011962605
0.0011946901
0.0011930737
0.0011914141
0.0011897223
0.0011880334
0.0011864765
0.0011852139
0.0011842022
0.0011834253
0.0011828525
0.0011824479
0.0011821828
0.001182025
0.001181894
0.0011816603
0.001181332
0.0011813669
0.0011821841
0.0011826052
1.0761661e-07
1.9384102e-06
1.5128705e-06
1.3661426e-06
1.4485984e-06
1.2180765e-06
1.2592547e-06
1.244611e-06
1.3054383e-06
1.3863071e-06
1.4979439e-06
1.6334274e-06
1.791461e-06
1.9721854e-06
2.1768429e-06
2.407208e-06
2.665073e-06
2.9535278e-06
3.2751488e-06
3.6331036e-06
4.0309793e-06
4.4728873e-06
4.9635987e-06
5.5087369e-06
6.1150443e-06
6.790742e-06
7.5460101e-06
8.3935873e-06
9.3495146e-06
1.0434077e-05
1.1672907e-05
1.3098452e-05
1.475157e-05
1.6683592e-05
1.895871e-05
2.1656914e-05
2.4877609e-05
2.8744305e-05
3.3409605e-05
3.9062111e-05
4.5934352e-05
5.4311805e-05
6.4542815e-05
7.7057991e-05
9.2384924e-05
0.00011209251
0.00013531052
0.00016379248
0.00019874828
0.00024166556
0.00029437039
0.00036247698
0.00044258408
0.00054098385
0.00066189221
0.00081838436
0.0010024645
0.0012009521
0.0011994142
0.0011978711
0.0011962872
0.0011946632
0.0011929948
0.0011912827
0.0011895384
0.001187815
0.0011863364
0.0011851159
0.0011841344
0.0011833734
0.0011828111
0.001182425
0.0011821936
0.0011820763
0.0011819792
0.0011817895
0.0011815646
0.0011816893
0.001182373
0.0011825732
1.1329962e-07
1.4631744e-06
1.3232859e-06
1.0740377e-06
1.2928307e-06
9.9831936e-07
1.0637988e-06
1.1015533e-06
1.1893223e-06
1.2979038e-06
1.4306101e-06
1.5843605e-06
1.7595538e-06
1.9573398e-06
2.179453e-06
2.4279292e-06
2.7050852e-06
3.0133208e-06
3.3557844e-06
3.7356054e-06
4.1564396e-06
4.6224759e-06
5.1385798e-06
5.7104943e-06
6.3451166e-06
7.0508718e-06
7.8382148e-06
8.7203146e-06
9.7138049e-06
1.083981e-05
1.2125044e-05
1.3603401e-05
1.5317585e-05
1.7321254e-05
1.9681494e-05
2.2481882e-05
2.5826114e-05
2.9842473e-05
3.4689246e-05
4.05614e-05
4.8024545e-05
5.6792721e-05
6.7494013e-05
8.0574506e-05
9.6580302e-05
0.00011618118
0.00014019896
0.0001696419
0.00020574308
0.000252359
0.00030708567
0.00037421075
0.00045656464
0.00055763112
0.00068835428
0.00084185385
0.0010304409
0.001201075
0.0011994889
0.0011978938
0.0011962606
0.0011945888
0.0011928751
0.0011911222
0.0011893466
0.0011876132
0.0011861933
0.0011850116
0.0011840605
0.0011833187
0.0011827701
0.0011824
0.0011821911
0.0011821
0.0011820325
0.0011818925
0.0011817517
0.0011819186
0.0011824973
0.0011827154
1.2374081e-07
1.154436e-06
1.1600524e-06
9.3281638e-07
9.4523378e-07
8.7284259e-07
9.3525427e-07
1.0152635e-06
1.1238824e-06
1.2520894e-06
1.4007274e-06
1.5695842e-06
1.7598926e-06
1.973198e-06
2.2113835e-06
2.4765514e-06
2.7710515e-06
3.0975015e-06
3.4588334e-06
3.858348e-06
4.2997935e-06
4.7874732e-06
5.3263955e-06
5.9224875e-06
6.5828918e-06
7.3137282e-06
8.1296375e-06
9.0425301e-06
1.0078694e-05
1.1245847e-05
1.2578067e-05
1.4110818e-05
1.5888728e-05
1.7967776e-05
2.041786e-05
2.3325891e-05
2.6799547e-05
3.097184e-05
3.600665e-05
4.2105536e-05
4.9516051e-05
5.8541921e-05
6.9555281e-05
8.3009748e-05
9.946308e-05
0.00011959741
0.00014553233
0.00017595609
0.00021321279
0.00025885022
0.00031476467
0.00038328513
0.00046727106
0.00057565957
0.00070285549
0.00085889581
0.0010504778
0.0012011551
0.0011995267
0.0011978872
0.0011962107
0.0011944959
0.0011927399
0.0011909476
0.0011891446
0.0011874387
0.0011860521
0.0011848991
0.0011839732
0.0011832519
0.0011827208
0.0011823679
0.001182176
0.0011821025
0.001182065
0.0011819933
0.0011819582
0.0011821735
0.0011826183
0.0011824978
1.452772e-07
1.1959149e-06
9.9831538e-07
7.1135921e-07
7.7176884e-07
7.7983197e-07
8.6411958e-07
9.670366e-07
1.0921533e-06
1.235222e-06
1.3974045e-06
1.5796329e-06
1.7834265e-06
2.0104431e-06
2.2625913e-06
2.5419975e-06
2.8510404e-06
3.1923818e-06
3.5690092e-06
3.9842896e-06
4.4420422e-06
4.9466432e-06
5.5031744e-06
6.1176375e-06
6.7972574e-06
7.5508971e-06
8.3896059e-06
9.3273204e-06
1.038175e-05
1.1575429e-05
1.2936974e-05
1.4502655e-05
1.6318165e-05
1.8440813e-05
2.0942099e-05
2.3910847e-05
2.7456978e-05
3.1716065e-05
3.6854876e-05
4.3078122e-05
5.0636824e-05
6.0267406e-05
7.1576048e-05
8.5379028e-05
0.00010224342
0.00012286139
0.0001480802
0.00017893668
0.00021669992
0.00026292159
0.00031950686
0.00039237917
0.00047783159
0.00058247111
0.00071066513
0.00086781391
0.0010606132
0.0012012248
0.0011995612
0.0011978859
0.0011961739
0.0011944234
0.0011926324
0.0011908089
0.0011889871
0.0011873048
0.0011859295
0.0011847908
0.0011838804
0.0011831761
0.0011826631
0.0011823277
0.0011821494
0.0011820849
0.0011820651
0.0011820448
0.0011820879
0.0011823327
0.0011827262
0.0011826351
1.3848805e-07
7.9674221e-07
8.18098e-07
6.0630402e-07
6.6410769e-07
7.251138e-07
8.280039e-07
9.477773e-07
1.0860344e-06
1.2417745e-06
1.4162569e-06
1.6106975e-06
1.8266433e-06
2.0658162e-06
2.330162e-06
2.6218611e-06
2.9433567e-06
3.2973415e-06
3.686938e-06
4.1155661e-06
4.5871222e-06
5.1060585e-06
5.6775329e-06
6.3076242e-06
7.0036404e-06
7.7745403e-06
8.6314921e-06
9.5885936e-06
1.067256e-05
1.1892592e-05
1.328386e-05
1.4883451e-05
1.6738003e-05
1.8905943e-05
2.1460068e-05
2.4490722e-05
2.8109578e-05
3.2454256e-05
3.7693923e-05
4.403609e-05
5.1734854e-05
6.110083e-05
7.2513189e-05
8.6436524e-05
0.00010343769
0.00012420976
0.00014959994
0.00018222936
0.0002204704
0.00026722437
0.00032439752
0.00039432146
0.00047985607
0.00058451471
0.00071262407
0.00086953065
0.0010618548
0.0012013128
0.0011996219
0.0011979209
0.0011961849
0.0011944112
0.001192597
0.0011907511
0.0011889121
0.0011872307
0.0011858516
0.001184711
0.0011838027
0.001183106
0.0011826056
0.0011822847
0.0011821212