/*--------------------------------*- C++ -*----------------------------------*\
  =========                 |
  \\      /  F ield         | OpenFOAM: The Open Source CFD Toolbox
   \\    /   O peration     | Website:  https://openfoam.org
    \\  /    A nd           | Version:  12
     \\/     M anipulation  |
\*---------------------------------------------------------------------------*/
FoamFile
{
    format      ascii;
    class       volScalarField;
    location    "0.052";
    object      omega;
}
// * * * * * * * * * * * * * * * * * * * * * * * * * * * * * * * * * * * * * //

dimensions      [0 0 -1 0 0 0 0];

internalField   nonuniform List<scalar> 
16000
(
1086.6412
2178.3366
1068.406
643.30732
453.72798
315.56185
239.30645
180.68031
145.49113
117.83717
100.10082
85.689672
74.994706
66.067216
58.780557
52.642925
47.4619
43.043462
39.24723
35.961395
33.102012
30.598166
28.391567
26.43579
24.69336
23.135161
21.737086
20.480508
19.34963
18.330038
17.408725
16.575434
15.821996
15.141499
14.528036
13.976117
13.480576
13.036543
12.639949
12.287358
11.974902
11.698527
11.455283
11.242473
11.057028
10.895833
10.756468
10.636644
10.534181
10.447011
10.373267
10.311296
10.259569
10.216766
10.181717
10.15345
10.131284
10.115032
10.105103
10.101694
10.100746
10.097718
10.093286
10.087452
10.080558
10.073228
10.066331
10.060824
10.057423
10.056328
10.057152
10.058603
10.058911
10.058033
10.053518
10.044408
10.030507
10.000293
9.9929793
10.006204
1128.1465
2171.0706
1058.2526
643.62391
453.94782
318.49838
240.41509
182.52405
146.34787
118.88292
100.65935
86.263489
75.365446
66.38785
59.014009
52.824826
47.595983
43.141847
39.317589
36.009421
33.132633
30.616021
28.400302
26.438345
24.69163
23.130653
21.730605
20.472505
19.340638
18.320825
17.399784
16.566901
15.813863
15.133643
14.520367
13.968614
13.473325
13.029567
12.633084
12.280561
11.968424
11.692397
11.449379
11.236797
11.051758
10.890999
10.752051
10.63264
10.530606
10.443881
10.37057
10.309026
10.257702
10.215269
10.180543
10.15252
10.130429
10.113913
10.103212
10.09871
10.097549
10.094428
10.09
10.084288
10.077637
10.070643
10.064116
10.058932
10.055749
10.054735
10.055517
10.056841
10.056687
10.05521
10.050356
10.041181
10.025908
10.000306
9.9938339
10.003554
1168.0686
2173.2672
1046.8567
640.20166
450.68215
318.81092
239.37328
182.75181
145.9328
119.06045
100.52482
86.28797
75.274932
66.299829
58.891804
52.689707
47.449057
42.988888
39.162726
35.855012
32.980637
30.468529
28.258806
26.304097
24.565097
23.012201
21.620135
20.369639
19.245025
18.232464
17.318602
16.492558
15.745942
15.071633
14.463803
13.917077
13.426533
12.98728
12.594882
12.246006
11.937451
11.664827
11.424853
11.214984
11.032582
10.874273
10.737544
10.620133
10.519909
10.434835
10.362998
10.302777
10.25262
10.211204
10.17735
10.150051
10.128499
10.112233
10.101329
10.096092
10.094607
10.091296
10.086785
10.081122
10.074652
10.067957
10.061804
10.056986
10.054064
10.053132
10.053789
10.054943
10.054387
10.052439
10.047344
10.037935
10.022351
10.000285
9.9942041
10.001579
1206.2129
2182.2757
1037.6315
636.85327
447.00066
318.92035
238.02742
182.81795
145.37341
119.1347
100.33652
86.248721
75.141646
66.163338
58.728203
52.515097
47.266019
42.802346
38.976821
35.671949
32.802073
30.296413
28.094448
26.148698
24.418997
22.875695
21.493075
20.251584
19.135467
18.131294
17.225724
16.407583
15.668415
15.000987
14.399513
13.858651
13.373604
12.939585
12.552006
12.207376
11.902942
11.634253
11.39784
11.191088
11.011682
10.856158
10.721943
10.606782
10.508572
10.425325
10.355099
10.296312
10.247409
10.207076
10.174139
10.147597
10.126619
10.11066
10.099656
10.093854
10.092018
10.088511
10.083909
10.078283
10.071974
10.065539
10.059699
10.055169
10.052411
10.051444
10.051833
10.052568
10.051684
10.049485
10.04434
10.034792
10.019305
10.00051
9.9948501
9.9995866
1242.4046
2200.9094
1029.6232
633.25573
442.56239
318.27818
235.99431
182.39249
144.4343
118.92876
99.958631
86.031854
74.868466
65.894077
58.449123
52.236083
46.98957
42.531475
38.714688
35.419898
32.560809
30.067165
27.87786
25.945493
24.229113
22.699092
21.329346
20.100072
18.995352
18.002189
17.107382
16.299464
15.569948
14.911464
14.318283
13.785079
13.307165
12.879905
12.498646
12.15958
11.860428
11.596763
11.364967
11.16221
10.986572
10.834536
10.703456
10.591086
10.49534
10.414309
10.346018
10.288935
10.241508
10.202439
10.170565
10.144895
10.124602
10.109083
10.098157
10.091974
10.089762
10.086038
10.081318
10.075697
10.069515
10.063298
10.057719
10.053409
10.050727
10.049617
10.049648
10.049946
10.048805
10.046541
10.041467
10.031904
10.016832
10.000926
9.9958137
9.9977142
1276.4982
2226.8848
1026.3094
630.36887
438.66564
317.00433
233.48056
181.55588
143.22091
118.48136
99.435738
85.659727
74.474953
65.509353
58.069137
51.865936
46.631289
42.186582
38.385378
35.106885
32.263995
29.787194
27.614826
25.699596
24.000071
22.486598
21.132772
19.918603
18.827916
17.848138
16.966344
16.170763
15.45291
14.805258
14.222141
13.698243
13.228959
12.809822
12.436246
12.103984
11.811157
11.553462
11.327229
11.129252
10.958047
10.8101
10.682684
10.573566
10.480657
10.402164
10.33607
10.280903
10.235126
10.19746
10.166757
10.142044
10.122509
10.107515
10.096793
10.090432
10.087817
10.08387
10.079012
10.073369
10.067275
10.061227
10.05584
10.051659
10.048944
10.047583
10.04718
10.047048
10.045751
10.043591
10.038702
10.029253
10.014787
10.001708
9.997442
9.9962377
1308.4552
2257.8709
1026.8448
627.62536
434.78501
315.08852
230.87338
180.34375
141.83549
117.79545
98.77687
85.131229
73.957472
65.007182
57.585189
51.401833
46.188249
41.764851
37.985954
34.730078
31.908951
29.453986
27.303104
25.408466
23.729522
22.236078
20.901417
19.705452
18.631657
17.667834
16.801487
16.020523
15.316507
14.68172
14.110571
13.597749
13.138715
12.72914
12.364658
12.040676
11.75527
11.504488
11.284783
11.092417
10.926304
10.783035
10.659799
10.554386
10.464665
10.389015
10.325362
10.27231
10.228338
10.192199
10.162768
10.139087
10.120373
10.105979
10.09555
10.089128
10.086165
10.081989
10.076977
10.071276
10.065223
10.059279
10.054
10.049847
10.046996
10.045304
10.044449
10.043946
10.042677
10.040744
10.036104
10.026859
10.013059
10.002553
9.9992782
9.9955096
1338.381
2291.3988
1028.7996
624.56413
430.98142
312.52138
228.26232
178.89458
140.34047
116.89184
97.999173
84.45509
73.317359
64.389794
56.997562
50.843385
45.659508
41.265237
37.51448
34.287435
31.493702
29.065631
26.941125
25.06864
23.414136
21.944429
20.632424
19.458031
18.404281
17.459248
16.61104
15.847208
15.15943
14.539749
13.982661
13.482857
13.035856
12.637426
12.283468
11.969987
11.693147
11.450197
11.23795
11.052135
10.891738
10.753689
10.635118
10.533826
10.447603
10.375063
10.314059
10.263287
10.221251
10.18674
10.15866
10.136073
10.118228
10.104491
10.094429
10.088005
10.084771
10.080362
10.07518
10.069386
10.063313
10.057396
10.052129
10.047903
10.044831
10.042781
10.041529
10.040744
10.039721
10.038081
10.033682
10.02465
10.011513
10.0031
10.001362
9.9962162
1366.3726
2325.3297
1027.5527
620.72905
426.26793
309.2488
224.77206
177.04701
138.52446
115.80188
97.09864
83.630655
72.547836
63.652676
56.301422
50.185042
45.039542
40.682781
36.963081
33.771016
31.010651
28.614873
26.522522
24.680991
23.05536
21.613529
20.327948
19.178667
18.148249
17.224895
16.397512
15.653299
14.984112
14.381715
13.840693
13.355748
12.922456
12.536674
12.194369
11.891525
11.624559
11.390437
11.18657
11.008774
10.854705
10.72236
10.608974
10.512181
10.429732
10.360521
10.302338
10.253976
10.213976
10.181165
10.154497
10.133049
10.116104
10.103065
10.093435
10.087065
10.083589
10.078947
10.073577
10.067649
10.061491
10.055512
10.050161
10.045777
10.04244
10.040065
10.038549
10.037605
10.037024
10.035664
10.031403
10.022489
10.010217
10.003564
10.003443
9.9974832
1392.5345
2358.065
1018.9803
615.81186
419.8555
305.53033
220.44208
174.72491
136.64146
114.5294
96.065315
82.652851
71.641026
62.787984
55.48887
49.414083
44.314616
40.004293
36.330275
33.18179
30.462455
28.105372
26.050818
24.244694
22.652633
21.242955
19.987723
18.867257
17.863648
16.965026
16.161214
15.43921
14.791075
14.208224
13.685346
13.217144
12.799251
12.427617
12.098369
11.807552
11.551503
11.32705
11.132121
10.96224
10.815197
10.689009
10.581654
10.489703
10.411322
10.34561
10.290383
10.244522
10.206624
10.175558
10.150335
10.130056
10.114026
10.101701
10.092555
10.08629
10.082568
10.077688
10.072111
10.066008
10.059697
10.053571
10.048053
10.043456
10.039862
10.037249
10.035638
10.034792
10.034643
10.033457
10.029156
10.020255
10.008941
10.003925
10.005228
9.9988769
1416.9771
2388.8565
1010.303
609.82594
411.79
301.39695
215.84015
172.20489
134.66138
113.07466
94.886418
81.514703
70.585358
61.775306
54.537526
48.525748
43.486221
39.23389
35.614272
32.517942
29.847263
27.535585
25.52494
23.759947
22.206399
20.833301
19.612543
18.524773
17.551637
16.680995
15.903276
15.20612
14.581553
14.020549
13.517905
13.068324
12.667498
12.31145
11.996476
11.718719
11.474599
11.260739
11.075446
10.914202
10.774648
10.65477
10.553103
10.466336
10.392587
10.330499
10.278369
10.235069
10.199306
10.169998
10.146226
10.127125
10.11201
10.100391
10.091761
10.085657
10.081646
10.076525
10.07072
10.064403
10.057884
10.051545
10.045801
10.040973
10.037178
10.034446
10.032856
10.032332
10.032497
10.031279
10.026739
10.017932
10.007873
10.004179
10.006524
10.000063
1439.8226
2418.71
997.07232
602.33379
402.3053
296.85375
211.06439
169.42545
132.6542
111.44357
93.534833
80.185987
69.343306
60.608372
53.451114
47.516875
42.550787
38.368285
34.813494
31.778654
29.164935
26.905679
24.945209
23.227197
21.717498
20.385223
19.203267
18.152267
17.213436
16.374356
15.623972
14.954324
14.355898
13.8191
13.338823
12.909757
12.527673
12.18864
11.889166
11.625502
11.394198
11.192447
11.017275
10.865073
10.73344
10.620237
10.52447
10.442906
10.373459
10.315112
10.266408
10.22574
10.192122
10.164556
10.14221
10.124277
10.110062
10.09912
10.091006
10.085133
10.080762
10.075395
10.069347
10.062789
10.056025
10.049438
10.043447
10.0384
10.034471
10.031731
10.030214
10.030102
10.030343
10.028857
10.024013
10.015631
10.007118
10.004354
10.007652
10.001192
1461.3812
2446.9416
979.94126
593.86865
392.27589
291.90139
206.2145
166.44497
130.59507
109.61449
91.945919
78.6504
67.920237
59.28142
52.223372
46.383884
41.505548
37.405915
33.927015
30.963204
28.415334
26.216168
24.311955
22.647129
21.187198
19.898325
18.759624
17.749652
16.849059
16.045669
15.328391
14.688845
14.118965
13.608562
13.152563
12.745631
12.383666
12.062747
11.779636
11.530785
11.312657
11.122365
10.957813
10.815031
10.691666
10.585843
10.495957
10.419701
10.354767
10.300041
10.254375
10.216593
10.185149
10.159295
10.138321
10.121519
10.108181
10.097868
10.090228
10.08462
10.079855
10.074239
10.067945
10.061139
10.054122
10.047283
10.041052
10.035814
10.031789
10.029067
10.027705
10.027827
10.027871
10.025986
10.021031
10.01349
10.006578
10.004439
10.008765
10.002452
1481.8934
2469.8875
958.63645
584.856
381.79839
286.58563
201.37922
163.27119
128.4136
107.49319
90.104252
76.89745
66.303662
57.786447
50.848394
45.122202
40.347588
36.344568
32.953849
30.070795
27.598366
25.467899
23.623803
22.018464
20.615042
19.378987
18.288591
17.324241
16.465996
15.701767
15.02028
14.413348
13.873814
13.391682
12.961606
12.578138
12.237413
11.935473
11.669318
11.435754
11.23133
11.053034
10.899138
10.765836
10.650669
10.55159
10.467587
10.396579
10.336541
10.285537
10.242776
10.207467
10.178397
10.154256
10.134585
10.118846
10.106353
10.096618
10.089375
10.083992
10.078866
10.073008
10.066481
10.059442
10.05219
10.045116
10.03866
10.033242
10.029104
10.026285
10.025153
10.025197
10.024848
10.022637
10.017937
10.011495
10.005912
10.004388
10.009976
10.004012
1501.6141
2482.9877
933.19411
575.18646
370.93861
280.94324
196.63331
159.82549
125.98969
105.08717
87.98277
74.909636
64.481364
56.113562
49.319012
43.726895
39.07405
35.182035
31.893391
29.098339
26.711206
24.659279
22.889144
21.350979
20.010709
18.832916
17.795954
16.881216
16.069132
15.34746
14.704723
14.132663
13.623502
13.170987
12.768079
12.409032
12.090349
11.808018
11.559179
11.34113
11.150537
10.985113
10.841785
10.71786
10.610982
10.518823
10.440483
10.374336
10.318569
10.271656
10.231799
10.198754
10.171677
10.149426
10.131018
10.116249
10.104557
10.095354
10.08842
10.083198
10.077745
10.071659
10.064929
10.05769
10.050231
10.042943
10.036261
10.030606
10.026244
10.0233
10.022242
10.021988
10.021227
10.018932
10.014833
10.009572
10.005069
10.00415
10.010555
10.005313
1520.7623
2476.3911
903.96946
564.91146
359.74321
274.97834
191.97182
155.9812
123.24644
102.35206
85.552163
72.664585
62.437612
54.2519
47.628022
42.192586
37.682317
33.912471
30.741276
28.054522
25.766175
23.803586
22.115878
20.65279
19.381996
18.268554
17.290007
16.426761
15.663887
14.987424
14.38554
13.850574
13.374995
12.952622
12.577475
12.2432
11.946784
11.684235
11.452621
11.24996
11.072644
10.918732
10.785867
10.671087
10.57234
10.487603
10.414849
10.353365
10.301464
10.258107
10.221466
10.1906
10.165269
10.14461
10.127601
10.113717
10.102762
10.094064
10.087353
10.082189
10.076449
10.070156
10.063256
10.055853
10.048214
10.04072
10.033779
10.027772
10.022934
10.020039
10.018787
10.018168
10.017153
10.01507
10.011804
10.007742
10.004098
10.003431
10.009458
10.005936
1539.5084
2429.8806
872.35899
554.06099
348.27107
268.60459
187.08612
151.71171
120.07057
99.240475
82.779166
70.137971
60.156823
52.192064
45.768991
40.50993
36.165
32.547402
29.513619
26.950257
24.774562
22.91266
21.316471
19.936219
18.738444
17.694089
16.778638
15.972741
15.26119
14.631762
14.071961
13.574663
13.132671
12.740293
12.392569
12.082855
11.808402
11.565498
11.350867
11.163243
10.998993
10.856185
10.733223
10.627122
10.535798
10.457588
10.390801
10.333812
10.285497
10.245326
10.211482
10.183024
10.159268
10.139998
10.124172
10.111239
10.10093
10.092728
10.086195
10.080932
10.074945
10.068459
10.061417
10.053881
10.046071
10.038344
10.031059
10.024593
10.019369
10.016368
10.014825
10.01392
10.012884
10.01126
10.008927
10.005992
10.003135
10.00267
10.007711
10.006319
1557.7257
2393.5052
840.46831
542.5828
336.52629
261.28084
182.05092
146.91474
116.34863
95.694918
79.629207
67.30609
57.623927
49.925943
43.729608
38.690427
34.543338
31.101964
28.226724
25.803755
23.753877
22.003695
20.50409
19.213736
18.097147
17.1255
16.275575
15.528447
14.86899
14.286783
13.769223
13.30949
12.900837
12.537663
12.215193
11.929302
11.676001
11.452189
11.255011
11.081755
10.930134
10.797867
10.684116
10.586214
10.501897
10.42962
10.3679
10.31537
10.270784
10.233471
10.202145
10.175781
10.153716
10.135632
10.120866
10.108782
10.099022
10.091293
10.084968
10.079416
10.073206
10.066529
10.059353
10.051695
10.043701
10.035686
10.027962
10.020829
10.015632
10.012407
10.010597
10.009551
10.008689
10.007647
10.00623
10.004327
10.00228
10.00209
10.006328
10.00644
1574.9592
2352.684
807.66719
530.14032
324.40828
252.77298
176.67336
141.47596
111.97277
91.654957
76.069309
64.148458
54.820444
47.439173
41.534845
36.75613
32.840895
29.602141
26.905489
24.638848
22.72277
21.094188
19.701861
18.505483
17.472277
16.574913
15.791119
15.102919
14.495001
13.957497
13.481121
13.05778
12.681342
12.346752
12.049691
11.786238
11.552861
11.346537
11.164707
11.005086
10.865601
10.744207
10.638968
10.54861
10.470798
10.404046
10.346991
10.298433
10.257295
10.222595
10.193525
10.16908
10.14859
10.13153
10.117652
10.106247
10.097022
10.089673
10.083542
10.077649
10.071215
10.064329
10.056992
10.0492
10.040999
10.032624
10.024498
10.017051
10.011829
10.008424
10.006436
10.005368
10.00476
10.004286
10.00368
10.002701
10.001495
10.001696
10.005283
10.006322
1590.537
2285.0557
773.20801
516.22636
311.16038
242.9339
170.63949
135.2572
106.84355
87.062382
72.073941
60.645902
51.763385
44.77891
39.22043
34.745158
31.095154
28.082411
25.577343
23.480215
21.7117
20.210339
18.928236
17.827539
16.877806
16.053784
15.334293
14.701749
14.144344
13.651189
13.21387
12.825048
12.478943
12.170913
11.897214
11.654551
11.439723
11.2498
11.082383
10.935227
10.806483
10.694535
10.597978
10.514444
10.442559
10.380853
10.328035
10.282985
10.244737
10.21273
10.185623
10.162831
10.143701
10.127723
10.114605
10.103769
10.09494
10.087856
10.081838
10.07564
10.068975
10.06185
10.054293
10.046314
10.037908
10.029159
10.020523
10.013408
10.008192
10.004698
10.002619
10.001575
10.001196
10.001181
10.001223
10.001018
10.000592
10.001335
10.004381
10.005819
1603.3818
2216.7623
736.1799
500.27428
297.12022
231.5717
163.47903
128.09258
100.88481
81.887267
67.636981
56.838601
48.513607
42.003202
36.845089
32.709758
29.351827
26.579461
24.282548
22.362172
20.744564
19.372306
18.200452
17.193866
16.324841
15.570817
14.911339
14.332984
13.82275
13.370677
12.969616
12.61279
12.294861
12.011462
11.759152
11.535218
11.337189
11.162101
11.007859
10.872281
10.753506
10.650573
10.561091
10.483778
10.417194
10.360036
10.311077
10.269283
10.233788
10.203842
10.178498
10.15714
10.139197
10.124179
10.111719
10.10136
10.092823
10.085881
10.079893
10.073416
10.066517
10.059136
10.0513
10.043047
10.034428
10.025538
10.016766
10.009991
10.004897
10.001402
9.9992794
9.9982473
9.9980151
9.9983053
9.9988089
9.9992105
9.9994948
10.000809
10.00346
10.004937
1610.7121
2133.8152
696.35845
480.58329
282.0398
218.36737
154.71698
119.8448
94.095884
76.176021
62.841056
52.833232
45.166781
39.197576
34.482253
30.71077
27.656196
25.139484
23.054127
21.311418
19.843071
18.596734
17.531386
16.614832
15.821699
15.131886
14.529152
13.999879
13.533034
13.118423
12.750161
12.422253
12.129879
11.869004
11.636268
11.429048
11.245967
11.084008
10.94139
10.816273
10.706846
10.611371
10.528414
10.45661
10.394698
10.341536
10.29602
10.257023
10.224065
10.19598
10.172156
10.152008
10.135058
10.1209
10.108997
10.099044
10.090744
10.083834
10.077757
10.071032
10.063904
10.056282
10.048176
10.039608
10.030671
10.021621
10.013328
10.00688
10.001987
9.9985513
9.9964078
9.995358
9.9951867
9.9956464
9.9964385
9.9972887
9.9982188
9.999979
10.002484
10.003995
1607.3902
2032.0869
653.22949
454.84858
265.7402
202.97334
144.11124
110.53732
86.626172
70.05501
57.870293
48.776191
41.841595
36.457003
32.209026
28.812059
26.061637
23.79951
21.921586
20.350072
19.023625
17.895628
16.929593
16.096783
15.374418
14.744426
14.192387
13.706492
13.276961
12.89587
12.556672
12.254271
11.984399
11.743546
11.528742
11.337434
11.167432
11.016919
10.88415
10.767567
10.665691
10.577
10.499806
10.432923
10.375121
10.325367
10.282991
10.246623
10.215547
10.189107
10.166638
10.147527
10.131485
10.1179
10.106453
10.096824
10.08876
10.08185
10.075525
10.068584
10.061234
10.053397
10.045072
10.03627
10.027083
10.017883
10.010175
10.004053
9.9993849
9.9960444
9.9939017
9.9928215
9.9926544
9.9931896
9.99415
9.9953097
9.9967551
9.9989626
10.001529
10.002827
1587.2726
1901.8154
607.00891
422.39573
248.22101
185.18349
131.88111
100.49324
78.823109
63.847694
52.944725
44.83244
38.661228
33.874707
30.09708
27.069911
24.611831
22.591781
20.90856
19.495424
18.298732
17.27782
16.400936
15.642952
14.983724
14.407053
13.900078
13.452876
13.056759
12.704752
12.390834
12.110501
11.859933
11.636008
11.436097
11.257946
11.099569
10.959181
10.835155
10.725988
10.630368
10.547467
10.475266
10.412686
10.358614
10.312031
10.272019
10.237741
10.208325
10.183202
10.161955
10.143814
10.128374
10.11527
10.10417
10.09482
10.086841
10.079914
10.073338
10.066194
10.058635
10.050594
10.042072
10.033093
10.023777
10.014572
10.007291
10.001443
9.996978
9.993747
9.9916381
9.99055
9.9903736
9.9909358
9.9919979
9.9933767
9.9951678
9.9976668
10.000449
10.002283
1541.5468
1742.6849
558.86457
384.01521
230.43443
165.27324
118.70881
90.333401
71.141954
57.877511
48.288869
41.162226
35.742739
31.535589
28.207801
25.531293
23.346884
21.541546
20.033253
18.760658
17.678065
16.750468
15.950622
15.256967
14.652128
14.121783
13.65342
13.23906
12.870981
12.543714
12.251248
11.989638
11.755459
11.545908
11.358617
11.191553
11.042924
10.911117
10.794648
10.692135
10.602281
10.52386
10.455685
10.396462
10.345211
10.300959
10.262885
10.230434
10.202533
10.178634
10.158187
10.140729
10.125822
10.113083
10.102296
10.093051
10.08511
10.078122
10.071338
10.064012
10.056262
10.048028
10.039311
10.030146
10.020713
10.011743
10.004702
9.9990379
9.9947144
9.9915813
9.9895346
9.9884818
9.9883226
9.9889047
9.9900306
9.9915648
9.993589
9.9962833
9.9992432
10.001252
1461.978
1580.5148
509.77219
344.52822
206.48595
145.97837
105.53404
80.744251
64.03886
52.458847
44.118971
37.92129
33.197201
29.515847
26.58986
24.223729
22.281323
20.665944
19.307706
18.155358
17.169639
16.320662
15.585015
14.944128
14.383041
13.889561
13.453649
13.066992
12.722842
12.415585
12.140568
11.894129
11.673196
11.475229
11.298077
11.139883
10.998997
10.873917
10.763246
10.665666
10.579947
10.505002
10.440122
10.383685
10.334826
10.292624
10.256261
10.224994
10.198149
10.175071
10.155268
10.138298
10.123867
10.111458
10.100802
10.09163
10.083679
10.076611
10.069673
10.062204
10.054304
10.045914
10.03704
10.027738
10.018237
10.009463
10.002509
9.9969236
9.9926599
9.9895814
9.9875904
9.986591
9.9864722
9.9870807
9.9882466
9.9898773
9.9920275
9.9947716
9.9978371
10.000308
1350.3003
1494.2489
463.63736
297.09912
182.66006
127.85212
93.615946
72.248612
57.889086
47.886273
40.653825
35.261565
31.128761
27.886153
25.290395
23.176632
21.430073
19.968632
18.731398
17.67599
16.768575
15.983375
15.300039
14.702293
14.176941
13.713197
13.302138
12.936419
12.610084
12.318648
12.057174
11.822465
11.611704
11.422581
11.25313
11.10165
10.96663
10.846692
10.740553
10.646991
10.564829
10.492916
10.430119
10.375501
10.328109
10.287091
10.251667
10.22117
10.195128
10.172689
10.153409
10.136835
10.122584
10.110322
10.099751
10.090605
10.082627
10.075489
10.068461
10.060913
10.052938
10.04447
10.035512
10.026122
10.016559
10.00783
10.00087
9.9952641
9.9909755
9.9878796
9.9858845
9.9848952
9.9847991
9.985445
9.9866711
9.9884006
9.9906414
9.9933996
9.9964866
9.9993201
1217.9786
1253.0128
423.45962
254.79883
160.48901
112.72873
83.748734
65.384991
53.02656
44.360747
38.047495
33.297525
29.623293
26.71441
24.365837
22.438059
20.833473
19.482118
18.332725
17.346911
16.495506
15.755803
15.109821
14.543037
14.043525
13.601365
13.208498
12.858155
12.544756
12.263689
12.011179
11.784081
11.579803
11.396179
11.231366
11.083767
10.951958
10.834637
10.730594
10.638694
10.557912
10.487518
10.425941
10.37234
10.32579
10.285464
10.250596
10.220496
10.194546
10.172201
10.152965
10.136408
10.122148
10.109854
10.099233
10.090026
10.08198
10.07478
10.067743
10.060184
10.052217
10.043763
10.034811
10.025404
10.015792
10.006971
9.9999211
9.9942139
9.9898242
9.9866312
9.9845425
9.9834708
9.9833314
9.9840102
9.9853426
9.9872174
9.9896018
9.9924361
9.9955732
9.998654
1098.9098
1114.6297
390.7867
224.0646
143.89603
101.5996
76.437892
60.384034
49.549264
41.886005
36.246296
31.962254
28.617614
25.947008
23.773902
21.977375
20.472232
19.197018
18.106442
17.166461
16.350984
15.639632
15.016198
14.467662
13.983857
13.554418
13.172066
12.830405
12.524184
12.249037
12.001363
11.778194
11.577074
11.395954
11.233095
11.086986
10.956283
10.839753
10.73624
10.644643
10.563902
10.493
10.430968
10.376869
10.329825
10.289016
10.253692
10.223163
10.196814
10.174089
10.154499
10.13761
10.12304
10.110454
10.099559
10.090094
10.081815
10.074447
10.067484
10.059968
10.052085
10.043748
10.034931
10.025632
10.016033
10.006947
9.9997163
9.9938402
9.9892973
9.9859617
9.983718
9.982495
9.9821742
9.9827857
9.9842401
9.9862855
9.9888234
9.9917702
9.9950114
9.9983672
1044.2252
1073.7416
366.52097
206.97449
133.0199
94.04231
70.987067
56.407014
46.584705
39.627748
34.492012
30.572839
27.499859
25.035921
23.02321
21.353235
19.949329
18.756022
17.732339
16.84744
16.077677
15.404569
14.813376
14.292103
13.830816
13.421198
13.056206
12.72991
12.437326
12.174301
11.937389
11.723745
11.531017
11.357249
11.200789
11.060212
10.934257
10.821773
10.721685
10.632968
10.554634
10.485728
10.42533
10.372563
10.326594
10.286647
10.252006
10.222013
10.196076
10.173664
10.154304
10.137577
10.123115
10.110594
10.099729
10.090269
10.08198
10.074601
10.067672
10.060194
10.052363
10.044097
10.035377
10.026189
10.016654
10.007468
10.000099
9.9940713
9.9893739
9.9859067
9.9835505
9.9821721
9.9817215
9.9817672
9.9835125
9.9857231
9.9883517
9.9913833
9.9946991
9.9982253
31844.33
79115.886
37316.298
10784.902
1409.0169
615.25969
436.61285
352.6049
292.15828
237.69014
193.57479
160.06973
135.29873
116.94533
102.84501
91.31102
81.535121
73.191808
66.050774
59.894169
54.541019
49.854586
45.729513
42.079919
38.839962
35.94465
33.34821
31.010322
28.898842
26.988405
25.257423
23.68669
22.25942
20.960808
19.779207
18.70484
17.72893
16.84371
16.042092
15.31761
14.664624
14.077569
13.551368
13.081432
12.663265
12.292633
11.965687
11.678357
11.426926
11.208037
11.018442
10.855051
10.714897
10.595436
10.494153
10.408944
10.340219
10.287676
10.250671
10.231165
10.225268
10.224149
10.222562
10.219739
10.215816
10.210239
10.201467
10.186739
10.163047
10.126347
10.081028
10.046992
10.026859
10.016848
10.027462
10.037641
10.051818
10.073813
10.050648
10.016545
19629.163
60619.271
25140.777
5157.9068
978.96912
531.79853
399.58911
322.9842
265.31411
213.75992
175.17319
146.20294
125.01411
109.16385
96.662914
86.163311
77.204365
69.553911
62.982984
57.287718
52.312259
47.940105
44.078724
40.651631
37.596513
34.859948
32.400224
30.179698
28.170047
26.34851
24.695205
23.192357
21.824517
20.578084
19.442659
18.40922
17.469589
16.616564
15.843502
15.144362
14.513882
13.946737
13.43816
12.983808
12.579366
12.220805
11.904444
11.626321
11.382901
11.170959
10.98735
10.829091
10.693319
10.577596
10.479495
10.396819
10.329782
10.278657
10.242824
10.224448
10.219125
10.218101
10.216476
10.213663
10.209757
10.204134
10.195153
10.180038
10.156446
10.122279
10.078964
10.046757
10.028058
10.019684
10.031826
10.041839
10.053991
10.074212
10.045944
10.017021
27296.868
37144.553
14056.52
2605.0437
841.90638
501.32747
389.05103
307.38972
251.60848
201.95254
167.1868
139.9479
120.29025
105.35389
93.439163
83.360734
74.793165
67.47814
61.182415
55.716279
50.935888
46.731574
43.014993
39.71304
36.764581
34.122118
31.745285
29.597452
27.652405
25.888346
24.286121
22.828656
21.501208
20.290795
19.18774
18.183349
17.269785
16.440165
15.688091
15.007778
14.394189
13.842124
13.347026
12.904697
12.510933
12.16184
11.853846
11.583056
11.346066
11.13974
10.961003
10.806951
10.674811
10.562238
10.466732
10.386259
10.320498
10.270442
10.235487
10.217937
10.213077
10.212138
10.21052
10.207755
10.20389
10.198218
10.18906
10.173687
10.150059
10.118447
10.077266
10.046828
10.029498
10.022896
10.03594
10.046419
10.056003
10.074293
10.041794
10.017575
34961.141
24487.154
8548.5783
1571.6069
757.63673
477.57315
376.22251
291.20781
240.06905
191.02547
159.9415
133.87801
115.80914
101.69946
90.367794
80.707181
72.517073
65.513464
59.474928
54.224204
49.62681
45.579483
41.998204
38.813261
35.966886
33.411055
31.111712
29.032398
27.148535
25.439064
23.885533
22.471501
21.182868
20.007214
18.935541
17.959405
17.071292
16.264607
15.533167
14.871424
14.274544
13.737432
13.255735
12.825384
12.442275
12.102646
11.803025
11.539581
11.309041
11.108351
10.934507
10.784682
10.656262
10.546766
10.453883
10.375651
10.311272
10.262289
10.228238
10.21155
10.207152
10.206307
10.204716
10.202019
10.198199
10.192466
10.183095
10.167497
10.143973
10.114511
10.07567
10.047038
10.030954
10.026363
10.040005
10.051451
10.05795
10.074141
10.03817
10.018131
39737.635
20563.235
5974.9227
1232.898
721.0823
460.18659
366.06032
278.4325
231.61089
182.63945
154.77973
129.13823
112.41269
98.78656
87.890557
78.543597
70.648967
63.88457
58.04616
52.964913
48.513038
44.591736
41.120004
38.030607
35.267803
32.786244
30.549961
28.528442
26.696653
25.033977
23.522491
22.146228
20.891596
19.746612
18.702835
17.751953
16.886732
16.100797
15.388126
14.743368
14.161846
13.638537
13.169273
12.750076
12.376928
12.046179
11.754438
11.497926
11.273495
11.078156
10.90897
10.763194
10.638298
10.531762
10.441399
10.365316
10.302367
10.254377
10.221185
10.205321
10.20136
10.200616
10.199075
10.196462
10.192686
10.186876
10.177271
10.161454
10.13819
10.110508
10.074243
10.047412
10.032369
10.030023
10.044052
10.056278
10.059715
10.073684
10.034703
10.018454
42651.616
19091.684
4560.7369
1156.7743
699.6891
441.03791
358.05347
268.29825
225.06863
175.91952
150.71837
125.1111
109.60306
96.269215
85.754658
76.666572
69.020307
62.454444
56.784825
51.847533
47.519993
43.706886
40.329643
37.323045
34.63315
32.216025
30.035811
28.065355
26.279712
24.658761
23.18495
21.842701
20.618845
19.501768
18.483511
17.555823
16.711734
15.945037
15.249843
14.620971
14.053868
13.543567
13.086065
12.677454
12.313788
11.991517
11.707319
11.45746
11.238909
11.048734
10.884066
10.742274
10.62071
10.517045
10.429139
10.355153
10.293723
10.246663
10.214309
10.199254
10.195715
10.195081
10.193609
10.191088
10.187349
10.181433
10.171571
10.155552
10.132644
10.106559
10.072978
10.047927
10.03422
10.033737
10.047953
10.059552
10.060982
10.0729
10.031084
10.018487
44961.192
17239.258
3636.915
1103.0638
683.57577
427.81527
351.86618
260.1195
219.98291
170.55143
147.47757
121.71219
107.27366
94.092907
83.914104
75.036403
67.597962
61.197227
55.669942
50.854752
46.633365
42.913143
39.617451
36.682684
34.056332
31.695774
29.566504
27.63997
25.895086
24.311329
22.871287
21.559672
20.363671
19.271975
18.277048
17.370642
16.546036
15.797148
15.118202
14.504162
13.950573
13.452504
13.006109
12.607523
12.252864
11.938672
11.661681
11.418195
11.205299
11.020116
10.859884
10.721817
10.603495
10.502623
10.417109
10.345171
10.285351
10.239161
10.207618
10.193358
10.190231
10.189712
10.188323
10.185897
10.182175
10.17612
10.165973
10.149785
10.127325
10.102814
10.071878
10.048569
10.03734
10.037271
10.051586
10.061805
10.062016
10.071801
10.027619
10.018401
46670.377
14607.027
3045.6584
1069.8768
671.35722
417.08989
346.47036