/*--------------------------------*- C++ -*----------------------------------*\
  =========                 |
  \\      /  F ield         | OpenFOAM: The Open Source CFD Toolbox
   \\    /   O peration     | Website:  https://openfoam.org
    \\  /    A nd           | Version:  12
     \\/     M anipulation  |
\*---------------------------------------------------------------------------*/
FoamFile
{
    format      ascii;
    class       surfaceScalarField;
    location    "0.052";
    object      phi;
}
// * * * * * * * * * * * * * * * * * * * * * * * * * * * * * * * * * * * * * //

dimensions      [1 0 -1 0 0 0 0];

internalField   nonuniform List<scalar> 
31760
(
-0.00064771212
-0.050840988
0.051486641
-0.0016143546
-0.064201397
0.065165724
-0.0025941827
-0.062868305
0.063842145
-0.0036184873
-0.068505856
0.069527951
-0.0046983507
-0.070188467
0.071266018
-0.0058052076
-0.074439178
0.075543574
-0.0069838454
-0.077367469
0.078543469
-0.0082001152
-0.081364389
0.082577849
-0.009477993
-0.084983547
0.08625846
-0.010814151
-0.089093521
0.090426534
-0.012206495
-0.093221323
0.094610342
-0.013666319
-0.097625468
0.099081775
-0.015188496
-0.10219376
0.10371222
-0.016781249
-0.10698789
0.10857672
-0.018444226
-0.11199675
0.11365558
-0.0201822
-0.11723692
0.11897052
-0.021997881
-0.12271642
0.12452748
-0.02389451
-0.12844668
0.13033843
-0.025875369
-0.13443866
0.13641436
-0.027943898
-0.14070362
0.1427667
-0.030103574
-0.14725392
0.14940783
-0.032358198
-0.15410151
0.15635004
-0.034711405
-0.16125995
0.16360672
-0.037167135
-0.16874294
0.17119186
-0.039728399
-0.17656496
0.17911904
-0.042399808
-0.18474013
0.18740395
-0.045185283
-0.19328465
0.19606211
-0.048088276
-0.20221511
0.20510964
-0.0511123
-0.21154843
0.21456352
-0.054261412
-0.22130266
0.22444232
-0.05753892
-0.23149671
0.23476425
-0.060948148
-0.24215041
0.2455491
-0.064491889
-0.25328525
0.25681785
-0.068173153
-0.26492235
0.26859184
-0.071993881
-0.27708582
0.28089411
-0.075955663
-0.2898
0.29374864
-0.080059732
-0.30309066
0.30718085
-0.084306441
-0.31698561
0.32121767
-0.08869545
-0.33151296
0.33588653
-0.093225253
-0.34670434
0.35121787
-0.097893623
-0.36259172
0.36724296
-0.10269687
-0.37920916
0.38399438
-0.10763006
-0.39659306
0.40150731
-0.11268704
-0.41478173
0.41981879
-0.11785965
-0.43381607
0.43896774
-0.12313825
-0.45373842
0.45899502
-0.12851075
-0.47459452
0.4799439
-0.13396359
-0.4964318
0.50186035
-0.13948059
-0.5193016
0.52479307
-0.14504267
-0.54325727
0.54879249
-0.15062799
-0.56835506
0.57391208
-0.15621211
-0.59465525
0.60020955
-0.16176664
-0.62222084
0.62774395
-0.16725947
-0.65111857
0.65657837
-0.17265481
-0.68141876
0.68677953
-0.17791122
-0.71319645
0.71841702
-0.18298286
-0.74653003
0.75156511
-0.18781828
-0.78150243
0.78630149
-0.19235872
-0.81820144
0.82270723
-0.19653935
-0.85671888
0.86086866
-0.20028715
-0.89715082
0.90087445
-0.20352129
-0.93959708
0.94281732
-0.20615164
-0.98416103
0.98679195
-0.20807873
-1.0309474
1.0328942
-0.20919286
-1.0800594
1.081217
-0.20937378
-1.1315978
1.1318505
-0.20848738
-1.1856562
1.1848742
-0.20639093
-1.2423175
1.2403621
-0.20291969
-1.3016577
1.2983689
-0.19788695
-1.3637376
1.3589345
-0.19108877
-1.4286045
1.4220897
-0.18230193
-1.496296
1.4878523
-0.17126906
-1.5668621
1.5562331
-0.15772946
-1.6403829
1.6272967
-0.14138647
-1.7170244
1.7011517
-0.12180609
-1.7971935
1.7780547
-0.099019741
-1.8813903
1.8590021
-0.071653987
-1.9696967
1.942602
-0.040709493
-2.065093
2.0343948
-2.1641348
2.1280961
-0.00064047393
-0.050202336
-0.0015103351
-0.063333466
-0.0024109519
-0.061970001
-0.0033723442
-0.067546582
-0.0043457671
-0.069217266
-0.005396167
-0.07339115
-0.00646252
-0.076303698
-0.007608961
-0.080220694
-0.0087818264
-0.083813593
-0.010029294
-0.087849148
-0.01132024
-0.091933656
-0.012678998
-0.096270184
-0.014095678
-0.10078076
-0.015579345
-0.10550812
-0.017130228
-0.11044999
-0.018752504
-0.115619
-0.020448398
-0.12102515
-0.022221714
-0.12667825
-0.024075708
-0.13258984
-0.026014003
-0.1387708
-0.028040296
-0.14523341
-0.030157883
-0.15199005
-0.03237091
-0.1590534
-0.034683107
-0.16643759
-0.037099311
-0.174156
-0.039622375
-0.18222473
-0.042257029
-0.1906581
-0.045007042
-0.19947368
-0.047876726
-0.20868782
-0.050869675
-0.21831931
-0.053989986
-0.22838657
-0.057240996
-0.23891016
-0.060626006
-0.24991163
-0.064147986
-0.26141243
-0.067809329
-0.27343725
-0.071612307
-0.28601054
-0.075558021
-0.29915925
-0.079647881
-0.31291088
-0.083881117
-0.32729572
-0.08825718
-0.34234517
-0.092774291
-0.35809246
-0.097429143
-0.37457316
-0.10221712
-0.39182499
-0.10713286
-0.40988702
-0.11216894
-0.42880221
-0.11731637
-0.44861444
-0.12256445
-0.46937121
-0.12790003
-0.49112241
-0.13330821
-0.51392111
-0.13877177
-0.53782302
-0.14427058
-0.56288729
-0.14978177
-0.58917697
-0.15527919
-0.61675829
-0.16073343
-0.64570117
-0.16611118
-0.67607974
-0.17137467
-0.7079733
-0.17648174
-0.74146435
-0.18138482
-0.77664076
-0.18603028
-0.8135959
-0.19035863
-0.85242679
-0.19430295
-0.8932362
-0.19778897
-0.93613063
-0.2007339
-0.98122135
-0.20304758
-1.0286202
-0.20462961
-1.0784403
-0.20537135
-1.1307911
-0.20514919
-1.1857812
-0.20383029
-1.2435025
-0.20126529
-1.3040466
-0.19728472
-1.3674932
-0.19170103
-1.4339064
-0.18430235
-1.5033495
-0.17485837
-1.5758968
-0.16311995
-1.6516617
-0.14881143
-1.7308587
-0.1316274
-1.8139311
-0.11128819
-1.9013374
-0.087086708
-1.9936206
-0.059275243
-2.092635
-2.1962789
-0.00057839892
-0.049625835
-0.0013897489
-0.062524155
-0.002202414
-0.061158713
-0.0031073701
-0.066643917
-0.0040025025
-0.068324482
-0.0049834635
-0.072412693
-0.0059665335
-0.075323281
-0.0070330374
-0.079156994
-0.0081192478
-0.082730335
-0.0092783847
-0.086693136
-0.010477739
-0.090737599
-0.011741319
-0.095010093
-0.013060198
-0.099465569
-0.014442651
-0.10412957
-0.015889384
-0.10900739
-0.01740401
-0.11410874
-0.018989905
-0.11944388
-0.020650047
-0.125023
-0.022388735
-0.13085633
-0.024208824
-0.13695619
-0.026114831
-0.14333321
-0.028110311
-0.15000072
-0.030199178
-0.15697105
-0.032386245
-0.16425742
-0.034674816
-0.17187474
-0.037070129
-0.17983716
-0.039575662
-0.18816078
-0.042196503
-0.19686154
-0.044936225
-0.20595733
-0.047799985
-0.21546533
-0.050790896
-0.22540603
-0.053913276
-0.23579879
-0.057170911
-0.24666567
-0.060566455
-0.25802927
-0.064103447
-0.2699134
-0.067783992
-0.28234393
-0.071610243
-0.29534777
-0.075582617
-0.30895417
-0.079702006
-0.32319294
-0.083967752
-0.33809704
-0.088377901
-0.35370098
-0.092930139
-0.37004072
-0.09762086
-0.38715527
-0.10244434
-0.40508583
-0.10739426
-0.42387593
-0.11246229
-0.4435715
-0.11763879
-0.46422133
-0.12291141
-0.48587806
-0.12826709
-0.50859548
-0.13368965
-0.53243245
-0.13916029
-0.55745071
-0.14465891
-0.58371461
-0.15016141
-0.61129435
-0.15564097
-0.64026253
-0.16106731
-0.67069658
-0.16640622
-0.70267952
-0.17161955
-0.73629748
-0.17666327
-0.77164379
-0.18148972
-0.80881493
-0.1860439
-0.84791457
-0.19026561
-0.88905
-0.19408706
-0.93233469
-0.19743413
-0.97788569
-0.20022421
-1.025823
-0.20236684
-1.0762676
-0.20376188
-1.1293386
-0.20430325
-1.1851506
-0.20386712
-1.2438126
-0.20231466
-1.3054302
-0.19949571
-1.3700925
-0.19523185
-1.4378911
-0.18933452
-1.5089009
-0.18158793
-1.5832309
-0.17176776
-1.6610197
-0.15962084
-1.742532
-0.14488022
-1.8282285
-0.12721336
-1.9186191
-0.1061939
-2.0143498
-0.081694155
-2.1168415
-2.2244558
-0.00052180227
-0.049105829
-0.0012725054
-0.061775471
-0.0020089894
-0.060424492
-0.0028610737
-0.065794059
-0.0036906326
-0.067497228
-0.0046047461
-0.071501053
-0.0055108405
-0.074419778
-0.0065037507
-0.078166833
-0.0075096761
-0.081727311
-0.00858775
-0.085618138
-0.0097028526
-0.08962575
-0.010879254
-0.093837137
-0.012109021
-0.098239451
-0.01339945
-0.10284301
-0.014752249
-0.10765868
-0.016171213
-0.11269412
-0.017659672
-0.11796001
-0.019221036
-0.12346651
-0.020858811
-0.12922372
-0.022577379
-0.1352431
-0.024379946
-0.14153646
-0.026271608
-0.14811522
-0.02825631
-0.15499289
-0.030338074
-0.1621826
-0.032522087
-0.16969809
-0.034812331
-0.17755473
-0.037213872
-0.18576754
-0.039731071
-0.19435316
-0.042369391
-0.20332837
-0.045132197
-0.21271248
-0.048024613
-0.22252419
-0.051050984
-0.23278366
-0.054214972
-0.24351363
-0.057520413
-0.25473654
-0.060970651
-0.26647667
-0.064568064
-0.27876087
-0.06831477
-0.29161634
-0.072212568
-0.30507261
-0.076261677
-0.31916109
-0.08046199
-0.33391509
-0.08481273
-0.34936979
-0.089311025
-0.36556323
-0.093953843
-0.3825346
-0.098736561
-0.40032669
-0.10365295
-0.41898465
-0.1086962
-0.43855501
-0.11385624
-0.4590898
-0.11912374
-0.48064095
-0.1244855
-0.50326617
-0.12992737
-0.52702522
-0.13543318
-0.55198193
-0.14098367
-0.57820367
-0.14655789
-0.60576234
-0.15213214
-0.63473318
-0.15767831
-0.66519789
-0.16316684
-0.69724076
-0.16856274
-0.73095299
-0.17382737
-0.76643114
-0.17891744
-0.80377579
-0.18378408
-0.84309558
-0.18837298
-0.88450258
-0.19262368
-0.92811578
-0.19646969
-0.97405776
-0.19983726
-1.0224555
-0.20264579
-1.0734368
-0.20480866
-1.1271267
-0.20622276
-1.1836563
-0.20678418
-1.2431345
-0.20636437
-1.3056899
-0.20482749
-1.3714171
-0.20201358
-1.4404308
-0.19773832
-1.5128325
-0.19181948
-1.5887381
-0.18404515
-1.6683343
-0.17419555
-1.7519134
-0.16202417
-1.839963
-0.14721416
-1.9330475
-0.1294302
-2.0318328
-0.10846312
-2.1374982
-2.2485757
-0.00046566663
-0.048641869
-0.001168693
-0.061074383
-0.0018287422
-0.059766425
-0.0026238404
-0.065001109
-0.0033782448
-0.066745108
-0.0042341999
-0.070647534
-0.0050733869
-0.073583129
-0.0060004085
-0.077242508
-0.0069348124
-0.080795759
-0.0079394634
-0.084616511
-0.0089798963
-0.088588519
-0.010079126
-0.092741303
-0.011231343
-0.097090833
-0.012442752
-0.10163541
-0.013715766
-0.10638972
-0.015053517
-0.11136066
-0.01645979
-0.1165583
-0.017938391
-0.12199275
-0.019493048
-0.12767421
-0.021127822
-0.13361379
-0.022847461
-0.13982262
-0.024655347
-0.1463135
-0.026557025
-0.15309776
-0.028557113
-0.16018948
-0.030660162
-0.16760246
-0.032871476
-0.1753513
-0.035196286
-0.18345112
-0.03763955
-0.19191882
-0.040206206
-0.20077122
-0.042901464
-0.21002735
-0.045730198
-0.21970624
-0.048696869
-0.22982847
-0.051805816
-0.24041692
-0.055061359
-0.25149403
-0.058466616
-0.2630853
-0.062024614
-0.27521768
-0.065737785
-0.28791895
-0.069607945
-0.30121928
-0.073635744
-0.31515125
-0.077821448
-0.32974855
-0.082163867
-0.34504783
-0.086661653
-0.3610873
-0.091311317
-0.37790828
-0.096108935
-0.39555401
-0.10104977
-0.41407045
-0.10612653
-0.43350671
-0.11133165
-0.45391511
-0.11665562
-0.47534954
-0.1220873
-0.49786935
-0.12761466
-0.52153521
-0.13322268
-0.54641393
-0.13889529
-0.57257391
-0.14461374
-0.60008971
-0.15035684
-0.6290389
-0.15610124
-0.65950522
-0.16181992
-0.6915764
-0.16748217
-0.72534698
-0.17305487
-0.76091556
-0.17849927
-0.79838777
-0.18377303
-0.83787526
-0.18882784
-0.8794954
-0.19361076
-0.92337127
-0.19806281
-0.96963099
-0.2021197
-1.0184066
-0.20571073
-1.0698322
-0.20875686
-1.1240411
-0.21117514
-1.1811679
-0.21286128
-1.2413419
-0.21371366
-1.3046872
-0.21359385
-1.3713333
-0.21236521
-1.441392
-0.2098647
-1.5149946
-0.20592049
-1.5922761
-0.20035035
-1.673453
-0.19295329
-1.7588534
-0.18350284
-1.8489856
-0.17173264
-1.9444393
-0.15732814
-2.045932
-0.14011252
-2.1543923
-2.2685275
-0.00041547076
-0.048228031
-0.0010776583
-0.060414072
-0.0016747994
-0.059171204
-0.0024116826
-0.064266312
-0.0030894102
-0.066069568
-0.0038936002
-0.069845718
-0.0046658772
-0.07281333
-0.0055328556
-0.076378161
-0.0064032194
-0.07992819
-0.007345771
-0.08367692
-0.0083254953
-0.087611936
-0.0093619768
-0.091708157
-0.010451655
-0.096004696
-0.011599214
-0.10049162
-0.012807509
-0.10518542
-0.01408042
-0.110092
-0.015421476
-0.11522176
-0.016834575
-0.12058446
-0.01832424
-0.12618966
-0.019894485
-0.13204899
-0.021550428
-0.13817247
-0.023296902
-0.14457319
-0.025139068
-0.15126217
-0.027082047
-0.1582535
-0.029131465
-0.1655605
-0.031293139
-0.17319758
-0.033571811
-0.18118092
-0.035973779
-0.1895259
-0.038504332
-0.19825032
-0.041168828
-0.20737314
-0.043972829
-0.21691322
-0.046920872
-0.22689215
-0.050018302
-0.23733201
-0.053268361
-0.24825734
-0.056675485
-0.25969246
-0.060242932
-0.2716655
-0.063972817
-0.28420539
-0.067867029
-0.29734253
-0.071927008
-0.31110996
-0.076152703
-0.32554286
-0.08054387
-0.34067808
-0.085098353
-0.35655575
-0.089814242
-0.37321696
-0.094688085
-0.39070647
-0.099714586
-0.40907213
-0.10488841
-0.42836308
-0.1102035
-0.44863238
-0.11565071
-0.46993707
-0.12122171
-0.49233563
-0.1269047
-0.51589224
-0.13268859
-0.54067301
-0.13855887
-0.56674972
-0.14449987
-0.59419805
-0.15049375
-0.62309765
-0.15652029
-0.65353451
-0.16255664
-0.68559877
-0.16857775
-0.71938684
-0.17455394
-0.75500152
-0.18045288
-0.79255062
-0.18623742
-0.83215
-0.19186715
-0.87391967
-0.19729603
-0.91798782
-0.20247371
-0.96448638
-0.20734448
-1.0135525
-0.21184731
-1.0653254
-0.21591476
-1.1199447
-0.21947166
-1.1775521
-0.22243477
-1.2382837
-0.22469976
-1.3022828
-0.22615909
-1.3696802
-0.22667823
-1.4406144
-0.22611612
-1.5152269
-0.22432154
-1.5936752
-0.22113228
-1.6762059
-0.21636953
-1.7631767
-0.20983426
-1.8551064
-0.20129177
-1.9526111
-0.19047013
-2.0564542
-0.17723243
-2.1673069
-2.2841509
-0.00037231505
-0.047857282
-0.0010033351
-0.05978487
-0.0015454375
-0.058630972
-0.0022349561
-0.06357882
-0.0028535537
-0.065453098
-0.0036098509
-0.069091707
-0.0043250908
-0.072100493
-0.0051305337
-0.075575281
-0.005958664
-0.079102785
-0.0068547056
-0.082783782
-0.0077880114
-0.086681714
-0.0087745065
-0.090724942
-0.0098138567
-0.094968834
-0.01091012
-0.099399067
-0.012067375
-0.10403211
-0.013289128
-0.10887445
-0.014580257
-0.11393511
-0.015944874
-0.11922461
-0.017387799
-0.12475181
-0.018914443
-0.13052776
-0.020529428
-0.13656326
-0.022238973
-0.14286981
-0.024048303
-0.14945942
-0.025963119
-0.15634571
-0.02798978
-0.16354133
-0.030133924
-0.17106144
-0.032402431
-0.17892097
-0.034800846
-0.18713662
-0.037334882
-0.19572605
-0.040011113
-0.20470736
-0.042834511
-0.214101
-0.045810618
-0.22392801
-0.048944057
-0.23421137
-0.052239883
-0.24497522
-0.055701084
-0.25624594
-0.059331249
-0.26805107
-0.0631334
-0.28042011
-0.067109121
-0.2933849
-0.071259419
-0.30697908
-0.075584813
-0.32123831
-0.080085107
-0.33620016
-0.084758879
-0.351906
-0.089604378
-0.36839724
-0.094618229
-0.3857203
-0.09979728
-0.40392281
-0.10513673
-0.42305557
-0.11063082
-0.44317261
-0.11627374
-0.46433104
-0.12205717
-0.48659189
-0.12797329
-0.51001881
-0.13401161
-0.53468056
-0.14016129
-0.5606493
-0.14641005
-0.58800206
-0.15274308
-0.61682097
-0.15914442
-0.64719302
-0.16559524
-0.67921097
-0.17207507
-0.71297261
-0.17856003
-0.74858372
-0.18502312
-0.78615478
-0.19143446
-0.82580392
-0.19775952
-0.8676553
-0.20396072
-0.91183953
-0.20999572
-0.95849289
-0.21581839
-1.007756
-0.22137781
-1.0597725
-0.22661682
-1.1146881
-0.23147166
-1.1726503
-0.23586965
-1.2338027
-0.2397219
-1.298303
-0.2429281
-1.3662915
-0.24537794
-1.437917
-0.24694369
-1.5133438
-0.24749303
-1.5927469
-0.24689306
-1.6763919
-0.24498025
-1.764675
-0.2415796
-1.8581137
-0.23650926
-1.9573304
-0.22950863
-2.0631715
-0.22047403
-2.1760297
-2.295216
-0.00032868588
-0.047530104
-0.00093393301
-0.059181387
-0.0014263968
-0.058140325
-0.002070077
-0.062937111
-0.0026435992
-0.064881653
-0.0033715124
-0.068365981
-0.0040528193
-0.071421553
-0.0048436766
-0.074786933
-0.0056322303
-0.078316912
-0.0064818281
-0.081937035
-0.0073725771
-0.085793996
-0.0083159058
-0.089784841
-0.0093143491
-0.093973828
-0.010371341
-0.098345736
-0.011491341
-0.10291602
-0.012678936
-0.10769102
-0.013938103
-0.11268038
-0.015274832
-0.11789262
-0.016693967
-0.12333773
-0.018201195
-0.12902593
-0.019802365
-0.13496786
-0.021503485
-0.14117485
-0.023310865
-0.14765862
-0.025231741
-0.15443187
-0.027271577
-0.16150903
-0.029437842
-0.16890324
-0.03173665
-0.17663079
-0.034174802
-0.18470771
-0.036758764
-0.19315199
-0.039494546
-0.20198218
-0.042387822
-0.2112191
-0.045444264
-0.22088376
-0.048668923
-0.2309998
-0.052065766
-0.24159243
-0.055638941
-0.25268786
-0.059391853
-0.26431438
-0.063326575
-0.27650282
-0.067445258
-0.28928496
-0.071749118
-0.30269538
-0.076238602
-0.31677051
-0.080913412
-0.33154867
-0.085773394
-0.34707111
-0.090816304
-0.36338133
-0.096040398
-0.38052525
-0.10144299
-0.39855147
-0.10702054
-0.41751168
-0.11276921
-0.43746018
-0.11868442
-0.45845488
-0.12476066
-0.4805577
-0.13099177
-0.50383297
-0.13737099
-0.52835006
-0.14388974
-0.55418291
-0.1505391
-0.58140884
-0.15730836
-0.61011171
-0.16418568
-0.64037945
-0.17115739
-0.67230649
-0.17820723
-0.70599293
-0.18531725
-0.74154587
-0.19246686
-0.77907794
-0.1996324
-0.81870984
-0.20678722
-0.86056817
-0.21390139
-0.90478625
-0.22094132
-0.95150356
-0.22787043
-1.0008632
-0.23464712
-1.0530138
-0.24122595
-1.108104
-0.24755367
-1.1662884
-0.25356708
-1.2277192
-0.25919432
-1.292561
-0.26435239
-1.3609639
-0.26893462
-1.4331012
-0.2728443
-1.5091338
-0.27596596
-1.5892696
-0.27818628
-1.6737876
-0.27937081
-1.763108
-0.27937344
-1.8577482
-0.27802812
-1.9583583
-0.27511741
-2.0658329
-0.27056526
-2.1803005
-2.3014456
-0.00028669871
-0.047244859
-0.00087302608
-0.058596768
-0.0013247619
-0.057690352
-0.0019444427
-0.062319345
-0.0024951497
-0.06433297
-0.0031993584
-0.067663985
-0.0038542882
-0.070768932
-0.0046197937
-0.074023886
-0.0053782675
-0.077561055
-0.0061955087
-0.081122586
-0.0070591934
-0.084933285
-0.0079760159
-0.08887119
-0.0089508791
-0.093002345
-0.0099872108
-0.097313011
-0.011090105
-0.10181697
-0.012264403
-0.10652083
-0.013515787
-0.11143339
-0.014849679
-0.11656342
-0.016272096
-0.12192033
-0.017789816
-0.12751358
-0.019408874
-0.13335454
-0.021136792
-0.13945308
-0.02297993
-0.14582207
-0.024945656
-0.1524732
-0.027041519
-0.15942073
-0.029274265
-0.1666786
-0.031651375
-0.17426238
-0.034179657
-0.18218877
-0.036865481
-0.19047619
-0.039715573
-0.19914286
-0.042735908
-0.20821034
-0.045931446
-0.21770067
-0.049306966
-0.22763766
-0.052867166
-0.23804663
-0.056615611
-0.24895492
-0.060554954
-0.26039173
-0.064687972
-0.27238778
-0.069016424
-0.28497589
-0.073541243
-0.29819144
-0.078263393
-0.31207087
-0.083182753
-0.32665357
-0.088298865
-0.34198114
-0.093611307
-0.35809707
-0.099119265
-0.37504768
-0.10482088
-0.39288263
-0.11071452
-0.41165338
-0.11679791
-0.43141494
-0.12306858
-0.45222534
-0.12952376
-0.47414688
-0.13615962
-0.49724493
-0.14297249
-0.52158868
-0.14995772
-0.54725305
-0.15710962
-0.57431637
-0.16442216
-0.60286269
-0.17188755
-0.63298165
-0.17949714
-0.66476832
-0.18723993
-0.69832488
-0.19510448
-0.73375853
-0.20307603
-0.77118482
-0.21113792
-0.81072584
-0.21927148
-0.85250966
-0.22745496
-0.89667214
-0.23566398
-0.94335485
-0.24387051
-0.99270407
-0.25204446
-1.0448699
-0.26014975
-1.1000065
-0.26814586
-1.1582718
-0.27598052
-1.2198285
-0.28359597
-1.2848452
-0.29091776
-1.3534878
-0.29787026
-1.425933
-0.30436715
-1.5023597
-0.31032172
-1.58299
-0.31563461
-1.6681278
-0.32019455
-1.7582038
-0.3238792
-1.853739
-0.32655415
-1.9554115
-0.32807561
-2.0641177
-0.32832423
-2.179827
-2.3025059
-0.00024795546
-0.046998307
-0.00082283085
-0.058023549
-0.0012440434
-0.057270854
-0.0018882391
-0.061677019
-0.0024243853
-0.063798799
-0.0031057054
-0.066984697
-0.0037377717
-0.070139109
-0.0044611424
-0.073302944
-0.0052060139
-0.076818742
-0.0060075053
-0.080323827
-0.006861196
-0.084082508
-0.007769907
-0.087965589
-0.0087408126
-0.092034762
-0.0097778527
-0.09627952
-0.010886803
-0.10071182
-0.012073431
-0.10533826
-0.013343986
-0.11016718
-0.014705152
-0.1152069
-0.016163719
-0.12046674
-0.017726391
-0.12595624
-0.019401772
-0.13168488
-0.02119629
-0.1376647
-0.023118773
-0.14390617
-0.025176457
-0.15042259
-0.027377116
-0.15722767
-0.029728773
-0.16433511
-0.032238748
-0.17176119
-0.03491392
-0.17952304
-0.037761587
-0.18763868
-0.040787617
-0.19612777
-0.043997483
-0.20501225
-0.047396716
-0.21431413
-0.050989618
-0.22405844
-0.054780262
-0.23427074
-0.058771805
-0.24497929
-0.062966936
-0.25621377
-0.067367763
-0.26800549
-0.071975863
-0.2803878
-0.076792848
-0.29339605
-0.081819255
-0.30706777
-0.087055841
-0.32144216
-0.092503209
-0.33656096
-0.098161643
-0.35246799
-0.10403094
-0.36921009
-0.11011172
-0.38683611
-0.11640422
-0.40539789
-0.12290814
-0.42495099
-0.12962361
-0.44555304
-0.13655051
-0.46726659
-0.14368872
-0.49015702
-0.15103713
-0.51429447
-0.15859559
-0.53975291
-0.16636226
-0.56661231
-0.17433521
-0.59495675
-0.18251196
-0.62487627
-0.19088872
-0.65646711
-0.19946107
-0.68983185
-0.20822269
-0.72507925
-0.21716638
-0.76232539
-0.22628305
-0.80169375
-0.23556108
-0.84331441
-0.24498784
-0.88732371
-0.25454789
-0.9338654
-0.26422377
-0.98308723
-0.27399428
-1.0351423
-0.28383468
-1.0901878
-0.29371445
-1.1483862
-0.30359729
-1.209905
-0.31343559
-1.2749228
-0.32317642
-1.3436112
-0.33276185
-1.4161546
-0.34212123
-1.492753
-0.35119373
-1.573631
-0.3599028
-1.6591165
-0.36815684
-1.749651
-0.37584241
-1.8457747
-0.38287186
-1.9481636
-0.38918668
-2.057672
-0.39465211
-2.1742223
-2.2980337
-0.00021363473
-0.046786021
-0.00078887196
-0.05744991
-0.0011869334
-0.056874452
-0.0018488361
-0.061016952
-0.002363126
-0.063286425
-0.0030364834
-0.066313418
-0.0036609836
-0.069516796
-0.0043799917
-0.072586272
-0.005127187
-0.076074043
-0.0059288177
-0.079524864
-0.006790132
-0.083224045
-0.0077112229
-0.087047547
-0.0087005892
-0.091048657
-0.009763042
-0.095220559
-0.010905256
-0.099573341
-0.012133942
-0.10411358
-0.013456274
-0.10884914
-0.014879573
-0.11378821
-0.01641225
-0.11893901
-0.018062198
-0.1243116
-0.019837651
-0.12991513
-0.02174747
-0.13576101
-0.023799739
-0.1418605
-0.026003095
-0.14822633
-0.028366174
-0.15487223
-0.030896288
-0.16181323
-0.033601176
-0.16906516
-0.036488025
-0.17664575
-0.039563481
-0.18457353
-0.042832667
-0.1928697
-0.046301893
-0.20155503
-0.049974897
-0.21065408
-0.053856337
-0.22019099
-0.057948868
-0.23019332
-0.062255189
-0.2406893
-0.066778109
-0.2517085
-0.071519422
-0.26328325
-0.076480527
-0.27544731
-0.081663022
-0.28823585
-0.087068562
-0.30168634
-0.092698499
-0.31583829
-0.098554449
-0.3307332
-0.10463789
-0.34641504
-0.1109512
-0.36292977
-0.1174965
-0.3803265
-0.1242759
-0.3986571
-0.13129278
-0.41797588
-0.13854933
-0.43834164
-0.14604925
-0.45981546
-0.15379556
-0.4824634
-0.16179176
-0.50635508
-0.17004042
-0.53156542
-0.17854505
-0.55817342
-0.18730862
-0.58626358
-0.19633333
-0.61592667
-0.20562124
-0.64725889
-0.21517405
-0.68036297
-0.22499208
-0.71534878
-0.23507498
-0.75233272
-0.24542099
-0.79143922
-0.25602818
-0.83279805
-0.26689156
-0.87654801
-0.2780055
-0.92283285
-0.28936218
-0.97180182
-0.30095109
-1.02361
-0.31275843
-1.0784169
-0.32476616
-1.1363885
-0.33694861
-1.1976989
-0.34927863
-1.2625278
-0.3617188
-1.3310578
-0.37422477
-1.4034842
-0.38676262
-1.4800049
-0.39927956
-1.5608738
-0.41172075
-1.6464254
-0.42400912
-1.7371178
-0.43605894
-1.8335021
-0.44781878
-1.9362547
-0.45934221
-2.046093
-0.47047586
-2.1630561
-2.2876292
-0.00019224645
-0.046595069
-0.00078682512
-0.056856872
-0.0011809253
-0.056481952
-0.001835031
-0.060364599
-0.0023423068
-0.062781
-0.0030198184
-0.065637898
-0.0036596951
-0.068879043
-0.0043852046
-0.071863042
-0.0051543137
-0.075307368
-0.0059774782
-0.078704306
-0.0068684138
-0.0823359
-0.007826304
-0.086092646
-0.0088607396
-0.090017425
-0.0099777864
-0.094106948
-0.011185163
-0.098369652
-0.012490749
-0.10281195
-0.013902972
-0.10744117
-0.015430638
-0.11226511
-0.017082343
-0.11729222
-0.018867985
-0.12253125
-0.020796309
-0.12799251
-0.022876908
-0.13368655
-0.025118521
-0.1396255
-0.02753015
-0.14582183
-0.030120207
-0.15228986
-0.032896636
-0.1590451
-0.035866324
-0.16610444
-0.039036273
-0.17348548
-0.042411806
-0.18120846
-0.045998785
-0.18929403
-0.049800883
-0.19776515
-0.053822117
-0.20664606
-0.05806567
-0.21596174
-0.062534
-0.22574046
-0.067229456
-0.23601058
-0.07215415
-0.24680192
-0.07730965
-0.25814736
-0.082698288
-0.2700799
-0.088321868
-0.28263525
-0.094182972
-0.29585011
-0.10028434
-0.30976386
-0.10662917
-0.32441755
-0.11322145
-0.33985438
-0.12006523
-0.35612024
-0.12716515
-0.37326369
-0.13452691
-0.39133551
-0.1421561
-0.4103902
-0.15005909
-0.43048573
-0.15824234
-0.45168311
-0.1667131
-0.47404764
-0.17547862
-0.49764892
-0.18454712
-0.52256088
-0.19392609
-0.54886322
-0.20362367
-0.57663975
-0.21364746
-0.60598169
-0.22400613
-0.63698403
-0.23470677
-0.6697509
-0.24575704
-0.70439136
-0.25716416
-0.74102192
-0.2689349
-0.77976707
-0.28107478
-0.82075729
-0.29358901
-0.86413114
-0.30648141
-0.91003306
-0.31975416
-0.95861312
-0.33340776
-1.0100273
-0.34743962
-1.0644372
-0.36184369
-1.1220117
-0.37660996
-1.1829282
-0.39172837
-1.2473667
-0.40717586
-1.3155243
-0.42293816
-1.387592
-0.43898843
-1.4637881
-0.45530432
-1.5443708
-0.47185215
-1.6296882
-0.48856997
-1.720221
-0.50539014
-1.8165358
-0.52232618
-1.9192601
-0.53951179
-2.0289412
-0.55678831
-2.1458673
-2.2708192
-0.00017374888
-0.046422565
-0.00079696174
-0.056235145
-0.0011977534
-0.056082706
-0.0018626913
-0.059701356
-0.0023821281
-0.062263357
-0.003074645
-0.06494732
-0.0037449763
-0.068210777
-0.0044941499
-0.071116087
-0.0053033472
-0.074500545
-0.006170424
-0.077839778
-0.0071150804
-0.081393976
-0.0081372439
-0.085073417
-0.0092472489
-0.088910571
-0.010452802
-0.092904781
-0.011762942
-0.097063153
-0.013186975
-0.10139184
-0.014734624
-0.10589774
-0.016415956
-0.11058833
-0.018241198
-0.11547188
-0.020220225
-0.12055751
-0.022363384
-0.12585505
-0.024680197
-0.13137589
-0.027179775
-0.13713257
-0.029871206
-0.14313758
-0.032762165
-0.14940667
-0.03585983
-0.15595583
-0.039171292
-0.16280206
-0.042701298
-0.1699653
-0.046454956
-0.17746543
-0.050436078
-0.18532442
-0.054647973
-0.19356571
-0.059093585
-0.20221394
-0.063774191
-0.21129574
-0.068692945
-0.22083753
-0.073851207
-0.23086947
-0.079250861
-0.24142084
-0.084894732
-0.25252362
-0.090785032
-0.26421142
-0.096925873
-0.27651806
-0.10332095
-0.28948068
-0.10997483
-0.30313779
-0.11689296
-0.31752958
-0.12408191
-0.33269813
-0.13154848
-0.34868914
-0.13930059
-0.36555005
-0.14734701
-0.38333079
-0.15569692
-0.40208547
-0.1643603
-0.42187128
-0.17334816
-0.44274821
-0.18267152
-0.46478153
-0.19234265
-0.48803962
-0.20237327
-0.51259692
-0.21277726
-0.53853099
-0.22356742
-0.56592663
-0.23475817
-0.5948734
-0.24636308
-0.62546703
-0.25839727
-0.65780994
-0.27087518
-0.69201162
-0.28381157
-0.72818801
-0.29722213
-0.76646229
-0.31112098
-0.80696601
-0.32552296
-0.84983642
-0.34044218
-0.89521795
-0.35589148
-0.94326111
-0.37188188
-0.99412277
-0.38842331
-1.0479649
-0.40552369
-1.1049576
-0.42318981
-1.1652795
-0.44142303
-1.2291167
-0.46022743
-1.2966658
-0.47960289
-1.3681266
-0.49954946
-1.4437243
-0.52006019
-1.5237312
-0.54111703
-1.6085093
-0.56269803
-1.6985421
-0.58476974
-1.7944168
-0.60740054
-1.8966618
-0.63071077
-2.0057541
-0.65461752
-2.1222132
-2.2470228
-0.00015962649
-0.046264136
-0.00082459779
-0.055571608
-0.0012391936
-0.055669603
-0.001934326
-0.059007862
-0.0024840366
-0.061715384
-0.0032051022
-0.064228134
-0.003926277
-0.067491611
-0.0047201498
-0.070324377
-0.0055923956
-0.07363062
-0.0065305655
-0.076904102
-0.0075582966
-0.080368926
-0.0086776979
-0.0839569
-0.0099001585
-0.087691216
-0.011235445
-0.091572839
-0.012694117
-0.095608087
-0.014287218
-0.099802624
-0.016025847
-0.10416331
-0.017921188
-0.10869752
-0.0199843
-0.11341366
-0.022225912
-0.11832118
-0.02465604
-0.12343064
-0.027284514
-0.1287536
-0.030120406
-0.13430337
-0.033171125
-0.14009411
-0.036444072
-0.14614157
-0.039945096
-0.1524633
-0.043678952
-0.15907741
-0.047649873
-0.16600435
-0.051860912
-0.17326521
-0.056314347
-0.1808827
-0.061011884
-0.18888088
-0.065955572
-0.19728403
-0.071146836
-0.20611941
-0.076587411
-0.21541315
-0.082279758
-0.22519468
-0.088226528
-0.23549312
-0.094431163
-0.24633965
-0.10089872
-0.25776628
-0.10763354
-0.26980756
-0.11464264
-0.28249798
-0.12193286
-0.29587624
-0.12951345
-0.30998011
-0.13739278
-0.3248526
-0.14558155
-0.34053704
-0.15409164
-0.35707976
-0.1629346
-0.374531
-0.17212399
-0.39294289
-0.18167417
-0.41237183
-0.19159975
-0.43287757
-0.20191702
-0.4545237
-0.21264223
-0.47737865
-0.22379371
-0.50151476
-0.23538903
-0.52701036
-0.24744754
-0.55394841
-0.25998969
-0.58241735
-0.27303606
-0.61251265
-0.286608
-0.64433585
-0.30072866
-0.67799446
-0.31542093
-0.7136044
-0.33070815
-0.75128808
-0.34661486
-0.79117537
-0.36316595
-0.8334026
-0.38038576
-0.87811399
-0.39829781
-0.92545997
-0.41692639
-0.97559576
-0.43629368
-1.0286846
-0.45642154
-1.0848968
-0.47733199
-1.1444109
-0.49904595
-1.2074154
-0.52158808
-1.2741056
-0.54497727
-1.3446917
-0.56922955
-1.4194076
-0.59436071
-1.4985321
-0.62038729
-1.5824321
-0.64731642
-1.6716062
-0.67516989
-1.7666265
-0.70401916
-1.8679487
-0.73396467
-1.9760397
-0.76504909
-2.0915678
-2.2155284
-0.00015151012
-0.046113779
-0.00087709951
-0.054847402
-0.0013109941
-0.05523715
-0.0020498086
-0.058270634
-0.0026505219
-0.061116357
-0.0034183026
-0.063462181
-0.0042134383
-0.066698434
-0.0050769527
-0.069462973
-0.0060379881
-0.072671855
-0.0070786467
-0.075865889
-0.008224642
-0.079225567
-0.0094816431
-0.082702742
-0.010862529
-0.086313397
-0.012379099
-0.090059582
-0.0140437
-0.093947065
-0.015868631
-0.097981562
-0.017866147
-0.10216998
-0.020048058
-0.10652013
-0.022425794
-0.11104083
-0.025009995
-0.11574229
-0.027810593
-0.1206358
-0.030836141
-0.12573429
-0.034094135
-0.13105214
-0.037591251
-0.13660432
-0.041332088
-0.14240868
-0.0453209
-0.14848312
-0.049559821
-0.15484784
-0.054050964
-0.16152336
-0.058795717
-0.16853146
-0.063794768
-0.17589559
-0.069049371
-0.18363924
-0.074560377
-0.19178708
-0.080329944
-0.2003651
-0.086360265
-0.20939939
-0.092655183
-0.21891774
-0.099218623
-0.22894919
-0.1060568
-0.23952266
-0.11317587
-0.25067022
-0.1205848
-0.26242363
-0.128292
-0.27481793
-0.13630912
-0.28788863
-0.14464669
-0.3016746
-0.15331836
-0.31621576
-0.16233847
-0.33155478
-0.17172174
-0.34773759
-0.18148467
-0.36481269
-0.19164476
-0.38283122
-0.20222047
-0.40184863
-0.21323164
-0.42192328