/*--------------------------------*- C++ -*----------------------------------*\
  =========                 |
  \\      /  F ield         | OpenFOAM: The Open Source CFD Toolbox
   \\    /   O peration     | Website:  https://openfoam.org
    \\  /    A nd           | Version:  12
     \\/     M anipulation  |
\*---------------------------------------------------------------------------*/
FoamFile
{
    format      ascii;
    class       volScalarField;
    location    "0.104";
    object      Ma;
}
// * * * * * * * * * * * * * * * * * * * * * * * * * * * * * * * * * * * * * //

dimensions      [];

internalField   nonuniform List<scalar> 
16000
(
0.62773297
0.74563193
0.70073583
0.72524707
0.71020893
0.71712522
0.71142529
0.71293268
0.71028513
0.70983356
0.70820662
0.70706596
0.70564624
0.70426011
0.70279148
0.70127608
0.69970271
0.69807291
0.69638547
0.69463992
0.69283586
0.69097313
0.68905185
0.68707238
0.68503542
0.68294199
0.68079348
0.67859166
0.67633871
0.67403723
0.67169024
0.6693012
0.66687399
0.66441292
0.66192267
0.65940833
0.6568753
0.65432927
0.65177617
0.64922211
0.6466733
0.64413601
0.64161643
0.63912068
0.63665467
0.63422405
0.63183415
0.62948992
0.62719587
0.62495606
0.62277404
0.62065286
0.61859503
0.61660254
0.61467682
0.61281876
0.61102864
0.60930618
0.60765047
0.60605989
0.60453202
0.60306398
0.60165229
0.60029242
0.59897863
0.59770386
0.59645983
0.59523739
0.59402705
0.59281895
0.5916023
0.59036508
0.58909561
0.58778675
0.58644046
0.58506696
0.58359982
0.58244437
0.58025281
0.58018519
0.63224682
0.7508919
0.70421967
0.729939
0.71407357
0.72145601
0.71530749
0.71693506
0.7141039
0.71358045
0.71186553
0.71060894
0.70909741
0.70759665
0.70601889
0.70438636
0.70269322
0.70093933
0.69912411
0.69724713
0.69530825
0.69330759
0.69124561
0.68912307
0.68694111
0.68470128
0.68240552
0.68005621
0.67765619
0.67520876
0.67271766
0.67018712
0.66762179
0.66502677
0.66240753
0.65976991
0.65712002
0.65446424
0.6518091
0.64916123
0.64652727
0.6439138
0.64132722
0.63877372
0.63625917
0.63378904
0.63136837
0.62900171
0.62669308
0.62444596
0.62226324
0.62014727
0.61809984
0.61612218
0.61421498
0.61237838
0.61061195
0.60891476
0.60728527
0.60572135
0.60422014
0.60277832
0.60139208
0.60005668
0.59876624
0.59751361
0.59629035
0.5950872
0.59389448
0.59270225
0.59149969
0.59027474
0.58901561
0.58771531
0.58637424
0.58499398
0.58359633
0.58224418
0.58049635
0.57985144
0.63647885
0.75572148
0.70774239
0.73404295
0.71771891
0.72520342
0.71889486
0.72041075
0.71752355
0.7168426
0.71505877
0.71366358
0.71204699
0.71041867
0.70871565
0.70695136
0.70512254
0.70322879
0.70126978
0.6992454
0.69715585
0.69500166
0.69278373
0.69050334
0.68816221
0.6857625
0.68330684
0.68079835
0.67824067
0.67563792
0.67299477
0.67031632
0.66760818
0.66487635
0.66212723
0.65936752
0.65660415
0.65384422
0.65109492
0.64836337
0.64565661
0.64298144
0.64034438
0.63775153
0.63520855
0.63272056
0.63029209
0.62792707
0.62562881
0.62339997
0.62124259
0.61915812
0.6171474
0.61521074
0.6133479
0.61155816
0.60984023
0.60819239
0.6066124
0.6050975
0.6036443
0.602249
0.60090742
0.59961455
0.59836433
0.59714949
0.59596152
0.59479106
0.59362839
0.59246359
0.59128596
0.59008369
0.58884528
0.58756344
0.58623789
0.58487662
0.58350609
0.58209069
0.58054229
0.57963534
0.64034449
0.76013335
0.71084467
0.73763291
0.72089874
0.72849082
0.72201689
0.72340207
0.72045087
0.71959321
0.71772644
0.71617671
0.71443715
0.7126652
0.71081941
0.70890653
0.70692528
0.70487523
0.70275641
0.70056907
0.69831382
0.69599167
0.69360404
0.69115282
0.68864041
0.68606972
0.68344422
0.68076795
0.67804551
0.67528205
0.6724833
0.66965545
0.66680519
0.66393958
0.66106603
0.65819216
0.65532575
0.65247462
0.64964649
0.64684892
0.64408917
0.64137408
0.63871005
0.63610286
0.63355767
0.63107898
0.62867055
0.62633541
0.62407589
0.6218936
0.61978952
0.61776397
0.61581672
0.61394699
0.61215354
0.61043465
0.60878817
0.60721153
0.60570175
0.60425546
0.60286874
0.60153737
0.60025678
0.59902176
0.59782612
0.59666252
0.59552243
0.59439645
0.59327486
0.59214779
0.5910048
0.58983445
0.58862543
0.58736996
0.5860686
0.58473493
0.58338359
0.58196887
0.58054705
0.57944904
0.64383096
0.76405606
0.71366249
0.74058716
0.72346375
0.73121369
0.72462198
0.72581703
0.72281959
0.72175069
0.71979008
0.71806795
0.71618676
0.7142554
0.71224975
0.71017213
0.70802227
0.70579994
0.70350545
0.70113941
0.69870294
0.69619759
0.69362549
0.6909893
0.68829233
0.68553848
0.68273233
0.67987908
0.67698457
0.67405523
0.67109808
0.66812061
0.66513076
0.66213676
0.65914711
0.6561704
0.6532152
0.65028993
0.64740276
0.64456143
0.6417732
0.63904468
0.6363818
0.63378972
0.63127279
0.62883452
0.62647756
0.62420378
0.62201422
0.61990924
0.61788848
0.61595101
0.61409536
0.61231957
0.61062131
0.60899784
0.60744608
0.60596265
0.60454386
0.60318572
0.60188383
0.60063357
0.59943008
0.59826795
0.59714092
0.59604166
0.59496166
0.59389159
0.59282178
0.59174252
0.59064374
0.58951454
0.58834375
0.58712343
0.58585598
0.58455663
0.5832293
0.5818447
0.58050028
0.57928186
0.64688958
0.76740887
0.71602275
0.7430834
0.72568405
0.73329217
0.72657161
0.72757671
0.7245368
0.72324202
0.72117527
0.71926975
0.71723089
0.71512707
0.71294617
0.71068815
0.70835318
0.70594141
0.70345358
0.70089093
0.69825531
0.69554916
0.69277561
0.68993847
0.68704228
0.68409231
0.68109457
0.67805576
0.67498326
0.67188507
0.66876973
0.6656462
0.66252378
0.65941196
0.65632032
0.65325829
0.65023511
0.6472596
0.64434004
0.64148406
0.63869853
0.63598942
0.63336181
0.6308198
0.62836649
0.62600403
0.62373365
0.62155568
0.61946965
0.61747439
0.61556808
0.61374838
0.61201249
0.61035725
0.60877921
0.60727462
0.60583956
0.60446985
0.60316117
0.60190899
0.60070853
0.59955483
0.59844283
0.59736701
0.59632111
0.59529786
0.5942889
0.59328502
0.59227668
0.59125444
0.59020872
0.5891292
0.58800488
0.58682814
0.58560308
0.58434365
0.58304814
0.58171034
0.58042845
0.57912162
0.64949134
0.77017365
0.7179305
0.74508357
0.72743592
0.73470711
0.72802042
0.72864756
0.72562045
0.72404672
0.7218594
0.71975937
0.71754285
0.71524801
0.71287038
0.71040943
0.70786589
0.7052407
0.70253547
0.69975244
0.6968946
0.69396567
0.69097021
0.68791356
0.68480192
0.68164229
0.67844249
0.67521106
0.67195722
0.66869078
0.66542195
0.66216131
0.65891953
0.65570731
0.65253511
0.64941303
0.64635061
0.6433567
0.64043927
0.63760534
0.63486085
0.63221066
0.62965843
0.6272067
0.62485692
0.62260945
0.62046371
0.61841822
0.61647078
0.6146185
0.61285801
0.6111855
0.60959684
0.60808768
0.60665351
0.60528971
0.60399153
0.60275419
0.60157283
0.6004425
0.59935814
0.5983146
0.5973067
0.59632891
0.59537505
0.59443802
0.59350967
0.59258102
0.59164277
0.5906858
0.58970116
0.58867912
0.58760901
0.58648395
0.58530905
0.58409506
0.58283919
0.58155945
0.58033409
0.57896205
0.6516785
0.77238138
0.71942673
0.7466166
0.72877738
0.73568552
0.72897287
0.72947129
0.72603858
0.72418715
0.72184341
0.71952248
0.71709383
0.71457598
0.71196867
0.70927207
0.70648767
0.70361751
0.7006644
0.69763195
0.69452469
0.69134802
0.68810834
0.68481296
0.68147016
0.67808909
0.67467975
0.67125285
0.66781971
0.66439208
0.660982
0.65760156
0.65426273
0.65097711
0.64775575
0.64460893
0.64154601
0.63857525
0.63570368
0.63293706
0.63027977
0.62773486
0.62530403
0.62298774
0.62078526
0.61869481
0.61671368
0.6148384
0.61306483
0.61138836
0.60980402
0.60830659
0.60689071
0.60555094
0.60428189
0.60307817
0.60193445
0.60084544
0.59980593
0.59881074
0.59785465
0.59693245
0.59603898
0.5951688
0.5943159
0.59347346
0.59263363
0.59178774
0.59092683
0.59004222
0.58912561
0.58816789
0.58715895
0.58609301
0.58497511
0.58381158
0.58260303
0.58139096
0.58021941
0.5787985
0.65351826
0.7740602
0.72046814
0.74768003
0.72945916
0.73571555
0.72909824
0.72880074
0.72574745
0.72360906
0.72105959
0.71848161
0.71579868
0.71301845
0.71014242
0.70717197
0.70410967
0.70095895
0.69772423
0.69441095
0.69102564
0.68757594
0.68407059
0.68051942
0.67693327
0.67332389
0.66970384
0.66608627
0.66248476
0.65891308
0.65538495
0.65191378
0.64851241
0.64519289
0.64196623
0.63884219
0.63582916
0.632934
0.63016196
0.62751672
0.62500033
0.62261333
0.62035485
0.61822273
0.61621369
0.61432351
0.61254719
0.61087912
0.6093133
0.60784341
0.60646302
0.60516567
0.60394495
0.60279459
0.60170849
0.60068074
0.59970564
0.59877762
0.59789133
0.59704149
0.59622293
0.59543053
0.59465924
0.59390386
0.59315864
0.59241713
0.59167187
0.5909146
0.59013678
0.58933028
0.58848742
0.58759971
0.58665799
0.58565777
0.58460271
0.58349412
0.58234003
0.58120288
0.58008301
0.57862952
0.65500788
0.77518262
0.72098014
0.74807078
0.72941532
0.73520553
0.72862249
0.72793581
0.72468201
0.72219155
0.71938659
0.71651402
0.71353342
0.7104484
0.70726151
0.70397593
0.70059587
0.69712676
0.69357528
0.68994935
0.68625822
0.68251243
0.67872379
0.67490522
0.6710707
0.66723501
0.66341356
0.65962209
0.65587644
0.65219216
0.64858428
0.64506698
0.64165327
0.63835479
0.63518154
0.63214175
0.62924174
0.62648593
0.6238768
0.62141499
0.61909942
0.61692747
0.61489515
0.61299732
0.61122791
0.60958014
0.60804673
0.60662007
0.60529241
0.60405599
0.60290318
0.60182656
0.60081899
0.59987363
0.59898399
0.59814391
0.59734756
0.59658935
0.59586396
0.59516626
0.59449126
0.59383408
0.59318995
0.59255396
0.59192075
0.59128431
0.59063766
0.58997305
0.58928245
0.5885583
0.5877935
0.58698023
0.58611072
0.5851818
0.58419425
0.58314454
0.58205166
0.58099395
0.57992245
0.57845435
0.65608455
0.77564529
0.72088509
0.74692284
0.72859531
0.73384164
0.72735203
0.72607083
0.7226847
0.71981727
0.71669938
0.71348656
0.71015912
0.70672104
0.70317618
0.69953003
0.69578927
0.69196213
0.68805839
0.68408937
0.68006795
0.67600843
0.67192643
0.66783867
0.66376273
0.65971672
0.65571901
0.65178778
0.64794073
0.64419461
0.64056495
0.63706563
0.63370867
0.63050397
0.62745915
0.62457953
0.62186805
0.61932546
0.61695039
0.61473958
0.61268813
0.61078975
0.60903705
0.60742179
0.60593514
0.60456792
0.6033108
0.60215449
0.60108987
0.60010812
0.5992008
0.59835994
0.597578
0.59684796
0.59616325
0.59551778
0.59490582
0.59432201
0.59376131
0.59321888
0.59269009
0.59217042
0.59165551
0.59114083
0.59062151
0.59009202
0.58954596
0.58897616
0.58837517
0.58773604
0.5870521
0.58631636
0.58552286
0.58466953
0.58375294
0.58276579
0.58174068
0.58076435
0.5797356
0.57827301
0.6566582
0.77528314
0.72007056
0.74511761
0.72715608
0.73155564
0.72514245
0.72325271
0.71963352
0.71634872
0.71285392
0.70924579
0.70551535
0.70166926
0.69771365
0.69365722
0.68951023
0.68528489
0.6809953
0.67665737
0.67228866
0.6679082
0.66353618
0.6591936
0.65490191
0.65068252
0.64655639
0.64254352
0.63866248
0.63492999
0.63136055
0.6279661
0.62475585
0.62173616
0.61891052
0.6162797
0.61384189
0.61159298
0.60952685
0.60763576
0.6059106
0.60434132
0.60291718
0.60162707
0.60045977
0.59940414
0.59844932
0.59758483
0.59680071
0.59608761
0.59543675
0.59484004
0.59429
0.59377976
0.59330303
0.59285402
0.59242743
0.59201832
0.5916221
0.5912344
0.59085108
0.59046812
0.59008163
0.58968756
0.58928157
0.5888587
0.58841315
0.58793842
0.58742773
0.58687464
0.58627287
0.58561638
0.58490142
0.5841264
0.58328294
0.58236203
0.58141123
0.58051603
0.57952142
0.57808899
0.65666687
0.77402207
0.71839968
0.74256475
0.72483682
0.72824641
0.7218683
0.71931638
0.71538059
0.71162703
0.70768276
0.70361269
0.69941359
0.69509633
0.690671
0.68615099
0.68155179
0.67689118
0.67218907
0.66746725
0.66274909
0.65805911
0.65342256
0.64886486
0.64441102
0.64008509
0.63590949
0.63190447
0.62808761
0.6244734
0.62107295
0.61789385
0.61494016
0.61221255
0.60970853
0.6074228
0.60534763
0.60347331
0.60178858
0.60028106
0.59893763
0.59774483
0.5966891
0.59575711
0.59493591
0.59421311
0.59357698
0.59301657
0.59252169
0.592083
0.59169192
0.5913407
0.59102231
0.59073038
0.59045918
0.59020353
0.58995872
0.58972043
0.58948469
0.58924771
0.58900595
0.58875598
0.58849443
0.58821782
0.58792234
0.58760364
0.5872566
0.58687542
0.58645404
0.58598643
0.58546665
0.58488988
0.58425459
0.58355886
0.58278943
0.58193878
0.58106844
0.5802515
0.579282
0.57790328
0.65609085
0.77176341
0.71580207
0.73891821
0.72150273
0.72379976
0.71738011
0.71411446
0.7097512
0.70545726
0.70097806
0.69636525
0.69162083
0.68676164
0.68180408
0.67676832
0.67167705
0.6665554
0.6614306
0.65633151
0.6512881
0.64633078
0.64148971
0.63679403
0.63227106
0.62794552
0.62383887
0.61996875
0.61634858
0.61298737
0.60988973
0.60705602
0.60448271
0.60216278
0.60008632
0.59824103
0.59661281
0.59518632
0.59394545
0.5928738
0.591955
0.59117304
0.59051251
0.58995877
0.58949808
0.58911764
0.5888057
0.58855151
0.58834531
0.58817831
0.58804265
0.58793129
0.58783799
0.58775722
0.58768402
0.587614
0.58754324
0.58746815
0.58738548
0.58729215
0.58718522
0.58706194
0.58691951
0.58675501
0.58656524
0.58634643
0.58609416
0.58580339
0.58546875
0.58508459
0.58464535
0.58414765
0.58359174
0.58297436
0.58227876
0.5815029
0.58071846
0.57997355
0.5790219
0.577716
0.65487139
0.76833605
0.71222477
0.7340926
0.71699354
0.71804671
0.71147725
0.70742969
0.70251101
0.69758139
0.69246692
0.68721796
0.68184439
0.67637133
0.67082418
0.66523224
0.65962742
0.65404393
0.64851764
0.64308529
0.6377836
0.63264826
0.62771287
0.6230079
0.61855974
0.61438999
0.61051486
0.60694501
0.60368548
0.60073596
0.59809129
0.59574205
0.59367529
0.59187525
0.59032411
0.58900273
0.58789121
0.58696949
0.58621773
0.58561674
0.58514818
0.58479479
0.58454049
0.58437047
0.58427118
0.58423036
0.58423697
0.58428114
0.58435411
0.58444814
0.58455643
0.58467301
0.5847927
0.58491097
0.58502384
0.58512784
0.5852199
0.58529728
0.58535747
0.58539814
0.58541704
0.58541205
0.58538098
0.58532151
0.58523097
0.58510623
0.58494355
0.58473869
0.58448688
0.58418283
0.5838216
0.58340131
0.5829231
0.58238143
0.58175855
0.58106228
0.58036857
0.57968693
0.57874626
0.57753243
0.65295392
0.76350147
0.7077121
0.72789675
0.71110158
0.71076153
0.70388989
0.69896405
0.69334052
0.68765721
0.68179612
0.6758134
0.66973049
0.6635834
0.6574093
0.65124908
0.64514605
0.63914506
0.63329134
0.62762916
0.62220034
0.61704281
0.61218938
0.60766662
0.6034942
0.59968454
0.59624291
0.59316776
0.59045146
0.58808112
0.58603958
0.58430642
0.58285894
0.58167305
0.58072406
0.57998734
0.57943884
0.5790555
0.57881554
0.57869866
0.57868613
0.57876086
0.57890738
0.57911179
0.57936171
0.57964615
0.57995547
0.58028123
0.58061608
0.58095368
0.58128857
0.58161605
0.58193214
0.58223344
0.58251703
0.58278042
0.58302144
0.5832382
0.58342896
0.58359213
0.58372614
0.5838295
0.58390062
0.58393774
0.58393875
0.5839011
0.58382176
0.58369719
0.5835232
0.58329494
0.58300836
0.58266295
0.58225953
0.58178968
0.58123778
0.58062505
0.58002565
0.57940032
0.57846672
0.57735622
0.65028054
0.75687048
0.7021454
0.72006644
0.70351819
0.70159762
0.69422982
0.68830358
0.68181542
0.6752509
0.66853397
0.66173059
0.65487824
0.64802747
0.64123079
0.63454372
0.62802274
0.62172354
0.61569893
0.60999681
0.60465833
0.5997165
0.59519517
0.59110871
0.58746215
0.5842518
0.58146625
0.57908763
0.57709293
0.57545544
0.57414596
0.57313402
0.57238881
0.57188004
0.57157849
0.57145649
0.57148821
0.57164985
0.57191972
0.57227821
0.57270777
0.57319282
0.57371958
0.574276
0.57485157
0.57543722
0.57602512
0.57660862
0.57718204
0.57774063
0.57828039
0.57879801
0.57929076
0.57975639
0.58019305
0.58059921
0.58097361
0.58131516
0.58162286
0.58189584
0.58213318
0.58233398
0.58249722
0.58262167
0.58270575
0.58274748
0.58274449
0.58269386
0.5825919
0.58243438
0.58221847
0.58194461
0.58161213
0.58120978
0.58072703
0.58019916
0.57969331
0.57912248
0.5782031
0.57716926
0.64671625
0.74777473
0.69491212
0.71014941
0.69378642
0.69007924
0.68199101
0.67493092
0.66742036
0.65985033
0.65218362
0.64450133
0.6368636
0.62934106
0.62200527
0.61492754
0.60817567
0.60181104
0.59588599
0.59044186
0.58550768
0.5810998
0.57722222
0.57386764
0.57101897
0.56865114
0.56673302
0.56522929
0.56410214
0.56331279
0.5628227
0.56259449
0.56259266
0.56278406
0.56313816
0.56362719
0.56422616
0.56491277
0.56566729
0.5664724
0.56731301
0.56817605
0.56905025
0.56992602
0.57079518
0.57165088
0.57248738
0.57329993
0.57408465
0.5748384
0.57555867
0.57624351
0.5768914
0.5775012
0.57807207
0.57860342
0.57909479
0.57954586
0.57995632
0.58032591
0.58065434
0.58094126
0.58118616
0.5813883
0.58154661
0.58165966
0.58172565
0.58174218
0.58170602
0.58161382
0.58146409
0.58125772
0.58099166
0.58065283
0.58023776
0.5797931
0.57937317
0.57885188
0.5779561
0.57700445
0.64197273
0.73622702
0.68558295
0.69758437
0.68132637
0.67564456
0.66657132
0.65822552
0.64953978
0.640857
0.63218761
0.6236366
0.61529351
0.60725203
0.59960066
0.59241945
0.58577597
0.57972255
0.57429461
0.56951032
0.56537131
0.56186442
0.55896398
0.55663451
0.55483345
0.55351373
0.55262609
0.55212093
0.55194984
0.55206669
0.55242838
0.55299527
0.55373146
0.55460472
0.5555865
0.55665167
0.55777832
0.55894747
0.5601428
0.56135036
0.56255835
0.56375679
0.56493737
0.56609321
0.56721866
0.56830917
0.56936109
0.57037158
0.57133849
0.57226021
0.57313565
0.5739641
0.57474516
0.57547871
0.57616482
0.57680372
0.5773957
0.57794109
0.57844021
0.57889336
0.57930078
0.5796626
0.57997879
0.58024904
0.58047277
0.58064908
0.58077664
0.58085346
0.58087681
0.58084436
0.58075595
0.58061223
0.58040761
0.58012876
0.5797802
0.57941507
0.57906987
0.57859085
0.57772854
0.57686926
0.63569047
0.72323099
0.67359912
0.68178198
0.6654184
0.65757069
0.64720106
0.63739874
0.62742037
0.61759222
0.60798475
0.59873236
0.58995106
0.58174762
0.57421056
0.56740704
0.56138046
0.5561503
0.55171361
0.54804777
0.54511419
0.54286224
0.54123324
0.54016397
0.5395898
0.53944704
0.53967474
0.54021595
0.54101842
0.542035
0.54322364
0.54454732
0.54597371
0.54747486
0.54902677
0.55060897
0.55220417
0.55379782
0.55537778
0.55693404
0.55845838
0.55994413
0.56138598
0.56277974
0.56412223
0.56541107
0.56664458
0.56782167
0.56894174
0.57000458
0.57101034
0.5719594
0.57285237
0.57368999
0.57447313
0.57520272
0.57587969
0.57650493
0.57707932
0.57760362
0.57807853
0.57850459
0.57888216
0.57921138
0.57949211
0.57972391
0.57990587
0.58003631
0.58011309
0.58013498
0.58010274
0.58001617
0.57986747
0.57964511
0.57936196
0.57907253
0.57879069
0.57834314
0.5775208
0.57676946
0.62754191
0.70622532
0.65812377
0.66185347
0.64501611
0.63479686
0.62284668
0.61148504
0.60024532
0.58944844
0.57922136
0.56971469
0.56104551
0.55330168
0.54653667
0.54077027
0.53599126
0.53216203
0.52922435
0.52710538
0.52572343
0.52499296
0.5248286
0.5251482
0.52587494
0.52693853
0.52827584
0.52983104
0.53155537
0.53340669
0.53534893
0.53735147
0.53938852
0.54143851
0.54348352
0.54550883
0.54750239
0.54945448
0.55135732
0.55320481
0.55499225
0.55671611
0.55837387
0.55996382
0.56148495
0.56293683
0.56431951
0.56563339
0.56687923
0.568058
0.56917089
0.57021922
0.57120441
0.57212796
0.57299137
0.57379616
0.5745438
0.57523565
0.57587303
0.57645712
0.57698897
0.57746949
0.57789937
0.57827913
0.57860904
0.57888909
0.57911866
0.57929645
0.57942101
0.57949212
0.57951087
0.57947556
0.57937698
0.57920741
0.57898782
0.5787695
0.57854149
0.57811844
0.5773422
0.5767121
0.61687845
0.68423002
0.63775857
0.63638083
0.61864296
0.60593369
0.5923348
0.57957984
0.56745204
0.55624869
0.54611161
0.5371618
0.52946509
0.52304007
0.51786119
0.513867
0.51096917
0.50906185
0.50803013
0.50775714
0.50812936
0.5090404
0.51039322
0.51210122
0.51408852
0.51628956
0.51864841
0.52111781
0.52365823
0.52623687
0.52882669
0.53140562
0.53395579
0.53646283
0.53891536
0.54130445
0.54362325
0.54586663
0.54803086
0.55011339
0.55211265
0.55402786
0.5558589
0.55760618
0.55927053
0.56085314
0.56235548
0.5637792
0.56512614
0.56639824
0.56759755
0.56872611
0.56978603
0.57077939
0.57170823
0.57257453
0.57338017
0.57412691
0.57481643
0.57545024
0.57602969
0.57655598
0.5770301
0.57745287
0.57782494
0.5781466
0.57841755
0.57863692
0.57880406
0.57891957
0.57898422
0.57899448
0.57894078
0.57882039
0.57866054
0.57850528
0.57832197
0.57792798
0.57721666
0.57668117
0.60254611
0.65513911
0.61058399
0.60360494
0.58468886
0.56960371
0.55477668
0.54132905
0.52922565
0.518683
0.50977374
0.50251501
0.49685657
0.49269885
0.48990651
0.48832357
0.4877862
0.48813278
0.48921108
0.49088256
0.49302453
0.49553066
0.49831035
0.50128755
0.50439909
0.50759312
0.51082739
0.51406781
0.51728711
0.52046365
0.52358049
0.52662448
0.52958565
0.53245657
0.53523188
0.53790795
0.54048248
0.54295431
0.54532315
0.54758946
0.54975423
0.55181894
0.55378541
0.55565574
0.55743225
0.5591174
0.56071377
0.562224
0.56365078
0.56499679
0.56626474
0.56745726
0.56857696
0.56962639
0.57060798
0.57152409
0.57237693
0.57316857
0.57390096
0.57457587
0.57519492
0.57575951
0.5762709
0.57673018
0.57713826
0.57749567
0.5778024
0.57805811
0.57826299
0.57841816
0.57852362
0.57857435
0.57856162
0.57848788
0.57838297
0.5782795
0.57812787
0.57776174
0.57712518
0.5766779
0.58257068
0.61660525
0.57440947
0.56172597
0.54213866
0.52510993
0.51020723
0.49749256
0.48693386
0.47857393
0.47231522
0.46799776
0.46541001
0.46431744
0.46448167
0.46567559
0.46769259
0.47035114
0.47349606
0.47699748
0.48074855
0.48466255
0.48866994
0.49271551
0.49675588
0.50075729
0.50469376
0.50854557
0.512298
0.5159403
0.51946492
0.52286679
0.52614285
0.52929159
0.53231273
0.53520695
0.53797568
0.54062093
0.54314514
0.54555108
0.54784178
0.55002043
0.55209036
0.55405494
0.55591761
0.5576818
0.55935092
0.56092834
0.56241738
0.56382129
0.56514325
0.56638635
0.56755355
0.56864776
0.56967172
0.57062804
0.5715192
0.5723475
0.57311511
0.57382402
0.57447601
0.57507271
0.57561557
0.5761059
0.57654478
0.57693291
0.57727057
0.577558
0.57779607
0.57798606
0.57812711
0.57821351
0.5782388
0.57821009
0.57815621
0.57809525
0.57796365
0.5776175
0.57705831
0.57675232
0.55433781
0.56612179
0.52788183
0.50939689
0.48871153
0.4732043
0.46019837
0.4502941
0.44322671
0.43875281
0.43652558
0.43618093
0.43736055
0.43973744
0.44302645
0.44698794
0.45142593
0.4561835
0.46113714
0.46619097
0.47127147
0.47632295
0.48130372
0.48618307
0.49093878
0.4955552
0.50002171
0.5043316
0.50848109
0.51246866
0.51629449
0.51996004
0.52346774
0.52682069
0.53002253
0.53307724
0.53598904
0.53876231
0.54140151
0.54391115
0.54629572
0.54855966
0.55070739
0.55274321
0.55467135
0.55649593
0.55822096
0.55985033
0.56138781
0.56283706
0.56420158
0.56548478
0.5666899
0.56782008
0.56887829
0.56986734
0.57078988
0.57164839
0.57244522
0.5731825
0.57386219
0.57448607
0.57505576
0.57557273
0.57603817
0.57645294
0.57681757
0.57713279
0.57739989
0.57761994
0.57779135
0.57790873
0.57796854
0.5779811
0.57797182
0.57794701
0.57783988
0.57753314
0.57705324
0.57678251
0.51373081
0.50115615
0.46387825
0.44594826
0.42849912
0.41627696
0.40795383
0.40331327
0.4017005
0.40252863
0.40522802
0.40931088
0.41437437
0.42009963
0.42624089
0.43261284
0.4390782
0.44553684
0.45191689
0.45816769
0.46425434
0.47015365
0.47585099
0.481338
0.4866109
0.49166921
0.49651481
0.50115124
0.5055832
0.50981616
0.51385611
0.5177093
0.52138217
0.52488116
0.5282127
0.53138311
0.53439859
0.53726518
0.53998875
0.542575
0.54502944
0.54735739
0.54956397
0.55165415
0.55363268
0.55550416
0.557273
0.55894343
0.56051954
0.56200524
0.56340427
0.56472025
0.56595661
0.56711664
0.56820348
0.56922006
0.57016917
0.57105343
0.57187529
0.57263701
0.57334068
0.57398821
0.57458136
0.57512171
0.57561055
0.57604884
0.57643742
0.57677731
0.5770699
0.57731584
0.57751318
0.57765752
0.57774777
0.57779491
0.57781871
0.5778174
0.57773029
0.57746926
0.57707733
0.57688053
0.45181857
0.41920776
0.38947415
0.37460669
0.36375719
0.35894989
0.35838354
0.36113803
0.36622085
0.37287127
0.38050311
0.38869121
0.3971347
0.40562619
0.41402582
0.42224165
0.43021526
0.43791141
0.44531081
0.45240503
0.45919295
0.46567829
0.47186794
0.47777075
0.48339673
0.48875649
0.49386087
0.49872067
0.5033465
0.50774865
0.51193705
0.51592123
0.5197103
0.52331293
0.52673741
0.52999159
0.53308299
0.53601872
0.53880558
0.54145003
0.54395823
0.54633606
0.54858913
0.55072279
0.55274214
0.55465208
0.55645726
0.55816215
0.55977102
0.56128794
0.56271681
0.56406137
0.56532517
0.56651162
0.56762393
0.56866516
0.56963815
0.57054564
0.57139014
0.57217402
0.57289945
0.57356845
0.57418288
0.57474439
0.57525436
0.57571391
0.57612408
0.57648608
0.57680114
0.57706952
0.57728936
0.57745763
0.57757502
0.57765112
0.577699
0.5777116
0.5776397
0.57742438
0.57711242
0.57694863
0.35595168
0.32244568
0.3048156
0.30032912
0.30171304
0.3079846
0.31716438
0.32798519
0.33957247
0.35137422
0.36305425
0.37441627
0.38535243
0.39580958
0.40576804
0.41522815
0.42420193
0.4327079
0.4407678
0.4484047
0.45564174
0.46250148
0.46900546
0.47517405
0.48102635
0.48658018
0.49185214
0.49685766
0.50161106
0.50612567
0.51041387
0.51448721
0.51835644
0.52203162
0.52552214
0.5288368
0.5319839
0.53497119
0.53780602
0.54049532
0.54304562
0.54546313
0.54775374
0.54992302
0.55197628
0.55391859
0.55575474
0.55748932
0.55912671
0.56067107
0.5621264
0.56349649
0.56478499
0.56599533
0.56713082
0.56819453
0.56918939
0.57011817
0.57098347
0.57178768
0.57253306
0.57322168
0.57385547
0.57443611
0.57496507
0.57544363
0.57587297
0.57625434
0.57658876
0.57687626
0.57711538
0.57730443
0.57744494
0.57754414
0.57760939
0.57763202
0.57757649
0.57740723
0.57716401
0.57701382
0.21673189
0.2154496
0.22083724
0.23424419
0.25156217
0.26996168
0.28823744
0.30573858
0.32223579
0.33766491
0.35205103
0.36545446
0.37794893
0.38960969
0.40050851
0.41071143
0.42027819
0.4292623
0.43771152
0.4456684
0.45317085
0.46025271
0.46694424
0.47327257
0.47926211
0.48493486
0.49031075
0.49540784
0.50024261
0.5048301
0.50918409
0.51331726
0.5172413
0.52096702
0.52450445
0.52786291
0.53105112
0.53407719
0.53694878
0.53967304
0.54225673
0.54470623
0.54702756
0.54922643
0.55130826
0.55327817
0.55514105
0.55690155
0.5585641
0.56013291
0.56161201
0.56300524
0.56431626
0.56554857
0.56670547
0.56779009
0.56880537
0.56975411
0.57063894
0.57146231
0.57222648
0.57293358
0.57358553
0.57418407
0.5747307
0.57522678
0.57567358
0.57607228
0.57642371
0.57672783
0.57698366
0.57719041
0.57734977
0.57746657
0.5775441
0.57757461
0.57753478
0.57740456
0.57721307
0.57706534
0.092000784
0.12192116
0.15936679
0.19303567
0.22318733
0.24973136
0.27328817
0.29432375
0.31325432
0.33040612
0.34604212
0.36037297
0.3735696
0.38577195
0.39709573
0.40763753
0.41747871
0.42668837
0.43532565
0.44344151
0.45108018
0.45828029
0.46507577
0.47149658
0.47756931
0.4833177
0.48876302
0.49392444
0.49881926
0.50346323
0.50787068
0.51205473
0.51602742
0.51979984
0.52338227
0.52678423
0.53001456
0.53308152
0.53599285
0.5387558
0.54137719
0.54386345
0.54622064
0.5484545
0.55057049
0.55257375
0.55446919
0.55626147
0.55795502
0.5595541
0.56106272
0.56248474
0.56382384
0.56508351
0.56626709
0.56737771
0.56841834
0.5693918
0.57030073
0.57114759
0.57193469
0.57266415
0.5733379
0.57395765
0.57452494
0.57504112
0.57550744
0.57592499
0.57629445
0.57661571
0.57688786
0.57711045
0.57728556
0.5774172
0.57750374
0.57754061
0.57751581
0.57740473
0.57724249
0.57710013
0.011047171
0.29779462
0.47251982
0.52043008
0.53016396
0.53068819
0.53037114
0.53151135
0.53299263
0.53447758
0.5359602
0.53740403
0.53882642
0.54023347
0.54163783
0.54304893
0.54446803
0.54589564
0.54733153
0.54877471
0.5502237
0.5516767
0.55313171
0.55458659
0.55603915
0.55748719
0.5589285
0.56036093
0.56178237
0.56319076
0.56458407
0.56596035
0.56731765
0.56865407
0.56996774
0.5712568
0.57251939
0.57375366
0.57495778
0.57612989
0.57726814
0.57837068
0.57943564
0.58046115
0.58144535
0.58238636
0.58328234
0.58413144
0.58493184
0.5856818
0.5863796
0.58702362
0.58761237
0.58814449
0.58861885
0.58903454
0.58939101
0.58968796
0.58992551
0.59010382
0.59022285
0.59028285
0.59028447
0.59022848
0.59011526
0.58994578
0.58971776
0.58943362
0.58907844
0.58867099
0.58815251
0.58762543
0.58686917
0.58626433
0.58511867
0.58457691
0.582816
0.58244486
0.58009463
0.57980257
0.064756904
0.38580652
0.52297612
0.54798428
0.54882939
0.54701885
0.54616981
0.5463134
0.54651875
0.54682595
0.54721835
0.54777662
0.54845504
0.54922482
0.55005703
0.55094832
0.55189203
0.55288368
0.5539179
0.55498947
0.55609367
0.55722602
0.5583823
0.55955852
0.56075088
0.56195576
0.5631697
0.56438939
0.56561164
0.56683338
0.56805164
0.56926357
0.57046637
0.57165735
0.57283385
0.57399331
0.57513318
0.57625101
0.57734434
0.57841079
0.57944799
0.58045362
0.58142539
0.58236105
0.58325838
0.58411519
0.58492936
0.58569881
0.58642153
0.5870956
0.58771918
0.58829058
0.58880825
0.58927081
0.58967716
0.59002645
0.59031818
0.59055218
0.59072866
0.59084783
0.59090975
0.59091479
0.59086369
0.59075731
0.59059615
0.59038107
0.59011011
0.58978479
0.58939174
0.58894624
0.58839618
0.58783119
0.58705307
0.58640918
0.58525391
0.5846652
0.58290391
0.5825082
0.5801145
0.57988944
0.15058555
0.46699981
0.54262915
0.55537133
0.55400042
0.55307419
0.55306962
0.55363349
0.55405242
0.55458037
0.55508821
0.55565767
0.55624734
0.55687879
0.55754348
0.55824594
0.55898227
0.55975281
0.56055602
0.56139021
0.56225358
0.56314417
0.56405987
0.56499844
0.56595749
0.56693452
0.56792697
0.56893216
0.56994739
0.57096987
0.5719968
0.57302536
0.57405268
0.57507592
0.5760922
0.57709867
0.57809249
0.57907084
0.5800309
0.58096992
0.58188513
0.58277385
0.5836334
0.58446118
0.58525462
0.58601123
0.58672858
0.58740435
0.58803628
0.58862226
0.5891603
0.58964857
0.59008545
0.59046951
0.59079963
0.59107496
0.59129507
0.59145982
0.5915695
0.59162437
0.59162453
0.59157044
0.59146292
0.59130288
0.5910909
0.59082776
0.59051162
0.5901434
0.58971065
0.58922634
0.58864257
0.58804042
0.58723711
0.58655787
0.58538641
0.58475753
0.58298771
0.5825714
0.58013766
0.57997015
0.23328491
0.51412984
0.55628725
0.5637697
0.56109964
0.56133959
0.56140227
0.56200504
0.56228097
0.56273773
0.56311638
0.56357504
0.56403642
0.5645296
0.56503999
0.56557548
0.5661334
0.56671596
0.56732303
0.56795452
0.56861016
0.56928943
0.56999159
0.57071567
0.57146046
0.57222455
0.57300632
0.57380397
0.5746155
0.57543878
0.57627148
0.5771112
0.57795537
0.57880133
0.57964636
0.58048763
0.58132228
0.58214739
0.58296004
0.58375726
0.5845361
0.58529362
0.58602691
0.58673309
0.58740934
0.58805291
0.58866114
0.58923145
0.5897614
0.5902487
0.59069121
0.59108697
0.59143428
0.59173166