/*--------------------------------*- C++ -*----------------------------------*\
  =========                 |
  \\      /  F ield         | OpenFOAM: The Open Source CFD Toolbox
   \\    /   O peration     | Website:  https://openfoam.org
    \\  /    A nd           | Version:  12
     \\/     M anipulation  |
\*---------------------------------------------------------------------------*/
FoamFile
{
    format      ascii;
    class       surfaceScalarField;
    location    "0.104";
    object      phi;
}
// * * * * * * * * * * * * * * * * * * * * * * * * * * * * * * * * * * * * * //

dimensions      [1 0 -1 0 0 0 0];

internalField   nonuniform List<scalar> 
31760
(
-0.00064247225
-0.05097567
0.051618728
-0.0016098536
-0.064434405
0.065402143
-0.0025903666
-0.063073022
0.064050357
-0.0036148398
-0.06874735
0.069772474
-0.0046937595
-0.070425271
0.071504884
-0.0058008129
-0.074698551
0.075806258
-0.0069782409
-0.077633458
0.0788116
-0.008194283
-0.081648039
0.082864778
-0.0094709035
-0.085279111
0.086556468
-0.010806201
-0.089405468
0.090741514
-0.01219719
-0.093548622
0.094940388
-0.013655582
-0.097969831
0.099429028
-0.015176048
-0.10255573
0.10407703
-0.016766861
-0.10736858
0.10896027
-0.018427615
-0.11239713
0.11405879
-0.020163073
-0.11765806
0.11939447
-0.021975908
-0.12315947
0.1249733
-0.023869331
-0.12891279
0.13080726
-0.025846586
-0.13492908
0.13690743
-0.027911074
-0.14121962
0.14328526
-0.030066231
-0.14779684
0.14995321
-0.032315815
-0.15467275
0.15692362
-0.034663419
-0.16186097
0.16420992
-0.037112943
-0.16937523
0.17182618
-0.039667349
-0.17723011
0.17978602
-0.042331213
-0.18543974
0.18810521
-0.045108417
-0.19402042
0.19679932
-0.048002374
-0.20298879
0.20588455
-0.051016565
-0.21236182
0.21537793
-0.05415502
-0.22215764
0.22529813
-0.057421028
-0.23239522
0.2356634
-0.0608179
-0.24309446
0.24649363
-0.064348424
-0.25427689
0.25780986
-0.068015623
-0.26596372
0.26963352
-0.071821454
-0.2781791
0.2819877
-0.075767544
-0.29094741
0.29489643
-0.079855181
-0.30429446
0.30838521
-0.084084789
-0.31824807
0.32248099
-0.088456128
-0.33283634
0.33721121
-0.092967814
-0.34809089
0.35260633
-0.097617773
-0.36404361
0.36869758
-0.10240249
-0.38072845
0.38551745
-0.10731728
-0.39818166
0.40310102
-0.11235623
-0.41644131
0.42148513
-0.11751149
-0.43554799
0.44070846
-0.12277381
-0.45554359
0.46081148
-0.12813152
-0.47647328
0.48183693
-0.13357155
-0.49838372
0.50383012
-0.13907826
-0.52132532
0.52683885
-0.14463321
-0.5453502
0.55091244
-0.15021518
-0.57051315
0.57610294
-0.15580053
-0.5968726
0.60246632
-0.1613617
-0.62448934
0.63005949
-0.16686757
-0.6534275
0.65894298
-0.17228351
-0.68375415
0.68918038
-0.17756944
-0.71554053
0.72083748
-0.18268116
-0.74886042
0.75398395
-0.18756916
-0.78379124
0.78869192
-0.19217698
-0.8204144
0.82503586
-0.19644242
-0.85881439
0.86309457
-0.20029535
-0.89907925
0.90294819
-0.20365787
-0.9413003
0.94468035
-0.20644259
-0.98557288
0.98837694
-0.20855212
-1.0319953
1.0341264
-0.20987772
-1.0806672
1.0820169
-0.21029866
-1.1316909
1.132139
-0.20967907
-1.1851692
1.1845803
-0.20787386
-1.2412046
1.2394341
-0.20471656
-1.2999065
1.2967885
-0.20002036
-1.3613831
1.3567314
-0.19358328
-1.4257412
1.4193545
-0.18518635
-1.4930847
1.4847444
-0.17457819
-1.5635241
1.5529787
-0.16149365
-1.6371793
1.624162
-0.14561935
-1.71421
1.6984043
-0.12671292
-1.7947729
1.7759313
-0.10404226
-1.8790616
1.8564513
-0.078216284
-1.9676133
1.9418356
-0.046819377
-2.0590687
2.0277015
-2.1578733
2.1230837
-0.00063639731
-0.050338595
-0.0015074013
-0.063562744
-0.0024078202
-0.062172435
-0.0033696744
-0.06778482
-0.0043427071
-0.069451596
-0.0053932386
-0.073647347
-0.0064591774
-0.076566851
-0.0076053681
-0.08050116
-0.0087776241
-0.084106152
-0.010024486
-0.088157879
-0.01131456
-0.0922578
-0.012672311
-0.096611303
-0.014087746
-0.10113948
-0.015569948
-0.10588554
-0.017119103
-0.11084709
-0.018739369
-0.11603687
-0.020432935
-0.12146493
-0.022203579
-0.12714113
-0.024054521
-0.13307706
-0.025989351
-0.13928366
-0.02801173
-0.14577327
-0.030124917
-0.1525583
-0.032333022
-0.15965153
-0.034639737
-0.1670671
-0.037049864
-0.17481848
-0.039566218
-0.1829218
-0.042193496
-0.19139145
-0.044935437
-0.20024506
-0.047796326
-0.20949903
-0.050779736
-0.21917221
-0.053889751
-0.22928306
-0.057129701
-0.23985223
-0.060502891
-0.25090128
-0.064012307
-0.26245174
-0.067660368
-0.27452832
-0.071449392
-0.28715549
-0.075380538
-0.30036023
-0.079455298
-0.31417003
-0.083672998
-0.32861515
-0.088033209
-0.34372695
-0.092534302
-0.35953854
-0.097173141
-0.37608538
-0.10194532
-0.39340496
-0.10684572
-0.41153609
-0.1118672
-0.43052135
-0.11700112
-0.45040413
-0.12223719
-0.47123129
-0.12756267
-0.4930519
-0.13296317
-0.51591802
-0.138422
-0.53988408
-0.14391966
-0.56500766
-0.14943394
-0.59134991
-0.15493947
-0.61897479
-0.16040777
-0.6479495
-0.16580661
-0.67834492
-0.17109952
-0.71023646
-0.17624592
-0.74370203
-0.18120016
-0.77882409
-0.18591087
-0.81568975
-0.19032119
-0.85438897
-0.19436709
-0.8950169
-0.1979772
-0.93767212
-0.20107146
-0.98245865
-0.20356168
-1.0294828
-0.20534833
-1.0788555
-0.2063222
-1.1306888
-0.20635794
-1.1851015
-0.20532066
-1.2422057
-0.20305998
-1.3021261
-0.19940745
-1.3649889
-0.19417915
-1.4309166
-0.18716908
-1.5000351
-0.17815231
-1.5724748
-0.16687785
-1.6483827
-0.15308129
-1.7279337
-0.13645474
-1.8113297
-0.11659973
-1.8988538
-0.093469668
-1.9906928
-0.065757701
-2.0867498
-2.1890354
-0.00057486691
-0.049763269
-0.0013874905
-0.06274967
-0.0022001523
-0.061358396
-0.0031056092
-0.066878934
-0.0040003817
-0.068556346
-0.0049816932
-0.072665535
-0.0059645856
-0.075583418
-0.0070311399
-0.079434037
-0.0081170113
-0.083019671
-0.0092758464
-0.086998401
-0.010474621
-0.091058343
-0.011737484
-0.09534772
-0.013055408
-0.099820796
-0.014436683
-0.10450346
-0.015881976
-0.10940095
-0.017394884
-0.11452307
-0.018978753
-0.11988011
-0.020636536
-0.12548234
-0.022372505
-0.13134003
-0.024189486
-0.13746555
-0.026091963
-0.1438696
-0.028083462
-0.15056555
-0.03016786
-0.1575658
-0.032349945
-0.16488361
-0.03463298
-0.17253395
-0.037022181
-0.18053101
-0.039520991
-0.18889096
-0.04213448
-0.19762978
-0.044866198
-0.20676542
-0.047721294
-0.2163151
-0.050702872
-0.22629936
-0.053815256
-0.23673758
-0.057062248
-0.24765189
-0.060446525
-0.25906491
-0.063971668
-0.27100046
-0.067639835
-0.28348444
-0.07145325
-0.29654375
-0.075412414
-0.3102076
-0.079518323
-0.32450577
-0.083770442
-0.33947113
-0.088166959
-0.35513808
-0.09270573
-0.3715424
-0.09738335
-0.38872285
-0.10219432
-0.40672031
-0.10713261
-0.42557792
-0.11219021
-0.44534104
-0.11735783
-0.46605778
-0.1226235
-0.4877799
-0.12797464
-0.51056011
-0.13339551
-0.53445591
-0.13886789
-0.55952745
-0.14437229
-0.58583709
-0.14988533
-0.6134527
-0.15538102
-0.64244408
-0.16083011
-0.67288536
-0.16619962
-0.70485568
-0.17145293
-0.73843658
-0.17654789
-0.77371604
-0.18143906
-0.81078441
-0.18607403
-0.84973859
-0.19039544
-0.89067862
-0.19433835
-0.93371063
-0.19783124
-0.97894512
-0.20079328
-1.0264977
-0.20313467
-1.0764881
-0.20475446
-1.1290395
-0.20554477
-1.1842778
-0.20538
-1.2423325
-0.20412103
-1.3033419
-0.2016201
-1.3674407
-0.19770416
-1.4347766
-0.19219189
-1.5054843
-0.18487308
-1.5797238
-0.1755247
-1.6576561
-0.16389818
-1.7394832
-0.14970554
-1.8254483
-0.13265561
-1.915838
-0.11247775
-2.0108178
-0.08844606
-2.1107472
-2.2164654
-0.00051870191
-0.04924409
-0.0012706279
-0.061997317
-0.0020072803
-0.060621555
-0.0028603809
-0.066025367
-0.0036892996
-0.06772691
-0.0046040542
-0.071750248
-0.0055101513
-0.074676754
-0.0065033206
-0.078440279
-0.007509043
-0.082013325
-0.0085869542
-0.085919836
-0.0097016257
-0.089942981
-0.010877447
-0.094171173
-0.012106407
-0.09859107
-0.01339581
-0.10321325
-0.014747334
-0.10804857
-0.016164761
-0.11310474
-0.017651392
-0.11839253
-0.019210617
-0.12392211
-0.020845911
-0.12970367
-0.022561634
-0.13574871
-0.024360957
-0.14206909
-0.026248953
-0.14867629
-0.028229533
-0.15558388
-0.030306693
-0.16280504
-0.032485595
-0.17035355
-0.034770196
-0.17824483
-0.037165543
-0.18649394
-0.039675982
-0.19511757
-0.042306971
-0.20413254
-0.04506187
-0.2135582
-0.047945811
-0.22341329
-0.050963158
-0.23371799
-0.0541176
-0.24449506
-0.057413012
-0.25576696
-0.060852792
-0.26755799
-0.06443938
-0.27989498
-0.068174974
-0.29280511
-0.072061468
-0.30631786
-0.076099187
-0.32046459
-0.080288149
-0.33527849
-0.084627723
-0.35079458
-0.089115202
-0.36705072
-0.093747751
-0.38408582
-0.09852097
-0.40194231
-0.1034289
-0.42066487
-0.108465
-0.44029945
-0.11361955
-0.46089735
-0.11888359
-0.48250956
-0.12424426
-0.50519264
-0.1296879
-0.52900498
-0.13519879
-0.55400871
-0.14075826
-0.58026917
-0.146346
-0.60785587
-0.15193908
-0.63684122
-0.15751035
-0.66730355
-0.16303141
-0.69932328
-0.16846874
-0.73298699
-0.17378549
-0.76838602
-0.17894053
-0.80561497
-0.18388751
-0.8447759
-0.18857484
-0.88597404
-0.19294478
-0.92932161
-0.19693324
-0.97493539
-0.20046803
-1.022939
-0.20346885
-1.0734603
-0.20584806
-1.1266297
-0.2075007
-1.1825903
-0.20832141
-1.2414721
-0.20818233
-1.3034357
-0.20695152
-1.3686199
-0.2044762
-1.4371931
-0.20058055
-1.5093135
-0.19508818
-1.5851426
-0.18778833
-1.664877
-0.17845989
-1.7487308
-0.16684722
-1.8369831
-0.15268617
-1.9299296
-0.13567218
-2.0277761
-0.11533291
-2.1310479
-2.2399983
-0.0004631531
-0.048780464
-0.0011676164
-0.061292402
-0.0018272934
-0.059961396
-0.0026237948
-0.065228389
-0.0033783154
-0.06697188
-0.0042348527
-0.070893178
-0.0050738112
-0.073837233
-0.0060010628
-0.077512442
-0.0069351631
-0.081078604
-0.007939666
-0.084914682
-0.0089797241
-0.088902235
-0.010078435
-0.093071738
-0.01122993
-0.09743881
-0.012440411
-0.10200196
-0.013712264
-0.10677586
-0.015048599
-0.11176751
-0.016453175
-0.116987
-0.017929776
-0.12244451
-0.0194821
-0.12815028
-0.021114186
-0.1341155
-0.022830752
-0.14035134
-0.024635157
-0.14687063
-0.026532923
-0.15368479
-0.028528649
-0.16080791
-0.030626866
-0.16825384
-0.032832868
-0.17603725
-0.035151878
-0.18417325
-0.03758885
-0.19267882
-0.040148728
-0.20157079
-0.042836735
-0.2108682
-0.045657766
-0.22059015
-0.048616316
-0.23075719
-0.051716763
-0.24139223
-0.054963484
-0.25251771
-0.058359659
-0.26415912
-0.061908393
-0.27634339
-0.065612205
-0.28909825
-0.069473012
-0.30245381
-0.073491576
-0.31644258
-0.077668295
-0.33109809
-0.082002121
-0.34645683
-0.086491877
-0.36255678
-0.09113426
-0.37943896
-0.095925568
-0.39714622
-0.10086131
-0.41572401
-0.10593446
-0.43522082
-0.11113774
-0.45568818
-0.11646198
-0.477179
-0.12189637
-0.49975145
-0.12742929
-0.52346475
-0.13304614
-0.54838398
-0.13873138
-0.57457546
-0.14446683
-0.60211129
-0.15023202
-0.63106619
-0.15600448
-0.6615205
-0.16175827
-0.69355804
-0.16746408
-0.72726881
-0.17309047
-0.76274621
-0.17860077
-0.80009006
-0.18395498
-0.83940569
-0.18910739
-0.88080398
-0.19400757
-0.92440183
-0.19859867
-0.97032235
-0.20281766
-1.0186953
-0.20659385
-1.069656
-0.20984692
-1.1233447
-0.21249211
-1.1799086
-0.21442419
-1.2394984
-0.21554328
-1.3022691
-0.21571647
-1.3683923
-0.21481595
-1.4380317
-0.212688
-1.5113715
-0.20916611
-1.5885871
-0.20406758
-1.6698925
-0.19718899
-1.7555243
-0.18830387
-1.8457862
-0.17717817
-1.9409819
-0.16350588
-2.0413895
-0.1469575
-2.1475525
-2.2594287
-0.00041312393
-0.048366882
-0.0010763241
-0.060628759
-0.0016732323
-0.059364009
-0.0024113914
-0.064489753
-0.0030896531
-0.066293121
-0.0038944645
-0.070087841
-0.0046662747
-0.07306487
-0.0055336468
-0.076644486
-0.0064040115
-0.080207627
-0.0073464814
-0.083971564
-0.0083259153
-0.087922116
-0.0093619501
-0.092034983
-0.010450976
-0.096349023
-0.011597669
-0.10085447
-0.012804852
-0.10556783
-0.014076389
-0.11049508
-0.015415778
-0.11564667
-0.016826899
-0.12103239
-0.018314251
-0.12666188
-0.019881828
-0.13254681
-0.021534731
-0.13869725
-0.023277776
-0.14512634
-0.025116111
-0.15184513
-0.027054846
-0.15886777
-0.029099603
-0.16620761
-0.0312562
-0.17387908
-0.033529378
-0.18189841
-0.035925452
-0.19028099
-0.038449729
-0.19904464
-0.041107596
-0.20820835
-0.043904651
-0.21779099
-0.04684548
-0.22781413
-0.049935486
-0.23829985
-0.053177974
-0.2492727
-0.05657746
-0.26075695
-0.06013729
-0.2727807
-0.063859673
-0.28537283
-0.067746606
-0.29856365
-0.07179965
-0.31238609
-0.076018883
-0.32687518
-0.080404209
-0.34206758
-0.084953638
-0.35800317
-0.089665444
-0.37472269
-0.094536384
-0.39227049
-0.099561385
-0.41069389
-0.10473535
-0.43004136
-0.11005251
-0.45036512
-0.11550398
-0.4717212
-0.12108176
-0.49416685
-0.12677439
-0.51776477
-0.1325712
-0.54257927
-0.1384581
-0.56868004
-0.14441997
-0.59614023
-0.15043964
-0.62503662
-0.15649765
-0.65545179
-0.16257219
-0.68747195
-0.16863947
-0.721189
-0.17467141
-0.75670065
-0.18063755
-0.79410904
-0.18650294
-0.83352395
-0.19222952
-0.87505931
-0.19777351
-0.91883767
-0.20308635
-0.96498684
-0.20811327
-1.0136427
-0.21279295
-1.0649472
-0.21705656
-1.1190477
-0.2208273
-1.1760998
-0.22402166
-1.2362604
-0.22653825
-1.2997025
-0.22827659
-1.3665968
-0.22911229
-1.4371308
-0.22891372
-1.5114966
-0.22753347
-1.589886
-0.22480713
-1.6725317
-0.22055495
-1.7596873
-0.21458214
-1.8516727
-0.20667025
-1.948816
-0.19655354
-2.0514428
-0.18395732
-2.1600994
-2.274561
-0.00037047689
-0.047995964
-0.0010026977
-0.059996105
-0.0015444709
-0.058821782
-0.0022350278
-0.063798724
-0.0028536638
-0.065673985
-0.0036102601
-0.069330725
-0.0043259921
-0.072348593
-0.0051317541
-0.075838144
-0.0059601309
-0.079378641
-0.0068560803
-0.083074976
-0.0077890943
-0.086988429
-0.0087751161
-0.091048253
-0.0098137666
-0.095309623
-0.01090909
-0.099758356
-0.012065142
-0.10441095
-0.013285411
-0.10927393
-0.014574758
-0.11435639
-0.015937282
-0.11966888
-0.017377785
-0.12522033
-0.018901672
-0.13102182
-0.020513548
-0.13708421
-0.02221963
-0.14341903
-0.024025135
-0.15003832
-0.025935766
-0.15695576
-0.027957889
-0.16418402
-0.030097152
-0.17173826
-0.032360458
-0.17963346
-0.034753378
-0.18788632
-0.037281659
-0.1965145
-0.039951926
-0.20553612
-0.042769198
-0.21497162
-0.045739084
-0.22484202
-0.048866278
-0.23517029
-0.052155917
-0.24598054
-0.055611074
-0.25729912
-0.059235434
-0.2691535
-0.063032127
-0.28157311
-0.067002846
-0.2945897
-0.07114872
-0.30823677
-0.0754704
-0.32254984
-0.079967837
-0.33756623
-0.084639768
-0.35332705
-0.089484617
-0.36987336
-0.094499201
-0.38725112
-0.099680571
-0.40550739
-0.10502414
-0.42469228
-0.1105244
-0.44485894
-0.1161758
-0.46606344
-0.12197027
-0.48836552
-0.12790034
-0.51182732
-0.13395587
-0.53651578
-0.14012642
-0.5625009
-0.14640019
-0.5898572
-0.15276295
-0.61866385
-0.15919947
-0.64900445
-0.16569184
-0.68096786
-0.17222072
-0.7146474
-0.17876366
-0.75014383
-0.18529536
-0.78756213
-0.1917879
-0.82701463
-0.19820877
-0.8686198
-0.20452236
-0.91250321
-0.21068775
-0.95879791
-0.21665941
-1.0076443
-0.22238596
-1.0591902
-0.22780884
-1.11359
-0.23286308
-1.1710056
-0.23747656
-1.2316011
-0.24156456
-1.295562
-0.24503512
-1.3630661
-0.24778867
-1.4343087
-0.24970611
-1.5095019
-0.25065664
-1.5888502
-0.25050353
-1.6725936
-0.24908388
-1.7610134
-0.24622834
-1.8544374
-0.24175208
-1.9532098
-0.23541334
-2.0577135
-0.22698386
-2.1684732
-2.2851564
-0.00032711649
-0.047668419
-0.0009336356
-0.059389162
-0.0014259126
-0.058329058
-0.0020701815
-0.063153991
-0.0026443374
-0.065099343
-0.0033728478
-0.068601702
-0.0040553562
-0.071665548
-0.0048457723
-0.075047158
-0.0056342183
-0.078589606
-0.0064836539
-0.082224918
-0.007373984
-0.086097441
-0.0083166687
-0.090104875
-0.0093142206
-0.094311338
-0.010370073
-0.09870173
-0.011488669
-0.10329153
-0.01267459
-0.10808715
-0.013931794
-0.11309827
-0.015266266
-0.11833344
-0.016682837
-0.12380274
-0.018187186
-0.12951639
-0.019785159
-0.13548509
-0.021482765
-0.1417202
-0.023286319
-0.14823348
-0.025203075
-0.15503763
-0.027238514
-0.16214713
-0.029400133
-0.1695751
-0.031694086
-0.17733787
-0.034127218
-0.18545145
-0.03670605
-0.19393383
-0.039436655
-0.20280355
-0.042324778
-0.21208142
-0.045376168
-0.22178842
-0.048595963
-0.23194815
-0.05198822
-0.24258579
-0.055557185
-0.2537275
-0.059306363
-0.26540149
-0.063237938
-0.27763852
-0.06735417
-0.29047026
-0.071656399
-0.30393112
-0.076145197
-0.31805738
-0.080820408
-0.33288711
-0.085682025
-0.34846126
-0.090727963
-0.36482295
-0.09595665
-0.38201764
-0.10136558
-0.4000933
-0.10695142
-0.41910092
-0.11271052
-0.43909389
-0.11863854
-0.46012901
-0.12473024
-0.48226692
-0.13097973
-0.50557038
-0.13738057
-0.5301069
-0.14392455
-0.55594825
-0.15060316
-0.58316921
-0.15740621
-0.61185066
-0.16432251
-0.64207717
-0.17133919
-0.67393925
-0.17844097
-0.70753262
-0.18561113
-0.74295944
-0.19283056
-0.78032705
-0.20007722
-0.81975063
-0.20732617
-0.8613515
-0.21454906
-0.9052586
-0.22171335
-0.95160903
-0.22878282
-1.0005469
-0.23571528
-1.0522257
-0.24246417
-1.1068044
-0.24897563
-1.164452
-0.25518797
-1.2253405
-0.26103452
-1.2896601
-0.26644131
-1.3575959
-0.27131226
-1.4293656
-0.27555742
-1.5051756
-0.27906012
-1.5852581
-0.28170184
-1.6698563
-0.28334838
-1.7592688
-0.28385757
-1.8538327
-0.28306552
-1.9539143
-0.28076283
-2.0599428
-0.27676662
-2.172407
-2.2909418
-0.0002847838
-0.047383227
-0.0008718376
-0.058801702
-0.0013227938
-0.057877674
-0.0019438001
-0.062532535
-0.0024951224
-0.064547551
-0.0032019334
-0.067894396
-0.0038562623
-0.0710107
-0.0046222902
-0.074280599
-0.0053802361
-0.077831084
-0.0061969887
-0.08140756
-0.0070599816
-0.085233806
-0.007975927
-0.089188253
-0.0089496986
-0.09333685
-0.0099847123
-0.09766596
-0.011086038
-0.10218941
-0.012258506
-0.10691383
-0.013507779
-0.1118481
-0.014839271
-0.117001
-0.016258995
-0.12238201
-0.017773731
-0.12800059
-0.019389518
-0.13386817
-0.021113897
-0.13999463
-0.022953246
-0.14639286
-0.024914967
-0.15307456
-0.02700665
-0.16005401
-0.029235086
-0.16734515
-0.031607816
-0.17496353
-0.034131713
-0.18292584
-0.03681322
-0.1912505
-0.039659144
-0.1999557
-0.042675545
-0.20906296
-0.045867474
-0.2185943
-0.049239806
-0.22857349
-0.052797336
-0.23902578
-0.056543733
-0.24997846
-0.060481749
-0.26146066
-0.064614268
-0.273503
-0.068943158
-0.28613817
-0.073469462
-0.2994014
-0.078194263
-0.31332893
-0.083117564
-0.32795991
-0.088239036
-0.3433356
-0.093558401
-0.3594991
-0.099074993
-0.37649624
-0.10478711
-0.39437602
-0.1106933
-0.41318917
-0.11679146
-0.43298974
-0.12307936
-0.45383466
-0.12955443
-0.47578488
-0.1362131
-0.49890418
-0.14305199
-0.52325987
-0.15006677
-0.54892467
-0.1572521
-0.57597435
-0.16460242
-0.60449002
-0.17211047
-0.6345579
-0.17976825
-0.66626924
-0.1875656
-0.69972189
-0.19549207
-0.73501827
-0.20353407
-0.77226881
-0.21167625
-0.81159039
-0.21990124
-0.85310628
-0.22818845
-0.89694858
-0.23651427
-0.94325735
-0.2448508
-0.99218083
-0.25316748
-1.0438753
-0.26142758
-1.0985056
-0.26959072
-1.1562445
-0.27760706
-1.2172731
-0.2854246
-1.281784
-0.29297787
-1.3499757
-0.30020044
-1.4220671
-0.30701021
-1.4982806
-0.31331649
-1.5788581
-0.31901423
-1.6640584
-0.32399549
-1.7541847
-0.32814472
-1.8495828
-0.33132272
-1.9506433
-0.33336421
-2.0578219
-0.33410105
-2.1716001
-2.2916008
-0.00024647149
-0.047136366
-0.0008223813
-0.058225399
-0.0012434587
-0.057456184
-0.0018895734
-0.061885987
-0.0024257283
-0.064010943
-0.0031070031
-0.067212648
-0.0037382575
-0.070378943
-0.0044620064
-0.07355631
-0.0052064878
-0.077086042
-0.0060074693
-0.080605988
-0.0068604592
-0.08438019
-0.0077682619
-0.08827979
-0.0087380132
-0.092366399
-0.0097736396
-0.096629595
-0.010880898
-0.10108136
-0.012065551
-0.10572835
-0.013333841
-0.11057893
-0.014692458
-0.11564145
-0.016148201
-0.12092528
-0.017707789
-0.12643995
-0.019379854
-0.132195
-0.021170856
-0.13820245
-0.023089668
-0.1444728
-0.025143578
-0.15101933
-0.027340419
-0.15785576
-0.029688287
-0.16499579
-0.032194579
-0.17245565
-0.034866259
-0.18025248
-0.037710715
-0.18840425
-0.040733909
-0.1969306
-0.043941411
-0.20585343
-0.047338853
-0.2151947
-0.050930635
-0.22497941
-0.054720928
-0.23523304
-0.058712987
-0.24598379
-0.062909594
-0.25726127
-0.067312955
-0.26909667
-0.071924737
-0.28152321
-0.076746652
-0.29457609
-0.081779333
-0.30829261
-0.087023644
-0.3227117
-0.092480296
-0.33787478
-0.098149695
-0.35382522
-0.10403177
-0.37060934
-0.11012726
-0.38827534
-0.11643658
-0.40687425
-0.1229596
-0.4264607
-0.12969662
-0.44709111
-0.13664775
-0.46882671
-0.14381307
-0.49173123
-0.15119173
-0.51587294
-0.15878386
-0.54132358
-0.16658791
-0.56816057
-0.17460232
-0.59646503
-0.18282503
-0.62632365
-0.19125277
-0.65782888
-0.19988173
-0.69107907
-0.20870634
-0.72617836
-0.21772022
-0.76323794
-0.22691521
-0.80237642
-0.2362806
-0.84371957
-0.2458045
-0.88740056
-0.25547198
-0.93356247
-0.26526564
-0.98235588
-0.27516414
-1.033941
-0.2851427
-1.088486
-0.29517178
-1.1461682
-0.30521813
-1.2071726
-0.31523989
-1.2717003
-0.32519199
-1.3399529
-0.3350234
-1.4121555
-0.34466475
-1.4885495
-0.35404906
-1.5693753
-0.36309433
-1.6549082
-0.37171613
-1.7454551
-0.37981792
-1.841375
-0.38729887
-1.9430635
-0.39402621
-2.0510083
-0.39986902
-2.1656785
-2.2867796
-0.00021250389
-0.04692349
-0.00078909841
-0.057648427
-0.0011872479
-0.057057637
-0.0018497158
-0.061223116
-0.0023635212
-0.063496701
-0.0030360154
-0.066539693
-0.0036608313
-0.06975364
-0.0043795519
-0.072837079
-0.0051265538
-0.076338496
-0.0059277197
-0.079804249
-0.0067882697
-0.083519033
-0.007708315
-0.087359104
-0.0086963422
-0.091377691
-0.0097571687
-0.09556805
-0.010897467
-0.099940303
-0.012123958
-0.10450105
-0.013443823
-0.10925821
-0.014864402
-0.11421997
-0.016394132
-0.11939458
-0.018040946
-0.12479212
-0.019813118
-0.13042174
-0.02171957
-0.13629485
-0.023768449
-0.1424227
-0.025968468
-0.14881801
-0.028328347
-0.15549451
-0.030855488
-0.16246718
-0.033557725
-0.16975186
-0.036442347
-0.1773662
-0.039516105
-0.18532873
-0.042784222
-0.19366061
-0.046253113
-0.20238254
-0.049926613
-0.21151908
-0.053809473
-0.22109428
-0.057904436
-0.23113566
-0.062214281
-0.24167137
-0.066741896
-0.2527309
-0.071489149
-0.26434647
-0.076457511
-0.2765517
-0.081648652
-0.28938157
-0.087064306
-0.30287334
-0.092705906
-0.31706622
-0.098575159
-0.33200135
-0.10467364
-0.34772225
-0.11100384
-0.36427431
-0.117568
-0.38170596
-0.12436838
-0.40006824
-0.1314085
-0.41941448
-0.13869074
-0.43980228
-0.14621897
-0.46129133
-0.1539964
-0.48394605
-0.16202676
-0.50783416
-0.17031281
-0.53302836
-0.17885832
-0.55960508
-0.18766651
-0.58764594
-0.19673987
-0.61723835
-0.20608082
-0.64847483
-0.21569142
-0.681454
-0.22557245
-0.71628129
-0.23572403
-0.75306846
-0.24614495
-0.79193544
-0.25683373
-0.83300815
-0.2677858
-0.87642284
-0.27899579
-0.92232327
-0.29045608
-0.97086222
-0.30215642
-1.0222024
-0.31408374
-1.0765148
-0.32622169
-1.13398
-0.33854785
-1.1947889
-0.35104002
-1.2591422
-0.3636666
-1.3272513
-0.37638733
-1.3993499
-0.38916699
-1.4756752
-0.40194598
-1.5564928
-0.41466551
-1.6420785
-0.42726177
-1.7327456
-0.43967762
-1.8288474
-0.45182827
-1.9308076
-0.46362933
-2.0391142
-0.47498054
-2.1542399
-2.2760587
-0.00019112886
-0.046732001
-0.00078711843
-0.057052072
-0.0011814822
-0.056662888
-0.0018357313
-0.060568466
-0.0023423229
-0.062989686
-0.0030203777
-0.065861193
-0.0036599722
-0.069113574
-0.0043851784
-0.072111375
-0.0051536343
-0.075569514
-0.005975931
-0.078981397
-0.0068657392
-0.082628636
-0.0078222516
-0.08640197
-0.0088550419
-0.090344242
-0.0099701781
-0.094452216
-0.011175382
-0.098734359
-0.012478548
-0.1031971
-0.013888129
-0.1078478
-0.015412969
-0.11269425
-0.017061708
-0.11774491
-0.018844305
-0.12300853
-0.020769574
-0.12849542
-0.022847189
-0.13421611
-0.025085976
-0.14018272
-0.027495037
-0.14640769
-0.030082887
-0.15290531
-0.03285758
-0.15969106
-0.035826114
-0.1667818
-0.038995602
-0.17419509
-0.042371474
-0.18195114
-0.045959695
-0.19007055
-0.049764031
-0.19857625
-0.053788581
-0.20749244
-0.058036604
-0.21684403
-0.06251062
-0.22665926
-0.067213032
-0.23696641
-0.072146006
-0.2477952
-0.077311152
-0.2591784
-0.082710851
-0.27114887
-0.088346953
-0.28374211
-0.094222099
-0.29699459
-0.10033909
-0.31094535
-0.10670119
-0.32563506
-0.11331249
-0.34110646
-0.12017711
-0.35740482
-0.12729983
-0.37457799
-0.13468647
-0.39267591
-0.14234274
-0.41175203
-0.15027519
-0.43186313
-0.15849043
-0.45306881
-0.16699586
-0.4754327
-0.1757989
-0.49902249
-0.18490795
-0.52390991
-0.19433062
-0.55017212
-0.20407521
-0.57789006
-0.21414946
-0.6071517
-0.22456218
-0.63804841
-0.23532061
-0.67068039
-0.24643253
-0.70515244
-0.25790527
-0.74157676
-0.26974569
-0.78007368
-0.28195943
-0.82077028
-0.29455175
-0.8638031
-0.30752662
-0.90931715
-0.32088662
-0.95746651
-0.33463302
-1.0084151
-0.34876465
-1.0623364
-0.36327763
-1.1194134
-0.37816487
-1.1798403
-0.39341975
-1.2438173
-0.40902252
-1.3115689
-0.42496029
-1.3833224
-0.44120367
-1.4593319
-0.45772457
-1.5398629
-0.47448771
-1.6251996
-0.4914492
-1.7156651
-0.50857129
-1.8116073
-0.52580679
-1.9134601
-0.54311551
-2.021705
-0.56042551
-2.1368336
-2.2589583
-0.00017234441
-0.046559316
-0.00079691836
-0.056427151
-0.0011976699
-0.05626177
-0.0018634029
-0.059902351
-0.0023827346
-0.062469949
-0.0030751056
-0.065168395
-0.0037449524
-0.068443274
-0.0044935307
-0.07136232
-0.0053018718
-0.074760667
-0.00616787
-0.078114865
-0.0071111733
-0.081684766
-0.0081317202
-0.085380824
-0.0092398404
-0.089235485
-0.010443258
-0.093248125
-0.011751035
-0.097425867
-0.013172517
-0.10177486
-0.014717474
-0.10630204
-0.016396038
-0.11101483
-0.018218507
-0.11592153
-0.020194841
-0.12103123
-0.022335483
-0.12635375
-0.02465006
-0.13190045
-0.027147797
-0.13768383
-0.0298379
-0.14371635
-0.032728166
-0.15001374
-0.035825896
-0.15659194
-0.039138297
-0.16346791
-0.042670222
-0.17066158
-0.046426878
-0.17819279
-0.050412158
-0.18608347
-0.054629438
-0.19435705
-0.059081719
-0.2030381
-0.06377031
-0.21215324
-0.068698401
-0.22172882
-0.073867372
-0.23179492
-0.079279125
-0.24238075
-0.084936504
-0.25351813
-0.09084174
-0.26524053
-0.096998978
-0.27758153
-0.10341195
-0.29057801
-0.11008527
-0.30426816
-0.11702444
-0.31869171
-0.12423613
-0.33389025
-0.1317272
-0.34990885
-0.13950567
-0.36679421
-0.14758047
-0.38459536
-0.15596086
-0.40336538
-0.16465696
-0.42316021
-0.17367991
-0.44403843
-0.18304087
-0.46606364
-0.19275218
-0.48930232
-0.20282568
-0.5138267
-0.21327528
-0.53971187
-0.22411381
-0.5670398
-0.23535567
-0.59589688
-0.24701432
-0.62637537
-0.25910478
-0.65857391
-0.27164128
-0.69259801
-0.28463832
-0.72855956
-0.29811127
-0.76657796
-0.31207397
-0.80678176
-0.32654104
-0.84930666
-0.34152667
-0.89429802
-0.35704429
-0.94191062
-0.37310618
-0.99230948
-0.38972421
-1.0456683
-0.40690859
-1.1021717
-0.42466828
-1.1620151
-0.44300631
-1.2254047
-0.46192756
-1.2925631
-0.48143155
-1.3637234
-0.5015162
-1.4391418
-0.52217116
-1.5190932
-0.5433782
-1.6038708
-0.56512925
-1.6937889
-0.58740252
-1.7892094
-0.61019332
-1.89055
-0.63348857
-1.9983015
-0.65725952
-2.1129578
-2.2349312
-0.00015821228
-0.046400779
-0.00082485181
-0.055760181
-0.0012391068
-0.055847165
-0.0019346612
-0.05920643
-0.0024841095
-0.061920111
-0.0032050911
-0.064447004
-0.0039256971
-0.067722233
-0.0047188445
-0.070568714
-0.0055900383
-0.073888986
-0.006526896
-0.077177493
-0.0075530286
-0.080658088
-0.0086705741
-0.084262701
-0.0098909429
-0.088014504
-0.011223944
-0.091914475
-0.012680186
-0.095968936
-0.014270777
-0.10018354
-0.016006892
-0.10456514
-0.017899803
-0.10912109
-0.01996067
-0.11385979
-0.022200335
-0.11879064
-0.024628939
-0.12392416
-0.027256441
-0.12927189
-0.030092051
-0.13484709
-0.03314331
-0.1406639
-0.036417749
-0.14673803
-0.039921333
-0.153087
-0.043658918
-0.15972888
-0.047634822
-0.16668414
-0.05185216
-0.17397381
-0.056313251
-0.18162062
-0.061019829
-0.18964859
-0.065973954
-0.19808196
-0.071177049
-0.20694799
-0.07663084
-0.21627271
-0.082337782
-0.2260855
-0.088300516
-0.23641535
-0.094522481
-0.2472933
-0.10100874
-0.25875118
-0.10776365
-0.27082329
-0.11479425
-0.28354382
-0.12210743
-0.2969511
-0.12971249
-0.31108245
-0.13761786
-0.32598033
-0.14583434
-0.34168743
-0.1543739
-0.35824928
-0.16324817
-0.37571523
-0.17247084
-0.39413634
-0.18205634
-0.41356775
-0.1920194
-0.43406777
-0.20237635
-0.45569836
-0.21314349
-0.47852604
-0.22433915
-0.50262099
-0.23598084
-0.52805911
-0.24808778
-0.55492061
-0.26068019
-0.58329087
-0.27377836
-0.61326205
-0.28740322
-0.6449321
-0.30157738
-0.67840481
-0.3163231
-0.71379236
-0.33166301
-0.75121374
-0.347621
-0.79079616
-0.36422145
-0.83267476
-0.3814887
-0.8769949
-0.39944698
-0.92391137
-0.41812214
-0.97358751
-0.43753856
-1.0261984
-0.45772029
-1.0819289
-0.47869066
-1.1409752
-0.50047067
-1.2035455
-0.52308412
-1.2698601
-0.54654905
-1.3401579
-0.57088124
-1.4146983
-0.59609571
-1.4937577
-0.62220609
-1.5776323
-0.64921652
-1.6666466
-0.67713927
-1.7611548
-0.70599332
-1.8615688
-0.73581448
-1.9683639
-0.76659681
-2.0820614
-2.2033522
-0.00015013982
-0.046250333
-0.00087782924
-0.055032179
-0.001310718
-0.055413944
-0.0020501164
-0.058466683
-0.0026504529
-0.061319404
-0.003417955
-0.063679112
-0.0042123063
-0.066927467
-0.0050748314
-0.069705751
-0.0060345501
-0.072928803
-0.0070736446
-0.076137907
-0.0082178319
-0.079513378
-0.0094728286
-0.083007151
-0.010851559
-0.086635186
-0.012365886
-0.090399525
-0.014028232
-0.094305928
-0.015850988
-0.098360082
-0.017846515
-0.10256887
-0.020026747
-0.10694007
-0.022403247
-0.11148244
-0.024986802
-0.11620618
-0.027787497
-0.12112251
-0.030814034
-0.12624434
-0.034074052
-0.13158599
-0.037574356
-0.13716244
-0.04131965
-0.1429915
-0.045314278
-0.14909105
-0.049560426
-0.15548133
-0.054060245
-0.16218281
-0.058815133
-0.16921732
-0.06382577
-0.17660826
-0.069093388
-0.18437913
-0.074618805
-0.19255457
-0.080404144
-0.20116053
-0.086451563
-0.21022301
-0.092764873
-0.21976973
-0.099347974
-0.22982961
-0.10620707
-0.24043136
-0.11334831
-0.25160686
-0.12078067
-0.26338761
-0.12851259
-0.27580829
-0.13655576
-0.28890404
-0.14492075
-0.30271322
-0.15362128
-0.3172752
-0.16267174
-0.33263195
-0.17208696
-0.34882861
-0.18188349
-0.36591274
-0.19207891
-0.38393441
-0.20269173
-0.4029478
-0.21374185
-0.42300984
-0.22524953
-0.44418209