/*--------------------------------*- C++ -*----------------------------------*\
  =========                 |
  \\      /  F ield         | OpenFOAM: The Open Source CFD Toolbox
   \\    /   O peration     | Website:  https://openfoam.org
    \\  /    A nd           | Version:  12
     \\/     M anipulation  |
\*---------------------------------------------------------------------------*/
FoamFile
{
    format      ascii;
    class       volScalarField;
    location    "0.056";
    object      Ma;
}
// * * * * * * * * * * * * * * * * * * * * * * * * * * * * * * * * * * * * * //

dimensions      [];

internalField   nonuniform List<scalar> 
16000
(
0.62748035
0.74521632
0.70029119
0.72483377
0.70974172
0.71670515
0.71096717
0.7125026
0.70984359
0.70939975
0.70776943
0.70663281
0.70521508
0.7038319
0.70236663
0.70085492
0.69928571
0.69766053
0.69597821
0.69423831
0.6924405
0.69058469
0.68867102
0.68669997
0.68467228
0.68258907
0.68045181
0.67826238
0.67602304
0.67373652
0.67140594
0.66903489
0.66662736
0.6641878
0.66172102
0.65923223
0.65672699
0.65421113
0.65169074
0.64917209
0.64666154
0.64416555
0.6416905
0.63924272
0.63682835
0.63445327
0.63212306
0.62984294
0.62761767
0.62545152
0.62334821
0.62131085
0.61934188
0.61744296
0.61561491
0.61385759
0.6121698
0.61054926
0.60899258
0.60749512
0.6060513
0.60465503
0.6032997
0.6019782
0.60068298
0.59940614
0.59814001
0.5968784
0.59561889
0.5943651
0.59312718
0.59191936
0.59075479
0.58963082
0.58850829
0.58735729
0.58627757
0.58467158
0.58364952
0.5808609
0.63191364
0.75039291
0.70365661
0.72944005
0.71353803
0.72094621
0.71477978
0.71641926
0.71358763
0.7130657
0.71134984
0.71009589
0.70858669
0.70708857
0.70551412
0.7038852
0.70219619
0.70044691
0.69863683
0.69676556
0.69483301
0.69283937
0.69078514
0.68867117
0.68649867
0.68426927
0.68198499
0.67964833
0.6772622
0.67483002
0.67235566
0.66984343
0.66729813
0.66472496
0.66212953
0.65951778
0.65689599
0.65427066
0.65164847
0.64903619
0.64644063
0.64386853
0.64132647
0.63882084
0.63635771
0.63394278
0.63158133
0.62927815
0.62703748
0.624863
0.62275777
0.6207242
0.61876398
0.61687804
0.61506647
0.61332842
0.61166204
0.61006446
0.60853173
0.60705882
0.60563979
0.60426817
0.60293719
0.60163967
0.60036817
0.59911511
0.59787329
0.59663721
0.59540512
0.59418108
0.59297528
0.5918022
0.59067417
0.58958162
0.5884855
0.58737239
0.58620392
0.58468918
0.583507
0.58067113
0.63606903
0.75514523
0.70712077
0.73346113
0.71710756
0.72461558
0.71829147
0.71981728
0.71693093
0.71625078
0.71446616
0.71307318
0.71145892
0.70983313
0.70813331
0.70637259
0.70454787
0.70265873
0.7007049
0.6986863
0.69660319
0.69445616
0.69224616
0.68997455
0.68764312
0.68525411
0.68281023
0.6803147
0.67777126
0.67518413
0.67255807
0.6698983
0.66721054
0.66450091
0.6617759
0.65904235
0.65630732
0.65357803
0.65086179
0.64816589
0.64549749
0.64286357
0.6402708
0.63772547
0.63523343
0.6328
0.63042993
0.62812739
0.62589589
0.62373828
0.62165673
0.61965275
0.61772707
0.6158797
0.61410981
0.61241569
0.6107947
0.60924323
0.60775669
0.60632955
0.60495545
0.60362762
0.60233909
0.60108268
0.59985108
0.59863711
0.59743419
0.59623771
0.59504687
0.59386636
0.59270663
0.59158229
0.59050369
0.58945586
0.58840381
0.58732213
0.58611224
0.58463658
0.58336183
0.58046995
0.63985921
0.75947916
0.71016709
0.73695232
0.72021312
0.72782568
0.72134082
0.72273133
0.71978359
0.71892553
0.71705872
0.71551062
0.71377345
0.71200393
0.71016133
0.70825206
0.70627498
0.70422968
0.70211622
0.69993488
0.69768634
0.69537163
0.69299226
0.69055018
0.68804784
0.68548825
0.68287495
0.68021207
0.6775043
0.6747569
0.67197566
0.66916691
0.66633741
0.66349434
0.66064521
0.65779775
0.65495987
0.65213948
0.64934445
0.64658246
0.6438609
0.64118677
0.63856661
0.63600636
0.63351139
0.63108636
0.62873524
0.62646128
0.62426699
0.62215418
0.62012392
0.61817658
0.61631183
0.6145286
0.61282504
0.61119852
0.60964554
0.60816173
0.60674188
0.60537997
0.60406924
0.60280265
0.60157311
0.60037345
0.59919658
0.5980357
0.59688492
0.59574045
0.59460231
0.59347573
0.59237148
0.59130415
0.59028171
0.58928663
0.58828664
0.58723576
0.58599995
0.58454951
0.58320983
0.58026955
0.64326969
0.7633238
0.71291661
0.73984455
0.7226961
0.73047362
0.72387265
0.7250715
0.72207618
0.72100894
0.71904894
0.71732819
0.7154496
0.71352092
0.7115187
0.70944503
0.70729971
0.70508253
0.70279382
0.70043424
0.69800493
0.69550751
0.69294415
0.6903176
0.68763122
0.684889
0.68209557
0.67925624
0.67637692
0.67346414
0.67052499
0.66756705
0.66459836
0.66162724
0.6586623
0.65571221
0.65278565
0.64989116
0.64703701
0.64423106
0.64148069
0.63879264
0.63617299
0.63362704
0.63115931
0.62877348
0.62647241
0.62425813
0.6221319
0.62009421
0.61814484
0.61628285
0.61450668
0.61281408
0.61120213
0.60966722
0.60820499
0.60681032
0.60547738
0.6041997
0.60297023
0.60178173
0.60062704
0.59949911
0.5983911
0.59729668
0.59621065
0.5951301
0.59405587
0.5929938
0.5919552
0.59095432
0.58999644
0.58906366
0.58812325
0.58710549
0.58585748
0.58443022
0.58304549
0.58006969
0.64625227
0.76660053
0.71521233
0.74227793
0.72486767
0.73247955
0.72574256
0.72676102
0.72370625
0.72242843
0.72036363
0.71845997
0.71642438
0.71432393
0.71214708
0.70989362
0.70756378
0.70515773
0.70267624
0.70012061
0.69749272
0.69479508
0.69203086
0.68920394
0.68631895
0.6833812
0.68039679
0.67737249
0.67431576
0.67123467
0.66813783
0.66503428
0.66193341
0.6588448
0.6557781
0.65274284
0.64974835
0.64680353
0.64391678
0.64109582
0.63834761
0.63567827
0.63309299
0.630596
0.62819056
0.62587901
0.62366271
0.6215422
0.61951718
0.61758661
0.61574879
0.61400137
0.61234147
0.61076561
0.60926981
0.60784948
0.60649944
0.6052139
0.60398652
0.60281045
0.60167845
0.60058322
0.59951763
0.59847483
0.59744834
0.59643235
0.5954224
0.59441644
0.59341614
0.59242803
0.59146404
0.59053777
0.58965191
0.58878923
0.58791407
0.58693053
0.58568386
0.58428659
0.58286477
0.57987186
0.64878317
0.76929402
0.71705967
0.74421953
0.72656396
0.73383027
0.72714928
0.72778213
0.72474575
0.72316887
0.720985
0.71888748
0.71667482
0.71438395
0.71201087
0.70955499
0.70701708
0.70439812
0.70169976
0.6989243
0.69607477
0.69315496
0.69016947
0.6871237
0.68402391
0.68087717
0.67769135
0.67447507
0.67123761
0.66798882
0.66473902
0.66149881
0.65827896
0.65509023
0.65194316
0.64884792
0.64581412
0.64285068
0.63996567
0.63716618
0.63445827
0.63184686
0.62933576
0.62692763
0.62462406
0.62242558
0.62033174
0.61834127
0.61645209
0.61466148
0.61296612
0.61136224
0.60984558
0.60841152
0.60705501
0.60577062
0.60455245
0.60339416
0.60228903
0.60122996
0.60020968
0.59922094
0.59825681
0.59731075
0.5963767
0.59544947
0.5945254
0.59360334
0.59268579
0.59178012
0.5908988
0.5900543
0.58924699
0.58846038
0.58765303
0.58670522
0.58547375
0.58411887
0.5826627
0.5796747
0.65091022
0.77143974
0.71850406
0.74570191
0.72785142
0.73478381
0.72803475
0.72856031
0.72509839
0.72325639
0.72091625
0.71859792
0.71617316
0.7136595
0.711057
0.70836581
0.70558745
0.70272401
0.69977832
0.69675404
0.69365574
0.69048887
0.68725986
0.68397609
0.68064588
0.67727843
0.6738838
0.67047273
0.66705661
0.66364724
0.66025671
0.65689715
0.6535806
0.6503187
0.64712256
0.64400253
0.64096801
0.63802731
0.63518755
0.63245454
0.62983277
0.62732536
0.62493414
0.62265968
0.62050138
0.61845761
0.61652583
0.6147027
0.61298425
0.61136599
0.60984303
0.60841013
0.60706182
0.60579242
0.60459599
0.60346638
0.60239715
0.6013816
0.60041278
0.59948354
0.59858672
0.59771529
0.59686266
0.59602271
0.59518993
0.59435984
0.59352961
0.59269907
0.59187165
0.5910556
0.59026362
0.58950646
0.5887826
0.58807531
0.58733242
0.58642445
0.58522389
0.58392237
0.58243567
0.57947733
0.65270153
0.77306617
0.71949972
0.746718
0.72848045
0.73474367
0.72811146
0.72781479
0.72477231
0.72263251
0.7200868
0.71751161
0.71483274
0.71205706
0.70918626
0.70622174
0.70316607
0.70002272
0.69679612
0.69349176
0.6901162
0.68667711
0.68318328
0.67964457
0.67607186
0.67247694
0.66887239
0.66527141
0.66168762
0.65813481
0.65462675
0.65117687
0.64779806
0.64450239
0.64130091
0.63820341
0.63521833
0.63235256
0.62961144
0.62699867
0.62451641
0.62216528
0.61994451
0.61785208
0.61588482
0.61403865
0.61230872
0.61068959
0.60917536
0.60775984
0.60643668
0.60519939
0.60404145
0.60295632
0.6019374
0.60097807
0.60007155
0.59921098
0.5983894
0.59759981
0.59683531
0.59608929
0.59535561
0.5946287
0.5939037
0.5931769
0.59244645
0.59171316
0.59098156
0.59026076
0.58956311
0.58889705
0.58825954
0.58763319
0.58695553
0.58609216
0.58493344
0.58369232
0.58218504
0.57927558
0.65414883
0.7741409
0.71997221
0.74704121
0.72839012
0.73418905
0.72760406
0.72691737
0.72366444
0.721175
0.7183743
0.7155053
0.71252935
0.7094496
0.70626871
0.70298985
0.69961726
0.6961564
0.69261396
0.6889979
0.68531751
0.68158333
0.6778072
0.67400209
0.67018198
0.66636168
0.66255661
0.65878256
0.65505533
0.65139053
0.64780319
0.6443075
0.64091648
0.63764178
0.63449342
0.63147966
0.62860684
0.62587943
0.62329995
0.62086911
0.61858591
0.61644783
0.61445096
0.6125903
0.61085991
0.60925313
0.60776283
0.60638152
0.6051016
0.60391541
0.60281537
0.60179404
0.60084415
0.59995859
0.5991304
0.59835272
0.59761873
0.59692163
0.59625466
0.59561118
0.59498473
0.59436923
0.59375916
0.59314959
0.59253638
0.5919167
0.59128971
0.59065737
0.59002538
0.58940354
0.58880309
0.58822984
0.58767984
0.58713449
0.58652323
0.58570126
0.58460271
0.58342995
0.58191132
0.57906076
0.65518531
0.77455597
0.71984128
0.74582529
0.72753414
0.73277697
0.72629709
0.72501388
0.72163415
0.71876811
0.71565514
0.71244691
0.70912501
0.70569316
0.70215528
0.69851688
0.69478466
0.69096688
0.68707332
0.68311535
0.67910583
0.6750591
0.67099079
0.66691763
0.66285718
0.65882758
0.65484718
0.65093416
0.64710621
0.64338007
0.63977125
0.63629363
0.63295923
0.62977793
0.62675739
0.6239029
0.62121747
0.61870187
0.61635479
0.61417304
0.61215182
0.61028493
0.60856507
0.60698413
0.60553341
0.60420386
0.60298628
0.6018715
0.60085052
0.59991462
0.5990554
0.59826484
0.59753528
0.59685941
0.59623022
0.59564092
0.5950849
0.59455566
0.59404687
0.59355241
0.59306643
0.59258352
0.59209885
0.59160822
0.59110829
0.59059716
0.59007505
0.58954518
0.58901449
0.58849306
0.58799021
0.58750916
0.58704587
0.58657949
0.58602933
0.58525373
0.58423433
0.58313833
0.58160559
0.57882636
0.65572368
0.77415218
0.71899728
0.74401894
0.72607451
0.73046666
0.72406116
0.72216983
0.71855727
0.71527528
0.71178617
0.70818381
0.70446
0.70062131
0.69667389
0.69262647
0.68848933
0.68427468
0.67999664
0.67567113
0.6713157
0.66694939
0.66259236
0.65826561
0.65399056
0.64978859
0.64568064
0.64168665
0.63782519
0.63411292
0.63056433
0.62719132
0.62400309
0.621006
0.61820355
0.61559652
0.61318315
0.61095938
0.60891918
0.60705485
0.60535741
0.60381689
0.60242266
0.60116376
0.60002906
0.59900755
0.59808849
0.59726153
0.59651682
0.59584504
0.59523749
0.594686
0.59418294
0.59372116
0.59329391
0.59289479
0.59251762
0.59215645
0.59180555
0.59145948
0.59111313
0.59076185
0.59040157
0.59002887
0.58964125
0.58923775
0.5888197
0.58839163
0.58796163
0.58753952
0.5871322
0.58674066
0.58636123
0.58596997
0.58547766
0.58475747
0.58383112
0.5828167
0.58125713
0.57856713
0.65570379
0.77285934
0.71730467
0.74143478
0.7237336
0.72713484
0.72076803
0.71821534
0.71428727
0.71053807
0.70660048
0.70253751
0.69834637
0.69403792
0.68962225
0.68511278
0.680525
0.67587667
0.6711877
0.66647988
0.66177654
0.65710216
0.65248196
0.6479413
0.64350516
0.6391975
0.6350407
0.63105495
0.62725776
0.62366359
0.6202835
0.61712507
0.61419233
0.61148598
0.60900355
0.60673977
0.60468698
0.60283554
0.60117426
0.59969086
0.59837233
0.5972053
0.59617635
0.59527225
0.59448016
0.59378781
0.59318358
0.59265662
0.59219685
0.59179495
0.59144237
0.59113128
0.59085448
0.59060532
0.59037761
0.59016557
0.58996371
0.58976679
0.58956983
0.58936818
0.58915756
0.58893413
0.58869462
0.58843641
0.58815785
0.58785889
0.58754196
0.58721286
0.58688055
0.58655411
0.58623792
0.5859315
0.58563144
0.58530914
0.5848695
0.5842107
0.58339538
0.58246467
0.58086341
0.57828293
0.65510666
0.77057776
0.71469378
0.73777514
0.72038783
0.7226767
0.71626913
0.71300432
0.70864951
0.70436178
0.69989062
0.69528652
0.69055174
0.68570309
0.68075698
0.67573357
0.67065553
0.66554797
0.66043808
0.65535467
0.65032765
0.64538735
0.64056388
0.63588626
0.63138174
0.62707494
0.62298725
0.61913624
0.61553525
0.61219328
0.60911489
0.60630045
0.60374643
0.60144586
0.59938886
0.59756321
0.59595489
0.59454864
0.59332846
0.59227803
0.59138111
0.59062179
0.58998477
0.58945552
0.5890204
0.58866673
0.58838283
0.58815805
0.58798271
0.58784804
0.58774616
0.58766995
0.58761298
0.5875694
0.58753384
0.58750133
0.5874672
0.58742707
0.58737683
0.58731268
0.58723119
0.58712936
0.58700473
0.58685546
0.58668071
0.58648129
0.58626064
0.58602563
0.5857857
0.58554884
0.58531748
0.58509056
0.58486394
0.58460273
0.58421123
0.58362076
0.58292513
0.58208087
0.58043625
0.57797665
0.6538721
0.76713597
0.71111022
0.73294208
0.7158733
0.71691973
0.71036371
0.70631932
0.70141027
0.69648904
0.69138442
0.68614616
0.68078425
0.67532377
0.66979014
0.66421259
0.65862301
0.65305552
0.64754593
0.64213088
0.63684699
0.63172984
0.62681289
0.62212651
0.61769699
0.61354579
0.60968909
0.60613744
0.60289587
0.59996405
0.59733683
0.59500481
0.5929551
0.59117198
0.58963775
0.58833333
0.58723893
0.58633458
0.58560056
0.58501778
0.58456801
0.58423408
0.58400003
0.58385112
0.58377393
0.58375626
0.58378716
0.58385683
0.58395656
0.58407862
0.58421616
0.58436311
0.58451407
0.5846642
0.58480911
0.58494475
0.58506742
0.58517364
0.58526021
0.5853242
0.58536305
0.58537458
0.58535708
0.58530948
0.58523167
0.58512524
0.58499445
0.5848469
0.58469198
0.58453659
0.58438229
0.58422829
0.58406795
0.58385908
0.58351215
0.58299656
0.582422
0.58165937
0.57998447
0.57764707
0.65194602
0.7622966
0.70659764
0.72674811
0.70998444
0.70964025
0.70278315
0.69786344
0.69225112
0.68657863
0.68072961
0.67475989
0.66869095
0.66255873
0.65640038
0.6502567
0.64417092
0.63818776
0.63235233
0.62670874
0.62129865
0.61615987
0.61132504
0.60682059
0.60266612
0.59887396
0.59544931
0.59239063
0.58969026
0.58733536
0.58530882
0.58359028
0.58215714
0.58098539
0.58005046
0.5793278
0.57879349
0.57842458
0.57819938
0.57809769
0.5781009
0.57819199
0.57835559
0.57857788
0.57884655
0.57915071
0.57948077
0.57982833
0.58018608
0.58054766
0.58090753
0.58126087
0.58160347
0.58193161
0.58224197
0.58253152
0.5827975
0.58303739
0.58324888
0.58342991
0.5835787
0.58369387
0.58377442
0.58381996
0.58383105
0.58380988
0.58376134
0.58369324
0.58361445
0.58353106
0.58344506
0.58335645
0.58325441
0.58308963
0.58278526
0.58235002
0.5818919
0.58119086
0.57950714
0.57728318
0.6492707
0.75567198
0.70103937
0.71892903
0.70241315
0.7004921
0.69314022
0.68722343
0.68074857
0.67419754
0.66749523
0.66070739
0.65387151
0.64703802
0.64025936
0.63359088
0.62708891
0.62080896
0.61480363
0.60912063
0.60380097
0.59887745
0.59437383
0.59030438
0.58667406
0.58347915
0.58070825
0.57834353
0.57636205
0.57473715
0.57343975
0.57243948
0.57170564
0.57120805
0.57091759
0.57080673
0.57084973
0.57102291
0.57130465
0.57167545
0.57211785
0.57261633
0.5731572
0.57372847
0.5743197
0.57492187
0.57552722
0.5761291
0.57672185
0.57730067
0.57786148
0.57840081
0.57891567
0.57940352
0.5798621
0.58028939
0.58068359
0.58104306
0.58136636
0.58165222
0.5818996
0.58210781
0.58227651
0.5824059
0.58249707
0.58255273
0.58257804
0.58258055
0.58256822
0.58254676
0.58251973
0.58248817
0.58243622
0.582309
0.5820465
0.58169392
0.58134383
0.58068155
0.57899124
0.57693475
0.64571176
0.74659521
0.69382311
0.70903396
0.69270381
0.68900038
0.68092977
0.67388263
0.66638792
0.65883426
0.65118498
0.64352095
0.63590225
0.6283993
0.62108349
0.61402589
0.60729408
0.60094918
0.59504334
0.5896177
0.58470116
0.58030993
0.57644797
0.57310795
0.57027279
0.56791747
0.56601093
0.56451794
0.56340082
0.5626209
0.56213975
0.56192012
0.56192665
0.56212628
0.56248862
0.56298599
0.56359349
0.56428892
0.56505264
0.56586741
0.5667182
0.56759198
0.56847758
0.56936544
0.57024744
0.57111678
0.57196773
0.57279558
0.57359641
0.57436701
0.57510477
0.57580755
0.5764736
0.57710145
0.5776899
0.57823787
0.57874446
0.57920885
0.57963035
0.58000841
0.58034267
0.58063301
0.58087965
0.58108329
0.58124546
0.58136921
0.58145968
0.58152368
0.58156808
0.58159875
0.58162144
0.58163799
0.58162761
0.58153329
0.58131552
0.58104874
0.58079307
0.58014766
0.57846773
0.57662309
0.64098143
0.73507373
0.68452071
0.69650195
0.68027726
0.67460361
0.66555012
0.65722105
0.64855419
0.63989094
0.6312419
0.62271179
0.61438994
0.60636973
0.59873942
0.59157876
0.58495507
0.57892045
0.57351017
0.56874226
0.56461832
0.56112515
0.55823712
0.5559188
0.55412775
0.55281702
0.55193746
0.55143961
0.55127521
0.55139826
0.55176579
0.55233831
0.55308
0.55395876
0.55494614
0.55601709
0.5571498
0.55832534
0.55952747
0.56074231
0.56195809
0.56316489
0.56435445
0.56551994
0.56665573
0.56775732
0.56882106
0.56984412
0.57082429
0.57175988
0.57264966
0.57349273
0.57428846
0.57503642
0.5757363
0.57638794
0.57699119
0.57754598
0.57805228
0.57851013
0.57891975
0.5792815
0.57959606
0.57986451
0.58008875
0.58027199
0.58041903
0.58053566
0.58062779
0.58070187
0.58076579
0.58082122
0.58084334
0.58077891
0.58061294
0.5804352
0.58025461
0.57961561
0.57797992
0.57639238
0.63472092
0.72211556
0.67257401
0.68074271
0.664414
0.65657966
0.64623263
0.63645109
0.62649494
0.61668939
0.60710478
0.59787515
0.5891162
0.58093433
0.57341782
0.56663353
0.56062472
0.55541072
0.55098853
0.54733555
0.54441325
0.54217108
0.54055049
0.53948843
0.53892041
0.53878289
0.53901511
0.53956025
0.54036622
0.54138598
0.54257764
0.54390425
0.54533361
0.54683785
0.54839304
0.5499788
0.55157789
0.55317582
0.55476051
0.55632197
0.55785203
0.55934406
0.5607928
0.56219408
0.56354476
0.56484246
0.56608552
0.56727282
0.56840369
0.56947783
0.57049522
0.57145607
0.57236073
0.57320966
0.57400339
0.57474249
0.5754275
0.57605897
0.57663741
0.57716338
0.57763752
0.5780606
0.57843363
0.57875802
0.57903593
0.57927054
0.57946609
0.57962728
0.57975937
0.5798697
0.57996746
0.5800529
0.58009925
0.58006313
0.57995348
0.57986136
0.57974705
0.5791351
0.57758235
0.57623519
0.62660334
0.70516029
0.65714725
0.66087013
0.6440693
0.63386957
0.62194523
0.61060817
0.59939349
0.58862129
0.57841821
0.56893446
0.56028678
0.55256277
0.5458157
0.54006526
0.53530017
0.53148288
0.52855525
0.52644459
0.52506937
0.52434424
0.52418403
0.5245068
0.52523588
0.52630116
0.52763969
0.52919577
0.53092076
0.53277265
0.53471545
0.53671865
0.53875651
0.54080754
0.5428539
0.54488088
0.54687651
0.54883108
0.55073688
0.55258781
0.55437922
0.5561076
0.55777046
0.55936613
0.56089362
0.56235251
0.56374283
0.56506495
0.56631953
0.56750744
0.56862971
0.56968747
0.57068191
0.57161425
0.57248572
0.5732975
0.5740507
0.57474639
0.57538551
0.57596902
0.57649789
0.57697317
0.57739615
0.57776846
0.57809242
0.57837107
0.57860793
0.5788068
0.57897266
0.57911364
0.57923895
0.57934672
0.57941124
0.57940337
0.57935133
0.57933525
0.57927298
0.5787061
0.57730461
0.57614156
0.61598039
0.68323018
0.63684343
0.63546944
0.61776901
0.60508494
0.59151464
0.57878673
0.56668512
0.55550643
0.54539216
0.53646297
0.52878452
0.52237528
0.51720972
0.51322647
0.51033735
0.50843672
0.5074099
0.50714026
0.50751452
0.50842653
0.50977945
0.51148689
0.51347314
0.51567279
0.51803004
0.52049775
0.52303649
0.52561353
0.52820191
0.53077964
0.53332887
0.53583529
0.53828755
0.54067678
0.54299614
0.54524052
0.54740623
0.54949074
0.5514925
0.55341076
0.55524544
0.55699695
0.55866617
0.56025427
0.56176268
0.56319303
0.56454704
0.56582655
0.56703344
0.56816958
0.56923686
0.57023711
0.57117213
0.57204362
0.57285313
0.57360212
0.57429191
0.57492373
0.57549877
0.5760183
0.57648377
0.57689701
0.57726037
0.57757664
0.57784873
0.57807981
0.57827488
0.57844226
0.57858992
0.57871392
0.57879254
0.5788127
0.57881652
0.57886563
0.57884027
0.57831586
0.57708233
0.57615322
0.60169816
0.65422106
0.60974565
0.60278083
0.58390241
0.56884693
0.55404935
0.54062874
0.52854997
0.51802911
0.50913867
0.50189568
0.49624998
0.49210214
0.48931706
0.48773905
0.48720457
0.48755234
0.48863041
0.49030053
0.49244027
0.4949435
0.49771983
0.50069336
0.50380107
0.50699121
0.51022164
0.51345833
0.51667409
0.51984734
0.52296116
0.52600247
0.52896131
0.53183028
0.53460406
0.53727901
0.53985287
0.54232449
0.54469361
0.54696069
0.54912676
0.55119333
0.55316224
0.55503563
0.55681581
0.55850525
0.56010647
0.56162208
0.56305464
0.56440674
0.56568091
0.56687964
0.56800535
0.56906037
0.57004694
0.57096716
0.57182295
0.57261605
0.57334804
0.57402037
0.57463438
0.57519145
0.57569314
0.57614137
0.57653846
0.57688693
0.57718927
0.57744845
0.57766952
0.57786018
0.57802613
0.57816199
0.57825222
0.57829886
0.57835099
0.57844846
0.57844807
0.57797542
0.57692141
0.5762307
0.58178707
0.61578581
0.57366181
0.56100242
0.54144944
0.52445416
0.50957874
0.49688766
0.4863488
0.47800486
0.47175846
0.46744983
0.46486781
0.46377825
0.4639432
0.46513596
0.46715029
0.469805
0.47294522
0.47644131
0.48018664
0.48409466
0.48809596
0.49213547
0.49616988
0.50016551
0.50409643
0.50794298
0.51169046
0.51532817
0.51884856
0.52224661
0.52551924
0.52866499
0.53168356
0.53457567
0.53734275
0.53998681
0.54251032
0.54491607
0.54720712
0.54938669
0.55145812
0.55342484
0.55529028
0.55705784
0.5587309
0.56031276
0.56180666
0.56321571
0.56454297
0.56579137
0.56696374
0.56806281
0.56909115
0.57005117
0.57094505
0.57177476
0.57254206
0.57324853
0.57389561
0.57448473
0.57501751
0.57549585
0.57592194
0.57629808
0.57662663
0.5769107
0.57715531
0.57736685
0.57754833
0.57769381
0.57779479
0.57786518
0.57795387
0.57807929
0.57809211
0.5776837
0.5768263
0.57635555
0.55363104
0.56541724
0.52723223
0.50878286
0.48813275
0.47265124
0.45966712
0.4497797
0.44272452
0.43825854
0.43603547
0.43569179
0.43686978
0.43924296
0.44252667
0.44648168
0.45091236
0.45566207
0.46060753
0.46565302
0.47072518
0.47576841
0.48074113
0.48561268
0.49036089
0.49497014
0.49942987
0.50373336
0.50787685
0.51185884
0.51567952
0.51934036
0.52284379
0.52619291
0.52939138
0.53244317
0.53535252
0.53812382
0.54076155
0.54327023
0.54565439
0.54791852
0.55006705
0.55210432
0.55403455
0.55586185
0.55759017
0.55922335
0.56076506
0.56221884
0.5635881
0.56487611
0.56608601
0.5672208
0.56828332
0.56927619
0.5702018
0.57106227
0.57185949
0.57259511
0.57327062
0.57388749
0.5744473
0.57495186
0.57540317
0.57580333
0.57615477
0.57646088
0.57672658
0.57695684
0.57715256
0.57730859
0.57742271
0.5775148
0.5776268
0.57776008
0.57777724
0.57744463
0.57679127
0.57650142
0.51311504
0.50057083
0.46334978
0.4454476
0.42802438
0.41582128
0.40751107
0.40287783
0.40126769
0.40209459
0.40478974
0.40886608
0.41392142
0.41963738
0.42576858
0.43213005
0.43858472
0.44503264
0.45140209
0.45764249
0.46371903
0.46960857
0.4752965
0.48077451
0.48603884
0.49108902
0.49592693
0.50055611
0.50498129
0.50920792
0.51324198
0.51708975
0.52075765
0.52425213
0.52757961
0.53074644
0.5337588
0.53662276
0.53934422
0.54192889
0.54438231
0.54670986
0.5489167
0.5510078
0.55298793
0.55486165
0.55663334
0.55830716
0.5598871
0.56137699
0.56278048
0.56410109
0.56534216
0.56650692
0.56759837
0.5686193
0.56957222
0.57045939
0.57128277
0.57204405
0.57274476
0.57338634
0.57397032
0.57449835
0.57497221
0.57539384
0.57576572
0.57609146
0.57637573
0.57662243
0.57683197
0.57700172
0.57713435
0.57724918
0.57737483
0.57749996
0.577514
0.57726173
0.57681251
0.5766662
0.4513195
0.41875387
0.38905881
0.37421336
0.36337924
0.35857912
0.3580139
0.36076469
0.36584028
0.37248099
0.38010147
0.38827719
0.39670773
0.40518601
0.41357242
0.42177518
0.42973597
0.43741964
0.44480696
0.45188952
0.45866624
0.46514084
0.47132023
0.47721325
0.48282992
0.48818085
0.49327688
0.49812879
0.50274719
0.50714238
0.51132428
0.51530241
0.51908589
0.52268339
0.52610318
0.52935316
0.53244082
0.53537332
0.53815745
0.54079974
0.54330638
0.54568329
0.54793612
0.55007024
0.55209077
0.55400257
0.55581026
0.55751824
0.55913069
0.56065163
0.56208486
0.56343406
0.56470273
0.56589422
0.56701167
0.56805797
0.56903573
0.56994728
0.57079465
0.57157957
0.57230357
0.57296807
0.57357451
0.57412436
0.57461921
0.57506087
0.57545181
0.57579556
0.57609631
0.57635736
0.57657973
0.57676405
0.57691672
0.57705484
0.57719472
0.57731535
0.57733322
0.57716062
0.57687225
0.57680009
0.35558647
0.32211858
0.30451051
0.30003119
0.30141448
0.30767899
0.31684754
0.32765453
0.33922656
0.35101233
0.36267619
0.37402212
0.38494247
0.39538422
0.40532775
0.41477344
0.42373333
0.43222594
0.44027303
0.44789764
0.45512292
0.46197142
0.46846466
0.47462302
0.48046557
0.48601013
0.49127328
0.49627044
0.50101595
0.5055231
0.50980429
0.51387106
0.51773417
0.52140366
0.52488894
0.52819883
0.53134162
0.53432511
0.53715666
0.53984326
0.54239148
0.5448076
0.54709752
0.54926686
0.55132094
0.55326479
0.55510317
0.55684063
0.55848145
0.56002976
0.56148945
0.5628643
0.5641579
0.56537366
0.56651481
0.56758431
0.56858484
0.56951879
0.57038824
0.57119496
0.57194048
0.57262619
0.57325343
0.57382352
0.57433787
0.57479819
0.57520686
0.57556719
0.57588292
0.57615703
0.57639141
0.57658875
0.57675632
0.57690821
0.577056
0.57718037
0.57721922
0.57712514
0.57695715
0.57691958
0.21651997
0.21524201
0.22062582
0.23401951
0.25131908
0.26969807
0.28795272
0.30543299
0.3219099
0.33731951
0.35168694
0.36507251
0.37754992
0.38919441
0.40007769
0.41026577
0.41981834
0.42878891
0.43722519
0.44516971
0.45266035
0.45973092
0.46641168
0.47272973
0.47870945
0.48437286
0.48973983
0.49482846
0.49965519
0.50423505
0.50858184
0.51270822
0.51662588
0.52034564
0.52387754
0.52723091
0.53041448
0.5334364
0.53630435
0.53902555
0.5416068
0.54405454
0.54637484
0.54857344
0.55065575
0.5526269
0.55449175
0.55625487
0.55792065
0.55949321
0.56097655
0.56237444
0.56369053
0.5649283
0.56609099
0.56718163
0.56820296
0.56915741
0.57004712
0.57087389
0.57163927
0.57234462
0.57299117
0.5735801
0.57411267
0.57459044
0.5750156
0.5753912
0.5757208
0.57600771
0.57625492
0.57646632
0.57664835
0.57681062
0.57696015
0.57708457
0.57714538
0.57711738
0.57703771
0.57700949
0.091915484
0.12180676
0.15921596
0.19285064
0.2229711
0.2494867
0.27301754
0.29402921
0.31293763
0.33006879
0.34568546
0.35999814
0.37317764
0.3853638
0.39667222
0.40719946
0.4170268
0.42622329
0.43484803
0.44295194
0.45057924
0.4577685
0.46455363
0.47096457
0.4770279
0.48276733
0.48820412
0.4933574
0.4982445
0.50288111
0.50728158
0.51145901
0.51542545
0.51919199
0.5227689
0.52616571
0.52939127
0.53245387
0.53536129
0.53812081
0.54073932
0.54322329
0.54557885
0.54781177
0.5499275
0.5519312
0.55382775
0.55562174
0.55731756
0.55891938
0.56043119
0.5618568
0.56319988
0.56446395
0.56565232
0.56676806
0.56781397
0.56879257
0.56970603
0.57055619
0.57134464
0.5720727
0.57274154
0.5733522
0.57390576
0.57440353
0.57484731
0.57523986
0.57558505
0.57588704
0.57614954
0.57637692
0.57657462
0.57674842
0.57690385
0.57703264
0.57710812
0.5771209
0.57708646
0.57705884
0.010870168
0.29904285
0.47315867
0.52088867
0.53061499
0.53118859
0.53089387
0.53202205
0.53350581
0.5349876
0.53646769
0.53791163
0.53933992
0.54074164
0.54214508
0.54355661
0.54497663
0.54640544
0.54784279
0.54928769
0.55073866
0.55219389
0.55365136
0.55510895
0.55656445
0.55801568
0.55946043
0.56089656
0.56232195
0.56373457
0.5651324
0.56651347
0.56787588
0.56921771
0.57053712
0.57183226
0.57310131
0.57434248
0.57555398
0.57673405
0.57788093
0.5789929
0.58006826
0.58110535
0.58210256
0.58305832
0.58397115
0.58483963
0.58566249
0.58643854
0.58716681
0.58784648
0.58847694
0.58905784
0.58958908
0.59007087
0.59050379
0.59088868
0.5912268
0.5915192
0.59176641
0.59196875
0.59212589
0.5922355
0.59229328
0.59229033
0.59221845
0.59205644
0.59180206
0.59140487
0.59090458
0.59017263
0.58939525
0.58826689
0.58724299
0.58583476
0.58465413
0.58367636
0.58205228
0.58268536
0.066692654
0.38762867
0.52358023
0.54829701
0.54915522
0.54739919
0.54656862
0.54671305
0.54692279
0.54723316
0.54763142
0.54819363
0.54887616
0.54965228
0.55049064
0.55138748
0.55233672
0.55333381
0.55437334
0.55545013
0.55655943
0.55769679
0.55885802
0.56003914
0.56123639
0.56244618
0.56366509
0.56488983
0.56611726
0.56734434
0.56856815
0.56978585
0.57099469
0.57219201
0.5733752
0.57454172
0.57568911
0.57681494
0.57791688
0.57899261
0.58003991
0.58105661
0.5820406
0.58298985
0.58390242
0.58477647
0.58561024
0.58640211
0.5871506
0.5878544
0.58851239
0.58912365
0.58968753
0.59020358
0.59067169
0.59109201
0.59146508
0.59179174
0.59207314
0.59231021
0.5925033
0.59265251
0.59275717
0.5928146
0.59282003
0.59276452
0.59263941
0.59242482
0.59211736
0.59167077
0.59112076
0.59034981
0.58953359
0.58837092
0.58733789
0.58591762
0.58476079
0.58374732
0.58220483
0.58272624
0.15441789
0.46901657
0.54297507
0.55559127
0.55426478
0.55336285
0.55337525
0.55394401
0.55437757
0.55491454
0.55543553
0.55601495
0.55661635
0.55725713
0.55793072
0.55864166
0.55938626
0.56016454
0.56097504
0.56181612
0.56268603
0.56358286
0.56450455
0.56544891
0.5664136
0.56739621
0.5683942
0.56940497
0.57042586
0.57145415
0.57248709
0.57352189
0.57455575
0.57558587
0.57660944
0.57762367
0.57862577
0.579613
0.58058266
0.58153209
0.58245867
0.58335989
0.58423327
0.58507646
0.58588719
0.5866633
0.58740277
0.58810373
0.58876449
0.58938354
0.5899596
0.59049163
0.59097883
0.59142068
0.59181699
0.59216783
0.59247365
0.59273523
0.59295363
0.59312958
0.59326324
0.59335447
0.59340228
0.59340364
0.59335341
0.59324262
0.59306236
0.59279375
0.59243292
0.5919364
0.59133814
0.5905275
0.58967403
0.58847788
0.58743687
0.5860043
0.58486774
0.58382506
0.582341
0.58276074
0.23821788
0.51566927
0.55663308
0.56395992
0.5613651
0.56162505
0.56170938
0.56231386
0.56260558
0.56306782
0.56345932
0.56392529
0.56439681
0.56489779
0.56541597
0.56595873
0.56652381
0.56711302
0.56772638
0.56836388
0.56902526
0.56971006
0.57041758
0.5711469
0.57189688
0.57266614
0.57345314
0.57425613
0.57507316
0.57590214
0.57674082
0.57758685
0.5784377
0.5792908
0.58014345
0.58099292
0.58183641
0.58267109
0.58349415
0.58430274
0.58509406
0.58586537
0.58661396
0.58733723
0.58803265
0.58869784
0.58933054
0.58992866
0.59049032
0.59101384
0.59149778
0.59194097
0.59234248