/*--------------------------------*- C++ -*----------------------------------*\
  =========                 |
  \\      /  F ield         | OpenFOAM: The Open Source CFD Toolbox
   \\    /   O peration     | Website:  https://openfoam.org
    \\  /    A nd           | Version:  12
     \\/     M anipulation  |
\*---------------------------------------------------------------------------*/
FoamFile
{
    format      ascii;
    class       volScalarField;
    location    "0.056";
    object      p;
}
// * * * * * * * * * * * * * * * * * * * * * * * * * * * * * * * * * * * * * //

dimensions      [1 -1 -2 0 0 0 0];

internalField   nonuniform List<scalar> 
16000
(
89964.138
90091.177
90103.087
90238.74
90264.609
90393.242
90443.64
90561.523
90635.461
90747.518
90839.95
90951.74
91058.431
91174.426
91292.249
91415.554
91542.917
91674.948
91811.519
91952.714
92098.536
92248.987
92404.041
92563.651
92727.743
92896.213
93068.93
93245.726
93426.402
93610.725
93798.422
93989.19
94182.686
94378.537
94576.334
94775.64
94975.99
95176.894
95377.843
95578.315
95777.776
95975.689
96171.519
96364.738
96554.831
96741.3
96923.672
97101.501
97274.377
97441.922
97603.801
97759.717
97909.421
98052.71
98189.434
98319.496
98442.85
98559.509
98669.532
98773.037
98870.181
98961.159
99046.196
99125.543
99199.471
99268.271
99332.271
99391.836
99447.382
99499.365
99548.312
99594.759
99638.979
99681.369
99723.628
99763.997
99793.675
99859.342
99850.512
99920.663
89609.595
89753.778
89763.062
89911.036
89938.648
90078.474
90131.241
90260.646
90338.465
90460.8
90559.726
90680.575
90795.696
90920.658
91047.855
91180.75
91318.119
91460.449
91607.657
91759.793
91916.848
92078.796
92245.583
92417.128
92593.316
92774
92959
93148.097
93341.037
93537.525
93737.232
93939.787
94144.787
94351.791
94560.326
94769.892
94979.963
95189.994
95399.426
95607.689
95814.217
96018.443
96219.816
96417.799
96611.88
96801.574
96986.432
97166.04
97340.028
97508.063
97669.861
97825.181
97973.83
98115.666
98250.595
98378.575
98499.616
98613.777
98721.165
98821.936
98916.281
99004.424
99086.613
99163.114
99234.21
99300.201
99361.421
99418.247
99471.11
99520.504
99567.011
99611.156
99653.243
99694.016
99734.693
99771.421
99806.1
99861.215
99855.452
99930.094
89285.853
89445.718
89454.817
89616.321
89643.964
89797.74
89852.185
89994.095
90076.814
90209.808
90316.586
90447.141
90571.96
90706.914
90844.695
90988.402
91137.024
91290.919
91450.019
91614.333
91783.823
91958.425
92138.047
92322.563
92511.811
92705.593
92903.673
93105.772
93311.572
93520.711
93732.788
93947.36
94163.95
94382.042
94601.092
94820.529
95039.764
95258.193
95475.207
95690.197
95902.567
96111.732
96317.135
96518.246
96714.572
96905.66
97091.1
97270.531
97443.637
97610.151
97769.856
97922.582
98068.207
98206.658
98337.911
98461.987
98578.956
98688.932
98792.07
98888.568
98978.655
99062.583
99140.621
99213.053
99280.168
99342.277
99399.719
99452.882
99502.214
99548.248
99591.592
99632.748
99672.13
99710.622
99748.613
99782.488
99818.99
99866.351
99860.742
99941.398
88996.603
89167.465
89177.392
89354.482
89381.562
89551.809
89608.498
89764.934
89853.521
89998.745
90114.901
90256.549
90392.73
90539.169
90689.081
90845.093
91006.407
91173.258
91345.581
91523.347
91706.489
91894.906
92088.465
92286.992
92490.272
92698.047
92910.013
93125.818
93345.066
93567.313
93792.071
94018.811
94246.967
94475.939
94705.101
94933.807
95161.401
95387.222
95610.617
95830.947
96047.595
96259.977
96467.548
96669.805
96866.295
97056.618
97240.429
97417.437
97587.405
97750.151
97905.542
98053.494
98193.97
98326.978
98452.57
98570.84
98681.92
98785.981
98883.231
98973.907
99058.275
99136.614
99209.213
99276.367
99338.377
99395.557
99448.25
99496.85
99541.817
99583.709
99623.124
99660.537
99696.489
99731.92
99766.331
99797.195
99833.916
99874.453
99867.526
99954.985
88745.503
88931.427
88938.067
89134.089
89160.084
89348.979
89407.806
89580.629
89676.374
89835.301
89962.679
90116.64
90265.72
90424.888
90588.165
90757.667
90932.816
91113.758
91300.431
91492.778
91690.695
91894.039
92102.62
92316.202
92534.496
92757.161
92983.805
93213.981
93447.19
93682.885
93920.474
94159.324
94398.766
94638.106
94876.631
95113.619
95348.35
95580.115
95808.231
96032.044
96250.942
96464.363
96671.8
96872.806
97066.995
97254.049
97433.711
97605.787
97770.143
97926.697
98075.419
98216.325
98349.473
98474.96
98592.919
98703.516
98806.95
98903.446
98993.259
99076.663
99153.954
99225.435
99291.409
99352.181
99408.059
99459.36
99506.431
99549.668
99589.542
99626.613
99661.442
99694.477
99726.357
99757.963
99788.045
99815.644
99851.167
99884.885
99876.505
99971.059
88537.215
88740.932
88745.64
88962.9
88987.795
89197.344
89258.486
89449.417
89553.548
89726.845
89866.619
90033.334
90196.187
90368.881
90546.449
90730.505
90920.65
91116.946
91319.304
91527.611
91741.7
91961.351
92186.291
92416.186
92650.645
92889.215
93131.386
93376.587
93624.197
93873.54
94123.902
94374.529
94624.643
94873.45
95120.152
95363.958
95604.099
95839.84
96070.488
96295.404
96514.012
96725.806
96930.351
97127.289
97316.337
97497.287
97670.002
97834.41
97990.498
98138.305
98277.918
98409.461
98533.094
98649.005
98757.41
98858.544
98952.668
99040.056
99121.001
99195.809
99264.798
99328.283
99386.578
99439.992
99488.835
99533.427
99574.115
99611.296
99645.44
99677.09
99706.745
99734.853
99762.109
99789.121
99814.254
99838.523
99872.02
99897.908
99888.399
99990.019
88371.819
88596.687
88598.551
88840.782
88864.611
89098.796
89163.104
89373.677
89486.136
89673.087
89826.209
90006.327
90184.343
90372.131
90565.731
90766.239
90973.341
91186.99
91407.025
91633.245
91865.387
92103.124
92346.065
92593.752
92845.658
93101.189
93359.688
93620.436
93882.661
94145.544
94408.231
94669.843
94929.491
95186.287
95439.363
95687.88
95931.048
96168.135
96398.481
96621.5
96836.695
97043.658
97242.068
97431.698
97612.404
97784.121
97946.86
98100.693
98245.749
98382.201
98510.257
98630.157
98742.16
98846.543
98943.598
99033.625
99116.933
99193.838
99264.66
99329.726
99389.362
99443.892
99493.626
99538.874
99579.942
99617.147
99650.835
99681.395
99709.29
99735.015
99758.999
99781.717
99803.885
99825.669
99845.586
99866.318
99896.46
99913.946
99903.79
100012.68
88243.036
88492.696
88490.14
88762.527
88783.018
89044.297
89111.656
89341.451
89465.747
89668.99
89839.295
90035.758
90232.053
90437.927
90650.411
90870.169
91096.923
91330.523
91570.72
91817.201
92069.58
92327.396
92590.107
92857.095
93127.666
93401.052
93676.419
93952.873
94229.474
94505.243
94779.185
95050.298
95317.594
95580.115
95836.951
96087.256
96330.261
96565.29
96791.761
97009.201
97217.244
97415.628
97604.201
97782.904
97951.771
98110.913
98260.51
98400.798
98532.054
98654.591
98768.74
98874.849
98973.27
99064.36
99148.472
99225.957
99297.163
99362.43
99422.094
99476.488
99525.938
99570.76
99611.256
99647.725
99680.464
99709.782
99736.014
99759.538
99780.79
99800.198
99818.13
99835.116
99851.799
99867.895
99882.579
99899.666
99925.255
99933.66
99923.19
100039.8
88149.149
88427.352
88420.373
88730.428
88744.708
89034.849
89107.778
89359.796
89501.188
89723.2
89914.361
90130.091
90347.733
90574.809
90809.196
91051.206
91300.53
91556.893
91819.914
92089.131
92363.994
92643.861
92927.998
93215.585
93505.72
93797.424
94089.656
94381.326
94671.312
94958.476
95241.69
95519.851
95791.906
96056.869
96313.841
96562.026
96800.742
97029.432
97247.667
97455.149
97651.704
97837.282
98011.938
98175.829
98329.195
98472.345
98605.642
98729.489
98844.315
98950.561
99048.673
99139.09
99222.243
99298.548
99368.405
99432.197
99490.291
99543.038
99590.773
99633.822
99672.496
99707.094
99737.9
99765.194
99789.257
99810.38
99828.88
99845.115
99859.475
99872.306
99883.935
99894.946
99905.887
99915.972
99925.137
99938.678
99958.949
99957.68
99948.265
100072.21
88093.7
88405.307
88395.442
88742.031
88756.114
89078.815
89163.286
89440.88
89602.38
89845.118
90060.77
90298.964
90541.228
90792.928
91052.545
91320.084
91595.126
91877.227
92165.823
92460.253
92759.744
93063.419
93370.297
93679.305
93989.288
94299.022
94607.235
94912.632
95213.913
95509.802
95799.07
96080.56
96353.215
96616.09
96868.379
97109.419
97338.703
97555.883
97760.761
97953.29
98133.556
98301.766
98458.232
98603.35
98737.585
98861.448
98975.485
99080.255
99176.32
99264.232
99344.527
99417.713
99484.275
99544.665
99599.307
99648.594
99692.895
99732.551
99767.883
99799.194
99826.77
99850.881
99871.786
99889.735
99904.987
99917.808
99928.489
99937.355
99944.731
99950.88
99956.134
99961.125
99966.147
99970.176
99974.049
99984.179
99998.218
99987.097
99980.81
100111.25
88083.174
88434.518
88420.62
88808.135
88826.156
89185.647
89285.206
89590.216
89777.649
90043.977
90288.408
90553.066
90823.74
91103.929
91392.479
91689.105
91993.215
92304.135
92621.049
92943.022
93268.985
93597.756
93928.042
94258.464
94587.575
94913.885
95235.889
95552.097
95861.069
96161.437
96451.944
96731.466
96999.037
97253.867
97495.352
97723.078
97936.822
98136.541
98322.357
98494.543
98653.496
98799.721
98933.802
99056.384
99168.148
99269.795
99362.027
99445.532
99520.974
99588.985
99650.156
99705.037
99754.132
99797.905
99836.777
99871.131
99901.315
99927.646
99950.415
99969.889
99986.319
99999.938
100010.97
100019.63
100026.15
100030.77
100033.73
100035.32
100035.78
100035.33
100034.31
100033.38
100032.45
100030.44
100029.55
100036.61
100043.33
100023.05
100021.96
100158.5
88126.216
88524.792
88507.04
88943.015
88965.851
89365.327
89484.566
89818.845
90038.055
90331.337
90608.972
90904.654
91208
91520.988
91842.576
92172.163
92508.877
92851.717
93199.517
93550.963
93904.605
94258.876
94612.114
94962.597
95308.569
95648.28
95980.022
96302.169
96613.217
96911.815
97196.801
97467.224
97722.362
97961.725
98185.059
98392.33
98583.713
98759.56
98920.384
99066.82
99199.604
99319.538
99427.471
99524.269
99610.799
99687.911
99756.42
99817.1
99870.674
99917.81
99959.119
99995.152
100026.41
100053.33
100076.31
100095.7
100111.82
100124.93
100135.29
100143.11
100148.62
100151.99
100153.41
100153.05
100151.12
100147.81
100143.34
100137.92
100131.72
100124.92
100117.95
100111.34
100104.65
100097.03
100092.16
100095.88
100094.45
100066.26
100073.39
100215.06
88223.684
88678.392
88657.296
89148.35
89179.785
89623.124
89769.807
90135.967
90394.192
90719.269
91035.299
91367.52
91708.631
92059.397
92418.645
92785.354
93158.231
93535.815
93916.463
94298.383
94679.655
95058.271
95432.167
95799.27
96157.542
96505.03
96839.918
97160.572
97465.585
97753.806
98024.369
98276.695
98510.501
98725.774
98922.759
99101.924
99263.924
99409.566
99539.774
99655.549
99757.94
99848.014
99926.833
99995.431
100054.8
100105.88
100149.54
100186.6
100217.77
100243.72
100265.04
100282.25
100295.8
100306.11
100313.51
100318.3
100320.75
100321.07
100319.47
100316.11
100311.15
100304.74
100297.01
100288.11
100278.19
100267.41
100255.94
100243.95
100231.52
100218.83
100206.37
100194.5
100182.44
100169.9
100161.89
100162.21
100151.85
100117.08
100135.87
100281.44
88381.143
88902.49
88878.72
89432.395
89478.753
89969.896
90153.376
90554.773
90859.868
91223.133
91583.669
91958.966
92343.825
92737.938
93139.724
93547.571
93959.6
94373.749
94787.787
95199.355
95606.01
96005.271
96394.687
96771.889
97134.666
97481.023
97809.244
98117.931
98406.044
98672.904
98918.202
99141.971
99344.56
99526.59
99688.913
99832.56
99958.692
100068.56
100163.46
100244.7
100313.58
100371.34
100419.19
100458.24
100489.54
100514.05
100532.63
100546.06
100555.04
100560.16
100561.97
100560.93
100557.42
100551.78
100544.3
100535.21
100524.71
100512.96
100500.1
100486.25
100471.51
100455.98
100439.75
100422.93
100405.63
100387.98
100370.11
100352.11
100334.04
100316.11
100298.79
100282.2
100265.37
100248.95
100238.76
100235.55
100216.6
100176.43
100208.4
100356.9
88605.211
89206.238
89181.716
89806.486
89875.098
90418.102
90649.784
91091.657
91452.701
91862.743
92275.33
92701.281
93136.459
93579.5
94028.154
94480.059
94932.605
95383.007
95828.346
96265.636
96691.889
97104.205
97499.862
97876.401
98231.712
98564.09
98872.285
99155.511
99413.447
99646.207
99854.297
100038.56
100200.1
100340.25
100460.49
100562.36
100647.49
100717.47
100773.87
100818.21
100851.9
100876.28
100892.59
100901.94
100905.35
100903.72
100897.86
100888.46
100876.14
100861.43
100844.75
100826.5
100806.99
100786.46
100765.14
100743.17
100720.71
100697.83
100674.63
100651.17
100627.49
100603.65
100579.7
100555.71
100531.76
100507.95
100484.38
100461.06
100438.07
100415.67
100394.26
100373.61
100352.84
100333.72
100322.29
100315.49
100288.41
100245.64
100291.9
100440.09
88902.257
89598.474
89576.079
90281.622
90383.961
90984.731
91279.431
91770.406
92197.996
92665.206
93138.21
93622.422
94113.914
94610.23
95108.249
95604.685
96096.024
96578.622
97048.801
97502.961
97937.708
98349.978
98737.151
99097.139
99428.439
99730.157
100001.99
100244.2
100457.51
100643.09
100802.39
100937.15
101049.23
101140.59
101213.23
101269.1
101310.11
101338.06
101354.65
101361.46
101359.9
101351.29
101336.8
101317.45
101294.16
101267.73
101238.85
101208.1
101175.98
101142.91
101109.22
101075.2
101041.07
101006.99
100973.11
100939.5
100906.24
100873.36
100840.87
100808.8
100777.14
100745.91
100715.11
100684.79
100655.01
100625.83
100597.3
100569.44
100542.35
100516.32
100491.62
100467.7
100443.98
100423.36
100411.34
100400.91
100367.07
100325.87
100386.36
100531.07
89279.918
90089.872
90075.262
90876.799
91030.021
91698.646
92073.595
92624.607
93129.412
93664.267
94205.445
94754.215
95306.138
95857.472
96403.903
96940.942
97463.982
97968.484
98450.15
98905.111
99330.084
99722.491
100080.54
100403.22
100690.33
100942.34
101160.34
101345.92
101501.06
101627.99
101729.1
101806.86
101863.75
101902.16
101924.38
101932.58
101928.75
101914.73
101892.17
101862.56
101827.24
101787.36
101743.96
101697.91
101649.97
101600.81
101550.94
101500.83
101450.84
101401.27
101352.35
101304.26
101257.12
101211.03
101166.03
101122.14
101079.37
101037.69
100997.07
100957.46
100918.85
100881.19
100844.47
100808.71
100773.93
100740.19
100707.5
100675.9
100645.52
100616.71
100589.49
100563.12
100537.54
100516.52
100504.27
100490.13
100451.29
100415.88
100490.89
100629.6
89758.253
90708.449
90713.031
91630.26
91852.074
92598.912
93071.569
93693.935
94285.571
94897.737
95513.566
96130.868
96743.839
97346.948
97934.296
98500.049
99038.672
99545.2
100015.47
100446.29
100835.51
101182.08
101485.95
101747.97
101969.75
102153.53
102301.94
102417.92
102504.56
102564.96
102602.18
102619.15
102618.65
102603.22
102575.21
102536.74
102489.72
102435.82
102376.53
102313.15
102246.81
102178.46
102108.93
102038.92
101969
101899.65
101831.25
101764.1
101698.45
101634.47
101572.27
101511.95
101453.53
101397.03
101342.43
101289.69
101238.73
101189.5
101141.9
101095.86
101051.32
101008.21
100966.49
100926.17
100887.25
100849.76
100813.69
100779.11
100746.24
100715.37
100686.31
100658.26
100631.84
100611.35
100598.96
100580.95
100539.25
100513.2
100601.04
100730.2
90369.912
91498.193
91532.182
92583.774
92893.137
93726.317
94315.637
95023.056
95711.12
96409.129
97103.162
97787.482
98454.083
99095.373
99704.068
100273.7
100798.92
101275.74
101701.65
102075.58
102397.83
102669.84
102894.02
103073.48
103211.82
103312.89
103380.68
103419.1
103431.96
103422.81
103394.98
103351.49
103295.05
103228.11
103152.81
103071.03
102984.42
102894.38
102802.14
102708.71
102614.98
102521.67
102429.37
102338.57
102249.67
102162.95
102078.66
101996.96
101917.95
101841.69
101768.23
101697.54
101629.58
101564.29
101501.6
101441.39
101383.55
101327.97
101274.53
101223.12
101173.64
101126.01
101080.19
101036.16
100993.9
100953.41
100914.7
100877.86
100843.17
100810.81
100780.39
100751.3
100724.92
100705.51
100692.66
100671.01
100628.97
100613.66
100710.46
100824.79
91143.966
92486.709
92564.798
93771.235
94201.931
95133.421
95861.083
96670.264
97462.218
98248.252
99013.891
99749.811
100446.06
101094.08
101686.91
102219.57
102689.12
103094.65
103437.05
103718.72
103943.23
104114.98
104238.85
104319.97
104363.46
104374.29
104357.14
104316.35
104255.87
104179.23
104089.58
103989.66
103881.9
103768.35
103650.8
103530.76
103409.51
103288.13
103167.51
103048.38
102931.36
102816.91
102705.42
102597.17
102492.37
102391.16
102293.62
102199.8
102109.7
102023.28
101940.48
101861.21
101785.37
101712.83
101643.45
101577.09
101513.59
101452.79
101394.56
101338.75
101285.26
101233.99
101184.88
101137.89
101093.02
101050.22
101009.51
100971.04
100935.06
100901.59
100870.16
100840.53
100814.74
100796.4
100782.59
100757.91
100717.47
100712.25
100812.68
100907.75
92110.911
93721.656
93880.948
95259.087
95857.397
96903.288
97786.42
98707.884
99598.027
100454.88
101262.41
102009.55
102687
103288.49
103810.68
104253.06
104617.58
104908.12
105129.99
105289.42
105393.1
105447.83
105460.23
105436.58
105382.66
105303.71
105204.39
105088.8
104960.54
104822.67
104677.85
104528.31
104375.96
104222.36
104068.85
103916.52
103766.24
103618.76
103474.64
103334.32
103198.17
103066.43
102939.27
102816.8
102699.07
102586.08
102477.8
102374.17
102275.08
102180.43
102090.08
102003.87
101921.66
101843.25
101768.48
101697.16
101629.08
101564.09
101502
101442.67
101385.97
101331.81
101280.12
101230.86
101183.97
101139.44
101097.29
101057.68
101020.78
100986.48
100954.3
100924.48
100899.42
100881.65
100866.26
100839.23
100801.97
100805.54
100903.73
100980.77
93354.663
95304.101
95589.782
97160.319
97974.091
99143.158
100176.77
101195.12
102146.31
103021.62
103807.21
104495.28
105082.15
105568.19
105957.09
106255.08
106470.08
106610.97
106686.95
106707.06
106679.91
106613.37
106514.55
106389.75
106244.41
106083.27
105910.33
105728.99
105542.1
105352.02
105160.73
104969.83
104780.65
104594.25
104411.48
104233.02
104059.39
103890.98
103728.08
103570.89
103419.54
103274.07
103134.5
103000.77
102872.81
102750.51
102633.74
102522.34
102416.15
102314.98
102218.65
102126.96
102039.69
101956.64
101877.59
101802.32
101730.62
101662.29
101597.15
101535.05
101475.84
101419.43
101365.75
101314.74
101266.35
101220.54
101177.36
101136.95
101099.39
101064.44
101031.76
101002
100977.56
100959.68
100942.17
100913.43
100880.24
100890.95
100984.01
101045.85
95008.222
97376.112
97843.6
99604.799
100669.43
101946.93
103078.3
104126.65
105054.01
105854.07
106522.54
107061.57
107477.77
107781.06
107983.33
108097.31
108135.74
108110.73
108033.39
107913.65
107760.18
107580.47
107380.84
107166.62
106942.22
106711.31
106476.88
106241.36
106006.74
105774.59
105546.18
105322.49
105104.3
104892.19
104686.59
104487.82
104296.07
104111.48
103934.09
103763.89
103600.82
103444.77
103295.63
103153.23
103017.38
102887.89
102764.55
102647.14
102535.44
102429.22
102328.24
102232.27
102141.07
102054.39
101971.99
101893.63
101819.08
101748.14
101680.61
101616.33
101555.17
101497.03
101441.82
101389.49
101339.96
101293.21
101249.3
101208.32
101170.25
101134.8
101101.84
101072.29
101048.2
101029.52
101009.67
100980.18
100951.79
100967.68
101052.53
101099.72
97263.698
100100.34
100812.43
102714.98
103992.54
105317.67
106429.44
107379.41
108154.45
108760.32
109208.09
109513.66
109695.03
109770.74
109758.57
109674.8
109533.87
109348.2
109128.32
108883.01
108619.49
108343.63
108060.2
107773.01
107485.11
107198.91
106916.31
106638.76
106367.41
106103.1
105846.47
105597.98
105357.92
105126.49
104903.77
104689.8
104484.51
104287.82
104099.6
103919.66
103747.82
103583.85
103427.52
103278.59
103136.79
103001.86
102873.54
102751.57
102635.67
102525.59
102421.05
102321.79
102227.55
102138.06
102053.06
101972.29
101895.52
101822.54
101753.14
101687.17
101624.5
101565.02
101508.64
101455.28
101404.89
101357.45
101312.99
101271.56
101233.05
101197.22
101164.11
101134.75
101110.58
101090.53
101068.51
101039.36
101015.86
101034.12
101107.29
101140.96
100376.36
103592.59
104613.95
106583.53
107902.82
109080.17
110004.87
110701.75
111188.64
111492.37
111641.06
111662.38
111581.62
111420.87
111198.91
110931.23
110630.46
110306.71
109968.02
109620.69
109269.67
108918.76
108570.92
108228.37
107892.81
107565.49
107247.31
106938.92
106640.75
106353.06
106075.97
105809.53
105553.68
105308.3
105073.23
104848.28
104633.21
104427.76
104231.68
104044.66
103866.42
103696.66
103535.05
103381.3
103235.09
103096.12
102964.08
102838.68
102719.62
102606.61
102499.36
102397.59
102301.01
102209.34
102122.32
102039.67
101961.16
101886.57
101815.7
101748.4
101684.53
101623.99
101566.68
101512.52
101461.45
101413.46
101368.56
101326.73
101287.83
101251.65
101218.39
101188.95
101164.13
101142.29
101118.51
101090.61
101071.52
101088.94
101147.1
101169.02
104605.65
108037.65
109263.72
110968.79
112104.35
112942.63
113482.56
113779.2
113877.46
113820.73
113645.72
113382.87
113056.59
112686.07
112286.14
111868.17
111440.76
111010.38
110581.84
110158.72
109743.61
109338.39
108944.37
108562.44
108193.18
107836.92
107493.8
107163.84
106846.93
106542.91
106251.54
105972.55
105705.64
105450.47
105206.7
104973.98
104751.95
104540.26
104338.53
104146.39
103963.5
103789.48
103623.97
103466.64
103317.12
103175.1
103040.23
102912.2
102790.69
102675.39
102566.01
102462.25
102363.8
102270.38
102181.71
102097.52
102017.57
101941.64
101869.55
101801.13
101736.26
101674.82
101616.71
101561.84
101510.17
101461.68
101416.34
101374.1
101334.76
101298.21
101264.64
101234.7
101208.63
101184.73
101159.6
101133.31
101117.21
101130.89
101172.59
101184.1
109880.94
113275.61
114404.9
115542.36
116160.58
116448.85
116472.12
116304.28
115999.79
115601.35
115140.7
114641.24
114119.93
113588.97
113057.08
112530.38
112013.16
111508.32
111017.84
110542.95
110084.39
109642.53
109217.46
108809.1
108417.23
108041.53
107681.63
107337.09
107007.47
106692.31
106391.13
106103.44
105828.8
105566.71
105316.74
105078.42
104851.31
104634.99
104429.02
104233
104046.52
103869.18
103700.59
103540.38
103388.18
103243.64
103106.41
102976.16
102852.57
102735.3
102624.06
102518.54
102418.42
102323.43
102233.26
102147.66
102066.38
101989.22
101915.98
101846.5
101780.67
101718.35
101659.44
101603.86
101551.56
101502.49
101456.62
101413.85
101373.99
101336.96
101302.88
101272.04
101244.27
101218.17
101191.88
101166.86
101151.8
101158.82
101184.64
101190.14
116152.65
118685.39
119302.8
119588.16
119495.52
119166.71
118681.68
118101.42
117466.79
116805.48
116135.89
115470.11
114815.99
114178.49
113560.66
112964.26
112390.13
111838.57
111309.48
110802.48
110317.06
109852.58
109408.35
108983.66
108577.78
108189.99
107819.59
107465.88
107128.2
106805.89
106498.36
106204.99
105925.21
105658.48
105404.28
105162.08
104931.41
104711.78
104502.75
104303.87
104114.71
103934.86
103763.9
103601.45
103447.13
103300.58
103161.44
103029.38
102904.06
102785.16
102672.35
102565.34
102463.8
102367.44
102275.99
102189.16
102106.72
102028.47
101954.22
101883.81
101817.1
101753.99
101694.35
101638.11
101585.18
101535.52
101489.06
101445.69
101405.26
101367.71
101333.03
101301.17
101271.71
101243.63
101216.11
101191.25
101175.49
101175.18
101187.36
101189.79
122831.87
123277.68
123060.27
122509.76
121775.82
120948.93
120085.56
119217.66
118363.9
117534.56
116735.1
115968.1
115234.37
114533.73
113865.4
113228.26
112621.03
112042.37
111490.93
110965.38
110464.43
109986.89
109531.59
109097.46
108683.47
108288.66
107912.15
107553.08
107210.66
106884.15
106572.85
106276.08
105993.23
105723.68
105466.89
105222.3
104989.41
104767.71
104556.73
104356.01
104165.11
103983.61
103811.08
103647.13
103491.39
103343.47
103203.02
103069.71
102943.19
102823.13
102709.23
102601.15
102498.6
102401.28
102308.89
102221.18
102137.91
102058.86
101983.85
101912.72
101845.34
101781.59
101721.34
101664.52
101611.03
101560.82
101513.8
101469.84
101428.82
101390.63
101355.2
101322.28
101291.38
101261.78
101233.36
101207.95
101190.04
101183.35
101185.37
101185.93
126733.47
126105.3
125185.8
124128.76
123039.31
121961.74
120918.88
119920.09
118968.83
118065.38
117208.44
116395.95
115625.57
114894.85
114201.39
113542.91
112917.27
112322.49
111756.72
111218.27
110705.59
110217.25
109751.92
109308.4
108885.57
108482.38
108097.87
107731.16
107381.41
107047.84
106729.72
106426.38
106137.16
105861.45
105598.69
105348.32
105109.83
104882.7
104666.47
104460.67
104264.86
104078.6
103901.49
103733.12
103573.1
103421.07
103276.67
103139.55
103009.38
102885.82
102768.56
102657.27
102551.65
102451.39
102356.19
102265.8
102179.95
102098.45
102021.1
101947.74
101878.22
101812.43
101750.25
101691.58
101636.35
101584.48
101535.89
101490.44
101447.98
101408.41
101371.63
101337.29
101304.73
101273.45
101243.66
101217.46
101197.71
101186.46
101182.72
101182.39
103898.8
103872.49
103921.9
103971.3
104008.1
104018.67
104001.75
103972.52
103937.24
103892.71
103834.51
103762.99
103681.95
103596.21
103506.73
103413.57
103317.06
103217.67
103115.86
103012
102906.49
102799.66
102691.85
102583.36
102474.47
102365.44
102256.51
102147.91
102039.84
101932.51
101826.09
101720.76
101616.69
101514.04
101412.98
101313.64
101216.19
101120.76
101027.5
100936.56
100848.07
100762.19
100679.04
100598.77
100521.5
100447.39
100376.54
100309.1
100245.19
100184.91
100128.36
100075.64
100026.81
99981.938
99941.043
99904.141
99871.216
99842.233
99817.139
99795.864
99778.33
99764.448
99754.113
99747.218
99743.555
99743.025
99745.026
99749.92
99755.716
99765.281
99772.211
99787.125
99791.786
99813.523
99817.709
99841.298
99857.54
99857.882
99923.516
99858.198
103275.83
103269.92
103283.77
103299.63
103298.07
103290.24
103278.82
103260.67
103230.76
103195.05
103152.39
103104.54
103050.81
102992.31
102929.09
102861.82
102790.75
102716.23
102638.57
102558.09
102475.09
102389.86
102302.7
102213.88
102123.67
102032.35
101940.17
101847.38
101754.23
101660.95
101567.78
101474.93
101382.62
101291.07
101200.48
101111.05
101022.97
100936.45
100851.66
100768.79
100688.02
100609.52
100533.48
100460.04
100389.38
100321.65
100257.01
100195.6
100137.55
100082.98
100032.02
99984.74
99941.231
99901.545
99865.715
99833.748
99805.625
99781.305
99760.728
99743.817
99730.484
99720.631
99714.148
99710.916
99710.738
99713.492
99718.632
99726.416
99735.054
99747.051
99756.595
99773.304
99780.319
99803.833
99809.618
99835.149
99851.546
99855.956
99918.796
99857.701
102871.41
102855.3
102824.97
102793.17
102762.57
102733.97
102700.7
102668.2
102632.07
102595.48
102554.96
102513.09
102467.7
102420.23
102369.74
102316.76
102261.1
102202.92
102142.27
102079.24
102013.98
101946.59
101877.24
101806.08
101733.27
101659
101583.45
101506.82
101429.31
101351.13
101272.49
101193.59
101114.66
101035.91
100957.57
100879.84
100802.95
100727.11
100652.53
100579.43
100508.01
100438.47
100371.02
100305.84
100243.12
100183.05
100125.8
100071.52
100020.38
99972.504
99928.016
99887.02
99849.597
99815.808
99785.688
99759.245
99736.46
99717.289
99701.667
99689.515
99680.737
99675.229
99672.875
99673.551
99677.063
99683.279
99691.697
99702.505
99714.063
99728.624
99740.756
99759.542
99768.782
99793.928
99801.436
99829.063
99845.639
99853.67
99914.16
99857.098
102274.55
102251.33
102221.6
102189.02
102156.75
102128.08
102094.97
102064.86
102030.6
101998.37
101962.66
101927.71
101890.04
101851.99
101811.86
101770.44
101727.26
101682.44
101635.87
101587.55
101537.46
101485.63
101432.08
101376.86
101320.05
101261.74
101202.03
101141.06
101078.95
101015.86
100951.96
100887.43
100822.46
100757.24
100691.98
100626.89
100562.18
100498.08
100434.81
100372.58
100311.62
100252.14
100194.37
100138.51
100084.78
100033.36
99984.449
99938.228
99894.859
99854.491
99817.255
99783.261
99752.597
99725.33
99701.497
99681.107
99664.142
99650.558
99640.289
99633.253
99629.351
99628.474
99630.5
99635.3
99642.686
99652.516
99664.328
99678.262
99692.804
99710.009
99724.728
99745.752
99757.166
99783.716
99793.143
99823.119
99839.807
99851.195
99909.828
99856.517
101541.93
101526.1
101510.2
101491.61
101470.98
101454.74
101432.49
101414.69
101391.43
101371.47
101347.05
101324.4
101298.6
101273.23
101245.81
101217.54
101187.68
101156.5
101123.82
101089.61
101053.86
101016.55
100977.67
100937.24
100895.29
100851.86
100807.03
100760.86
100713.46
100664.93
100615.39
100565
100513.9
100462.26
100410.27
100358.11
100305.98
100254.11
100202.69
100151.95
100102.12
100053.41
100006.05
99960.26
99916.253
99874.239
99834.419
99796.979
99762.092
99729.914
99700.58
99674.208
99650.889
99630.692
99613.655
99599.789
99589.076
99581.473
99576.915
99575.318
99576.581
99580.59
99587.222
99596.341
99607.764
99621.343
99636.654
99653.796
99671.383
99691.282
99708.629
99731.914
99745.57
99773.872
99784.861
99816.947
99833.9
99848.627
99905.551
99856.003
100823.79
100818.19
100813.95
100808.99
100799.81
100795.97
100784.66
100779.34
100767.09
100759.43
100746.11
100735.53
100721.09
100707.67
100692.04
100675.86
100658.09
100639.17
100618.92
100597.32
100574.37
100550.04
100524.31
100497.19
100468.67
100438.78
100407.56
100375.03
100341.28
100306.36
100270.37
100233.43
100195.64
100157.16
100118.13
100078.72
100039.11
99999.499
99960.078
99921.056
99882.647
99845.068
99808.539
99773.277
99739.499
99707.414
99677.222
99649.112
99623.255
99599.809
99578.909
99560.673
99545.192
99532.532
99522.731
99515.797
99511.716
99510.441
99511.909
99516.034
99522.714
99531.835
99543.267
99556.873
99572.474
99589.915
99608.81
99629.223
99649.898
99672.525
99692.544
99718.002
99734.042
99764.455
99776.654
99810.656
99828.053
99845.847
99901.547
99855.234
100177.75
100178.45
100179.58
100183.18
100181.28
100186.28
100182.37
100186.21
100181.67
100183.31
100178.61
100178.14
100173.06
100169.04
100162.55
100156.07
100148.23
100139.57
100129.83
100119.02
100107.09
100094.01
100079.75
100064.28
100047.61
100029.72
100010.63
99990.357
99968.941
99946.431
99922.892
99898.403
99873.06
99846.977
99820.279
99793.11
99765.624
99737.989
99710.385
99682.999
99656.029
99629.676
99604.146
99579.647
99556.384
99534.556
99514.356
99495.962
99479.54
99465.238
99453.189
99443.501
99436.26
99431.525
99429.329
99429.676
99432.548
99437.898
99445.661
99455.75
99468.064
99482.484
99498.881
99517.114
99537.005
99558.398
99580.941
99604.669
99628.456
99653.83
99676.556
99704.219
99722.639
99755.011
99768.569
99804.616
99822.483
99843.126
99898.5
99854.469
99601.106
99606.715
99610.897
99619.536
99621.159
99631.803
99631.944
99641.813