/*--------------------------------*- C++ -*----------------------------------*\
  =========                 |
  \\      /  F ield         | OpenFOAM: The Open Source CFD Toolbox
   \\    /   O peration     | Website:  https://openfoam.org
    \\  /    A nd           | Version:  12
     \\/     M anipulation  |
\*---------------------------------------------------------------------------*/
FoamFile
{
    format      ascii;
    class       volScalarField;
    location    "0.127";
    object      alphat;
}
// * * * * * * * * * * * * * * * * * * * * * * * * * * * * * * * * * * * * * //

dimensions      [1 -1 -1 0 0 0 0];

internalField   nonuniform List<scalar> 
16000
(
4.919762e-07
1.0782458e-05
2.1404321e-05
2.5642736e-05
1.9826956e-05
2.7311915e-05
1.9265813e-05
2.6423307e-05
2.0596734e-05
2.8395911e-05
2.3908509e-05
2.8112413e-05
2.5648399e-05
2.6357092e-05
2.5488239e-05
2.5367396e-05
2.5126156e-05
2.5079044e-05
2.5117511e-05
2.5264146e-05
2.5510824e-05
2.5857299e-05
2.6301237e-05
2.6843016e-05
2.7485368e-05
2.823521e-05
2.9101735e-05
3.0099455e-05
3.1246023e-05
3.2560492e-05
3.406382e-05
3.5783762e-05
3.7756098e-05
4.0024926e-05
4.2644526e-05
4.5679733e-05
4.9207879e-05
5.3321304e-05
5.8134363e-05
6.3788821e-05
7.0451331e-05
7.8318464e-05
8.7638066e-05
9.8713943e-05
0.00011190814
0.0001276554
0.00014649516
0.00016908544
0.00019622833
0.00022890239
0.00026830694
0.00031591575
0.00037353537
0.00044338663
0.00052820205
0.0006313603
0.00075705784
0.00091053391
0.0010983601
0.0011796469
0.0011804155
0.0011811111
0.001181696
0.0011821415
0.0011824416
0.0011825832
0.0011825454
0.0011822917
0.0011817609
0.0011808608
0.0011795022
0.0011777071
0.0011758101
0.0011743657
0.0011732548
0.0011724911
0.0011721015
0.0011723024
0.0011711733
0.0011709694
4.4716925e-07
1.021867e-05
2.1310017e-05
2.3293659e-05
1.7875097e-05
2.4460788e-05
1.7091087e-05
2.3122631e-05
1.8193412e-05
2.5072058e-05
2.164009e-05
2.533424e-05
2.344422e-05
2.3870027e-05
2.3196191e-05
2.3018463e-05
2.2820777e-05
2.2767747e-05
2.2806503e-05
2.2941591e-05
2.3170301e-05
2.3491973e-05
2.3904944e-05
2.4409662e-05
2.5008311e-05
2.5707376e-05
2.6514861e-05
2.744387e-05
2.8511108e-05
2.9735141e-05
3.1135494e-05
3.2737563e-05
3.457449e-05
3.6687145e-05
3.912635e-05
4.195311e-05
4.5240667e-05
4.9075859e-05
5.3565311e-05
5.8843331e-05
6.5070135e-05
7.2430967e-05
8.1159453e-05
9.154549e-05
0.00010393706
0.00011874781
0.00013649278
0.00015780246
0.00018344716
0.00021436748
0.00025171662
0.00029691559
0.00035170874
0.00041824467
0.00049916961
0.00059775838
0.00071808224
0.00086521935
0.0010455288
0.0011790973
0.001179858
0.0011805121
0.0011810636
0.0011814769
0.001181745
0.0011818539
0.0011817831
0.0011814969
0.0011809407
0.0011800354
0.0011786994
0.0011769627
0.0011751707
0.0011738016
0.0011727487
0.0011720015
0.0011716497
0.0011717213
0.0011712083
0.0011712956
3.9431458e-07
9.7780834e-06
2.014301e-05
2.1266239e-05
1.5990024e-05
2.1527737e-05
1.5204505e-05
2.0089243e-05
1.6344533e-05
2.1988965e-05
1.9716272e-05
2.2547573e-05
2.122497e-05
2.13667e-05
2.085312e-05
2.0651689e-05
2.0488519e-05
2.0440686e-05
2.0482037e-05
2.0610459e-05
2.0824675e-05
2.112438e-05
2.1508254e-05
2.1977016e-05
2.2532429e-05
2.3180739e-05
2.3929126e-05
2.4789481e-05
2.5777384e-05
2.6910922e-05
2.8208642e-05
2.9694068e-05
3.1398155e-05
3.3358987e-05
3.5624312e-05
3.825161e-05
4.1310491e-05
4.4883467e-05
4.9070658e-05
5.3998913e-05
5.9823158e-05
6.6719891e-05
7.491052e-05
8.467192e-05
9.6340815e-05
0.00011031368
0.00012708496
0.00014726191
0.00017158823
0.00020097346
0.00023653245
0.00027964238
0.00033199557
0.00039568053
0.0004732718
0.00056795734
0.00068370338
0.00082546049
0.00099941873
0.0011787286
0.0011794705
0.0011800653
0.0011805637
0.0011809267
0.0011811454
0.001181205
0.001181084
0.0011807478
0.0011801471
0.0011792185
0.0011778916
0.0011761972
0.0011745216
0.001173238
0.0011722499
0.0011715449
0.0011711958
0.0011711869
0.0011710749
0.0011713951
3.6064209e-07
9.4462341e-06
1.9095889e-05
1.9755349e-05
1.4361975e-05
1.8994319e-05
1.3538172e-05
1.7544066e-05
1.4700922e-05
1.9369189e-05
1.7986174e-05
2.0080965e-05
1.9180237e-05
1.9114982e-05
1.8721215e-05
1.8518626e-05
1.8385927e-05
1.8348946e-05
1.8396014e-05
1.852177e-05
1.8725557e-05
1.9007504e-05
1.9366662e-05
1.9804164e-05
2.0321493e-05
2.0924822e-05
2.1620784e-05
2.2420318e-05
2.3337947e-05
2.4391367e-05
2.5598489e-05
2.6981252e-05
2.8568844e-05
3.0396963e-05
3.2510769e-05
3.4964715e-05
3.782529e-05
4.117163e-05
4.5098697e-05
4.9726428e-05
5.520571e-05
6.1706435e-05
6.9440232e-05
7.8672442e-05
8.9731698e-05
0.00010300129
0.0001189594
0.00013819531
0.00016143226
0.00018955711
0.00022365569
0.00026507318
0.00031546386
0.00037687332
0.00045182576
0.00054344834
0.00065563344
0.00079324483
0.00096236792
0.0011705959
0.0011792817
0.001179801
0.001180229
0.0011805257
0.0011806802
0.0011806764
0.0011804921
0.0011800942
0.001179439
0.0011784802
0.0011771611
0.0011754958
0.0011739288
0.0011727249
0.0011717986
0.0011711332
0.0011707691
0.001170692
0.0011708006
0.0011710677
3.2608616e-07
9.1992793e-06
1.8183994e-05
1.9730945e-05
1.4340824e-05
1.6787075e-05
1.2078481e-05
1.53634e-05
1.3290949e-05
1.7114252e-05
1.6452071e-05
1.7864837e-05
1.7278457e-05
1.7073208e-05
1.676772e-05
1.6579061e-05
1.6471372e-05
1.6445845e-05
1.6497331e-05
1.6619804e-05
1.6812832e-05
1.707716e-05
1.7412248e-05
1.7819764e-05
1.8301063e-05
1.8862326e-05
1.9509803e-05
2.0253674e-05
2.1107424e-05
2.208832e-05
2.321385e-05
2.4504644e-05
2.598843e-05
2.7698853e-05
2.9678857e-05
3.198027e-05
3.4666808e-05
3.7814887e-05
4.1515617e-05
4.5882383e-05
5.1062706e-05
5.7221559e-05
6.4562969e-05
7.3341495e-05
8.3879701e-05
9.6550665e-05
0.00011181926
0.00013026009
0.00015257959
0.00017964716
0.000212525
0.00025253306
0.00030129496
0.00036082229
0.00043359967
0.00052270635
0.00063197624
0.00076620339
0.00093139179
0.0011350323
0.0011792738
0.0011797026
0.0011800438
0.0011802586
0.0011803347
0.001180254
0.0011799938
0.0011795233
0.0011788053
0.0011778084
0.0011764934
0.0011748556
0.0011733922
0.0011722644
0.0011713985
0.0011707704
0.0011703919
0.0011702844
0.0011704951
0.0011705117
2.8837232e-07
9.0468095e-06
1.7465354e-05
1.9453323e-05
1.407244e-05
1.4861495e-05
1.1429103e-05
1.3565962e-05
1.2350379e-05
1.5221094e-05
1.5113378e-05
1.592452e-05
1.5547361e-05
1.5259476e-05
1.5009497e-05
1.483703e-05
1.4745321e-05
1.4726765e-05
1.4778794e-05
1.4895675e-05
1.5076951e-05
1.532389e-05
1.563617e-05
1.60159e-05
1.6464416e-05
1.6987868e-05
1.7592193e-05
1.8286984e-05
1.908472e-05
2.0002208e-05
2.1056716e-05
2.2267815e-05
2.3662091e-05
2.527149e-05
2.7137152e-05
2.9308746e-05
3.1847662e-05
3.4828176e-05
3.833896e-05
4.2487774e-05
4.741911e-05
5.3294781e-05
6.0313972e-05
6.8721529e-05
7.8836146e-05
9.102419e-05
0.00010574068
0.00012354984
0.00014514561
0.00017138649
0.00020331793
0.00024224324
0.00028976546
0.00034787389
0.00041902843
0.00050627809
0.00061341941
0.00074520107
0.0009075756
0.0011079733
0.0011794352
0.0011797602
0.0011799997
0.0011801188
0.0011801035
0.0011799342
0.0011795876
0.0011790359
0.0011782496
0.0011772091
0.0011758941
0.0011742859
0.0011729205
0.001171865
0.0011710564
0.0011704622
0.0011700719
0.0011699206
0.0011701132
0.0011701237
2.6505058e-07
8.9611666e-06
1.6902771e-05
1.8389979e-05
1.3948865e-05
1.3125541e-05
1.1461065e-05
1.2496212e-05
1.1863906e-05
1.3581188e-05
1.3915463e-05
1.4215063e-05
1.3946623e-05
1.3622221e-05
1.3403387e-05
1.3247204e-05
1.3167136e-05
1.3154279e-05
1.3206538e-05
1.331879e-05
1.3490237e-05
1.372261e-05
1.4015496e-05
1.4287101e-05
1.46972e-05
1.51792e-05
1.5738233e-05
1.6383097e-05
1.7125065e-05
1.7980122e-05
1.8965276e-05
2.0099078e-05
2.1407061e-05
2.2919551e-05
2.4676018e-05
2.6724158e-05
2.912318e-05
3.1945265e-05
3.5277517e-05
3.9519078e-05
4.4249317e-05
4.9897737e-05
5.6661498e-05
6.4777144e-05
7.4560781e-05
8.637548e-05
0.00010066979
0.00011800146
0.00013905564
0.00016468605
0.00019592747
0.00023407445
0.00028071844
0.00033783695
0.0004078781
0.00049387645
0.00059960975
0.00072980258
0.00089038144
0.0010887506
0.0011797497
0.0011799588
0.0011800837
0.0011800948
0.0011799769
0.0011797093
0.001179268
0.0011786292
0.0011777713
0.0011766821
0.0011753612
0.0011737945
0.0011725214
0.0011715338
0.0011707784
0.001170215
0.0011698149
0.0011696171
0.0011697591
0.0011695939
2.4445121e-07
8.9100675e-06
1.6424172e-05
1.6722112e-05
1.2765087e-05
1.1435631e-05
9.9011396e-06
1.1148792e-05
1.0421328e-05
1.2207988e-05
1.2712053e-05
1.2647893e-05
1.2422099e-05
1.2105626e-05
1.1912233e-05
1.1777225e-05
1.1711457e-05
1.170747e-05
1.1692015e-05
1.1785537e-05
1.1938254e-05
1.2150917e-05
1.2421174e-05
1.2749852e-05
1.3141788e-05
1.3600721e-05
1.4132066e-05
1.4744541e-05
1.5448814e-05
1.6260391e-05
1.7196503e-05
1.8275156e-05
1.952139e-05
2.0964513e-05
2.264303e-05
2.4603403e-05
2.6903546e-05
2.9614371e-05
3.282246e-05
3.663332e-05
4.1175662e-05
4.6612471e-05
5.3140999e-05
6.1505485e-05
7.105191e-05
8.2604267e-05
9.6608418e-05
0.00011361943
0.00013431753
0.00015955815
0.00019037186
0.00022805269
0.00027419031
0.0003307616
0.00040021679
0.00048559293
0.00059066912
0.00072016928
0.00088002033
0.0010776359
0.0011801975
0.0011802806
0.0011802806
0.0011801738
0.0011799441
0.0011795707
0.0011790296
0.0011783003
0.001177369
0.001176227
0.0011748904
0.0011733861
0.0011722
0.0011712761
0.0011705691
0.0011700337
0.0011696224
0.0011693573
0.0011693942
0.0011690289
2.2065165e-07
8.8643322e-06
1.5930522e-05
1.4636748e-05
1.0494737e-05
1.0162771e-05
8.1624387e-06
9.5059434e-06
9.6979511e-06
1.0983262e-05
1.149374e-05
1.1193311e-05
1.0987394e-05
1.0704561e-05
1.0536977e-05
1.0352861e-05
1.0276159e-05
1.0266458e-05
1.0315883e-05
1.0421591e-05
1.0579444e-05
1.0791315e-05
1.105656e-05
1.137538e-05
1.1752722e-05
1.2193298e-05
1.2702573e-05
1.3289303e-05
1.3963742e-05
1.4740906e-05
1.5638362e-05
1.6673836e-05
1.7872199e-05
1.9262067e-05
2.0881365e-05
2.2775834e-05
2.5002636e-05
2.7632023e-05
3.0749923e-05
3.4460977e-05
3.8894334e-05
4.4210727e-05
5.0610625e-05
5.8326872e-05
6.7657989e-05
7.8975563e-05
9.354562e-05
0.00011039212
0.00013091908
0.00015598988
0.00018663774
0.00022416451
0.00027016804
0.0003266361
0.00039603508
0.00048142195
0.00058659805
0.00071631092
0.00087651441
0.0010746647
0.0011807563
0.0011807056
0.0011805732
0.0011803412
0.0011799931
0.0011795088
0.0011788656
0.0011780449
0.0011770396
0.0011758435
0.0011744771
0.0011730639
0.0011719599
0.0011710952
0.0011704319
0.0011699217
0.0011694962
0.0011691499
0.0011690693
0.0011686096
2.034325e-07
8.8193766e-06
1.4357904e-05
1.2750683e-05
8.4887544e-06
9.0320425e-06
7.2568776e-06
8.5794262e-06
8.9831789e-06
9.8290542e-06
1.0289834e-05
9.8698702e-06
9.6703103e-06
9.3358163e-06
9.1574631e-06
9.0486887e-06
9.0066661e-06
9.0224301e-06
9.0898301e-06
9.2055127e-06
9.3705458e-06
9.5824332e-06
9.8439715e-06
1.0155485e-05
1.0522124e-05
1.0949031e-05
1.1441838e-05
1.2009482e-05
1.266196e-05
1.3413839e-05
1.4283087e-05
1.5287499e-05
1.645204e-05
1.7804943e-05
1.9383929e-05
2.1234477e-05
2.34135e-05
2.59912e-05
2.905391e-05
3.2706797e-05
3.7079179e-05
4.2331411e-05
4.866767e-05
5.6320994e-05
6.5592655e-05
7.6856748e-05
9.0574881e-05
0.00010728984
0.00012885825
0.00015398147
0.00018472901
0.00022241873
0.00026866738
0.00032548571
0.00039537116
0.00048141899
0.00058747491
0.00071833666
0.00088001345
0.001080036
0.0011814015
0.0011812117
0.0011809424
0.001180581
0.0011801108
0.0011795132
0.001178768
0.0011778573
0.0011767778
0.0011755308
0.0011741231
0.0011728281
0.0011718023
0.0011709928
0.0011703684
0.0011698812
0.0011694381
0.0011690025
0.0011688304
0.0011685075
1.8771815e-07
8.7729414e-06
1.1410296e-05
1.0589936e-05
6.9732921e-06
8.04394e-06
6.6174894e-06
7.7120963e-06
8.4101084e-06
8.7844e-06
9.1100314e-06
8.5751978e-06
8.3242174e-06
8.0942678e-06
7.964792e-06
7.89624e-06
7.8838529e-06
7.921419e-06
8.0045588e-06
8.1319628e-06
8.3011346e-06
8.5149092e-06
8.7751252e-06
9.0826006e-06
9.4425942e-06
9.8607298e-06
1.0342936e-05
1.0898396e-05
1.1537075e-05
1.2273173e-05
1.3057855e-05
1.4032238e-05
1.5164743e-05
1.6483196e-05
1.8025105e-05
1.9835726e-05
2.1971807e-05
2.4503559e-05
2.7517859e-05
3.1120721e-05
3.5442793e-05
4.0964904e-05
4.730333e-05
5.4973001e-05
6.4278122e-05
7.5596718e-05
8.9403377e-05
0.00010625353
0.00012684823
0.00015206252
0.00018464488
0.00022281962
0.00026969957
0.00032733112
0.00039825846
0.00048563474
0.00059337341
0.00072635118
0.00089066422
0.0010939486
0.0011821071
0.0011817755
0.001181368
0.0011808762
0.0011802834
0.0011795728
0.0011787274
0.0011777301
0.0011765763
0.0011752846
0.0011738689
0.0011726772
0.0011717263
0.0011709681
0.0011703786
0.0011699132
0.0011694557
0.0011689385
0.0011686831
0.0011684677
1.7382313e-07
8.7294355e-06
9.0078295e-06
9.0040145e-06
6.1312434e-06
7.1290702e-06
6.0809496e-06
6.957122e-06
7.8286829e-06
7.811129e-06
7.8303202e-06
7.375822e-06
7.1720365e-06
7.005245e-06
6.9173315e-06
6.8822878e-06
6.895298e-06
6.9523132e-06
7.0494583e-06
7.1868041e-06
7.3631647e-06
7.580603e-06
7.8421875e-06
8.1492406e-06
8.5071181e-06
8.8835351e-06
9.3533444e-06
9.8957684e-06
1.0520637e-05
1.1241684e-05
1.2075463e-05
1.3043496e-05
1.4170095e-05
1.5483221e-05
1.7020806e-05
1.8828658e-05
2.0964311e-05
2.3499011e-05
2.6521486e-05
3.0140116e-05
3.4488765e-05
3.9734774e-05
4.6083291e-05
5.37805e-05
6.3135799e-05
7.5182102e-05
8.9209089e-05
0.00010634969
0.00012731737
0.00015301389
0.00018454271
0.00022536952
0.00027327519
0.00033219397
0.00040473317
0.00049412496
0.00060437537
0.00074047128
0.0009086323
0.0011166304
0.0011828466
0.0011823733
0.0011818296
0.0011812093
0.0011804967
0.0011796759
0.0011787331
0.001177654
0.0011764282
0.0011750887
0.0011737081
0.0011726099
0.0011717289
0.0011710182
0.0011704604
0.0011700155
0.0011695505
0.0011689754
0.0011686591
0.0011685169
1.6151791e-07
8.678565e-06
7.1692912e-06
7.9093188e-06
5.4679108e-06
6.3136366e-06
5.622614e-06
6.290199e-06
7.1363136e-06
6.7054505e-06
6.6762752e-06
6.3278563e-06
6.1675488e-06
6.0517891e-06
5.9994928e-06
5.993404e-06
6.0290771e-06
6.1039965e-06
6.2152598e-06
6.3635658e-06
6.5483772e-06
6.7720849e-06
7.0084625e-06
7.3123764e-06
7.6668091e-06
8.07672e-06
8.5503579e-06
9.0965781e-06
9.725473e-06
1.0451038e-05
1.1290032e-05
1.2263774e-05
1.3398052e-05
1.4721295e-05
1.6272152e-05
1.8097401e-05
2.0255982e-05
2.2820754e-05
2.5883114e-05
2.955498e-05
3.3973674e-05
3.9310392e-05
4.5780844e-05
5.363749e-05
6.3199437e-05
7.4863871e-05
8.9124612e-05
0.00010657927
0.0001290918
0.00015549551
0.00018791172
0.00022775046
0.00027939421
0.00034008473
0.00041481918
0.00050693165
0.00062054755
0.00076079635
0.00093406442
0.0011482946
0.001183594
0.0011829819
0.0011823066
0.0011815626
0.0011807356
0.00117981
0.0011787735
0.001177617
0.001176328
0.0011749346
0.001173639
0.0011726224
0.0011718058
0.0011711393
0.0011706106
0.0011701822
0.0011697143
0.0011691216
0.0011688114
0.0011687185
1.5059675e-07
8.6166528e-06
5.7548132e-06
6.9173201e-06
4.8796269e-06
5.5899943e-06
5.2344636e-06
5.6116281e-06
6.2626202e-06
5.7462438e-06
5.6641861e-06
5.4116185e-06
5.2923282e-06
5.219223e-06
5.1986173e-06
5.2187307e-06
5.2757206e-06
5.3682147e-06
5.4941259e-06
5.6335141e-06
5.8222511e-06
6.0498523e-06
6.3190814e-06
6.6334963e-06
6.9981535e-06
7.4184492e-06
7.9025641e-06
8.4600879e-06
9.1013886e-06
9.8406807e-06
1.0694904e-05
1.1685687e-05
1.2781314e-05
1.4115762e-05
1.5680869e-05
1.752435e-05
1.9706785e-05
2.2302713e-05
2.5406246e-05
2.9133438e-05
3.3626232e-05
3.9357687e-05
4.6011062e-05
5.4101015e-05
6.3957653e-05
7.5989551e-05
9.0714047e-05
0.00010875497
0.00013087711
0.0001594815
0.00019305841
0.0002343412
0.00028513015
0.0003509919
0.00042851554
0.00052406755
0.00064192293
0.00078738601
0.00096705874
0.0011850501
0.0011843247
0.0011835794
0.0011827796
0.0011819189
0.0011809848
0.0011799619
0.0011788371
0.0011776058
0.0011762688
0.0011748424
0.001173655
0.0011727105
0.0011719515
0.0011713272
0.0011708264
0.0011704089
0.0011699353
0.00116936
0.0011691235
0.0011690736
1.4093355e-07
8.49949e-06
4.67613e-06
6.0360842e-06
4.3553078e-06
4.9472639e-06
4.8975238e-06
4.8728903e-06
5.3799573e-06
4.8908749e-06
4.7871723e-06
4.6136877e-06
4.5336049e-06
4.4975142e-06
4.5059027e-06
4.5504686e-06
4.628112e-06
4.7195054e-06
4.8546975e-06
5.0244726e-06
5.2299979e-06
5.4731876e-06
5.7575765e-06
6.086951e-06
6.4670181e-06
6.9034795e-06
7.4046089e-06
7.9564942e-06
8.6111945e-06
9.3649736e-06
1.0234855e-05
1.1242535e-05
1.2414548e-05
1.3784245e-05
1.5391437e-05
1.7285458e-05
1.952969e-05
2.220154e-05
2.5398931e-05
2.9243865e-05
3.3884864e-05
3.9509146e-05
4.6343251e-05
5.4666385e-05
6.4822762e-05
7.7884816e-05
9.3198916e-05
0.00011197496
0.00013501484
0.00016330866
0.00019993889
0.00024299248
0.00029597632
0.00036120579
0.00044577713
0.00054549295
0.00066847188
0.00082022563
0.0010076195
0.0011858557
0.0011850157
0.0011841462
0.0011832309
0.0011822621
0.0011812289
0.0011801173
0.0011789131
0.0011776105
0.0011762339
0.0011748518
0.0011737503
0.0011728686
0.0011721599
0.0011715781
0.0011711053
0.0011706953
0.0011702064
0.0011696584
0.0011695104
0.0011694981
1.324389e-07
8.1783102e-06
3.9299183e-06
5.2549407e-06
3.8899433e-06
4.3791703e-06
4.3614334e-06
4.2050998e-06
4.5280981e-06
4.1345917e-06
4.0357947e-06
3.9255084e-06
3.8824278e-06
3.8792219e-06
3.9143913e-06
3.967472e-06
4.0582919e-06
4.1823707e-06
4.3390246e-06
4.5287211e-06
4.7533185e-06
5.0153058e-06
5.3186933e-06
5.6675905e-06
6.0543539e-06
6.508026e-06
7.0270841e-06
7.6211169e-06
8.3021753e-06
9.0846183e-06
9.9859395e-06
1.1028749e-05
1.2240715e-05
1.3656511e-05
1.5318747e-05
1.7278636e-05
1.960303e-05
2.237307e-05
2.5690806e-05
2.9685606e-05
3.4512046e-05
4.0366891e-05
4.7491532e-05
5.6177774e-05
6.6789311e-05
7.9772611e-05
9.65273e-05
0.00011618661
0.00014031862
0.00016997299
0.00020641551
0.00025362358
0.0003091881
0.0003776092
0.00046188236
0.0005710851
0.00070006474
0.00085918253
0.0010556043
0.0011865979
0.0011856477
0.0011846657
0.0011836451
0.0011825779
0.0011814541
0.0011802619
0.0011789898
0.0011776298
0.0011762062
0.0011749427
0.0011739185
0.0011730905
0.0011724235
0.0011718876
0.0011714466
0.0011710423
0.0011705302
0.0011700161
0.0011699873
0.0011700993
1.2519196e-07
7.7589135e-06
3.464483e-06
4.5631363e-06
3.4772732e-06
3.7139267e-06
3.8889226e-06
3.593349e-06
3.7568088e-06
3.477621e-06
3.4002531e-06
3.3400749e-06
3.3308884e-06
3.3573485e-06
3.4003633e-06
3.4853313e-06
3.602307e-06
3.7501503e-06
3.929164e-06
4.1406138e-06
4.3869593e-06
4.6709945e-06
4.9875246e-06
5.3568299e-06
5.7780582e-06
6.2579465e-06
6.8045911e-06
7.4279289e-06
8.1402693e-06
8.9568981e-06
9.8958879e-06
1.0980846e-05
1.2240737e-05
1.3712021e-05
1.5373672e-05
1.7395795e-05
1.9796085e-05
2.2660021e-05
2.6251416e-05
3.0425701e-05
3.5474251e-05
4.1603327e-05
4.9070511e-05
5.8183373e-05
6.932422e-05
8.2966489e-05
9.9691228e-05
0.00012021183
0.00014670435
0.00017791968
0.00021629286
0.00026349024
0.00032461421
0.00039667595
0.00048543446
0.00060060287
0.00073642639
0.00090395131
0.0011106756
0.001187259
0.0011862078
0.0011851251
0.00118401
0.0011828543
0.0011816494
0.0011803845
0.0011790523
0.0011776617
0.0011762555
0.0011750986
0.0011741491
0.0011733697
0.0011727333
0.001172244
0.0011718377
0.0011714451
0.0011709066
0.0011704471
0.0011705347
0.0011707335
1.1948895e-07
6.7674024e-06
3.0684938e-06
3.9357317e-06
3.1219282e-06
3.0997311e-06
3.4182063e-06
3.0393088e-06
3.094181e-06
2.9164754e-06
2.8683699e-06
2.8490797e-06
2.86228e-06
2.9078694e-06
2.9893239e-06
3.1022858e-06
3.2448099e-06
3.4168616e-06
3.6195632e-06
3.8546555e-06
4.1189899e-06
4.4255242e-06
4.7744474e-06
5.1705687e-06
5.619629e-06
6.1285898e-06
6.7059186e-06
7.3619444e-06
8.109375e-06
8.9443897e-06
9.919234e-06
1.1043749e-05
1.2348124e-05
1.3870185e-05
1.5657237e-05
1.7768416e-05
2.0276828e-05
2.327398e-05
2.6873402e-05
3.1215351e-05
3.6473974e-05
4.3172655e-05
5.1028579e-05
6.0625488e-05
7.2365558e-05
8.6748819e-05
0.00010439039
0.00012604762
0.00015405323
0.00018701122
0.00022753745
0.00027738706
0.00034202195
0.00041813133
0.00051188094
0.00062740233
0.00077708999
0.00095399017
0.0011722101
0.0011878312
0.001186687
0.0011855159
0.0011843169
0.0011830827
0.0011818061
0.0011804795
0.0011790951
0.0011776723
0.0011763731
0.0011753072
0.0011744276
0.0011736971
0.0011730925
0.0011726415
0.0011722636
0.0011718935
0.0011713508
0.0011709437
0.0011711089
0.0011713532
1.149245e-07
4.7386126e-06
2.7116442e-06
3.3539869e-06
2.6703602e-06
2.5855043e-06
2.9218192e-06
2.5458735e-06
2.5425394e-06
2.444037e-06
2.4289132e-06
2.4371785e-06
2.4813419e-06
2.5610936e-06
2.6720757e-06
2.8118014e-06
2.9796428e-06
3.1762974e-06
3.4002231e-06
3.6585863e-06
3.9526207e-06
4.2857079e-06
4.6619547e-06
5.0863521e-06
5.5649187e-06
6.1049094e-06
6.7151344e-06
7.3951443e-06
8.1762177e-06
9.0670103e-06
1.0087946e-05
1.1264395e-05
1.2628332e-05
1.421991e-05
1.6089459e-05
1.8299694e-05
2.0928547e-05
2.4072963e-05
2.7853533e-05
3.2419863e-05
3.7957306e-05
4.4694368e-05
5.3307457e-05
6.3436148e-05
7.5834262e-05
9.103044e-05
0.00010967546
0.00013257195
0.00016070949
0.00019706004
0.0002399265
0.00029266059
0.00035756362
0.00044158108
0.00054074404
0.00066292811
0.00082135419
0.0010084609
0.0011895387
0.0011883097
0.0011870823
0.0011858341
0.0011845618
0.001183259
0.001181919
0.0011805394
0.0011791273
0.0011777153
0.0011765379
0.0011755544
0.0011747385
0.0011740602
0.0011734983
0.0011730515
0.0011727118
0.0011723581
0.0011718334
0.0011714969
0.0011717167
0.0011719615
1.1009618e-07
3.9360788e-06
2.3376061e-06
2.8181698e-06
2.3028816e-06
2.1563614e-06
2.4074379e-06
2.1125938e-06
2.0940827e-06
2.0562362e-06
2.0699407e-06
2.1127113e-06
2.1928132e-06
2.3032672e-06
2.4414969e-06
2.606593e-06
2.7989106e-06
3.0174728e-06
3.2679694e-06
3.5517253e-06
3.8717344e-06
4.2316223e-06
4.6357259e-06
5.0892267e-06
5.598352e-06
6.1706244e-06
6.8075693e-06
7.5323223e-06
8.3535457e-06
9.2883666e-06
1.0358333e-05
1.1590346e-05
1.3018237e-05
1.468453e-05
1.6642739e-05
1.8959843e-05
2.171897e-05
2.502311e-05
2.9000315e-05
3.3808808e-05
3.9644943e-05
4.7089995e-05
5.5838137e-05
6.6534429e-05
7.9634533e-05
9.5697093e-05
0.00011541017
0.00013962203
0.00017094794
0.00020782272
0.00025316488
0.00030894955
0.00037760932
0.00046649295
0.00057138524
0.00070062475
0.00086824481
0.001066171
0.0011899853
0.0011886933
0.0011873951
0.0011860806
0.0011847447
0.0011833834
0.0011819909
0.0011805628
0.0011791238
0.0011778182
0.0011767358
0.0011758289
0.001175068
0.0011744327
0.0011739245
0.0011735053
0.0011731738
0.0011728278
0.0011723591
0.0011720814
0.0011723428
0.0011725458
1.0684283e-07
3.170344e-06
2.0154997e-06
2.2770194e-06
2.0014226e-06
1.7891544e-06
1.9289468e-06
1.7449863e-06
1.7419081e-06
1.7527714e-06
1.7964642e-06
1.8770986e-06
1.9880549e-06
2.12539e-06
2.2881038e-06
2.4764861e-06
2.6904574e-06
2.9337476e-06
3.2082045e-06
3.5165674e-06
3.8621132e-06
4.2486763e-06
4.6807534e-06
5.1636712e-06
5.7038229e-06
6.3046225e-06
6.9820249e-06
7.7448474e-06
8.6074105e-06
9.5876899e-06
1.0708507e-05
1.1998374e-05
1.3493177e-05
1.5237959e-05
1.7289348e-05
1.9718535e-05
2.261447e-05
2.6086294e-05
3.0270249e-05
3.5333978e-05
4.1758329e-05
4.9313768e-05
5.8538538e-05
6.9824437e-05
8.3651614e-05
0.00010061125
0.00012143013
0.00014700458
0.00018004708
0.00021898932
0.0002668804
0.00032580378
0.00039833159
0.00049216799
0.00060295891
0.00073946863
0.00091649209
0.0011255685
0.0011903367
0.001188988
0.0011876305
0.0011862608
0.0011848707
0.001183458
0.0011820238
0.0011805739
0.0011791419
0.0011779547
0.0011769565
0.0011761193
0.0011754116
0.0011748132
0.0011743525
0.001173956
0.0011736443
0.0011733022
0.0011728833
0.0011726729
0.0011729564
0.0011730921
1.0546997e-07
2.4991389e-06
1.7370272e-06
1.7575282e-06
1.7236601e-06
1.4750028e-06
1.5381286e-06
1.4519958e-06
1.4796228e-06
1.5254867e-06
1.6077869e-06
1.7188675e-06
1.8552523e-06
2.0153862e-06
2.1995698e-06
2.4089865e-06
2.6446037e-06
2.9099812e-06
3.2072521e-06
3.5394168e-06
3.909922e-06
4.3227425e-06
4.7824975e-06
5.2946323e-06
5.8656691e-06
6.5035487e-06
7.2180725e-06
8.0214344e-06
8.9185708e-06
9.9447933e-06
1.1117121e-05
1.246578e-05
1.4028851e-05
1.5854124e-05
1.8001395e-05
2.0629261e-05
2.368777e-05
2.7357961e-05
3.1784975e-05
3.7147754e-05
4.366656e-05
5.1612107e-05
6.131866e-05
7.319745e-05
8.7754677e-05
0.00010561387
0.00012754168
0.00015583189
0.00018918877
0.00023019313
0.00028062343
0.00034267349
0.0004230187
0.00051775498
0.0006344278
0.00077819984
0.00096452847
0.0011847424
0.0011906066
0.0011892053
0.0011877971
0.0011863819
0.0011849501
0.0011834952
0.0011820184
0.0011805489
0.0011792193
0.0011781157
0.0011771904
0.0011764126
0.0011757544
0.0011751972
0.0011747642
0.0011743966
0.0011741023
0.0011737711
0.0011734028
0.0011732524
0.0011735281
0.0011736071
1.0703665e-07
1.9244395e-06
1.5048895e-06
1.3594598e-06
1.44044e-06
1.2115704e-06
1.2520197e-06
1.2373085e-06
1.2975919e-06
1.3778273e-06
1.4886589e-06
1.6231901e-06
1.7801133e-06
1.9595561e-06
2.162742e-06
2.3914237e-06
2.6473712e-06
2.9336433e-06
3.2527868e-06
3.6079345e-06
4.0026348e-06
4.4409551e-06
4.9276165e-06
5.4681847e-06
6.0693354e-06
6.7392111e-06
7.4878989e-06
8.3280257e-06
9.2754987e-06
1.0350441e-05
1.1578291e-05
1.2991264e-05
1.462994e-05
1.6545325e-05
1.8801237e-05
2.1477239e-05
2.4672269e-05
2.8509338e-05
3.3140553e-05
3.8754066e-05
4.5582089e-05
5.3910042e-05
6.4086696e-05
7.6543794e-05
9.1811225e-05
0.000111457
0.00013462705
0.00016308101
0.00019804505
0.00024103152
0.00029390344
0.00036232876
0.00044299231
0.00054229672
0.00066461811
0.00082329674
0.0010105502
0.0011922826
0.001190811
0.001189362
0.0011879092
0.0011864532
0.0011849883
0.0011835096
0.0011820177
0.0011805513
0.0011793295
0.0011782974
0.0011774319
0.0011767022
0.0011760852
0.0011755754
0.0011751456
0.0011748164
0.0011745279
0.0011742124
0.0011738999
0.0011738117
0.0011740722
0.0011740997
1.1270195e-07
1.4526839e-06
1.3164237e-06
1.0688472e-06
1.285456e-06
9.9286758e-07
1.0577927e-06
1.0951964e-06
1.1823455e-06
1.2901978e-06
1.422026e-06
1.5747556e-06
1.7487725e-06
1.9452116e-06
2.1657896e-06
2.4125223e-06
2.6877042e-06
2.9937125e-06
3.3336664e-06
3.7106668e-06
4.1283369e-06
4.5908296e-06
5.1029698e-06
5.6704549e-06
6.3001301e-06
7.0003602e-06
7.7815302e-06
8.6567274e-06
9.6424906e-06
1.0759834e-05
1.203535e-05
1.3502797e-05
1.5204736e-05
1.719469e-05
1.9539632e-05
2.2323081e-05
2.5648776e-05
2.9645218e-05
3.44712e-05
4.0322631e-05
4.7765064e-05
5.6518369e-05
6.7213263e-05
8.0302082e-05
9.6340219e-05
0.00011601103
0.00014015595
0.00016981123
0.00020624977
0.00025339405
0.00030890499
0.00037718517
0.00046121553
0.00056468418
0.0006989101
0.00085720102
0.0010523853
0.0011924605
0.0011909608
0.0011894766
0.0011879886
0.001186496
0.0011849961
0.0011834903
0.0011819959
0.0011806078
0.0011794605
0.0011784908
0.0011776749
0.0011769846
0.0011763961
0.0011759221
0.001175529
0.0011752063
0.0011749202
0.0011746147
0.0011743509
0.0011743189
0.0011745635
0.0011745364
1.2310843e-07
1.1472773e-06
1.1541786e-06
9.2814303e-07
9.402026e-07
8.6815785e-07
9.3007744e-07
1.0095637e-06
1.1174913e-06
1.2448917e-06
1.3925872e-06
1.5603608e-06
1.7494322e-06
1.9613331e-06
2.1979303e-06
2.461309e-06
2.7538e-06
3.0780007e-06
3.4368215e-06
3.8335395e-06
4.2718777e-06
4.7561122e-06
5.2912213e-06
5.8830999e-06
6.538854e-06
7.2645913e-06
8.0748662e-06
8.9815588e-06
1.0010819e-05
1.1170455e-05
1.2494437e-05
1.4018202e-05
1.5786387e-05
1.7855043e-05
2.0294242e-05
2.3191241e-05
2.6654319e-05
3.0817484e-05
3.5846191e-05
4.1944433e-05
4.9363437e-05
5.8412384e-05
6.9471404e-05
8.3005689e-05
9.9589541e-05
0.00011992855
0.00014618131
0.000177074
0.00021501854
0.00026165175
0.00031899214
0.00038953523
0.00047636552
0.00058884543
0.00072156987
0.00088517916
0.0010870084
0.0011925949
0.0011910709
0.0011895612
0.001188051
0.0011865362
0.0011850129
0.001183485
0.001181989
0.0011806971
0.0011796067
0.0011786876
0.0011779123
0.0011772565
0.0011766971
0.0011762483
0.001175878
0.0011755639
0.0011752846
0.0011749942
0.001174765
0.0011747558
0.0011749742
0.0011749216
1.4457564e-07
1.1868912e-06
9.9334771e-07
7.0785266e-07
7.6775944e-07
7.7570726e-07
8.5945784e-07
9.6175575e-07
1.0861165e-06
1.2283125e-06
1.3894931e-06
1.5705818e-06
1.773086e-06
1.9986512e-06
2.2491724e-06
2.5267616e-06
2.8337823e-06
3.17288e-06
3.5470259e-06
3.9595697e-06
4.4143131e-06
4.9156146e-06
5.4685378e-06
6.079066e-06
6.7544052e-06
7.5033992e-06
8.3370793e-06
9.2693667e-06
1.0317963e-05
1.1505408e-05
1.2860352e-05
1.4419148e-05
1.6227643e-05
1.834342e-05
2.0838437e-05
2.3802245e-05
2.7345901e-05
3.1606705e-05
3.6754015e-05
4.2996371e-05
5.0590389e-05
6.0280704e-05
7.168554e-05
8.5637469e-05
0.00010272696
0.00012367901
0.00014938654
0.00018094972
0.00021972494
0.00026738363
0.00032599423
0.00040178784
0.0004912129
0.00060133786
0.00073705451
0.00090444166
0.0011110504
0.0011927236
0.0011911721
0.001189636
0.0011881053
0.001186576
0.0011850443
0.0011835148
0.0011820312
0.001180808
0.0011797645
0.0011788843
0.0011781399
0.0011775113
0.0011769832
0.0011765465
0.0011761941
0.0011758884
0.0011756198
0.0011753602
0.0011751715
0.0011751631
0.0011753104
0.0011752449
1.3780405e-07
7.904856e-07
8.1418341e-07
6.0332539e-07
6.6071768e-07
7.2135324e-07
8.2364396e-07
9.427191e-07
1.0801586e-06
1.2349657e-06
1.4083902e-06
1.6016396e-06
1.8162506e-06
2.0539344e-06
2.3166258e-06
2.6064936e-06
2.9259688e-06
3.2777336e-06
3.6648979e-06
4.0908714e-06
4.5595412e-06
5.0753515e-06
5.6434541e-06
6.2699239e-06
6.962068e-06
7.7288483e-06
8.5814423e-06
9.5339677e-06
1.0613087e-05
1.1828217e-05
1.3214577e-05
1.4809445e-05
1.6659765e-05
1.8824444e-05
2.1377017e-05
2.4408941e-05
2.8033553e-05
3.2390921e-05
3.7653787e-05
4.4034835e-05
5.1795598e-05
6.1257295e-05
7.2814129e-05
8.6951845e-05
0.00010426692
0.00012549365
0.00015153642
0.00018512062
0.00022468641
0.00027330192
0.00033307606
0.00040661459
0.00049714592
0.0006086754
0.00074618072
0.00091585879
0.0011254183
0.0011928969
0.0011913177
0.0011897516
0.001188192
0.0011866363
0.0011850842
0.0011835511
0.0011821208
0.0011809372
0.001179929
0.0011790775
0.0011783572
0.0011777494
0.00117724
0.0011768185
0.0011764765
0.001176181
0.0011759238