/*--------------------------------*- C++ -*----------------------------------*\
  =========                 |
  \\      /  F ield         | OpenFOAM: The Open Source CFD Toolbox
   \\    /   O peration     | Website:  https://openfoam.org
    \\  /    A nd           | Version:  12
     \\/     M anipulation  |
\*---------------------------------------------------------------------------*/
FoamFile
{
    format      ascii;
    class       volScalarField;
    location    "0.127";
    object      omega;
}
// * * * * * * * * * * * * * * * * * * * * * * * * * * * * * * * * * * * * * //

dimensions      [0 0 -1 0 0 0 0];

internalField   nonuniform List<scalar> 
16000
(
1089.158
2185.3637
1067.5917
644.40714
454.62997
316.09729
239.86829
181.05473
145.85781
118.07821
100.33012
85.862618
75.153367
66.201127
58.899861
52.747568
47.554663
43.125847
39.320611
36.02695
33.160548
30.650484
28.438397
26.477713
24.730903
23.168788
21.767198
20.507468
19.373777
18.351691
17.428159
16.592882
15.837656
15.155541
14.540607
13.987347
13.490576
13.045404
12.647737
12.294123
11.980685
11.703344
11.459127
11.245333
11.058893
10.896689
10.756297
10.635422
10.531859
10.443517
10.368523
10.30524
10.252144
10.207894
10.171317
10.141514
10.117908
10.100321
10.089153
10.084984
10.085011
10.084226
10.082822
10.080897
10.078345
10.075109
10.071128
10.06634
10.060607
10.053582
10.044738
10.033888
10.022735
10.01486
10.009222
10.005606
10.003869
10.007811
10.009188
10.02506
1130.7577
2177.131
1061.6318
644.51287
454.74348
318.9987
240.91418
182.85706
146.6727
119.09854
100.86266
86.418966
75.507071
66.508333
59.1212
52.919179
47.679689
43.216329
39.384003
36.06886
33.185804
30.663598
28.442944
26.476568
24.725896
23.16138
21.758153
20.497197
19.362774
18.340693
17.417637
16.582953
15.828293
15.146604
14.531992
13.979017
13.482604
13.037801
12.640329
12.286856
11.973795
11.69685
11.452895
11.239346
11.053312
10.891522
10.751511
10.631002
10.527815
10.439857
10.36522
10.30228
10.249509
10.205568
10.169261
10.139647
10.116095
10.098309
10.08644
10.081079
10.080775
10.07997
10.0785
10.076519
10.073925
10.070654
10.066642
10.061831
10.056109
10.049175
10.040503
10.029944
10.019298
10.011794
10.006497
10.003059
10.001888
10.004162
10.009984
10.026608
1170.7776
2178.9624
1049.2971
640.88994
451.35303
319.2238
239.8018
183.03494
146.21657
119.24827
100.70294
86.425334
75.399868
66.406807
58.987048
52.77384
47.523823
43.055571
39.222281
35.908419
33.028525
30.511446
28.297334
26.338691
24.596153
23.040089
21.645173
20.392112
19.265195
18.250588
17.334908
16.507237
15.759155
15.083518
14.474475
13.926636
13.435062
12.994847
12.601533
12.251765
11.942335
11.668829
11.427943
11.217116
11.03371
10.874347
10.736515
10.617953
10.51652
10.430152
10.356919
10.295222
10.243542
10.200563
10.165091
10.136162
10.113124
10.095644
10.083721
10.077675
10.076903
10.076002
10.074414
10.072321
10.069627
10.066269
10.062178
10.057293
10.051521
10.044606
10.036032
10.025676
10.015669
10.00863
10.00373
10.000669
9.9997775
10.001396
10.008869
10.025459
1209.0081
2187.5777
1039.6093
637.45275
447.56459
319.26158
238.39445
183.05762
145.61976
119.2982
100.49193
86.370158
75.251735
66.258263
58.812755
52.590056
47.332748
42.862006
39.0302
35.719908
32.845191
30.335125
28.129258
26.180011
24.44715
22.901012
21.515834
20.272035
19.153839
18.147813
17.240595
16.420976
15.680477
15.011836
14.409254
13.867368
13.381368
12.946453
12.558015
12.21254
11.907265
11.63772
11.400411
11.192703
11.012282
10.855677
10.720318
10.603955
10.504481
10.419884
10.348203
10.287873
10.23738
10.19544
10.160867
10.13268
10.110197
10.093056
10.081185
10.074726
10.073392
10.072345
10.070608
10.068372
10.065549
10.062075
10.05788
10.052896
10.047044
10.040121
10.031638
10.021411
10.012061
10.005502
10.001031
9.9983613
9.9976137
9.9991265
10.007555
10.020867
1245.2734
2206.0529
1031.5126
633.73503
443.02998
318.55667
236.30628
182.59295
144.64604
119.06971
100.09299
86.138419
74.964848
65.977771
58.523771
52.302523
47.048853
42.584622
38.762346
35.46279
32.599487
30.10196
27.909199
25.973735
24.254538
22.721983
21.349943
20.118592
19.011994
18.01715
17.120844
16.311579
15.580846
14.92125
14.327048
13.792896
13.314092
12.885988
12.503914
12.164038
11.86407
11.599566
11.366883
11.163169
10.986501
10.833358
10.701094
10.587474
10.490413
10.407984
10.338191
10.279511
10.230442
10.189732
10.15622
10.128917
10.107116
10.09043
10.078756
10.072145
10.070239
10.06899
10.067068
10.064654
10.061668
10.058046
10.053717
10.048609
10.042643
10.03567
10.027271
10.017191
10.008523
10.002467
9.9984512
9.9961705
9.9955333
9.9970819
10.005541
10.016962
1279.4324
2231.9876
1027.6981
630.75422
439.03566
317.22397
233.74215
181.71991
143.40059
118.60138
99.550823
85.752488
74.558779
65.582657
58.134654
51.924498
46.683686
42.233679
38.427727
35.145043
32.298507
29.818301
27.642877
25.72491
24.02288
22.507143
21.151259
19.935221
18.842834
17.861526
16.978364
16.181549
15.462577
14.813897
14.229832
13.705047
13.234925
12.814985
12.440627
12.107581
11.813956
11.555431
11.328316
11.129378
10.95713
10.808052
10.679419
10.569009
10.474739
10.39481
10.327179
10.270381
10.222924
10.183595
10.151267
10.124956
10.103933
10.087786
10.076389
10.06973
10.067404
10.0659
10.063762
10.06114
10.057963
10.054167
10.049678
10.044424
10.038322
10.03126
10.022939
10.013053
10.005085
9.9995517
9.9960042
9.9941043
9.9935951
9.9952578
10.003363
10.013013
1311.444
2263.0026
1027.9412
627.93011
435.09079
315.25429
231.08884
180.47481
141.98509
117.89636
98.874503
85.211242
74.029812
65.070869
57.642256
51.453055
46.234222
41.80626
38.023302
34.76374
31.939477
29.481541
27.327971
25.430913
23.749747
22.254284
20.917777
19.720128
18.644792
17.679573
16.811973
16.029872
15.324822
14.689078
14.11704
13.603383
13.143552
12.733207
12.367967
12.043221
11.75703
11.505425
11.284839
11.091508
10.924342
10.779925
10.655446
10.548707
10.45759
10.380476
10.315265
10.260564
10.214894
10.177085
10.146053
10.120829
10.100671
10.08514
10.074092
10.067484
10.064847
10.063047
10.060666
10.05781
10.054417
10.050422
10.045753
10.040336
10.034082
10.026895
10.018635
10.009058
10.001797
9.9968029
9.9937226
9.9921993
9.99185
9.9935966
10.00112
10.009465
1341.4176
2296.5931
1029.6766
624.79234
431.22194
312.63708
228.43908
178.99756
140.46483
116.97567
98.080975
84.523259
73.379091
64.444496
57.046716
50.887677
45.699399
41.301209
37.547029
34.316748
31.520332
29.089675
26.962834
25.088197
23.431733
21.960228
20.646569
19.470658
18.415511
17.469202
16.619842
15.85496
15.166219
14.545644
13.987718
13.487121
13.039358
12.640185
12.28549
11.971261
11.693645
11.449876
11.236752
11.049972
10.888516
10.749308
10.62948
10.52684
10.439198
10.365175
10.302608
10.250188
10.206455
10.170279
10.140634
10.116573
10.09735
10.082499
10.071853
10.065366
10.062522
10.060394
10.057746
10.054634
10.051004
10.046793
10.041927
10.036332
10.029918
10.02258
10.014339
10.005245
9.9986926
9.9942484
9.9916263
9.9904772
9.9903466
9.9921609
9.9989322
10.006112
1369.4482
2330.5799
1028.2081
620.88074
426.43882
309.31843
224.90274
177.1254
138.6192
115.87031
97.165981
83.687698
72.599645
63.698883
56.343074
50.222695
45.073583
40.71347
36.990921
33.796043
31.033386
28.635354
26.540993
24.697584
23.070222
21.626794
20.339733
19.189085
18.157399
17.232879
16.404435
15.659248
14.989165
14.385927
13.844115
13.358413
12.924388
12.537888
12.194864
11.891286
11.623554
11.388619
11.183879
11.005124
10.849998
10.716493
10.601847
10.503699
10.419821
10.349124
10.289386
10.239396
10.197719
10.163265
10.135071
10.11223
10.093995
10.079875
10.069672
10.063349
10.060378
10.057902
10.054967
10.051584
10.047702
10.04326
10.038185
10.032399
10.025825
10.018334
10.010032
10.001653
9.9958044
9.9919153
9.9897365
9.9889541
9.9890972
9.9909657
9.9969643
10.003005
1395.6332
2363.3493
1019.5174
615.88645
419.94986
305.55596
220.53383
174.78046
136.71687
114.58327
96.119294
82.699356
71.683479
62.8261
55.523348
49.445304
44.342934
40.029769
36.353392
33.202539
30.481208
28.122236
26.065935
24.258173
22.664593
21.253504
19.99695
18.875257
17.8705
16.970813
16.166026
15.443119
14.794149
14.210509
13.686882
13.21796
12.799363
12.427033
12.097085
11.805549
11.548745
11.323488
11.127698
10.956868
10.808777
10.68144
10.572839
10.479542
10.399736
10.33255
10.275792
10.22834
10.188806
10.156133
10.12943
10.107839
10.090626
10.077276
10.067548
10.061408
10.058363
10.055527
10.052293
10.048626
10.044482
10.039801
10.03451
10.028527
10.02179
10.014184
10.00574
9.9983079
9.9931552
9.9898217
9.9880701
9.9876385
9.9881001
9.9900224
9.9952855
10.000573
1420.0902
2394.2057
1010.6483
609.82585
411.81075
301.3933
215.90592
172.23839
134.71756
113.11503
94.928091
81.551258
70.618989
61.805683
54.565078
48.550691
43.508838
39.254192
35.632541
32.534422
29.861963
27.548661
25.536524
23.770114
22.215241
20.840903
19.618974
18.530109
17.55594
16.684331
15.905718
15.207728
14.582388
14.020646
13.517296
13.067031
12.665532
12.308813
11.99316
11.714701
11.469843
11.255194
11.069056
10.906883
10.766301
10.645295
10.542407
10.454321
10.379174
10.315638
10.262015
10.217178
10.179839
10.148976
10.123776
10.103443
10.087262
10.074709
10.065483
10.059526
10.056422
10.053227
10.049685
10.045729
10.041317
10.036393
10.030885
10.024705
10.017797
10.010143
10.001766
9.9952335
9.9907624
9.9879799
9.9866421
9.9865368
9.9873275
9.9893312
9.9939049
9.9984876
1442.9443
2424.1584
997.2504
602.23292
402.26988
296.8224
211.10579
169.4404
132.69356
111.47165
93.565225
80.213171
69.368533
60.631273
53.471902
47.535623
42.567585
38.38338
34.826924
31.790537
29.175381
26.914761
24.953029
23.233807
21.722968
20.389615
19.206633
18.154667
17.214917
16.374968
15.623765
14.953357
14.354221
13.816741
13.335804
12.906094
12.523372
12.183697
11.883569
11.619226
11.387207
11.184693
11.0087
10.855596
10.72297
10.608674
10.511726
10.428885
10.358081
10.298328
10.24819
10.206053
10.170937
10.141889
10.118174
10.099082
10.08392
10.072171
10.063477
10.057696
10.054502
10.05096
10.047106
10.042861
10.038182
10.033014
10.027293
10.020928
10.013845
10.006152
9.9981775
9.9924597
9.9886387
9.9863961
9.9854642
9.9856561
9.9867474
9.9888788
9.9929336
9.9969368
1464.5048
2452.3903
979.94971
593.71853
392.20953
291.84086
206.23552
166.4438
130.61907
109.6313
91.965672
78.668553
67.937301
59.296949
52.237408
46.396428
41.516629
37.415596
33.935377
30.970344
28.42129
26.221002
24.315744
22.649906
21.189016
19.899213
18.759631
17.748826
16.84743
16.043277
15.325274
14.685045
14.114524
13.603498
13.146895
12.739363
12.3768
12.055273
11.771538
11.522038
11.303222
11.112194
10.946854
10.803209
10.678895
10.572033
10.48102
10.403548
10.337319
10.281246
10.23421
10.195049
10.162203
10.134959
10.11269
10.094795
10.08062
10.069655
10.061521
10.055925
10.052557
10.048686
10.044523
10.039993
10.035051
10.029645
10.023714
10.017184
10.009956
10.002169
9.9949939
9.9900137
9.9867953
9.9850709
9.9845422
9.9850031
9.9863335
9.9886316
9.9924034
9.9960883
1485.0093
2475.2137
958.48742
584.6505
381.70503
286.50169
201.38152
163.25556
128.42311
107.49912
90.113772
76.906734
66.312644
57.794588
50.855592
45.128369
40.352683
36.348643
32.956913
30.072909
27.599561
25.468206
23.623262
22.017106
20.612908
19.376095
18.284971
17.319928
16.461006
15.696127
15.014014
14.406483
13.866383
13.383696
12.953073
12.569057
12.227778
11.925271
11.658528
11.42435
11.219274
11.040279
10.885635
10.751518
10.635458
10.535398
10.450337
10.378193
10.316946
10.264675
10.220623
10.184026
10.153674
10.128257
10.107383
10.090622
10.077381
10.067152
10.059586
10.054231
10.050548
10.04637
10.041907
10.037099
10.031904
10.02627
10.020134
10.013449
10.006164
9.9983609
9.9922165
9.9879189
9.9852436
9.9839985
9.983873
9.9845805
9.986065
9.9885444
9.9922714
9.9958319
1504.7154
2488.0177
932.90581
574.93325
370.82244
280.83751
196.61871
159.79688
125.98552
105.08262
87.982372
74.910127
64.482249
56.114207
49.319208
43.726492
39.072951
35.180238
31.890888
29.095141
26.707341
24.654764
22.884008
21.345233
20.00438
18.826007
17.788477
16.873194
16.060567
15.338367
14.695111
14.122544
13.612888
13.15989
12.756501
12.396962
12.077777
11.794924
11.54554
11.326919
11.135716
10.969643
10.825616
10.700933
10.59323
10.500165
10.420848
10.353653
10.296775
10.248701
10.207651
10.173421
10.145181
10.121794
10.102302
10.086596
10.074229
10.064663
10.057619
10.05259
10.048454
10.043985
10.039234
10.03416
10.028722
10.022874
10.016552
10.009706
10.002434
9.9951289
9.9898366
9.9861886
9.9839959
9.9831645
9.9834438
9.9843841
9.9859454
9.988563
9.992528
9.996082
1523.8432
2480.7016
903.57372
564.61451
359.60874
274.85401
191.94126
155.94076
123.22916
102.33719
85.541996
72.656237
62.430276
54.244864
47.62099
42.185355
37.674757
33.904517
30.73292
28.045763
25.757022
23.794036
22.105943
20.642464
19.371289
18.257454
17.278511
16.414863
15.651587
14.974723
14.372432
13.837059
13.361073
12.938292
12.562733
12.228027
11.931164
11.668145
11.436034
11.232848
11.05497
10.900457
10.766949
10.651475
10.551978
10.466429
10.392791
10.330363
10.27746
10.23306
10.19535
10.163412
10.137044
10.115395
10.097452
10.082743
10.071187
10.062213
10.055569
10.050782
10.046265
10.04151
10.036488
10.031163
10.025495
10.019445
10.012966
10.005996
9.9986586
9.9923688
9.9878518
9.9848168
9.9830673
9.9825461
9.9831954
9.9843915
9.9860203
9.98869
9.9930079
9.9966687
1542.5628
2433.0778
871.92106
553.72602
348.12151
268.46416
187.0398
151.66014
120.0407
99.215344
82.75925
70.120644
60.141068
52.177112
45.754478
40.495594
36.150708
32.533079
29.499232
26.935779
24.759986
22.897958
21.301635
19.92122
18.723263
17.678708
16.763036
15.956899
15.245087
14.615386
14.055292
13.557687
13.115375
12.722665
12.374598
12.064518
11.789676
11.546358
11.331283
11.143186
10.978428
10.835075
10.711531
10.604806
10.512811
10.433881
10.366321
10.308502
10.259307
10.218224
10.183445
10.154052
10.129392
10.10928
10.092682
10.079074
10.068261
10.05984
10.053488
10.048823
10.043971
10.038941
10.033664
10.028105
10.022223
10.01598
10.009355
10.00239
9.9953425
9.9900371
9.9862353
9.9837692
9.9824723
9.98217
9.983113
9.9845454
9.9863053
9.989
9.9933752
9.9972176
1560.7445
2396.989
839.9993
542.21341
336.36406
261.1268
181.98872
146.8524
116.30658
95.659452
79.599434
67.279561
57.599501
49.902826
43.707354
38.668805
34.522196
31.081195
28.206266
25.78355
23.733885
21.983862
20.48437
19.194087
18.077526
17.105868
16.255893
15.508678
14.849098
14.26674
13.748996
13.289054
12.880167
12.516737
12.193987
11.907792
11.654163
11.429996
11.232436
11.058764
10.906695
10.773942
10.659676
10.561224
10.476318
10.403415
10.341029
10.287794
10.242464
10.204381
10.172267
10.145117
10.122295
10.103519
10.088146
10.07556
10.065438
10.057562
10.051441
10.046708
10.041576
10.036284
10.030765
10.024988
10.018912
10.012503
10.005738
9.998758
9.9925958
9.9881075
9.9849572
9.9829938
9.9821058
9.9820237
9.9831846
9.9847859
9.9866953
9.9894666
9.99371
9.9976945
1577.9311
2355.6132
807.17071
529.74075
324.23461
252.60778
176.59503
141.40297
111.91878
91.608947
76.029457
64.112464
54.787093
47.407686
41.504792
36.727243
32.812987
29.57506
26.879121
24.613091
22.697534
21.069393
19.67743
18.481345
17.448363
16.551163
15.767476
15.079329
14.471412
13.933865
13.457407
13.033946
12.657358
12.322585
12.025313
11.76162
11.527973
11.321352
11.139196
10.979219
10.839349
10.717539
10.611853
10.521022
10.442707
10.375425
10.317812
10.268672
10.226929
10.191606
10.161905
10.136837
10.115751
10.098154
10.083828
10.072091
10.062681
10.055341
10.049506
10.04446
10.039099
10.03356
10.027813
10.021831
10.015574
10.009025
10.002233
9.9954548
9.9903095
9.9865465
9.9839804
9.9824358
9.9818706
9.982288
9.9834058
9.9850894
9.9870866
9.9899615
9.9940797
9.9980942
1593.4538
2287.888
772.68948
515.80424
310.97283
242.75935
170.5448
135.17332
106.77761
87.005515
72.02378
60.600257
51.721078
44.739192
39.182822
34.709324
31.060837
28.049388
25.545431
23.449259
21.681563
20.180901
18.899386
17.799177
16.849842
16.026134
15.306885
14.674513
14.11722
13.624123
13.186812
12.797953
12.451771
12.143629
11.869783
11.626941
11.411904
11.221742
11.054056
10.906604
10.777537
10.665239
10.568311
10.484381
10.412078
10.349936
10.296666
10.251152
10.212432
10.179952
10.152375
10.129129
10.109577
10.093232
10.07983
10.068823
10.059975
10.053067
10.047484
10.042132
10.036568
10.030806
10.024844
10.018667
10.012249
10.005565
9.9987676
9.992813
9.9884261
9.9853002
9.9832631
9.9821497
9.9818015
9.9825184
9.9837641
9.9854474
9.9874681
9.9904354
9.9944815
9.9984291
1606.2292
2219.2916
735.64994
499.83218
296.92378
231.38856
163.36802
127.99732
100.80684
81.819377
67.576524
56.783535
48.462782
41.955811
36.800545
32.667608
29.31171
26.541073
24.245634
22.326516
20.709983
19.338638
18.167557
17.16162
16.293134
15.53955
14.880425
14.302344
13.792314
13.340383
12.939409
12.58262
12.264682
11.981234
11.728838
11.504784
11.306603
11.131334
10.976882
10.841068
10.722033
10.618819
10.529035
10.451403
10.384484
10.326982
10.277673
10.235528
10.199686
10.169406
10.143749
10.122106
10.10392
10.088717
10.076152
10.065791
10.057394
10.050779
10.045359
10.039762
10.034021
10.028072
10.021913
10.015544
10.008983
10.002277
9.9956643
9.9906595
9.9869265
9.9843275
9.9827155
9.9819988
9.9818579
9.9828354
9.9841777
9.9858726
9.987894
9.9908792
9.9948444
9.9986496
1613.4698
2136.0474
695.82307
480.12606
281.83169
218.17687
154.59009
119.73781
94.006161
76.097498
62.770968
52.769643
45.108423
39.143493
34.431704
30.663165
27.611061
25.096438
23.012847
21.271636
19.80456
18.5593
17.494867
16.579084
15.786598
15.097322
14.495029
13.966111
13.499546
13.085149
12.717041
12.389233
12.096911
11.836045
11.60328
11.395997
11.21282
11.050736
10.907967
10.782674
10.673049
10.577358
10.494169
10.422121
10.359957
10.306538
10.260767
10.221524
10.188335
10.160043
10.136049
10.115775
10.098755
10.084597
10.072779
10.063013
10.055025
10.048584
10.043185
10.037401
10.0315
10.025402
10.019094
10.012556
10.005817
9.9990803
9.9932396
9.9889094
9.9857615
9.9836223
9.9823561
9.9819031
9.9820365
9.9831553
9.9845925
9.9863249
9.9883871
9.9913415
9.9951509
9.9987561
1610.0261
2033.921
652.69435
454.38471
265.51816
202.77594
143.96961
110.41893
86.525801
69.967139
57.792106
48.705593
41.777097
36.397463
32.153554
28.759949
26.012323
23.752544
21.876596
20.306748
18.98171
17.854906
16.889882
16.057927
15.336285
14.706902
14.155371
13.669895
13.240705
12.859886
12.520899
12.218653
11.948888
11.708099
11.493319
11.302
11.131958
10.981376
10.848513
10.731815
10.629803
10.54096
10.463604
10.396551
10.338574
10.288649
10.246107
10.209589
10.178388
10.151856
10.129341
10.110244
10.094286
10.080871
10.069693
10.060447
10.052893
10.046627
10.041031
10.035118
10.029069
10.022838
10.016421
10.009807
10.003034
9.9963848
9.9913339
9.9875399
9.9848657
9.983126
9.9821778
9.9818792
9.9824244
9.9834612
9.9849747
9.986742
9.9888784
9.9918228
9.9954672
9.9988751
1589.735
1903.151
606.47645
421.93446
247.98652
184.97955
131.72724
100.36514
78.714356
63.752785
52.86054
44.756637
38.592106
33.810979
30.037757
27.014216
24.559144
22.5416
20.860485
19.44912
18.253921
17.234272
16.358458
15.601381
14.942924
14.366908
13.86049
13.413754
13.018025
12.666339
12.35268
12.072552
11.822141
11.59833
11.398494
11.220384
11.06202
10.921618
10.797556
10.688333
10.592642
10.509654
10.437357
10.374679
10.320509
10.273835
10.233744
10.199408
10.169964
10.144854
10.123669
10.105658
10.090431
10.077636
10.066957
10.058154
10.050858
10.04474
10.03899
10.032984
10.026822
10.02047
10.01393
10.007229
10.00051
9.994432
9.9899139
9.9865529
9.984225
9.9827871
9.9821455
9.9820292
9.9826523
9.983795
9.985318
9.9871115
9.9893181
9.9922694
9.995774
9.9989643
1543.7736
1743.4371
558.33424
383.56692
230.17255
165.06277
118.54681
90.198876
71.027867
57.778191
48.200815
41.082932
35.670395
31.468838
28.145606
25.472846
23.291541
21.48879
19.982662
18.711885
17.630825
16.704524
15.905778
15.213057
14.609016
14.079353
13.611576
13.197717
12.830066
12.503158
12.210993
11.949633
11.715656
11.506267
11.319101
11.152129
11.003565
10.871798
10.755349
10.652838
10.562972
10.484529
10.416326
10.357076
10.305803
10.261541
10.223474
10.191052
10.163215
10.139424
10.119141
10.101915
10.087325
10.075003
10.064748
10.05617
10.049039
10.042986
10.037111
10.03104
10.024819
10.018412
10.011809
10.005055
9.9984106
9.9930447
9.9889521
9.9859474
9.983878
9.982634
9.9821652
9.9822011
9.9829076
9.9840851
9.9856145
9.9874261
9.989675
9.9926114
9.996018
9.9990297
1463.9201
1580.8703
509.24552
344.08525
206.21939
145.76689
105.36849
80.607103
63.922328
52.357317
44.028795
37.839931
33.122825
29.447079
26.525649
24.16326
22.223953
20.611158
19.255086
18.104558
17.120376
16.2727
15.53816
14.898219
14.337943
13.845162
13.409855
13.023721
12.680023
12.373157
12.098476
11.852326
11.631638
11.433879
11.2569
11.098849
10.958079
10.833094
10.722498
10.62498
10.539312
10.464411
10.399568
10.343173
10.294364
10.252228
10.215953
10.184803
10.158113
10.135237
10.115695
10.099056
10.085033
10.073131
10.063094
10.054668
10.0476
10.041529
10.035517
10.029355
10.023067
10.016632
10.010046
10.003357
9.996874
9.9920372
9.9883203
9.9856282
9.9837978
9.9827159
9.982297
9.9824818
9.9831988
9.9843643
9.9858684
9.9876738
9.9899056
9.9927315
9.9959758
9.9989277
1351.9347
1493.5977
463.10978
296.68383
182.39234
127.64351
93.450951
72.111534
57.772085
47.784004
40.562752
35.179173
31.053225
27.816113
25.224818
23.114718
21.371192
19.912279
18.677176
17.62356
16.717661
15.933747
15.251508
14.654703
14.130162
13.667123
13.256679
12.8915
12.565639
12.274616
12.013508
11.77912
11.568643
11.379768
11.210535
11.059246
10.924393
10.804603
10.698593
10.605146
10.52309
10.451277
10.388583
10.334074
10.286803
10.245926
10.210671
10.180376
10.154573
10.132426
10.113498
10.097348
10.083603
10.071941
10.062076
10.053753
10.04672
10.040608
10.034469
10.028181
10.021763
10.015208
10.00854
10.001888
9.9958276
9.9913089
9.9878762
9.9854202
9.9837869
9.9828637
9.9825597
9.9828137
9.9835533
9.9847021
9.9861821
9.9879683
9.9901305
9.9927588
9.9957559
9.998711
1219.3147
1251.4544
422.93231
254.40694
160.22726
112.52583
83.58659
65.249462
52.910248
44.258634
37.956185
33.214592
29.546985
26.643427
24.299192
22.374989
20.773374
19.424506
18.277204
17.293155
16.443245
15.704814
15.059919
14.49407
13.995367
13.553913
13.161667
12.811874
12.498962
12.218331
11.966211
11.739463
11.5355
11.35216
11.187606
11.040241
10.908647
10.791525
10.687666
10.595938
10.515321
10.445082
10.383663
10.330227
10.283856
10.24373
10.209092
10.179259
10.153622
10.131645
10.112841
10.096789
10.083121
10.071515
10.061691
10.053398
10.046384
10.040278
10.034129
10.027808
10.021335
10.014697
10.00793
10.001217
9.9953742
9.990994
9.9876896
9.9853453
9.9838151
9.9829972
9.982753
9.9830679
9.9838403
9.9850074
9.9865092
9.9883246
9.9904809
9.9930048
9.9958159
9.9986632
1100.0054
1113.6158
390.27039
223.68848
143.64175
101.40186
76.278691
60.250311
49.43394
41.784256
36.154904
31.878906
28.540651
25.875199
23.706314
21.913281
20.411058
19.138298
18.049795
17.111571
16.297588
15.587512
14.965172
14.41758
13.934593
13.505874
13.12416
12.78307
12.477362
12.202678
11.955424
11.732638
11.531868
11.351068
11.188503
11.042667
10.912217
10.795924
10.692635
10.601251
10.520716
10.450017
10.38819
10.334302
10.287482
10.24692
10.211868
10.18165
10.155656
10.13334
10.114223
10.09788
10.083941
10.072084
10.062027
10.05352
10.04632
10.040097
10.03407
10.027842
10.02149
10.014986
10.008356
10.001738
9.9957643
9.9913243
9.9879646
9.98558
9.9840206
9.9831815
9.9829275
9.9832272
9.983984
9.985142
9.9866518
9.9884835
9.9906227
9.9930536
9.9957317
9.9985728
1045.1994
1072.4367
366.01774
206.60544
132.77114
93.847594
70.830213
56.275232
46.470882
39.527031
34.401201
30.489708
27.422816
24.963797
22.955118
21.288487
19.88738
18.696428
17.674738
16.791527
16.023198
15.351311
14.761161
14.240785
13.780277
13.371342
13.006957
12.681204
12.389113
12.126537
11.890037
11.676776
11.484405
11.310971
11.154826
11.014548
10.888878
10.776669
10.676847
10.58839
10.510313
10.441663
10.381525
10.329025
10.283337
10.243692
10.209378
10.179748
10.154216
10.132259
10.113412
10.097268
10.083468
10.071698
10.061686
10.053188
10.045967
10.039696
10.0336
10.027313
10.020906
10.014355
10.007699
10.001119
9.9954338
9.9911417
9.9878966
9.9855842
9.9840693
9.9832529
9.9830053
9.9832975
9.9840392
9.9851858
9.9866969
9.9885366
9.9906634
9.993038
9.9956446
9.9984977
31326.958
78966.621
36908.913
10673.319
1404.2283
611.36029
434.19945
350.59019
290.46378
236.29747
192.52189
159.25089
134.65078
116.40371
102.36307
90.886277
81.174025
72.885231
65.784793
59.660248
54.334658
49.672253
45.56789
41.936084
38.711437
35.829415
33.244601
30.916975
28.814645
26.912444
25.188898
23.624868
22.203645
20.910529
19.733977
18.664279
17.692693
16.811467
16.013527
15.292435
14.64258
14.058395
13.534811
13.067262
12.651257
12.282557
11.957327
11.671537
11.421505
11.203876
11.015375
10.852882
10.713417
10.59445
10.493465
10.408264
10.338648
10.284316
10.245364
10.224543
10.217631
10.215289
10.212637
10.209122
10.205073
10.200493
10.19492
10.187039
10.175898
10.163258
10.143238
10.124463
10.086777
10.072006
10.042545
10.049417
9.9959738
10.012493
9.9805074
10.00133
19960.209
59296.692
24522.738
5065.1883
971.21369
528.83986
397.84912
321.42702
264.07424
212.76721
174.47116
145.63817
124.58163
108.79938
96.337016
85.884237
76.973584
69.358849
62.813602
57.139768
52.183101
47.827081
43.979379
40.563915
37.518744
34.790755
32.338493
30.124521
28.120701
26.3044
24.655803
23.157171
21.793121
20.550124
19.417857
18.387336
17.450401
16.599852
15.829054
15.131987
14.503406
13.937979
13.430947
12.977983
12.574772
12.217277
11.901837
11.624529
11.381845
11.170561
10.987504
10.829657
10.694147
10.578551
10.480438
10.397557
10.329416
10.276381
10.238639
10.219032
10.212695
10.21049
10.207847
10.204377
10.200389
10.195867
10.190639
10.183399
10.17291
10.160634
10.141192
10.122439
10.085814
10.071592
10.042734
10.050084
9.9970139
10.013858
9.9813676
10.00209
28229.914
35263.878
13460.079
2540.5057
835.46296
498.99999
387.82905
306.15087
250.66962
201.19255
166.69892
139.54496
120.01543
105.12256
93.23647
83.193864
74.659538
67.367433
61.088645
55.636866
50.868697
46.674561
42.966406
39.671454
36.728842
34.091299
31.718654
29.57442
27.632519
25.871245
24.271481
22.816176
21.490635
20.281926
19.180423
18.177455
17.265188
16.436737
15.685708
15.006328
14.393571
13.842225
13.34774
12.905931
12.512589
12.163813
11.856054
11.585454
11.348632
11.142451
10.963806
10.809758
10.677526
10.564778
10.469007
10.388156
10.3212
10.269162
10.232348
10.213665
10.207757
10.205672
10.203059
10.199648
10.195726
10.191261
10.186166
10.17959
10.169797
10.157923
10.139114
10.1204
10.084887
10.071192
10.042667
10.050541
9.9980838
10.015189
9.9822013
10.002812
35733.924
23937.554
8325.2804
1541.362
753.88628
475.77752
375.43589
290.22076
239.46958
190.52437
159.66929
133.63263
115.68036
101.58643
90.275002
80.637729
72.467506
65.476579
59.447421
54.204571
49.613563
45.571249
41.993844
38.811875
35.967774
33.413674
31.11566
29.037362
27.154298
25.445466
23.892427
22.478754
21.190376
20.014905
18.943372
17.967341
17.079294
16.272628
15.541158
14.879344
14.282353
13.74508
13.263178
12.832586
12.449193
12.109229
11.80925
11.545455
11.314596
11.113613
10.939469
10.789307
10.660499
10.550578
10.457224
10.378433
10.312875
10.261863
10.226007
10.208248
10.202792
10.200831
10.198252
10.194905
10.191054
10.186651
10.181586
10.175529
10.166468
10.155028
10.13689
10.118208
10.083875
10.070597
10.042329
10.05079
9.999206
10.01653
9.9830438
10.003568
40235.957
20404.049
5858.0147
1224.82
719.67315
458.2604
365.72799
277.78296
231.31188
182.36677
154.69106
129.0391
112.41089
98.778891
87.895151
78.557658
70.670983
63.910963
58.075458
52.996382
48.54581
44.62507
41.153308
38.063441
35.299858
32.817306
30.5799
28.557187
26.724189
25.060313
23.547636
22.170193
20.914403
19.768296
18.723445
17.771536
16.905321
16.118413
15.404788
14.759094
14.176651
13.652427
13.182257
12.762168
12.388132
12.056494
11.763895
11.50658
11.281423
11.085427
10.915622
10.76923
10.643709
10.536548
10.445552
10.368778
10.304711
10.254668
10.219733
10.202739
10.197818
10.195974
10.193436
10.19016
10.186382
10.182045
10.177043
10.171248
10.162949
10.151976
10.134545
10.115899
10.082822
10.069602
10.041902
10.050814
10.00037
10.017912
9.9838907
10.004409
43023.648
19036.179
4504.9742
1153.1144
699.32658
439.91838
358.2368
267.99391
225.07273
175.86047
150.78701
125.15141
109.7104
96.358365
85.845382
76.752969
69.104409
62.535883
56.86325
51.922937
47.592175
43.77571
40.395015
37.384939
34.691609
32.271132
30.087672
28.114115
26.325533
24.701804
23.225362
21.880616
20.654397
19.535082
18.514715
17.585033
16.739045
15.970531
15.273596
14.643052
14.074342
13.562485
13.103486
12.693437
12.328378
12.00476
11.71929
11.468257
11.248649
11.057525
10.891983
10.749357
10.626981
10.522538
10.433874
10.359099
10.296644
10.247529
10.213497
10.197316
10.19285
10.191104
10.188615
10.185415
10.181714
10.177445
10.172503
10.166778
10.159232
10.148762
10.132065
10.113489
10.08167
10.068326
10.041413
10.050631
10.001564
10.019347
9.9847501
10.005274
45235.285
17132.423
3618.8
1102.8762
684.1053
427.3096
352.33243
260.14871
220.25508
170.68629
147.67873
121.88061
107.4709
94.269298
84.078151
75.184144
67.734886
61.325553
55.789997
50.967244
46.738714
43.01175
39.709657
36.768827
34.136765
31.770838
29.63652
27.70525
25.955954
24.36808
22.924188
21.608967
20.409586
19.314712
18.316804
17.40759
16.580326
15.828917
15.147572
14.531246
13.975478
13.475324
13.026945
12.626473
12.27001
11.954101
11.675507
11.430553
11.216339
11.029981
10.868682
10.729614
10.610342
10.508578
10.422217
10.34942
10.288669
10.240459
10.207311
10.19195
10.187881
10.186229
10.183795
10.180676
10.177054
10.172855
10.167977
10.162304
10.155321
10.145392
10.129451
10.111001
10.080357
10.067181
10.040882
10.050318
10.002773
10.020795
9.9856197
10.005962
46868.129
14494.953
3054.1695
1072.1484
672.53548
417.14684