/*--------------------------------*- C++ -*----------------------------------*\
  =========                 |
  \\      /  F ield         | OpenFOAM: The Open Source CFD Toolbox
   \\    /   O peration     | Website:  https://openfoam.org
    \\  /    A nd           | Version:  12
     \\/     M anipulation  |
\*---------------------------------------------------------------------------*/
FoamFile
{
    format      ascii;
    class       surfaceScalarField;
    location    "0.127";
    object      phi;
}
// * * * * * * * * * * * * * * * * * * * * * * * * * * * * * * * * * * * * * //

dimensions      [1 0 -1 0 0 0 0];

internalField   nonuniform List<scalar> 
31760
(
-0.00063827323
-0.050807645
0.051445612
-0.0015989276
-0.064196936
0.06515728
-0.002587616
-0.062841859
0.06383411
-0.0036050014
-0.068498703
0.069515656
-0.0046769991
-0.070173882
0.0712455
-0.0057773161
-0.074428332
0.075528302
-0.0069475725
-0.077353266
0.078523198
-0.0081567901
-0.081351383
0.082560318
-0.0094261825
-0.084968852
0.08623798
-0.010754306
-0.089078752
0.090406638
-0.012137926
-0.093205739
0.094589144
-0.013588817
-0.097609475
0.099060164
-0.015101607
-0.10217726
0.10368986
-0.016684563
-0.106971
0.10855378
-0.018337262
-0.11197951
0.11363204
-0.020064453
-0.11721941
0.11894643
-0.0218688
-0.12269872
0.1245029
-0.023753501
-0.12842887
0.13031339
-0.025721795
-0.13442081
0.13638892
-0.027777075
-0.14068581
0.1427409
-0.02992277
-0.14723621
0.14938171
-0.032162634
-0.15408399
0.15632364
-0.034500255
-0.16124267
0.16358006
-0.03693953
-0.16872596
0.17116498
-0.039483423
-0.17654833
0.17909195
-0.0421365
-0.18472388
0.18737666
-0.044902643
-0.19326881
0.19603462
-0.04778526
-0.2021997
0.20508196
-0.050787829
-0.21153344
0.21453562
-0.053914373
-0.22128809
0.2244142
-0.057168176
-0.23148255
0.23473587
-0.06055254
-0.2421366
0.24552044
-0.064070247
-0.25327173
0.25678885
-0.067724309
-0.26490903
0.26856246
-0.071516675
-0.27707259
0.28086425
-0.075448963
-0.28978667
0.29371818
-0.079522454
-0.303077
0.30714964
-0.083737566
-0.3169713
0.32118549
-0.088094056
-0.33149759
0.33585307
-0.092590543
-0.34668735
0.35118273
-0.097224957
-0.36257239
0.3672056
-0.1019938
-0.37918655
0.38395408
-0.10689239
-0.39656595
0.40146311
-0.11191484
-0.41474856
0.41976944
-0.11705334
-0.43377483
0.43891162
-0.12229866
-0.45368653
0.45892999
-0.12763917
-0.4745287
0.47986718
-0.13306189
-0.49634785
0.50176836
-0.13855123
-0.51919422
0.52468118
-0.14408885
-0.54311975
0.54865479
-0.14965366
-0.56817901
0.57374104
-0.15522213
-0.59443021
0.59999567
-0.16076687
-0.62193386
0.62747536
-0.16625694
-0.65075378
0.65624034
-0.17165786
-0.68095677
0.68635392
-0.17692977
-0.71261381
0.71788164
-0.18202864
-0.74579849
0.75089297
-0.18690514
-0.78058821
0.78545997
-0.19150294
-0.81706447
0.82165719
-0.1957599
-0.85531211
0.85956362
-0.19960591
-0.89541964
0.89925985
-0.202963
-0.93747919
0.94083015
-0.20574365
-0.98158713
0.98436136
-0.20785031
-1.0278435
1.0299435
-0.20917409
-1.076351
1.0776679
-0.20959427
-1.1272171
1.1276303
-0.2089752
-1.180553
1.1799268
-0.20717232
-1.2364733
1.2346632
-0.20401979
-1.2951032
1.2919434
-0.19933133
-1.3565705
1.3518745
-0.19290468
-1.4210043
1.4145696
-0.18451939
-1.4885308
1.4801363
-0.17392154
-1.5592785
1.5486694
-0.16084394
-1.6333729
1.6202812
-0.14497317
-1.7109635
1.6950749
-0.12605093
-1.7921883
1.7732446
-0.10341044
-1.8772151
1.8545509
-0.077493521
-1.9664594
1.9405068
-0.046172654
-2.0588106
2.0274722
-2.1582169
2.1233169
-0.0006342052
-0.05017342
-0.0015008976
-0.063330382
-0.0023896702
-0.061955031
-0.0033478347
-0.067540531
-0.0043168255
-0.069204884
-0.0053629663
-0.073382213
-0.0064242373
-0.07629202
-0.007565402
-0.080210263
-0.0087323795
-0.083801927
-0.0099736227
-0.087837576
-0.011257829
-0.091921611
-0.012609419
-0.096257976
-0.014018434
-0.10076834
-0.015493949
-0.1054956
-0.017036166
-0.11043742
-0.018649242
-0.11560647
-0.020335379
-0.12101274
-0.022098353
-0.12666606
-0.023941392
-0.13257795
-0.025868085
-0.13875931
-0.027882098
-0.14522241
-0.02998669
-0.15197962
-0.032185972
-0.15904364
-0.034483635
-0.16642857
-0.036884479
-0.17414778
-0.039391316
-0.18221737
-0.04200884
-0.19065164
-0.044740784
-0.19946815
-0.047591425
-0.20868324
-0.05056433
-0.21831567
-0.05366357
-0.22838384
-0.056892466
-0.23890829
-0.06025431
-0.24991053
-0.063752075
-0.26141198
-0.067388165
-0.27343727
-0.071164886
-0.28601079
-0.075083384
-0.29915943
-0.079145137
-0.31291056
-0.083349467
-0.32729437
-0.08769594
-0.34234209
-0.092182925
-0.35808673
-0.096807289
-0.37456363
-0.10156464
-0.39181019
-0.10644986
-0.40986507
-0.11145585
-0.42877074
-0.116574
-0.44857044
-0.12179404
-0.46931089
-0.12710331
-0.49104101
-0.13248749
-0.51381268
-0.13792998
-0.53768012
-0.14341138
-0.5627007
-0.14890961
-0.58893531
-0.15439945
-0.61644762
-0.15985259
-0.64530453
-0.16523696
-0.67557661
-0.17051627
-0.70733903
-0.17565012
-0.74066954
-0.18059302
-0.7756506
-0.18529371
-0.8123695
-0.18969537
-0.8509166
-0.19373395
-0.89138766
-0.197338
-0.93388218
-0.20042723
-0.97850536
-0.20291324
-1.0253654
-0.20469622
-1.0745762
-0.20566684
-1.126255
-0.20569981
-1.1805289
-0.20466063
-1.2375216
-0.20239951
-1.2973736
-0.19874858
-1.3602309
-0.19352385
-1.4262388
-0.18651805
-1.4955471
-0.17750391
-1.5683045
-0.16622841
-1.6446627
-0.15242591
-1.7247837
-0.13578796
-1.8088473
-0.115931
-1.8970979
-0.092763836
-1.9896603
-0.065080097
-2.0865134
-2.1894634
-0.00057251499
-0.049600842
-0.0013809429
-0.062521933
-0.0021887102
-0.061147255
-0.0030899752
-0.06663926
-0.0039804179
-0.068314464
-0.0049570247
-0.072405634
-0.0059351695
-0.07531392
-0.006996685
-0.079148801
-0.0080774036
-0.082721276
-0.0092308461
-0.08668421
-0.010424079
-0.090728467
-0.011681202
-0.095000952
-0.012993215
-0.099456441
-0.014368392
-0.10412054
-0.01580741
-0.10899854
-0.01731386
-0.11410017
-0.018891094
-0.11943566
-0.020542061
-0.12501526
-0.022271033
-0.13084917
-0.024080833
-0.13694971
-0.025975949
-0.14332753
-0.027959901
-0.14999592
-0.030036568
-0.15696725
-0.032210728
-0.16425471
-0.034485651
-0.17187319
-0.036866537
-0.17983685
-0.039356831
-0.18816175
-0.041961588
-0.19686384
-0.044684353
-0.20596096
-0.047530256
-0.2154703
-0.050502394
-0.22541229
-0.053605071
-0.23580626
-0.05684207
-0.24667424
-0.060216051
-0.25803877
-0.063730575
-0.2699236
-0.06738778
-0.28235452
-0.07118987
-0.29535835
-0.07513733
-0.30896422
-0.079231142
-0.32320177
-0.083470759
-0.3381038
-0.087854364
-0.35370459
-0.092379809
-0.37003979
-0.097043693
-0.38714805
-0.10184053
-0.40507014
-0.10676431
-0.42384904
-0.11180705
-0.44352998
-0.1169595
-0.46416091
-0.12220977
-0.48579342
-0.12754532
-0.50848004
-0.13295052
-0.53227806
-0.13840724
-0.55724739
-0.14389611
-0.58345011
-0.14939391
-0.6109538
-0.15487478
-0.63982795
-0.16030964
-0.67014639
-0.16566569
-0.70198801
-0.17090645
-0.73543421
-0.17598992
-0.77057302
-0.18087074
-0.80749504
-0.18549654
-0.84629768
-0.18980991
-0.88708171
-0.19374578
-0.92995428
-0.19723238
-0.97502728
-0.2001886
-1.0224182
-0.20252429
-1.0722501
-0.20413825
-1.1246512
-0.20492254
-1.1797552
-0.20475178
-1.2377034
-0.20348741
-1.2986494
-0.20098233
-1.3627477
-0.19706371
-1.4301695
-0.19154928
-1.5010741
-0.1842267
-1.5756407
-0.1748708
-1.6540342
-0.16323239
-1.7364404
-0.14902615
-1.823075
-0.13196507
-1.9141861
-0.11177043
-2.0098881
-0.087743523
-2.1105651
-2.216954
-0.00051646174
-0.04908439
-0.0012645629
-0.061773887
-0.0019985808
-0.060413023
-0.0028472965
-0.065790616
-0.0036721375
-0.067489696
-0.0045824048
-0.071495448
-0.0054840802
-0.074412325
-0.0064725906
-0.078160379
-0.0074736289
-0.08172033
-0.0085466547
-0.085611283
-0.0096563395
-0.089618889
-0.010827025
-0.093830381
-0.012050723
-0.098232868
-0.013334719
-0.10283668
-0.014680701
-0.1076527
-0.016092439
-0.11268859
-0.017573241
-0.11795504
-0.01912649
-0.12346221
-0.020755666
-0.1292202
-0.022465121
-0.13524049
-0.024258034
-0.14153487
-0.026139467
-0.14811477
-0.028113335
-0.15499369
-0.030183627
-0.16218475
-0.0323555
-0.16970169
-0.034632904
-0.17755984
-0.037020875
-0.18577422
-0.039523747
-0.19436145
-0.042146962
-0.20333828
-0.044893864
-0.21272398
-0.047769565
-0.22253723
-0.050778405
-0.23279812
-0.053924049
-0.24352936
-0.057210345
-0.25475332
-0.060640665
-0.2664942
-0.064217424
-0.27877877
-0.067942793
-0.29163409
-0.071818643
-0.30508958
-0.075845278
-0.31917647
-0.080022701
-0.33392784
-0.084350266
-0.34937862
-0.088825265
-0.36556653
-0.093444861
-0.38253037
-0.098204667
-0.40031242
-0.10309874
-0.41895724
-0.10812058
-0.43851061
-0.1132605
-0.45902368
-0.1185096
-0.48054726
-0.1238551
-0.50313772
-0.12928341
-0.5268532
-0.13477893
-0.5517556
-0.1403231
-0.57790998
-0.14589573
-0.60538554
-0.15147405
-0.63425436
-0.15703105
-0.66459449
-0.16253848
-0.69648611
-0.16796297
-0.73001571
-0.17326779
-0.76527471
-0.17841187
-0.80235802
-0.18334887
-0.84136834
-0.18802714
-0.88241172
-0.19238878
-0.92560159
-0.19636941
-0.97105627
-0.19989651
-1.0189014
-0.20288937
-1.0692683
-0.20526
-1.1222923
-0.20690326
-1.1781243
-0.20771389
-1.2369059
-0.20756456
-1.2988125
-0.20632412
-1.3640024
-0.2038404
-1.432668
-0.19993719
-1.5049926
-0.19443627
-1.5811578
-0.18712484
-1.6613634
-0.17778135
-1.745804
-0.16615365
-1.8347257
-0.15198168
-1.9283868
-0.13495372
-2.026949
-0.11461597
-2.1309305
-2.2405288
-0.00046125521
-0.048623137
-0.0011622129
-0.061072987
-0.001818653
-0.059756706
-0.0026112
-0.064998132
-0.0033622103
-0.066738739
-0.0042148721
-0.070642855
-0.0050501106
-0.073577159
-0.0059732998
-0.077237271
-0.0069034271
-0.080790292
-0.0079036629
-0.084611146
-0.0089393654
-0.088583296
-0.010033584
-0.092736281
-0.011180478
-0.097086106
-0.01238623
-0.10163107
-0.013653241
-0.10638585
-0.014984613
-0.11135739
-0.016384116
-0.11655573
-0.017855527
-0.121991
-0.019402552
-0.12767341
-0.021029225
-0.13361407
-0.022740269
-0.1398241
-0.024539036
-0.1463163
-0.026431047
-0.15310201
-0.02842089
-0.16019527
-0.030513093
-0.16760988
-0.032712933
-0.17536044
-0.035025619
-0.18346202
-0.037456087
-0.19193151
-0.040009261
-0.20078569
-0.042690337
-0.21004354
-0.045504183
-0.21972408
-0.048455264
-0.2298478
-0.051547926
-0.24043754
-0.054786511
-0.25151565
-0.058174166
-0.26310755
-0.061713963
-0.27524008
-0.065408389
-0.28794087
-0.069259332
-0.30123996
-0.073267529
-0.31516972
-0.077433356
-0.3297636
-0.081755755
-0.34505795
-0.086233539
-0.36109065
-0.090863411
-0.37790257
-0.095641678
-0.39553642
-0.10056387
-0.41403752
-0.105623
-0.43345418
-0.11081184
-0.45383777
-0.11612127
-0.47524103
-0.12154057
-0.49772189
-0.12705818
-0.52133935
-0.13265962
-0.54615823
-0.13832946
-0.57224456
-0.14404964
-0.59967014
-0.14979982
-0.62850934
-0.15555766
-0.65884225
-0.16129738
-0.69075248
-0.16698976
-0.72432993
-0.17260349
-0.75966816
-0.17810191
-0.7968674
-0.18344505
-0.83603368
-0.18858709
-0.87727889
-0.19347743
-0.92072125
-0.19805892
-0.96648558
-0.20226813
-1.0147039
-0.20603394
-1.0655149
-0.2092756
-1.119064
-0.21190802
-1.1755062
-0.21382604
-1.2350031
-0.21493019
-1.2977245
-0.21508863
-1.363861
-0.21417458
-1.4335998
-0.21203465
-1.507151
-0.2085011
-1.5847108
-0.20338921
-1.6664961
-0.19649488
-1.7527212
-0.18759569
-1.8436506
-0.17646573
-1.9395482
-0.16279507
-2.0406543
-0.14625479
-2.147501
-2.2600049
-0.00041151763
-0.048211626
-0.0010716568
-0.060412903
-0.0016658353
-0.059162564
-0.0024005714
-0.064263459
-0.0030756869
-0.066063687
-0.0038770118
-0.069841605
-0.0046455402
-0.072808712
-0.0055092808
-0.076373621
-0.0063760175
-0.079923656
-0.0073147179
-0.083672555
-0.0082903084
-0.087607827
-0.0093223851
-0.091704335
-0.010407372
-0.096001265
-0.011549931
-0.10048867
-0.012752902
-0.10518305
-0.014020142
-0.11009034
-0.015355162
-0.11522092
-0.016761837
-0.12058456
-0.01824467
-0.12619082
-0.019807653
-0.13205136
-0.021455883
-0.13817617
-0.02319417
-0.14457834
-0.025027653
-0.15126889
-0.026961432
-0.15826189
-0.029001113
-0.16557064
-0.031152494
-0.17320954
-0.033420298
-0.18119474
-0.035810811
-0.18954157
-0.038329311
-0.19826781
-0.040981153
-0.20739239
-0.043771898
-0.21693409
-0.046706092
-0.22691444
-0.049789099
-0.23735544
-0.053024183
-0.24828156
-0.056415819
-0.259717
-0.059967311
-0.27168978
-0.063680835
-0.28422866
-0.067558354
-0.29736388
-0.0716014
-0.31112825
-0.075810033
-0.32555669
-0.080184143
-0.34068573
-0.084721736
-0.35655512
-0.089421092
-0.37320547
-0.094278983
-0.39068099
-0.099290369
-0.40902882
-0.10445019
-0.42829729
-0.10975273
-0.44853842
-0.11518916
-0.46980806
-0.12075157
-0.49216325
-0.12642858
-0.51566642
-0.13220961
-0.54038164
-0.13808069
-0.56637828
-0.14402681
-0.59372922
-0.15003091
-0.62251089
-0.15607368
-0.65280562
-0.16213339
-0.68469943
-0.16818637
-0.7182842
-0.1742046
-0.75365783
-0.18015768
-0.79092294
-0.18601061
-0.83019014
-0.19172524
-0.87157449
-0.19725758
-0.91520003
-0.20255877
-0.96119644
-0.20757363
-1.009702
-0.21224036
-1.0608623
-0.21648964
-1.1148299
-0.22024428
-1.1717679
-0.22342069
-1.2318442
-0.22591797
-1.295246
-0.22763684
-1.3621621
-0.22845455
-1.4328031
-0.22824063
-1.507387
-0.22684732
-1.5861272
-0.2241083
-1.6692599
-0.21984245
-1.7570137
-0.21385895
-1.8496637
-0.20594827
-1.947494
-0.19584175
-2.0507977
-0.18326626
-2.1601093
-2.2751825
-0.00036904718
-0.047842593
-0.00099842002
-0.059783591
-0.0015379223
-0.058623112
-0.0022255116
-0.063575939
-0.0028414894
-0.065447782
-0.0035950452
-0.069088132
-0.0043076573
-0.072096192
-0.0051103156
-0.075571062
-0.0059353211
-0.079098761
-0.0068279261
-0.082780069
-0.0077575623
-0.086678323
-0.008740132
-0.090721908
-0.009775291
-0.094966264
-0.010867069
-0.099397061
-0.012019537
-0.10403077
-0.013236176
-0.1088739
-0.014521855
-0.11393546
-0.015880666
-0.11922599
-0.017317415
-0.12475435
-0.018837493
-0.13053157
-0.020445506
-0.13656848
-0.022147652
-0.14287655
-0.023949141
-0.14946779
-0.025855656
-0.1563558
-0.027873539
-0.16355322
-0.030008416
-0.17107518
-0.032267155
-0.17893656
-0.034655295
-0.18715405
-0.037178544
-0.19574524
-0.039843481
-0.20472819
-0.042655085
-0.2141233
-0.045618913
-0.2239515
-0.048739613
-0.23423572
-0.052022271
-0.24499997
-0.055469917
-0.25627054
-0.059086191
-0.2680748
-0.062874183
-0.28044209
-0.066835553
-0.29340406
-0.070971406
-0.30699409
-0.075282373
-0.32124758
-0.079768398
-0.33620174
-0.084428219
-0.35189752
-0.089260274
-0.36837585
-0.094261405
-0.38568252
-0.099428696
-0.40386443
-0.10475761
-0.42297153
-0.1102427
-0.44305678
-0.11587846
-0.46417604
-0.12165694
-0.48638884
-0.12757073
-0.50975706
-0.13360979
-0.53434738
-0.13976378
-0.56022951
-0.146021
-0.58747765
-0.15236734
-0.6161707
-0.15878766
-0.64639199
-0.16526415
-0.67823023
-0.17177755
-0.71177876
-0.17830547
-0.7471386
-0.18482261
-0.7844153
-0.19130102
-0.82372211
-0.19770808
-0.86517877
-0.20400797
-0.9089125
-0.21015946
-0.95505839
-0.21611662
-1.0037595
-0.22182753
-1.0551672
-0.22723315
-1.1094414
-0.23226806
-1.1667515
-0.23686
-1.2272722
-0.24092474
-1.2912027
-0.24437172
-1.3587381
-0.24710359
-1.4300957
-0.24900345
-1.5055129
-0.24994123
-1.5852167
-0.24977853
-1.6694516
-0.24835031
-1.7584731
-0.24549049
-1.8525581
-0.24102363
-1.9520009
-0.234706
-2.057156
-0.22631081
-2.1685417
-2.2858258
-0.00032588752
-0.047516727
-0.00092974136
-0.059179804
-0.0014200095
-0.058132903
-0.0020618437
-0.06293418
-0.0026335706
-0.064876134
-0.0033591026
-0.068362691
-0.0040387502
-0.071416641
-0.0048263318
-0.074783588
-0.00561203
-0.078313181
-0.006458579
-0.081933647
-0.0073460317
-0.085791012
-0.0082857993
-0.089782293
-0.0092804265
-0.093971806
-0.01033333
-0.09834434
-0.011448966
-0.10291534
-0.012631906
-0.10769118
-0.013886114
-0.1126815
-0.015217565
-0.1178948
-0.016631088
-0.12334111
-0.01813235
-0.12903063
-0.019727187
-0.13497399
-0.021421589
-0.14118253
-0.023221855
-0.14766794
-0.025135206
-0.15444291
-0.027167097
-0.16152184
-0.029324988
-0.16891784
-0.031614993
-0.17664716
-0.034043908
-0.1847258
-0.036618209
-0.19317167
-0.039343913
-0.20200329
-0.04222671
-0.21124138
-0.045272295
-0.22090688
-0.048485749
-0.23102332
-0.051871079
-0.24161581
-0.055432477
-0.25271041
-0.059173408
-0.26433526
-0.063096014
-0.27652101
-0.06720253
-0.28929922
-0.071494271
-0.30270418
-0.075971802
-0.31677205
-0.080634965
-0.33154077
-0.085483765
-0.34705112
-0.090516139
-0.36334609
-0.095730551
-0.38047097
-0.10112454
-0.39847356
-0.10669482
-0.41740466
-0.11243782
-0.43731749
-0.11834926
-0.45826863
-0.12442399
-0.48031851
-0.1306562
-0.50352962
-0.13703955
-0.52796922
-0.1435659
-0.5537088
-0.15022686
-0.58082283
-0.15701231
-0.60939194
-0.16391116
-0.63950044
-0.17091059
-0.67123876
-0.17799541
-0.70470266
-0.18514891
-0.73999464
-0.19235198
-0.77722269
-0.19958256
-0.816503
-0.20681557
-0.8579583
-0.21402246
-0.90171931
-0.22117041
-0.94792539
-0.22822277
-0.99672339
-0.23513687
-1.0482708
-0.24186562
-1.1027318
-0.24835472
-1.1602832
-0.25454233
-1.2211071
-0.26036229
-1.2854071
-0.2657422
-1.3533845
-0.27058876
-1.4252772
-0.27481529
-1.5013163
-0.27830718
-1.5817565
-0.28094479
-1.6668479
-0.28259091
-1.7568635
-0.28310528
-1.8520842
-0.28233381
-1.9528185
-0.28006821
-2.0594675
-0.27612426
-2.1725294
-2.2916633
-0.00028390859
-0.047232845
-0.00086861977
-0.058595161
-0.0013179445
-0.057683641
-0.0019363733
-0.062315831
-0.002485272
-0.06432732
-0.0031894184
-0.067658639
-0.0038416024
-0.070764561
-0.0046048814
-0.074020423
-0.0053605482
-0.07755764
-0.0061748885
-0.081119442
-0.0070354963
-0.084930555
-0.0079490352
-0.088868916
-0.0089204097
-0.093000612
-0.0099530217
-0.097311924
-0.011051952
-0.10181663
-0.012222021
-0.10652135
-0.013468894
-0.11143488
-0.014797975
-0.11656601
-0.01621527
-0.12192413
-0.017727537
-0.1275187
-0.019340804
-0.1333611
-0.02106258
-0.13946117
-0.022899217
-0.14583175
-0.024858077
-0.15248454
-0.026946709
-0.15943375
-0.029171855
-0.16669329
-0.031541004
-0.17427867
-0.034060968
-0.18220655
-0.036738134
-0.1904953
-0.039579242
-0.19916305
-0.042590291
-0.20823128
-0.04577627
-0.21772194
-0.049141995
-0.22765874
-0.052692208
-0.23806684
-0.056430525
-0.24897346
-0.060359663
-0.26040762
-0.064482471
-0.27239984
-0.068800796
-0.28498269
-0.073315672
-0.29819127
-0.078028182
-0.3120617
-0.082938341
-0.32663296
-0.088045847
-0.34194619
-0.093350453
-0.3580443
-0.098851538
-0.37497295
-0.10454745
-0.392781
-0.11043682
-0.41151896
-0.11651758
-0.4312407
-0.1227876
-0.45200296
-0.12924439
-0.47386644
-0.13588445
-0.4968947
-0.1427045
-0.52115477
-0.14970028
-0.54671913
-0.15686652
-0.57366324
-0.16419774
-0.60206797
-0.17168674
-0.63201937
-0.1793256
-0.6636086
-0.18710416
-0.69693362
-0.19501202
-0.73209725
-0.20303555
-0.76921065
-0.21115938
-0.8083918
-0.21936603
-0.8497655
-0.22763472
-0.8934658
-0.23594156
-0.93963514
-0.24425828
-0.98842475
-0.25255386
-1.0399949
-0.26079108
-1.094516
-0.26892915
-1.1521684
-0.27691814
-1.2131435
-0.28470658
-1.2776462
-0.29223073
-1.3458901
-0.29942735
-1.4181127
-0.3062187
-1.4945592
-0.31251765
-1.5754943
-0.318219
-1.6611859
-0.32321098
-1.7519139
-0.3273778
-1.8479646
-0.33058945
-1.9496599
-0.33268863
-2.0574201
-0.33351169
-2.1717573
-2.292381
-0.00024586816
-0.046987008
-0.00081962297
-0.058021479
-0.001239195
-0.057264137
-0.0018822631
-0.061672847
-0.0024164799
-0.063793193
-0.0030957254
-0.066979494
-0.0037252582
-0.07013514
-0.0044469072
-0.073298894
-0.0051894082
-0.076815273
-0.0059883708
-0.080320625
-0.0068393803
-0.084079707
-0.0077452015
-0.087963269
-0.0087130005
-0.092033006
-0.009746692
-0.096278441
-0.01085204
-0.10071151
-0.012034796
-0.10533884
-0.013301199
-0.11016876
-0.014657922
-0.11520959
-0.016111746
-0.12047064
-0.017669368
-0.12596145
-0.019339386
-0.13169148
-0.021128223
-0.13767277
-0.023044709
-0.14391575
-0.025096079
-0.1504337
-0.027290114
-0.1572403
-0.029634841
-0.1643492
-0.032137595
-0.17177662
-0.03480527
-0.17953965
-0.037645183
-0.18765623
-0.040663226
-0.19614593
-0.043864901
-0.20503062
-0.047255775
-0.21433218
-0.050840192
-0.22407554
-0.05462227
-0.2342861
-0.058605223
-0.24499198
-0.062791803
-0.25622265
-0.067184196
-0.26800921
-0.071784065
-0.28038475
-0.076593122
-0.29338432
-0.081612019
-0.3070451
-0.086841648
-0.32140585
-0.092282755
-0.33650783
-0.097935793
-0.35239426
-0.10380074
-0.36911128
-0.10987842
-0.38670691
-0.11616928
-0.405232
-0.12267327
-0.42474098
-0.12939079
-0.44529009
-0.13632199
-0.46694031
-0.14346705
-0.48975516
-0.15082519
-0.51380265
-0.1583966
-0.53915429
-0.16617979
-0.56588722
-0.17417327
-0.59408236
-0.18237501
-0.62382623
-0.19078179
-0.65521128
-0.19938979
-0.68833602
-0.20819348
-0.72330502
-0.21718646
-0.76023029
-0.22636053
-0.79923162
-0.23570488
-0.84043641
-0.2452075
-0.88397993
-0.2548532
-0.93000778
-0.26462426
-0.97867374
-0.27449895
-1.0301421
-0.2844521
-1.0845867
-0.29445386
-1.1421926
-0.30447096
-1.2031547
-0.31446216
-1.2676858
-0.32438415
-1.3360017
-0.33418944
-1.4083437
-0.34381393
-1.4849739
-0.35319583
-1.5661545
-0.36225442
-1.6521726
-0.37090121
-1.7433162
-0.37903643
-1.8398841
-0.38656444
-1.9421928
-0.39336111
-2.0506826
-0.3993118
-2.165867
-2.2876162
-0.00021204909
-0.046774996
-0.00078648529
-0.057447118
-0.0011832775
-0.056867417
-0.0018436061
-0.061012608
-0.0023561391
-0.063280755
-0.0030265829
-0.066309157
-0.0036496583
-0.069512183
-0.0043666108
-0.07258207
-0.0051118988
-0.076070128
-0.0059113478
-0.079521329
-0.0067702569
-0.083220968
-0.0076886949
-0.087045015
-0.0086751674
-0.091046739
-0.0097344762
-0.095219354
-0.010873294
-0.09957294
-0.012098321
-0.10411408
-0.013416728
-0.10885065
-0.014835827
-0.11379081
-0.016364029
-0.1189428
-0.018009221
-0.12431665
-0.019779638
-0.1299215
-0.021684144
-0.13576873
-0.023730828
-0.14186959
-0.025928337
-0.14823676
-0.028285317
-0.15488394
-0.030809094
-0.16182611
-0.033507428
-0.16907904
-0.036387526
-0.17666038
-0.039456062
-0.1845886
-0.042718186
-0.1928848
-0.046180245
-0.20156965
-0.049846012
-0.21066761
-0.05372019
-0.22020268
-0.057805483
-0.23020224
-0.062104645
-0.24069438
-0.066620548
-0.25170846
-0.07135506
-0.26327657
-0.076309664
-0.2754322
-0.081486053
-0.28821018
-0.086885991
-0.30164762
-0.092510955
-0.31578357
-0.098362699
-0.33065902
-0.10444285
-0.34631731
-0.11075397
-0.36280367
-0.11729835
-0.38016635
-0.12407832
-0.3984562
-0.13109748
-0.41772637
-0.13835826
-0.43803427
-0.14586462
-0.45943937
-0.15361981
-0.48200588
-0.16162762
-0.5058013
-0.1698909
-0.53089807
-0.17841343
-0.55737243
-0.18719849
-0.58530578
-0.19624858
-0.61478546
-0.20556614
-0.64590398
-0.21515326
-0.67876022
-0.22501069
-0.71346007
-0.23513857
-0.75011619
-0.24553565
-0.78884975
-0.25620041
-0.8297884
-0.26712817
-0.87307058
-0.27831342
-0.91884275
-0.28974828
-0.96726101
-0.3014222
-1.0184924
-0.31332186
-1.0727135
-0.32543075
-1.1301126
-0.33772663
-1.1908903
-0.35018799
-1.2552589
-0.36278502
-1.3234423
-0.37548109
-1.3956886
-0.38824689
-1.4722526
-0.40102962
-1.55342
-0.4137739
-1.6394802
-0.42641255
-1.7307341
-0.43888202
-1.8274777
-0.45109572
-1.9300485
-0.46297537
-2.038871
-0.47445494
-2.15446
-2.2769432
-0.00019078902
-0.04658425
-0.00078454486
-0.056853443
-0.0011775051
-0.056474536
-0.0018301506
-0.060360057
-0.0023356314
-0.062775377
-0.0030119238
-0.065632978
-0.0036500952
-0.068874137
-0.0043737722
-0.071858528
-0.0051408474
-0.075303204
-0.0059617776
-0.078700561
-0.0068503016
-0.082332626
-0.0078055739
-0.086089939
-0.0088371798
-0.090015351
-0.0099511691
-0.094105602
-0.011155255
-0.098369117
-0.012457305
-0.10281232
-0.013865745
-0.10744252
-0.015389375
-0.11226753
-0.017036795
-0.11729576
-0.0188179
-0.12253596
-0.020741447
-0.12799841
-0.022817034
-0.13369365
-0.025053414
-0.13963376
-0.027459604
-0.14583118
-0.030044033
-0.15230018
-0.032814669
-0.15905621
-0.035778423
-0.16611609
-0.038942323
-0.17349736
-0.042311723
-0.18122017
-0.045892516
-0.18930507
-0.049688413
-0.19777492
-0.053703465
-0.20665384
-0.0579409
-0.21596664
-0.06240322
-0.22574145
-0.067092824
-0.23600645
-0.072011887
-0.24679123
-0.07716204
-0.25812842
-0.082545693
-0.27005073
-0.088164739
-0.28259352
-0.094021861
-0.29579311
-0.10011991
-0.30968838
-0.10646222
-0.32431983
-0.1130529
-0.33973003
-0.11989618
-0.3559641
-0.12699687
-0.37306972
-0.13436085
-0.39109664
-0.14199392
-0.41009815
-0.14990265
-0.43013082
-0.15809373
-0.45125407
-0.16657461
-0.47353133
-0.17535276
-0.49703007
-0.18443659
-0.52182182
-0.19383378
-0.54798356
-0.20355263
-0.57559607
-0.21360091
-0.60474726
-0.22398741
-0.63552858
-0.2347194
-0.66804051
-0.24580465
-0.7023884
-0.25725049
-0.73868535
-0.2690638
-0.77705302
-0.28125021
-0.81762028
-0.29381496
-0.86052598
-0.30676196
-0.90591791
-0.32009366
-0.95395363
-0.33381117
-1.0048015
-0.34791322
-1.0586406
-0.36239604
-1.1156617
-0.37725291
-1.1760684
-0.3924781
-1.240072
-0.40805363
-1.3079087
-0.42397011
-1.3798181
-0.44020432
-1.4560686
-0.45673625
-1.5369426
-0.47353675
-1.622739
-0.49056071
-1.713775
-0.50776149
-1.8103492
-0.52508154
-1.9128072
-0.54248129
-2.0215496
-0.55993641
-2.137092
-2.2598737
-0.00017234054
-0.046411957
-0.00079476155
-0.056231104
-0.0011944144
-0.056074966
-0.0018583037
-0.059696266
-0.002376514
-0.062257274
-0.0030674411
-0.064942169
-0.0037361393
-0.06820557
-0.0044834909
-0.071111319
-0.0052907347
-0.074496119
-0.0061556593
-0.077835808
-0.007097974
-0.081390503
-0.0081175841
-0.085070536
-0.009224819
-0.088908347
-0.010427374
-0.092903298
-0.011734286
-0.097062484
-0.013154856
-0.10139205
-0.014698809
-0.10589891
-0.016376215
-0.11059049
-0.018197308
-0.11547507
-0.020171971
-0.12056174
-0.022310565
-0.12586031
-0.024622627
-0.13138213
-0.027117289
-0.1371397
-0.029803658
-0.14314547
-0.032689438
-0.14941512
-0.03578183
-0.1559646
-0.039087957
-0.16281083
-0.042612591
-0.16997367
-0.046360874
-0.17747293
-0.050336646
-0.18533044
-0.054543249
-0.19356957
-0.058983659
-0.20221479
-0.063659187
-0.2112926
-0.068573027
-0.22082924
-0.073726583
-0.23085467
-0.079121788
-0.24139797
-0.084761527
-0.2524908
-0.090648078
-0.26416649
-0.096785633
-0.2764585
-0.10317798
-0.28940352
-0.10982978
-0.3030396
-0.11674659
-0.31740631
-0.12393513
-0.33254509
-0.13140232
-0.34850084
-0.13915624
-0.3653201
-0.14720585
-0.38305173
-0.15556049
-0.40174865
-0.1642303
-0.42146663
-0.17322646
-0.44226405
-0.18256018
-0.46420434
-0.19224384
-0.48735379
-0.2022893
-0.51178446
-0.21271048
-0.53757129
-0.22352023
-0.56479613
-0.23473294
-0.59354538
-0.2463621
-0.6239114
-0.2584227
-0.65599316
-0.27092901
-0.68989677
-0.28389554
-0.72573508
-0.29733771
-0.76362884
-0.31126944
-0.80370844
-0.32570541
-0.84611195
-0.34065988
-0.89098762
-0.3561463
-0.93849381
-0.37217698
-0.98880002
-0.38876391
-1.0420857
-0.40591767
-1.0985431
-0.42364792
-1.1583767
-0.44195882
-1.2218035
-0.46085707
-1.289057
-0.48034542
-1.360381
-0.50042765
-1.4360427
-0.52110226
-1.5163296
-0.5423599
-1.6015486
-0.56419499
-1.692014
-0.58657643
-1.7880501
-0.60948078
-1.8899916
-0.63288388
-1.9982381
-0.65681125
-2.1132688
-2.2358519
-0.00015837457
-0.046253634
-0.00082269971
-0.055566865
-0.0012361465
-0.055661607
-0.0019300991
-0.059002416
-0.0024785991
-0.061708888
-0.0031982601
-0.064222633
-0.0039178684
-0.067486101
-0.0047099824
-0.070319355
-0.0055802967
-0.073625973
-0.0065163258
-0.076899961
-0.0075417127
-0.08036532
-0.0086585531
-0.083953916
-0.0098782359
-0.08768891
-0.01121052
-0.091571281
-0.012665971
-0.095607331
-0.01425563
-0.09980272
-0.015990606
-0.10416429
-0.017882089
-0.1086994
-0.019941156
-0.11341644
-0.022178546
-0.11832483
-0.024604301
-0.12343508
-0.027228271
-0.12875874
-0.030059556
-0.13430905
-0.033105592
-0.14010013
-0.036373809
-0.14614767
-0.039870083
-0.15246917
-0.043599196
-0.15908264
-0.047565409
-0.16600847
-0.051771798
-0.17326764
-0.056220662
-0.18088278
-0.060913733
-0.18887781
-0.065853082
-0.19727688
-0.071040158
-0.2061071
-0.076476725
-0.21539439
-0.08216528
-0.225168
-0.088108512
-0.23545678
-0.09430991
-0.24629164
-0.10077459
-0.25770426
-0.10750696
-0.26972879
-0.11451411
-0.28239928
-0.12180297
-0.29575392
-0.12938289
-0.30982987
-0.13726234
-0.32466943
-0.14545217
-0.34031516
-0.15396437
-0.35681243
-0.16281064
-0.37421043
-0.17200467
-0.39256006
-0.18156095
-0.4119163
-0.19149421
-0.43233731
-0.20182083
-0.45388487
-0.21255713
-0.47662535
-0.22372145
-0.50062879
-0.23533129
-0.52597096
-0.24740591
-0.55273203
-0.25996551
-0.5809974
-0.27303039
-0.61085939
-0.28662149
-0.64241633
-0.30076144
-0.67577264
-0.31547257
-0.71104148
-0.33077762
-0.74834323
-0.34670063
-0.78780695
-0.36326617
-0.82957019
-0.38049879
-0.87378124
-0.39842294
-0.92059858
-0.41706473
-0.97019007
-0.43644894
-1.0227365
-0.45660026
-1.0784302
-0.47754313
-1.1374762
-0.49930003
-1.2000932
-0.52189676
-1.2665117
-0.54535431
-1.3369802
-0.56969364
-1.411766
-0.59493837
-1.4911539
-0.62111307
-1.5754499
-0.64822889
-1.6649822
-0.67629124
-1.7600807
-0.7052958
-1.8610866
-0.73525434
-1.9683869
-0.76620301
-2.082445
-2.204249
-0.00015041887
-0.046103271
-0.00087548915
-0.054841883
-0.0013080557
-0.055229131
-0.0020458202
-0.058264758
-0.0026453007
-0.061109525
-0.0034116661
-0.063456397
-0.0042052161
-0.066692697
-0.0050669402
-0.069457788
-0.0060259945
-0.072667096
-0.0070644616
-0.075861685
-0.0082080567
-0.079221939
-0.0094624414
-0.082699764
-0.010840499
-0.086311114
-0.012354023
-0.090058041
-0.014015372
-0.093946299
-0.01583685
-0.097981589
-0.017830728
-0.1021708
-0.02000883
-0.10652172
-0.02238261
-0.11104313
-0.024962731
-0.11574522
-0.027759156
-0.12063922
-0.030780465
-0.12573805
-0.034034185
-0.13105601
-0.03752702
-0.13660804
-0.041263594
-0.14241191
-0.045248186
-0.14848547
-0.049482947
-0.15484886
-0.053970007
-0.16152248
-0.058710767
-0.16852805
-0.063705926
-0.1758889
-0.068956748
-0.18362839
-0.074464095
-0.19177105
-0.080230141
-0.20034271
-0.086257094
-0.20936925
-0.092548821
-0.21887825
-0.099109275
-0.22889848
-0.1059447
-0.23945856
-0.11306132
-0.25059021
-0.12046812
-0.26232479
-0.1281736
-0.27469686
-0.13618946
-0.2877414
-0.14452632
-0.30149665
-0.15319792
-0.31600183
-0.16221869
-0.33129876
-0.17160346
-0.34743244
-0.18136882
-0.3644503
-0.19153236
-0.38240225
-0.20211261
-0.40134234
-0.21312949
-0.42132734
-0.22460328
-0.44241866
-0.23655628