/*--------------------------------*- C++ -*----------------------------------*\
  =========                 |
  \\      /  F ield         | OpenFOAM: The Open Source CFD Toolbox
   \\    /   O peration     | Website:  https://openfoam.org
    \\  /    A nd           | Version:  12
     \\/     M anipulation  |
\*---------------------------------------------------------------------------*/
FoamFile
{
    format      ascii;
    class       volScalarField;
    location    "0.127";
    object      rho;
}
// * * * * * * * * * * * * * * * * * * * * * * * * * * * * * * * * * * * * * //

dimensions      [1 -3 0 0 0 0 0];

internalField   nonuniform List<scalar> 
16000
(
1.0584596
1.0909797
1.0788505
1.0871371
1.0833209
1.0867381
1.0857668
1.0875773
1.0877255
1.0889273
1.0895755
1.0905848
1.0914583
1.0924503
1.0934416
1.0944848
1.0955601
1.0966753
1.0978283
1.0990201
1.1002508
1.1015202
1.1028282
1.1041743
1.105558
1.1069782
1.108434
1.1099239
1.1114461
1.1129989
1.1145798
1.1161865
1.117816
1.1194653
1.1211311
1.1228098
1.1244975
1.1261904
1.1278843
1.129575
1.1312582
1.1329297
1.1345851
1.1362203
1.1378313
1.1394141
1.1409652
1.1424811
1.1439588
1.1453952
1.1467881
1.1481351
1.1494345
1.1506847
1.1518846
1.1530334
1.1541304
1.1551753
1.1561682
1.157109
1.157998
1.1588356
1.1596221
1.160358
1.1610437
1.1616795
1.1622659
1.1628034
1.1632929
1.1637357
1.1641327
1.1644849
1.1647923
1.1650541
1.1652697
1.1654446
1.1656
1.165559
1.1659749
1.1651926
1.0552256
1.0882659
1.0756
1.0843598
1.080317
1.0840016
1.082929
1.0849101
1.0850513
1.0863549
1.0870546
1.0881389
1.0890861
1.0901523
1.0912239
1.092348
1.0935082
1.0947105
1.0959537
1.0972383
1.0985641
1.0999309
1.1013382
1.1027854
1.1042713
1.1057948
1.1073544
1.1089481
1.1105738
1.1122292
1.1139114
1.1156174
1.1173438
1.119087
1.1208432
1.1226082
1.1243777
1.1261473
1.1279125
1.1296687
1.1314114
1.133136
1.1348381
1.1365136
1.1381585
1.139769
1.1413416
1.1428734
1.1443614
1.1458033
1.147197
1.1485409
1.1498337
1.1510743
1.1522622
1.1533969
1.1544785
1.155507
1.1564828
1.1574064
1.1582783
1.1590992
1.1598697
1.1605906
1.1612622
1.161885
1.1624594
1.1629859
1.1634652
1.1638983
1.1642862
1.1646298
1.1649286
1.1651815
1.1653889
1.165558
1.1656728
1.1657279
1.1659505
1.1653322
1.052286
1.0857797
1.0727529
1.0818018
1.077619
1.0815054
1.0804046
1.0825057
1.0826889
1.084076
1.0848498
1.0860109
1.0870439
1.0881932
1.0893553
1.0905707
1.0918263
1.0931265
1.0944702
1.0958576
1.0972884
1.0987618
1.1002772
1.1018334
1.1034291
1.1050625
1.1067316
1.1084342
1.1101675
1.1119285
1.1137139
1.11552
1.1173428
1.1191782
1.1210216
1.1228684
1.1247137
1.1265528
1.1283806
1.1301922
1.131983
1.1337483
1.1354836
1.1371848
1.1388482
1.1404703
1.1420481
1.1435787
1.1450601
1.1464903
1.1478679
1.1491919
1.1504615
1.1516765
1.1528367
1.1539424
1.154994
1.1559923
1.156938
1.1578319
1.1586749
1.1594681
1.1602122
1.1609081
1.1615565
1.1621578
1.1627124
1.1632207
1.1636832
1.1641008
1.1644745
1.1648048
1.1650911
1.1653324
1.1655292
1.1656829
1.1657815
1.1658632
1.1659504
1.1655113
1.0496691
1.0835354
1.0700829
1.0795044
1.0751877
1.0793058
1.0781821
1.0804208
1.0806549
1.0821382
1.0829998
1.0842495
1.0853826
1.0866279
1.0878938
1.0892134
1.0905767
1.0919866
1.0934422
1.0949433
1.0964892
1.0980791
1.0997118
1.1013858
1.1030992
1.1048499
1.1066354
1.1084526
1.1102982
1.1121686
1.1140597
1.115967
1.117886
1.1198116
1.1217387
1.1236621
1.1255764
1.1274762
1.1293564
1.1312117
1.1330373
1.1348286
1.1365813
1.1382914
1.1399557
1.1415711
1.143135
1.1446455
1.1461009
1.1475002
1.1488427
1.150128
1.1513561
1.1525276
1.1536429
1.1547031
1.155709
1.1566618
1.1575629
1.1584135
1.1592148
1.159968
1.1606742
1.1613345
1.1619495
1.1625199
1.163046
1.163528
1.1639665
1.1643619
1.1647151
1.1650265
1.1652955
1.1655211
1.1657025
1.1658371
1.1659255
1.1659994
1.1660081
1.1656971
1.0474125
1.0816641
1.0678241
1.0775332
1.0730752
1.0774657
1.0763319
1.078714
1.0790197
1.0806068
1.081575
1.0829227
1.0841693
1.0855212
1.0869012
1.0883349
1.0898153
1.0913442
1.0929208
1.0945446
1.0962148
1.09793
1.0996887
1.1014888
1.1033279
1.105203
1.107111
1.1090479
1.1110097
1.1129919
1.1149893
1.1169969
1.119009
1.1210201
1.1230241
1.1250153
1.1269878
1.1289359
1.130854
1.132737
1.1345801
1.1363787
1.1381291
1.1398278
1.141472
1.1430594
1.1445881
1.1460572
1.1474657
1.1488135
1.1501008
1.1513281
1.1524962
1.1536065
1.1546601
1.1556586
1.1566037
1.1574969
1.1583401
1.1591348
1.1598825
1.1605848
1.1612429
1.1618579
1.1624307
1.1629619
1.1634517
1.1639005
1.1643083
1.1646755
1.1650028
1.1652904
1.1655378
1.1657438
1.1659056
1.1660201
1.1660973
1.1661478
1.1660993
1.1658962
1.0455601
1.0801809
1.0659963
1.0760107
1.0714583
1.0760586
1.0749132
1.0774593
1.0778524
1.0795488
1.0806354
1.0820845
1.0834512
1.0849162
1.0864172
1.0879734
1.0895801
1.0912381
1.0929464
1.0947042
1.0965099
1.0983617
1.1002572
1.1021936
1.1041676
1.1061753
1.1082124
1.1102742
1.1123554
1.1144504
1.1165533
1.1186578
1.1207576
1.122846
1.1249167
1.126963
1.1289789
1.1309583
1.1328959
1.1347864
1.1366253
1.1384089
1.1401337
1.1417972
1.1433973
1.1449327
1.1464027
1.1478072
1.1491463
1.150421
1.1516325
1.1527821
1.1538716
1.154903
1.1558784
1.1567999
1.1576696
1.1584898
1.1592625
1.1599897
1.1606731
1.1613144
1.1619149
1.162476
1.1629984
1.1634827
1.1639294
1.1643383
1.1647095
1.1650431
1.1653394
1.1655984
1.16582
1.1660027
1.1661414
1.1662347
1.1662978
1.166316
1.1662245
1.1661146
1.0441098
1.0790942
1.0645969
1.0749494
1.0703068
1.0751103
1.0740105
1.0766862
1.0771833
1.078965
1.0801769
1.0817313
1.0832284
1.0848191
1.0864551
1.0881495
1.0898986
1.0917022
1.0935588
1.0954666
1.0974233
1.0994263
1.101472
1.1035567
1.1056758
1.1078243
1.1099968
1.1121872
1.114389
1.1165955
1.1187996
1.1209939
1.1231712
1.1253242
1.1274459
1.1295294
1.1315683
1.1335569
1.1354898
1.1373624
1.139171
1.1409125
1.1425844
1.1441854
1.1457146
1.1471718
1.1485576
1.1498731
1.1511196
1.1522993
1.1534142
1.1544668
1.1554597
1.1563957
1.1572774
1.1581077
1.1588891
1.1596242
1.1603153
1.1609647
1.1615744
1.162146
1.1626809
1.1631805
1.1636456
1.1640768
1.1644742
1.1648378
1.1651673
1.1654626
1.1657235
1.16595
1.1661422
1.166298
1.1664106
1.166482
1.1665277
1.166507
1.1663814
1.1663592
1.0430009
1.0783468
1.0635625
1.0742969
1.0695564
1.0745844
1.0735143
1.0763836
1.076906
1.0788025
1.0801735
1.0818595
1.0835135
1.0852558
1.0870509
1.0889071
1.0908211
1.092792
1.0948173
1.0968945
1.0990202
1.1011905
1.1034008
1.1056458
1.1079197
1.110216
1.1125277
1.1148474
1.1171673
1.1194791
1.1217748
1.124046
1.1262846
1.1284829
1.1306334
1.1327292
1.1347643
1.1367333
1.1386315
1.1404554
1.1422022
1.1438702
1.1454583
1.1469666
1.1483956
1.1497467
1.1510219
1.1522234
1.1533542
1.1544173
1.1554159
1.1563533
1.1572331
1.1580586
1.158833
1.1595596
1.1602414
1.1608812
1.1614816
1.1620448
1.162573
1.1630678
1.1635306
1.1639628
1.164365
1.1647377
1.1650811
1.1653949
1.1656786
1.1659317
1.1661538
1.1663446
1.1665043
1.16663
1.1667143
1.1667637
1.1667889
1.1667247
1.1665734
1.1666338
1.0422288
1.0779252
1.0628769
1.0740731
1.0691489
1.0743428
1.0733615
1.0762698
1.0771013
1.0791407
1.0807012
1.0825437
1.0843793
1.0862993
1.0882785
1.0903212
1.0924242
1.0945855
1.0968014
1.0990682
1.101381
1.1037346
1.1061225
1.1085381
1.1109735
1.1134207
1.115871
1.1183152
1.1207441
1.1231483
1.1255184
1.1278455
1.1301209
1.1323366
1.1344853
1.1365607
1.1385573
1.1404707
1.1422978
1.1440364
1.1456853
1.1472445
1.1487149
1.150098
1.1513964
1.1526129
1.1537511
1.1548147
1.1558078
1.1567344
1.1575989
1.1584052
1.1591576
1.1598599
1.1605157
1.1611287
1.161702
1.1622386
1.162741
1.1632117
1.1636526
1.1640654
1.1644515
1.1648118
1.165147
1.1654576
1.1657434
1.1660041
1.166239
1.1664472
1.1666277
1.1667805
1.1669054
1.1669984
1.1670532
1.1670806
1.1670823
1.1669715
1.1668038
1.1669438
1.0418268
1.0778642
1.0625786
1.0741992
1.0691363
1.0745868
1.0737506
1.076858
1.0778704
1.0800575
1.0818369
1.0838636
1.0859077
1.0880339
1.0902246
1.0924809
1.0947989
1.0971747
1.0996036
1.1020799
1.1045971
1.1071477
1.1097236
1.1123156
1.1149142
1.1175091
1.1200897
1.1226454
1.1251653
1.1276389
1.1300562
1.1324076
1.1346847
1.1368797
1.1389863
1.1409991
1.1429142
1.1447291
1.1464424
1.148054
1.1495651
1.1509777
1.1522948
1.1535201
1.1546578
1.1557125
1.1566892
1.157593
1.158429
1.1592022
1.1599177
1.1605801
1.1611939
1.1617633
1.1622923
1.1627845
1.1632431
1.1636711
1.164071
1.1644451
1.1647952
1.1651229
1.1654292
1.1657151
1.165981
1.1662271
1.1664532
1.1666588
1.166843
1.1670045
1.167142
1.1672554
1.167344
1.1674026
1.1674274
1.1674334
1.1674082
1.1672482
1.1670737
1.1672948
1.0418611
1.0782332
1.0627191
1.0745338
1.0696112
1.0753486
1.0747197
1.0779844
1.0792693
1.0816313
1.0836641
1.0859092
1.0881925
1.0905568
1.0929893
1.0954881
1.098048
1.1006634
1.1033272
1.1060315
1.1087675
1.111525
1.1142934
1.117061
1.1198158
1.1225454
1.1252374
1.1278794
1.1304596
1.1329668
1.1353906
1.137722
1.1399531
1.1420777
1.1440909
1.1459898
1.1477726
1.1494395
1.1509916
1.1524318
1.1537635
1.1549914
1.1561207
1.157157
1.1581065
1.1589753
1.1597696
1.1604956
1.1611591
1.1617661
1.1623217
1.1628311
1.1632989
1.1637295
1.1641268
1.1644943
1.1648351
1.1651521
1.1654475
1.1657234
1.1659814
1.1662228
1.1664485
1.166659
1.1668548
1.1670357
1.1672015
1.1673513
1.1674841
1.1675983
1.1676924
1.167766
1.1678175
1.1678409
1.1678366
1.1678218
1.1677663
1.1675572
1.1673873
1.1676881
1.0424132
1.0791049
1.0633976
1.0755076
1.0707511
1.0767295
1.0763569
1.079799
1.0813952
1.08396
1.0862803
1.0887818
1.0913386
1.0939761
1.0966835
1.0994561
1.1022865
1.1051661
1.1080852
1.1110327
1.1139964
1.1169632
1.1199192
1.1228501
1.1257413
1.1285784
1.1313472
1.1340344
1.1366276
1.1391158
1.1414896
1.1437413
1.1458652
1.1478575
1.1497164
1.1514421
1.1530361
1.154502
1.1558441
1.1570682
1.1581807
1.1591885
1.1600991
1.16092
1.1616587
1.1623226
1.1629189
1.1634544
1.1639354
1.164368
1.1647578
1.1651098
1.1654285
1.1657182
1.1659825
1.1662248
1.1664478
1.166654
1.1668456
1.1670241
1.1671909
1.167347
1.167493
1.1676293
1.1677558
1.1678723
1.1679783
1.168073
1.1681549
1.1682223
1.1682737
1.1683082
1.1683227
1.1683114
1.1682798
1.1682445
1.1681554
1.1679021
1.1677493
1.168121
1.0434787
1.080486
1.0646123
1.0771413
1.0725438
1.0787634
1.0787272
1.0823612
1.0843308
1.0871407
1.0897892
1.0925931
1.0954645
1.0984157
1.1014356
1.1045157
1.1076451
1.1108114
1.1140009
1.1171986
1.1203885
1.1235537
1.1266772
1.1297418
1.1327306
1.1356276
1.1384177
1.1410876
1.1436259
1.1460233
1.1482728
1.1503699
1.1523127
1.1541013
1.1557381
1.1572274
1.1585749
1.1597877
1.1608737
1.1618416
1.1627004
1.1634591
1.164127
1.1647129
1.1652254
1.1656724
1.1660617
1.1664003
1.1666946
1.1669506
1.1671736
1.1673684
1.1675392
1.1676898
1.1678235
1.1679433
1.1680514
1.1681501
1.1682409
1.1683251
1.1684038
1.1684775
1.1685466
1.168611
1.1686706
1.168725
1.1687733
1.1688146
1.1688473
1.1688696
1.16888
1.1688769
1.1688555
1.1688112
1.168755
1.1686991
1.1685742
1.1682873
1.1681644
1.1685865
1.0451103
1.0824274
1.0664228
1.0793957
1.0750718
1.081543
1.0819331
1.0857842
1.0881886
1.0912989
1.0943233
1.0974836
1.1007183
1.1040287
1.1074004
1.1108201
1.114272
1.1177388
1.1212019
1.1246415
1.1280375
1.1313692
1.1346163
1.1377594
1.1407801
1.1436622
1.1463915
1.1489567
1.1513496
1.1535647
1.1555999
1.1574559
1.1591359
1.1606453
1.1619917
1.163184
1.1642319
1.1651463
1.1659382
1.1666186
1.1671986
1.1676888
1.1680992
1.1684396
1.1687188
1.168945
1.1691257
1.1692678
1.1693774
1.1694599
1.1695202
1.1695626
1.1695907
1.1696078
1.1696167
1.1696196
1.1696185
1.1696151
1.1696105
1.1696055
1.1696009
1.1695968
1.1695932
1.1695899
1.1695864
1.1695819
1.1695757
1.1695666
1.1695527
1.1695325
1.1695046
1.1694661
1.169411
1.169337
1.1692595
1.1691818
1.1690199
1.1687153
1.1686349
1.1690761
1.0473685
1.0849881
1.0689391
1.0823997
1.0784349
1.0851691
1.08609
1.0902002
1.0931104
1.0965949
1.1000557
1.1036351
1.1072865
1.111001
1.114759
1.1185409
1.1223249
1.1260878
1.1298054
1.1334529
1.1370056
1.1404395
1.1437322
1.1468634
1.1498158
1.1525756
1.1551328
1.1574811
1.1596184
1.1615459
1.1632684
1.1647931
1.1661298
1.1672896
1.1682851
1.1691297
1.1698367
1.1704198
1.1708921
1.1712664
1.1715546
1.1717681
1.1719172
1.1720113
1.1720592
1.1720687
1.1720466
1.1719991
1.1719317
1.171849
1.1717553
1.171654
1.1715482
1.1714405
1.1713328
1.1712271
1.1711247
1.1710266
1.1709337
1.1708463
1.1707647
1.1706887
1.170618
1.1705521
1.1704903
1.1704316
1.1703751
1.1703193
1.1702625
1.1702034
1.1701403
1.1700694
1.1699839
1.1698847
1.1697895
1.1696892
1.1694888
1.1691805
1.1691575
1.1695806
1.0503111
1.0882009
1.0722872
1.0862244
1.0827544
1.0897772
1.0913614
1.0958049
1.0993038
1.1032516
1.1072156
1.1112758
1.1153914
1.1195438
1.1237064
1.1278522
1.131952
1.1359755
1.1398924
1.1436729
1.1472888
1.150715
1.1539299
1.1569166
1.1596629
1.1621619
1.1644115
1.1664144
1.1681771
1.1697097
1.1710248
1.172137
1.1730621
1.1738166
1.1744173
1.1748805
1.1752223
1.1754576
1.1756007
1.1756647
1.1756616
1.1756024
1.1754968
1.1753536
1.1751807
1.1749848
1.1747719
1.1745474
1.1743155
1.1740802
1.1738447
1.1736118
1.1733836
1.1731619
1.1729484
1.1727441
1.1725497
1.172366
1.1721931
1.1720312
1.1718799
1.171739
1.1716077
1.1714853
1.1713708
1.1712633
1.1711613
1.1710635
1.1709681
1.1708741
1.1707797
1.1706797
1.1705679
1.170449
1.1703405
1.1702175
1.1699786
1.1696716
1.1697171
1.1701152
1.0540072
1.0920738
1.0765945
1.0910178
1.088233
1.0956101
1.0980069
1.1028781
1.1070459
1.1115441
1.1160714
1.1206614
1.1252723
1.1298744
1.1344315
1.1389067
1.1432616
1.1474588
1.1514626
1.1552411
1.1587673
1.1620202
1.1649854
1.1676551
1.1700282
1.1721091
1.1739077
1.1754374
1.1767153
1.1777601
1.1785921
1.1792319
1.1797001
1.1800168
1.1802011
1.1802709
1.1802429
1.1801322
1.1799526
1.1797165
1.1794351
1.1791181
1.1787741
1.1784105
1.178034
1.1776502
1.1772637
1.1768788
1.1764986
1.1761262
1.1757638
1.1754132
1.175076
1.1747531
1.1744455
1.1741537
1.173878
1.1736184
1.1733748
1.1731468
1.1729341
1.1727357
1.1725508
1.1723785
1.1722177
1.172067
1.1719251
1.1717903
1.1716613
1.1715369
1.171415
1.1712898
1.1711565
1.1710237
1.1709053
1.1707611
1.1704902
1.1701893
1.1703012
1.1706883
1.0586436
1.0967493
1.0820887
1.0971061
1.0952023
1.1029963
1.1063479
1.1117418
1.1166466
1.1217733
1.1269131
1.1320633
1.1371723
1.1421953
1.1470829
1.151787
1.1562615
1.1604654
1.1643644
1.1679326
1.1711526
1.1740166
1.1765248
1.1786852
1.1805118
1.1820237
1.1832433
1.1841955
1.184906
1.1854007
1.1857052
1.1858438
1.1858393
1.185713
1.1854842
1.1851704
1.1847874
1.1843491
1.1838677
1.1833541
1.1828177
1.1822665
1.1817075
1.1811465
1.1805888
1.1800383
1.1794986
1.1789726
1.1784626
1.1779703
1.1774972
1.1770443
1.1766123
1.1762016
1.1758124
1.1754448
1.1750986
1.1747733
1.1744684
1.1741834
1.1739174
1.1736693
1.1734382
1.1732229
1.1730221
1.1728343
1.1726581
1.1724918
1.1723342
1.1721843
1.1720389
1.1718926
1.171743
1.1716015
1.1714755
1.1713121
1.171022
1.1707398
1.1709082
1.1712825
1.0645026
1.1027974
1.0891687
1.1048279
1.1040075
1.1122583
1.1167118
1.1227467
1.1284581
1.1342837
1.1400637
1.1457602
1.1513043
1.1566334
1.1616869
1.1664111
1.170762
1.1747073
1.1782269
1.1813129
1.1839689
1.1862079
1.1880508
1.1895241
1.1906581
1.1914854
1.192039
1.1923517
1.1924548
1.1923778
1.1921481
1.1917906
1.1913276
1.1907792
1.190163
1.1894946
1.1887873
1.188053
1.1873016
1.1865417
1.1857807
1.1850245
1.1842784
1.1835465
1.1828324
1.1821387
1.1814678
1.1808213
1.1802005
1.1796062
1.179039
1.1784991
1.1779867
1.1775015
1.1770433
1.1766115
1.1762054
1.1758245
1.1754678
1.1751345
1.1748233
1.1745333
1.1742631
1.1740115
1.173777
1.1735582
1.1733534
1.1731611
1.1729802
1.1728092
1.1726448
1.1724817
1.1723209
1.1721751
1.1720434
1.1718645
1.1715687
1.171322
1.1715365
1.171871
1.0717749
1.1107647
1.0980348
1.1144053
1.1150137
1.12381
1.129533
1.136359
1.1429334
1.1494771
1.155841
1.1619535
1.1677303
1.1731007
1.1780073
1.1824097
1.1862848
1.1896266
1.1924439
1.194758
1.1965997
1.1980062
1.1990188
1.1996803
1.2000332
1.2001186
1.1999753
1.1996388
1.1991417
1.1985129
1.1977781
1.1969599
1.1960779
1.1951491
1.1941881
1.1932073
1.1922173
1.1912269
1.1902436
1.1892735
1.1883217
1.1873923
1.1864887
1.1856134
1.1847685
1.1839554
1.1831751
1.1824284
1.1817155
1.1810365
1.1803912
1.1797793
1.1792002
1.1786533
1.1781378
1.1776527
1.1771972
1.1767701
1.1763704
1.175997
1.1756485
1.1753237
1.1750213
1.1747398
1.1744777
1.1742336
1.1740056
1.1737925
1.1735932
1.1734058
1.1732263
1.1730511
1.1728841
1.1727371
1.1726007
1.172411
1.1721239
1.1719274
1.172173
1.1724354
1.0805865
1.1205068
1.1092825
1.1263833
1.1288601
1.1383376
1.1454531
1.1531698
1.1605544
1.1676704
1.1743662
1.1805533
1.1861547
1.1911198
1.1954228
1.199062
1.2020552
1.2044369
1.2062523
1.2075542
1.2083987
1.2088423
1.20894
1.2087432
1.2082997
1.2076521
1.2068387
1.205893
1.2048441
1.2037172
1.2025337
1.201312
1.2000674
1.1988129
1.1975594
1.1963157
1.1950893
1.1938862
1.1927111
1.191568
1.1904598
1.1893888
1.1883567
1.1873647
1.1864134
1.1855033
1.1846344
1.1838063
1.1830188
1.1822712
1.1815626
1.1808923
1.1802592
1.1796622
1.1791001
1.1785718
1.178076
1.1776115
1.1771769
1.176771
1.1763922
1.1760393
1.1757108
1.1754052
1.1751211
1.1748568
1.1746107
1.1743816
1.1741683
1.1739685
1.1737783
1.1735955
1.1734264
1.17328
1.1731396
1.1729443
1.1726762
1.1725312
1.1727872
1.1729693
1.091673
1.1329313
1.1238092
1.1416999
1.1464893
1.1567289
1.1651678
1.1736528
1.1815292
1.1887735
1.1952616
1.2009334
1.205761
1.2097508
1.2129367
1.2153728
1.2171266
1.2182729
1.2188885
1.2190482
1.2188228
1.218277
1.2174689
1.2164497
1.2152637
1.2139494
1.2125392
1.2110607
1.2095369
1.2079871
1.2064272
1.2048704
1.2033274
1.2018069
1.200316
1.1988602
1.1974439
1.1960705
1.1947425
1.1934617
1.1922293
1.1910461
1.1899123
1.1888278
1.1877925
1.1868056
1.1858665
1.1849741
1.1841275
1.1833254
1.1825667
1.1818499
1.1811738
1.180537
1.1799379
1.1793752
1.1788473
1.1783529
1.1778906
1.1774587
1.1770559
1.1766806
1.1763315
1.176007
1.1757056
1.1754257
1.1751659
1.174925
1.1747016
1.174493
1.1742957
1.1741095
1.1739414
1.1737968
1.1736532
1.1734574
1.173214
1.1731122
1.1733625
1.1734892
1.1065867
1.1491301
1.1428819
1.1614178
1.1688623
1.1797501
1.1890336
1.1977215
1.2053689
1.211954
1.2174415
1.2218556
1.2252553
1.2277266
1.2293702
1.2302928
1.2306002
1.230392
1.2297593
1.2287831
1.2275339
1.2260721
1.224449
1.2227076
1.2208836
1.2190064
1.2171003
1.2151848
1.213276
1.2113868
1.2095273
1.2077056
1.2059282
1.2041997
1.202524
1.2009036
1.1993403
1.1978354
1.1963895
1.1950026
1.1936745
1.1924048
1.1911926
1.1900369
1.1889367
1.1878905
1.186897
1.1859548
1.1850623
1.1842179
1.1834201
1.1826671
1.1819574
1.1812893
1.1806612
1.1800715
1.1795185
1.1790007
1.1785165
1.1780644
1.1776427
1.1772501
1.1768849
1.1765458
1.1762312
1.1759396
1.1756697
1.1754203
1.1751899
1.1749755
1.1747744
1.1745881
1.1744233
1.1742807
1.1741348
1.1739431
1.1737289
1.1736663
1.1739025
1.1739831
1.1268078
1.1703958
1.1679251
1.1865548
1.1963614
1.2073646
1.2164742
1.2242842
1.2306297
1.2355775
1.2392228
1.2417028
1.2431692
1.2437765
1.2436715
1.2429876
1.2418421
1.2403358
1.2385538
1.2365666
1.2344322
1.2321979
1.2299019
1.2275748
1.2252411
1.2229201
1.2206272
1.2183742
1.2161702
1.2140224
1.2119359
1.2099144
1.2079607
1.2060763
1.2042623
1.2025188
1.2008458
1.1992427
1.1977087
1.1962425
1.1948428
1.1935083
1.1922372
1.1910279
1.1898787
1.1887876
1.187753
1.1867728
1.1858453
1.1849685
1.1841406
1.1833598
1.1826242
1.181932
1.1812814
1.1806707
1.1800982
1.1795622
1.1790611
1.1785933
1.1781571
1.1777511
1.1773737
1.1770234
1.1766989
1.1763986
1.1761214
1.1758661
1.175631
1.1754132
1.1752111
1.1750272
1.1748666
1.1747259
1.1745791
1.1743965
1.1742161
1.1741877
1.1743953
1.174422
1.154923
1.197522
1.2000398
1.2180029
1.2281813
1.237976
1.2455159
1.2511962
1.2551442
1.2575973
1.2587901
1.2589529
1.2582927
1.2569896
1.2551951
1.2530339
1.2506071
1.2479957
1.2452636
1.2424614
1.2396284
1.2367949
1.2339847
1.2312156
1.2285012
1.2258516
1.2232743
1.2207745
1.2183559
1.2160206
1.21377
1.2116045
1.2095237
1.2075271
1.2056134
1.2037813
1.2020292
1.2003551
1.1987572
1.1972334
1.1957816
1.1943997
1.1930854
1.1918367
1.1906512
1.1895268
1.1884613
1.1874527
1.1864987
1.1855974
1.1847467
1.1839445
1.1831891
1.1824783
1.1818104
1.1811835
1.1805958
1.1800458
1.1795316
1.1790516
1.1786042
1.1781879
1.1778012
1.1774425
1.1771105
1.1768038
1.1765214
1.176262
1.1760236
1.1758041
1.1756028
1.1754223
1.1752657
1.1751265
1.1749813
1.1748129
1.1746661
1.1746614
1.1748344
1.1748179
1.1935131
1.2323089
1.2380312
1.2532441
1.2623064
1.2691641
1.2735106
1.2758911
1.2766641
1.2761927
1.2747745
1.2726555
1.270031
1.2670539
1.2638421
1.2604856
1.2570527
1.2535944
1.2501491
1.2467451
1.2434032
1.2401383
1.2369611
1.2338789
1.2308963
1.2280163
1.2252402
1.2225683
1.2200001
1.2175344
1.2151694
1.2129033
1.2107338
1.2086585
1.2066748
1.20478
1.2029717
1.201247
1.1996032
1.1980378
1.1965481
1.1951314
1.1937852
1.192507
1.1912943
1.1901447
1.1890557
1.1880252
1.1870508
1.1861303
1.1852616
1.1844426
1.1836713
1.1829457
1.1822638
1.1816238
1.181024
1.1804625
1.1799376
1.1794477
1.1789913
1.1785667
1.1781724
1.177807
1.1774691
1.1771576
1.1768711
1.1766085
1.1763679
1.1761477
1.1759478
1.1757703
1.1756163
1.1754785
1.1753393
1.1751914
1.1750753
1.1750754
1.1751906
1.1751606
1.2407764
1.2731236
1.280225
1.2899583
1.2948233
1.2971394
1.2972931
1.2959301
1.2934811
1.2902892
1.2866054
1.2826144
1.2784495
1.2742066
1.2699541
1.2657403
1.261599
1.2575534
1.253619
1.249806
1.2461204
1.2425655
1.2391422
1.2358502
1.2326881
1.2296535
1.2267436
1.2239555
1.2212856
1.2187307
1.216287
1.213951
1.2117192
1.209588
1.207554
1.2056138
1.2037641
1.2020016
1.2003232
1.1987259
1.1972066
1.1957626
1.1943908
1.1930888
1.1918537
1.190683
1.1895743
1.1885251
1.1875331
1.1865959
1.1857115
1.1848775
1.1840921
1.1833531
1.1826586
1.1820067
1.1813957
1.1808237
1.180289
1.1797901
1.1793252
1.1788929
1.1784917
1.1781202
1.1777769
1.1774609
1.1771707
1.1769051
1.1766627
1.1764422
1.1762437
1.1760681
1.1759152
1.175779
1.1756489
1.1755229
1.1754274
1.1754111
1.1754759
1.1754669
1.2945056
1.3150431
1.3195617
1.3219121
1.3211204
1.3184862
1.3146197
1.3100076
1.304969
1.2997198
1.2944033
1.2891134
1.2839116
1.2788368
1.273913
1.2691543
1.2645679
1.2601564
1.2559195
1.2518546
1.2479581
1.2442254
1.2406514
1.2372308
1.2339582
1.2308281
1.2278353
1.2249745
1.2222407
1.219629
1.2171348
1.2147535
1.2124808
1.2103124
1.2082445
1.2062732
1.2043947
1.2026056
1.2009024
1.1992819
1.1977409
1.1962763
1.1948852
1.1935648
1.1923123
1.1911251
1.1900007
1.1889365
1.1879302
1.1869794
1.1860819
1.1852356
1.1844384
1.1836882
1.182983
1.1823211
1.1817005
1.1811196
1.1805765
1.1800698
1.1795977
1.1791588
1.1787516
1.1783747
1.1780268
1.1777067
1.1774133
1.1771451
1.176901
1.1766802
1.1764824
1.1763076
1.1761547
1.1760197
1.1758974
1.1757888
1.1757098
1.1756836
1.1757018
1.1756748
1.3470499
1.3503364
1.3491216
1.3446862
1.3388893
1.3323532
1.3255395
1.318688
1.3119442
1.3053867
1.2990581
1.2929784
1.2871546
1.2815857
1.2762662
1.271188
1.2663418
1.2617174
1.2573048
1.2530942
1.2490758
1.2452405
1.2415798
1.2380853
1.2347493
1.2315646
1.2285244
1.2256222
1.2228521
1.2202082
1.2176853
1.2152782
1.2129823
1.2107929
1.2087056
1.2067165
1.2048217
1.2030173
1.2012998
1.1996658
1.198112
1.1966354
1.1952328
1.1939015
1.1926385
1.1914413
1.1903072
1.1892337
1.1882184
1.187259
1.1863532
1.1854989
1.184694
1.1839364
1.1832242
1.1825554
1.1819284
1.1813412
1.1807924
1.1802801
1.1798029
1.1793591
1.1789475
1.1785666
1.1782152
1.1778919
1.1775956
1.1773252
1.1770797
1.1768583
1.1766604
1.1764853
1.1763317
1.1761979
1.1760825
1.175987
1.1759155
1.1758723
1.1758515
1.1758285
1.3808955
1.3733639
1.3658721
1.3576576
1.3491232
1.3406806
1.3324951
1.3246405
1.3171453
1.3100125
1.3032336
1.2967942
1.2906772
1.2848646
1.2793388
1.2740829
1.2690811
1.2643185
1.2597814
1.2554571
1.251334
1.2474013
1.2436491
1.2400681
1.23665
1.2333868
1.2302713
1.2272967
1.2244566
1.2217452
1.2191569
1.2166864
1.214329
1.2120799
1.2099347
1.2078894
1.2059399
1.2040825
1.2023136
1.2006298
1.1990278
1.1975044
1.1960566
1.1946816
1.1933764
1.1921385
1.1909651
1.1898539
1.1888023
1.187808
1.1868689
1.1859826
1.1851471
1.1843603
1.1836202
1.182925
1.1822729
1.181662
1.1810907
1.1805573
1.1800602
1.1795979
1.179169
1.178772
1.1784057
1.1780688
1.1777601
1.1774785
1.1772231
1.1769932
1.1767879
1.1766059
1.1764463
1.1763089
1.1761949
1.1761041
1.1760329
1.1759749
1.1759305
1.1759146
1.1634856
1.1680819
1.1825968
1.1944038
1.1998718
1.2011311
1.2012005
1.200872
1.2009049
1.2006165
1.2003609
1.1998067
1.1992162
1.198574
1.1978884
1.1971629
1.1964017
1.1956106
1.1947944
1.1939572
1.193103
1.1922352
1.191357
1.1904714
1.1895809
1.1886879
1.1877946
1.1869028
1.1860146
1.1851314
1.184255
1.1833867
1.1825281
1.1816804
1.1808448
1.1800228
1.1792153
1.1784237
1.1776491
1.1768925
1.1761552
1.1754381
1.1747424
1.1740692
1.1734195
1.1727943
1.1721946
1.1716214
1.1710754
1.1705576
1.1700687
1.1696093
1.1691798
1.1687808
1.1684124
1.1680747
1.1677677
1.167491
1.1672444
1.1670271
1.1668381
1.1666763
1.1665402
1.166428
1.166338
1.1662664
1.166213
1.1661684
1.1661437
1.1661067
1.166115
1.1660502
1.1661207
1.165963
1.1661578
1.1657729
1.1661791
1.1654542
1.1661715
1.1649658
1.1592722
1.1701744
1.1863832
1.1946689
1.1969237
1.1968344
1.1963069
1.1960579
1.1957404
1.1954375
1.1950443
1.1946495
1.1942071
1.1937289
1.1932115
1.1926626
1.1920828
1.1914752
1.190842
1.1901855
1.1895081
1.188812
1.1880995
1.1873728
1.186634
1.1858854
1.1851291
1.184367
1.1836012
1.1828336
1.1820661
1.1813005
1.1805386
1.1797822
1.1790329
1.1782923
1.1775621
1.1768437
1.1761387
1.1754486
1.1747748
1.1741186
1.1734815
1.1728647
1.1722696
1.1716974
1.1711491
1.170626
1.170129
1.1696591
1.169217
1.1688034
1.168419
1.1680641
1.1677389
1.1674435
1.1671778
1.1669415
1.1667342
1.1665551
1.1664032
1.1662771
1.1661754
1.1660963
1.1660378
1.1659964
1.1659712
1.1659539
1.1659536
1.1659419
1.1659689
1.1659298
1.1660102
1.1658796
1.1660772
1.165724
1.1661213
1.1654188
1.1661465
1.1649288
1.1598391
1.1732179
1.18487
1.1912255
1.1921959
1.1917194
1.1912136
1.1909531
1.1906602
1.1903782
1.1900468
1.1897118
1.189342
1.1889595
1.1885501
1.1881211
1.1876691
1.1871963
1.1867028
1.1861894
1.1856571
1.1851069
1.18454
1.1839577
1.1833613
1.1827522
1.182132
1.1815023
1.1808647
1.1802209
1.1795725
1.1789214
1.1782693
1.177618
1.1769693
1.1763248
1.1756864
1.1750558
1.1744348
1.173825
1.1732281
1.1726457
1.1720795
1.1715309
1.1710014
1.1704926
1.1700057
1.1695419
1.1691025
1.1686885
1.1683008
1.1679402
1.1676072
1.1673024
1.167026
1.166778
1.1665583
1.1663667
1.1662025
1.1660651
1.1659532
1.1658656
1.1658008
1.1657569
1.1657317
1.1657219
1.1657264
1.1657376
1.1657627
1.1657768
1.1658239
1.1658095
1.1659022
1.1657957
1.1659947
1.1656733
1.1660646
1.1653829
1.1661215
1.164894
1.1575988
1.1718961
1.1825471
1.1872434
1.1870781
1.1866924
1.186251
1.1860523
1.1857368
1.1854862
1.185175
1.1848928
1.1845791
1.1842688
1.1839382
1.183599
1.1832446
1.1828774
1.1824958
1.1820999
1.1816894
1.1812644
1.1808252
1.1803719
1.1799053
1.1794259
1.1789347
1.1784324
1.1779204
1.1773998
1.176872
1.1763384
1.1758005
1.17526
1.1747184
1.1741775
1.1736391
1.1731048
1.1725765
1.1720561
1.1715451
1.1710455
1.170559
1.1700873
1.169632
1.1691948
1.168777
1.1683802
1.1680055
1.1676542
1.1673273
1.1670255
1.1667497
1.1665003
1.1662775
1.1660814
1.1659119
1.1657686
1.1656511
1.1655584
1.1654894
1.1654428
1.165417
1.16541
1.1654199
1.1654432
1.1654785
1.1655189
1.1655705
1.1656107
1.165679
1.165689
1.1657955
1.165711
1.1659135
1.1656212
1.1660105
1.1653476
1.1660975
1.1648621
1.1520103
1.1683226
1.1781645
1.1816933
1.1811514
1.1810654
1.1807068
1.1806462
1.1804052
1.1802717
1.180051
1.1798769
1.1796602
1.1794564
1.1792305
1.1789998
1.1787548
1.1784993
1.1782311
1.1779503
1.1776566
1.1773498
1.1770298
1.1766969
1.1763512
1.1759931
1.175623
1.1752415
1.1748495
1.1744477
1.1740372
1.1736192
1.1731948
1.1727654
1.1723325
1.1718976
1.1714623
1.1710284
1.1705975
1.1701714
1.169752
1.169341
1.1689403
1.1685516
1.1681767
1.1678172
1.1674748
1.1671509
1.1668468
1.1665639
1.1663033
1.1660657
1.165852
1.1656625
1.1654977
1.1653576
1.1652421
1.1651507
1.1650829
1.1650378
1.1650143
1.1650109
1.165026
1.1650578
1.165104
1.1651616
1.1652288
1.1652993
1.1653782
1.1654448
1.1655351
1.1655693
1.1656903
1.165627
1.1658356
1.1655687
1.165958
1.1653137
1.1660743
1.1648329
1.14605
1.1647908
1.1732676
1.1761619
1.1754692
1.1756389
1.1753249
1.1754018
1.1752257
1.1752039
1.1750643
1.1749917
1.1748643
1.1747582
1.1746269
1.1744942
1.1743466
1.1741902
1.1740225
1.1738437
1.1736537
1.1734521
1.173239
1.1730142
1.1727778
1.1725299
1.1722707
1.1720006
1.1717199
1.1714294
1.1711297
1.1708217
1.1705063
1.1701846
1.169858
1.1695276
1.169195
1.1688617
1.1685293
1.1681996
1.1678741
1.1675548
1.1672434
1.1669416
1.1666512
1.1663739
1.1661113
1.165865
1.1656362
1.1654263
1.1652364
1.1650673
1.1649199
1.1647945
1.1646915
1.164611
1.1645526
1.1645162
1.1645009
1.164506
1.1645302
1.1645719
1.1646298
1.1647018
1.1647857
1.1648785
1.1649785
1.1650797
1.1651864
1.1652798
1.1653925
1.1654508
1.1655865
1.1655443
1.1657602
1.1655166
1.1659075
1.1652819
1.1660501
1.1648065
1.1408701
1.1614388
1.1684271
1.1710232
1.1702317
1.1706025
1.1702967
1.1704835
1.1703465
1.1704128
1.1703354
1.1703495
1.1702967
1.1702681
1.17021
1.170156
1.1700887
1.1700156
1.1699335
1.1698425
1.1697424
1.1696326
1.1695131
1.1693835
1.1692438
1.1690939
1.168934
1.168764
1.1685844
1.1683954
1.1681976
1.1679917
1.1677783
1.1675583
1.1673328
1.1671029
1.1668698
1.1666349
1.1663997
1.1661657
1.1659345
1.1657077
1.1654871
1.1652742
1.1650709
1.1648786
1.1646989
1.1645334
1.1643833
1.1642499
1.1641343
1.1640373
1.1639597
1.1639017
1.1638638
1.1638459
1.1638477
1.1638688
1.1639085
1.1639659
1.1640397
1.1641283
1.1642303
1.1643437
1.1644664
1.1645953
1.1647287
1.1648612
1.164996
1.1651165
1.1652518
1.1653337
1.1654855
1.1654641
1.1656873
1.1654653
1.1658595
1.1652526
1.1660249
1.1647832
1.1360533
1.1584324
1.1638981