/*--------------------------------*- C++ -*----------------------------------*\
  =========                 |
  \\      /  F ield         | OpenFOAM: The Open Source CFD Toolbox
   \\    /   O peration     | Website:  https://openfoam.org
    \\  /    A nd           | Version:  12
     \\/     M anipulation  |
\*---------------------------------------------------------------------------*/
FoamFile
{
    format      ascii;
    class       volScalarField;
    location    "0.127";
    object      T;
}
// * * * * * * * * * * * * * * * * * * * * * * * * * * * * * * * * * * * * * //

dimensions      [0 0 0 1 0 0 0];

internalField   nonuniform List<scalar> 
16000
(
294.94434
286.55234
289.8115
288.03071
289.12901
288.62553
289.04445
288.93469
289.12997
289.16373
289.28385
289.36806
289.47269
289.5747
289.68263
289.79383
289.9091
290.02831
290.15153
290.27877
290.41004
290.54533
290.6846
290.82779
290.97484
291.12565
291.28008
291.43798
291.59917
291.76343
291.93052
292.10017
292.27209
292.44593
292.62134
292.79796
292.97539
293.1532
293.33097
293.50828
293.68468
293.85973
294.03301
294.20411
294.37261
294.53816
294.7004
294.85901
295.0137
295.16422
295.31036
295.45194
295.58881
295.72086
295.84802
295.97024
296.08751
296.19986
296.30733
296.41002
296.50807
296.60163
296.69091
296.77614
296.85762
296.93572
297.01079
297.08318
297.15321
297.22112
297.28722
297.35201
297.41626
297.48088
297.54651
297.61323
297.68502
297.74155
297.85349
297.87389
294.64341
286.15225
289.55223
287.68039
288.8455
288.30518
288.75913
288.64008
288.84966
288.88887
289.01593
289.10898
289.22073
289.33151
289.44781
289.56794
289.69233
289.82095
289.95384
290.09099
290.23239
290.37801
290.52778
290.68162
290.83942
291.00103
291.16629
291.33499
291.50691
291.68177
291.85929
292.03913
292.22093
292.40433
292.5889
292.77422
292.95984
293.14531
293.33016
293.51394
293.69616
293.87639
294.05419
294.22914
294.40085
294.56897
294.73318
294.89318
295.04873
295.19963
295.3457
295.48681
295.62288
295.75384
295.87967
296.00037
296.11599
296.22658
296.33224
296.43309
296.52929
296.62105
296.70855
296.79208
296.87193
296.94846
297.02206
297.0931
297.16191
297.22874
297.29386
297.35771
297.42101
297.48465
297.54945
297.61603
297.68376
297.75047
297.83983
297.88938
294.35728
285.78183
289.28178
287.37327
288.57782
288.02738
288.49504
288.38368
288.59813
288.64906
288.7816
288.88514
289.00496
289.12543
289.25124
289.38135
289.51599
289.65515
289.79883
289.94701
290.09966
290.25668
290.418
290.58348
290.75298
290.92629
291.1032
291.28344
291.46674
291.65276
291.84114
292.03149
292.22338
292.41638
292.61002
292.8038
292.99723
293.18981
293.38104
293.57041
293.75746
293.94171
294.12274
294.30014
294.47354
294.64263
294.80712
294.96677
295.12139
295.27083
295.41499
295.5538
295.68723
295.81528
295.938
296.05545
296.16772
296.27492
296.37717
296.47466
296.56758
296.65614
296.74057
296.82116
296.89821
296.9721
297.04321
297.11194
297.17863
297.24355
297.30694
297.36918
297.4309
297.493
297.55641
297.62149
297.68742
297.7569
297.83559
297.89882
294.09458
285.44279
289.06426
287.10288
288.3432
287.78259
288.26423
288.16219
288.38203
288.44622
288.58526
288.70051
288.8297
288.96106
289.09767
289.23897
289.38506
289.53592
289.69153
289.85182
290.01673
290.18615
290.35993
290.53791
290.71987
290.90557
291.09472
291.287
291.48204
291.67945
291.87879
292.0796
292.28137
292.48359
292.68573
292.88724
293.08758
293.28619
293.48254
293.67613
293.86647
294.05309
294.23559
294.41359
294.58678
294.75487
294.91765
295.07495
295.22663
295.37264
295.51295
295.64755
295.7765
295.89988
296.01779
296.13036
296.23772
296.34005
296.43752
296.53033
296.61872
296.70292
296.78319
296.85982
296.93313
297.00348
297.07127
297.13691
297.20075
297.26308
297.32413
297.38421
297.44387
297.50401
297.56553
297.62864
297.69321
297.76208
297.83381
297.90738
293.85553
285.13923
288.85769
286.87756
288.15367
287.57922
288.07114
287.98292
288.20677
288.28679
288.43309
288.56136
288.70128
288.84464
288.99326
289.1469
289.30557
289.46923
289.63785
289.81132
289.98954
290.17235
290.35955
290.55092
290.74616
290.94497
291.14698
291.35178
291.55891
291.76788
291.97818
292.18925
292.40051
292.61136
292.8212
293.02944
293.23547
293.43872
293.63865
293.83472
294.02648
294.21349
294.39539
294.57185
294.74261
294.90748
295.06632
295.21905
295.36563
295.50607
295.64045
295.76886
295.89142
296.00829
296.11964
296.22567
296.32656
296.42255
296.51384
296.60068
296.68331
296.76201
296.83705
296.90871
296.97733
297.04326
297.10691
297.16868
297.22895
297.28802
297.3461
297.40344
297.46053
297.51821
297.57731
297.63809
297.70109
297.76779
297.83514
297.91464
293.64403
284.87863
288.68514
286.68964
287.98858
287.42359
287.9265
287.85206
288.07961
288.17647
288.33087
288.47294
288.62471
288.78099
288.94269
289.10974
289.28212
289.45975
289.64256
289.8304
290.02309
290.22042
290.42211
290.62784
290.83724
291.04989
291.26533
291.48302
291.70243
291.92294
292.14393
292.36476
292.58475
292.80324
293.01955
293.23305
293.4431
293.64912
293.85056
294.04693
294.2378
294.42279
294.60161
294.77401
294.93985
295.09901
295.25147
295.39724
295.5364
295.66907
295.79541
295.91561
296.02988
296.13846
296.24158
296.3395
296.43247
296.52075
296.6046
296.68427
296.76006
296.83224
296.90108
296.9669
297.03
297.09075
297.14953
297.20675
297.26279
297.31797
297.3725
297.42659
297.48064
297.53539
297.59159
297.64972
297.71072
297.7744
297.83808
297.92162
293.46297
284.66257
288.5458
286.53814
287.85876
287.31731
287.81866
287.77228
287.99907
288.117
288.28049
288.43713
288.60217
288.77265
288.94891
289.13092
289.31861
289.51182
289.71043
289.91419
290.12286
290.33609
290.55353
290.77473
290.99921
291.22641
291.45574
291.68655
291.91817
292.14987
292.38092
292.61058
292.83808
293.0627
293.28371
293.50045
293.71229
293.91865
294.11902
294.31298
294.50017
294.68031
294.85321
295.01874
295.17687
295.32762
295.47108
295.6074
295.73677
295.85943
295.97563
296.08566
296.18982
296.28842
296.38175
296.47013
296.55384
296.63319
296.70846
296.77994
296.84791
296.91267
296.9745
297.03369
297.09057
297.14546
297.19874
297.25081
297.30205
297.35279
297.40325
297.4536
297.50417
297.55557
297.60842
297.66358
297.72211
297.78221
297.84255
297.9285
293.31018
284.48899
288.43641
286.42162
287.75882
287.24378
287.74734
287.71072
287.96807
288.10683
288.28201
288.45508
288.63582
288.82274
289.01587
289.21509
289.42028
289.6312
289.84761
290.06918
290.29554
290.52623
290.76073
290.99848
291.23883
291.48108
291.72449
291.96826
292.21159
292.45362
292.69352
292.93044
293.16356
293.39211
293.61535
293.83262
294.04332
294.24695
294.44308
294.63138
294.81162
294.98366
295.14744
295.303
295.45043
295.58993
295.72171
295.84607
295.96331
296.07379
296.17786
296.2759
296.36829
296.45539
296.53755
296.61513
296.68845
296.75784
296.82359
296.886
296.94537
297.00198
297.05613
297.10808
297.15815
297.20664
297.25391
297.30033
297.34629
297.39212
297.43806
297.48426
297.53098
297.57861
297.62775
297.67961
297.73523
297.79131
297.84845
297.93553
293.18077
284.35601
288.36043
286.34041
287.70788
287.24099
287.73791
287.7614
287.99
288.15
288.3404
288.53245
288.73188
288.93798
289.15065
289.36967
289.59484
289.8258
290.06219
290.30354
290.54933
290.79892
291.05166
291.30677
291.56344
291.8208
292.07794
292.3339
292.58773
292.83847
293.08518
293.32695
293.56294
293.79236
294.01451
294.22879
294.43469
294.63182
294.81991
294.99878
295.16836
295.3287
295.47992
295.62222
295.7559
295.88129
295.99876
296.10874
296.21166
296.30797
296.39814
296.48259
296.56177
296.6361
296.70596
296.77174
296.83377
296.89238
296.94789
297.00058
297.05076
297.09869
297.14465
297.18891
297.23174
297.27343
297.3143
297.3547
297.39501
297.43556
297.4766
297.5183
297.56083
297.60439
297.64951
297.69778
297.75001
297.80176
297.85588
297.94284
293.07403
284.26584
288.32334
286.30949
287.71104
287.27923
287.77374
287.82516
288.06923
288.25537
288.46453
288.67815
288.89925
289.12742
289.36245
289.60401
289.85173
290.10512
290.36365
290.62666
290.89342
291.1631
291.43483
291.70761
291.98044
292.25224
292.52192
292.78837
293.05052
293.3073
293.55772
293.80086
294.03589
294.2621
294.47888
294.68576
294.88241
295.06862
295.24431
295.40953
295.56443
295.70927
295.84438
295.97017
296.0871
296.19567
296.2964
296.38984
296.47653
296.557
296.63178
296.70137
296.76624
296.82683
296.88357
296.93682
296.98693
297.03424
297.07903
297.12159
297.16219
297.20111
297.23858
297.27485
297.31018
297.34481
297.37904
297.41318
297.44759
297.48258
297.51844
297.55536
297.59345
297.63267
297.67357
297.718
297.76632
297.81347
297.86492
297.95059
292.99358
284.2264
288.33102
286.39602
287.77229
287.38097
287.86801
287.96438
288.21755
288.43142
288.66338
288.90167
289.14776
289.40119
289.66167
289.92864
290.20158
290.47978
290.76247
291.04875
291.33764
291.62804
291.91883
292.20877
292.49661
292.78108
293.06093
293.3349
293.60185
293.86066
294.11036
294.35009
294.57914
294.79693
295.00307
295.1973
295.37955
295.54986
295.70842
295.85555
295.99166
296.11723
296.23283
296.33905
296.43653
296.52592
296.60786
296.683
296.75195
296.81531
296.87365
296.92749
296.97733
297.0236
297.06672
297.10705
297.14493
297.18067
297.21453
297.24678
297.27767
297.30744
297.33631
297.36449
297.39221
297.41968
297.44716
297.47492
297.50328
297.53256
297.56305
297.595
297.62842
297.66316
297.69975
297.74013
297.78397
297.8263
297.87566
297.95877
292.94577
284.25057
288.39181
286.53309
287.88001
287.55165
288.03225
288.17371
288.4437
288.68798
288.94711
289.21373
289.48848
289.77071
290.05992
290.35533
290.65614
290.96135
291.26988
291.58051
291.89195
292.20279
292.51159
292.81687
293.11716
293.411
293.69701
293.97387
294.24043
294.49564
294.73865
294.96878
295.18554
295.38865
295.578
295.75367
295.9159
296.06508
296.20172
296.3264
296.43981
296.54268
296.63577
296.71985
296.79571
296.86409
296.92573
296.98134
297.03159
297.07708
297.1184
297.15606
297.19055
297.2223
297.25168
297.27904
297.30469
297.32888
297.35187
297.37388
297.39513
297.41583
297.43617
297.45633
297.47649
297.49685
297.51761
297.539
297.56131
297.58481
297.60985
297.63668
297.6653
297.69545
297.72777
297.76395
297.80278
297.84016
297.88817
297.96708
292.93547
284.3444
288.5159
286.72204
288.05207
287.79844
288.2752
288.46554
288.75806
289.03606
289.32719
289.62645
289.93403
290.24894
290.5704
290.89726
291.22836
291.5623
291.89761
292.23266
292.56579
292.89525
293.21932
293.53626
293.84441
294.14222
294.42828
294.70134
294.96036
295.20453
295.43328
295.64626
295.84337
296.02471
296.19061
296.34155
296.47815
296.60116
296.71141
296.80978
296.89719
296.97458
297.04287
297.10295
297.1557
297.20195
297.24246
297.27796
297.30911
297.33652
297.36074
297.38227
297.40155
297.41896
297.43485
297.4495
297.4632
297.47615
297.48856
297.50063
297.51253
297.52443
297.53648
297.54884
297.56166
297.57509
297.58928
297.60444
297.62079
297.63858
297.65817
297.67984
297.70354
297.72911
297.75726
297.78916
297.82255
297.85496
297.90197
297.97591
292.96463
284.5154
288.70838
286.99646
288.29891
288.12922
288.60736
288.84979
289.17252
289.48883
289.81748
290.15445
290.4995
290.85123
291.20835
291.56927
291.9323
292.29556
292.65708
293.01483
293.36672
293.7107
294.04477
294.36704
294.67582
294.96958
295.24708
295.50733
295.74966
295.97366
296.17925
296.36659
296.5361
296.68839
296.82426
296.94464
297.05054
297.14306
297.22331
297.29241
297.35146
297.40153
297.44365
297.47877
297.50779
297.53156
297.55083
297.56629
297.57858
297.58825
297.59581
297.60169
297.60628
297.60991
297.61286
297.61538
297.61768
297.61993
297.6223
297.62492
297.62793
297.63146
297.63564
297.64057
297.64637
297.65316
297.66107
297.67024
297.68082
297.69308
297.70733
297.72383
297.74258
297.7636
297.78773
297.81531
297.84305
297.87063
297.91663
297.98496
293.0381
284.77664
288.97272
287.35785
288.63247
288.55558
289.04247
289.34121
289.70272
290.06333
290.43573
290.81597
291.20324
291.59553
291.99092
292.3872
292.78207
293.17309
293.55777
293.93362
294.29822
294.64927
294.98469
295.30264
295.60158
295.88033
296.13811
296.37445
296.5893
296.78292
296.95586
297.10894
297.24317
297.35971
297.45983
297.54488
297.6162
297.67515
297.72305
297.76116
297.79068
297.81273
297.82836
297.83852
297.84407
297.84581
297.84444
297.84059
297.8348
297.82758
297.81935
297.81046
297.80125
297.79196
297.78282
297.77402
297.7657
297.75799
297.751
297.74483
297.73958
297.73531
297.73213
297.73012
297.72935
297.72991
297.73189
297.73538
297.74051
297.74749
297.7566
297.76804
297.78186
297.7984
297.81861
297.84187
297.86401
297.88691
297.93132
297.9948
293.16024
285.14645
289.3054
287.82053
289.06646
289.09272
289.59871
289.95958
290.36954
290.78158
291.20417
291.63296
292.06631
292.50145
292.93571
293.36612
293.7897
294.2034
294.60425
294.98942
295.35633
295.70271
296.0267
296.32687
296.60228
296.85246
297.07741
297.27752
297.45357
297.60662
297.738
297.84918
297.94174
298.01734
298.07764
298.12426
298.15878
298.18269
298.19741
298.20423
298.20435
298.19885
298.18873
298.17485
298.15801
298.1389
298.11812
298.0962
298.07362
298.05076
298.02797
298.00551
297.98364
297.96254
297.94236
297.92322
297.90523
297.88845
297.87294
297.85876
297.84595
297.83456
297.82464
297.81625
297.80942
297.80422
297.8007
297.79892
297.79897
297.80101
297.80525
297.81182
297.82083
297.83298
297.84928
297.8682
297.88502
297.90376
297.94599
298.00508
293.33562
285.65412
289.71279
288.40221
289.62203
289.76381
290.30178
290.73185
291.19991
291.6704
292.14864
292.62964
293.11066
293.58804
294.05813
294.51716
294.96144
295.38742
295.79188
296.17199
296.52546
296.85057
297.14623
297.41195
297.64786
297.85457
298.03317
298.18509
298.31203
298.4159
298.4987
298.56246
298.60921
298.64093
298.65949
298.66666
298.66407
298.65323
298.6355
298.61212
298.58419
298.55267
298.51844
298.48226
298.44477
298.40654
298.36808
298.32979
298.29202
298.25508
298.21921
298.18459
298.15139
298.11973
298.0897
298.06134
298.03471
298.00983
297.98672
297.96537
297.9458
297.92802
297.91204
297.89788
297.88557
297.87513
297.86659
297.85997
297.85535
297.85285
297.85257
297.85455
297.859
297.86688
297.87913
297.89354
297.90551
297.92109
297.96129
298.01406
293.57555
286.34646
290.2383
289.13394
290.32992
290.59997
291.18407
291.69019
292.22471
292.75927
293.29637
293.83011
294.35631
294.87017
295.36702
295.84235
296.29206
296.71259
297.10109
297.45548
297.77452
298.05778
298.30555
298.51882
298.69911
298.84837
298.96883
299.06294
299.13324
299.18225
299.21247
299.22626
299.22586
299.21335
299.19064
299.15943
299.12128
299.07758
299.02953
298.97822
298.92457
298.86941
298.81343
298.75723
298.70132
298.64613
298.59202
298.53929
298.48818
298.43889
298.39156
298.3463
298.30321
298.26232
298.22367
298.18726
298.15308
298.12112
298.09133
298.0637
298.03819
298.01477
297.99343
297.97416
297.95695
297.94181
297.92874
297.91776
297.90891
297.90228
297.89786
297.89563
297.89588
297.89969
297.90771
297.91729
297.92485
297.93847
297.97728
298.0213
293.90653
287.20965
290.90875
290.05283
291.22775
291.63586
292.28168
292.87046
293.4778
294.07924
294.67404
295.255
295.81632
296.35209
296.85704
297.3266
297.75721
298.14634
298.49262
298.79572
299.05632
299.2759
299.45664
299.60119
299.71252
299.7938
299.84823
299.87898
299.88909
299.88141
299.8586
299.82309
299.77706
299.72248
299.66108
299.5944
299.52377
299.45036
299.37516
299.29903
299.22271
299.14682
299.07187
298.99829
298.92646
298.85664
298.78909
298.72397
298.66142
298.60155
298.54443
298.49008
298.43852
298.38974
298.34372
298.30041
298.25976
298.2217
298.18618
298.15312
298.12247
298.09416
298.06816
298.04442
298.02291
298.00362
297.98654
297.97166
297.95903
297.94867
297.94051
297.93449
297.931
297.93105
297.93478
297.93932
297.94261
297.95483
297.99279
298.02901
294.3687
288.18291
291.76643
291.19435
292.35924
292.91315
293.63727
294.31439
294.99617
295.66009
296.30177
296.91272
297.48613
298.01605
298.49797
298.92884
299.30718
299.63294
299.90737
300.13276
300.31219
300.44933
300.54813
300.61272
300.64716
300.6554
300.64116
300.60788
300.55867
300.49637
300.42347
300.34219
300.25445
300.16193
300.06607
299.96811
299.8691
299.76994
299.67137
299.57401
299.47839
299.38493
299.29396
299.20577
299.12056
299.03848
298.95967
298.88419
298.81208
298.74338
298.67806
298.6161
298.55745
298.50205
298.44984
298.40072
298.35461
298.31141
298.27103
298.23337
298.19834
298.16586
298.13586
298.10827
298.08304
298.06013
298.03952
298.0212
298.0052
297.99151
297.98
297.97063
297.96387
297.96054
297.96017
297.95985
297.95907
297.96948
298.00529
298.03622
295.01751
289.43942
292.85868
292.6102
293.78479
294.48976
295.30325
296.06642
296.81134
297.51727
298.17712
298.78264
299.32814
299.80993
300.22654
300.57843
300.86779
301.0981
301.27381
301.39996
301.48189
301.52494
301.53432
301.51495
301.47134
301.40762
301.32745
301.23408
301.13034
301.0187
300.90125
300.7798
300.6559
300.53082
300.40565
300.2813
300.15851
300.03789
299.91993
299.80505
299.69354
299.58565
299.48157
299.38141
299.28527
299.19318
299.10518
299.02123
298.94132
298.86538
298.79335
298.72514
298.66067
298.59982
298.54249
298.48856
298.43792
298.39044
298.346
298.30448
298.26578
298.22978
298.19639
298.16552
298.13711
298.11108
298.08742
298.0661
298.04713
298.03045
298.01594
298.00363
297.99402
297.98766
297.98357
297.97895
297.9747
297.98283
298.0148
298.04196
295.90989
291.03889
294.27058
294.37963
295.58298
296.43287
297.3272
298.1524
298.92448
299.62661
300.25259
300.79776
301.2609
301.64339
301.94893
302.18282
302.35151
302.46199
302.52145
302.53691
302.51501
302.46185
302.38294
302.28317
302.1668
302.03755
301.89856
301.75253
301.60174
301.44808
301.29314
301.13825
300.98448
300.83272
300.68369
300.53796
300.39599
300.25814
300.12466
299.99576
299.87158
299.7522
299.63766
299.52798
299.42313
299.32307
299.22773
299.13702
299.05085
298.96911
298.89168
298.81843
298.74924
298.68397
298.62247
298.56462
298.51026
298.45925
298.41146
298.36675
298.32498
298.28604
298.24981
298.21619
298.18508
298.15641
298.13012
298.10621
298.08463
298.06531
298.04814
298.03323
298.0211
298.01198
298.00454
297.99636
297.98938
297.99501
298.02181
298.04423
297.02924
293.10546
296.10737
296.58609
297.82025
298.7864
299.71666
300.54407
301.27518
301.9013
302.42253
302.84176
303.1651
303.40069
303.5579
303.64655
303.67638
303.65662
303.59575
303.50136
303.38011
303.23776
303.07924
302.90868
302.72957
302.54479
302.35674
302.16737
301.97828
301.79077
301.60588
301.42444
301.24711
301.07441
300.90672
300.74432
300.58744
300.4362
300.29069
300.15093
300.01693
299.88863
299.76599
299.64891
299.53728
299.43099
299.3299
299.23389
299.1428
299.05647
298.97476
298.89751
298.82455
298.75572
298.69087
298.62983
298.57244
298.51855
298.46801
298.42066
298.37636
298.33497
298.29637
298.26044
298.22707
298.19617
298.16767
298.14153
298.1177
298.09605
298.07654
298.05935
298.04494
298.03325
298.02275
298.0116
298.00257
298.00599
298.02731
298.04231
298.54912
295.75154
298.46458
299.28313
300.49298
301.51993
302.3972
303.12963
303.72637
304.19131
304.53494
304.7697
304.90942
304.96804
304.9589
304.8942
304.7848
304.64012
304.46815
304.27562
304.0681
303.85016
303.62555
303.39728
303.16777
302.93899
302.71247
302.48943
302.27083
302.05739
301.84968
301.64811
301.45297
301.26447
301.08273
300.90781
300.73971
300.57841
300.42384
300.2759
300.13448
299.99944
299.87065
299.74793
299.63112
299.52005
299.41455
299.31442
299.2195
299.1296
299.04452
298.9641
298.88815
298.81649
298.74894
298.68533
298.62549
298.56924
298.51643
298.4669
298.4205
298.37708
298.3365
298.29863
298.26336
298.23058
298.20021
298.17219
298.14641
298.12277
298.10124
298.08206
298.06556
298.05143
298.03816
298.02459
298.014
298.01515
298.03051
298.03813
300.51415
299.04727
301.3392
302.44608
303.62582
304.4872
305.1911
305.71611
306.08472
306.31538
306.42932
306.44666
306.38599
306.26362
306.0935
305.88723
305.65438
305.40264
305.13821
304.86601
304.5899
304.31292
304.03746
303.76532
303.49792
303.23633
302.98133
302.73351
302.49329
302.26092
302.03659
301.82038
301.6123
301.41233
301.22038
301.03633
300.86006
300.6914
300.53018
300.37622
300.22931
300.08926
299.95587
299.82891
299.70819
299.59349
299.48461
299.38132
299.28343
299.19073
299.10301
299.02009
298.94175
298.86781
298.79808
298.73238
298.67053
298.61234
298.55766
298.50631
298.45814
298.413
298.37074
298.33124
298.29435
298.25997
298.22801
298.19838
298.17095
298.14562
298.12239
298.10149
298.08306
298.06666
298.05098
298.03559
298.02388
298.02248
298.0308
298.03219
302.95143
302.97929
304.97755
305.94719
306.8382
307.44703
307.85224
308.075
308.15169
308.1119
307.98239
307.78525
307.53846
307.25633
306.95004
306.62826
306.29763
305.96322
305.62885
305.2974
304.97101
304.65126
304.33929
304.03591
303.74168
303.45696
303.18196
302.91677
302.66139
302.41578
302.1798
301.95331
301.73613
301.52805
301.32885
301.13831
300.95618
300.78221
300.61616
300.45779
300.30684
300.16306
300.02621
299.89605
299.77234
299.65484
299.54332
299.43755
299.3373
299.24236
299.15251
299.06755
298.98725
298.91144
298.8399
298.77244
298.70889
298.64906
298.59278
298.53987
298.49018
298.44355
298.39983
298.35889
298.32058
298.28481
298.25145
298.2204
298.19155
298.16478
298.14013
298.11772
298.09757
298.07916
298.06154
298.04476
298.03185
298.02761
298.03081
298.02429
306.00397
307.38917
308.71124
309.40995
309.88608
310.09509
310.11906
309.99967
309.77748
309.48271
309.13873
308.76288
308.36799
307.96341
307.55593
307.15041
306.75033
306.35813
305.97551
305.6036
305.24314
304.89458
304.55812
304.23383
303.92167
303.62149
303.33309
303.05624
302.79066
302.53606
302.29214
302.0586
301.83511
301.62137
301.41706
301.22187
301.03551
300.85766
300.68803
300.52635
300.37231
300.22566
300.08611
299.95341
299.8273
299.70752
299.59383
299.48599
299.38376
299.28692
299.19525
299.10852
299.02652
298.94906
298.87592
298.80692
298.74186
298.68056
298.62285
298.56854
298.51748
298.46951
298.42448
298.38224
298.34265
298.30561
298.27098
298.23866
298.20853
298.18051
298.1546
298.13086
298.10923
298.0893
298.07051
298.05305
298.03877
298.03019
298.02579
298.01511
309.93868
311.71688
312.25482
312.44052
312.38615
312.15304
311.80332
311.37919
310.9107
310.41844
309.91641
309.41402
308.91752
308.43102
307.95716
307.49757
307.05318
306.62445
306.21154
305.81435
305.43268
305.06618
304.71449
304.37718
304.0538
303.7439
303.44703
303.16274
302.8906
302.63017
302.38103
302.14278
301.91503
301.6974
301.48952
301.29104
301.10161
300.92091
300.74861
300.5844
300.42798
300.27906
300.13736
300.0026
299.87451
299.75283
299.63731
299.5277
299.42377
299.32528
299.232
299.14372
299.06022
298.98129
298.90672
298.83633
298.76991
298.70729
298.64829
298.59272
298.54042
298.49124
298.44502
298.40161
298.36087
298.32269
298.28693
298.25348
298.22223
298.19311
298.16609
298.14115
298.11819
298.09693
298.07713
298.05903
298.04372
298.03232
298.02345
298.0111
314.88185
315.2502
314.97988
314.61195
314.09051
313.49896
312.87269
312.23719
311.60655
310.98933
310.39029
309.81197
309.25555
308.72134
308.20918
307.71859
307.2489
306.79937
306.3692
305.95762
305.56382
305.18704
304.82656
304.48168
304.15172
303.83607
303.53412
303.24531
302.96911
302.705
302.45252
302.2112
301.9806
301.76032
301.54996
301.34914
301.15749
300.97468
300.80035
300.6342
300.47592
300.32519
300.18174
300.04528
299.91554
299.79226
299.67517
299.56404
299.45862
299.35868
299.26398
299.17432
299.08946
299.0092
298.93334
298.86168
298.79403
298.7302
298.67001
298.61328
298.55985
298.50955
298.46224
298.41775
298.37596
298.33672
298.29992
298.26544
298.23319
298.20308
298.17505
298.14905
298.12495
298.10266
298.08212
298.06344
298.04695
298.03276
298.0202
298.00752
316.87195
317.03791
316.46358
315.7031
314.92562
314.14727
313.3882
312.65599
311.95406
311.28338
310.64363
310.03386
309.4528
308.89905
308.37116
307.86777
307.38752
306.92917
306.49154
306.07356
305.67419
305.29252
304.92767
304.57883
304.24527
303.92627
303.6212
303.32945
303.05045
302.78367
302.5286
302.28478
302.05175
301.82909
301.6164
301.4133
301.21941
301.03439
300.8579
300.68961
300.52922
300.37643
300.23094
300.09247
299.96076
299.83554
299.71655
299.60355
299.4963
299.39456
299.29811
299.20673
299.1202
299.0383
298.96085
298.88764
298.81847
298.75317
298.69154
298.63343
298.57864
298.52704
298.47845
298.43272
298.38973
298.34932
298.31138
298.2758
298.24248
298.21133
298.18228
298.15523
298.13011
298.10692
298.08571
298.06648
298.04898
298.03284
298.01812
298.00573
310.56719
309.2657
305.61127
302.73044
301.45402
301.16608
301.09821
301.09513
300.98431
300.92711
300.82213
300.75393
300.66797
300.58206
300.4963
300.41005
300.32313
300.23551
300.14721
300.05829
299.96882
299.87893
299.78874
299.69837
299.60797
299.51768
299.42762
299.33795
299.2488
299.1603
299.07258
298.98577
298.9
298.8154
298.73208
298.65018
298.56982
298.49112
298.41421
298.3392
298.26624
298.19543
298.12691
298.06081
297.99724
297.93634
297.87822
297.82301
297.77083
297.72178
297.67598
297.63353
297.59453
297.55905
297.52719
297.49899
297.4745
297.45375
297.43673
297.42344
297.41391
297.40811
297.40601
297.40755
297.41275
297.42153
297.4341
297.44991
297.46996
297.49166
297.51963
297.54455
297.58362
297.60842
297.66684
297.68521
297.77708
297.78438
297.90599
297.92373
309.78054
306.87619
302.72413
300.67154
300.10133
300.10211
300.20254
300.21374
300.20828
300.18256
300.15948
300.12191
300.07923
300.03181
299.98052
299.92546
299.86707
299.80562
299.74144
299.67484
299.6061
299.53551
299.4633
299.38973
299.31503
299.23943
299.16313
299.08634
299.00926
298.93209
298.85502
298.77822
298.70187
298.62615
298.55123
298.47728
298.40446
298.33293
298.26286
298.19439
298.12769
298.06291
298.0002
297.93972
297.88159
297.82598
297.77302
297.72285
297.67559
297.63136
297.59029
297.55248
297.51802
297.48701
297.45952
297.4356
297.41529
297.39861
297.38555
297.3761
297.37027
297.36805
297.36937
297.37418
297.38249
297.39424
297.40958
297.42806
297.45047
297.47458
297.50435
297.53163
297.5718
297.59906
297.65791
297.67889
297.77006
297.77945
297.90303
297.91833
308.38218
304.81946
301.73814
300.04086
299.71131
299.75143
299.78556
299.75999
299.73191
299.6996
299.6681
299.63353
299.59728
299.5581
299.51675
299.47299
299.42706
299.37893
299.32869
299.27643
299.22227
299.16633
299.10872
299.0496
298.98909
298.92737
298.86459
298.80091
298.7365
298.67155
298.60622
298.54069
298.47515
298.40978
298.34477
298.28029
298.21653
298.15367
298.09189
298.03138
297.9723
297.91485
297.85919
297.80549
297.75393
297.70466
297.65784
297.61362
297.57214
297.53353
297.49794
297.46545
297.43619
297.41024
297.38766
297.36852
297.35285
297.34066
297.33194
297.32666
297.32485
297.32646
297.33144
297.33974
297.35135
297.36621
297.38447
297.40571
297.4306
297.45715
297.48889
297.51847
297.55999
297.58944
297.64909
297.6724
297.76338
297.77461
297.89999
297.91325
307.20268
303.38781
300.57138
299.29042
299.24073
299.25684
299.27414
299.23877
299.22074
299.1921
299.16851
299.13979
299.11086
299.07997
299.04798
299.01436
298.97927
298.94258
298.9043
298.86442
298.82297
298.77996
298.73545
298.68949
298.64216
298.59355
298.54375
298.49288
298.44107
298.38844
298.33515
298.28135
298.22719
298.17286
298.11852
298.06436
298.01056
297.9573
297.90478
297.85318
297.8027
297.75353
297.70586
297.65987
297.61575
297.57367
297.53381
297.49632
297.46137
297.4291
297.39964
297.37312
297.34963
297.32928
297.31213
297.29824
297.28764
297.28033
297.2763
297.27552
297.27801
297.28372
297.29258
297.30456
297.31963
297.33776
297.35906
297.38315
297.41064
297.43967
297.47349
297.50534
297.54835
297.57983
297.64031
297.66581
297.75693
297.76981
297.89691
297.90836
306.51297
302.18627
299.61627
298.66767
298.74506
298.71976
298.74613
298.70995
298.70352
298.67954
298.66453
298.64305
298.6229
298.60092
298.57836
298.55454
298.52965
298.50353
298.47616
298.44749
298.41752
298.38622
298.35359
298.31966
298.28444
298.24799
298.21036
298.17161
298.13184
298.09114
298.04962
298.00741
297.96464
297.92145
297.87801
297.83447
297.79101
297.74781
297.70505
297.66293
297.62164
297.58138
297.54233
297.5047
297.46867
297.43444
297.40217
297.37205
297.34424
297.31888
297.29613
297.27609
297.25889
297.24462
297.23334
297.22512
297.21997
297.2179
297.21887
297.22289
297.22993
297.23996
297.25292
297.26874
297.28744
297.30896
297.3334
297.36044
297.39058
297.42216
297.45813
297.49224
297.53683
297.57027
297.63166
297.65924
297.75071
297.76511
297.89379
297.90366
305.94903
301.00841
298.82103
298.07043
298.21887
298.16399
298.21018
298.17462
298.183
298.16571
298.16167
298.14887
298.13842
298.12588
298.11298
298.09895
298.08395
298.06786
298.05068
298.03237
298.0129
297.99227
297.97046
297.94747
297.92332
297.89801
297.87158
297.84408
297.81556
297.78609
297.75575
297.72463
297.69286
297.66053
297.6278
297.59481
297.5617
297.52865
297.49583
297.46343
297.43163
297.40061
297.37059
297.34174
297.31425
297.28833
297.26414
297.24187
297.22168
297.20372
297.18813
297.17505
297.16457
297.15679
297.15178
297.14958
297.15023
297.1537
297.15998
297.16904
297.18088
297.19544
297.21266
297.23249
297.25493
297.27994
297.30762
297.33768
297.37055
297.4047
297.44288
297.47924
297.52547
297.56086
297.62331
297.6528
297.7447
297.76056
297.89062
297.89918
305.37682
299.96937
298.17829
297.52681
297.72197
297.64136
297.707
297.66991
297.6906
297.67786
297.68277
297.67711
297.67454
297.66966
297.66468
297.65877
297.65207
297.6445
297.63603
297.62664
297.61629
297.60497
297.59264
297.57931
297.56496
297.54959
297.53323
297.5159
297.49762
297.47846
297.45846
297.4377
297.41627
297.39426
297.37178
297.34897
297.32595
297.30288
297.27992
297.25722
297.23497
297.21334
297.19252
297.17268
297.15402
297.13672
297.12095
297.10688
297.09468
297.08448
297.07644
297.07067
297.06728
297.06634
297.06793
297.07208
297.07882
297.08812
297.09994
297.11428
297.1311
297.15037
297.17201
297.19598
297.22227
297.25087
297.28185
297.31498
297.35061
297.38738
297.42779
297.46641
297.51433
297.55167
297.61523
297.64661
297.73894
297.75616
297.88749
297.89492
304.90398
299.02918
297.63704
297.02969
297.26305