/*--------------------------------*- C++ -*----------------------------------*\
  =========                 |
  \\      /  F ield         | OpenFOAM: The Open Source CFD Toolbox
   \\    /   O peration     | Website:  https://openfoam.org
    \\  /    A nd           | Version:  12
     \\/     M anipulation  |
\*---------------------------------------------------------------------------*/
FoamFile
{
    format      ascii;
    class       volVectorField;
    location    "0.127";
    object      U;
}
// * * * * * * * * * * * * * * * * * * * * * * * * * * * * * * * * * * * * * //

dimensions      [0 1 -1 0 0 0 0];

internalField   nonuniform List<vector> 
16000
(
(215.04487 -3.1434189e-17 -8.3519972)
(251.85569 0 5.3626504)
(237.93654 0 -7.5462478)
(245.64436 4.9756551e-17 3.7738913)
(240.97071 -4.9112077e-17 -5.9364613)
(243.16868 0 1.7482968)
(241.37976 0 -4.314905)
(241.88307 8.4065099e-17 -0.028117932)
(241.04564 -7.9868534e-17 -3.1518188)
(240.92352 0 -1.2639067)
(240.41077 7.2166782e-17 -2.5590407)
(240.06405 -2.0560353e-16 -1.9789247)
(239.6214 1.3013461e-16 -2.4167824)
(239.19367 -1.237868e-16 -2.3533581)
(238.73801 1.1745001e-16 -2.513697)
(238.26858 -3.484059e-18 -2.5848072)
(237.78062 -3.3097009e-18 -2.6873547)
(237.27507 -9.7661012e-17 -2.7791089)
(236.75135 1.9133907e-16 -2.8725528)
(236.20935 -9.0783048e-17 -2.9637184)
(235.64891 1.7267892e-16 -3.0529883)
(235.06996 -1.6368614e-16 -3.1396647)
(234.47251 0 -3.2232493)
(233.85665 1.5236227e-16 -3.3031609)
(233.22257 -4.1255265e-18 -3.3788103)
(232.57058 -2.6591758e-16 -3.4495765)
(231.90109 1.2603563e-16 -3.5148325)
(231.21463 0 -3.5739384)
(230.51186 0 -3.6262584)
(229.79358 2.1887368e-16 -3.6711653)
(229.06072 -2.0393321e-16 -3.7080547)
(228.31434 0 -3.7363532)
(227.55565 0 -3.7555298)
(226.78598 0 -3.7651102)
(226.0068 5.1448159e-18 -3.7646863)
(225.21969 1.5612954e-16 -3.7539288)
(224.42633 -1.4292464e-16 -3.7325977)
(223.62852 -1.399796e-16 -3.7005506)
(222.82811 1.2394441e-16 -3.6577519)
(222.02701 0 -3.6042793)
(221.2272 -1.1862059e-16 -3.5403256)
(220.43063 1.1196558e-16 -3.4662026)
(219.63928 -2.1218869e-16 -3.3823378)
(218.85508 2.0019643e-16 -3.2892715)
(218.07991 -1.9551495e-16 -3.1876499)
(217.31555 3.5795618e-16 -3.0782145)
(216.56372 5.6045856e-18 -2.9617908)
(215.826 2.9415674e-19 -2.8392734)
(215.10383 -1.5066419e-16 -2.7116097)
(214.39852 1.4249014e-16 -2.5797831)
(213.71121 -1.2586384e-16 -2.4447955)
(213.04288 0 -2.3076494)
(212.39434 7.4803517e-18 -2.1693326)
(211.76626 0 -2.0308013)
(211.15911 6.6564057e-18 -1.8929666)
(210.57321 2.0726188e-16 -1.756683)
(210.00872 -3.7882203e-16 -1.6227376)
(209.46567 1.094205e-17 -1.4918403)
(208.94388 1.6833256e-16 -1.3646144)
(208.44298 -1.4899271e-16 -1.2416063)
(207.96237 1.4034257e-16 -1.1232594)
(207.5013 -8.8308264e-18 -1.0099628)
(207.05883 0 -0.90200872)
(206.63377 0 -0.79960096)
(206.22472 -1.1127524e-16 -0.70287162)
(205.83012 1.1195464e-16 -0.61187291)
(205.44837 -9.9197197e-17 -0.52657986)
(205.07791 1.9362503e-16 -0.44688357)
(204.71724 -1.8895582e-16 -0.37258873)
(204.36473 8.3765608e-17 -0.30342266)
(204.01824 5.2893326e-18 -0.23907056)
(203.67481 0 -0.17924853)
(203.33077 4.7550164e-18 -0.12370447)
(202.98272 -4.5164215e-18 -0.071992053)
(202.62863 0 -0.023293419)
(202.26826 -3.3769945e-17 0.020683883)
(201.88098 6.2500982e-17 0.058983244)
(201.5673 -3.1758842e-17 0.13004084)
(200.97925 0 0.035404778)
(200.95961 0 0.40446797)
(216.34657 0 -11.165987)
(253.48352 -3.7314376e-18 3.3228015)
(238.94028 -1.1991459e-16 -10.466333)
(247.09393 1.1056357e-16 1.6906236)
(242.06582 0 -8.7951744)
(244.49584 1.0172267e-16 -0.40559475)
(242.50273 -1.8784131e-16 -7.0566462)
(243.09509 -1.017451e-19 -2.3044918)
(242.16655 8.4652989e-17 -5.7380495)
(242.0455 0 -3.6575907)
(241.49212 -1.5291165e-16 -5.0303175)
(241.1167 1.49577e-16 -4.4175262)
(240.64222 1.4226074e-16 -4.8416774)
(240.18032 -2.6188225e-16 -4.7789072)
(239.69034 1.2038877e-16 -4.9190625)
(239.18472 1.1067858e-17 -4.9827673)
(238.6596 1.1573388e-16 -5.0696751)
(238.11559 -1.0307466e-16 -5.1476382)
(237.55229 0 -5.2249729)
(236.96959 0 -5.2989854)
(236.36743 5.687736e-18 -5.3695563)
(235.74582 -1.7842516e-16 -5.4359781)
(235.1049 3.3832772e-16 -5.4976189)
(234.44488 -3.1614013e-16 -5.5537982)
(233.76609 1.4289253e-16 -5.6038211)
(233.06901 0 -5.6469795)
(232.35423 1.2462449e-16 -5.6825571)
(231.62247 -1.3363606e-16 -5.7098449)
(230.87461 0 -5.7281487)
(230.11166 3.5315914e-18 -5.7368006)
(229.33478 -1.3395064e-17 -5.7351703)
(228.54527 0 -5.7226809)
(227.7446 0 -5.6988166)
(226.93433 -1.7091764e-16 -5.6631425)
(226.11617 3.3938457e-16 -5.6153133)
(225.29194 -1.629696e-16 -5.5550862)
(224.46356 -1.5936295e-16 -5.4823343)
(223.633 1.4585981e-16 -5.3970518)
(222.80231 -1.1234113e-16 -5.2993647)
(221.97358 -2.835906e-19 -5.189534)
(221.14887 -2.6523377e-19 -5.0679572)
(220.33025 2.3317341e-16 -4.9351678)
(219.51974 -1.1001421e-16 -4.7918299)
(218.71929 0 -4.63873)
(217.93073 2.0269993e-16 -4.4767671)
(217.15581 1.1952282e-17 -4.306938)
(216.39613 -5.1295932e-18 -4.1303202)
(215.65312 -1.6479896e-16 -3.9480546)
(214.92808 0 -3.7613242)
(214.22211 -1.4678211e-16 -3.5713351)
(213.53614 -8.8698121e-18 -3.3792959)
(212.87093 2.6051024e-16 -3.1863973)
(212.22706 -1.3028646e-16 -2.993795)
(211.60494 0 -2.8025922)
(211.00481 -2.0412992e-17 -2.6138248)
(210.42678 -2.1151571e-16 -2.4284508)
(209.87079 3.6179594e-16 -2.2473389)
(209.33664 -2.1558275e-16 -2.0712605)
(208.824 0 -1.900883)
(208.33235 -1.7103117e-16 -1.7367784)
(207.86096 1.7972634e-16 -1.5793979)
(207.40897 2.6721168e-17 -1.4291174)
(206.97535 0 -1.2862175)
(206.55885 -1.4206584e-16 -1.1508708)
(206.158 7.3327382e-18 -1.0231726)
(205.77117 1.1184075e-16 -0.9031323)
(205.39667 -1.9759041e-17 -0.79067724)
(205.03287 9.3099829e-17 -0.68564643)
(204.6782 -1.0523362e-16 -0.58778607)
(204.33107 5.51391e-18 -0.4967619)
(203.98947 -5.2024297e-18 -0.41220819)
(203.65055 0 -0.33380431)
(203.31068 -4.6412953e-18 -0.26124444)
(202.9663 4.3896727e-18 -0.19402148)
(202.61467 8.3133501e-18 -0.13183624)
(202.25321 9.8497197e-19 -0.075890887)
(201.88447 0 -0.019212385)
(201.51819 3.0236328e-17 0.03667882)
(201.04958 -5.7588611e-17 0.0039536995)
(200.86328 2.5860726e-17 0.3054338)
(217.51356 0 -14.052203)
(254.95836 -1.2273687e-16 1.0821073)
(239.88696 2.5026574e-16 -13.469131)
(248.34402 -2.2352278e-16 -0.5557355)
(243.05571 1.1038966e-16 -11.724621)
(245.62189 -3.2687327e-18 -2.7480197)
(243.50152 9.9491107e-17 -9.842929)
(244.11958 -9.4228155e-17 -4.7754939)
(243.13435 -5.593705e-18 -8.3866685)
(242.99008 -5.3112036e-18 -6.2151122)
(242.40146 -1.008936e-17 -7.5988701)
(241.99015 1.3919636e-16 -6.9916308)
(241.48033 -1.4109608e-16 -7.3845401)
(240.98005 1.38476e-16 -7.3287082)
(240.4511 -1.1895937e-16 -7.4474633)
(239.90487 -1.5591158e-17 -7.5030439)
(239.33788 0 -7.5742711)
(238.75074 -1.2149583e-20 -7.6372974)
(238.14313 -2.2676455e-16 -7.6974602)
(237.51505 -3.6502513e-19 -7.7527351)
(236.86654 1.7380904e-16 -7.8026888)
(236.19777 1.7072674e-17 -7.8465296)
(235.50899 -2.1594399e-17 -7.8835055)
(234.8006 0 -7.9128316)
(234.07312 7.0719389e-21 -7.9337176)
(233.32722 -1.6576513e-16 -7.9453704)
(232.5637 1.4809323e-16 -7.9470057)
(231.78354 8.2652312e-18 -7.9378565)
(230.98785 0 -7.9171915)
(230.17791 -7.4148788e-18 -7.8843219)
(229.35517 -1.5092353e-21 -7.8386223)
(228.52122 -1.995925e-16 -7.7795417)
(227.67779 2.0101639e-16 -7.7066197)
(226.82675 1.1911335e-17 -7.6195049)
(225.97009 -1.8031459e-16 -7.5179634)
(225.10989 1.4881555e-16 -7.4018961)
(224.24831 -1.8132523e-16 -7.2713467)
(223.38755 1.5198388e-16 -7.1265115)
(222.52984 -1.4390014e-16 -6.9677411)
(221.67742 1.356202e-16 -6.795546)
(220.83246 1.603528e-17 -6.6105922)
(219.99708 0 -6.4136941)
(219.17332 2.0001915e-16 -6.2058066)
(218.36308 -2.4210412e-16 -5.9880109)
(217.56814 0 -5.761497)
(216.79009 1.79679e-16 -5.5275469)
(216.03036 -1.5767392e-16 -5.2875097)
(215.29019 1.7011605e-16 -5.0427811)
(214.57063 -1.7993712e-16 -4.7947787)
(213.87253 0 -4.5449199)
(213.19654 1.7742305e-16 -4.2945996)
(212.54311 -1.3333971e-16 -4.0451682)
(211.91254 0 -3.797914)
(211.30494 0 -3.5540472)
(210.72028 1.2492561e-16 -3.3146842)
(210.15838 -2.0863029e-16 -3.0808405)
(209.61893 1.2246829e-16 -2.8534198)
(209.10151 1.8430346e-16 -2.6332098)
(208.60556 1.9602907e-19 -2.4208764)
(208.13041 1.742431e-19 -2.2169737)
(207.67517 -3.2438099e-16 -2.021925)
(207.23885 8.952051e-17 -1.8360563)
(206.82034 0 -1.6596035)
(206.41829 1.4226743e-16 -1.4926807)
(206.03119 -1.6319102e-16 -1.3353188)
(205.65735 1.1153471e-16 -1.1874629)
(205.29502 1.3161639e-17 -1.0489749)
(204.94249 -8.6058427e-17 -0.91963007)
(204.59814 1.1555805e-17 -0.79911103)
(204.26042 2.1731047e-17 -0.68702252)
(203.9274 -1.0218518e-16 -0.5829404)
(203.59643 9.6100896e-17 -0.48647418)
(203.264 -7.2400109e-17 -0.39726934)
(202.92629 1.3637063e-16 -0.31495823)
(202.58011 -5.62309e-17 -0.23941567)
(202.22448 -6.0662037e-17 -0.170126)
(201.86273 5.0118376e-17 -0.10207083)
(201.47958 0 -0.0487629)
(201.06336 3.2064994e-18 -0.030542726)
(200.79611 -1.2157006e-17 0.20184924)
(218.52371 0 -17.007773)
(256.28521 0 -1.2927121)
(240.63502 0 -16.606684)
(249.41699 1.0682283e-16 -2.909704)
(243.86255 -1.240326e-16 -14.7842)
(246.58396 -2.2090711e-16 -5.208702)
(244.32161 2.1010039e-16 -12.747516)
(244.96802 -1.2444181e-17 -7.373883)
(243.91859 5.925437e-18 -11.145649)
(243.74702 -1.7424831e-16 -8.9039924)
(243.11852 1.7058792e-16 -10.278503)
(242.66578 1.013789e-17 -9.6908225)
(242.11571 -1.5394505e-16 -10.044387)
(241.57172 1.3675395e-16 -9.9970193)
(240.99869 -1.3559653e-20 -10.093033)
(240.40671 -8.2016775e-18 -10.138469)
(239.79287 0 -10.192359)
(239.15772 -7.4034786e-18 -10.237956)
(238.50111 -2.10744e-16 -10.278261)
(237.82313 2.1279501e-16 -10.311699)
(237.12397 1.2630969e-17 -10.337607)
(236.40394 -1.1975181e-17 -10.355108)
(235.66348 2.1579305e-16 -10.363349)
(234.90318 -1.7189119e-16 -10.361455)
(234.12377 1.0193393e-17 -10.348545)
(233.32616 1.9328117e-16 -10.323756)
(232.51144 -1.278565e-16 -10.286239)
(231.68085 0 -10.23519)
(230.83583 1.4773162e-16 -10.169854)
(229.97798 -1.2400363e-16 -10.08955)
(229.10907 2.4990683e-16 -9.9936846)
(228.23102 -1.3352688e-17 -9.8817751)
(227.34591 -2.0991559e-16 -9.7534618)
(226.45594 1.74102e-16 -9.6085279)
(225.56338 -1.8755354e-16 -9.4469105)
(224.6706 -2.9865551e-20 -9.2687159)
(223.78001 2.0965941e-16 -9.0742256)
(222.89401 -3.1640877e-16 -8.8639009)
(222.015 9.3125096e-17 -8.6383848)
(221.1453 3.5256145e-17 -8.3984967)
(220.28715 -4.985281e-17 -8.1452269)
(219.44267 0 -7.8797204)
(218.61383 -8.8703227e-17 -7.6032636)
(217.80241 1.3892676e-16 -7.3172611)
(217.01001 -2.0976029e-16 -7.0232148)
(216.23802 1.970907e-16 -6.7226995)
(215.4876 -2.0903824e-16 -6.4173339)
(214.75972 3.9305771e-16 -6.1087558)
(214.05508 -3.0802414e-16 -5.7985959)
(213.37421 3.0887372e-16 -5.4884526)
(212.71741 -1.4497363e-16 -5.1798692)
(212.08479 1.3646129e-16 -4.8743138)
(211.47629 -9.5929614e-17 -4.5731605)
(210.8917 3.0079807e-17 -4.2776776)
(210.33067 0 -3.989013)
(209.79272 0 -3.7081902)
(209.27727 0 -3.4361011)
(208.78366 2.3282103e-17 -3.1735044)
(208.31113 0 -2.9210231)
(207.85882 -1.6385607e-16 -2.6791558)
(207.42572 1.9181603e-16 -2.4482665)
(207.01071 -1.0796046e-16 -2.2286034)
(206.61259 -1.1506623e-19 -2.0203296)
(206.22996 2.5256701e-16 -1.8234822)
(205.86126 2.9660594e-17 -1.6380109)
(205.50476 -1.3851726e-16 -1.4637823)
(205.15866 5.1941728e-17 -1.3005827)
(204.8212 -1.4592042e-16 -1.1481159)
(204.49071 -4.5593331e-17 -1.0059986)
(204.16564 -6.4087496e-17 -0.87377463)
(203.8442 -6.0093624e-17 -0.75094953)
(203.52396 5.6313962e-17 -0.63704906)
(203.20151 0 -0.53172352)
(202.87278 0 -0.43475913)
(202.53458 -1.5518356e-17 -0.34570649)
(202.1872 0 -0.26323963)
(201.83025 6.8540482e-18 -0.18660194)
(201.44789 5.1606311e-17 -0.12575812)
(201.06503 -7.2894696e-17 -0.073894297)
(200.73639 -9.3905471e-21 0.095949517)
(219.35741 0 -20.160637)
(257.44085 -8.8315305e-18 -3.744287)
(241.25543 2.6709223e-16 -19.880053)
(250.27187 -2.494951e-16 -5.3888032)
(244.43379 2.5458094e-16 -17.958587)
(247.34412 -2.3292309e-16 -7.8221005)
(244.9425 -2.220327e-16 -15.757682)
(245.6064 2.1018408e-16 -10.130041)
(244.49513 0 -14.0075)
(244.28602 0 -11.742539)
(243.61547 1.8012853e-16 -13.072132)
(243.11459 -1.7064777e-16 -12.522466)
(242.51958 -1.0137524e-17 -12.826912)
(241.92675 2.8834532e-17 -12.787237)
(241.30475 -9.1248911e-18 -12.858431)
(240.66223 3.4608494e-17 -12.889957)
(239.99684 0 -12.923553)
(239.30908 0 -12.947958)
(238.59891 -2.3634794e-16 -12.964572)
(237.86658 2.0960852e-16 -12.972041)
(237.11241 0 -12.96952)
(236.33691 0 -12.956024)
(235.54074 -1.9071021e-16 -12.930573)
(234.72474 3.6091425e-16 -12.892186)
(233.88995 -1.7070012e-16 -12.839884)
(233.03758 -2.0222512e-17 -12.772721)
(232.16907 -3.8300919e-17 -12.689796)
(231.28604 -1.4512541e-16 -12.590276)
(230.3903 1.1982405e-16 -12.473416)
(229.48386 0 -12.338578)
(228.56889 -3.0688085e-17 -12.185254)
(227.6477 0 -12.013089)
(226.72275 0 -11.821892)
(225.79659 2.0715901e-16 -11.611659)
(224.87182 -2.1957324e-16 -11.382581)
(223.95108 2.303297e-17 -11.135051)
(223.037 -2.1732678e-17 -10.869674)
(222.13217 -4.108548e-17 -10.58726)
(221.23906 -8.4966919e-20 -10.288821)
(220.36005 8.0694561e-20 -9.9755566)
(219.49735 -7.6142021e-20 -9.6488412)
(218.65296 0 -9.3101984)
(217.82869 -1.2195589e-16 -8.9612822)
(217.0261 1.1452251e-16 -8.6038438)
(216.24652 0 -8.239704)
(215.49101 -5.0757071e-17 -7.8707267)
(214.76038 1.907681e-16 -7.4987814)
(214.05519 -2.2363446e-16 -7.1257198)
(213.37576 -2.103914e-16 -6.7533457)
(212.7222 1.5773868e-16 -6.3833915)
(212.09441 1.1124689e-16 -6.0174953)
(211.4921 -1.3886247e-16 -5.6571851)
(210.91482 -3.2555704e-17 -5.3038608)
(210.36199 -2.1386687e-16 -4.9587879)
(209.83294 1.1438313e-16 -4.6230858)
(209.32688 -1.0727683e-16 -4.2977285)
(208.84295 1.003403e-16 -3.9835422)
(208.38026 2.3509327e-16 -3.6812059)
(207.93785 -1.7582761e-16 -3.3912548)
(207.51468 0 -3.1140914)
(207.10962 -3.8475029e-17 -2.8499831)
(206.72146 -7.20174e-17 -2.5990752)
(206.34892 1.3456677e-16 -2.3614281)
(205.99057 1.2589555e-16 -2.1369822)
(205.64481 -2.3526272e-16 -1.9255887)
(205.30992 8.2393612e-17 -1.7270221)
(204.98406 5.1359371e-17 -1.5409823)
(204.66543 9.6014426e-17 -1.3670959)
(204.35232 1.3459845e-16 -1.2049138)
(204.0432 2.3331038e-20 -1.053919)
(203.7364 0 -0.91353425)
(203.42974 0 -0.78320622)
(203.11992 -3.4248217e-17 -0.66262752)
(202.80275 9.6082673e-17 -0.55160323)
(202.47535 -8.9860423e-17 -0.44917652)
(202.13799 -8.4109606e-17 -0.35449957)
(201.78707 5.2483795e-17 -0.2699466)
(201.41366 0 -0.1958828)
(201.05041 4.609165e-17 -0.11949914)
(200.68102 1.5936207e-20 -0.0082501319)
(219.99387 0 -23.485293)
(258.39889 1.8819978e-20 -6.2723104)
(241.68158 9.0890588e-18 -23.249187)
(250.96027 2.889754e-16 -8.0057498)
(244.85205 3.3210082e-19 -21.235872)
(247.87444 -5.0686119e-16 -10.585544)
(245.31927 -3.2234747e-19 -18.862323)
(246.00596 4.5714807e-16 -13.048067)
(244.83242 -2.1033303e-16 -16.969744)
(244.58014 -1.2476351e-17 -14.730066)
(243.86612 1.1849424e-17 -15.978529)
(243.31205 -1.7992736e-16 -15.479606)
(242.66843 1.9169188e-16 -15.726948)
(242.02256 -1.821365e-16 -15.690919)
(241.34726 3.0681295e-16 -15.735003)
(240.64966 -3.09123e-16 -15.748135)
(239.92798 1.3777295e-16 -15.758016)
(239.18269 0 -15.757212)
(238.41397 0 -15.745989)
(237.62225 1.4675308e-17 -15.723003)
(236.8081 -2.7826007e-17 -15.687193)
(235.97231 0 -15.637415)
(235.11588 1.9981349e-16 -15.572537)
(234.24002 4.69905e-19 -15.491453)
(233.34615 -3.5759797e-16 -15.393089)
(232.43593 1.6896645e-16 -15.276436)
(231.51124 1.99917e-17 -15.140575)
(230.57417 0 -14.984691)
(229.62701 -1.7908328e-16 -14.808108)
(228.67225 1.350403e-16 -14.610308)
(227.7125 -2.2392744e-16 -14.39095)
(226.75055 2.1077329e-16 -14.149902)
(225.78924 -2.281067e-16 -13.88724)
(224.83148 2.1471344e-16 -13.603279)
(223.88019 7.6112698e-17 -13.298566)
(222.93824 0 -12.973891)
(222.00843 0 -12.63028)
(221.09341 4.2419988e-17 -12.268982)
(220.1957 3.9953604e-17 -11.89146)
(219.31757 -3.7615046e-17 -11.499359)
(218.46108 3.5398494e-17 -11.09449)
(217.628 6.6782634e-17 -10.67879)
(216.81985 -6.2724435e-17 -10.254297)
(216.03783 3.536429e-16 -9.8231098)
(215.28285 -2.7662935e-16 -9.3873539)
(214.55554 5.1920416e-17 -8.9491496)
(213.85624 -4.8852692e-17 -8.5105758)
(213.18504 0 -8.0736433)
(212.54177 2.1471503e-16 -7.6402667)
(211.92607 -1.6082421e-16 -7.2122444)
(211.33736 0 -6.7912375)
(210.77495 0 -6.3787603)
(210.23796 1.3232451e-16 -5.9761667)
(209.72547 -6.1847979e-17 -5.5846488)
(209.23644 0 -5.2052323)
(208.7698 -1.6249679e-16 -4.8387801)
(208.32445 1.0114969e-16 -4.4859963)
(207.89925 1.4197302e-16 -4.1474308)
(207.49308 -1.7660057e-16 -3.8234865)
(207.10476 1.6506493e-16 -3.5144339)
(206.73307 -1.5396826e-16 -3.2204095)
(206.37672 6.6505845e-20 -2.9414315)
(206.03438 0 -2.6774352)
(205.70462 6.2577353e-17 -2.4282476)
(205.38585 -2.917563e-16 -2.1936088)
(205.07633 1.631669e-16 -1.9731904)
(204.77426 0 -1.7665991)
(204.4778 -1.4185656e-16 -1.5733811)
(204.18523 8.8117076e-17 -1.3930237)
(203.89501 1.2326642e-16 -1.2249458)
(203.60564 3.2260617e-20 -1.0684845)
(203.31513 -7.1337247e-17 -0.9230311)
(203.02035 9.9759103e-17 -0.78831951)
(202.71722 -1.5496288e-16 -0.66399054)
(202.40312 8.6669194e-17 -0.54867907)
(202.07737 2.692395e-17 -0.44293773)
(201.73469 5.0247563e-17 -0.35040067)
(201.37475 0 -0.25998995)
(201.02723 -4.3759678e-17 -0.16628744)
(200.62683 2.0377069e-17 -0.10941793)
(220.41738 0 -26.978312)
(259.15204 9.8276779e-18 -8.9056448)
(241.90914 -3.0643836e-16 -26.742578)
(251.46497 2.5022853e-16 -10.764468)
(245.07427 2.5701864e-16 -24.612173)
(248.16453 -5.0129962e-16 -13.503391)
(245.49818 2.3058321e-16 -22.049585)
(246.15095 2.3344716e-16 -16.127997)
(244.93508 -2.2124151e-16 -20.017298)
(244.61857 3.9380496e-17 -17.853389)
(243.8603 0 -18.985635)
(243.24762 0 -18.546672)
(242.55045 -2.2397101e-17 -18.733316)
(241.84573 -1.7004117e-16 -18.696736)
(241.11082 1.4072291e-16 -18.713031)
(240.35153 1.9089434e-17 -18.704259)
(239.56669 -3.6185667e-17 -18.687452)
(238.75696 3.0872975e-16 -18.657551)
(237.9228 -2.2687498e-16 -18.614025)
(237.06498 2.4624397e-16 -18.555418)
(236.18445 -2.0348906e-16 -18.480463)
(235.28242 2.758906e-17 -18.387863)
(234.36034 1.5673962e-16 -18.276355)
(233.4199 -1.9714008e-16 -18.144745)
(232.46306 0 -17.991912)
(231.49201 0 -17.816849)
(230.5092 0 -17.618689)
(229.51728 -1.974364e-16 -17.39673)
(228.51911 1.8598718e-16 -17.150464)
(227.5177 -3.5240223e-17 -16.879601)
(226.5162 0 -16.584096)
(225.51783 -2.82492e-16 -16.26416)
(224.52584 2.3610574e-16 -15.920275)
(223.54346 -5.5842996e-17 -15.553199)
(222.57385 1.5792269e-16 -15.16397)
(221.62004 -4.9076861e-17 -14.753887)
(220.68487 -1.8614442e-16 -14.324506)
(219.77096 2.1958515e-16 -13.877607)
(218.88066 -1.6485215e-16 -13.41517)
(218.01603 7.7757682e-17 -12.939343)
(217.17878 -7.2963578e-17 -12.452402)
(216.37031 1.3715399e-16 -11.956705)
(215.59166 -6.4267525e-17 -11.454664)
(214.84353 -2.4187586e-16 -10.948694)
(214.12628 5.1002515e-16 -10.441177)
(213.43998 -2.1241745e-16 -9.9344259)
(212.7844 -1.496848e-16 -9.430657)
(212.15906 9.3065816e-17 -8.9319572)
(211.56326 8.7540336e-17 -8.4402657)
(210.9961 -1.6376354e-16 -7.9573563)
(210.45654 1.5300738e-16 -7.4848259)
(209.94343 0 -7.0240882)
(209.4555 1.3391972e-16 -6.5763705)
(208.99147 -1.8757638e-16 -6.1427162)
(208.55 5.8453551e-17 -5.7239885)
(208.12974 5.4475996e-17 -5.3208785)
(207.72939 0 -4.9339149)
(207.34762 0 -4.5634721)
(206.98317 0 -4.209782)
(206.63477 0 -3.8729505)
(206.30112 0 -3.5529569)
(205.98091 -7.1563662e-17 -3.249672)
(205.67281 0 -2.9628908)
(205.37538 -5.4370819e-20 -2.6923138)
(205.08708 2.3106511e-16 -2.4375624)
(204.80622 -2.1494477e-16 -2.1981995)
(204.53102 -1.0005379e-16 -1.9737349)
(204.25967 -1.8602798e-16 -1.7636353)
(203.99044 2.5930247e-16 -1.5673252)
(203.72179 4.6504932e-20 -1.3841584)
(203.45233 7.4677654e-17 -1.213394)
(203.18032 0 -1.0544004)
(202.90282 0 -0.90690795)
(202.61606 0 -0.7702259)
(202.31757 -1.114334e-16 -0.64286561)
(202.00507 0 -0.52729193)
(201.67297 -9.6258096e-17 -0.42641818)
(201.3296 1.3419523e-16 -0.31836727)
(200.99608 8.318327e-17 -0.21413024)
(200.57256 -1.9273139e-17 -0.20592686)
(220.63217 0 -30.647956)
(259.70675 0 -11.647375)
(241.9443 3.2241498e-16 -30.367528)
(251.7897 1.9342292e-17 -13.681063)
(245.11249 -2.6980911e-16 -28.098234)
(248.2756 0 -16.598381)
(245.47685 1.6165957e-17 -25.315189)
(246.17034 -3.0643801e-17 -19.361461)
(244.79018 0 -23.129665)
(244.40401 1.9316345e-16 -21.09588)
(243.59445 -4.1819649e-16 -22.089682)
(242.91268 1.9802306e-16 -21.718413)
(242.15219 2.3503546e-17 -21.846404)
(241.37877 0 -21.80473)
(240.5744 2.1089621e-17 -21.79237)
(239.74374 -3.4018745e-16 -21.757327)
(238.88634 7.5000086e-17 -21.709285)
(238.00308 2.5070402e-16 -21.64459)
(237.09486 2.3808499e-16 -21.562216)
(236.16288 -2.5680841e-16 -21.460594)
(235.2086 0 -21.338291)
(234.23376 -2.88143e-16 -21.193903)
(233.24041 2.4465278e-16 -21.02609)
(232.23085 -2.0620717e-16 -20.833635)
(231.20769 1.9435534e-16 -20.615455)
(230.1738 -1.8418489e-16 -20.370636)
(229.13227 3.4745615e-16 -20.098482)
(228.08643 -1.6396328e-16 -19.798526)
(227.03974 1.5506575e-16 -19.470574)
(225.99579 -2.9234509e-16 -19.114716)
(224.95825 1.3759554e-16 -18.731357)
(223.93076 1.2994568e-16 -18.321222)
(222.9169 -2.4517018e-16 -17.88535)
(221.92015 5.6924161e-17 -17.425099)
(220.94375 -5.7080819e-19 -16.942133)
(219.99074 2.550656e-16 -16.438379)
(219.06384 0 -15.916019)
(218.16541 1.9226803e-19 -15.37744)
(217.29746 0 -14.825186)
(216.4616 -7.9613053e-17 -14.261923)
(215.65902 -1.4961626e-16 -13.690386)
(214.89052 7.0245259e-17 -13.113325)
(214.15649 0 -12.53347)
(213.45698 -6.1898114e-17 -11.953476)
(212.79166 2.8971475e-16 -11.375893)
(212.15993 -3.2525618e-16 -10.803129)
(211.5609 -3.047548e-16 -10.237427)
(210.99348 2.8454609e-16 -9.6808393)
(210.45638 -1.7757152e-16 -9.1352191)
(209.94818 0 -8.6022098)
(209.46737 0 -8.0832423)
(209.01236 7.2469346e-17 -7.5795375)
(208.58155 6.7630187e-17 -7.092112)
(208.17332 1.2603862e-16 -6.6217866)
(207.78608 -5.8772191e-17 -6.1691975)
(207.41829 -1.0947808e-16 -5.7348091)
(207.06846 -2.041513e-16 -5.3189286)
(206.73515 -9.5238526e-17 -4.9217178)
(206.41701 1.7681737e-16 -4.543207)
(206.11271 0 -4.1833144)
(205.82095 -7.6582965e-17 -3.8418439)
(205.54042 -1.4234899e-16 -3.5185062)
(205.26981 1.3225432e-16 -3.2129484)
(205.00775 6.1342344e-17 -2.9247384)
(204.75276 5.7051198e-17 -2.6533771)
(204.50323 0 -2.3983178)
(204.25745 1.9667053e-16 -2.1589749)
(204.01363 1.8248756e-16 -1.9347387)
(203.77006 -2.539262e-16 -1.7249728)
(203.52523 7.8532153e-17 -1.5289648)
(203.27784 -7.2786654e-17 -1.3459179)
(203.02633 -4.1403921e-20 -1.1752091)
(202.76805 2.5015025e-16 -1.0164831)
(202.49978 -2.3182317e-16 -0.86860861)
(202.21894 5.3670578e-17 -0.73036101)
(201.92126 1.4927419e-16 -0.60622446)
(201.60203 -4.6108249e-17 -0.49649308)
(201.27763 -4.270611e-17 -0.37019731)
(200.95741 0 -0.25983166)
(200.51724 3.656081e-17 -0.2944684)
(220.64853 3.9208281e-16 -34.504045)
(260.06783 5.4054158e-19 -14.504707)
(241.76527 -3.593805e-16 -34.139759)
(251.92806 0 -16.761032)
(244.89054 0 -31.660144)
(248.04736 -2.6813407e-16 -19.866057)
(245.15254 2.7125196e-16 -28.635498)
(245.67617 6.4334113e-17 -22.755497)
(244.37703 -2.4418195e-16 -26.342274)
(243.91184 2.30965e-16 -24.483948)
(243.04053 -2.4684625e-16 -25.317969)
(242.27688 2.0747697e-16 -25.009966)
(241.44105 -4.9220331e-17 -25.07881)
(240.58731 -4.6674418e-17 -25.022438)
(239.70202 -1.7686585e-16 -24.976386)
(238.78901 1.6705463e-16 -24.907319)
(237.84847 -3.5674627e-16 -24.820082)
(236.88172 5.9966813e-16 -24.711719)
(235.89019 -2.833355e-16 -24.580814)
(234.87568 -2.6883335e-16 -24.425662)
(233.84029 2.5351476e-16 -24.244697)
(232.78647 -3.0188874e-17 -24.036448)
(231.71701 -2.2725134e-16 -23.799575)
(230.635 2.1407419e-16 -23.532934)
(229.54382 2.5358802e-16 -23.235595)
(228.44714 -1.4299293e-16 -22.906885)
(227.3488 0 -22.546434)
(226.25286 2.5571483e-16 -22.154194)
(225.16341 -3.2118461e-16 -21.730473)
(224.08463 1.1301387e-16 -21.275945)
(223.0206 -2.8571665e-16 -20.791662)
(221.97531 2.0130104e-16 -20.279049)
(220.95253 -6.3426809e-17 -19.739886)
(219.95576 2.3835539e-16 -19.176285)
(218.98817 -2.2358304e-16 -18.590662)
(218.05254 -2.1071747e-16 -17.98568)
(217.15119 1.9750088e-16 -17.364212)
(216.28601 -4.6322098e-17 -16.729282)
(215.45838 0 -16.084004)
(214.66921 8.1966691e-17 -15.431526)
(213.91893 -7.6505415e-17 -14.774979)
(213.20754 0 -14.117416)
(212.53461 1.3470894e-16 -13.461773)
(211.89937 -6.3014234e-17 -12.810822)
(211.30071 -1.7668782e-16 -12.167143)
(210.73728 5.5112307e-16 -11.533099)
(210.2075 -2.0634255e-16 -10.91082)
(209.70963 9.6240239e-17 -10.30219)
(209.24184 -2.6985087e-16 -9.7088497)
(208.80221 -1.829004e-19 -9.1321949)
(208.3888 1.5645982e-16 -8.5733879)
(207.99966 -1.4595683e-16 -8.0333657)
(207.6329 -6.7924913e-17 -7.5128563)
(207.28667 -6.3270436e-17 -7.0123928)
(206.95919 -1.1813579e-16 -6.5323311)
(206.64879 2.1938749e-16 -6.0728666)
(206.35387 0 -5.6340514)
(206.07295 9.4804568e-17 -5.2158096)
(205.80465 -3.5276348e-16 -4.817952)
(205.54764 2.4551019e-16 -4.4401972)
(205.30066 7.5978202e-17 -4.0821653)
(205.06244 1.4114356e-16 -3.7434042)
(204.83176 1.3113813e-16 -3.4234137)
(204.60732 -1.2133699e-16 -3.12163)
(204.38775 -1.1243848e-16 -2.8374376)
(204.17154 -3.1276728e-16 -2.5701852)
(203.95707 -3.9978269e-20 -2.3191982)
(203.74266 -8.9378336e-17 -2.0837962)
(203.52659 0 -1.863282)
(203.30739 -2.2975054e-16 -1.6568824)
(203.08382 7.0844641e-17 -1.4637776)
(202.85443 0 -1.2833719)
(202.61702 1.2119224e-16 -1.115119)
(202.36904 0 -0.95742871)
(202.10758 1.0352041e-16 -0.80976988)
(201.8262 -1.4345211e-16 -0.6783637)
(201.52214 1.3255442e-16 -0.55926921)
(201.21838 -8.1625088e-17 -0.41519754)
(200.91051 7.5385326e-17 -0.30223842)
(200.46035 0 -0.37086992)
(220.45404 -4.1191038e-16 -38.553263)
(260.22276 3.6395555e-16 -17.49528)
(241.33697 -3.3341382e-16 -38.088965)
(251.81307 3.3156132e-16 -20.016905)
(244.3859 3.1749651e-16 -35.280935)
(247.59315 -1.8051128e-17 -23.318896)
(244.58668 -2.842862e-16 -32.038527)
(245.05526 -2.698669e-16 -26.341379)
(243.66996 2.8723983e-16 -29.674223)
(243.09748 0 -28.018726)
(242.15403 2.8660792e-17 -28.677562)
(241.29602 0 -28.420649)
(240.37224 -1.2890634e-16 -28.429865)
(239.42598 2.4339461e-16 -28.347169)
(238.44766 0 -28.259631)
(237.44067 0 -28.146272)
(236.40601 0 -28.008903)
(235.34561 3.9197353e-17 -27.844846)
(234.26163 0 -27.652394)
(233.15667 -2.4515172e-16 -27.429749)
(232.03372 3.3030325e-16 -27.175283)
(230.89612 1.249799e-16 -26.88757)
(229.7476 1.7721418e-16 -26.565394)
(228.5922 -2.7835507e-16 -26.207846)
(227.43424 -5.2454705e-17 -25.814336)
(226.27827 -2.4823421e-16 -25.384648)
(225.12898 1.8682882e-16 -24.918969)
(223.99112 -2.2066044e-16 -24.41792)
(222.86939 8.256176e-17 -23.882558)
(221.76842 7.8055271e-17 -23.314385)
(220.69259 0 -22.715331)
(219.646 2.7767343e-16 -22.087724)
(218.63235 -2.6079216e-16 -21.43426)
(217.6549 0 -20.757943)
(216.71641 -2.3054849e-16 -20.06204)
(215.81905 2.159441e-16 -19.350003)
(214.96445 -1.01762e-16 -18.625406)
(214.15366 1.9052205e-16 -17.891877)
(213.38713 -2.6769869e-16 -17.153022)
(212.66481 1.271069e-19 -16.412367)
(211.98613 -1.5640838e-16 -15.673296)
(211.3501 -7.3198497e-17 -14.939006)
(210.75534 -1.373794e-16 -14.212465)
(210.20017 2.561031e-16 -13.496383)
(209.68263 -1.1951161e-16 -12.793191)
(209.20062 0 -12.105034)
(208.75189 -3.7864829e-19 -11.433768)
(208.33412 9.7221528e-17 -10.780964)
(207.94497 0 -10.147919)
(207.58212 8.4561231e-17 -9.5356718)
(207.24329 7.9064369e-17 -8.9450203)
(206.92629 -7.3410309e-17 -8.3765416)
(206.62903 2.7331152e-16 -7.8306126)
(206.3495 -2.5407743e-16 -7.3074317)
(206.08585 -1.1816569e-16 -6.8070383)
(205.83636 -1.0977377e-16 -6.3293338)
(205.59942 1.0192792e-16 -5.874099)
(205.37355 1.8907358e-16 -5.4410104)
(205.15742 -3.5071735e-16 -5.0296562)
(204.94976 4.0645052e-16 -4.6395554)
(204.74938 -1.5060045e-16 -4.270148)
(204.55513 1.3959155e-16 -3.9208252)
(204.36589 -1.2921628e-16 -3.590949)
(204.18048 2.3930453e-16 -3.2798317)
(203.99765 -3.3219296e-16 -2.9867519)
(203.81603 2.0477473e-16 -2.7109637)
(203.63414 -8.0259971e-20 -2.4517146)
(203.45037 8.7522799e-17 -2.2082604)
(203.2631 0 -1.9798433)
(203.07086 0 -1.7656409)
(202.87241 0 -1.5648524)
(202.66639 -1.2717257e-16 -1.3769037)
(202.45113 1.6594048e-20 -1.2009491)
(202.22488 0 -1.0350401)
(201.9841 0 -0.87972711)
(201.72043 9.1951185e-17 -0.74228697)
(201.43404 -1.6943763e-16 -0.61336184)
(201.15233 0 -0.45300849)
(200.85517 0 -0.34276421)
(200.40119 -1.3192143e-16 -0.44234288)
(220.01538 2.780015e-17 -42.805101)
(260.13493 -7.8802094e-16 -20.641378)
(240.63177 3.4882993e-16 -42.179315)
(251.17673 -2.1794337e-17 -23.454359)
(243.56819 3.7423296e-16 -39.022542)
(246.80604 -3.5292146e-16 -26.995007)
(243.7128 0 -35.557839)
(244.04983 -3.178975e-16 -30.119097)
(242.61331 2.3369989e-16 -33.120842)
(241.91702 2.2196488e-16 -31.69249)
(240.88798 -2.3959508e-16 -32.170939)
(239.92156 0 -31.946231)
(238.89545 1.8965331e-19 -31.893683)
(237.84312 0 -31.770816)
(236.75864 3.8591867e-16 -31.630391)
(235.64538 -7.2903415e-16 -31.459067)
(234.50531 3.4418094e-16 -31.256835)
(233.34126 -4.065718e-17 -31.02112)
(232.15639 -3.8632124e-17 -30.750042)
(230.95437 3.6715366e-17 -30.441797)
(229.73932 -6.8566498e-17 -30.094855)
(228.51573 -3.2480536e-16 -29.70799)
(227.28848 3.056999e-16 -29.280348)
(226.06274 5.7628275e-17 -28.811509)
(224.84387 -2.7309353e-16 -28.301505)
(223.63734 -6.9442186e-19 -27.750891)
(222.44863 2.9005132e-16 -27.160731)
(221.28312 -1.8204672e-16 -26.532622)
(220.14594 -6.0947422e-19 -25.868674)
(219.04191 0 -25.171484)
(217.97542 0 -24.444094)
(216.95032 -7.1629361e-17 -23.689929)
(215.96983 1.3410161e-16 -22.912737)
(215.03656 0 -22.116499)
(214.15239 -1.1852194e-16 -21.305354)
(213.3185 2.2177283e-16 -20.48351)
(212.5354 -1.0389823e-16 -19.655152)
(211.80293 -1.9470718e-16 -18.824374)