/*--------------------------------*- C++ -*----------------------------------*\
  =========                 |
  \\      /  F ield         | OpenFOAM: The Open Source CFD Toolbox
   \\    /   O peration     | Website:  https://openfoam.org
    \\  /    A nd           | Version:  12
     \\/     M anipulation  |
\*---------------------------------------------------------------------------*/
FoamFile
{
    format      ascii;
    class       volScalarField;
    location    "0.078";
    object      alphat;
}
// * * * * * * * * * * * * * * * * * * * * * * * * * * * * * * * * * * * * * //

dimensions      [1 -1 -1 0 0 0 0];

internalField   nonuniform List<scalar> 
16000
(
5.0170953e-07
1.0729543e-05
1.9463429e-05
2.5948691e-05
1.9861998e-05
2.7291068e-05
1.9295741e-05
2.6422167e-05
2.065517e-05
2.8398942e-05
2.3983035e-05
2.8139031e-05
2.5702303e-05
2.6392649e-05
2.5531057e-05
2.5407021e-05
2.5167297e-05
2.5120412e-05
2.5159518e-05
2.5306461e-05
2.5553826e-05
2.5900772e-05
2.6345005e-05
2.6886925e-05
2.7529235e-05
2.8278793e-05
2.9144789e-05
3.0141711e-05
3.1287142e-05
3.2600022e-05
3.4101199e-05
3.581831e-05
3.7786971e-05
4.0051052e-05
4.2664492e-05
4.5691649e-05
4.9209189e-05
5.3308577e-05
5.8103033e-05
6.3732778e-05
7.0362392e-05
7.8185854e-05
8.7447601e-05
9.8446719e-05
0.00011153876
0.00012714982
0.00014580744
0.00016815331
0.00019496728
0.00022719797
0.00026600392
0.0003128025
0.00036932109
0.0004376687
0.00052041971
0.00062072838
0.00074247005
0.0008904233
0.0010705166
0.0011765928
0.001177328
0.0011779598
0.0011785282
0.0011789866
0.0011793346
0.001179555
0.0011796222
0.0011794938
0.0011791033
0.0011783532
0.0011770979
0.0011751128
0.0011722763
0.001169721
0.0011678817
0.0011668929
0.0011665026
0.0011664698
0.0011656955
0.0011652151
4.5348797e-07
1.0177857e-05
2.1247669e-05
2.3317432e-05
1.7891745e-05
2.4479631e-05
1.7110088e-05
2.3145939e-05
1.82264e-05
2.5079062e-05
2.16868e-05
2.5350469e-05
2.3479457e-05
2.3893476e-05
2.3225285e-05
2.3046263e-05
2.2850012e-05
2.2797627e-05
2.2837151e-05
2.297251e-05
2.3201789e-05
2.3523778e-05
2.3936816e-05
2.4441386e-05
2.5039665e-05
2.5738065e-05
2.6544578e-05
2.7472274e-05
2.8537786e-05
2.9759557e-05
3.1156978e-05
3.2755301e-05
3.4587475e-05
3.669411e-05
3.9125646e-05
4.1942571e-05
4.5217405e-05
4.903604e-05
5.3503894e-05
5.8753658e-05
6.4943352e-05
7.2255432e-05
8.0919888e-05
9.1221613e-05
0.00010350164
0.00011816435
0.00013571216
0.00015675831
0.0001820497
0.00021249533
0.00024920557
0.00029354233
0.00034716736
0.0004121131
0.0004908628
0.00058646219
0.00070265799
0.0008440666
0.0010164007
0.0011760866
0.0011768338
0.001177417
0.001177945
0.0011783622
0.0011786676
0.0011788442
0.0011788661
0.0011786904
0.0011782494
0.0011774463
0.0011761539
0.0011741879
0.0011714215
0.0011690559
0.0011673876
0.0011664819
0.0011662281
0.0011661981
0.0011652475
0.0011648014
4.0058714e-07
9.7562782e-06
2.0078185e-05
2.1267099e-05
1.6012266e-05
2.1542737e-05
1.5221224e-05
2.0102268e-05
1.6374504e-05
2.1986362e-05
1.9753104e-05
2.255242e-05
2.1247582e-05
2.1379971e-05
2.0871356e-05
2.0669657e-05
2.0508013e-05
2.0461151e-05
2.0503536e-05
2.0632375e-05
2.0847245e-05
2.1147333e-05
2.1531295e-05
2.1999876e-05
2.2554852e-05
2.3202394e-05
2.3949663e-05
2.4808516e-05
2.5794472e-05
2.6925498e-05
2.8220004e-05
2.9701361e-05
3.1400319e-05
3.335469e-05
3.5611831e-05
3.82287e-05
4.1274186e-05
4.4829845e-05
4.8994565e-05
5.3893579e-05
5.9679596e-05
6.6526232e-05
7.4651147e-05
8.4326108e-05
9.5880717e-05
0.00010970191
0.00012627123
0.00014617836
0.00017014305
0.00019904246
0.00023394753
0.00027617498
0.00032733298
0.00038939212
0.00046476216
0.00055640102
0.00066795181
0.00080390877
0.00096982796
0.0011725945
0.0011765096
0.0011770299
0.0011774999
0.0011778597
0.0011781072
0.001178225
0.0011781869
0.0011779492
0.0011774433
0.0011765707
0.0011752137
0.0011732405
0.0011705637
0.0011683994
0.0011669016
0.0011661265
0.0011659505
0.0011658936
0.0011650326
0.0011646451
3.6045236e-07
9.4312047e-06
1.9043085e-05
1.9978698e-05
1.4397958e-05
1.9007849e-05
1.3554986e-05
1.7555123e-05
1.47298e-05
1.9368126e-05
1.8016297e-05
2.0083397e-05
1.9195703e-05
1.9123818e-05
1.8733718e-05
1.8531423e-05
1.8400095e-05
1.8364122e-05
1.8412267e-05
1.8538383e-05
1.8742713e-05
1.9024931e-05
1.9384045e-05
1.9821207e-05
2.0337936e-05
2.094033e-05
2.1635008e-05
2.2432869e-05
2.3348385e-05
2.4399138e-05
2.5602898e-05
2.6981444e-05
2.8563755e-05
3.0385253e-05
3.249071e-05
3.4934059e-05
3.7781084e-05
4.110997e-05
4.5014443e-05
4.9612825e-05
5.5053788e-05
6.1504294e-05
6.9172137e-05
7.8317503e-05
8.9261824e-05
0.0001023787
0.00011813326
0.00013709698
0.00015996884
0.00018760269
0.00022103966
0.00026156356
0.00031074365
0.00037050683
0.00044321187
0.00053175631
0.00063971272
0.00077149547
0.00093256467
0.0011296906
0.0011763855
0.0011768281
0.0011772228
0.0011775097
0.0011776848
0.0011777307
0.0011776203
0.0011773096
0.0011767305
0.0011757842
0.0011743532
0.0011723582
0.0011698097
0.0011678319
0.001166487
0.0011658219
0.0011657396
0.0011657269
0.0011650778
0.0011645098
3.2446826e-07
9.1940152e-06
1.816026e-05
1.9940876e-05
1.4581254e-05
1.6805246e-05
1.2096542e-05
1.5375411e-05
1.3317983e-05
1.7119776e-05
1.6476657e-05
1.7866917e-05
1.7290555e-05
1.7081292e-05
1.6778665e-05
1.659055e-05
1.6483921e-05
1.6459118e-05
1.6511431e-05
1.6633952e-05
1.68272e-05
1.7091525e-05
1.742634e-05
1.7833318e-05
1.8313862e-05
1.8874085e-05
1.952021e-05
2.0262379e-05
2.1114022e-05
2.2092299e-05
2.3214556e-05
2.4501262e-05
2.5979935e-05
2.7683949e-05
2.9655868e-05
3.1947016e-05
3.4620421e-05
3.7751573e-05
4.1430354e-05
4.5768547e-05
5.0911482e-05
5.7021195e-05
6.4297833e-05
7.29908e-05
8.3415462e-05
9.5935151e-05
0.00011100159
0.00012917151
0.00015112683
0.00017770352
0.00020991849
0.00024902969
0.00029657527
0.00035444787
0.00042496668
0.00051098229
0.00061601278
0.0007444115
0.00090156651
0.0010941434
0.0011764423
0.0011767942
0.0011770979
0.001177297
0.0011773862
0.0011773477
0.0011771535
0.0011767589
0.0011760974
0.0011750733
0.0011735631
0.0011715166
0.0011691459
0.0011673438
0.0011661476
0.0011655788
0.0011655479
0.0011656801
0.0011652813
0.0011644073
2.9861038e-07
9.0486641e-06
1.7463377e-05
1.9587161e-05
1.4226491e-05
1.4881011e-05
1.1628118e-05
1.3579941e-05
1.2730405e-05
1.5255056e-05
1.5138991e-05
1.5930441e-05
1.5560693e-05
1.5269691e-05
1.5021167e-05
1.4848747e-05
1.4757404e-05
1.4739009e-05
1.479148e-05
1.4908086e-05
1.5089311e-05
1.533607e-05
1.5647988e-05
1.6027145e-05
1.6474923e-05
1.6997408e-05
1.76005e-05
1.8293749e-05
1.908958e-05
2.00047e-05
2.105624e-05
2.2263613e-05
2.36532e-05
2.5256687e-05
2.7114848e-05
2.9276867e-05
3.1803469e-05
3.4768035e-05
3.8258031e-05
4.237963e-05
4.7275179e-05
5.3103571e-05
6.0060109e-05
6.8384499e-05
7.8388292e-05
9.0428106e-05
0.00010494577
0.00012248757
0.00014372282
0.00016947631
0.00020074775
0.00023877803
0.00028508452
0.00034153776
0.00041043278
0.00049459145
0.00059749867
0.00072347207
0.00087786353
0.0010672952
0.0011766688
0.0011769172
0.0011771158
0.0011772138
0.0011772047
0.0011770705
0.0011767824
0.0011762946
0.001175542
0.0011744369
0.0011728551
0.0011707392
0.0011685819
0.0011669461
0.0011658866
0.0011654103
0.0011653943
0.0011657163
0.0011654419
0.0011644183
2.6931651e-07
8.9663112e-06
1.6917286e-05
1.8446398e-05
1.4109805e-05
1.313915e-05
1.1572912e-05
1.2577106e-05
1.1880308e-05
1.3587778e-05
1.393937e-05
1.422336e-05
1.3958607e-05
1.3631956e-05
1.3413588e-05
1.3257283e-05
1.3177366e-05
1.3164533e-05
1.3217242e-05
1.3329279e-05
1.3500732e-05
1.3733012e-05
1.4025701e-05
1.4297049e-05
1.470661e-05
1.5187881e-05
1.5745952e-05
1.6389577e-05
1.7129981e-05
1.7983059e-05
1.8965698e-05
2.0096298e-05
2.1400196e-05
2.2907475e-05
2.4657258e-05
2.6696779e-05
2.9084614e-05
3.1892084e-05
3.5205129e-05
3.9420593e-05
4.4117001e-05
4.9720421e-05
5.6424146e-05
6.4459599e-05
7.4135816e-05
8.5806146e-05
9.9905921e-05
0.00011697491
0.00013767358
0.00016282173
0.00019340806
0.00023066436
0.0002760963
0.00033156299
0.00039934868
0.00048226249
0.00058377474
0.00070818904
0.0008608486
0.0010483703
0.001177047
0.0011771811
0.0011772625
0.0011772479
0.0011771299
0.0011768901
0.0011764993
0.0011759111
0.0011750601
0.0011738681
0.0011722307
0.0011700831
0.0011681228
0.0011666446
0.0011657043
0.0011653257
0.0011652755
0.0011657918
0.0011656801
0.0011645546
2.4224962e-07
8.9200182e-06
1.644604e-05
1.6732221e-05
1.2707348e-05
1.1448382e-05
9.843111e-06
1.1160772e-05
1.0332316e-05
1.2230652e-05
1.2725872e-05
1.2652963e-05
1.242932e-05
1.2112132e-05
1.1919386e-05
1.178473e-05
1.1719452e-05
1.1715754e-05
1.1701157e-05
1.179483e-05
1.1947785e-05
1.2160511e-05
1.2430839e-05
1.2759447e-05
1.3151113e-05
1.3609604e-05
1.4140307e-05
1.4751897e-05
1.5454995e-05
1.6265036e-05
1.7199134e-05
1.8275159e-05
1.9517962e-05
2.095662e-05
2.2629308e-05
2.4582043e-05
2.6872135e-05
2.9569665e-05
3.2760088e-05
3.6547384e-05
4.1058206e-05
4.6452741e-05
5.2924426e-05
6.1209944e-05
7.0652491e-05
8.2064493e-05
9.5878563e-05
0.00011263176
0.00013297955
0.00015774331
0.00018790724
0.00022470224
0.00026963211
0.00032455578
0.00039176077
0.00047406064
0.00057493116
0.00069868557
0.00085068773
0.0010375901
0.0011775566
0.0011775672
0.0011775218
0.0011773854
0.0011771497
0.0011767964
0.0011762958
0.0011756019
0.0011746487
0.0011733626
0.0011716769
0.0011695538
0.0011677753
0.0011664456
0.0011656103
0.0011653266
0.0011652456
0.0011658755
0.00116602
0.0011648606
2.2367501e-07
8.8741416e-06
1.5944276e-05
1.464842e-05
1.0446371e-05
1.0177395e-05
8.1304368e-06
9.5218158e-06
9.7193552e-06
1.0986884e-05
1.1501582e-05
1.119571e-05
1.0991848e-05
1.0709241e-05
1.0542565e-05
1.0359315e-05
1.0283433e-05
1.027427e-05
1.0324444e-05
1.0430752e-05
1.0588745e-05
1.0801166e-05
1.1066598e-05
1.1385511e-05
1.1762828e-05
1.2203237e-05
1.2712178e-05
1.3298368e-05
1.3972019e-05
1.4748082e-05
1.5644021e-05
1.6677429e-05
1.7873001e-05
1.9259129e-05
2.0873424e-05
2.2761199e-05
2.4979032e-05
2.7596374e-05
3.0698054e-05
3.4387223e-05
3.8791007e-05
4.4067381e-05
5.0413042e-05
5.8055766e-05
6.7287132e-05
7.8469149e-05
9.2848505e-05
0.00010944153
0.00012962277
0.00015422139
0.00018422394
0.0002208688
0.00026566772
0.00032049096
0.00038764345
0.00046996089
0.0005709453
0.0006949438
0.00084736969
0.0010349506
0.0011781746
0.0011780541
0.0011778748
0.0011776102
0.0011772507
0.001176778
0.0011761623
0.0011753592
0.0011743044
0.0011729207
0.0011711794
0.0011691529
0.0011675448
0.0011663557
0.001165616
0.0011654128
0.0011652701
0.0011659324
0.0011662555
0.0011652237
2.0515076e-07
8.8296851e-06
1.4316336e-05
1.2780553e-05
8.4523745e-06
9.048199e-06
7.2695657e-06
8.5903167e-06
8.9974418e-06
9.8325887e-06
1.0295468e-05
9.8725017e-06
9.6745402e-06
9.3407698e-06
9.163402e-06
9.0554554e-06
9.0142679e-06
9.0306916e-06
9.0981272e-06
9.2162123e-06
9.3806842e-06
9.5930013e-06
9.8549077e-06
1.0166704e-05
1.0533526e-05
1.0960506e-05
1.1453254e-05
1.2020669e-05
1.2672709e-05
1.3423878e-05
1.4292053e-05
1.5294901e-05
1.6457218e-05
1.780702e-05
1.9381726e-05
2.1226402e-05
2.3397398e-05
2.5964137e-05
2.9011883e-05
3.2644342e-05
3.6988835e-05
4.2202991e-05
4.8487247e-05
5.6069573e-05
6.5244308e-05
7.6375999e-05
8.9913017e-05
0.00010638007
0.00012759751
0.00015225196
0.00018235721
0.00021916725
0.00026421244
0.00031938627
0.0003870261
0.00047000847
0.00057188416
0.00069706058
0.00085103051
0.0010406356
0.0011788757
0.0011786188
0.0011783013
0.0011779044
0.0011774175
0.0011768224
0.0011760888
0.0011751746
0.0011740217
0.001172549
0.001170736
0.0011688831
0.0011674317
0.0011663734
0.0011657144
0.0011655476
0.0011653542
0.0011659614
0.0011663752
0.0011655624
1.8922469e-07
8.7841699e-06
1.138092e-05
1.0560768e-05
6.9616003e-06
8.0554213e-06
6.6304099e-06
7.7206946e-06
8.4231528e-06
8.7873574e-06
9.115124e-06
8.5789409e-06
8.3293404e-06
8.1000972e-06
7.9715126e-06
7.9037676e-06
7.8921404e-06
7.930695e-06
8.014465e-06
8.1421671e-06
8.3121787e-06
8.5265021e-06
8.7872035e-06
9.0951088e-06
9.4554606e-06
9.8738718e-06
1.035625e-05
1.0911742e-05
1.1550273e-05
1.2285984e-05
1.3069986e-05
1.4043208e-05
1.5173946e-05
1.6489818e-05
1.8028043e-05
1.9833484e-05
2.1962343e-05
2.4484084e-05
2.7484543e-05
3.1068311e-05
3.5364076e-05
4.0849033e-05
4.7137262e-05
5.4737961e-05
6.3948386e-05
7.5137007e-05
8.8765164e-05
0.00010537009
0.00012562794
0.00015037948
0.00018230484
0.00021960052
0.00026527629
0.00032126149
0.0003899416
0.00047425423
0.00057782308
0.00070514453
0.00086182289
0.0010548517
0.0011796336
0.0011792371
0.0011787799
0.0011782495
0.0011776344
0.0011769163
0.001176065
0.0011750396
0.0011737918
0.0011722542
0.0011703938
0.0011687395
0.0011674313
0.0011664832
0.0011659027
0.0011656772
0.0011655091
0.001166012
0.0011663683
0.0011658998
1.7524166e-07
8.7415236e-06
8.996361e-06
9.0310447e-06
6.1427289e-06
7.1396863e-06
6.0926745e-06
6.9641449e-06
7.8396104e-06
7.8144463e-06
7.8356868e-06
7.3806891e-06
7.1779873e-06
7.0119204e-06
6.9248416e-06
6.890608e-06
6.9044193e-06
6.9621415e-06
7.0600445e-06
7.1981508e-06
7.3751263e-06
7.5931989e-06
7.8553728e-06
8.1629777e-06
8.5213536e-06
8.8982662e-06
9.3684238e-06
9.9110716e-06
1.0536001e-05
1.1256888e-05
1.2090208e-05
1.305737e-05
1.4182532e-05
1.5493453e-05
1.7027788e-05
1.8830963e-05
2.0959981e-05
2.3485358e-05
2.6494804e-05
3.009529e-05
3.4418747e-05
3.9629841e-05
4.593003e-05
5.3560459e-05
6.2823599e-05
7.4738952e-05
8.8589418e-05
0.00010548679
0.0001261195
0.00015135494
0.0001822494
0.00022217424
0.00026887456
0.00032614476
0.00039643504
0.0004827659
0.00058886014
0.00071933459
0.00087994043
0.0010778595
0.001180422
0.001179885
0.001179289
0.0011786263
0.0011778848
0.0011770458
0.0011760803
0.0011749475
0.0011736053
0.0011720235
0.001170203
0.0011687133
0.0011675365
0.0011666711
0.0011661285
0.0011658881
0.0011657339
0.0011661081
0.0011663641
0.0011659565
1.627853e-07
8.690454e-06
7.1717009e-06
7.9310048e-06
5.4801217e-06
6.3236526e-06
5.6330376e-06
6.2964247e-06
7.1451032e-06
6.709382e-06
6.6819028e-06
6.3334805e-06
6.1741071e-06
6.0591061e-06
6.0076292e-06
6.0023451e-06
6.0388186e-06
6.1145258e-06
6.2265407e-06
6.3755688e-06
6.5611082e-06
6.7855125e-06
7.0226383e-06
7.3271981e-06
7.6822265e-06
8.0926757e-06
8.5667695e-06
9.113332e-06
9.7424191e-06
1.0467969e-05
1.1306669e-05
1.2279732e-05
1.34128e-05
1.4734107e-05
1.6282032e-05
1.8102985e-05
2.0255386e-05
2.281138e-05
2.5861362e-05
2.9515865e-05
3.3910287e-05
3.9213171e-05
4.5636561e-05
5.3427872e-05
6.2899284e-05
7.4438465e-05
8.8526067e-05
0.00010574152
0.00012791333
0.00015385799
0.0001856419
0.00022461073
0.00027501834
0.00033406143
0.00040654989
0.00049561081
0.00060509455
0.00073977207
0.00090558232
0.0011099318
0.001181215
0.0011805389
0.0011798077
0.0011790165
0.0011781525
0.001177197
0.0011761228
0.0011748917
0.0011734599
0.001171827
0.0011701377
0.0011687935
0.0011677355
0.0011669478
0.0011664255
0.0011661376
0.0011660094
0.0011662346
0.0011663516
0.0011659342
1.517484e-07
8.627802e-06
5.7624336e-06
6.9370972e-06
4.8901002e-06
5.5984903e-06
5.2436447e-06
5.6165177e-06
6.2699807e-06
5.7506198e-06
5.6700214e-06
5.4177432e-06
5.2993104e-06
5.2269844e-06
5.20719e-06
5.2281092e-06
5.2859027e-06
5.3791817e-06
5.5058724e-06
5.6461062e-06
5.8356109e-06
6.0639576e-06
6.3339024e-06
6.6489997e-06
7.0142936e-06
7.4351721e-06
7.919794e-06
8.4777195e-06
9.1192825e-06
9.8586443e-06
1.0712676e-05
1.1702908e-05
1.2797502e-05
1.4130221e-05
1.569266e-05
1.7532181e-05
1.9708862e-05
2.229655e-05
2.5388389e-05
2.9099078e-05
3.3568685e-05
3.9266882e-05
4.5874521e-05
5.3900731e-05
6.3668719e-05
7.5577588e-05
9.0131605e-05
0.00010793653
0.00012973226
0.00015787077
0.00019082067
0.0002312402
0.00028084325
0.00034502405
0.00042031663
0.00051284189
0.00062660969
0.00076657987
0.00093892629
0.0011513223
0.0011819882
0.001181177
0.0011803165
0.0011794023
0.001178422
0.0011773566
0.0011761801
0.0011748615
0.001173362
0.0011716795
0.001170183
0.0011689651
0.0011680078
0.0011672866
0.0011667878
0.001166478
0.0011662861
0.0011663922
0.0011664433
0.0011661743
1.4197972e-07
8.5110755e-06
4.6865591e-06
6.0531962e-06
4.3646205e-06
4.9544265e-06
4.9056121e-06
4.8770646e-06
5.3864721e-06
4.8956673e-06
4.7931343e-06
4.6201053e-06
4.5408279e-06
4.5055206e-06
4.5147107e-06
4.5600765e-06
4.63852e-06
4.7307886e-06
4.8667876e-06
5.0373463e-06
5.243632e-06
5.4875602e-06
5.77266e-06
6.1027163e-06
6.4834236e-06
6.9204763e-06
7.4221289e-06
7.9744787e-06
8.6294815e-06
9.3833867e-06
1.0253155e-05
1.1260391e-05
1.2431504e-05
1.3799668e-05
1.5404448e-05
1.729484e-05
1.9533743e-05
2.2197898e-05
2.5384289e-05
2.9213603e-05
3.3832541e-05
3.9425771e-05
4.6216301e-05
5.4478467e-05
6.4549752e-05
7.748988e-05
9.2638009e-05
0.00011118381
0.00013390469
0.00016175706
0.00019775684
0.00023996302
0.00029178201
0.00035541566
0.00043773426
0.00053447583
0.00065344588
0.0007998291
0.0009800845
0.001183644
0.0011827191
0.0011817794
0.0011807977
0.0011797679
0.0011786788
0.0011775122
0.001176242
0.0011748427
0.0011733058
0.0011716682
0.0011703175
0.0011692135
0.0011683355
0.001167664
0.0011671772
0.0011668484
0.0011665982
0.0011665903
0.001166611
0.0011664461
1.3339068e-07
8.1910329e-06
3.9438619e-06
5.2695799e-06
3.8979449e-06
4.3850327e-06
4.3684478e-06
4.2088203e-06
4.5339709e-06
4.1395715e-06
4.0417272e-06
3.932011e-06
3.8897127e-06
3.8872904e-06
3.923249e-06
3.9771893e-06
4.0688289e-06
4.1936989e-06
4.3511175e-06
4.5415577e-06
4.7668786e-06
5.0295728e-06
5.3336454e-06
5.6832054e-06
6.070643e-06
6.5249121e-06
7.0445094e-06
7.6390029e-06
8.3204121e-06
9.1030536e-06
1.0004364e-05
1.1046871e-05
1.2258125e-05
1.3672639e-05
1.5332795e-05
1.7289488e-05
1.9609121e-05
2.2372203e-05
2.5679899e-05
2.9660327e-05
3.4466325e-05
4.0292229e-05
4.7376046e-05
5.6004903e-05
6.6536027e-05
7.9406924e-05
9.6000044e-05
0.00011543944
0.000139266
0.00016849679
0.00020435303
0.00025072399
0.00030516495
0.00037204507
0.00045421451
0.00056046244
0.00068556401
0.00083949601
0.0010290467
0.0011844229
0.0011833883
0.0011823298
0.0011812364
0.0011801001
0.0011789106
0.0011776523
0.0011763014
0.0011748308
0.0011732508
0.0011717513
0.001170526
0.0011695234
0.0011687179
0.0011680868
0.0011676079
0.0011672539
0.0011669942
0.0011668308
0.0011668469
0.0011667949
1.2605889e-07
7.7690658e-06
3.4767747e-06
4.575215e-06
3.4840065e-06
3.7184456e-06
3.8950714e-06
3.5968546e-06
3.7621404e-06
3.4826142e-06
3.406066e-06
3.3465279e-06
3.3381034e-06
3.3653268e-06
3.4091961e-06
3.4949445e-06
3.6126683e-06
3.7612338e-06
3.9409493e-06
4.1530878e-06
4.4001111e-06
4.684818e-06
5.0020567e-06
5.3720242e-06
5.7938971e-06
6.2744044e-06
6.8216303e-06
7.4454938e-06
8.1582783e-06
8.9752316e-06
9.9143783e-06
1.0999253e-05
1.225872e-05
1.3729098e-05
1.5389205e-05
1.7408785e-05
1.9805172e-05
2.2663279e-05
2.624595e-05
3.0407747e-05
3.5438329e-05
4.1541727e-05
4.8972393e-05
5.8033553e-05
6.9101491e-05
8.2641283e-05
9.9222372e-05
0.00011954209
0.00014574574
0.00017656782
0.00021439492
0.00026083603
0.00032088079
0.00039149502
0.00047827209
0.00059064767
0.0007227991
0.00088540838
0.0010856235
0.001185121
0.0011839813
0.0011828157
0.0011816212
0.001180389
0.0011791086
0.0011777669
0.0011763475
0.0011748345
0.0011732496
0.0011719078
0.0011707903
0.0011698741
0.0011691311
0.0011685376
0.0011680713
0.0011676977
0.0011673757
0.0011671393
0.0011671296
0.0011671748
1.2028104e-07
6.8020762e-06
3.0790201e-06
3.945323e-06
3.1275315e-06
3.1031926e-06
3.4236649e-06
3.0427128e-06
3.0990413e-06
2.9213701e-06
2.8740018e-06
2.8553732e-06
2.869344e-06
2.9157047e-06
2.9978857e-06
3.1115345e-06
3.2547203e-06
3.427419e-06
3.6307607e-06
3.8664952e-06
4.1315178e-06
4.4387213e-06
4.788323e-06
5.1851308e-06
5.6348827e-06
6.1445344e-06
6.7225436e-06
7.379226e-06
8.12727e-06
8.9628668e-06
9.9381458e-06
1.1062929e-05
1.2367328e-05
1.3889057e-05
1.5675261e-05
1.7784847e-05
2.0290594e-05
2.3283537e-05
2.6876534e-05
3.1208882e-05
3.6453362e-05
4.3130957e-05
5.0956902e-05
6.0510792e-05
7.2189477e-05
8.6485548e-05
0.00010400374
0.00012548696
0.0001532403
0.00018585251
0.00022589561
0.00027507226
0.00033874128
0.00041354831
0.00050550527
0.00061857242
0.00076480849
0.00093718056
0.001149381
0.0011857272
0.0011844904
0.0011832295
0.0011819447
0.0011806277
0.0011792681
0.001177853
0.0011763716
0.0011748333
0.0011733434
0.0011721181
0.0011710945
0.0011702499
0.0011695592
0.0011689994
0.0011685463
0.0011681617
0.0011678068
0.001167533
0.001167502
0.0011675798
1.1565184e-07
4.7624937e-06
2.7205149e-06
3.3609555e-06
2.6750537e-06
2.5882995e-06
2.9266117e-06
2.5491821e-06
2.5469747e-06
2.4487406e-06
2.434282e-06
2.4432315e-06
2.488108e-06
2.5685207e-06
2.6801231e-06
2.8204433e-06
2.9888705e-06
3.1861155e-06
3.4106735e-06
3.6696747e-06
3.9643733e-06
4.2981559e-06
4.6751327e-06
5.1002954e-06
5.5796616e-06
6.1204835e-06
6.7315661e-06
7.4124945e-06
8.1944612e-06
9.0861391e-06
1.0107929e-05
1.1285169e-05
1.2649788e-05
1.4241868e-05
1.6111635e-05
1.8321649e-05
2.0949615e-05
2.4092145e-05
2.7869336e-05
3.2430084e-05
3.7958708e-05
4.4682231e-05
5.3274482e-05
6.3372746e-05
7.572622e-05
9.0857456e-05
0.00010940864
0.00013217031
0.00016011512
0.00019618347
0.00023865865
0.0002908411
0.00035496949
0.00043786883
0.00053551118
0.00065558913
0.00081101817
0.00099413898
0.0011875687
0.001186238
0.0011849132
0.001183569
0.0011822043
0.001180813
0.0011793856
0.0011779114
0.0011763838
0.0011748307
0.0011734975
0.0011723696
0.0011714248
0.0011706385
0.0011699902
0.0011694604
0.0011690229
0.0011686335
0.0011682616
0.001167988
0.0011679775
0.0011680574
1.1075864e-07
3.9553573e-06
2.3447198e-06
2.8228694e-06
2.3070942e-06
2.1586913e-06
2.4114985e-06
2.1157395e-06
2.0980882e-06
2.0606345e-06
2.0749674e-06
2.1183754e-06
2.1990723e-06
2.3100799e-06
2.4488414e-06
2.614466e-06
2.8073262e-06
3.0264836e-06
3.2775982e-06
3.562017e-06
3.8827418e-06
4.2434052e-06
4.6483488e-06
5.1027582e-06
5.6128634e-06
6.1861892e-06
6.8243022e-06
7.5502702e-06
8.3727871e-06
9.3089804e-06
1.0380398e-05
1.1613939e-05
1.3043429e-05
1.471138e-05
1.6671276e-05
1.8990045e-05
2.1750725e-05
2.5056156e-05
2.9034151e-05
3.3842556e-05
3.9677152e-05
4.7118286e-05
5.5858896e-05
6.6542049e-05
7.9620527e-05
9.5648743e-05
0.00011530861
0.00013943954
0.00017064108
0.00020733485
0.00025241176
0.00030781089
0.00037591395
0.00046397459
0.00056771626
0.00069532221
0.00086056444
0.0010552423
0.001188048
0.0011866527
0.0011852518
0.0011838365
0.0011824028
0.0011809465
0.0011794603
0.0011779377
0.0011763907
0.0011749164
0.0011736897
0.0011726479
0.0011717683
0.0011710295
0.001170415
0.0011699103
0.0011694888
0.001169102
0.0011687264
0.0011684627
0.0011684658
0.0011685223
1.0744937e-07
3.1850953e-06
2.0213776e-06
2.2804253e-06
2.0049253e-06
1.7909703e-06
1.9322533e-06
1.747872e-06
1.7454575e-06
1.7567559e-06
1.8010484e-06
1.8822112e-06
1.99366e-06
2.1314698e-06
2.2946633e-06
2.4835487e-06
2.6980788e-06
2.9419723e-06
3.2170943e-06
3.526195e-06
3.8725611e-06
4.260036e-06
4.6931253e-06
5.1771641e-06
5.7185544e-06
6.3207495e-06
6.9996645e-06
7.7641514e-06
8.6285481e-06
9.6108527e-06
1.0733915e-05
1.2026284e-05
1.3523894e-05
1.5271847e-05
1.7326843e-05
1.9760151e-05
2.2660809e-05
2.6138056e-05
3.0328215e-05
3.5398999e-05
4.1831476e-05
4.9395707e-05
5.8629819e-05
6.9925062e-05
8.3760547e-05
0.00010072565
0.00012154421
0.00014710789
0.00018012242
0.00021900755
0.00026679686
0.00032554969
0.00039780243
0.0004911971
0.00060131481
0.00073680042
0.00091224517
0.0011190242
0.0011884319
0.0011869766
0.0011855121
0.0011840373
0.0011825458
0.001181034
0.0011794986
0.0011779392
0.0011763857
0.0011750513
0.00117391
0.0011729389
0.001172113
0.0011714129
0.0011708249
0.0011703379
0.001169927
0.0011695465
0.0011691797
0.0011689289
0.0011689286
0.0011689438
1.0602788e-07
2.5096365e-06
1.7417442e-06
1.7597103e-06
1.7266137e-06
1.4764495e-06
1.5407133e-06
1.4545508e-06
1.4827106e-06
1.5290446e-06
1.6118288e-06
1.723346e-06
1.8601558e-06
2.020727e-06
2.2053817e-06
2.4153198e-06
2.6515356e-06
2.9175815e-06
3.2156104e-06
3.5486352e-06
3.9201154e-06
4.3340388e-06
4.7950387e-06
5.3085755e-06
5.8811879e-06
6.5208356e-06
7.2373424e-06
8.0429307e-06
8.9426234e-06
9.9716914e-06
1.1147258e-05
1.2499635e-05
1.4067016e-05
1.5897339e-05
1.8050592e-05
2.0685619e-05
2.3752816e-05
2.7433591e-05
3.1873579e-05
3.7252339e-05
4.379089e-05
5.1760856e-05
6.1497563e-05
7.3413423e-05
8.8015883e-05
0.00010592967
0.00012792244
0.00015629218
0.00018973611
0.00023083611
0.00028136589
0.00034350974
0.00042393394
0.00051868754
0.00063527299
0.00077877014
0.00096450514
0.0011835991
0.0011887334
0.0011872231
0.0011857042
0.001184179
0.0011826405
0.0011810831
0.001179506
0.0011779288
0.001176456
0.0011752128
0.0011741449
0.00117323
0.0011724465
0.0011717763
0.0011712073
0.0011707288
0.0011703184
0.0011699403
0.001169589
0.0011693526
0.0011693245
0.0011692827
1.0755468e-07
1.9314218e-06
1.5085583e-06
1.3607298e-06
1.4426943e-06
1.2127388e-06
1.2539995e-06
1.2395127e-06
1.3002399e-06
1.3809041e-06
1.4921323e-06
1.6270452e-06
1.7843697e-06
1.9642556e-06
2.1679445e-06
2.3972038e-06
2.6538247e-06
2.9408687e-06
3.2609018e-06
3.6170726e-06
4.0129465e-06
4.4526099e-06
4.9408043e-06
5.4831184e-06
6.0862539e-06
6.7583835e-06
7.5096312e-06
8.3526703e-06
9.3034681e-06
1.0382228e-05
1.1614497e-05
1.3032633e-05
1.4677409e-05
1.6600087e-05
1.8864818e-05
2.1551608e-05
2.4759969e-05
2.8613664e-05
3.3265777e-05
3.8905727e-05
4.5767351e-05
5.4138143e-05
6.4369478e-05
7.6896325e-05
9.2252518e-05
0.00011201504
0.00013532819
0.00016396156
0.000199149
0.00024241124
0.0002956198
0.00036446965
0.00044561388
0.00054546773
0.00066838867
0.00082771389
0.0010154891
0.001190546
0.0011889694
0.00118741
0.0011858444
0.001184274
0.0011826948
0.0011811034
0.0011795006
0.0011779209
0.0011765658
0.0011753934
0.001174383
0.0011735106
0.0011727573
0.0011721073
0.0011715488
0.0011710701
0.0011706504
0.0011702644
0.0011699227
0.0011697059
0.0011696571
0.0011695432
1.131883e-07
1.4567555e-06
1.3190954e-06
1.0694358e-06
1.2873973e-06
9.9392902e-07
1.0593342e-06
1.0970717e-06
1.1845926e-06
1.2928053e-06
1.424982e-06
1.5780813e-06
1.7525162e-06
1.9494395e-06
2.1705835e-06
2.4179787e-06
2.6939351e-06
3.0008497e-06
3.3418547e-06
3.7200732e-06
4.1391516e-06
4.6032679e-06
5.1172757e-06
5.6869045e-06
6.3190363e-06
7.0220795e-06
7.8064723e-06
8.6853685e-06
9.675394e-06
1.0797679e-05
1.2078971e-05
1.3553237e-05
1.5263319e-05
1.7263113e-05
1.962009e-05
2.2418428e-05
2.5762741e-05
2.9782684e-05
3.4638572e-05
4.0528312e-05
4.8021407e-05
5.6838912e-05
6.7616874e-05
8.0813196e-05
9.6990311e-05
0.00011684043
0.00014121602
0.00017116702
0.00020798303
0.00025562687
0.00031174698
0.00038078863
0.00046576029
0.00057037526
0.00070603744
0.00086592482
0.0010628772
0.0011907567
0.0011891507
0.0011875545
0.0011859522
0.0011843424
0.0011827233
0.0011810975
0.0011794841
0.0011779778
0.0011766969
0.0011755829
0.0011746149
0.0011737718
0.0011730366
0.0011723958
0.0011718381
0.0011713515
0.0011709188
0.0011705235
0.0011701786
0.0011699429
0.0011698376
0.0011696724
1.2356548e-07
1.1474369e-06
1.1559251e-06
9.2885752e-07
9.4106718e-07
8.6898666e-07
9.3135429e-07
1.0111428e-06
1.1193836e-06
1.2470991e-06
1.3951375e-06
1.5633037e-06
1.7528375e-06
1.9652859e-06
2.2025312e-06
2.4666744e-06
2.7600644e-06
3.0853184e-06
3.4453694e-06
3.8435201e-06
4.2835225e-06
4.769685e-06
5.3070232e-06
5.9014739e-06
6.5601917e-06
7.2893686e-06
8.1035861e-06
9.0148323e-06
1.0049323e-05
1.1215114e-05
1.2546345e-05
1.4078734e-05
1.5857294e-05
1.7938579e-05
2.039334e-05
2.3309728e-05
2.6797221e-05
3.0991412e-05
3.6059865e-05
4.2209353e-05
4.9694753e-05
5.8830016e-05
7.000146e-05
8.3682257e-05
0.00010045695
0.00012104423
0.00014763162
0.00017894489
0.00021743194
0.00026476192
0.00032299235
0.00039466442
0.0004829139
0.00059723586
0.00073213439
0.00089834927
0.0011032092
0.0011909272
0.001189294
0.0011876687
0.0011860402
0.0011844043
0.0011827574
0.0011811045
0.0011794837
0.0011780724
0.0011768437
0.0011757722
0.0011748327
0.0011740063
0.0011732779
0.0011726352
0.0011720674
0.0011715638
0.0011711123
0.0011707043
0.0011703491
0.0011700777
0.0011698921
0.0011696777
1.4499892e-07
1.1876169e-06
9.9438901e-07
7.0798136e-07
7.6831203e-07
7.7643611e-07
8.6053172e-07
9.6308933e-07
1.087727e-06
1.2302295e-06
1.3917736e-06
1.5732958e-06
1.7763187e-06
2.0025029e-06
2.2537597e-06
2.5322196e-06
2.8402665e-06
3.1805699e-06
3.5561279e-06
3.9703211e-06
4.4269868e-06
4.9305232e-06
5.4860398e-06
6.0995722e-06
6.7783871e-06
7.5314001e-06
8.3697305e-06
9.307411e-06
1.0362287e-05
1.1557092e-05
1.2920732e-05
1.4489907e-05
1.6310928e-05
1.8442001e-05
2.095592e-05
2.3943352e-05
2.751684e-05
3.1815665e-05
3.7011817e-05
4.3317319e-05
5.0993371e-05
6.0793799e-05
7.2339341e-05
8.6475152e-05
0.00010380493
0.00012507066
0.00015118712
0.00018328223
0.00022274741
0.00027129761
0.00033105449
0.00040837222
0.00049966621
0.00061213304
0.00075074478
0.0009216467
0.0011324113
0.0011910999
0.0011894357
0.001187778
0.0011861216
0.0011844628
0.0011827999
0.0011811412
0.0011795434
0.001178191
0.0011770001
0.0011759551
0.0011750311
0.0011742108
0.0011734796
0.0011728256
0.001172239
0.0011717114
0.0011712352
0.0011708065
0.0011704281
0.0011701079
0.0011698432
0.001169594
1.3814867e-07
7.8966905e-07
8.1457284e-07
6.0330405e-07
6.6112812e-07
7.2199181e-07
8.245409e-07
9.4385353e-07
1.0815669e-06
1.2366999e-06
1.4105194e-06
1.6042463e-06
1.8194319e-06
2.057803e-06
2.3213123e-06
2.6121493e-06
2.9327687e-06
3.2858811e-06
3.6746263e-06
4.102451e-06
4.5732836e-06
5.0916161e-06
5.6626546e-06
6.2925367e-06
6.9886423e-06
7.7600198e-06
8.6179523e-06
9.5766908e-06
1.066302e-05
1.1886682e-05
1.3283163e-05
1.4890151e-05
1.6755149e-05
1.8937808e-05
2.1512662e-05
2.4572503e-05
2.823245e-05
3.2634946e-05
3.7955888e-05
4.4412142e-05
5.2270755e-05
6.1860185e-05
7.3584104e-05
8.7940599e-05
0.00010554218
0.00012714394
0.00015367703
0.00018792512
0.00022833048
0.00027803501
0.0003392153
0.00041455847
0.00050738777
0.00062181438
0.00076292581
0.00093701552
0.0011518362
0.0011913261
0.0011896338
0.0011879424
0.0011862503
0.0011845557
0.0011828621
0.001181193
0.0011796571
0.0011783326
0.0011771636
0.0011761297
0.0011752092
0.0011743855
0.0011736437
0.0011729716
0.0011723602