/*--------------------------------*- C++ -*----------------------------------*\
  =========                 |
  \\      /  F ield         | OpenFOAM: The Open Source CFD Toolbox
   \\    /   O peration     | Website:  https://openfoam.org
    \\  /    A nd           | Version:  12
     \\/     M anipulation  |
\*---------------------------------------------------------------------------*/
FoamFile
{
    format      ascii;
    class       surfaceScalarField;
    location    "0.078";
    object      phi;
}
// * * * * * * * * * * * * * * * * * * * * * * * * * * * * * * * * * * * * * //

dimensions      [1 0 -1 0 0 0 0];

internalField   nonuniform List<scalar> 
31760
(
-0.00064267817
-0.050653809
0.051298644
-0.0016031255
-0.063941033
0.064903557
-0.0025777936
-0.062621939
0.063594243
-0.0035953019
-0.068230602
0.069250655
-0.0046679842
-0.069908271
0.070983588
-0.0057678603
-0.074139961
0.075242555
-0.0069384545
-0.077056945
0.078230384
-0.0081470327
-0.081036622
0.082248148
-0.009416305
-0.084641777
0.085914138
-0.010743744
-0.088734004
0.090064665
-0.012126855
-0.092844768
0.094231252
-0.013577052
-0.097230717
0.098684448
-0.015089169
-0.10178025
0.10329607
-0.016671404
-0.10655475
0.10814087
-0.018323399
-0.11154318
0.11319926
-0.020049899
-0.11676204
0.11849285
-0.021853593
-0.12221936
0.12402758
-0.023737694
-0.12792647
0.12981535
-0.025705458
-0.13389432
0.13586711
-0.027760297
-0.14013409
0.14219423
-0.029905662
-0.14665809
0.14880904
-0.032145324
-0.15347821
0.15572376
-0.034482892
-0.16060793
0.1629517
-0.036922284
-0.16806087
0.17050679
-0.039466485
-0.17585144
0.17840253
-0.042120082
-0.18399366
0.18665453
-0.044886973
-0.19250366
0.19527822
-0.047770592
-0.20139793
0.20428964
-0.050774443
-0.21069328
0.21370567
-0.053902572
-0.22040765
0.2235448
-0.057158294
-0.23055987
0.23382511
-0.060544946
-0.24116961
0.24456632
-0.064065346
-0.25225825
0.25578926
-0.067722547
-0.26384676
0.26751516
-0.07151855
-0.2759591
0.27976692
-0.075455028
-0.28861939
0.29256833
-0.079533322
-0.30185322
0.30594466
-0.083753919
-0.31568814
0.31992259
-0.088116653
-0.33015198
0.33452932
-0.092620225
-0.34527603
0.34979498
-0.097262659
-0.36109187
0.36575051
-0.10204056
-0.37763309
0.38242805
-0.10694938
-0.39493554
0.3998623
-0.11198336
-0.41303686
0.41808971
-0.11713486
-0.43197718
0.4371485
-0.12239484
-0.45179786
0.45707864
-0.12775189
-0.47254351
0.47792235
-0.13319324
-0.49426016
0.49972434
-0.13870358
-0.5169975
0.52253173
-0.14426481
-0.54080684
0.54639308
-0.14985617
-0.56574206
0.57135955
-0.15545446
-0.59186051
0.5974861
-0.16103265
-0.61922176
0.62482845
-0.16656018
-0.64788849
0.65344573
-0.17200302
-0.67792613
0.6833999
-0.17732173
-0.70940404
0.71475491
-0.18247277
-0.74239391
0.74757834
-0.18740733
-0.77697091
0.78194005
-0.19206968
-0.81321407
0.81791211
-0.19639835
-0.85120546
0.85557082
-0.20032402
-0.8910307
0.89499383
-0.20376961
-0.93277878
0.93626231
-0.20664861
-0.97654306
0.97946003
-0.20886458
-1.0224208
1.0246742
-0.21030974
-1.0705122
1.0719933
-0.21086425
-1.120923
1.121511
-0.21039276
-1.1737629
1.173321
-0.20874996
-1.2291461
1.227527
-0.20576795
-1.2872001
1.2842336
-0.20125712
-1.348064
1.3435573
-0.19501072
-1.4118989
1.4056416
-0.18680387
-1.4788976
1.4706607
-0.17637737
-1.5492966
1.538817
-0.16347027
-1.623345
1.610359
-0.14768252
-1.7013128
1.6854209
-0.12907796
-1.783304
1.7645788
-0.10609279
-1.869186
1.8460749
-0.081051777
-1.9604609
1.935323
-0.049219402
-2.0530408
2.0211223
-2.1563124
2.1217715
-0.00063571758
-0.050016033
-0.0015001017
-0.063074422
-0.0023963857
-0.061722864
-0.0033521267
-0.067272524
-0.0043192766
-0.068938697
-0.0053631388
-0.073093563
-0.0064225986
-0.075994843
-0.0075618579
-0.079894602
-0.0087271914
-0.08347355
-0.0099666889
-0.087491475
-0.011249382
-0.091558892
-0.012599473
-0.095877282
-0.014007115
-0.10036909
-0.015481323
-0.10507684
-0.017022321
-0.10999828
-0.018634259
-0.115146
-0.020319346
-0.12052995
-0.022081362
-0.12615991
-0.023923546
-0.13204734
-0.025849497
-0.13820309
-0.027862893
-0.14463937
-0.029967009
-0.15136848
-0.032165967
-0.15840305
-0.034463474
-0.16575711
-0.036864341
-0.17344398
-0.0393714
-0.18147964
-0.041989358
-0.18987835
-0.044721968
-0.19865756
-0.047573525
-0.20783352
-0.050547621
-0.21742489
-0.053648349
-0.22744999
-0.056879062
-0.23792924
-0.060243085
-0.24888402
-0.063743427
-0.26033565
-0.067382541
-0.27230861
-0.071162776
-0.28482716
-0.075085338
-0.297918
-0.079151765
-0.31160836
-0.083361451
-0.32592821
-0.087714041
-0.34090859
-0.092207993
-0.35658227
-0.096840285
-0.37298431
-0.10160665
-0.39015182
-0.10650211
-0.40812314
-0.11151974
-0.42694037
-0.11665111
-0.44664635
-0.12188619
-0.46728733
-0.12721253
-0.48891171
-0.13261608
-0.5115708
-0.13808052
-0.53531818
-0.14358679
-0.56021047
-0.14911316
-0.5863077
-0.15463478
-0.61367257
-0.16012375
-0.64237078
-0.16554843
-0.67247154
-0.17087302
-0.70404837
-0.17605758
-0.7371771
-0.18105716
-0.77193796
-0.18582109
-0.80841572
-0.19029323
-0.846698
-0.19441028
-0.88687762
-0.19810165
-0.92905099
-0.20128806
-0.97332029
-0.20388219
-1.019791
-0.20578535
-1.0685749
-0.20688914
-1.1197878
-0.20706863
-1.1735561
-0.20618861
-1.2300049
-0.20409712
-1.2892789
-0.20062266
-1.3515376
-0.19557663
-1.4169597
-0.18874744
-1.4857614
-0.17990507
-1.5581973
-0.16878641
-1.6345481
-0.15512643
-1.7150823
-0.13865109
-1.7999061
-0.1187339
-1.8892302
-0.096035043
-1.983257
-0.068192131
-2.0809662
-2.1873061
-0.0005744328
-0.049439806
-0.0013806517
-0.062266277
-0.0021873522
-0.06091364
-0.0030881415
-0.066369681
-0.0039780329
-0.068046622
-0.0049532175
-0.072116086
-0.0059303038
-0.075015336
-0.0069904309
-0.07883193
-0.0080700587
-0.082391236
-0.0092221247
-0.086336581
-0.010414142
-0.090363893
-0.011669987
-0.094618294
-0.012980773
-0.099054993
-0.014354733
-0.10369939
-0.015792572
-0.10855676
-0.017297893
-0.1136368
-0.01887406
-0.11894969
-0.020524043
-0.12450561
-0.022252123
-0.13031471
-0.024061143
-0.13638927
-0.025955597
-0.14273985
-0.02793902
-0.14937971
-0.030015301
-0.15632112
-0.032189227
-0.16357722
-0.034464079
-0.17116283
-0.036845068
-0.179092
-0.039335651
-0.18738074
-0.041940897
-0.19604489
-0.044664368
-0.20510221
-0.047511212
-0.21456977
-0.050484548
-0.22446791
-0.053588705
-0.23481584
-0.056827496
-0.24563547
-0.060203615
-0.25694922
-0.06372066
-0.26878069
-0.067380812
-0.28115552
-0.071186325
-0.29410036
-0.075137745
-0.30764414
-0.079236116
-0.32181633
-0.083480971
-0.33664948
-0.087870585
-0.35217762
-0.092402917
-0.36843613
-0.09707469
-0.38546336
-0.10188057
-0.40329971
-0.10681471
-0.42198778
-0.11186933
-0.44157237
-0.11703539
-0.46210095
-0.12230124
-0.48362456
-0.12765461
-0.50619513
-0.13308018
-0.52986928
-0.13856014
-0.55470612
-0.14407551
-0.58076688
-0.14960343
-0.6081181
-0.15511849
-0.63682807
-0.16059204
-0.66696923
-0.16599175
-0.69861879
-0.17128166
-0.73185623
-0.17642028
-0.76676733
-0.18136284
-0.80344019
-0.18605764
-0.84196941
-0.19044802
-0.88245287
-0.19446972
-0.92499465
-0.19805193
-0.96970363
-0.20111461
-1.0166947
-0.20356869
-1.0660889
-0.20531388
-1.1180136
-0.20624258
-1.1726029
-0.2062287
-1.2300006
-0.20513144
-1.2903671
-0.20279981
-1.3538726
-0.19905635
-1.4207229
-0.19371465
-1.4911434
-0.18655902
-1.5654177
-0.17735827
-1.6438402
-0.16586889
-1.7266874
-0.15177998
-1.8141266
-0.13477644
-1.9063623
-0.11483464
-2.0032979
-0.090815152
-2.1050672
-2.21459
-0.00051833774
-0.048919748
-0.0012641871
-0.061518614
-0.0019956753
-0.0601805
-0.002842701
-0.065520682
-0.0036678287
-0.067219404
-0.0045766402
-0.071205082
-0.0054775395
-0.074112132
-0.0064647053
-0.077842345
-0.0074651028
-0.081388291
-0.0085368599
-0.085262144
-0.0096453653
-0.089252566
-0.010814786
-0.093445901
-0.012037257
-0.097829391
-0.013320056
-0.10241329
-0.014664899
-0.10720844
-0.016075571
-0.11222246
-0.017555389
-0.117466
-0.019107747
-0.12294917
-0.02073613
-0.12868201
-0.022444894
-0.13467595
-0.024237223
-0.14094271
-0.026118183
-0.14749367
-0.028091693
-0.15434225
-0.030161751
-0.1615015
-0.032333517
-0.16898508
-0.034610956
-0.17680825
-0.036999111
-0.18498591
-0.039502328
-0.19353462
-0.042126061
-0.20247102
-0.044873674
-0.21181428
-0.047750296
-0.22158296
-0.050760285
-0.23179706
-0.053907334
-0.24247913
-0.057195318
-0.25365142
-0.06062764
-0.26533799
-0.064206756
-0.27756544
-0.067934882
-0.29036065
-0.071813941
-0.30375285
-0.075844303
-0.31777305
-0.080026046
-0.33245411
-0.084358616
-0.34783067
-0.088839412
-0.36394018
-0.093465725
-0.38082108
-0.098233316
-0.39851532
-0.10313642
-0.41706702
-0.10816871
-0.43652152
-0.11332075
-0.45692944
-0.11858386
-0.47834104
-0.12394557
-0.50081206
-0.12939258
-0.52439992
-0.13490963
-0.54916572
-0.14047853
-0.57517361
-0.14607951
-0.60249172
-0.15169022
-0.63119092
-0.15728411
-0.66134785
-0.16283339
-0.69304097
-0.16830521
-0.72635486
-0.17366336
-0.76137868
-0.17886735
-0.79820483
-0.18387149
-0.8369332
-0.18862483
-0.87766698
-0.19307027
-0.92051654
-0.19714434
-0.96559723
-0.20077552
-1.0130323
-0.20388414
-1.062951
-0.20638304
-1.1154885
-0.20816741
-1.170797
-0.2091312
-1.2290221
-0.20914474
-1.2903484
-0.20807282
-1.3549522
-0.20575846
-1.423062
-0.20202152
-1.4949264
-0.19668092
-1.5708295
-0.18952205
-1.6510973
-0.18032316
-1.7360086
-0.16880543
-1.8257807
-0.15471609
-1.9205834
-0.13784722
-2.0202748
-0.11758308
-2.1254131
-2.2379583
-0.00046320448
-0.048454929
-0.0011619326
-0.060818167
-0.001817935
-0.059522689
-0.0026071121
-0.064729648
-0.0033565092
-0.066468064
-0.0042076548
-0.070351881
-0.0050425251
-0.073275103
-0.0059637823
-0.07691882
-0.0068940334
-0.080455651
-0.0078928316
-0.084260831
-0.008927316
-0.088215432
-0.010020373
-0.092350052
-0.011166217
-0.096680602
-0.012371003
-0.10120539
-0.013637123
-0.10593905
-0.014967676
-0.11088845
-0.01636642
-0.11606361
-0.017837135
-0.1214746
-0.019383521
-0.12713156
-0.021009621
-0.13304556
-0.022720155
-0.13922764
-0.02451849
-0.14569054
-0.026410147
-0.15244553
-0.028399726
-0.15950657
-0.030491761
-0.16688739
-0.032691537
-0.17460249
-0.035004273
-0.18266686
-0.037434913
-0.1910973
-0.039988393
-0.19991049
-0.042669918
-0.2091253
-0.045484371
-0.21876063
-0.04843623
-0.22883686
-0.051529862
-0.23937669
-0.054769628
-0.25040234
-0.058158705
-0.26193907
-0.061700196
-0.27401354
-0.065396631
-0.28665321
-0.069249947
-0.29988791
-0.073260945
-0.31374977
-0.077430075
-0.32827201
-0.081756371
-0.34349069
-0.086238753
-0.35944337
-0.090874054
-0.37617058
-0.095658732
-0.39371464
-0.10058849
-0.41212043
-0.10565653
-0.4314358
-0.11085587
-0.45171155
-0.11617762
-0.47299985
-0.12161136
-0.49535796
-0.12714584
-0.51884414
-0.13276694
-0.54352238
-0.13845959
-0.56945776
-0.14420615
-0.59672099
-0.14998671
-0.62538521
-0.15577939
-0.65552905
-0.16155886
-0.68723441
-0.16729644
-0.72058927
-0.17296131
-0.75568494
-0.1785174
-0.79261912
-0.18392532
-0.83149508
-0.18913996
-0.87242182
-0.19411144
-0.91551457
-0.19878348
-0.96089526
-0.20309359
-1.0086935
-0.20697157
-1.0590466
-0.21033744
-1.1120997
-0.21310633
-1.1680103
-0.21517229
-1.2269455
-0.21643337
-1.2890866
-0.2167536
-1.3546448
-0.21600122
-1.4238447
-0.21401887
-1.4969608
-0.21063707
-1.5742891
-0.20567162
-1.656168
-0.19891547
-1.742894
-0.19012517
-1.8347131
-0.17907793
-1.9317678
-0.16551338
-2.0339538
-0.14906956
-2.1419401
-2.257199
-0.00041409206
-0.048039332
-0.0010726876
-0.060157969
-0.0016667139
-0.058926999
-0.0023986587
-0.063995965
-0.0030716156
-0.065793281
-0.0038713529
-0.069550222
-0.0046384267
-0.072506012
-0.0054994999
-0.076055623
-0.006365246
-0.07958767
-0.0073032616
-0.083320459
-0.0082782589
-0.087237951
-0.0093097032
-0.091315989
-0.010394045
-0.095593498
-0.011535941
-0.10006059
-0.012738231
-0.10473368
-0.014004783
-0.10961865
-0.015339117
-0.11472585
-0.016745122
-0.12006497
-0.018227309
-0.12564555
-0.019789685
-0.13147914
-0.021437354
-0.1375757
-0.023175136
-0.14394825
-0.025008177
-0.15060772
-0.026941583
-0.15756813
-0.028980963
-0.16484268
-0.031132119
-0.1724457
-0.033399781
-0.18039324
-0.035790233
-0.18870055
-0.038308759
-0.1973853
-0.040960717
-0.20646629
-0.043751673
-0.21596222
-0.046686183
-0.22589448
-0.049769617
-0.23628492
-0.053005262
-0.24715788
-0.056397611
-0.2585374
-0.059949995
-0.2704513
-0.06366463
-0.28292816
-0.067543529
-0.295998
-0.071588282
-0.30969338
-0.075799025
-0.32404898
-0.08017574
-0.33910101
-0.084716545
-0.35488888
-0.089419849
-0.37145286
-0.094282574
-0.38883673
-0.099299861
-0.40708718
-0.10446685
-0.42625203
-0.10977806
-0.44638275
-0.11522491
-0.46753455
-0.12079978
-0.48976379
-0.12649163
-0.51313212
-0.1322902
-0.53770275
-0.13818193
-0.56354408
-0.14415219
-0.59072786
-0.15018436
-0.61932927
-0.15625958
-0.64942916
-0.1623566
-0.68111185
-0.16845223
-0.71446728
-0.17451897
-0.74959108
-0.18052694
-0.78658342
-0.18644173
-0.82555212
-0.1922258
-0.86660942
-0.19783588
-0.9098764
-0.20322389
-0.95547996
-0.20833549
-1.0035562
-0.21310971
-1.0542492
-0.21747785
-1.1077122
-0.22136288
-1.1641114
-0.2246803
-1.223622
-0.2273268
-1.2864446
-0.22919878
-1.3527914
-0.23016846
-1.4229115
-0.23010142
-1.4970866
-0.22884911
-1.5756262
-0.22624755
-1.658882
-0.22211313
-1.747165
-0.21623743
-1.8407375
-0.20840427
-1.9397442
-0.19836224
-2.0441191
-0.18589679
-2.1544913
-2.2720909
-0.00037141111
-0.047666522
-0.0009992663
-0.059528623
-0.0015390414
-0.058385681
-0.0022241712
-0.063309212
-0.0028399883
-0.065175763
-0.003590675
-0.068797741
-0.0043030785
-0.07179173
-0.0051035984
-0.075253118
-0.0059279874
-0.078761193
-0.0068199653
-0.082426282
-0.0077488948
-0.086306702
-0.0087306548
-0.090331783
-0.0097649456
-0.094556627
-0.010855832
-0.098966976
-0.012007397
-0.10357924
-0.013223151
-0.10839986
-0.014507967
-0.11343782
-0.015865954
-0.1187036
-0.017301923
-0.124206
-0.018821269
-0.12995601
-0.020428603
-0.13596437
-0.022130123
-0.1422425
-0.023931037
-0.14880233
-0.025837028
-0.15565741
-0.027854432
-0.16282027
-0.029988873
-0.17030597
-0.032247209
-0.17812931
-0.034634975
-0.18630686
-0.037157877
-0.19485613
-0.039822483
-0.20379506
-0.042633773
-0.21314392
-0.045597305
-0.22292352
-0.048717731
-0.23315665
-0.052000146
-0.24386716
-0.055447598
-0.25508116
-0.059063754
-0.26682584
-0.062851737
-0.27913034
-0.066813257
-0.29202608
-0.070949479
-0.30554617
-0.075261112
-0.31972574
-0.079748193
-0.33460167
-0.084409575
-0.35021458
-0.089243826
-0.36660499
-0.094247948
-0.38381827
-0.099419204
-0.40190085
-0.10475326
-0.42090213
-0.11024491
-0.44087449
-0.11588891
-0.46187314
-0.1216776
-0.48395689
-0.12760388
-0.50718682
-0.13365806
-0.53162871
-0.13983019
-0.55735128
-0.14610896
-0.58442758
-0.15248068
-0.61293522
-0.15893066
-0.64295604
-0.16544155
-0.67457706
-0.17199455
-0.70788966
-0.17856777
-0.74299265
-0.1851364
-0.77998909
-0.19167301
-0.81898954
-0.19814557
-0.86011093
-0.20451891
-0.90347762
-0.21075249
-0.94922202
-0.21680112
-0.99748511
-0.22261356
-1.0484173
-0.22813126
-1.1021793
-0.23328883
-1.1589447
-0.23801308
-1.218897
-0.24221736
-1.2822507
-0.24580689
-1.3492268
-0.2486792
-1.4200827
-0.25071351
-1.4951185
-0.25177972
-1.5746526
-0.25174343
-1.6590389
-0.25043904
-1.7486138
-0.24768617
-1.8436465
-0.24329769
-1.9442816
-0.23701934
-2.0505293
-0.2287303
-2.1628774
-2.2823845
-0.00032757072
-0.047337655
-0.00092957768
-0.058925235
-0.0014201021
-0.057893725
-0.0020597407
-0.062668066
-0.0026317969
-0.064602127
-0.0033567577
-0.068071107
-0.004036523
-0.071110215
-0.0048245154
-0.074463276
-0.0056088614
-0.077974908
-0.006453993
-0.081579106
-0.0073401242
-0.085418415
-0.0082786426
-0.08939099
-0.0092720794
-0.093560788
-0.01032386
-0.097912659
-0.011438431
-0.10246199
-0.012620364
-0.10721509
-0.013873623
-0.11218157
-0.015204176
-0.11736988
-0.016616849
-0.12278998
-0.018117307
-0.12845201
-0.019711376
-0.13436656
-0.021405041
-0.14054488
-0.023204589
-0.1469986
-0.025117228
-0.15374034
-0.027148406
-0.16078441
-0.029305564
-0.16814385
-0.031594804
-0.17583482
-0.034022906
-0.18387321
-0.03659633
-0.19227683
-0.039321084
-0.20106408
-0.042202846
-0.21025557
-0.045247305
-0.21987209
-0.04845954
-0.22993703
-0.051843567
-0.24047532
-0.055403592
-0.25151287
-0.059143101
-0.26307759
-0.063064277
-0.27519992
-0.0671694
-0.28791117
-0.071459851
-0.30124538
-0.075936274
-0.31523839
-0.08059861
-0.3299278
-0.085446978
-0.34535404
-0.090479459
-0.36155968
-0.095694674
-0.37858955
-0.10109035
-0.39649098
-0.10666341
-0.41531417
-0.11241051
-0.43511176
-0.11832766
-0.45593964
-0.12440996
-0.47785749
-0.13065195
-0.50092698
-0.1370476
-0.52521446
-0.14358916
-0.55079036
-0.15026863
-0.57772802
-0.15707629
-0.60610673
-0.16400147
-0.63600934
-0.17103182
-0.66752454
-0.17815256
-0.70074618
-0.18534745
-0.73577455
-0.19259783
-0.77271519
-0.19988211
-0.81168168
-0.20717575
-0.85279399
-0.21445074
-0.89618008
-0.2216749
-0.94197677
-0.22881216
-0.99032904
-0.2358204
-1.0413937
-0.24265285
-1.0953363
-0.24925511
-1.1523386
-0.25556439
-1.2125928
-0.26151219
-1.2763199
-0.2670221
-1.3437492
-0.27199591
-1.4151603
-0.27634312
-1.490846
-0.27994978
-1.5711476
-0.28270185
-1.6564166
-0.28446399
-1.747005
-0.28508382
-1.8431902
-0.28439618
-1.94513
-0.28216509
-2.0529007
-0.27829375
-2.1668595
-2.2878045
-0.00028549416
-0.047050964
-0.00086856035
-0.058340891
-0.0013187951
-0.057442168
-0.0019369121
-0.062048553
-0.002486349
-0.064051227
-0.0031888216
-0.0673671
-0.0038395389
-0.070457878
-0.0046029933
-0.073698122
-0.0053568775
-0.077219227
-0.0061700426
-0.080764046
-0.00702951
-0.084556947
-0.0079419599
-0.088476428
-0.0089122761
-0.092588241
-0.0099438728
-0.096878705
-0.011041822
-0.10136155
-0.012210947
-0.10604334
-0.013456905
-0.11093283
-0.014785097
-0.11603875
-0.016201518
-0.12137045
-0.017712917
-0.12693732
-0.019325311
-0.13275068
-0.021046189
-0.13882031
-0.022881891
-0.14515899
-0.024839758
-0.15177834
-0.026927313
-0.15869248
-0.02915128
-0.16591525
-0.031519119
-0.17346208
-0.034037623
-0.18134951
-0.036713154
-0.1895958
-0.039552433
-0.19821898
-0.04256144
-0.20724039
-0.045745158
-0.21668184
-0.049108397
-0.22656687
-0.052655902
-0.23692049
-0.056391305
-0.24776971
-0.060317348
-0.25914334
-0.064436918
-0.27107166
-0.068751914
-0.28358699
-0.073263442
-0.29672414
-0.077972668
-0.3105189
-0.082879712
-0.32500992
-0.087984397
-0.34023793
-0.093286618
-0.35624542
-0.098785917
-0.37307758
-0.10448084
-0.39078274
-0.1103702
-0.40941084
-0.11645221
-0.42901511
-0.12272496
-0.44965158
-0.12918626
-0.47138021
-0.13583291
-0.49426367
-0.14266196
-0.51836807
-0.14966949
-0.54376482
-0.15685064
-0.57052822
-0.16420029
-0.59873781
-0.17171167
-0.62847811
-0.17937724
-0.65983862
-0.18718728
-0.69291536
-0.19513177
-0.72780899
-0.2031975
-0.76462829
-0.21136951
-0.80348867
-0.21963078
-0.84451228
-0.22796102
-0.88783051
-0.23633684
-0.93358346
-0.24473044
-0.98192072
-0.25311115
-1.0330022
-0.26144192
-1.0870002
-0.26968173
-1.1441008
-0.27777968
-1.2045066
-0.2856822
-1.2684418
-0.29332197
-1.3361499
-0.3006312
-1.4079114
-0.30752874
-1.4840327
-0.31392873
-1.5648594
-0.31973301
-1.6507526
-0.32483426
-1.7420671
-0.32910736
-1.8390902
-0.33240594
-1.9419971
-0.33454415
-2.0509127
-0.33538374
-2.1661343
-2.2880379
-0.00024695391
-0.046802906
-0.00081884763
-0.057767818
-0.001238559
-0.057021236
-0.0018836457
-0.061402174
-0.0024175591
-0.063515964
-0.0030950069
-0.066688249
-0.0037232468
-0.069828144
-0.0044432188
-0.072976585
-0.005184864
-0.07647592
-0.0059828352
-0.07996432
-0.0068328531
-0.083705077
-0.007737718
-0.087569606
-0.0087045694
-0.091619322
-0.0097373317
-0.095843758
-0.010841758
-0.10025481
-0.012023598
-0.10485905
-0.013289077
-0.10966477
-0.014644858
-0.11468023
-0.016097708
-0.1199147
-0.017654307
-0.12537765
-0.019323228
-0.13107851
-0.021110876
-0.13702922
-0.023026047
-0.14324018
-0.02507595
-0.14972458
-0.027268332
-0.15649601
-0.029611188
-0.16356807
-0.032111818
-0.17095686
-0.034777085
-0.17867938
-0.037614275
-0.18675346
-0.040629255
-0.19519855
-0.043827509
-0.20403636
-0.047214588
-0.21328864
-0.050794831
-0.22298015
-0.054572364
-0.2331361
-0.058550416
-0.24378439
-0.062731772
-0.25495429
-0.067118661
-0.26667663
-0.071712807
-0.27898423
-0.076515996
-0.29191185
-0.081528976
-0.3054963
-0.086752747
-0.319776
-0.092188185
-0.33479178
-0.097835889
-0.35058644
-0.10369601
-0.3672056
-0.10976955
-0.38469675
-0.11605717
-0.40311016
-0.12255905
-0.42249958
-0.12927584
-0.44292054
-0.13620795
-0.46443323
-0.14335586
-0.4871003
-0.1507191
-0.51098878
-0.15829819
-0.53616911
-0.166092
-0.56271724
-0.1740994
-0.59071274
-0.18231875
-0.62024066
-0.19074718
-0.65139174
-0.19938126
-0.68426258
-0.2082158
-0.71895567
-0.21724475
-0.75558069
-0.22646026
-0.79425495
-0.23585193
-0.83510331
-0.24540812
-0.87825853
-0.25511404
-0.92386407
-0.2649523
-0.97207231
-0.27490133
-1.0230476
-0.28493597
-1.0769661
-0.29502602
-1.1340194
-0.30513728
-1.1944146
-0.31522673
-1.2583851
-0.32524815
-1.326178
-0.33515028
-1.3980795
-0.34486636
-1.4744117
-0.35433643
-1.5555126
-0.3634878
-1.6417532
-0.37223893
-1.7334906
-0.38048638
-1.8310265
-0.38811889
-1.9345417
-0.39497088
-2.0442169
-0.40090684
-2.1603119
-2.282772
-0.00021350467
-0.046588384
-0.00078656941
-0.057193668
-0.0011835652
-0.056623117
-0.0018418328
-0.060742727
-0.0023531378
-0.063003416
-0.0030238073
-0.066016266
-0.0036461907
-0.069204381
-0.0043622024
-0.072259116
-0.0051065526
-0.075730034
-0.0059051147
-0.079164137
-0.0067631103
-0.082845369
-0.0076806499
-0.086650257
-0.0086662065
-0.090631853
-0.0097245846
-0.094783356
-0.010862441
-0.099114814
-0.012086471
-0.10363276
-0.013403824
-0.10834502
-0.014821796
-0.11325972
-0.016348769
-0.11838504
-0.017992608
-0.12373097
-0.019761512
-0.12930659
-0.02166431
-0.13512323
-0.02370905
-0.14119205
-0.025904338
-0.1475257
-0.028258775
-0.15413777
-0.030779648
-0.16104316
-0.03347467
-0.16825756
-0.036351011
-0.17579851
-0.039415308
-0.18368436
-0.042672686
-0.19193608
-0.046129465
-0.20057419
-0.049789411
-0.20962298
-0.053657221
-0.21910628
-0.057735616
-0.22905128
-0.062027374
-0.23948583
-0.066535405
-0.25043906
-0.071261631
-0.26194278
-0.076207607
-0.2740302
-0.081375107
-0.28673582
-0.086765997
-0.30009641
-0.092381866
-0.31415063
-0.098224603
-0.32893904
-0.10429599
-0.34450452
-0.11059873
-0.36089179
-0.11713532
-0.37814856
-0.12390828
-0.39632505
-0.13092142
-0.41547375
-0.13817742
-0.43565132
-0.14568047
-0.45691644
-0.15343411
-0.4793324
-0.16144241
-0.50296572
-0.16970853
-0.52788777
-0.17823656
-0.55417356
-0.18703014
-0.58190317
-0.1960921
-0.61116243
-0.20542521
-0.64204218
-0.21503185
-0.67463944
-0.22491311
-0.70905806
-0.23506941
-0.74540846
-0.24549978
-0.78380943
-0.25620301
-0.82438623
-0.26717474
-0.86727494
-0.27840969
-0.91262011
-0.28990018
-0.96057674
-0.3016357
-1.0113123
-0.31360273
-1.0650063
-0.32578434
-1.1218539
-0.33815743
-1.182069
-0.35069918
-1.2458851
-0.36337779
-1.3135588
-0.37615415
-1.3853842
-0.38899725
-1.4616755
-0.40185669
-1.5427891
-0.41468516
-1.6290895
-0.42742489
-1.7209379
-0.44001654
-1.8186307
-0.45236291
-1.9223831
-0.46432357
-2.0324149
-0.47579075
-2.1489571
-2.27166
-0.00019267966
-0.046394771
-0.00078539517
-0.056599955
-0.001179043
-0.056228438
-0.0018286397
-0.060092041
-0.0023334284
-0.062497486
-0.0030084418
-0.065340048
-0.0036459389
-0.068565615
-0.0043687304
-0.071534984
-0.0051349134
-0.074962436
-0.0059549549
-0.0783426
-0.0068425188
-0.081956224
-0.0077968124
-0.085694292
-0.0088273921
-0.089599504
-0.0099403052
-0.093668572
-0.011143243
-0.097909895
-0.012444056
-0.10232985
-0.013851139
-0.10693571
-0.015373262
-0.11173524
-0.017018985
-0.11673682
-0.018798163
-0.12194914
-0.020719503
-0.12738245
-0.022792554
-0.1330472
-0.025026017
-0.13895544
-0.027428854
-0.14511952
-0.03000944
-0.15155364
-0.032775689
-0.15827315
-0.035734466
-0.1652948
-0.038892751
-0.17263599
-0.042255866
-0.18031676
-0.045829671
-0.18835751
-0.049617865
-0.19678095
-0.053624495
-0.205611
-0.057852795
-0.21487231
-0.062305293
-0.22459278
-0.066984425
-0.23480034
-0.071892415
-0.24552433
-0.077030962
-0.2567971
-0.08240255
-0.26865106
-0.088009166
-0.28112123
-0.093853594
-0.29424356
-0.099938801
-0.30805655
-0.10626825
-0.32260024
-0.1128462
-0.33791675
-0.11967702
-0.35405067
-0.12676569
-0.37104911
-0.13411829
-0.38896119
-0.1417408
-0.40783952
-0.14964002
-0.42773992
-0.15782285
-0.44872098
-0.16629698
-0.47084521
-0.17507015
-0.49417911
-0.18415105
-0.51879309
-0.19354764
-0.54476291
-0.20326853
-0.57216802
-0.21332177
-0.60109483
-0.22371644
-0.63163317
-0.23446005
-0.66388167
-0.24556064
-0.69794374
-0.25702577
-0.73393033
-0.26886255
-0.77196084
-0.28107682
-0.8121619
-0.29367403
-0.85467019
-0.30665823
-0.89963185
-0.32003191
-0.94720365
-0.3337961
-0.99755473
-0.34794922
-1.0508676
-0.36248696
-1.1073405
-0.37740195
-1.1671905
-0.39268769
-1.230651
-0.40832543
-1.2979913
-0.42430488
-1.3694975
-0.44060269
-1.4454972
-0.45720146
-1.5263396
-0.47407939
-1.6123897
-0.49120248
-1.7040151
-0.50853387
-1.8015081
-0.52600671
-1.9051086
-0.54351891
-2.0150664
-0.56100281
-2.1315861
-2.2542559
-0.0001738554
-0.046220059
-0.00079466699
-0.055978229
-0.0011942771
-0.05582788
-0.0018568197
-0.059428496
-0.0023744161
-0.061978841
-0.0030640546
-0.0646493
-0.0037317752
-0.067896725
-0.0044780566
-0.070787468
-0.0052841805
-0.074155007
-0.0061480303
-0.077477371
-0.0070892016
-0.081013595
-0.0081076289
-0.084674321
-0.0092136036
-0.088491896
-0.010414801
-0.092465644
-0.011720221
-0.096602641
-0.013139131
-0.10090899
-0.014681209
-0.10539157
-0.016356478
-0.11005779
-0.018175116
-0.11491587
-0.02014695
-0.11997485
-0.022282275
-0.12524452
-0.024590567
-0.13073615
-0.027080889
-0.13646218
-0.029762285
-0.14243501
-0.032642393
-0.14867022
-0.03572836
-0.15518368
-0.039027251
-0.16199218
-0.042543803
-0.16911549
-0.046283125
-0.17657325
-0.050249039
-0.18438715
-0.054444885
-0.19258038
-0.058873648
-0.20117723
-0.06353667
-0.21020398
-0.068437175
-0.21968664
-0.073576623
-0.22965493
-0.078957009
-0.24013763
-0.084581286
-0.25116615
-0.09045182
-0.26277347
-0.096572886
-0.27499271
-0.10294838
-0.28786021
-0.10958306
-0.30141358
-0.11648261
-0.31569198
-0.12365388
-0.33073635
-0.13110393
-0.34659107
-0.13884099
-0.36330208
-0.14687416
-0.38091763
-0.15521296
-0.39948994
-0.16386772
-0.419074
-0.17284982
-0.43972736
-0.18217066
-0.46151254
-0.19184286
-0.48449481
-0.20187852
-0.50874512
-0.2122918
-0.53433719
-0.22309581
-0.56135154
-0.23430518
-0.5898731
-0.24593361
-0.61999262
-0.25799632
-0.65180731
-0.27050776
-0.68542138
-0.28348263
-0.72094566
-0.29693649
-0.7584988
-0.31088342
-0.79820909
-0.3253382
-0.84021266
-0.34031511
-0.88465636
-0.35582754
-0.93169808
-0.37188761
-0.98150847
-0.38850692
-1.0342708
-0.40569551
-1.0901852
-0.42346259
-1.1494699
-0.44181226
-1.2123638
-0.46075173
-1.2791337
-0.48028489
-1.3500697
-0.50041725
-1.4254977
-0.5211503
-1.5057696
-0.54248098
-1.5912512
-0.56441513
-1.682295
-0.58693294
-1.7792124
-0.61000125
-1.8822505
-0.63355018
-1.9916931
-0.65755763
-2.1077054
-2.2299677
-0.00015993136
-0.046059343
-0.00082252059
-0.055314801
-0.0012356978
-0.055413834
-0.001927878
-0.058735397
-0.0024755938
-0.061430161
-0.003193945
-0.06392993
-0.0039124577
-0.067177138
-0.0047034409
-0.069995348
-0.0055724981
-0.073284749
-0.0065072724
-0.076541325
-0.0075312903
-0.079988231
-0.0086466576
-0.083557528
-0.0098647172
-0.087272326
-0.011195193
-0.091133568
-0.012648596
-0.095147541
-0.014235919
-0.099319871
-0.015968205
-0.10365738
-0.01785658
-0.10816738
-0.019912046
-0.11285825
-0.02214527
-0.11773934
-0.024566216
-0.12282114
-0.027184652
-0.12811513
-0.030009602
-0.13363449
-0.033048431
-0.13939327
-0.036308501
-0.14540707
-0.039795633
-0.15169326
-0.04351457
-0.15826976
-0.047469541
-0.16515682
-0.051663609
-0.17237525
-0.056099079
-0.17994751
-0.060777699
-0.18789734
-0.065701569
-0.19624867
-0.070872181
-0.20502839
-0.076291351
-0.2142622
-0.081961634
-0.22397906
-0.087885788
-0.23420756
-0.094067373
-0.24497831
-0.10051158
-0.25632265
-0.1072229
-0.26827442
-0.11420851
-0.28086725
-0.12147543
-0.29413894
-0.12903312
-0.30812619
-0.13689015
-0.32287085
-0.14505748
-0.3384149
-0.15354723
-0.35480314
-0.16237121
-0.37208412
-0.17154326
-0.39030803
-0.18107802
-0.4095291
-0.19099037
-0.42980461
-0.20129687
-0.45119544
-0.21201402
-0.47376693
-0.22316035
-0.497588
-0.23475358
-0.52273322
-0.24681315
-0.54928141
-0.25935945
-0.57731655
-0.27241294
-0.60692938
-0.28599474
-0.63821653
-0.3001276
-0.67128064
-0.31483399
-0.70623294
-0.33013673
-0.74319186
-0.34605993
-0.78228457
-0.36262818
-0.82364691
-0.37986595
-0.86742603
-0.39779756
-0.9137802
-0.41644882
-0.9628788
-0.43584412
-1.0149068
-0.45600772
-1.0700645
-0.47696389
-1.1285708
-0.49873574
-1.190666
-0.52135092
-1.2566129
-0.54483372
-1.3267056
-0.56920921
-1.4012691
-0.59450508
-1.480651
-0.62075117
-1.5652115
-0.64796867
-1.6553059
-0.67617292
-1.7512444
-0.70534946
-1.8532969
-0.73548228
-1.9617513
-0.76655422
-2.0767955
-2.1981764
-0.0001519455
-0.045906678
-0.00087494127
-0.054591036
-0.0013068859
-0.054981094
-0.0020428922
-0.057998547
-0.0026415017
-0.060830667
-0.0034064429
-0.063164052
-0.0041986613
-0.066383931
-0.0050590438
-0.069133919
-0.0060165699
-0.072326116
-0.0070534511
-0.075503272
-0.0081952843
-0.078845155
-0.0094477127
-0.082303783
-0.010823557
-0.085895085
-0.012334556
-0.089621087
-0.013992994
-0.09348753
-0.015811103
-0.09750009
-0.017801071
-0.10166563
-0.019974638
-0.10599193
-0.022343162
-0.11048772
-0.024917216
-0.11516316
-0.027706666
-0.12002943
-0.030720009
-0.12509938
-0.033964691
-0.13038725
-0.037447344
-0.1359079
-0.041172544
-0.14167898
-0.04514453
-0.1477182
-0.049365437
-0.15404559
-0.053837391
-0.16068139
-0.058561806
-0.16764715
-0.063539412
-0.17496599
-0.068771507
-0.18266109
-0.074259003
-0.19075676
-0.080004124
-0.19927859
-0.086009137
-0.20825223
-0.092277964
-0.21770498
-0.098814622
-0.22766535
-0.10562542
-0.23816164
-0.11271662
-0.24922526
-0.12009731
-0.26088721
-0.12777602
-0.27318168
-0.13576453
-0.28614323
-0.14407355
-0.29980966
-0.15271686
-0.31421969
-0.161709
-0.32941461
-0.17106487
-0.34543883
-0.18080117
-0.36233913
-0.19093557
-0.3801647
-0.20148671