/*--------------------------------*- C++ -*----------------------------------*\
  =========                 |
  \\      /  F ield         | OpenFOAM: The Open Source CFD Toolbox
   \\    /   O peration     | Website:  https://openfoam.org
    \\  /    A nd           | Version:  12
     \\/     M anipulation  |
\*---------------------------------------------------------------------------*/
FoamFile
{
    format      ascii;
    class       volScalarField;
    location    "0.11";
    object      k;
}
// * * * * * * * * * * * * * * * * * * * * * * * * * * * * * * * * * * * * * //

dimensions      [0 2 -2 0 0 0 0];

internalField   nonuniform List<scalar> 
16000
(
0.048419735
0.021607001
0.022374248
0.016449897
0.013966598
0.012650309
0.011866451
0.011398647
0.011080832
0.010867142
0.010709455
0.010592076
0.010500453
0.010427918
0.010369559
0.010322339
0.010283706
0.010252019
0.010226338
0.010205177
0.010187697
0.010173539
0.010162167
0.01015304
0.010145958
0.010140544
0.010136625
0.010134034
0.010132629
0.010132284
0.010132875
0.0101343
0.01013648
0.010139344
0.010142834
0.010146892
0.010151461
0.01015648
0.010161894
0.010167644
0.010173665
0.010179885
0.01018624
0.010192663
0.010199082
0.010205429
0.010211651
0.010217704
0.01022355
0.010229152
0.010234472
0.01023947
0.010244103
0.010248333
0.010252132
0.010255481
0.010258367
0.010260784
0.010262724
0.010264172
0.010265079
0.010265356
0.010264914
0.010263665
0.010261522
0.010258358
0.010253958
0.010247985
0.010239976
0.010229288
0.010214963
0.010195679
0.010169985
0.010138967
0.010113633
0.010093387
0.010078203
0.010087945
0.01005959
0.010084009
0.045876658
0.020439255
0.020942868
0.015907729
0.013623403
0.0124464
0.011704222
0.01128132
0.010979997
0.010783415
0.010635991
0.010527328
0.010442096
0.010375019
0.010321122
0.010277754
0.010242462
0.010213582
0.010190459
0.010171694
0.010156283
0.010144007
0.010134414
0.010126909
0.010121362
0.010117385
0.010114811
0.010113479
0.010113256
0.010114021
0.010115656
0.010118058
0.010121145
0.010124847
0.010129105
0.01013386
0.010139058
0.010144639
0.010150547
0.010156725
0.010163112
0.01016964
0.010176245
0.010182862
0.010189427
0.010195871
0.010202139
0.010208189
0.010213987
0.0102195
0.010224696
0.010229541
0.010233998
0.01023803
0.010241612
0.010244727
0.010247366
0.010249523
0.010251192
0.010252365
0.010253005
0.01025303
0.010252346
0.010250854
0.010248453
0.010245016
0.01024033
0.01023406
0.010225744
0.010214746
0.010200088
0.010180416
0.010154864
0.010125846
0.010102201
0.010082589
0.010070391
0.010074269
0.010057383
0.010081921
0.041725752
0.0196098
0.019621648
0.01534903
0.013272682
0.012220938
0.011536359
0.011155256
0.010877008
0.010698522
0.010562203
0.010462696
0.010384329
0.010323003
0.010273868
0.010234576
0.010202871
0.010177016
0.010156575
0.010140353
0.010127164
0.010116888
0.010109183
0.010103399
0.010099473
0.010097013
0.010095858
0.010095854
0.010096873
0.010098801
0.010101524
0.010104941
0.010108966
0.01011353
0.010118572
0.010124033
0.010129857
0.010135988
0.010142368
0.010148941
0.010155651
0.010162431
0.010169219
0.010175956
0.010182579
0.010189024
0.010195238
0.010201181
0.01020682
0.01021213
0.010217084
0.010221654
0.01022581
0.010229519
0.010232759
0.010235516
0.010237785
0.010239562
0.010240844
0.010241624
0.010241873
0.010241522
0.010240474
0.010238621
0.010235849
0.010232024
0.010226932
0.010220242
0.010211482
0.010200016
0.010184902
0.010164755
0.010139001
0.010112145
0.010090236
0.010072355
0.010062078
0.010062883
0.010054848
0.010077916
0.038310727
0.019047667
0.018477613
0.014848317
0.012955094
0.012016584
0.011382659
0.011039998
0.010782476
0.010620395
0.010494696
0.010403654
0.010331839
0.010275954
0.010231374
0.01019597
0.010167735
0.01014484
0.010126967
0.010113194
0.010102194
0.010093866
0.010088014
0.010083923
0.010081585
0.010080616
0.010080854
0.010082154
0.010084388
0.010087449
0.010091226
0.010095617
0.010100536
0.010105911
0.010111677
0.010117777
0.010124154
0.010130752
0.010137513
0.010144385
0.010151311
0.010158232
0.010165087
0.010171821
0.010178378
0.010184698
0.01019073
0.010196436
0.01020179
0.01020677
0.010211356
0.010215528
0.010219261
0.01022253
0.010225314
0.010227603
0.010229394
0.010230688
0.010231482
0.010231772
0.010231535
0.010230712
0.01022921
0.010226911
0.010223688
0.010219399
0.010213831
0.010206653
0.010197382
0.010185365
0.010169733
0.010149226
0.0101233
0.010098566
0.010078452
0.010062402
0.010053178
0.010052714
0.010051579
0.010073137
0.035630457
0.018732146
0.017492349
0.014384275
0.012659475
0.011823494
0.011238556
0.010931399
0.010694249
0.010547542
0.010432252
0.010349289
0.010283887
0.010233288
0.010193176
0.010161568
0.010136747
0.010116817
0.010101475
0.0100901
0.010081304
0.010074921
0.010070918
0.010068533
0.010067773
0.010068296
0.010069928
0.010072527
0.010075968
0.010080146
0.010084952
0.010090286
0.010096059
0.010102193
0.010108626
0.010115295
0.010122145
0.01012912
0.010136164
0.010143225
0.010150253
0.010157191
0.010163984
0.01017058
0.010176933
0.010182988
0.010188699
0.010194031
0.010198961
0.010203476
0.010207561
0.010211204
0.010214388
0.010217094
0.010219304
0.01022101
0.010222213
0.010222918
0.010223123
0.010222824
0.010222003
0.010220612
0.010218562
0.01021573
0.010211975
0.010207144
0.010201023
0.01019328
0.010183422
0.010170763
0.010154502
0.010133701
0.010107879
0.010085228
0.010066978
0.010052734
0.010044363
0.010043699
0.010046908
0.010064695
0.033422945
0.018661092
0.016754558
0.013958899
0.012387418
0.011643861
0.011105381
0.01083078
0.010613233
0.01048069
0.010375494
0.010300155
0.010240954
0.010195448
0.01015968
0.010131758
0.010110258
0.010093267
0.010080429
0.01007141
0.010064822
0.010060409
0.010058223
0.010057601
0.010058373
0.010060382
0.010063399
0.010067285
0.010071911
0.010077174
0.010082969
0.010089192
0.010095753
0.010102571
0.01010958
0.010116719
0.01012393
0.010131161
0.010138358
0.01014547
0.010152452
0.010159256
0.010165832
0.010172135
0.010178126
0.01018376
0.010188995
0.010193803
0.010198165
0.010202074
0.010205522
0.010208507
0.010211017
0.01021304
0.010214562
0.010215579
0.010216092
0.010216109
0.010215631
0.010214654
0.010213163
0.010211118
0.010208437
0.010204995
0.010200637
0.010195197
0.010188457
0.010180081
0.010169568
0.010156206
0.010139219
0.010118128
0.010092886
0.010072288
0.010055932
0.010043411
0.010035831
0.010035399
0.010041959
0.010054776
0.030863718
0.018757587
0.01623322
0.013568878
0.012136744
0.011477049
0.010982901
0.010737998
0.010539323
0.010419771
0.010324329
0.010256217
0.010203027
0.010162462
0.010130951
0.01010665
0.010088412
0.010074352
0.010064026
0.010057364
0.010052982
0.010050683
0.010050214
0.010051582
0.0100537
0.010057192
0.010061584
0.010066734
0.010072513
0.010078816
0.010085536
0.010092572
0.010099829
0.010107226
0.010114694
0.010122171
0.010129601
0.010136934
0.010144121
0.010151117
0.010157881
0.010164374
0.010170556
0.01017639
0.010181846
0.010186888
0.010191484
0.010195611
0.010199255
0.010202417
0.010205095
0.010207293
0.010209009
0.010210236
0.010210965
0.010211192
0.010210921
0.010210161
0.010208916
0.010207182
0.010204943
0.010202167
0.010198782
0.010194659
0.010189635
0.010183529
0.010176112
0.010167038
0.010155805
0.010141707
0.010123942
0.010102446
0.01007851
0.010059919
0.010045448
0.010034577
0.010027802
0.010027678
0.010036712
0.010045057
0.028408621
0.018944471
0.015810613
0.013211804
0.011905996
0.011322825
0.010870548
0.010652898
0.010472178
0.010364664
0.010278678
0.010217507
0.010170193
0.01013448
0.010107185
0.01008649
0.01007149
0.010060383
0.010052605
0.010048293
0.010046064
0.010046408
0.010047248
0.010050067
0.010054131
0.010059086
0.010064827
0.0100712
0.010078074
0.010085339
0.01009289
0.010100626
0.010108451
0.01011628
0.010124046
0.010131688
0.010139154
0.010146397
0.010153377
0.010160055
0.010166399
0.01017238
0.01017797
0.010183142
0.010187875
0.010192147
0.010195936
0.010199223
0.010202003
0.01020428
0.01020606
0.010207353
0.010208165
0.010208494
0.010208335
0.010207685
0.010206548
0.010204935
0.01020285
0.01020029
0.010197239
0.010193668
0.010189514
0.010184653
0.010178909
0.010172085
0.010163944
0.010154124
0.010142113
0.010127261
0.010108775
0.010086679
0.010064873
0.010048249
0.010035622
0.010026336
0.01002042
0.010020541
0.010030573
0.010036284
0.02670617
0.019127356
0.015320105
0.012884501
0.011693548
0.011180393
0.010767661
0.010574729
0.01041185
0.010315604
0.010238776
0.010184327
0.010142775
0.010111855
0.010088755
0.010071678
0.01005989
0.010051796
0.010046631
0.010044501
0.010043905
0.010046436
0.010049901
0.010054479
0.010060051
0.010066448
0.010073482
0.010081002
0.010088872
0.01009698
0.010105222
0.010113496
0.010121708
0.010129774
0.010137629
0.010145217
0.01015249
0.010159411
0.010165948
0.010172074
0.010177769
0.010183016
0.010187799
0.010192105
0.010195923
0.010199246
0.010202061
0.010204356
0.010206132
0.010207398
0.010208165
0.010208449
0.010208261
0.010207604
0.010206478
0.01020488
0.010202811
0.010200283
0.010197302
0.010193862
0.010189947
0.010185529
0.010180554
0.010174905
0.010168396
0.010160813
0.010151909
0.010141313
0.010128488
0.010112854
0.010093833
0.010071323
0.010052083
0.010037395
0.010026539
0.010018758
0.010013765
0.010014127
0.010023744
0.010028464
0.0250158
0.019297998
0.01465572
0.012584257
0.011499357
0.011050177
0.010675084
0.010504575
0.010358913
0.010273044
0.010205057
0.010157146
0.010121246
0.010095075
0.010076154
0.010062728
0.01005404
0.010049094
0.010046691
0.010044412
0.010049624
0.010053292
0.010058492
0.010064773
0.010071893
0.010079649
0.010087874
0.010096412
0.010105125
0.010113898
0.010122628
0.010131216
0.010139573
0.010147621
0.010155299
0.010162559
0.010169365
0.010175691
0.010181517
0.010186832
0.010191629
0.010195905
0.010199661
0.010202895
0.010205612
0.010207813
0.010209499
0.010210664
0.010211314
0.010211461
0.010211121
0.010210311
0.010209046
0.010207337
0.010205184
0.010202583
0.010199535
0.010196048
0.010192128
0.01018777
0.010182953
0.01017765
0.010171814
0.010165336
0.010158027
0.010149653
0.010139956
0.01012857
0.010114934
0.01009848
0.010079087
0.010057217
0.010040231
0.010027442
0.010018257
0.010011889
0.010007858
0.010008477
0.010017254
0.010021497
0.023503078
0.019438464
0.014121033
0.012308969
0.011323938
0.010932539
0.010593326
0.010443114
0.010313542
0.010237382
0.010177941
0.010136447
0.010106121
0.010084681
0.010069935
0.010060247
0.010054154
0.010052809
0.010053474
0.010056684
0.010060539
0.010066525
0.010073579
0.010081487
0.010090031
0.010099012
0.010108258
0.010117614
0.010126941
0.010136123
0.01014506
0.010153664
0.010161853
0.01016956
0.010176735
0.010183344
0.010189366
0.010194789
0.010199613
0.010203842
0.010207485
0.010210557
0.010213072
0.010215044
0.010216487
0.010217416
0.010217839
0.01021776
0.010217187
0.010216132
0.010214613
0.010212649
0.010210257
0.01020745
0.01020423
0.010200593
0.010196537
0.010192065
0.010187183
0.010181883
0.010176142
0.010169929
0.010163203
0.010155865
0.010147727
0.010138541
0.010128033
0.010115851
0.010101447
0.010084199
0.010064307
0.010044287
0.010029424
0.010018456
0.01001082
0.010005763
0.010002722
0.010003538
0.010011206
0.010014991
0.022152207
0.019566316
0.013658546
0.012058887
0.011167215
0.010827122
0.010522183
0.010390064
0.010276073
0.010209091
0.010157928
0.010122783
0.010097984
0.010081289
0.010070724
0.010064944
0.010062985
0.01006371
0.010066971
0.010072094
0.010078944
0.010086815
0.010095588
0.010104981
0.010114769
0.01012475
0.010134755
0.010144633
0.010154247
0.010163487
0.010172262
0.010180497
0.01018813
0.010195109
0.010201403
0.010206997
0.010211889
0.010216088
0.010219612
0.010222484
0.010224731
0.010226383
0.010227468
0.010228012
0.010228042
0.010227578
0.010226639
0.010225234
0.01022337
0.010221061
0.010218322
0.010215171
0.010211626
0.0102077
0.010203397
0.010198712
0.010193638
0.010188175
0.010182322
0.010176073
0.010169402
0.010162269
0.010154635
0.010146412
0.010137426
0.010127418
0.010116097
0.010103114
0.01008798
0.010070137
0.01004974
0.010032588
0.010019726
0.010010478
0.010004265
0.010000399
0.0099983332
0.0099993103
0.01000569
0.010010141
0.020929797
0.01965095
0.013232048
0.011833997
0.011028751
0.010733942
0.010461791
0.010346008
0.010246853
0.010188699
0.010145599
0.010116795
0.010097518
0.010085607
0.010079272
0.010077205
0.010078472
0.010082458
0.010088473
0.010096098
0.010104889
0.010114595
0.010124889
0.010135514
0.010146246
0.010156884
0.010167265
0.010177247
0.010186705
0.010195545
0.010203692
0.010211096
0.010217718
0.010223533
0.010228534
0.010232732
0.010236146
0.010238809
0.010240756
0.010242031
0.010242673
0.010242728
0.010242235
0.010241231
0.010239748
0.010237814
0.010235452
0.010232675
0.01022949
0.010225907
0.010221937
0.010217597
0.0102129
0.010207859
0.010202478
0.010196752
0.01019067
0.010184224
0.010177411
0.010170221
0.010162625
0.010154578
0.010146032
0.010136911
0.01012706
0.010116228
0.010104114
0.010090352
0.010074486
0.010056344
0.010036891
0.010022119
0.010011169
0.010003523
0.0099986105
0.0099958091
0.0099946474
0.0099958335
0.010001001
0.010005608
0.019830502
0.019654979
0.012845801
0.011632273
0.010907787
0.01065304
0.010412266
0.010311291
0.010226358
0.01017686
0.010141689
0.010119264
0.010105546
0.010098476
0.010096421
0.010098176
0.010102851
0.010109765
0.01011838
0.010128235
0.010138951
0.010150183
0.010161655
0.010173111
0.010184332
0.010195131
0.010205356
0.010214887
0.010223625
0.010231503
0.010238476
0.010244525
0.010249645
0.010253845
0.010257147
0.010259586
0.010261209
0.010262064
0.010262209
0.010261698
0.010260585
0.010258924
0.010256761
0.010254139
0.010251096
0.010247661
0.010243858
0.010239703
0.010235202
0.010230359
0.010225179
0.010219674
0.010213852
0.010207722
0.010201289
0.010194548
0.010187483
0.010180081
0.01017233
0.01016422
0.010155719
0.010146777
0.010137333
0.010127314
0.010116593
0.010104939
0.010092054
0.010077585
0.010061072
0.010042567
0.010025581
0.01001292
0.01000375
0.0099975789
0.0099938557
0.0099919983
0.0099916192
0.0099930467
0.0099972512
0.01000149
0.018839766
0.019426542
0.012497143
0.011452703
0.010804131
0.010584646
0.010373921
0.010286584
0.010215315
0.010174477
0.010147164
0.010131194
0.010123091
0.010120909
0.010123142
0.010128657
0.010136607
0.01014635
0.010157338
0.010169122
0.010181322
0.010193615
0.010205726
0.010217412
0.010228478
0.010238763
0.010248146
0.010256543
0.010263898
0.010270184
0.010275397
0.010279558
0.0102827
0.010284868
0.010286114
0.010286496
0.010286081
0.010284935
0.010283125
0.010280716
0.010277769
0.01027434
0.010270479
0.01026623
0.010261631
0.010256712
0.010251494
0.010245993
0.010240213
0.010234153
0.010227811
0.01022119
0.010214291
0.010207121
0.01019968
0.010191963
0.010183954
0.010175633
0.010166981
0.010157984
0.010148611
0.010138806
0.010128496
0.010117602
0.010106021
0.010093555
0.010079913
0.010064797
0.01004796
0.010029845
0.010015687
0.010004988
0.0099974376
0.0099926047
0.009989967
0.0099889497
0.0099892212
0.009990908
0.0099945568
0.0099986502
0.01794298
0.018556381
0.012183584
0.011294585
0.010718043
0.010529179
0.010347316
0.010272858
0.0102148
0.010182733
0.010163261
0.010153813
0.010151345
0.010154027
0.010160456
0.010169564
0.010180531
0.010192727
0.010205624
0.010218778
0.010231821
0.010244447
0.010256407
0.010267498
0.010277567
0.010286502
0.010294236
0.010300739
0.01030601
0.010310073
0.010312973
0.01031477
0.010315536
0.010315345
0.010314274
0.010312401
0.010309804
0.010306558
0.010302735
0.010298401
0.010293618
0.010288441
0.010282917
0.010277088
0.010270988
0.010264644
0.010258076
0.010251294
0.0102443
0.01023709
0.010229655
0.010221986
0.010214078
0.01020593
0.010197539
0.010188899
0.010179995
0.010170802
0.010161295
0.010151454
0.010141249
0.010130628
0.010119503
0.010107782
0.010095374
0.010082127
0.010067769
0.010052031
0.010035047
0.010019085
0.010007135
0.0099982676
0.0099921738
0.0099885366
0.0099868762
0.0099866068
0.0099874322
0.0099894418
0.0099928454
0.0099967736
0.017132486
0.017200804
0.011907366
0.011157691
0.010648629
0.010487584
0.010333517
0.010271536
0.010226269
0.010203106
0.010191436
0.010188496
0.010191574
0.010198942
0.010209283
0.010221576
0.010235025
0.010249013
0.010263033
0.010276664
0.010289579
0.010301515
0.010312286
0.010321755
0.01032984
0.010336505
0.010341753
0.010345619
0.010348164
0.010349464
0.010349609
0.010348693
0.010346816
0.010344074
0.010340559
0.010336356
0.010331548
0.010326209
0.010320409
0.010314209
0.010307664
0.010300824
0.01029373
0.010286416
0.010278911
0.010271238
0.010263412
0.010255438
0.010247317
0.010239041
0.010230593
0.010221959
0.010213122
0.010204073
0.010194801
0.0101853
0.010175555
0.010165543
0.010155234
0.010144601
0.010133615
0.010122229
0.010110357
0.010097883
0.010084706
0.010070721
0.010055737
0.010039592
0.010022886
0.010009858
0.0099998988
0.0099926744
0.0099878823
0.009985296
0.0099844918
0.0099848697
0.0099861506
0.0099885282
0.0099919851
0.0099959748
0.016404172
0.016349097
0.011674357
0.011042433
0.010596795
0.010461262
0.01033403
0.010284308
0.010251424
0.010237234
0.010233247
0.010236649
0.010244972
0.010256579
0.010270211
0.010284897
0.010299868
0.010314546
0.010328478
0.010341314
0.010352804
0.010362782
0.010371153
0.010377883
0.010382984
0.010386506
0.010388529
0.010389154
0.010388493
0.010386668
0.010383796
0.010379997
0.010375381
0.010370053
0.010364108
0.010357629
0.010350693
0.010343366
0.010335709
0.010327773
0.010319603
0.010311238
0.010302709
0.010294044
0.010285262
0.010276381
0.010267409
0.010258351
0.010249202
0.010239951
0.010230581
0.010221068
0.010211387
0.010201519
0.010191445
0.010181152
0.010170629
0.010159854
0.010148799
0.010137432
0.010125721
0.010113627
0.010101075
0.010087941
0.010074088
0.01005943
0.0100439
0.010027633
0.010012953
0.010002028
0.0099938818
0.0099881139
0.0099844761
0.0099828006
0.0099827202
0.0099836332
0.0099852602
0.0099879981
0.0099917814
0.0099960256
0.015750078
0.015351914
0.011475497
0.010949347
0.010563492
0.01045192
0.010350507
0.010313091
0.010292191
0.01028691
0.010290293
0.010299552
0.010312407
0.0103273
0.010343046
0.010358745
0.010373716
0.010387476
0.010399694
0.010410148
0.010418723
0.010425384
0.010430162
0.010433133
0.01043441
0.010434122
0.010432414
0.010429435
0.010425332
0.010420248
0.010414315
0.010407655
0.010400377
0.010392579
0.010384349
0.010375758
0.01036687
0.010357738
0.010348408
0.010338919
0.010329303
0.010319586
0.010309788
0.010299927
0.010290016
0.010280063
0.010270072
0.010260043
0.010249971
0.010239842
0.010229637
0.01021933
0.01020889
0.010198287
0.010187492
0.010176484
0.010165249
0.010153771
0.010142029
0.010129989
0.010117616
0.01010487
0.010091696
0.010077987
0.010063584
0.010048376
0.010032522
0.010016736
0.010004687
0.0099955716
0.0099889778
0.0099844838
0.0099818627
0.0099809685
0.0099814797
0.0099828279
0.009984747
0.0099878172
0.009992071
0.0099966533
0.01516464
0.014680605
0.011313312
0.010879157
0.01054976
0.010461776
0.010385157
0.010360259
0.010350817
0.010353989
0.010363904
0.010377866
0.010393781
0.010410215
0.01042613
0.01044079
0.010453694
0.010464543
0.010473195
0.010479614
0.010483848
0.010486008
0.010486246
0.01048474
0.010481675
0.010477239
0.010471611
0.010464961
0.010457446
0.010449208
0.010440371
0.010431046
0.010421327
0.010411296
0.010401023
0.010390562
0.010379962
0.010369258
0.010358479
0.010347651
0.010336791
0.010325912
0.010315025
0.010304137
0.010293251
0.010282368
0.010271488
0.010260607
0.010249717
0.010238804
0.010227849
0.010216826
0.010205702
0.01019444
0.010183003
0.01017136
0.010159488
0.010147373
0.010135001
0.010122348
0.010109378
0.010096042
0.010082293
0.010068066
0.010053242
0.010037667
0.010021662
0.010008098
0.0099978977
0.0099903772
0.009985089
0.0099816822
0.0099799472
0.0099797173
0.0099806979
0.0099823841
0.009984587
0.0099879258
0.00999245
0.0099973011
0.014642302
0.013932505
0.011184464
0.010834528
0.010557396
0.010494198
0.010441052
0.010428542
0.010429399
0.01043962
0.010454177
0.01047059
0.010487044
0.010502365
0.010515794
0.010526885
0.010535411
0.010541324
0.010544711
0.010545723
0.010544565
0.010541468
0.010536668
0.010530402
0.010522891
0.010514339
0.010504928
0.010494821
0.010484158
0.010473062
0.010461636
0.010449968
0.010438128
0.010426177
0.01041416
0.010402116
0.010390073
0.01037805
0.010366062
0.010354117
0.010342221
0.010330376
0.01031858
0.010306831
0.010295125
0.010283456
0.010271817
0.010260201
0.010248596
0.010236989
0.010225363
0.010213693
0.010201948
0.010190092
0.010178082
0.010165879
0.010153449
0.010140772
0.010127835
0.010114623
0.010101114
0.010087259
0.010072997
0.010058278
0.010043111
0.010027617
0.010012389
0.010001083
0.009992499
0.0099863159
0.0099821201
0.0099796137
0.0099786298
0.009978972
0.0099803011
0.0099822104
0.009984656
0.0099882653
0.0099929411
0.0099978038
0.014182866
0.013356598
0.011093692
0.010820223
0.010590226
0.01055326
0.010521304
0.010519773
0.010528369
0.01054268
0.01055855
0.010573925
0.010587465
0.010598428
0.010606467
0.0106115
0.010613618
0.010613026
0.010610001
0.010604842
0.010597849
0.010589313
0.0105795
0.010568651
0.010556979
0.010544669
0.010531876
0.010518734
0.010505351
0.010491819
0.010478212
0.010464588
0.010450993
0.010437463
0.010424023
0.01041069
0.010397477
0.010384387
0.010371421
0.010358575
0.010345843
0.010333216
0.010320683
0.010308234
0.010295857
0.010283539
0.010271268
0.010259032
0.010246816
0.010234605
0.010222384
0.01021013
0.010197818
0.010185415
0.010172882
0.010160179
0.010147264
0.010134106
0.010120681
0.010106975
0.010092977
0.010078664
0.010063987
0.010048874
0.010033316
0.010017803
0.010005141
0.0099954511
0.0099882915
0.0099832437
0.0099799717
0.0099782007
0.0099777637
0.0099786203
0.0099802115
0.0099822687
0.0099848823
0.0099886852
0.0099934242
0.0099981666
0.013791836
0.01289882
0.011043452
0.010841371
0.01067449
0.010641995
0.010626948
0.010632711
0.01064451
0.010658254
0.010670878
0.010680998
0.010687926
0.010691458
0.010691687
0.010688874
0.010683367
0.010675542
0.010665778
0.01065443
0.010641816
0.010628217
0.010613871
0.010598984
0.010583723
0.01056823
0.010552617
0.010536976
0.010521379
0.010505882
0.010490529
0.010475349
0.010460365
0.01044559
0.010431031
0.010416688
0.010402558
0.010388632
0.010374901
0.01036135
0.010347962
0.010334722
0.01032161
0.010308609
0.010295699
0.010282863
0.010270082
0.010257339
0.010244615
0.010231895
0.010219159
0.010206388
0.010193561
0.010180651
0.010167628
0.010154458
0.010141105
0.010127531
0.010113702
0.010099591
0.010085175
0.010070443
0.010055399
0.010040088
0.010024692
0.010010096
0.0099992962
0.0099910492
0.0099850627
0.0099809716
0.0099784952
0.0099773915
0.0099773206
0.0099785351
0.0099803267
0.009982508
0.0099852594
0.0099891823
0.0099939545
0.0099985011
0.013478487
0.012531213
0.011037831
0.010897729
0.010777806
0.010759634
0.010754214
0.010761075
0.01076987
0.010777474
0.010782064
0.010783073
0.010780475
0.010774547
0.010765709
0.010754428
0.010741164
0.010726339
0.010710321
0.010693431
0.010675933
0.010658046
0.010639945
0.010621771
0.010603635
0.010585623
0.010567803
0.010550224
0.010532921
0.010515918
0.01049923
0.010482866
0.010466825
0.010451105
0.010435696
0.010420586
0.01040576
0.010391201
0.010376887
0.010362799
0.010348913
0.010335206
0.010321653
0.010308231
0.010294914
0.01028168
0.010268505
0.010255366
0.010242242
0.010229111
0.010215953
0.010202746
0.010189469
0.010176102
0.010162621
0.010149004
0.010135224
0.010121256
0.010107071
0.010092638
0.010077925
0.010062893
0.010047522
0.010031893
0.010016578
0.010004216
0.0099947338
0.0099876827
0.0099826439
0.0099793181
0.0099774492
0.0099768171
0.0099772842
0.009978624
0.0099805618
0.0099828593
0.0099857534
0.0099897613
0.0099945597
0.009998849
0.013259881
0.012265316
0.01107964
0.010995976
0.010911574
0.010897538
0.010892873
0.01089346
0.010892881
0.010889392
0.010882361
0.010871929
0.010858532
0.010842702
0.010824969
0.010805814
0.010785652
0.010764827
0.010743617
0.010722243
0.01070088
0.010679659
0.010658682
0.010638022
0.010617733
0.010597852
0.010578402
0.010559396
0.010540842
0.010522736
0.010505073
0.01048784
0.010471026
0.01045461
0.010438576
0.010422899
0.010407558
0.010392528
0.010377782
0.010363295
0.010349038
0.010334985
0.010321105
0.010307372
0.010293757
0.010280232
0.010266769
0.010253343
0.010239925
0.01022649
0.010213014
0.010199471
0.010185839
0.010172096
0.01015822
0.010144194
0.010130002
0.01011563
0.010101068
0.010086305
0.010071332
0.010056144
0.010040759
0.010025313
0.010010545
0.009999678
0.0099913252
0.0099852111
0.0099809347
0.0099782288
0.0099769001
0.0099765601
0.0099773783
0.0099788482
0.00998087
0.0099832546
0.009986256
0.0099902646
0.0099949389
0.0099989341
0.013133919
0.012099976
0.011176033
0.011124861
0.011060214
0.01104218
0.011028494
0.011016122
0.011001503
0.010984165
0.010964253
0.010942243
0.010918676
0.010894048
0.010868781
0.010843216
0.010817619
0.010792192
0.010767085
0.010742407
0.010718235
0.01069462
0.010671595
0.010649177
0.010627372
0.010606177
0.010585584
0.01056558
0.010546146
0.010527263
0.010508909
0.010491059
0.01047369
0.010456774
0.010440285
0.010424195
0.010408475
0.010393096
0.010378029
0.010363245
0.010348712
0.010334401
0.010320281
0.010306322
0.010292493
0.010278764
0.010265103
0.010251481
0.010237867
0.010224232
0.010210547
0.010196783
0.010182913
0.01016891
0.01015475
0.010140412
0.010125883
0.010111153
0.010096217
0.010081078
0.010065739
0.010050224
0.010034627
0.010019362
0.010006235
0.0099963253
0.0099888722
0.0099835006
0.0099798535
0.0099776397
0.0099766315
0.0099763904
0.009977621
0.0099791674
0.0099812489
0.0099836994
0.0099867288
0.0099905628
0.00999489
0.0099986943
0.013070609
0.012029828
0.011336104
0.011267892
0.011207194
0.011174749
0.011145185
0.011116334
0.011086522
0.011055775
0.011024369
0.010992676
0.01096103
0.010929697
0.010898877
0.010868713
0.010839299
0.010810695
0.010782934
0.010756029
0.010729979
0.010704772
0.010680389
0.010656805
0.010633993
0.010611924
0.010590566
0.010569888
0.010549856
0.01053044
0.010511605
0.010493322
0.010475557
0.010458279
0.010441456
0.010425057
0.010409051
0.010393406
0.010378091
0.010363075
0.010348326
0.010333814
0.010319506
0.010305373
0.010291382
0.010277502
0.010263702
0.01024995
0.010236213
0.010222459
0.010208658
0.010194777
0.010180786
0.010166653
0.010152351
0.010137854
0.01012314
0.010108198
0.010093024
0.010077624
0.010062011
0.010046225
0.010030426
0.010015237
0.010003232
0.0099940367
0.0099872154
0.0099823557
0.0099791274
0.0099772615
0.0099766075
0.0099767224
0.0099778837
0.0099795479
0.0099816726
0.009984173
0.0099871841
0.009990839
0.0099948955
0.009998576
0.013081747
0.011990551
0.011490937
0.011401192
0.011328685
0.011277661
0.011230877
0.011186909
0.01114447
0.011103386
0.011063609
0.011025166
0.010988079
0.010952351
0.010917967
0.010884899
0.010853106
0.010822542
0.010793155
0.010764891
0.010737699
0.010711523
0.010686312
0.010662016
0.010638585
0.010615973
0.010594135
0.010573028
0.01055261
0.010532843
0.010513687
0.010495106
0.010477065
0.010459527
0.01044246
0.010425831
0.010409605
0.010393751
0.010378238
0.010363034
0.010348106
0.010333426
0.01031896
0.010304679
0.010290552
0.010276548
0.010262635
0.010248781
0.010234955
0.010221125
0.010207259
0.010193325
0.010179293
0.010165132
0.010150814
0.010136309
0.010121591
0.010106638
0.010091436
0.010075978
0.010060264
0.01004433
0.010028357
0.010013107
0.010001688
0.0099928842
0.009986417
0.009981853
0.0099788781
0.0099772245
0.0099766725
0.0099770514
0.0099781818
0.0099799088
0.0099820803
0.0099846431
0.0099876407
0.0099911052
0.0099948576
0.0099984282
0.013175639
0.012017437
0.011607529
0.011497968
0.011409942
0.011342901
0.011283156
0.011228823
0.011178274
0.01113086
0.011086137
0.011043815
0.011003665
0.010965502
0.010929168
0.010894525
0.01086145
0.010829833
0.010799574
0.010770583
0.010742777
0.010716079
0.01069042
0.010665734
0.010641961
0.010619045
0.010596934
0.010575578
0.010554931
0.01053495
0.010515594
0.010496823
0.010478599
0.010460886
0.010443648
0.010426852
0.010410464
0.010394452
0.010378782
0.010363424
0.010348347
0.01033352
0.010318913
0.010304495
0.010290237
0.010276108
0.010262077
0.010248113
0.010234186
0.010220263
0.010206313
0.010192309
0.010178222
0.010164028
0.010149705
0.010135233
0.010120591
0.010105759
0.010090717
0.010075453
0.010059964
0.010044285
0.01002858
0.010013522
0.0100019
0.0099930333
0.0099865296
0.0099819761
0.0099790394
0.009977428
0.009976898
0.0099773057
0.0099784497
0.0099801899
0.0099823955
0.0099849989
0.0099879775
0.0099912892
0.0099948073
0.0099983164
0.013300873
0.012073922
0.011668973
0.011546745
0.011448519
0.011373103
0.011307249
0.011248399
0.011194507
0.011144589
0.011097971
0.011054196
0.011012919
0.01097387
0.010936831
0.010901618
0.010868076
0.010836069
0.010805479
0.010776202
0.010748144
0.010721221
0.010695356
0.01067048
0.010646527
0.010623441
0.010601165
0.010579648
0.010558844
0.010538707
0.010519195
0.010500269
0.010481889
0.010464019
0.010446624
0.010429668
0.01041312
0.010396945
0.010381112
0.01036559
0.010350347
0.010335353
0.010320578
0.010305992
0.010291565
0.010277266
0.010263065
0.010248929
0.010234827
0.010220726
0.010206594
0.010192401
0.010178119
0.010163725
0.0101492
0.010134527
0.010119689
0.010104673
0.010089467
0.010074069
0.010058493
0.01004279
0.010027131
0.0100122
0.010001109
0.0099925293
0.0099862306
0.0099818158
0.0099789883
0.0099774751
0.0099769909
0.0099774203
0.0099785534
0.0099802986
0.0099825201
0.0099851434
0.0099881126
0.0099913424
0.009994741
0.0099982449
66.778797
363.41317
122.08144
14.715916
0.406089
0.021381313
0.02009247
0.019795934
0.019530561
0.01847086
0.017130165
0.015943503
0.01504449
0.014473558
0.014068229
0.013683746
0.013309147
0.012977603
0.012699874
0.012467689
0.012270244
0.012099894
0.011951571
0.011821508
0.011706668
0.011604576
0.011513256
0.011431129
0.011356951
0.01128974
0.011228685
0.011173075
0.011122294
0.011075823
0.011033249
0.010994241
0.010958515
0.010925818
0.010895917
0.010868599
0.01084368
0.010820977
0.010800308
0.010781502
0.010764399
0.010748838
0.010734661
0.010721721