/*--------------------------------*- C++ -*----------------------------------*\
  =========                 |
  \\      /  F ield         | OpenFOAM: The Open Source CFD Toolbox
   \\    /   O peration     | Website:  https://openfoam.org
    \\  /    A nd           | Version:  12
     \\/     M anipulation  |
\*---------------------------------------------------------------------------*/
FoamFile
{
    format      ascii;
    class       volScalarField;
    location    "0.11";
    object      Ma;
}
// * * * * * * * * * * * * * * * * * * * * * * * * * * * * * * * * * * * * * //

dimensions      [];

internalField   nonuniform List<scalar> 
16000
(
0.6270486
0.74479913
0.69984684
0.7244649
0.70945557
0.71635156
0.71066448
0.71216425
0.7095216
0.70906827
0.70744355
0.70630337
0.70488515
0.7035004
0.70203341
0.7005198
0.69894838
0.69732068
0.69563551
0.69389235
0.69209083
0.69023076
0.68831227
0.68633571
0.68430177
0.68221145
0.68006615
0.67786761
0.67561801
0.6733199
0.67097631
0.66859065
0.66616679
0.66370898
0.66122189
0.65871054
0.65618031
0.65363682
0.65108596
0.64853379
0.64598644
0.64345012
0.64093096
0.63843501
0.63596808
0.63353575
0.63114327
0.62879545
0.62649672
0.62425096
0.62206155
0.6199313
0.61786244
0.6158566
0.61391483
0.61203755
0.61022458
0.60847519
0.60678807
0.60516129
0.60359233
0.60207846
0.60061676
0.59920392
0.59783623
0.5965096
0.59521953
0.59396112
0.59272909
0.59151766
0.59032032
0.58912973
0.58793883
0.58674298
0.58554136
0.58434098
0.5829546
0.58217847
0.5795736
0.58015629
0.63156501
0.75005638
0.70342484
0.72914248
0.71330903
0.72067095
0.71453622
0.71615628
0.71333053
0.71280562
0.71109308
0.70983735
0.70832745
0.70682831
0.70525238
0.70362182
0.70193081
0.7001792
0.69836642
0.69649201
0.69455586
0.69255806
0.69049908
0.68837966
0.68620095
0.68396447
0.68167215
0.67932637
0.67692993
0.67448611
0.67199863
0.6694717
0.66690993
0.66431837
0.66170247
0.659068
0.65642105
0.65376793
0.65111513
0.64846921
0.64583675
0.64322424
0.64063805
0.63808425
0.63556865
0.63309664
0.63067315
0.62830263
0.62598898
0.62373552
0.62154496
0.61941944
0.61736045
0.6153689
0.61344512
0.61158882
0.60979917
0.6080748
0.60641383
0.60481386
0.60327193
0.60178489
0.60034951
0.59896229
0.59761944
0.5963168
0.5950498
0.59381347
0.5926024
0.59141072
0.59023175
0.58905769
0.58788098
0.58669772
0.58550417
0.58427646
0.58302683
0.58190871
0.57988035
0.57982851
0.63578729
0.75487417
0.70701905
0.73322898
0.71693902
0.72440427
0.71811055
0.71962027
0.71673907
0.71605766
0.71427662
0.71288298
0.71126844
0.7096422
0.70794137
0.7061794
0.70435303
0.70246185
0.70050555
0.69848401
0.69639745
0.69424638
0.6920317
0.68975469
0.68741706
0.68502095
0.68256898
0.68006426
0.6775104
0.6749115
0.67227219
0.66959755
0.66689315
0.66416496
0.66141932
0.65866289
0.65590255
0.65314535
0.6503984
0.64766878
0.64496346
0.64228916
0.63965232
0.63705898
0.63451469
0.6320245
0.62959283
0.62722353
0.62491975
0.62268401
0.62051817
0.61842345
0.61640042
0.6144491
0.6125689
0.61075872
0.60901691
0.60734138
0.60572958
0.60417857
0.60268488
0.60124494
0.59985518
0.59851189
0.59721118
0.59594887
0.59472039
0.59352071
0.59234439
0.59118547
0.59003714
0.58889144
0.58774074
0.58658037
0.58540232
0.5841898
0.58298487
0.58173328
0.5800077
0.57962433
0.63964906
0.75927497
0.71007292
0.73681313
0.72011386
0.72768598
0.72122665
0.72260577
0.71966036
0.71880243
0.71693828
0.71539032
0.71365289
0.71188316
0.71003975
0.70812938
0.70615079
0.70410353
0.70198766
0.69980341
0.6975514
0.69523262
0.69284851
0.69040093
0.68789228
0.68532545
0.68270391
0.68003165
0.67731327
0.6745539
0.67175921
0.66893539
0.66608906
0.66322726
0.66035733
0.65748686
0.65462356
0.6517752
0.64894943
0.64615375
0.64339535
0.640681
0.638017
0.63540907
0.63286229
0.63038106
0.62796904
0.62562916
0.62336361
0.62117386
0.61906069
0.61702422
0.61506395
0.61317883
0.6113673
0.60962731
0.60795639
0.60635168
0.60480995
0.60332767
0.60190092
0.6005257
0.59919813
0.59791432
0.59667029
0.59546188
0.59428458
0.59313338
0.59200282
0.59088691
0.5897788
0.58867048
0.5875542
0.58642377
0.58526962
0.58408574
0.58289965
0.5816135
0.58007399
0.57944777
0.64313375
0.76319178
0.71289042
0.73976172
0.72267406
0.73040395
0.72382647
0.72501598
0.72202427
0.72095549
0.71899746
0.71727739
0.71539851
0.71346962
0.71146656
0.70939168
0.70724473
0.70502545
0.70273416
0.70037148
0.69793851
0.69543681
0.6928685
0.69023623
0.68754329
0.68479359
0.68199166
0.67914269
0.6762525
0.67332749
0.67037463
0.66740139
0.66441565
0.66142561
0.65843971
0.65546648
0.65251444
0.64959194
0.64670708
0.64386755
0.6410805
0.63835251
0.63568941
0.63309628
0.63057739
0.62813615
0.62577513
0.62349607
0.6212999
0.61918681
0.61715627
0.61520714
0.6133377
0.61154576
0.60982867
0.60818342
0.60660668
0.60509483
0.60364399
0.60225007
0.60090872
0.59961559
0.59836652
0.59715747
0.59598443
0.59484334
0.59372979
0.59263886
0.59156514
0.59050265
0.58944458
0.58838303
0.58731
0.58621784
0.58509777
0.58394983
0.58278242
0.58149815
0.58008844
0.57931645
0.64619043
0.76653903
0.71524733
0.74225386
0.72488832
0.73247889
0.7257723
0.72677248
0.72373856
0.72244416
0.72038
0.71847687
0.71644052
0.71433941
0.71216137
0.70990635
0.70757455
0.7051661
0.70268176
0.70012276
0.69749095
0.69478875
0.69201929
0.68918637
0.68629453
0.683349
0.68035578
0.67732154
0.67425364
0.67116003
0.66804921
0.66493011
0.66181198
0.65870426
0.65561645
0.65255795
0.64953793
0.64656512
0.64364777
0.64079341
0.63800885
0.63529998
0.63267181
0.63012834
0.62767261
0.62530669
0.62303169
0.62084783
0.61875453
0.61675046
0.61483363
0.61300149
0.61125103
0.60957886
0.60798126
0.60645427
0.60499374
0.60359534
0.60225462
0.60096702
0.59972785
0.59853247
0.59737652
0.5962559
0.59516664
0.5941048
0.59306618
0.59204604
0.59103906
0.59003932
0.58904013
0.58803379
0.58701195
0.58596601
0.58488874
0.5837828
0.5826418
0.58138044
0.58007301
0.57919695
0.64879077
0.76930009
0.71715161
0.74425153
0.72663777
0.73389243
0.7272175
0.72784171
0.72481976
0.72324786
0.72106318
0.71896583
0.71675209
0.71446023
0.71208576
0.70962811
0.70708807
0.70446652
0.70176512
0.69898608
0.69613239
0.69320778
0.69021677
0.6871647
0.68405774
0.68090289
0.67770794
0.67448139
0.67123243
0.66797082
0.66470675
0.66145073
0.65821339
0.65500536
0.65183704
0.64871848
0.64565915
0.64266782
0.6397524
0.63691983
0.63417599
0.63152565
0.62897241
0.62651874
0.62416599
0.62191445
0.61976344
0.61771138
0.61575592
0.61389406
0.61212225
0.61043649
0.60883246
0.60730558
0.60585115
0.60446435
0.60314029
0.60187408
0.60066081
0.59949557
0.59837343
0.59728961
0.59623964
0.59521944
0.59422514
0.59325303
0.59229916
0.59135908
0.59042762
0.589499
0.58856669
0.58762319
0.58665987
0.58566771
0.58464116
0.5835832
0.58247708
0.58125255
0.58003081
0.57908346
0.65097678
0.77150568
0.71864519
0.74578333
0.727977
0.73486891
0.7281701
0.72866471
0.72523831
0.72338867
0.72104775
0.71872987
0.71630435
0.71378984
0.71118606
0.70849314
0.70571263
0.70284651
0.69989764
0.69686959
0.69376689
0.69059494
0.68736011
0.68406971
0.68073199
0.67735607
0.67395193
0.67053023
0.66710226
0.66367972
0.66027461
0.65689895
0.65356466
0.65028327
0.64706577
0.64392239
0.6408624
0.63789398
0.63502413
0.6322585
0.62960142
0.62705587
0.62462348
0.62230463
0.62009852
0.61800329
0.61601614
0.6141335
0.61235112
0.61066424
0.60906775
0.60755623
0.60612416
0.60476593
0.60347595
0.6022487
0.60107877
0.59996083
0.59888969
0.59786027
0.59686753
0.59590667
0.59497327
0.59406333
0.59317319
0.59229942
0.59143843
0.59058608
0.58973749
0.58888705
0.58802846
0.58715438
0.58625602
0.58532444
0.58435542
0.58335047
0.58228706
0.58111374
0.57996786
0.57896007
0.6528155
0.77318329
0.71968459
0.74684716
0.72865895
0.7349031
0.72829644
0.72799686
0.72494805
0.7228127
0.72026633
0.7176918
0.71501244
0.71223595
0.70936389
0.70639757
0.70333961
0.70019339
0.69696337
0.69365494
0.69027467
0.68683014
0.6833301
0.67978435
0.6762037
0.67259987
0.66898538
0.66537334
0.66177728
0.65821091
0.65468791
0.65122162
0.64782482
0.6445095
0.64128658
0.63816578
0.63515539
0.63226222
0.62949147
0.62684671
0.62432996
0.62194169
0.61968096
0.61754554
0.6155321
0.61363633
0.61185315
0.61017688
0.60860137
0.6071202
0.60572679
0.60441452
0.60317682
0.60200727
0.60089964
0.59984794
0.59884641
0.59788956
0.59697207
0.59608887
0.59523501
0.5944058
0.59359698
0.59280477
0.59202577
0.59125691
0.590495
0.58973632
0.58897633
0.58820969
0.58743032
0.58663105
0.58580313
0.58493811
0.58403226
0.58308411
0.58206997
0.58096069
0.57988388
0.57882513
0.65430508
0.77430649
0.72019641
0.74724239
0.72861709
0.73439498
0.72782191
0.72713654
0.72388621
0.72139926
0.71859781
0.71572912
0.71275255
0.70967175
0.70648932
0.70320837
0.69983316
0.69636908
0.69282282
0.68920227
0.68551671
0.6817766
0.67799377
0.67418109
0.67035251
0.66652276
0.66270723
0.65892159
0.65518162
0.65150283
0.64790017
0.64438775
0.64097854
0.63768408
0.63451432
0.6314774
0.62857961
0.62582528
0.62321683
0.62075485
0.6184382
0.6162642
0.6142288
0.61232682
0.61055212
0.60889786
0.60735668
0.60592088
0.60458262
0.60333403
0.60216733
0.60107497
0.60004967
0.59908447
0.59817279
0.59730844
0.5964856
0.59569879
0.59494284
0.59421284
0.59350411
0.59281221
0.59213321
0.59146359
0.5908003
0.59014068
0.589482
0.58882102
0.5881536
0.58747475
0.58677865
0.58605824
0.58530517
0.58451167
0.58367336
0.58278492
0.58182641
0.58079127
0.57977749
0.57867665
0.65538337
0.77477255
0.72010337
0.74610141
0.72780033
0.73303651
0.72655602
0.72527649
0.72189442
0.71903112
0.71591723
0.71270877
0.70938592
0.7059526
0.70241276
0.69877182
0.6950365
0.69121498
0.68731707
0.68335403
0.67933875
0.67528547
0.67120981
0.66712842
0.66305886
0.65901918
0.65502769
0.65110253
0.64726131
0.64352074
0.63989625
0.63640168
0.63304897
0.62984794
0.62680617
0.62392888
0.621219
0.61867718
0.61630201
0.61409019
0.61203678
0.61013543
0.6083787
0.60675832
0.6052654
0.6038907
0.60262484
0.60145844
0.60038229
0.59938747
0.59846542
0.59760804
0.59680769
0.59605725
0.59535012
0.59468019
0.59404183
0.59342984
0.59283938
0.59226592
0.59170517
0.59115313
0.59060624
0.59006137
0.58951589
0.58896755
0.58841411
0.58785286
0.58728015
0.5866914
0.58608098
0.58544208
0.58476706
0.58404886
0.58328117
0.58245499
0.5815588
0.58060519
0.57964775
0.57851466
0.65595948
0.77441559
0.71929222
0.74429905
0.72636464
0.73075745
0.7243526
0.72246594
0.71885093
0.71557083
0.71208065
0.70847747
0.70475225
0.70091158
0.69696166
0.69291111
0.68877025
0.68455122
0.68026812
0.67593682
0.67157486
0.66720123
0.66283608
0.65850035
0.65421543
0.65000269
0.645883
0.6418763
0.6380011
0.63427404
0.63070954
0.62731949
0.62411303
0.62109644
0.61827317
0.61564393
0.61320686
0.61095781
0.60889063
0.60699752
0.60526935
0.60369604
0.60226681
0.60097052
0.5997959
0.59873177
0.5977672
0.59689166
0.5960951
0.59536805
0.59470167
0.59408774
0.59351871
0.59298763
0.59248821
0.59201473
0.59156199
0.59112529
0.5907003
0.59028302
0.58986972
0.58945692
0.58904156
0.58862095
0.5881929
0.58775559
0.58730729
0.58684582
0.58636812
0.58587001
0.58534605
0.58478982
0.58419473
0.58355418
0.58285893
0.58209734
0.58126986
0.58040258
0.57949587
0.57834217
0.6559715
0.77316146
0.71762657
0.74175599
0.72405222
0.72745704
0.72108679
0.71853906
0.71460797
0.71085976
0.70692086
0.70285646
0.69866333
0.69435225
0.68993339
0.68542006
0.68082775
0.6761742
0.67147931
0.66676481
0.66205405
0.65737147
0.65274228
0.64819182
0.64374505
0.63942593
0.63525682
0.63125789
0.62744665
0.6238375
0.6204415
0.61726618
0.61431553
0.61159018
0.60908759
0.60680243
0.60472694
0.60285137
0.60116445
0.59965375
0.59830616
0.59710817
0.59604622
0.59510693
0.59427733
0.59354499
0.59289812
0.59232571
0.59181751
0.59136407
0.59095675
0.59058771
0.59024984
0.58993677
0.58964278
0.58936278
0.58909224
0.58882713
0.58856378
0.58829884
0.58802923
0.58775211
0.58746495
0.58716558
0.58685225
0.58652357
0.58617828
0.58581476
0.58543056
0.5850219
0.58458357
0.58410972
0.58359501
0.58303288
0.58241066
0.58171585
0.58096211
0.5801823
0.57932314
0.57816497
0.65539994
0.77091197
0.71503611
0.73811921
0.72072691
0.72302139
0.71660936
0.71334902
0.70899118
0.70470333
0.70023038
0.6956241
0.69088653
0.68603441
0.6810842
0.67605598
0.67097245
0.66585867
0.66074185
0.65565077
0.65061535
0.64566592
0.6408326
0.6361444
0.6316286
0.62730981
0.62320942
0.619345
0.6157299
0.61237306
0.60927905
0.60644817
0.60387685
0.60155806
0.59948184
0.59763588
0.59600607
0.59457705
0.59333271
0.59225662
0.59133241
0.59054406
0.58987613
0.58931397
0.58884381
0.58845282
0.58812919
0.58786211
0.58764178
0.58745932
0.5873068
0.58717712
0.58706401
0.58696192
0.58686596
0.58677189
0.58667598
0.58657497
0.586466
0.58634643
0.58621389
0.58606623
0.58590153
0.58571812
0.5855147
0.58529028
0.58504406
0.58477496
0.58448109
0.58415909
0.58380405
0.58341094
0.58297562
0.582491
0.58194132
0.58131539
0.58063877
0.57994288
0.5791283
0.57798768
0.65418638
0.76749631
0.71146791
0.73330616
0.71622892
0.71728174
0.71072001
0.70667884
0.70176655
0.69684393
0.69173671
0.68649528
0.68112956
0.67566457
0.67012575
0.66454229
0.65894611
0.65337131
0.64785372
0.64242998
0.63713676
0.63200963
0.62708212
0.62238459
0.61794336
0.61377993
0.60991047
0.60634554
0.60309013
0.60014391
0.59750168
0.595154
0.59308789
0.59128758
0.58973528
0.58841181
0.58729729
0.58637165
0.58561506
0.58500832
0.58453309
0.5841721
0.58390925
0.58372972
0.58361994
0.58356761
0.58356165
0.58359213
0.58365025
0.58372821
0.58381914
0.58391704
0.5840167
0.58411363
0.58420393
0.58428429
0.58435192
0.5844044
0.58443967
0.58445591
0.58445145
0.58442485
0.58437481
0.58430018
0.58420009
0.58407394
0.5839213
0.5837416
0.58353346
0.58329392
0.58301859
0.5827034
0.58234506
0.58193535
0.5814567
0.58090194
0.58030488
0.57968544
0.57890923
0.57781268
0.65227623
0.76267631
0.70696585
0.72712519
0.7103509
0.71001273
0.70314927
0.69823097
0.692615
0.68693976
0.68108708
0.67511302
0.6690391
0.66290118
0.65673645
0.65058569
0.64449216
0.6385006
0.63265617
0.62700301
0.62158284
0.61643351
0.6115877
0.6070719
0.60290571
0.59910147
0.59566442
0.59259296
0.58987943
0.58751093
0.5854703
0.58373713
0.58228872
0.58110099
0.58014927
0.57940893
0.57885595
0.57846727
0.57822111
0.57809718
0.57807676
0.57814273
0.57827961
0.5784735
0.57871198
0.57898406
0.57928003
0.57959141
0.57991081
0.58023183
0.58054898
0.58085753
0.58115351
0.58143357
0.5816949
0.5819352
0.58215259
0.58234554
0.5825128
0.58265331
0.58276616
0.58285057
0.58290584
0.58293135
0.58292665
0.58289145
0.58282569
0.58272921
0.58260104
0.58243867
0.5822385
0.58199748
0.58171244
0.58137357
0.58096365
0.58048237
0.57996673
0.57941397
0.57866565
0.57764615
0.64961178
0.75606371
0.7014128
0.71931276
0.70278468
0.70086824
0.69350937
0.68759193
0.68111269
0.67455751
0.6678503
0.66105687
0.65421473
0.6473743
0.64058804
0.63391133
0.62740057
0.62111131
0.61509623
0.60940311
0.60407301
0.5991388
0.59462427
0.59054373
0.58690214
0.58369578
0.58091324
0.57853663
0.57654297
0.57490555
0.57359521
0.57258149
0.57183363
0.57132135
0.57101545
0.57088829
0.57091406
0.57106898
0.57133134
0.57168156
0.57210208
0.57257729
0.57309344
0.57363843
0.57420175
0.57477427
0.57534816
0.57591669
0.57647417
0.5770158
0.57753757
0.57803614
0.57850882
0.57895341
0.57936822
0.57975192
0.58010354
0.58042239
0.58070797
0.58095998
0.58117818
0.58136245
0.58151265
0.58162867
0.58171043
0.58175799
0.58177156
0.58175127
0.58169647
0.58160523
0.58147499
0.58130365
0.58108725
0.5808142
0.58047019
0.58006406
0.57963035
0.57913528
0.57840908
0.57748387
0.64605852
0.74699072
0.69419637
0.70941692
0.69307358
0.68937294
0.68129474
0.67424491
0.66674486
0.65918567
0.65153015
0.64385921
0.63623297
0.62872186
0.62139737
0.61433062
0.60758927
0.60123456
0.5953187
0.5898829
0.58495612
0.58055462
0.57668237
0.57333203
0.5704865
0.56812075
0.56620366
0.56469994
0.56357183
0.5627806
0.56228774
0.56205593
0.56204969
0.56223592
0.56258411
0.56306652
0.56365816
0.56433675
0.56508258
0.56587832
0.56670886
0.56756114
0.56842387
0.56928743
0.57014363
0.57098558
0.57180751
0.57260463
0.57337304
0.57410956
0.57481168
0.57547745
0.57610539
0.57669446
0.57724395
0.5777535
0.57822295
0.57865238
0.57904199
0.57939213
0.57970321
0.57997566
0.58020987
0.58040621
0.58056499
0.58068657
0.58077141
0.58081978
0.58083128
0.58080468
0.58073869
0.58063189
0.58047883
0.58026642
0.57998535
0.57965452
0.57930148
0.57885775
0.57815182
0.57733185
0.64132867
0.73546574
0.68488756
0.69687672
0.68063811
0.67496567
0.66590404
0.65757023
0.64889682
0.64022658
0.63156992
0.6230316
0.61470105
0.60667175
0.59903205
0.59186179
0.58522841
0.57918409
0.57376417
0.56898672
0.56485336
0.56135088
0.55845365
0.5561262
0.55432603
0.55300613
0.55211729
0.55160997
0.55143584
0.55154881
0.55190585
0.55246737
0.55319749
0.55406404
0.55503847
0.55609569
0.55721378
0.55837379
0.55955938
0.56075662
0.56195366
0.56314055
0.56430894
0.56545193
0.56656384
0.56764009
0.568677
0.56967171
0.57062203
0.57152636
0.57238358
0.57319301
0.57395433
0.57466749
0.57533273
0.57595048
0.57652135
0.57704607
0.57752547
0.57796044
0.57835194
0.57870091
0.57900821
0.57927461
0.57950083
0.57968755
0.57983538
0.57994469
0.58001527
0.5800467
0.58003895
0.57999095
0.5798956
0.57973918
0.57951842
0.57926063
0.57898405
0.5785898
0.57791113
0.57718259
0.63506229
0.72249797
0.67292756
0.68110468
0.66476014
0.65692476
0.64656882
0.63678043
0.62681626
0.61700228
0.60740882
0.59817001
0.58940169
0.58121038
0.57368444
0.56689087
0.56087296
0.55565011
0.55121933
0.54755803
0.54462762
0.54237754
0.54074916
0.53967937
0.5391036
0.53895826
0.53918248
0.53971938
0.5405168
0.54152763
0.54270989
0.54402659
0.54544544
0.54693851
0.54848182
0.55005493
0.55164053
0.55322408
0.55479345
0.55633858
0.55785127
0.55932481
0.56075389
0.56213428
0.56346277
0.56473695
0.56595512
0.56711616
0.56821946
0.56926481
0.57025235
0.57118252
0.57205598
0.57287358
0.57363633
0.57434539
0.57500197
0.57560738
0.57616296
0.57667006
0.5771301
0.57754442
0.57791428
0.57824084
0.57852518
0.57876829
0.57897096
0.57913357
0.57925617
0.57933912
0.5793834
0.57938789
0.57934435
0.57924006
0.57907783
0.57888907
0.57867966
0.57833069
0.57769236
0.57704765
0.6269324
0.70552559
0.65748165
0.66121291
0.64439495
0.63419075
0.62225658
0.61091081
0.59968685
0.58890522
0.57869265
0.56919948
0.56054257
0.55280963
0.54605398
0.54029536
0.53552252
0.53169787
0.52876323
0.52664585
0.52526414
0.52453266
0.52436616
0.52468261
0.52540528
0.52646399
0.52779568
0.52934462
0.5310621
0.53290603
0.53484038
0.53683457
0.53886284
0.54090361
0.54293901
0.54495428
0.54693739
0.5488786
0.55077014
0.55260588
0.55438109
0.55609224
0.55773676
0.55931293
0.56081971
0.56225663
0.56362371
0.56492137
0.56615032
0.56731156
0.56840628
0.56943586
0.57040178
0.57130564
0.57214911
0.5729339
0.57366176
0.57433443
0.57495368
0.57552127
0.57603891
0.57650828
0.57693097
0.57730847
0.57764219
0.57793341
0.57818307
0.57839166
0.57855954
0.57868778
0.57877781
0.57882811
0.57883022
0.57877447
0.57866951
0.57854548
0.57839193
0.57807957
0.57749014
0.57694189
0.61629266
0.68357166
0.63715423
0.63578419
0.61806712
0.60537541
0.5917945
0.57905676
0.56694529
0.55575705
0.5456336
0.53669574
0.52900917
0.52259241
0.51741991
0.51343027
0.51053525
0.50862911
0.5075971
0.50732247
0.50769187
0.50859903
0.50994705
0.51164946
0.51363046
0.51582459
0.51817599
0.52063746
0.52316953
0.52573942
0.52832014
0.53088963
0.53343001
0.53592694
0.53836902
0.54074734
0.54305502
0.54528692
0.5474393
0.54950958
0.55149617
0.55339827
0.55521572
0.5569489
0.55859863
0.56016606
0.56165262
0.56305998
0.56438997
0.56564453
0.56682574
0.56793569
0.56897656
0.56995053
0.57085978
0.5717065
0.57249283
0.57322086
0.5738927
0.5745104
0.57507592
0.57559119
0.57605804
0.57647822
0.57685343
0.57718515
0.57747451
0.57772222
0.57792911
0.5780967
0.57822636
0.57831587
0.57835747
0.57834621
0.57829607
0.57823184
0.57812504
0.57784317
0.57730846
0.57687151
0.60199017
0.65453173
0.6100267
0.60306118
0.58416695
0.56910144
0.55429301
0.54086244
0.52877429
0.51824484
0.50934661
0.50209667
0.4964448
0.49229153
0.48950165
0.48791936
0.48738099
0.48772515
0.48879977
0.4904665
0.49260281
0.49510248
0.49787507
0.5008446
0.503948
0.50713347
0.51035883
0.51359001
0.51679979
0.51996654
0.52307332
0.52610702
0.52905765
0.53191776
0.53468201
0.53734674
0.53990964
0.54236952
0.5447261
0.54697977
0.54913153
0.55118282
0.55313544
0.55499144
0.55675312
0.55842291
0.56000338
0.56149717
0.56290694
0.56423543
0.56548534
0.56665937
0.56776019
0.56879045
0.56975272
0.57064955
0.57148337
0.57225658
0.57297151
0.57363042
0.57423549
0.5747888
0.57529236
0.57574812
0.57615795
0.57652351
0.57684608
0.57712673
0.57736681
0.57756816
0.57773172
0.5778545
0.57793013
0.57795867
0.57795805
0.57794682
0.57788248
0.57763617
0.57716567
0.57683249
0.58205182
0.61605952
0.57390831
0.56124343
0.54167617
0.52466963
0.5097841
0.49708421
0.48653764
0.47818714
0.47193523
0.46762206
0.4650363
0.46394367
0.46410603
0.46529655
0.46730883
0.46996159
0.47309982
0.47659382
0.48033685
0.48424232
0.48824077
0.49227707
0.49630788
0.5002995
0.50422596
0.50806756
0.5118096
0.51544135
0.51895523
0.52234618
0.52561113
0.52874856
0.53175818
0.53464064
0.53739736
0.54003031
0.54254193
0.54493497
0.5472124
0.5493774
0.55143326
0.55338334
0.55523102
0.55697972
0.55863284
0.56019375
0.56166576
0.56305215
0.56435612
0.56558079
0.56672923
0.56780441
0.5688092
0.56974639
0.57061867
0.57142862
0.57217878
0.57287154
0.57350923
0.57409406
0.57462818
0.57511364
0.57555242
0.57594625
0.57629659
0.57660489
0.57687299
0.57710293
0.57729511
0.57744625
0.57755182
0.57761599
0.57765802
0.57768958
0.57766207
0.57746275
0.5770758
0.5768136
0.55386473
0.56564889
0.52744124
0.50898196
0.48831815
0.47282754
0.45983529
0.4499414
0.44288114
0.43841135
0.43618551
0.4358399
0.43701656
0.43938883
0.44267188
0.44662633
0.45105643
0.45580544
0.46074999
0.46579432
0.47086501
0.47590642
0.48087694
0.48574587
0.49049103
0.49509677
0.49955252
0.50385152
0.50799003
0.5119665
0.51578111
0.51943531
0.5229315
0.52627278
0.52946276
0.5325054
0.53540491
0.53816564
0.54079202
0.54328853
0.54565964
0.54790976
0.55004326
0.55206442
0.55397745
0.55578645
0.5574954
0.5591082
0.56062862
0.56206033
0.56340688
0.56467169
0.56585808
0.56696928
0.56800835
0.56897828
0.5698819
0.57072197
0.57150114
0.57222192
0.57288674
0.57349792
0.57405768
0.57456817
0.57503141
0.57544916
0.57582305
0.57615484
0.57644669
0.5767006
0.5769167
0.57709214
0.57722478
0.57732155
0.57739973
0.57746303
0.577462
0.57730758
0.5770132
0.57686549
0.51331362
0.50075905
0.46351496
0.44560432
0.4281713
0.41596134
0.40764604
0.40300946
0.40139734
0.40222334
0.40491835
0.40899506
0.41405104
0.41976776
0.42589971
0.43226178
0.43871686
0.44516492
0.45153419
0.45777406
0.46384969
0.46973791
0.47542411
0.48089994
0.48616164
0.49120871
0.49604303
0.50066814
0.50508871
0.50931022
0.51333862
0.51718017
0.52084125
0.52432832
0.52764776
0.53080589
0.53380887
0.53666273
0.53937331
0.54194628
0.5443871
0.54670108
0.54889331
0.55096872
0.55293204
0.55478785
0.55654053
0.55819434
0.55975334
0.56122146
0.56260249
0.56390006
0.56511765
0.56625865
0.56732627
0.56832361
0.56925361
0.57011914
0.57092293
0.57166759
0.57235562
0.5729894
0.57357124
0.57410333
0.57458772
0.57502623
0.57542066
0.57577295
0.57608534
0.57635961
0.57659581
0.57679218
0.576949
0.57707413
0.57718083
0.57726765
0.57729366
0.57719715
0.57699475
0.57687844
0.45147452
0.41889488
0.38918466
0.37433205
0.3634918
0.35868851
0.35812185
0.36087263
0.36594916
0.37259142
0.38021375
0.38839144
0.39682391
0.40530397
0.41369194
0.42189597
0.42985772
0.437542
0.44492955
0.45201195
0.4587881
0.46526172
0.47143969
0.47733087
0.48294524
0.48829341
0.4933862
0.4982344
0.50284859
0.50723905
0.51141569
0.51538802
0.51916512
0.52275565
0.52616787
0.52940962
0.53248837
0.53541124
0.53818497
0.540816
0.54331047
0.54567423
0.54791283
0.55003162
0.55203567
0.55392985
0.5557188
0.55740699
0.55899868
0.56049796
0.56190875
0.56323482
0.56447975
0.56564702
0.56673994
0.56776166
0.56871522
0.56960353
0.5704294
0.57119548
0.57190432
0.57255837
0.57315997
0.57371135
0.5742146
0.57467164
0.57508442
0.57545501
0.57578556
0.5760776
0.5763313
0.57654613
0.57672391
0.57687194
0.5769992
0.57710148
0.57714775
0.57710022
0.57698644
0.57695138
0.35570003
0.32221682
0.3046
0.30011781
0.30149997
0.30776542
0.31693604
0.32774579
0.33932087
0.35110975
0.36277661
0.37412533
0.3850482
0.39549216
0.40543754
0.41488473
0.42384576
0.43233912
0.44038658
0.44801117
0.45523603
0.4620837
0.46857571
0.47473242
0.48057289
0.48611494
0.49137513
0.49636888
0.5011105
0.50561328
0.5098896
0.51395096
0.51780811
0.52147108
0.52494923
0.52825136
0.53138571
0.53436004
0.53718166
0.53985745
0.54239394
0.54479729
0.54707335
0.54922769
0.55126558
0.55319205
0.55501191
0.55672972
0.55834985
0.5598765
0.56131365
0.56266513
0.5639346
0.56512557
0.5662414
0.56728529
0.5682603
0.56916939
0.57001539
0.57080098
0.57152876
0.57220119
0.57282064
0.57338937
0.57390948
0.57438303
0.57481207
0.57519874
0.5755451
0.57585261
0.57612189
0.57635351
0.57655
0.57671705
0.57685999
0.57697487
0.5770426
0.57704354
0.5769984
0.57699636
0.21658479
0.21530291
0.22068618
0.23408259
0.25138622
0.2697699
0.28802927
0.30551407
0.3219952
0.33740863
0.35177948
0.36516806
0.37764806
0.38929474
0.4001798
0.41036928
0.41992285
0.42889404
0.43733056
0.44527492
0.45276503
0.45983469
0.46651414
0.47283048
0.47880811
0.484469
0.48983306
0.49491833
0.49974126
0.50431686
0.50865892
0.51278007
0.51669198
0.52040544
0.52393046
0.52727634
0.53045176
0.53346483
0.53632316
0.53903388
0.54160372
0.54403902
0.54634578
0.54852967
0.55059608
0.55255012
0.55439666
0.55614034
0.55778559
0.55933661
0.56079744
0.56217194
0.5634638
0.56467655
0.56581355
0.56687803
0.56787307
0.56880161
0.56966652
0.57047048
0.57121611
0.57190588
0.57254218
0.57312726
0.57366326
0.57415225
0.57459633
0.5749976
0.575358
0.57567908
0.57596198
0.57620814
0.57642031
0.57660247
0.57675742
0.57688283
0.57697016
0.57701256
0.57702117
0.57703401
0.091939585
0.12183841
0.15925748
0.19290152
0.22302984
0.24955237
0.27308917
0.29410601
0.3130189
0.33015391
0.34577388
0.36008933
0.37327113
0.38545911
0.39676894
0.40729716
0.41712507
0.42632174
0.43494626
0.44304957
0.45067587
0.45786376
0.46464714
0.47105594
0.47711674
0.48285325
0.48828672
0.49343629
0.49831925
0.50295131
0.50734678
0.51151876
0.51547927
0.51923938
0.52280935
0.52619867
0.52941615
0.53247005
0.53536806
0.53811741
0.54072489
0.54319689
0.54553944
0.54775827
0.54985879
0.55184612
0.55372517
0.55550057
0.55717676
0.55875797
0.56024825
0.56165144
0.56297126
0.56421123
0.56537473
0.56646498
0.56748505
0.56843791
0.5693264
0.57015323
0.570921
0.57163222
0.57228927
0.5728944
0.57344973
0.57395732
0.57441917
0.57483727
0.57521346
0.57554931
0.57584635
0.57610653
0.57633256
0.57652737
0.5766926
0.57682738
0.57692926
0.57699766
0.57703682
0.57705481
0.011033834
0.29741428
0.47197252
0.51979712
0.52950058
0.53001051
0.52968952
0.5308289
0.53231185
0.53379555
0.53527419
0.53671898
0.53814005
0.53954677
0.54095003
0.54235984
0.54377764
0.54520396
0.54663856
0.54808044
0.54952814
0.55097987
0.55243362
0.55388728
0.55533866
0.55678556
0.5582258
0.55965724
0.56107778
0.56248538
0.56387806
0.56525385
0.56661087
0.56794724
0.56926111
0.57055066
0.57181408
0.57304956
0.5742553
0.57542951
0.57657035
0.57767603
0.57874471
0.57977457
0.58076378
0.58171053
0.58261301
0.58346943
0.58427807
0.58503722
0.58574526
0.58640061
0.58700181
0.58754748
0.58803636
0.58846731
0.58883936
0.58915165
0.58940353
0.58959421
0.58972259
0.58978771
0.58978867
0.58972439
0.58959269
0.58939252
0.58911848
0.58877587
0.58834526
0.58786293
0.58724536
0.58664751
0.58577453
0.58516568
0.58391012
0.58351992
0.58171838
0.58167587
0.57944417
0.57951491
0.064498226
0.38520124
0.5223221
0.54732701
0.54816951
0.54634946
0.54549689
0.54564139
0.54584667
0.54615246
0.5465443
0.54710136
0.5477788
0.54854703
0.54937761
0.55026736
0.55120956
0.55219974
0.55323251
0.55430269
0.55540553
0.55653658
0.55769162
0.55886667
0.56005794
0.5612618
0.56247482
0.56369369
0.56491523
0.5661364
0.56735425
0.56856592
0.56976868
0.57095983
0.57213676
0.57329694
0.57443787
0.57555711
0.57665227
0.57772099
0.57876094
0.57976985
0.58074546
0.58168555
0.58258794
0.5834505
0.58427115
0.58504787
0.5857787
0.58646178
0.58709534
0.58767772
0.58820736
0.58868285
0.58910292
0.58946644
0.5897725
0.59002031
0.59020929
0.59033873
0.59040762
0.5904151
0.59036039
0.5902425
0.59005945
0.58981013
0.58948994
0.58910305
0.58863287
0.58811047
0.58746276
0.58682824
0.58594
0.58529203
0.58403883
0.58361013
0.58180875
0.5817629
0.57945701
0.57962408
0.1498926
0.46620463
0.54197271
0.55472547
0.55335345
0.5524248
0.5524183
0.55297954
0.55339608
0.55392042
0.55442518
0.55499224
0.55557967
0.55620882
0.55687123
0.55757157
0.55830592
0.55907462
0.55987612
0.56070874
0.56157065
0.56245992
0.56337444
0.56431193
0.56527003
0.56624624
0.56723798
0.5682426
0.56925738
0.57027957
0.57130637
0.57233497
0.57336253
0.57438623
0.57540322
0.57641069
0.57740583
0.57838584
0.57934797
0.58028946
0.58120762
0.58209977
0.58296328
0.58379558
0.58459413
0.5853565
0.58608029
0.58676323
0.58740313
0.5879979
0.58854561
0.58904445
0.58949276
0.58988905
0.59023202
0.59052051
0.59075362
0.59093062
0.59105097
0.59111402
0.5911188
0.59106455
0.59095058
0.59077595
0.59053886
0.5902382
0.58986989
0.58943742
0.58892606
0.58836361
0.58768333
0.5870141
0.58610592
0.58542436
0.58416594
0.58370482
0.58189502
0.58184625
0.57947755
0.57972232
0.23218711
0.51332869
0.55565512
0.56313373
0.56045692
0.56069085
0.56075177
0.56135138
0.56162475
0.56207771
0.5624538
0.56291019
0.56336938
0.56386033
0.56436858
0.56490214
0.56545832
0.56603929
0.56664491
0.56727511
0.5679296
0.56860786
0.56930915
0.57003248
0.57077666
0.57154027
0.57232169
0.57311912
0.57393057
0.57475389
0.57558682
0.57642692
0.57727166
0.57811842
0.57896448
0.57980705
0.58064331
0.58147037
0.58228532
0.58308524
0.58386722
0.58462834
0.58536571
0.5860765
0.58675791
0.58740724
0.58802186
0.58859925
0.589137
0.58963284
0.59008468
0.59049055
0.5908487
0.59115757
0.59141579