/*--------------------------------*- C++ -*----------------------------------*\
  =========                 |
  \\      /  F ield         | OpenFOAM: The Open Source CFD Toolbox
   \\    /   O peration     | Website:  https://openfoam.org
    \\  /    A nd           | Version:  12
     \\/     M anipulation  |
\*---------------------------------------------------------------------------*/
FoamFile
{
    format      ascii;
    class       volScalarField;
    location    "0.11";
    object      nut;
}
// * * * * * * * * * * * * * * * * * * * * * * * * * * * * * * * * * * * * * //

dimensions      [0 2 -1 0 0 0 0];

internalField   nonuniform List<scalar> 
16000
(
4.5752404e-07
9.8563535e-06
1.9680324e-05
2.3401894e-05
1.8176475e-05
2.4909083e-05
1.7641062e-05
2.411286e-05
1.8859299e-05
2.5915351e-05
2.1863863e-05
2.5629298e-05
2.339329e-05
2.3998361e-05
2.3193584e-05
2.3057896e-05
2.2816641e-05
2.2749395e-05
2.2759458e-05
2.2866206e-05
2.3062295e-05
2.3347116e-05
2.3718148e-05
2.4175391e-05
2.4720964e-05
2.5360633e-05
2.6102215e-05
2.6958228e-05
2.7943901e-05
2.9075591e-05
3.0371227e-05
3.1854673e-05
3.3556751e-05
3.551545e-05
3.7777501e-05
4.0398631e-05
4.3445191e-05
4.6996277e-05
5.1149805e-05
5.6027075e-05
6.1770312e-05
6.8546934e-05
7.656802e-05
8.6091975e-05
9.7426013e-05
0.00011093828
0.00012708495
0.00014642129
0.00016962254
0.00019751049
0.00023108939
0.00027158871
0.00032050779
0.00037967918
0.00045134314
0.00053824825
0.0006437732
0.00077208563
0.0009283656
0.0010187952
0.001018789
0.0010187441
0.001018692
0.0010185949
0.0010184611
0.0010182861
0.0010180608
0.0010177662
0.0010173704
0.0010168227
0.001016047
0.0010149406
0.0010133687
0.0010113274
0.0010095538
0.0010079761
0.0010065775
0.0010065464
0.0010048081
0.0010057547
4.2171936e-07
9.3609729e-06
1.9739254e-05
2.1302282e-05
1.6434371e-05
2.2364233e-05
1.5690687e-05
2.115506e-05
1.6696263e-05
2.2940423e-05
1.9832831e-05
2.3150557e-05
2.1427138e-05
2.1779983e-05
2.1149085e-05
2.0962803e-05
2.076049e-05
2.068815e-05
2.0698727e-05
2.079552e-05
2.0975931e-05
2.1239078e-05
2.1583019e-05
2.2007802e-05
2.2515072e-05
2.3110208e-05
2.3799967e-05
2.4595618e-05
2.5511566e-05
2.6563756e-05
2.7768858e-05
2.9148651e-05
3.073164e-05
3.2552974e-05
3.4656357e-05
3.7094159e-05
3.9929152e-05
4.3235603e-05
4.7104639e-05
5.165102e-05
5.7011334e-05
6.3343031e-05
7.0844679e-05
7.9762432e-05
9.0391068e-05
0.00010308007
0.000118264
0.00013647363
0.0001583558
0.00018469816
0.00021646364
0.0002548344
0.00030125427
0.00035749116
0.00042570831
0.0005085631
0.00060932719
0.00073203239
0.00088167288
0.0010180439
0.001018068
0.0010180035
0.0010179393
0.0010178293
0.0010176804
0.0010174883
0.0010172443
0.0010169294
0.0010165116
0.0010159391
0.0010151292
0.0010139738
0.0010123888
0.0010104652
0.0010087952
0.0010072718
0.0010060589
0.0010057123
0.00100456
0.0010055304
3.7344148e-07
8.9748104e-06
1.8704288e-05
1.9498502e-05
1.4738394e-05
1.9730043e-05
1.3991766e-05
1.842421e-05
1.5033562e-05
2.0166349e-05
1.8106717e-05
2.0646903e-05
1.943344e-05
1.9531326e-05
1.9044196e-05
1.8837161e-05
1.8666173e-05
1.8598986e-05
1.8612417e-05
1.8703874e-05
1.8871944e-05
1.9116133e-05
1.9434809e-05
1.9828251e-05
2.0297739e-05
2.0848451e-05
2.1486411e-05
2.2221815e-05
2.3068081e-05
2.4040754e-05
2.5155654e-05
2.6432912e-05
2.7899113e-05
2.9586959e-05
3.1537457e-05
3.3799893e-05
3.6433861e-05
3.9509844e-05
4.3113257e-05
4.7352327e-05
5.2359022e-05
5.8283121e-05
6.5312466e-05
7.368178e-05
8.3675934e-05
9.5629286e-05
0.00010995826
0.00012717311
0.00014789709
0.00017289026
0.00020308141
0.00023961388
0.00028388569
0.00033761204
0.00040289347
0.00048231265
0.000579054
0.00069704698
0.00084115164
0.0010173373
0.0010173926
0.0010173049
0.0010172213
0.0010170922
0.0010169222
0.0010167068
0.0010164373
0.0010160949
0.0010156466
0.0010150395
0.0010141895
0.0010129813
0.001011359
0.0010095633
0.0010080013
0.0010065921
0.0010055069
0.0010050131
0.0010042689
0.0010051864
3.3474415e-07
8.6851763e-06
1.7777266e-05
1.8122836e-05
1.3266679e-05
1.7445842e-05
1.2484353e-05
1.6124445e-05
1.3547452e-05
1.7799428e-05
1.6544666e-05
1.8419865e-05
1.758581e-05
1.74981e-05
1.7118801e-05
1.6911382e-05
1.6768269e-05
1.6711403e-05
1.6730509e-05
1.682017e-05
1.6979467e-05
1.7208328e-05
1.7505476e-05
1.7871549e-05
1.8307589e-05
1.8818725e-05
1.9410496e-05
2.0092255e-05
2.0876492e-05
2.1778424e-05
2.2813317e-05
2.3999908e-05
2.5363225e-05
2.6933866e-05
2.8750562e-05
3.0859933e-05
3.3318836e-05
3.6194787e-05
3.9568663e-05
4.3542607e-05
4.8245043e-05
5.3819936e-05
6.0446514e-05
6.8349347e-05
7.7806144e-05
8.9139619e-05
0.00010275184
0.00011913717
0.00013890071
0.00016278231
0.00019168498
0.00022672374
0.00026926335
0.00032098195
0.00038393691
0.00046066003
0.00055427706
0.00066865199
0.00080856572
0.00097994668
0.0010167574
0.0010166432
0.0010165347
0.0010163813
0.0010161854
0.0010159419
0.0010156422
0.0010152677
0.001014784
0.001014136
0.0010132428
0.001011993
0.001010338
0.0010086688
0.0010072194
0.0010059316
0.001004928
0.0010043829
0.001003938
0.0010047729
3.043671e-07
8.4707679e-06
1.6964672e-05
1.813208e-05
1.3244054e-05
1.5446739e-05
1.1157516e-05
1.4145575e-05
1.226687e-05
1.5752048e-05
1.5151448e-05
1.6408329e-05
1.5857646e-05
1.5644646e-05
1.5345264e-05
1.5151163e-05
1.5031181e-05
1.498526e-05
1.5008899e-05
1.5096165e-05
1.5246337e-05
1.545989e-05
1.5735959e-05
1.607565e-05
1.6479906e-05
1.6953881e-05
1.7502774e-05
1.813527e-05
1.8862936e-05
1.970062e-05
2.0663229e-05
2.1768338e-05
2.3039686e-05
2.4506056e-05
2.6204217e-05
2.8178473e-05
3.048323e-05
3.3183605e-05
3.6357072e-05
4.009999e-05
4.4537797e-05
4.9810113e-05
5.6089438e-05
6.3590831e-05
7.258658e-05
8.3390354e-05
9.6392422e-05
0.00011207415
0.00013102573
0.00015397141
0.00018179319
0.00021558371
0.00025668107
0.00030673429
0.00036776741
0.00044227285
0.0005333314
0.00064475784
0.0007812753
0.00094873467
0.0010161618
0.0010160183
0.0010158794
0.0010156967
0.0010154702
0.001015194
0.0010148592
0.0010144476
0.0010139231
0.0010132271
0.0010122837
0.0010110005
0.001009332
0.0010077871
0.0010064549
0.0010052881
0.0010043549
0.0010038095
0.0010035793
0.0010041871
2.7946315e-07
8.341116e-06
1.6313881e-05
1.7904649e-05
1.3034759e-05
1.3695065e-05
1.0555549e-05
1.2507424e-05
1.1382445e-05
1.4023102e-05
1.3928139e-05
1.4638327e-05
1.4276516e-05
1.3990006e-05
1.3741179e-05
1.3562419e-05
1.3457426e-05
1.3418372e-05
1.3443002e-05
1.3525713e-05
1.3665781e-05
1.3864124e-05
1.4120126e-05
1.4435282e-05
1.4810517e-05
1.5250981e-05
1.5761593e-05
1.6350517e-05
1.7028425e-05
1.7809761e-05
1.8709242e-05
1.9743505e-05
2.0935273e-05
2.2311816e-05
2.39083e-05
2.5767107e-05
2.7940573e-05
3.0491911e-05
3.3496416e-05
3.7045466e-05
4.1261774e-05
4.6282129e-05
5.2274704e-05
5.9445954e-05
6.8064638e-05
7.8438407e-05
9.0948743e-05
0.00010606773
0.00012437443
0.00014658324
0.00017356117
0.00020638605
0.00024637811
0.00029516772
0.00035475889
0.0004276204
0.00051680665
0.00062610562
0.00076021404
0.00092494773
0.0010156002
0.0010154243
0.0010152501
0.0010150336
0.0010147724
0.0010144595
0.0010140857
0.0010136322
0.0010130619
0.0010123128
0.0010113117
0.0010099989
0.0010083503
0.0010069283
0.0010057152
0.0010046651
0.001003801
0.0010032781
0.0010032059
0.001003543
2.5280616e-07
8.2695432e-06
1.5805437e-05
1.6944816e-05
1.2932245e-05
1.2107983e-05
1.0608316e-05
1.1530028e-05
1.0964887e-05
1.2523839e-05
1.2826676e-05
1.3071483e-05
1.2807681e-05
1.2489292e-05
1.2269069e-05
1.2105696e-05
1.2011776e-05
1.1978425e-05
1.2003761e-05
1.2082771e-05
1.2214436e-05
1.2400058e-05
1.2639005e-05
1.2856975e-05
1.3198158e-05
1.3601904e-05
1.4072396e-05
1.4617083e-05
1.5245556e-05
1.5971525e-05
1.6809481e-05
1.7775153e-05
1.8890322e-05
2.0180818e-05
2.1680316e-05
2.3429438e-05
2.5478577e-05
2.7889071e-05
3.0734799e-05
3.436058e-05
3.8396725e-05
4.3213345e-05
4.8976715e-05
5.5885906e-05
6.420722e-05
7.4245238e-05
8.6375572e-05
0.0001010644
0.00011888285
0.00014054079
0.00016689558
0.00019901703
0.00023821532
0.00028611131
0.00034470046
0.00041644186
0.00050437953
0.00061229345
0.00074487875
0.00090795143
0.0010150689
0.0010148575
0.0010146436
0.0010143894
0.0010140897
0.0010137368
0.0010133205
0.0010128209
0.0010121998
0.0010113943
0.0010103308
0.0010089835
0.0010074044
0.0010061028
0.0010050081
0.0010040707
0.0010032767
0.0010027831
0.0010028342
0.001002976
2.2809996e-07
8.2298452e-06
1.5370121e-05
1.541903e-05
1.184086e-05
1.0556273e-05
9.16344e-06
1.0293639e-05
9.6270511e-06
1.1260593e-05
1.1714134e-05
1.1628655e-05
1.1403047e-05
1.1093111e-05
1.0896522e-05
1.0753053e-05
1.0672701e-05
1.0647988e-05
1.0612137e-05
1.0674753e-05
1.079008e-05
1.0958445e-05
1.1177597e-05
1.1447757e-05
1.1773028e-05
1.2156398e-05
1.2602334e-05
1.3118219e-05
1.3713101e-05
1.440026e-05
1.5194383e-05
1.6110709e-05
1.7170567e-05
1.8398867e-05
1.9828401e-05
2.1498665e-05
2.3458866e-05
2.5769168e-05
2.850292e-05
3.1749369e-05
3.5617235e-05
4.0244135e-05
4.5796289e-05
5.2909406e-05
6.1013907e-05
7.0811476e-05
8.2675106e-05
9.7068331e-05
0.00011455768
0.00013585411
0.00016181092
0.00019349707
0.00023222111
0.00027960407
0.00033764499
0.00040880823
0.00049614482
0.000603447
0.00073543341
0.00089795617
0.0010145625
0.0010143126
0.0010140552
0.0010137599
0.0010134189
0.001013023
0.0010125613
0.0010120121
0.0010113359
0.0010104724
0.0010093493
0.0010079552
0.0010065017
0.0010053185
0.0010043396
0.0010035104
0.0010027902
0.0010023266
0.0010024259
0.0010024319
2.10334e-07
8.188149e-06
1.4915995e-05
1.3501779e-05
9.7338005e-06
9.3853613e-06
7.5539981e-06
8.7810754e-06
8.9666206e-06
1.0126941e-05
1.0582633e-05
1.0283828e-05
1.0076329e-05
9.7982683e-06
9.6258937e-06
9.4381068e-06
9.3484596e-06
9.3193125e-06
9.3433317e-06
9.4176551e-06
9.5381742e-06
9.7064521e-06
9.9214258e-06
1.0183062e-05
1.0495483e-05
1.0862573e-05
1.1288845e-05
1.1781715e-05
1.234986e-05
1.3006113e-05
1.3765444e-05
1.4642835e-05
1.5659442e-05
1.6839531e-05
1.8215342e-05
1.9825685e-05
2.171904e-05
2.395491e-05
2.6605979e-05
2.9760624e-05
3.3527811e-05
3.8043027e-05
4.3475095e-05
5.0019504e-05
5.7926841e-05
6.7508589e-05
7.9837515e-05
9.4068765e-05
0.00011138728
0.00013251046
0.0001582935
0.00018981169
0.00022838054
0.00027563109
0.00033357825
0.00040470692
0.00049209309
0.00059956184
0.00073187965
0.00089496899
0.0010140759
0.0010137844
0.0010134805
0.001013141
0.0010127562
0.001012315
0.0010118054
0.0010112045
0.0010104702
0.0010095474
0.0010083777
0.001006946
0.0010056482
0.0010045825
0.0010037145
0.001002988
0.0010023453
0.0010019154
0.0010019928
0.0010019359
1.9335891e-07
8.146716e-06
1.338613e-05
1.1763351e-05
7.8699782e-06
8.3422983e-06
6.7210599e-06
7.922051e-06
8.2983434e-06
9.054675e-06
9.4612317e-06
9.055798e-06
8.8545695e-06
8.5300507e-06
8.3486679e-06
8.2307096e-06
8.1734212e-06
8.1682672e-06
8.209226e-06
8.2930994e-06
8.4206879e-06
8.5892922e-06
8.8012493e-06
9.0565353e-06
9.3594805e-06
9.7143576e-06
1.0125835e-05
1.0601482e-05
1.1149741e-05
1.1783027e-05
1.2516648e-05
1.3365624e-05
1.4351159e-05
1.5497146e-05
1.6835585e-05
1.8404992e-05
2.0253545e-05
2.2440605e-05
2.503909e-05
2.8137702e-05
3.1845389e-05
3.629713e-05
4.1664728e-05
4.814362e-05
5.5986489e-05
6.550667e-05
7.709011e-05
9.1189147e-05
0.00010936828
0.00013050811
0.00015634439
0.00018796586
0.00022670417
0.00027421078
0.00033252933
0.0004041814
0.00049228721
0.0006007269
0.00073433996
0.00089915235
0.0010136034
0.0010132674
0.0010129143
0.0010125282
0.0010120976
0.0010116091
0.0010110495
0.0010103959
0.0010096036
0.0010086191
0.0010074162
0.0010060106
0.0010048487
0.0010038994
0.0010031358
0.0010025056
0.0010019433
0.0010015513
0.0010015922
0.0010014889
1.7837217e-07
8.1003905e-06
1.063142e-05
9.7563902e-06
6.4650233e-06
7.4264873e-06
6.1244054e-06
7.1152102e-06
7.7574183e-06
8.079875e-06
8.3603692e-06
7.8519152e-06
7.6044534e-06
7.376896e-06
7.2411499e-06
7.1607571e-06
7.1309253e-06
7.1465696e-06
7.2022504e-06
7.297242e-06
7.4288604e-06
7.5994561e-06
7.8103967e-06
8.0621425e-06
8.3591147e-06
8.706018e-06
9.1077844e-06
9.5721926e-06
1.0107644e-05
1.0726207e-05
1.1384747e-05
1.2206276e-05
1.3162378e-05
1.4276549e-05
1.5580539e-05
1.7112603e-05
1.8920686e-05
2.106406e-05
2.3615995e-05
2.6665793e-05
3.0323399e-05
3.4997479e-05
4.0356783e-05
4.6837811e-05
5.4695481e-05
6.4246194e-05
7.5886704e-05
9.0079885e-05
0.00010740923
0.00012860158
0.000155961
0.00018796135
0.00022719995
0.00027535957
0.00033452614
0.0004072752
0.00049679173
0.00060703527
0.00074294508
0.00091068256
0.0010131394
0.0010127561
0.0010123516
0.0010119166
0.0010114384
0.0010109015
0.0010102904
0.0010095833
0.0010087357
0.0010076909
0.001006448
0.0010051436
0.0010041094
0.0010032723
0.001002606
0.001002065
0.0010015855
0.0010012317
0.0010012202
0.00100105
1.651631e-07
8.0530695e-06
8.3864076e-06
8.3032294e-06
5.6877364e-06
6.5749029e-06
5.6200273e-06
6.4092606e-06
7.2048431e-06
7.1684739e-06
7.167045e-06
6.7346067e-06
6.5316068e-06
6.3628731e-06
6.2659611e-06
6.2169306e-06
6.2111195e-06
6.2444581e-06
6.3134385e-06
6.417746e-06
6.5561102e-06
6.7301444e-06
6.9423525e-06
7.193653e-06
7.4885505e-06
7.7983166e-06
8.1887925e-06
8.6412352e-06
9.1639116e-06
9.7684527e-06
1.0468863e-05
1.1283379e-05
1.2232535e-05
1.3339892e-05
1.4637499e-05
1.6164004e-05
1.7967938e-05
2.0109346e-05
2.2662963e-05
2.5719979e-05
2.9392932e-05
3.3822428e-05
3.9180653e-05
4.5673926e-05
5.3561377e-05
6.3714209e-05
7.5524182e-05
8.9943966e-05
0.00010756742
0.0001291441
0.00015558888
0.00018979985
0.00022987752
0.00027909789
0.00033960341
0.00041404219
0.00050568632
0.00061860155
0.00075785701
0.00092978004
0.0010126784
0.0010122451
0.0010117876
0.0010113014
0.0010107738
0.0010101878
0.0010095251
0.0010087635
0.0010078631
0.0010067702
0.0010054843
0.0010043479
0.0010034339
0.0010027037
0.0010021274
0.0010016672
0.0010012685
0.001000955
0.0010008837
0.0010007613
1.5332411e-07
7.9951603e-06
6.6682773e-06
7.2835743e-06
5.06529e-06
5.8140188e-06
5.185504e-06
5.7820767e-06
6.5473524e-06
6.1344231e-06
6.089836e-06
5.7563359e-06
5.5943146e-06
5.4731544e-06
5.4095177e-06
5.3874796e-06
5.4027458e-06
5.4528415e-06
5.5348689e-06
5.6492745e-06
5.7953444e-06
5.975001e-06
6.1648353e-06
6.4132556e-06
6.704897e-06
7.0438685e-06
7.4371429e-06
7.8921729e-06
8.4174408e-06
9.0247757e-06
9.7283287e-06
1.0546111e-05
1.1499887e-05
1.2613577e-05
1.3919769e-05
1.5457868e-05
1.7277511e-05
1.944002e-05
2.2022283e-05
2.511838e-05
2.8843644e-05
3.3341793e-05
3.8793842e-05
4.5411267e-05
5.3461265e-05
6.3276133e-05
7.5268576e-05
8.9937158e-05
0.00010884589
0.00013099971
0.00015817303
0.00019153386
0.0002347405
0.00028544081
0.00034779103
0.00042453217
0.0005190478
0.00063553896
0.00077924029
0.00095667624
0.0010122154
0.0010117297
0.0010112182
0.0010106787
0.0010100998
0.001009464
0.0010087509
0.0010079357
0.0010069822
0.0010058621
0.00100462
0.0010036246
0.001002825
0.0010021953
0.0010017026
0.0010013135
0.0010009881
0.001000722
0.0010006054
0.0010004951
1.4276102e-07
7.923793e-06
5.3452749e-06
6.3583783e-06
4.5103935e-06
5.1360901e-06
4.813556e-06
5.1423571e-06
5.723009e-06
5.2356409e-06
5.1442239e-06
4.8997479e-06
4.776291e-06
4.6948671e-06
4.6607531e-06
4.6630519e-06
4.6980487e-06
4.7642896e-06
4.8596988e-06
4.9663857e-06
5.1160621e-06
5.2991769e-06
5.517961e-06
5.7753342e-06
6.0755163e-06
6.4229993e-06
6.8246803e-06
7.2886392e-06
7.8235818e-06
8.4414973e-06
9.1566579e-06
9.9872982e-06
1.0905993e-05
1.2026937e-05
1.3342568e-05
1.4893019e-05
1.6729244e-05
1.8913899e-05
2.1526081e-05
2.4663272e-05
2.8444619e-05
3.3268892e-05
3.8866695e-05
4.567123e-05
5.3958899e-05
6.4071548e-05
7.6441796e-05
9.1590517e-05
0.00011015539
0.00013414784
0.00016228576
0.00019685258
0.00023933963
0.00029438973
0.00035910465
0.00043877926
0.00053693634
0.00065794278
0.00080724062
0.00099158971
0.0010117455
0.0010112059
0.0010106402
0.0010100461
0.001009414
0.0010087276
0.0010079656
0.0010071017
0.0010060994
0.0010049511
0.0010038499
0.0010029773
0.0010022848
0.0010017482
0.0010013335
0.0010010067
0.0010007419
0.0010005236
0.0010003832
0.0010002527
1.3333614e-07
7.7926892e-06
4.3358119e-06
5.5344899e-06
4.0139843e-06
4.531932e-06
4.4863659e-06
4.4470598e-06
4.8925333e-06
4.433674e-06
4.3241921e-06
4.1529921e-06
4.0662152e-06
4.0191554e-06
4.0118831e-06
4.0366946e-06
4.0905838e-06
4.1562101e-06
4.2600958e-06
4.3938406e-06
4.5582824e-06
4.7549204e-06
4.9866724e-06
5.2566644e-06
5.5696824e-06
5.9304839e-06
6.3460326e-06
6.8042293e-06
7.349606e-06
7.978682e-06
8.705774e-06
9.5491354e-06
1.0531081e-05
1.1679656e-05
1.302831e-05
1.4618488e-05
1.6503443e-05
1.8748185e-05
2.1434944e-05
2.4666144e-05
2.8566413e-05
3.3292821e-05
3.9035315e-05
4.6027899e-05
5.4558905e-05
6.552878e-05
7.8385039e-05
9.4142242e-05
0.00011347002
0.00013719425
0.00016789503
0.00020395362
0.00024829857
0.0003028507
0.00037353003
0.00045678354
0.00055937289
0.00068586293
0.00084194856
0.0010118538
0.0010112645
0.0010106708
0.001010052
0.0010094035
0.0010087172
0.0010079792
0.0010071684
0.0010062607
0.0010052308
0.0010040949
0.0010031638
0.001002408
0.0010018137
0.0010013615
0.0010010193
0.0010007485
0.0010005314
0.0010003566
0.0010002266
0.0010000954
1.2497153e-07
7.468379e-06
3.6397329e-06
4.8029526e-06
3.5713572e-06
3.9958791e-06
3.9751492e-06
3.8173996e-06
4.0936871e-06
3.7246192e-06
3.6212006e-06
3.5084113e-06
3.4560053e-06
3.4392748e-06
3.4565634e-06
3.4894791e-06
3.5554389e-06
3.6502495e-06
3.7731139e-06
3.9242686e-06
4.105179e-06
4.3178643e-06
4.5656626e-06
4.8519877e-06
5.1701728e-06
5.5450443e-06
5.9751263e-06
6.4684725e-06
7.0352116e-06
7.6874064e-06
8.4397493e-06
9.3112379e-06
1.0325109e-05
1.1510481e-05
1.2903129e-05
1.4546032e-05
1.6495317e-05
1.8819083e-05
2.1602979e-05
2.4955583e-05
2.9006582e-05
3.3921065e-05
3.9901513e-05
4.7192605e-05
5.6099238e-05
6.6995548e-05
8.1055586e-05
9.7549943e-05
0.0001177928
0.00014266184
0.00017321423
0.0002127797
0.00025932651
0.00031661564
0.00038714021
0.00047848514
0.00058630815
0.00071926782
0.0008833526
0.001011398
0.0010107685
0.001010123
0.0010094533
0.0010087524
0.0010080129
0.0010072238
0.0010063652
0.0010054149
0.0010043727
0.0010033578
0.0010025571
0.0010019136
0.0010014097
0.001001032
0.0010007558
0.0010005365
0.0010003599
0.0010002238
0.001000116
0.00099999161
1.1774681e-07
7.0623681e-06
3.196497e-06
4.1535997e-06
3.1769849e-06
3.3715605e-06
3.5221328e-06
3.240483e-06
3.3722018e-06
3.1087904e-06
3.0261636e-06
2.9595164e-06
2.9383211e-06
2.9486856e-06
2.9735091e-06
3.0350124e-06
3.1241903e-06
3.2398591e-06
3.382125e-06
3.5519518e-06
3.7513472e-06
3.9826106e-06
4.2412215e-06
4.5444589e-06
4.8914824e-06
5.2879443e-06
5.7406395e-06
6.2579107e-06
6.8500919e-06
7.5300144e-06
8.3128403e-06
9.2183796e-06
1.027093e-05
1.150108e-05
1.2891214e-05
1.4584005e-05
1.6594306e-05
1.8993834e-05
2.2003774e-05
2.550316e-05
2.9736357e-05
3.4876483e-05
4.1139739e-05
4.8784256e-05
5.8130884e-05
6.9576936e-05
8.3609957e-05
0.00010082843
0.00012305751
0.00014924944
0.00018144554
0.0002210417
0.00027231479
0.00033275259
0.00040717888
0.00050373282
0.00061758277
0.00075799801
0.00093129331
0.0010109281
0.0010102561
0.0010095623
0.0010088451
0.0010080957
0.0010073061
0.0010064677
0.0010055662
0.0010045848
0.0010035519
0.0010027112
0.0010020283
0.0010014874
0.0010010681
0.0010007547
0.0010005363
0.0010003637
0.0010002223
0.0010001219
0.0010000412
0.00099994169
1.1191933e-07
6.0876668e-06
2.817422e-06
3.5637284e-06
2.8347682e-06
2.7956003e-06
3.0716027e-06
2.7184462e-06
2.7532565e-06
2.5828689e-06
2.5277372e-06
2.4985039e-06
2.4979612e-06
2.5258135e-06
2.5848372e-06
2.6709953e-06
2.782414e-06
2.918924e-06
3.0813799e-06
3.2711848e-06
3.4855964e-06
3.7356068e-06
4.021308e-06
4.3467324e-06
4.7166974e-06
5.1370469e-06
5.6148877e-06
6.1588866e-06
6.7797022e-06
7.4741794e-06
8.286054e-06
9.223595e-06
1.0312105e-05
1.1583289e-05
1.3076801e-05
1.4842229e-05
1.6940887e-05
1.9449547e-05
2.2463485e-05
2.6100441e-05
3.0506641e-05
3.6120589e-05
4.2706884e-05
5.0754975e-05
6.0602907e-05
7.2671062e-05
8.7476692e-05
0.00010565679
0.00012916976
0.00015684908
0.00019089192
0.0002327752
0.00028708811
0.00035105866
0.00042986957
0.00052700087
0.00065288254
0.00080170833
0.00098539923
0.0010104431
0.0010097285
0.0010089902
0.001008229
0.0010074365
0.0010066023
0.0010057182
0.0010047783
0.0010037863
0.0010028654
0.0010021475
0.0010015722
0.0010011212
0.0010007824
0.0010005244
0.0010003546
0.0010002218
0.0010001093
0.0010000403
0.00099999768
0.00099993598
1.0705252e-07
4.2539392e-06
2.4732044e-06
3.017067e-06
2.4054457e-06
2.3126429e-06
2.6004522e-06
2.2542698e-06
2.23844e-06
2.1401617e-06
2.1153842e-06
2.1113366e-06
2.1386087e-06
2.1966602e-06
2.2814687e-06
2.3907187e-06
2.5237476e-06
2.6810651e-06
2.8613111e-06
3.0705288e-06
3.3097248e-06
3.5817345e-06
3.8900072e-06
4.2387364e-06
4.6329779e-06
5.078822e-06
5.5836597e-06
6.1471915e-06
6.7955177e-06
7.5359315e-06
8.3855374e-06
9.3655809e-06
1.0502841e-05
1.1830954e-05
1.3392092e-05
1.5238831e-05
1.7436536e-05
2.0066557e-05
2.323014e-05
2.7052952e-05
3.1690768e-05
3.7335722e-05
4.4554581e-05
5.304861e-05
6.34503e-05
7.6205088e-05
9.1861646e-05
0.00011109708
0.00013474678
0.00016531091
0.00020137668
0.00024576811
0.00030043324
0.00037122929
0.00045484755
0.00055794288
0.00069169269
0.00084980273
0.0010106966
0.0010099449
0.0010091886
0.0010084098
0.001007608
0.0010067772
0.0010059062
0.0010049849
0.0010040185
0.0010030475
0.0010022792
0.0010016669
0.001001185
0.0010008092
0.0010005432
0.0010003362
0.0010002063
0.0010001073
0.0010000218
0.00099998192
0.00099998212
0.00099996246
1.0188192e-07
3.5091314e-06
2.1153894e-06
2.5145126e-06
2.0536331e-06
1.9089045e-06
2.1179461e-06
1.8477747e-06
1.8200413e-06
1.7764937e-06
1.7779126e-06
1.8046062e-06
1.8633772e-06
1.9479945e-06
2.0560954e-06
2.1868072e-06
2.3403703e-06
2.5159402e-06
2.7182913e-06
2.9485328e-06
3.2091842e-06
3.5032986e-06
3.8345262e-06
4.2072244e-06
4.6266243e-06
5.0990381e-06
5.6258376e-06
6.2262657e-06
6.9076303e-06
7.6842651e-06
8.5742009e-06
9.5999497e-06
1.0789831e-05
1.2179456e-05
1.3813659e-05
1.5748591e-05
1.8053993e-05
2.0816333e-05
2.4143198e-05
2.8167623e-05
3.3054822e-05
3.9291526e-05
4.6625573e-05
5.5598199e-05
6.6594016e-05
8.0084997e-05
9.6653015e-05
0.00011701616
0.000143377
0.00017443703
0.00021266064
0.00025972847
0.00031771351
0.0003928383
0.00048160493
0.00059109918
0.00073325181
0.00090136733
0.0010102141
0.0010094357
0.0010086413
0.0010078261
0.0010069872
0.0010061214
0.001005221
0.001004275
0.0010032976
0.0010024478
0.0010017838
0.0010012639
0.001000863
0.0010005625
0.0010003321
0.0010001851
0.0010000882
0.0010000172
0.00099995892
0.00099994492
0.00099997215
0.00099998654
9.8085829e-08
2.8019513e-06
1.8055812e-06
2.0106058e-06
1.7626732e-06
1.5635198e-06
1.6733254e-06
1.5037303e-06
1.4908706e-06
1.4906528e-06
1.5186984e-06
1.5782757e-06
1.6634903e-06
1.7708724e-06
1.8995066e-06
2.0496066e-06
2.2211096e-06
2.4171389e-06
2.6392584e-06
2.889782e-06
3.1714752e-06
3.4875716e-06
3.8418582e-06
4.2388147e-06
4.68381e-06
5.1797857e-06
5.7399945e-06
6.3718626e-06
7.087371e-06
7.9015535e-06
8.8334931e-06
9.9070392e-06
1.1152223e-05
1.2606761e-05
1.4318107e-05
1.6345958e-05
1.8764973e-05
2.1666859e-05
2.516619e-05
2.94041e-05
3.4782979e-05
4.1114902e-05
4.8851513e-05
5.8324001e-05
6.9938733e-05
8.4196672e-05
0.00010171456
0.00012325411
0.00015110489
0.00018397108
0.00022443619
0.00027428444
0.00033572376
0.00041530814
0.00050944383
0.00062562685
0.00077651631
0.00095513167
0.0010097288
0.0010089215
0.0010080932
0.0010072459
0.0010063747
0.0010054769
0.0010045521
0.0010036061
0.0010026709
0.0010019507
0.0010013784
0.0010009341
0.0010005938
0.0010003631
0.0010001743
0.0010000657
0.00099999696
0.00099994648
0.00099991134
0.0009999241
0.00099997308
0.0010000038
9.5867144e-08
2.1854052e-06
1.536207e-06
1.5314815e-06
1.4944086e-06
1.2683718e-06
1.3118071e-06
1.2293248e-06
1.2439699e-06
1.2744481e-06
1.3357138e-06
1.4211385e-06
1.527694e-06
1.6540476e-06
1.8004479e-06
1.9678982e-06
2.1572417e-06
2.371458e-06
2.6123641e-06
2.8824965e-06
3.1847659e-06
3.5225247e-06
3.8996639e-06
4.3207628e-06
4.7912982e-06
5.3179272e-06
5.9088561e-06
6.5742843e-06
7.3185206e-06
8.1707818e-06
9.1454236e-06
1.0267722e-05
1.1569542e-05
1.3090907e-05
1.4881943e-05
1.7074666e-05
1.9629194e-05
2.2696772e-05
2.6399607e-05
3.0888555e-05
3.6349549e-05
4.3011406e-05
5.1157029e-05
6.1134951e-05
7.3374842e-05
8.8406817e-05
0.00010688386
0.00013074391
0.0001589207
0.00019360465
0.00023632463
0.00028897211
0.0003572399
0.00043791619
0.00053748075
0.00066044947
0.00082014406
0.0010094592
0.0010092502
0.0010084132
0.0010075544
0.0010066784
0.0010057813
0.0010048589
0.0010039103
0.0010029617
0.0010021692
0.0010015407
0.0010010511
0.0010006763
0.0010003924
0.0010001844
0.0010000475
0.00099997446
0.00099992756
0.0009998924
0.0009998738
0.00099990673
0.00099997254
0.0010000144
9.6009215e-08
1.6598271e-06
1.308893e-06
1.1647796e-06
1.2249426e-06
1.0214212e-06
1.0465408e-06
1.026589e-06
1.0695662e-06
1.1293909e-06
1.2146607e-06
1.3196102e-06
1.4431505e-06
1.5854154e-06
1.7474519e-06
1.9307508e-06
2.1368275e-06
2.3682496e-06
2.6271805e-06
2.9162688e-06
3.2385117e-06
3.5973409e-06
3.996734e-06
4.4413724e-06
4.9368615e-06
5.4900268e-06
6.1093116e-06
6.8052741e-06
7.5912071e-06
8.4839242e-06
9.5046856e-06
1.0680429e-05
1.2045117e-05
1.3641479e-05
1.552304e-05
1.7756616e-05
2.0425401e-05
2.3632969e-05
2.7507576e-05
3.2208094e-05
3.7930895e-05
4.4917731e-05
5.3464536e-05
6.3938238e-05
7.6790039e-05
9.3343191e-05
0.0001128982
0.00013694727
0.00016654427
0.00020299287
0.00024790446
0.00030612116
0.00037492449
0.00045982896
0.0005646861
0.00070103545
0.00086252422
0.0010096503
0.0010087887
0.0010079237
0.0010070387
0.0010061366
0.0010052167
0.0010042814
0.0010033411
0.0010024449
0.0010017584
0.0010012108
0.001000786
0.0010004666
0.0010002466
0.0010000708
0.00099995166
0.00099990476
0.00099987427
0.00099985187
0.00099984656
0.00099989238
0.00099997073
0.0010000211
9.9311246e-08
1.2308995e-06
1.1206734e-06
8.9662319e-07
1.0679319e-06
8.1774539e-07
8.6446235e-07
8.89173e-07
9.5487768e-07
1.0377527e-06
1.1403929e-06
1.2603329e-06
1.3979329e-06
1.5541753e-06
1.7305205e-06
1.9286785e-06
2.150593e-06
2.3982852e-06
2.6743831e-06
2.981514e-06
3.3227404e-06
3.7015674e-06
4.1220618e-06
4.5890167e-06
5.1081804e-06
5.6865647e-06
6.3328616e-06
7.0580116e-06
7.8758329e-06
8.803881e-06
9.8643799e-06
1.1085562e-05
1.2503057e-05
1.4161723e-05
1.6117769e-05
1.8441388e-05
2.1219903e-05
2.456165e-05
2.8600719e-05
3.3502826e-05
3.9742007e-05
4.7091102e-05
5.6081181e-05
6.7097782e-05
8.0615349e-05
9.7219054e-05
0.0001176313
0.00014274435
0.00017365778
0.00021371653
0.00026100439
0.00031930551
0.00039123844
0.00048006075
0.00059558471
0.0007323647
0.00090166344
0.0010092297
0.0010083509
0.0010074644
0.0010065603
0.0010056391
0.0010046997
0.0010037465
0.0010028109
0.0010020407
0.00100143
0.0010009523
0.0010005815
0.0010002974
0.0010001068
0.00099997251
0.00099989166
0.00099985072
0.00099983326
0.00099982313
0.00099983257
0.00099989037
0.00099997946
0.0010000311
1.0588104e-07
9.527381e-07
9.5654112e-07
7.5814851e-07
7.6138628e-07
6.9751875e-07
7.4255203e-07
8.0229142e-07
8.8521457e-07
9.8417965e-07
1.099871e-06
1.2321857e-06
1.3821735e-06
1.5511429e-06
1.7406789e-06
1.9525505e-06
2.1887341e-06
2.451431e-06
2.7431059e-06
3.0665318e-06
3.4248558e-06
3.8216873e-06
4.261222e-06
4.7484182e-06
5.2892417e-06
5.8888938e-06
6.5594311e-06
7.310836e-06
8.1647419e-06
9.1280263e-06
1.0228927e-05
1.1497089e-05
1.2969894e-05
1.4694349e-05
1.672931e-05
1.9148179e-05
2.2042204e-05
2.5524509e-05
2.9735024e-05
3.4846599e-05
4.1072525e-05
4.8675854e-05
5.7980718e-05
6.9384781e-05
8.3380185e-05
0.00010057329
0.00012279621
0.00014900812
0.00018127043
0.00022100963
0.00026999287
0.00033041587
0.00040500795
0.00050189453
0.00061669365
0.0007587669
0.0009347956
0.0010088527
0.0010079546
0.0010070469
0.0010061265
0.0010051948
0.0010042536
0.0010033112
0.001002408
0.0010017207
0.0010011731
0.0010007485
0.0010004241
0.0010001866
0.0010000173
0.00099989769
0.00099984261
0.00099981109
0.00099980317
0.00099980478
0.00099982988
0.00099989985
0.00099999454
0.0010000356
1.2039596e-07
9.558432e-07
7.9817097e-07
5.6217396e-07
6.0510953e-07
6.0803413e-07
6.7128911e-07
7.4975401e-07
8.4615368e-07
9.5725009e-07
1.0840208e-06
1.227283e-06
1.3883206e-06
1.5685368e-06
1.7695421e-06
1.9931302e-06
2.2413057e-06
2.5163114e-06
2.820663e-06
3.1571949e-06
3.5291205e-06
3.9401189e-06
4.3944584e-06
4.897173e-06
5.4543139e-06
6.0732933e-06
6.7633419e-06
7.5360965e-06
8.4063452e-06
9.3929204e-06
1.0519773e-05
1.1817321e-05
1.3323978e-05
1.5088059e-05
1.7170044e-05
1.9645331e-05
2.2607598e-05
2.6172888e-05
3.0484626e-05
3.5719799e-05
4.2096678e-05
5.0241663e-05
5.9846025e-05
7.1614249e-05
8.6053837e-05
0.00010378989
0.00012559497
0.00015242445
0.00018546109
0.00022616905
0.00027636928
0.00034144772
0.00041852572
0.0005137901
0.00063166314
0.00077768648
0.00095880644
0.0010085486
0.0010076307
0.0010067003
0.0010057585
0.0010048076
0.0010038542
0.0010029223
0.0010021121
0.0010014792
0.0010009822
0.0010005988
0.0010003067
0.0010001021
0.00099995254
0.0009998303
0.00099981043
0.00099978544
0.00099978602
0.00099979834
0.00099983382
0.00099990241
0.0009999834
0.0010000185
1.1038457e-07
6.166335e-07
6.3293001e-07
4.6557635e-07
5.0777975e-07
5.5335965e-07
6.3170717e-07
7.2376008e-07
8.3080415e-07
9.5217164e-07
1.0889297e-06
1.2421243e-06
1.4130659e-06
1.6032121e-06
1.8142065e-06
2.0478891e-06
2.30632e-06
2.5917726e-06
2.9068747e-06
3.2545111e-06
3.637966e-06
4.0609907e-06
4.5279278e-06
5.0438892e-06
5.6150119e-06
6.2488085e-06
6.954634e-06
7.7442909e-06
8.6398314e-06
9.6495033e-06
1.0802588e-05
1.2130289e-05
1.3671955e-05
1.547704e-05
1.7607391e-05
2.0140071e-05
2.3170769e-05
2.6817992e-05
3.1228207e-05
3.6582165e-05
4.310267e-05
5.1064086e-05
6.0804058e-05
7.2739839e-05
8.7385463e-05
0.00010537593
0.00012749625
0.00015607575
0.00018984783
0.00023145952
0.00028277683
0.0003461197
0.00042438196
0.00052118095
0.00064104946
0.0007896814
0.00097422905
0.0010083407
0.0010074099
0.0010064639
0.0010055059
0.001004539
0.0010035734
0.0010026453
0.0010018983
0.0010013058
0.0010008448
0.0010004911