/*--------------------------------*- C++ -*----------------------------------*\
  =========                 |
  \\      /  F ield         | OpenFOAM: The Open Source CFD Toolbox
   \\    /   O peration     | Website:  https://openfoam.org
    \\  /    A nd           | Version:  12
     \\/     M anipulation  |
\*---------------------------------------------------------------------------*/
FoamFile
{
    format      ascii;
    class       surfaceScalarField;
    location    "0.11";
    object      phi;
}
// * * * * * * * * * * * * * * * * * * * * * * * * * * * * * * * * * * * * * //

dimensions      [1 0 -1 0 0 0 0];

internalField   nonuniform List<scalar> 
31760
(
-0.0006408491
-0.050919013
0.051559369
-0.0016068474
-0.064358332
0.065324136
-0.002603848
-0.062993668
0.063994757
-0.0036264685
-0.06866841
0.069690661
-0.0047039111
-0.070345991
0.071423107
-0.0058098342
-0.074612504
0.075718189
-0.0069862559
-0.077544764
0.07872094
-0.0082016194
-0.081553602
0.082768799
-0.0094776922
-0.085180594
0.086456532
-0.010812668
-0.089301523
0.090636412
-0.012203506
-0.093439686
0.094830484
-0.013661912
-0.097855299
0.099313698
-0.015182545
-0.10243552
0.10395619
-0.01677367
-0.10724235
0.10883354
-0.01843487
-0.11226462
0.11392593
-0.020170905
-0.11751897
0.11925514
-0.02198444
-0.12301347
0.12482718
-0.023878686
-0.12875957
0.13065401
-0.025856884
-0.13476827
0.13674671
-0.027922441
-0.14105086
0.14311669
-0.030078791
-0.14761974
0.14977641
-0.032329703
-0.1544869
0.15673817
-0.034678775
-0.16166593
0.1640154
-0.037129917
-0.16917054
0.17162213
-0.039686105
-0.17701528
0.17957197
-0.042351926
-0.18521427
0.18788064
-0.045131276
-0.19378375
0.19656371
-0.048027584
-0.20274033
0.20563732
-0.05104435
-0.21210096
0.21511848
-0.05418562
-0.22188371
0.22502581
-0.057454706
-0.23210752
0.23537753
-0.060854938
-0.24279221
0.24619346
-0.064389129
-0.25395928
0.2574946
-0.068060327
-0.26562985
0.2693023
-0.071870519
-0.27782803
0.2816396
-0.075821362
-0.29057807
0.29453045
-0.079914182
-0.30390573
0.30800025
-0.084149447
-0.31783871
0.32207586
-0.088526962
-0.332405
0.33678461
-0.093045402
-0.34763606
0.35215681
-0.097702752
-0.36356365
0.36822357
-0.10249558
-0.38022155
0.38501721
-0.10741925
-0.3976458
0.40257261
-0.11246796
-0.41587425
0.42092642
-0.11763396
-0.43494725
0.44011706
-0.12290809
-0.45490639
0.46018473
-0.12827881
-0.47579652
0.48117188
-0.1337332
-0.49766394
0.50312345
-0.13925577
-0.52055862
0.52608682
-0.14482826
-0.54453214
0.55011082
-0.15042966
-0.5696387
0.57524691
-0.15603655
-0.595936
0.60155034
-0.16162161
-0.62348396
0.62907716
-0.16715396
-0.6523456
0.65788686
-0.17259919
-0.68258678
0.68804173
-0.17791747
-0.71427724
0.71960609
-0.1830648
-0.74748908
0.75264787
-0.18799183
-0.78229783
0.78723726
-0.19264228
-0.81878287
0.82344666
-0.19695404
-0.85702664
0.86135271
-0.20085712
-0.89711519
0.90103353
-0.20427372
-0.93913823
0.94257101
-0.20711654
-0.98319019
0.98605005
-0.20928827
-1.0293699
1.0315594
-0.21068009
-1.0777796
1.0791898
-0.21117107
-1.128527
1.1290366
-0.21062492
-1.1817232
1.1811956
-0.20889591
-1.237482
1.235771
-0.20581668
-1.2959263
1.292864
-0.20119926
-1.3571802
1.3525781
-0.19484013
-1.4213701
1.4150243
-0.18651862
-1.4886237
1.4803132
-0.17598217
-1.5590791
1.5485514
-0.16296395
-1.6328787
1.6198674
-0.14712976
-1.7101971
1.6943695
-0.12834652
-1.7911359
1.7723613
-0.10552974
-1.8757924
1.852984
-0.080054876
-1.9650113
1.9395656
-0.048489119
-2.0559731
2.0244139
-2.15563
2.1209264
-0.00063713137
-0.050282092
-0.0015087356
-0.063486845
-0.0024027792
-0.06210116
-0.0033660724
-0.067705098
-0.0043404261
-0.069371613
-0.0053921398
-0.073560755
-0.0064592431
-0.076477623
-0.0076064534
-0.080406344
-0.0087797444
-0.084007242
-0.01002755
-0.088053648
-0.011318591
-0.092148558
-0.012677272
-0.096496521
-0.014093658
-0.10101901
-0.015576827
-0.10575905
-0.017126984
-0.1107143
-0.018748302
-0.11589747
-0.02044298
-0.12131859
-0.022214813
-0.1269875
-0.024067032
-0.13291579
-0.026003239
-0.13911436
-0.028027108
-0.14559554
-0.030141914
-0.15237172
-0.032351777
-0.15945565
-0.034660406
-0.16686145
-0.037072614
-0.17460256
-0.039591235
-0.18269507
-0.042220978
-0.19115337
-0.044965601
-0.19999501
-0.047829405
-0.20923638
-0.050815984
-0.21889627
-0.053929438
-0.22899311
-0.057173124
-0.23954746
-0.060550367
-0.25058086
-0.064064181
-0.26211474
-0.067717015
-0.27417375
-0.071511222
-0.28678227
-0.075447997
-0.29996718
-0.079528876
-0.31375587
-0.083753235
-0.32817846
-0.088120702
-0.34326618
-0.092629709
-0.35905198
-0.097277192
-0.37557112
-0.10205882
-0.39286091
-0.10696956
-0.41095992
-0.11200238
-0.42991047
-0.11714875
-0.44975565
-0.12239849
-0.47054197
-0.12773902
-0.49231812
-0.1331561
-0.5151357
-0.13863324
-0.5390486
-0.14415112
-0.56411378
-0.14968778
-0.59039163
-0.15521806
-0.61794523
-0.16071374
-0.64684069
-0.16614281
-0.67714764
-0.17146903
-0.70894005
-0.17665203
-0.74229419
-0.1816463
-0.7772907
-0.18640058
-0.81401473
-0.19085809
-0.85255427
-0.19495486
-0.89300256
-0.19861958
-0.93545668
-0.2017722
-0.98001984
-0.20432453
-1.0267991
-0.2061769
-1.0759081
-0.20721987
-1.1274645
-0.20732758
-1.1815959
-0.20636446
-1.2384261
-0.20417921
-1.2980936
-0.20060229
-1.3607408
-0.19544846
-1.4265097
-0.18851041
-1.4955498
-0.17956205
-1.5680179
-0.16834848
-1.6440843
-0.15460935
-1.7239283
-0.13804729
-1.8076888
-0.1181815
-1.8956448
-0.095219864
-1.9879448
-0.067439718
-2.0837405
-2.1867272
-0.00057536933
-0.049706812
-0.0013884442
-0.062673687
-0.0022003195
-0.061289568
-0.0031064245
-0.066798893
-0.0040019181
-0.068476065
-0.0049838422
-0.072578745
-0.0059674879
-0.075493906
-0.0070346933
-0.079339052
-0.0081213385
-0.082920508
-0.0092809073
-0.08689398
-0.010480516
-0.090948838
-0.01174423
-0.095232685
-0.01306308
-0.099700022
-0.014445343
-0.10437663
-0.015891697
-0.10926777
-0.01740575
-0.11438322
-0.018990855
-0.11973326
-0.020649975
-0.12532813
-0.022387389
-0.13117809
-0.024205934
-0.1372955
-0.026110105
-0.14369102
-0.02810344
-0.150378
-0.030189826
-0.15736883
-0.032374065
-0.16467673
-0.034659434
-0.17231665
-0.037051161
-0.18030275
-0.039552707
-0.18865116
-0.042169157
-0.19737782
-0.044904078
-0.20650064
-0.047762636
-0.21603681
-0.050747958
-0.22600678
-0.05386439
-0.23642992
-0.057115755
-0.24732826
-0.060504761
-0.25872437
-0.064035018
-0.27064198
-0.067708718
-0.28310689
-0.071528126
-0.29614591
-0.075493786
-0.30978814
-0.079606746
-0.32406322
-0.083866525
-0.33900387
-0.088271377
-0.35464433
-0.092819228
-0.37102018
-0.097506752
-0.38816998
-0.10232854
-0.40613437
-0.10727867
-0.4249562
-0.11234923
-0.44468052
-0.11753107
-0.4653551
-0.12281238
-0.48703128
-0.12818072
-0.50976128
-0.13362056
-0.53360208
-0.13911386
-0.55861316
-0.14464136
-0.58485611
-0.15017991
-0.61239789
-0.15570377
-0.64130723
-0.16118391
-0.67165703
-0.16658758
-0.703525
-0.17187833
-0.73699108
-0.17701413
-0.77214153
-0.18194964
-0.80906483
-0.18663248
-0.84785599
-0.1910053
-0.88861326
-0.19500314
-0.93144136
-0.19855441
-0.97645014
-0.20157824
-1.023756
-0.20398464
-1.0734818
-0.2056723
-1.1257565
-0.20653281
-1.1807151
-0.20643976
-1.2384992
-0.20525309
-1.2992613
-0.20282398
-1.3631527
-0.19897834
-1.4303402
-0.19353385
-1.5009816
-0.18627906
-1.5752623
-0.17698911
-1.6533652
-0.16541921
-1.735489
-0.15127412
-1.8218231
-0.13426037
-1.9126418
-0.11417297
-2.0080057
-0.090098237
-2.1078011
-2.2140858
-0.00051905995
-0.04918789
-0.0012714064
-0.06192131
-0.0020098247
-0.060550854
-0.0028631738
-0.065945513
-0.0036925442
-0.067646687
-0.0046076708
-0.071663582
-0.0055143754
-0.074587158
-0.0065080824
-0.078345283
-0.0075145151
-0.081914003
-0.008593139
-0.085815269
-0.0097086586
-0.089833214
-0.01088538
-0.094055844
-0.012115333
-0.098469928
-0.013405815
-0.10308599
-0.014758507
-0.1079149
-0.016177201
-0.11296433
-0.0176652
-0.11824503
-0.019225904
-0.12376717
-0.020862797
-0.12954091
-0.022580246
-0.13557773
-0.024381434
-0.14188947
-0.026271443
-0.14848758
-0.028254197
-0.15538562
-0.030333703
-0.16259672
-0.032515136
-0.17013466
-0.034802469
-0.1780148
-0.037200761
-0.18625217
-0.039714375
-0.19486344
-0.042348786
-0.20386538
-0.045107371
-0.21327727
-0.047995283
-0.22311782
-0.051016909
-0.23340713
-0.054175961
-0.24416791
-0.057476341
-0.25542255
-0.06092148
-0.26719524
-0.064513854
-0.27951274
-0.068255698
-0.29240211
-0.072148953
-0.30589272
-0.076193995
-0.32001577
-0.080390898
-0.33480431
-0.084739097
-0.3502932
-0.089235958
-0.36652008
-0.093878728
-0.38352363
-0.098663102
-0.40134605
-0.10358322
-0.42003173
-0.10863267
-0.43962629
-0.11380186
-0.46018065
-0.11908196
-0.48174539
-0.12446032
-0.50437658
-0.12992343
-0.52813201
-0.13545579
-0.55307317
-0.14103894
-0.5792646
-0.1466528
-0.60677488
-0.15227468
-0.63567536
-0.15787766
-0.66604317
-0.16343353
-0.6979573
-0.16890893
-0.73150284
-0.17426714
-0.76676946
-0.17946704
-0.80384998
-0.1844623
-0.84284471
-0.18920126
-0.88385721
-0.19362608
-0.92699839
-0.19767256
-0.97238452
-0.20126836
-1.0201402
-0.20433293
-1.0703965
-0.20677824
-1.1232901
-0.20849869
-1.1789734
-0.20938808
-1.237589
-0.20931753
-1.2993121
-0.20815409
-1.3642979
-0.20574414
-1.432734
-0.20191129
-1.5048007
-0.1964783
-1.5806837
-0.18923405
-1.6605992
-0.17995851
-1.7447539
-0.16838994
-1.8333787
-0.15427548
-1.9267362
-0.13732394
-2.02493
-0.11695439
-2.1281545
-2.2375493
-0.0004636643
-0.048724341
-0.0011685136
-0.061216437
-0.0018287632
-0.059890688
-0.002625767
-0.065148471
-0.0033811282
-0.066891289
-0.0042382656
-0.07080639
-0.0050780562
-0.073747308
-0.0060060442
-0.077417219
-0.0069410205
-0.080978939
-0.0079463982
-0.084809792
-0.0089874465
-0.088792048
-0.010087192
-0.092955969
-0.011239802
-0.097317165
-0.01245148
-0.10187415
-0.013724616
-0.10664157
-0.015062333
-0.11162639
-0.016468396
-0.11683872
-0.017946599
-0.1222887
-0.019500646
-0.12798655
-0.021134589
-0.13394344
-0.022853155
-0.14017052
-0.024659713
-0.1466806
-0.026559797
-0.15348506
-0.028558017
-0.16059797
-0.030658916
-0.16803316
-0.032867802
-0.17580525
-0.03518991
-0.18392933
-0.037630211
-0.19242232
-0.040193665
-0.20130102
-0.042885512
-0.21058441
-0.045710666
-0.22029154
-0.048673646
-0.2304429
-0.051778852
-0.24106133
-0.05503069
-0.25216918
-0.05843237
-0.26379186
-0.061987034
-0.2759562
-0.065697241
-0.28868982
-0.069564953
-0.3020227
-0.073590986
-0.31598719
-0.077775794
-0.33061669
-0.0821184
-0.34594748
-0.086617699
-0.36201735
-0.091270477
-0.37886708
-0.096073126
-0.39653924
-0.10102126
-0.41507902
-0.10610798
-0.43453454
-0.11132616
-0.45495696
-0.11666675
-0.47639874
-0.12211913
-0.49891755
-0.12767186
-0.522572
-0.13331055
-0.5474265
-0.13901986
-0.57354656
-0.14478185
-0.60100336
-0.15057628
-0.62987054
-0.15638087
-0.66022726
-0.16216988
-0.69215599
-0.16791414
-0.72574525
-0.17358229
-0.7610869
-0.17913765
-0.79827911
-0.18454019
-0.83742555
-0.18974406
-0.8786356
-0.19469866
-0.92202496
-0.19934695
-0.96771638
-0.20362566
-1.0158407
-0.20746378
-1.0665369
-0.21078057
-1.1199513
-0.21349054
-1.1762414
-0.21548761
-1.2355703
-0.21667078
-1.2981082
-0.21690625
-1.3640431
-0.21606555
-1.4335574
-0.21399473
-1.5068565
-0.21052711
-1.5841383
-0.20548032
-1.6656339
-0.19865077
-1.7515709
-0.18980751
-1.8422063
-0.17872754
-1.9377926
-0.16511837
-2.03851
-0.1485571
-2.1446956
-2.2569345
-0.00041375815
-0.04831068
-0.0010774447
-0.060552717
-0.0016750178
-0.059293113
-0.0024136924
-0.064409752
-0.0030927971
-0.066212139
-0.0038982222
-0.070000905
-0.0046710003
-0.072974462
-0.0055391497
-0.076548988
-0.0064104775
-0.080107517
-0.0073538571
-0.083866307
-0.0083343163
-0.087811465
-0.0093714362
-0.091918711
-0.010461633
-0.096226808
-0.011609588
-0.10072601
-0.012818128
-0.10543282
-0.014091126
-0.11035317
-0.015432088
-0.1154975
-0.016844902
-0.12087559
-0.018334073
-0.12649706
-0.019903608
-0.13237354
-0.021558612
-0.1385151
-0.023303914
-0.14493484
-0.02514467
-0.15164379
-0.027086002
-0.15865607
-0.029133542
-0.16598499
-0.03129312
-0.17364497
-0.033569492
-0.18165217
-0.035968984
-0.19002196
-0.038496919
-0.19877211
-0.041158702
-0.20792155
-0.04395995
-0.21748909
-0.046905268
-0.22749625
-0.050000084
-0.23796503
-0.053247731
-0.24891989
-0.056652757
-0.26038502
-0.060218542
-0.27238841
-0.063947337
-0.2849588
-0.067841187
-0.29812639
-0.071901706
-0.31192396
-0.076129033
-0.32638637
-0.080523144
-0.34155007
-0.085082125
-0.35745473
-0.089804341
-0.37414086
-0.094686648
-0.39165254
-0.099724085
-0.41003676
-0.10491168
-0.42934164
-0.11024381
-0.44961901
-0.11571173
-0.47092445
-0.12130762
-0.49331468
-0.12702021
-0.51685177
-0.13283901
-0.54159934
-0.13875017
-0.56762628
-0.14473877
-0.5950048
-0.15078784
-0.62381062
-0.15687815
-0.65412515
-0.16298802
-0.68603331
-0.1690938
-0.71962562
-0.17516744
-0.7549983
-0.18117846
-0.792252
-0.18709179
-0.83149497
-0.19286919
-0.87283981
-0.19846661
-0.91640802
-0.20383523
-0.96232719
-0.20891995
-1.0107345
-0.21365907
-1.0617755
-0.21798326
-1.1156044
-0.221815
-1.1723868
-0.22506985
-1.2322929
-0.22764539
-1.295511
-0.22944024
-1.362228
-0.23032958
-1.4326495
-0.23018188
-1.5069876
-0.22885025
-1.585455
-0.22617113
-1.6682987
-0.22196409
-1.7557627
-0.21602943
-1.8481218
-0.20815612
-1.9456385
-0.19809518
-2.0485393
-0.18550477
-2.1572603
-2.2720302
-0.0003711792
-0.047939585
-0.001003856
-0.059920005
-0.001546451
-0.05875051
-0.0022375412
-0.063718616
-0.0028569917
-0.065592647
-0.0036142793
-0.069243553
-0.0043308884
-0.072257777
-0.0051374762
-0.075742316
-0.0059668282
-0.079278064
-0.0068637418
-0.082969279
-0.0077978297
-0.086877243
-0.0087849999
-0.090931391
-0.0098248837
-0.095186751
-0.010921537
-0.099629168
-0.012079015
-0.10427513
-0.013300817
-0.10913112
-0.014591808
-0.11420623
-0.015956097
-0.11951099
-0.017398491
-0.12505431
-0.018924404
-0.13084724
-0.020538448
-0.13690062
-0.022246849
-0.14322595
-0.024054833
-0.14983526
-0.025968113
-0.15674218
-0.027993062
-0.16395936
-0.030135343
-0.17150193
-0.032401867
-0.1793848
-0.034798219
-0.18762466
-0.037330158
-0.19623912
-0.040004326
-0.20524622
-0.042825761
-0.21466637
-0.045800091
-0.22452049
-0.048932033
-0.23483151
-0.052226752
-0.24562342
-0.055687353
-0.25692248
-0.059317558
-0.26875605
-0.063120538
-0.28115345
-0.067098035
-0.29414627
-0.071251236
-0.30776787
-0.075580854
-0.32205356
-0.080086915
-0.3370405
-0.084768236
-0.35276955
-0.089623335
-0.36928152
-0.094649131
-0.38662209
-0.099842791
-0.40483799
-0.10519986
-0.42397897
-0.11071496
-0.44409778
-0.11638269
-0.46525
-0.12219518
-0.48749484
-0.12814512
-0.51089381
-0.13422257
-0.53551313
-0.14041729
-0.561422
-0.14671769
-0.58869399
-0.15310973
-0.61740725
-0.15957836
-0.64764422
-0.16610581
-0.67949253
-0.17267283
-0.71304418
-0.17925698
-0.7483986
-0.18583289
-0.78565938
-0.19237246
-0.82493752
-0.19884293
-0.86635027
-0.20520837
-0.91002237
-0.21142747
-0.95608677
-0.21745431
-1.0046853
-0.22323701
-1.0559697
-0.22871652
-1.1101013
-0.23382713
-1.1672525
-0.23849581
-1.2276009
-0.24263687
-1.2913473
-0.24615753
-1.358686
-0.248958
-1.4298292
-0.25091961
-1.5050077
-0.25191261
-1.5844448
-0.25180167
-1.6683926
-0.25042299
-1.7571229
-0.24760108
-1.8509203
-0.24315437
-1.950053
-0.23685964
-2.0547992
-0.22844796
-2.1656398
-2.2825808
-0.00032787988
-0.047611775
-0.00093479635
-0.059313047
-0.0014278907
-0.0582574
-0.0020728219
-0.063073634
-0.0026478638
-0.065017552
-0.0033769531
-0.068514392
-0.0040602866
-0.071574362
-0.0048515758
-0.074950934
-0.005641026
-0.078488499
-0.0064914835
-0.082118694
-0.0073829294
-0.085985648
-0.0083268109
-0.089987345
-0.0093256402
-0.094187731
-0.010382866
-0.098571732
-0.01150293
-0.10315482
-0.012690425
-0.10794336
-0.013949311
-0.11294704
-0.015285582
-0.11817438
-0.016704073
-0.12363544
-0.018210474
-0.12934041
-0.019810633
-0.13529999
-0.021510569
-0.14152548
-0.023316603
-0.14802863
-0.025235997
-0.15482212
-0.027274237
-0.16192038
-0.029438833
-0.16933651
-0.031735945
-0.17708678
-0.03417243
-0.18518716
-0.036754822
-0.1936556
-0.039489208
-0.20251058
-0.042381347
-0.21177284
-0.045437011
-0.22146329
-0.048661359
-0.23160545
-0.052058477
-0.24222441
-0.055632642
-0.25334622
-0.059387399
-0.26499899
-0.063324974
-0.27721332
-0.06744768
-0.29002076
-0.071756914
-0.30345554
-0.076253317
-0.31755376
-0.080936807
-0.33235327
-0.085807464
-0.34789479
-0.090863295
-0.36422118
-0.096102837
-0.3813776
-0.1015237
-0.39941171
-0.10712267
-0.41837408
-0.11289627
-0.43831771
-0.11884028
-0.4592989
-0.12494964
-0.48137775
-0.13121865
-0.50461636
-0.13764104
-0.52908154
-0.14420879
-0.55484423
-0.15091359
-0.58197829
-0.15774542
-0.61056358
-0.16469324
-0.64068355
-0.1717443
-0.67242756
-0.17888338
-0.70589009
-0.18609373
-0.74117208
-0.19335611
-0.77837964
-0.20064829
-0.81762678
-0.20794498
-0.85903381
-0.21521742
-0.90272898
-0.2224326
-0.94884951
-0.22955379
-0.99754107
-0.23653828
-1.0489613
-0.24333895
-1.1032762
-0.24990123
-1.1606656
-0.25616264
-1.2213151
-0.26205561
-1.2854308
-0.2675055
-1.3532135
-0.27241616
-1.4248973
-0.27669834
-1.5007053
-0.28023693
-1.5808864
-0.28291534
-1.6656939
-0.28459853
-1.7554171
-0.28513758
-1.8503527
-0.28436803
-1.9507847
-0.28209312
-2.0570349
-0.278116
-2.1695776
-2.288297
-0.0002856997
-0.047326131
-0.00087323158
-0.058725469
-0.0013252359
-0.057805369
-0.0019466214
-0.062452189
-0.0024987469
-0.064465363
-0.0032061507
-0.067806909
-0.0038614658
-0.070918953
-0.0046281868
-0.074184097
-0.0053871611
-0.077729397
-0.006204952
-0.081300762
-0.0070690646
-0.085121372
-0.0079862184
-0.089070011
-0.0089612769
-0.093212464
-0.0099976719
-0.097535107
-0.011100472
-0.10205176
-0.012274515
-0.10676902
-0.013525467
-0.11169576
-0.014858752
-0.11684073
-0.016280381
-0.12221339
-0.017797142
-0.12782319
-0.019415078
-0.13368153
-0.021141736
-0.13979825
-0.022983497
-0.14618623
-0.024947768
-0.15285713
-0.027042144
-0.1598252
-0.029273425
-0.16710434
-0.031649156
-0.17471005
-0.034176219
-0.182659
-0.036861067
-0.19096953
-0.039710521
-0.19965977
-0.042730656
-0.2087512
-0.045926543
-0.21826574
-0.049303079
-0.22822707
-0.052865089
-0.23866036
-0.056616274
-0.24959279
-0.060559428
-0.26105336
-0.06469748
-0.27307254
-0.069032351
-0.28568288
-0.073565147
-0.29891944
-0.078297021
-0.31281825
-0.083228052
-0.32741825
-0.088358003
-0.34276047
-0.093686689
-0.35888771
-0.099213553
-0.3758455
-0.10493701
-0.39368251
-0.11085574
-0.41244908
-0.11696778
-0.43219882
-0.12327105
-0.45298817
-0.12976314
-0.4748775
-0.13644065
-0.49792997
-0.14330038
-0.52221214
-0.15033816
-0.54779593
-0.15754883
-0.57475619
-0.16492698
-0.60317303
-0.17246548
-0.63313163
-0.18015641
-0.66472212
-0.18798963
-0.69804122
-0.19595464
-0.73319024
-0.20403767
-0.77027857
-0.21222312
-0.80942207
-0.22049322
-0.8507432
-0.22882688
-0.8943736
-0.23719992
-0.9404536
-0.24558384
-0.98913323
-0.25394749
-1.0405729
-0.26225355
-1.0949448
-0.27046104
-1.1524325
-0.27851942
-1.2132314
-0.286376
-1.2775494
-0.29396483
-1.3456008
-0.30121949
-1.4176196
-0.30805875
-1.4938436
-0.3143939
-1.5745286
-0.32012239
-1.6599414
-0.3251358
-1.7503766
-0.32931242
-1.8461419
-0.33251045
-1.9475428
-0.33456838
-2.0549326
-0.33531924
-2.1687793
-2.2888657
-0.00024733916
-0.047078833
-0.00082362214
-0.058149131
-0.0012455755
-0.057383379
-0.0018921316
-0.061805564
-0.0024291315
-0.063928289
-0.0031111482
-0.067124797
-0.0037433851
-0.070286608
-0.0044679506
-0.073459417
-0.0052134172
-0.076983789
-0.0060154388
-0.080498584
-0.0068695318
-0.084267097
-0.0077785275
-0.088160815
-0.0087495467
-0.092241215
-0.0097865312
-0.096497868
-0.010895235
-0.10094276
-0.01208143
-0.10558251
-0.013351355
-0.11042547
-0.01471171
-0.11547997
-0.01616929
-0.12075536
-0.017730821
-0.12626115
-0.019404932
-0.13200685
-0.021198088
-0.13800446
-0.023119162
-0.14426445
-0.025175445
-0.15080007
-0.02737477
-0.157625
-0.029725239
-0.1647529
-0.03223425
-0.17219996
-0.034908776
-0.17998327
-0.037756213
-0.18812076
-0.040782535
-0.19663198
-0.043993328
-0.20553878
-0.047394242
-0.21486302
-0.050989702
-0.22462962
-0.05478391
-0.23486396
-0.058780155
-0.24559413
-0.062981263
-0.25684959
-0.067389486
-0.26866139
-0.072006552
-0.2810626
-0.076834234
-0.29408823
-0.081873239
-0.30777537
-0.087124511
-0.32216274
-0.092588851
-0.33729148
-0.098266761
-0.35320471
-0.10415828
-0.36994842
-0.11026426
-0.38757046
-0.11658525
-0.40612147
-0.12312123
-0.42565561
-0.12987269
-0.44622883
-0.13683985
-0.46790176
-0.14402296
-0.49073751
-0.15142134
-0.5148036
-0.15903526
-0.54017097
-0.16686332
-0.56691615
-0.17490408
-0.59511929
-0.18315559
-0.62486608
-0.19161462
-0.65624793
-0.20027734
-0.68936218
-0.20913809
-0.72431196
-0.21819031
-0.76120758
-0.22742549
-0.80016686
-0.23683247
-0.84131493
-0.24639882
-0.88478472
-0.2561089
-0.9307198
-0.26594463
-0.97927267
-0.27588402
-1.0306077
-0.28590172
-1.0849007
-0.29596769
-1.1423398
-0.30604819
-1.2031243
-0.31610091
-1.2674705
-0.32608045
-1.3355957
-0.33593596
-1.4077391
-0.34559902
-1.4841555
-0.3550049
-1.5650968
-0.36407459
-1.6508436
-0.37272391
-1.7416951
-0.38085085
-1.8379745
-0.38834884
-1.9399947
-0.39507915
-2.0481519
-0.40092105
-2.1628807
-2.2839326
-0.00021339231
-0.046865469
-0.00079029751
-0.057572164
-0.0011893277
-0.056984301
-0.0018523367
-0.06114247
-0.002367057
-0.063413482
-0.003040153
-0.066451596
-0.0036658318
-0.069660809
-0.0043854222
-0.07273969
-0.0051333534
-0.076235702
-0.0059355269
-0.079696238
-0.0067971382
-0.083405286
-0.0077183341
-0.0872394
-0.0087075833
-0.091251713
-0.0097697148
-0.095435458
-0.010911396
-0.099800765
-0.012139354
-0.1043542
-0.013460764
-0.10910366
-0.014882973
-0.11405732
-0.016414411
-0.11922342
-0.018063013
-0.124612
-0.019837047
-0.1302322
-0.021745438
-0.13609538
-0.023796326
-0.14221279
-0.025998426
-0.14859711
-0.028360454
-0.15526202
-0.030889814
-0.16222248
-0.033594342
-0.16949426
-0.036481332
-0.17709498
-0.039557542
-0.18504311
-0.042828208
-0.19335972
-0.04629976
-0.20206547
-0.049976052
-0.21118479
-0.053861864
-0.22074167
-0.057959971
-0.2307635
-0.06227319
-0.24127832
-0.066804453
-0.25231548
-0.071555683
-0.26390703
-0.076528408
-0.27608644
-0.081724366
-0.28888851
-0.087145363
-0.30235026
-0.092792915
-0.31651068
-0.098668817
-0.33141065
-0.10477474
-0.3470934
-0.11111328
-0.363604
-0.11768679
-0.38099053
-0.12449764
-0.39930361
-0.1315495
-0.41859613
-0.13884487
-0.43892517
-0.14638775
-0.46034985
-0.1541815
-0.48293394
-0.16222997
-0.50674446
-0.17053608
-0.53185328
-0.17910369
-0.55833599
-0.18793614
-0.58627326
-0.19703596
-0.61575157
-0.20640559
-0.64686246
-0.21604706
-0.67970367
-0.225961
-0.71437974
-0.2361473
-0.75100173
-0.24660437
-0.78968894
-0.25733025
-0.83056691
-0.2683197
-0.87377185
-0.27956662
-0.91944823
-0.2910626
-0.9677509
-0.30279669
-1.0188469
-0.31475526
-1.0729146
-0.32692162
-1.1301456
-0.33927313
-1.1907448
-0.35178741
-1.2549284
-0.36443284
-1.3229228
-0.37716941
-1.3949751
-0.38996288
-1.471334
-0.40275608
-1.5522738
-0.4154936
-1.6380733
-0.4281127
-1.7290381
-0.44055137
-1.8254889
-0.45271562
-1.9277738
-0.46450727
-2.0363034
-0.47583888
-2.1514829
-2.273081
-0.00019204131
-0.046673441
-0.00078828341
-0.056975852
-0.0011834794
-0.056589045
-0.0018381831
-0.060487676
-0.0023456383
-0.062905928
-0.0030243015
-0.065772816
-0.0036647318
-0.069020244
-0.004390747
-0.072013525
-0.005160086
-0.075466189
-0.0059833553
-0.078872778
-0.006874175
-0.082514246
-0.007831776
-0.086281557
-0.0088657143
-0.090217497
-0.0099820669
-0.094318799
-0.011188547
-0.098593936
-0.012493054
-0.1030493
-0.01390403
-0.10769225
-0.015430321
-0.11253055
-0.017080558
-0.11757264
-0.018864696
-0.12282725
-0.02079154
-0.12830467
-0.02287076
-0.13401541
-0.025111175
-0.13997153
-0.027521884
-0.14618547
-0.030111393
-0.15267147
-0.032887759
-0.15944497
-0.035857978
-0.16652277
-0.039029168
-0.17392238
-0.042406767
-0.18166396
-0.045996751
-0.18976802
-0.049802906
-0.19825742
-0.053829354
-0.20715625
-0.058079383
-0.21648934
-0.062555548
-0.22628481
-0.067260298
-0.2365708
-0.072195842
-0.24737689
-0.077363849
-0.25873569
-0.082766758
-0.27067988
-0.08840649
-0.28324478
-0.094285753
-0.29646662
-0.10040743
-0.31038422
-0.10677488
-0.32503798
-0.11339226
-0.34047033
-0.12026382
-0.35672624
-0.12739441
-0.37385317
-0.13478999
-0.39190067
-0.14245638
-0.41092172
-0.15040022
-0.43097259
-0.15862828
-0.45211231
-0.16714804
-0.47440387
-0.17596706
-0.49791425
-0.18509381
-0.52271439
-0.19453602
-0.54888062
-0.20430204
-0.57649301
-0.21439963
-0.60563861
-0.22483758
-0.63640795
-0.23562306
-0.66890039
-0.24676367
-0.70322005
-0.25826647
-0.73947853
-0.27013794
-0.77779575
-0.28238314
-0.81829864
-0.29500664
-0.86112395
-0.3080116
-0.90641759
-0.32139974
-0.95433588
-0.3351716
-1.0050471
-0.3493255
-1.0587319
-0.36385737
-1.1155843
-0.37876021
-1.1758123
-0.39402762
-1.2396313
-0.40964012
-1.3072804
-0.42558525
-1.3789996
-0.44183471
-1.4550529
-0.45836273
-1.5357118
-0.47513758
-1.6212606
-0.49211724
-1.7120144
-0.50926005
-1.8082922
-0.52650787
-1.9104629
-0.5438019
-2.0189459
-0.56107439
-2.1341349
-2.2558463
-0.00017329481
-0.046500148
-0.00079806557
-0.056351004
-0.0011996244
-0.056187416
-0.0018656964
-0.059821504
-0.0023857929
-0.06238572
-0.0030787481
-0.065079732
-0.0037493584
-0.068349486
-0.0044987155
-0.071264003
-0.0053078614
-0.074656852
-0.0061747548
-0.078005676
-0.0071189812
-0.081569778
-0.0081405117
-0.085259761
-0.0092496588
-0.089108046
-0.010454151
-0.09311397
-0.011763037
-0.097284667
-0.013185663
-0.10162625
-0.014731783
-0.10614565
-0.016411526
-0.11085027
-0.018235175
-0.1157484
-0.020212684
-0.12084908
-0.022354479
-0.12616214
-0.024670183
-0.13169888
-0.027169004
-0.1374718
-0.029860146
-0.14349331
-0.032751397
-0.14977909
-0.035850054
-0.15634506
-0.039163325
-0.16320811
-0.042696069
-0.17038811
-0.046453502
-0.17790484
-0.050439533
-0.18578013
-0.054657562
-0.19403734
-0.059110613
-0.20270096
-0.063800035
-0.21179746
-0.068729054
-0.22135309
-0.073899095
-0.23139779
-0.079312111
-0.24196063
-0.084971002
-0.25307325
-0.090878059
-0.26476895
-0.097037491
-0.27708111
-0.1034531
-0.29004638
-0.11012957
-0.30370271
-0.11707249
-0.31808957
-0.12428859
-0.33324823
-0.13178485
-0.34922345
-0.13956937
-0.36606154
-0.14765116
-0.38381114
-0.1560396
-0.40252486
-0.16474489
-0.42225814
-0.17377827
-0.44306898
-0.18315099
-0.46502034
-0.19287548
-0.48817802
-0.20296365
-0.5126135
-0.21342945
-0.53840105
-0.22428575
-0.56562182
-0.23554691
-0.59436137
-0.24722638
-0.62471117
-0.25933902
-0.65676915
-0.27189889
-0.69064025
-0.28492018
-0.72643594
-0.29841782
-0.76427542
-0.31240509
-0.80428729
-0.32689587
-0.8466077
-0.34190347
-0.89138316
-0.35744044
-0.93877079
-0.37351829
-0.98893995
-0.39014845
-1.0420715
-0.40734114
-1.0983606
-0.42510573
-1.1580161
-0.4434459
-1.2212591
-0.46236724
-1.2883265
-0.48187001
-1.3594633
-0.50195326
-1.4349341
-0.52260879
-1.5150175
-0.54382157
-1.6000044
-0.56558608
-1.6901994
-0.58787836
-1.7859389
-0.61068365
-1.8875876
-0.63396857
-1.9955898
-0.65769026
-2.1103284
-2.2317101
-0.00015915633
-0.04634098
-0.00082587971
-0.055684194
-0.0012408759
-0.055772338
-0.0019367688
-0.0591255
-0.0024869025
-0.061835462
-0.003208402
-0.064358089
-0.0039296616
-0.067628061
-0.00472351
-0.070469973
-0.0055954008
-0.073784751
-0.0065330377
-0.077067808
-0.0075599645
-0.080542585
-0.0086783411
-0.084141091
-0.0098995579
-0.087886494
-0.011233423
-0.091779735
-0.012690525
-0.095827144
-0.014281969
-0.10003434
-0.016018907
-0.10440818
-0.017912603
-0.10895599
-0.019974196
-0.11368615
-0.022214516
-0.11860803
-0.024643685
-0.12373216
-0.027271651
-0.12907001
-0.030107606
-0.13463484
-0.033159086
-0.14044072
-0.036433611
-0.14650334
-0.039937146
-0.15284017
-0.043674549
-0.15946921
-0.047650148
-0.16641086
-0.051867073
-0.1736861
-0.056327666
-0.18131754
-0.061033686
-0.18932914
-0.065987227
-0.19774502
-0.071189748
-0.20659231
-0.07664302
-0.21589694
-0.082349542
-0.22568813
-0.088312005
-0.23599473
-0.0945339
-0.24684761
-0.10102035
-0.2582784
-0.10777576
-0.27032123
-0.11480724
-0.28301003
-0.12212174
-0.2963829
-0.12972863
-0.31047689
-0.1376364
-0.32533416
-0.14585594
-0.34099705
-0.15439928
-0.35751074
-0.16327814
-0.37492416
-0.17250627
-0.39328791
-0.18209819
-0.41265663
-0.19206868
-0.43308807
-0.20243415
-0.45464356
-0.21321094
-0.47738896
-0.22441742
-0.50139372
-0.23607109
-0.52673297
-0.24819118
-0.55348615
-0.26079786
-0.58173788
-0.27391132
-0.6115796
-0.28755233
-0.64310868
-0.30174328
-0.67642844
-0.31650612
-0.71165083
-0.33186302
-0.74889479
-0.34783729
-0.78828782
-0.36445255
-0.82996576
-0.38173226
-0.87407531
-0.39969976
-0.92077376
-0.41838012
-0.97022873
-0.43779737
-1.0226222
-0.45797573
-1.0781492
-0.47893933
-1.1370186
-0.50071031
-1.1994534
-0.52331367
-1.2656874
-0.54676862
-1.335971
-0.57109228
-1.4105705
-0.59630142
-1.4897646
-0.622412
-1.5738446
-0.64943094
-1.6631231
-0.67737062
-1.7579311
-0.70624367
-1.8586379
-0.73607582
-1.9656775
-0.76682409
-2.0794834
-2.2000877
-0.0001510698
-0.046189887
-0.00087871028
-0.05495646
-0.0013122981
-0.055338658
-0.002051933
-0.058385745
-0.0026528574
-0.061234401
-0.0034208096
-0.063589982
-0.0042156923
-0.066832998
-0.0050788175
-0.06960665
-0.0060391005
-0.072824237
-0.0070788141
-0.076027841
-0.0082236118
-0.079397495
-0.00947922
-0.082885161
-0.010858539
-0.086506807
-0.012373425
-0.090264442
-0.014036274
-0.094163833
-0.015859467
-0.098210637
-0.017855338
-0.10241174
-0.020035804
-0.10677488
-0.022412402
-0.11130883
-0.024995902
-0.11602374
-0.027796363
-0.12093081
-0.030822477
-0.12604292
-0.034081864
-0.13137436
-0.037581321
-0.13694006
-0.041325551
-0.14275778
-0.045318899
-0.14884536
-0.049563562
-0.15522294
-0.054061709
-0.16191095
-0.058814757
-0.16893111
-0.063823416
-0.17630676
-0.069088949
-0.18406127
-0.074612211
-0.1922192
-0.080395364
-0.20080637
-0.086440605
-0.20984865
-0.092751789
-0.21937362
-0.09933286
-0.22941003
-0.10619006
-0.23998645
-0.11332961
-0.25113455
-0.12076051
-0.26288564
-0.12849125
-0.27527417
-0.13653358
-0.28833502
-0.14489812
-0.30210629
-0.15359864
-0.31662705
-0.16264959
-0.33193893
-0.17206585
-0.34808669
-0.18186403
-0.36511751
-0.19206174
-0.38308098
-0.20267756
-0.4020308
-0.2137314
-0.42202335