/*--------------------------------*- C++ -*----------------------------------*\
  =========                 |
  \\      /  F ield         | OpenFOAM: The Open Source CFD Toolbox
   \\    /   O peration     | Website:  https://openfoam.org
    \\  /    A nd           | Version:  12
     \\/     M anipulation  |
\*---------------------------------------------------------------------------*/
FoamFile
{
    format      ascii;
    class       volScalarField;
    location    "0.11";
    object      T;
}
// * * * * * * * * * * * * * * * * * * * * * * * * * * * * * * * * * * * * * //

dimensions      [0 0 0 1 0 0 0];

internalField   nonuniform List<scalar> 
16000
(
294.3904
285.9319
289.2099
287.42257
288.5291
288.02253
288.44433
288.33429
288.53093
288.56524
288.68624
288.77126
288.87675
288.97966
289.08851
289.20068
289.31695
289.43723
289.56154
289.68995
289.82242
289.95898
290.09957
290.24416
290.39266
290.545
290.70102
290.8606
291.02354
291.18963
291.35864
291.5303
291.70431
291.88034
292.05806
292.23707
292.417
292.59744
292.77796
292.95814
293.13754
293.31575
293.49233
293.66689
293.83903
294.00841
294.17467
294.33751
294.49667
294.65192
294.80306
294.94995
295.09248
295.23058
295.36424
295.49349
295.61837
295.73901
295.85554
295.96814
296.07704
296.18247
296.28466
296.38385
296.48027
296.57417
296.66577
296.75534
296.84315
296.92956
297.01491
297.09951
297.18365
297.26775
297.35279
297.44009
297.54376
297.61329
297.81564
297.81655
294.08401
285.52684
288.95541
287.06713
288.24111
287.69737
288.15455
288.03509
288.24624
288.28603
288.41406
288.50801
288.6207
288.73248
288.84977
288.97098
289.09646
289.22625
289.36034
289.49876
289.64148
289.78848
289.9397
290.09506
290.25444
290.41772
290.58471
290.75523
290.92905
291.1059
291.28549
291.46749
291.65156
291.83731
292.02434
292.21222
292.40052
292.58879
292.77655
292.96336
293.14876
293.3323
293.51355
293.69212
293.86762
294.03971
294.20808
294.37246
294.53261
294.68835
294.83954
294.98607
295.1279
295.26501
295.39744
295.52524
295.64854
295.76747
295.88222
295.99299
296.10005
296.20364
296.30402
296.40144
296.49615
296.58839
296.67839
296.76639
296.85267
296.93759
297.02152
297.10485
297.18793
297.27112
297.3556
297.44476
297.53964
297.63108
297.7918
297.84414
293.79251
285.15126
288.67795
286.75555
287.96932
287.41547
287.88646
287.77477
287.99086
288.04248
288.17607
288.28061
288.40145
288.52302
288.64993
288.78122
288.91707
289.0575
289.20251
289.35209
289.50617
289.66472
289.82763
289.99478
290.166
290.34113
290.51993
290.70216
290.88752
291.0757
291.26632
291.45901
291.65335
291.84889
292.04517
292.2417
292.43799
292.63354
292.82786
293.02045
293.21083
293.39857
293.58322
293.7644
293.94174
294.11495
294.28374
294.4479
294.60724
294.76165
294.91105
295.05539
295.19468
295.32899
295.4584
295.58303
295.70305
295.81865
295.93005
296.0375
296.14127
296.24166
296.33893
296.43335
296.52519
296.61467
296.70202
296.78747
296.8713
296.95385
297.03553
297.11677
297.19796
297.27956
297.363
297.4512
297.5435
297.64511
297.78632
297.85863
293.5251
284.80779
288.45652
286.4811
287.73114
287.1671
287.65222
287.54993
287.7715
287.8365
287.97667
288.09303
288.22335
288.35592
288.49374
288.63635
288.78377
288.93604
289.0931
289.25493
289.42143
289.59252
289.76804
289.94784
290.1317
290.31938
290.5106
290.70504
290.90233
291.10208
291.30385
291.50719
291.71159
291.91654
292.12151
292.32596
292.52933
292.7311
292.93072
293.12769
293.32154
293.5118
293.69807
293.88
294.05726
294.22959
294.39679
294.5587
294.71522
294.86629
295.01191
295.15213
295.28703
295.41673
295.54138
295.66118
295.77635
295.88712
295.99375
296.09652
296.19575
296.29174
296.38479
296.47517
296.56314
296.64895
296.73281
296.81493
296.89558
296.97508
297.05388
297.13244
297.2112
297.29074
297.3726
297.45896
297.55026
297.65475
297.7831
297.86875
293.28188
284.50042
288.24753
286.25269
287.53854
286.9608
287.45633
287.36799
287.59362
287.67461
287.82214
287.95165
288.09281
288.23752
288.38748
288.54256
288.70269
288.86792
289.03813
289.21329
289.39326
289.5779
289.76701
289.96038
290.1577
290.35868
290.56295
290.77009
290.97967
291.19118
291.40411
291.61791
291.832
292.04578
292.25865
292.47001
292.67927
292.88585
293.08921
293.28884
293.48425
293.67505
293.86085
294.04135
294.2163
294.38552
294.54887
294.7063
294.85778
295.00336
295.14312
295.2772
295.40575
295.52899
295.64713
295.76042
295.86914
295.97358
296.07404
296.17082
296.26426
296.35469
296.44241
296.52772
296.61088
296.69212
296.77165
296.84965
296.92639
297.00217
297.07744
297.1527
297.22845
297.30539
297.38499
297.46903
297.55927
297.66373
297.78341
297.87595
293.06687
284.2366
288.07236
286.06254
287.37143
286.80299
287.30953
287.23522
287.46448
287.56259
287.71833
287.86178
288.01492
288.17268
288.33586
288.5045
288.67849
288.85784
289.04241
289.2321
289.42672
289.62607
289.82986
290.03778
290.24946
290.46449
290.68239
290.90265
291.12471
291.34797
291.57181
291.79558
292.0186
292.24022
292.45975
292.67656
292.89002
293.09954
293.30457
293.50463
293.69929
293.88818
294.07102
294.24757
294.41767
294.58125
294.73829
294.88881
295.03293
295.17077
295.30253
295.42842
295.54871
295.66367
295.77359
295.87879
295.97959
296.07632
296.16931
296.25889
296.34543
296.42926
296.51069
296.59002
296.66751
296.74338
296.81783
296.89102
296.96319
297.03464
297.10581
297.17723
297.24946
297.32329
297.40006
297.48135
297.56996
297.67288
297.78527
297.88243
292.88298
284.01803
287.93116
285.9093
287.2401
286.69533
287.20046
287.15436
287.38303
287.50218
287.66714
287.82529
287.99184
288.16395
288.34185
288.52561
288.71508
288.9102
289.11075
289.31657
289.52736
289.74283
289.96258
290.1862
290.41317
290.64298
290.875
291.10861
291.34311
291.57779
291.81191
292.04472
292.27546
292.50341
292.72783
292.94806
293.16346
293.37346
293.57756
293.77533
293.96642
294.15055
294.32754
294.49727
294.65972
294.81493
294.963
295.1041
295.23843
295.36627
295.4879
295.60363
295.7138
295.81877
295.9189
296.01454
296.10607
296.19384
296.27822
296.35955
296.4382
296.51451
296.5888
296.66136
296.73245
296.80226
296.87098
296.93876
297.00579
297.07237
297.13893
297.20601
297.27425
297.34449
297.4179
297.49604
297.58234
297.68265
297.78856
297.88859
292.728
283.84258
287.82045
285.79154
287.13906
286.6209
287.12852
287.09208
287.35165
287.4918
287.66858
287.84334
288.02576
288.2145
288.40945
288.61062
288.8178
289.03083
289.24941
289.47327
289.70199
289.93514
290.1722
290.41261
290.6557
290.90081
291.14716
291.39397
291.64042
291.88566
292.12885
292.36913
292.6057
292.83775
293.06457
293.28548
293.49989
293.70728
293.90723
294.09942
294.28363
294.4597
294.62761
294.78739
294.93916
295.08311
295.2195
295.34862
295.47081
295.58644
295.69592
295.79964
295.89801
295.99146
296.08039
296.16521
296.24631
296.32408
296.39889
296.47109
296.54105
296.60911
296.67557
296.74072
296.80479
296.86798
296.93044
296.9923
297.05372
297.11498
297.1765
297.23884
297.3027
297.36892
297.43853
297.51312
297.5965
297.69309
297.79311
297.89491
292.59692
283.70833
287.74377
285.70959
287.08793
286.6183
287.11922
287.14301
287.37389
287.53556
287.72775
287.92169
288.123
288.33113
288.54584
288.76705
288.99444
289.22776
289.46658
289.71047
289.95887
290.21121
290.46677
290.72481
290.9845
291.24497
291.50531
291.76456
292.02176
292.27593
292.52614
292.77148
293.01108
293.24417
293.47003
293.68806
293.89776
294.09873
294.2907
294.47349
294.64705
294.81143
294.96676
295.11327
295.25124
295.38105
295.50308
295.61778
295.7256
295.82703
295.92254
296.01263
296.09776
296.1784
296.25499
296.32797
296.39774
296.46469
296.5292
296.59161
296.65228
296.71153
296.76965
296.82691
296.88353
296.93968
296.99547
297.05103
297.10648
297.16207
297.21821
297.27548
297.33461
297.39644
297.46189
297.53265
297.61253
297.70438
297.79885
297.90167
292.48902
283.61755
287.7067
285.67882
287.09171
286.65714
287.15561
287.20843
287.45443
287.64246
287.85362
288.06937
288.29258
288.52303
288.76036
289.00436
289.25459
289.51061
289.77185
290.03768
290.30736
290.58007
290.85491
291.13091
291.40704
291.68223
291.95536
292.22535
292.49109
292.75151
293.00562
293.25249
293.49128
293.72126
293.94184
294.15254
294.35302
294.54308
294.72265
294.89177
295.05061
295.19944
295.33861
295.46853
295.58968
295.7026
295.80781
295.90589
295.99741
296.08293
296.163
296.23816
296.30893
296.3758
296.43922
296.49963
296.55745
296.61304
296.66677
296.71897
296.76997
296.82006
296.86953
296.9186
296.96748
297.01631
297.06519
297.1142
297.16343
297.21312
297.26364
297.3156
297.36975
297.42687
297.48787
297.55456
297.63039
297.71665
297.80589
297.90903
292.40807
283.57841
287.71524
285.76798
287.15443
286.76068
287.25179
287.34944
287.60506
287.82109
288.05528
288.29596
288.54444
288.80043
289.06349
289.33321
289.60895
289.8901
290.17581
290.46523
290.75735
291.0511
291.3453
291.63875
291.93018
292.21831
292.50186
292.77959
293.05032
293.31295
293.56648
293.81005
294.04293
294.26455
294.47451
294.67255
294.8586
295.03271
295.19507
295.34602
295.48597
295.61543
295.73497
295.84522
295.94682
296.04045
296.12677
296.20646
296.28015
296.34849
296.41205
296.47141
296.52709
296.57958
296.62935
296.67681
296.72235
296.76633
296.80907
296.85089
296.89207
296.93288
296.97357
297.01435
297.05538
297.09678
297.13862
297.18096
297.22387
297.26753
297.3123
297.3588
297.40778
297.45997
297.51632
297.57872
297.64991
297.72994
297.81429
297.91707
292.36053
283.60393
287.77788
285.90659
287.26393
286.9341
287.4188
287.56201
287.83457
288.08131
288.34295
288.61226
288.88971
289.17482
289.46695
289.76544
290.0694
290.37789
290.68979
291.00391
291.31891
291.63342
291.94595
292.25503
292.55917
292.85691
293.14683
293.42763
293.69811
293.95725
294.20416
294.43815
294.65875
294.86565
295.05876
295.23815
295.40408
295.55693
295.69723
295.82559
295.9427
296.0493
296.14619
296.23416
296.314
296.3865
296.45241
296.51247
296.56737
296.61775
296.66422
296.70735
296.74764
296.78557
296.82158
296.85604
296.88931
296.92171
296.95353
296.98503
297.01648
297.04809
297.08008
297.11262
297.14585
297.17987
297.21471
297.2504
297.28699
297.32461
297.36363
297.40462
297.44831
297.49542
297.54701
297.60492
297.67093
297.74424
297.82402
297.92568
292.3512
283.70013
287.90476
286.09868
287.43925
287.18464
287.66558
287.85805
288.15342
288.43423
288.7282
289.03049
289.34113
289.65929
289.98403
290.31436
290.64899
290.98659
291.32563
291.66452
292.00156
292.335
292.66309
292.98409
293.29631
293.59821
293.88832
294.16541
294.42842
294.67653
294.90914
295.12593
295.32677
295.51178
295.68128
295.83577
295.97588
296.10237
296.21609
296.31794
296.40886
296.4898
296.56172
296.62553
296.68212
296.73235
296.77702
296.81687
296.85259
296.88482
296.91414
296.94109
296.96614
296.98971
297.0122
297.03395
297.05526
297.07639
297.0976
297.11911
297.14112
297.16381
297.18735
297.21189
297.23753
297.26435
297.29235
297.32154
297.35193
297.38363
297.41698
297.45251
297.49089
297.53287
297.57966
297.63292
297.6933
297.75964
297.83498
297.93462
292.38208
283.87465
288.10093
286.37739
287.69027
287.52023
288.00265
288.2477
288.57358
288.89309
289.22498
289.56538
289.91391
290.26929
290.63013
290.99492
291.36188
291.72919
292.09483
292.45676
292.81287
293.16111
293.49944
293.82597
294.13896
294.43689
294.71849
294.98276
295.22901
295.45684
295.66615
295.85711
296.03014
296.18588
296.32511
296.44879
296.55796
296.65371
296.7372
296.80955
296.87189
296.92532
296.97089
297.00957
297.0423
297.06993
297.09325
297.11297
297.12976
297.1442
297.15683
297.16811
297.17846
297.18825
297.19782
297.20744
297.21735
297.22779
297.23893
297.25094
297.26399
297.27821
297.29373
297.31065
297.32905
297.34898
297.37043
297.39338
297.41781
297.44381
297.47167
297.50187
297.535
297.5719
297.61392
297.66241
297.71687
297.77631
297.84726
297.94365
292.45807
284.14072
288.36968
286.74416
288.02904
287.95257
288.44391
288.74578
289.11083
289.4751
289.85118
290.23532
290.62652
291.02292
291.42248
291.82306
292.22228
292.61773
293.00687
293.38721
293.75629
294.11181
294.45163
294.7739
295.07707
295.35995
295.62172
295.86192
296.0805
296.2777
296.45409
296.6105
296.74795
296.86762
296.97081
297.05885
297.13315
297.19506
297.24593
297.28706
297.31966
297.34488
297.36379
297.37736
297.38649
297.39199
297.39459
297.39493
297.39361
297.39113
297.38795
297.38447
297.38103
297.37794
297.37544
297.37376
297.37309
297.37358
297.37537
297.37857
297.3833
297.38964
297.39768
297.40749
297.41912
297.43258
297.44786
297.46492
297.48372
297.50432
297.52697
297.55206
297.5801
297.61204
297.64939
297.69298
297.74136
297.79429
297.8611
297.95265
292.58348
284.51683
288.70714
287.21336
288.46943
288.49697
289.00766
289.37225
289.78622
290.20243
290.62921
291.0624
291.50018
291.93991
292.37879
292.81392
293.24224
293.66071
294.0663
294.45617
294.8277
295.1786
295.50697
295.81138
296.09087
296.34496
296.57362
296.77728
296.95671
297.11299
297.24744
297.36157
297.45699
297.53536
297.59836
297.64765
297.68484
297.71144
297.72888
297.73849
297.74149
297.73899
297.732
297.72142
297.70806
297.69263
297.67577
297.65802
297.63989
297.62178
297.60406
297.58704
297.57099
297.55613
297.54264
297.53069
297.52039
297.51184
297.50513
297.50032
297.49747
297.49663
297.49784
297.50114
297.50654
297.51405
297.52363
297.53523
297.54879
297.56438
297.58215
297.60239
297.62559
297.65281
297.68558
297.72415
297.76638
297.81338
297.87665
297.96129
292.76297
285.03276
289.12109
287.80297
289.03279
289.17681
289.7198
290.15421
290.62683
291.10204
291.58503
292.07096
292.55693
293.03936
293.51451
293.97863
294.42795
294.85892
295.26824
295.6531
296.01113
296.34062
296.64045
296.91013
297.14976
297.35998
297.54188
297.6969
297.82677
297.93341
298.01883
298.08512
298.13432
298.16842
298.18934
298.19886
298.19865
298.19023
298.17501
298.15422
298.129
298.10035
298.06914
298.03616
298.00209
297.96751
297.93295
297.89883
297.86553
297.83337
297.80262
297.7735
297.7462
297.72086
297.6976
297.6765
297.65764
297.64105
297.62678
297.61482
297.60521
297.59795
297.59304
297.59048
297.59028
297.5924
297.59681
297.60342
297.6122
297.62318
297.63646
297.65219
297.67086
297.69363
297.72193
297.75537
297.79159
297.83326
297.89312
297.96983
293.00814
285.73512
289.6544
288.54419
289.75001
290.02333
290.61286
291.124
291.66367
292.20355
292.74598
293.28518
293.81683
294.33616
294.83841
295.31906
295.77393
296.19946
296.59273
296.95166
297.27498
297.56223
297.81373
298.03047
298.21396
298.36618
298.4894
298.58608
298.65878
298.71006
298.74244
298.75832
298.75997
298.74949
298.7288
298.69966
298.66364
298.62215
298.57642
298.52755
298.47649
298.4241
298.37107
298.31803
298.26552
298.21397
298.16378
298.11525
298.06866
298.02422
297.98209
297.94242
297.90532
297.87085
297.83908
297.81003
297.78371
297.76012
297.73924
297.72105
297.70553
297.69263
297.68234
297.67463
297.66946
297.66679
297.66657
297.66872
297.67319
297.68
297.68917
297.70077
297.71529
297.73393
297.75782
297.78604
297.81652
297.8536
297.90993
297.97776
293.34583
286.60678
290.33409
289.47418
290.65881
291.07131
291.72309
292.31761
292.93077
293.53815
294.13886
294.72576
295.29289
295.83439
296.34485
296.8197
297.25532
297.64917
297.99983
298.30699
298.57131
298.7943
298.97814
299.1255
299.2394
299.32302
299.37961
299.41236
299.42434
299.41845
299.39736
299.36354
299.3192
299.26633
299.20669
299.14184
299.07314
299.00176
298.92875
298.85496
298.78115
298.70797
298.63595
298.56553
298.4971
298.43097
298.36738
298.30653
298.24858
298.19366
298.14184
298.09319
298.04774
298.00551
297.96649
297.93066
297.89798
297.8684
297.84187
297.81834
297.79773
297.77999
297.76506
297.75288
297.74339
297.73654
297.73225
297.73046
297.73111
297.73419
297.73963
297.74749
297.75829
297.77313
297.79269
297.8156
297.8406
297.87379
297.92652
297.98482
293.81625
287.59243
291.20243
290.62862
291.80319
292.36265
293.09342
293.77704
294.4653
295.13573
295.78373
296.40088
296.98022
297.5158
298.003
298.43879
298.82164
299.15152
299.42966
299.65837
299.84078
299.98056
300.08172
300.1484
300.18473
300.19468
300.18201
300.15018
300.10237
300.04142
299.96986
299.88993
299.80359
299.71253
299.61822
299.52191
299.42469
299.32746
299.23099
299.13592
299.04278
298.95202
298.86399
298.77898
298.69723
298.6189
298.54412
298.47301
298.40561
298.34196
298.28208
298.22595
298.17356
298.12485
298.07978
298.03827
298.00027
297.96567
297.9344
297.90637
297.88147
297.85963
297.84076
297.82477
297.8116
297.80115
297.79336
297.78813
297.78544
297.78519
297.7873
297.79182
297.7993
297.81069
297.82605
297.84374
297.8636
297.89324
297.94233
297.99131
294.47515
288.86294
292.30734
292.05967
293.24401
293.95568
294.77654
295.54687
296.29875
297.01147
297.67775
298.28934
298.84046
299.32741
299.74867
300.10474
300.39778
300.63133
300.80987
300.93847
301.02251
301.0674
301.07837
301.06039
301.01803
300.95544
300.87632
300.78395
300.68119
300.57054
300.45413
300.33378
300.21105
300.08726
299.96349
299.84068
299.71959
299.60085
299.48496
299.37234
299.26333
299.15817
299.05706
298.96015
298.86754
298.77929
298.69543
298.61596
298.54087
298.47013
298.40368
298.34145
298.28338
298.22938
298.17935
298.13319
298.0908
298.05207
298.01688
297.98512
297.95666
297.93141
297.90924
297.89007
297.87379
297.8603
297.84952
297.84136
297.83576
297.8326
297.83176
297.83332
297.83787
297.84607
297.85748
297.87033
297.88555
297.91175
297.95673
297.99871
295.37911
290.47936
293.7345
293.84688
295.06016
295.91773
296.81995
297.65265
298.43177
299.1405
299.77249
300.3231
300.79106
301.1778
301.48699
301.72403
301.89537
302.00808
302.06939
302.08639
302.06576
302.01367
301.93566
301.83666
301.721
301.59238
301.45402
301.30864
301.15852
301.00559
300.85147
300.6975
300.54476
300.39417
300.24646
300.10221
299.96191
299.82591
299.6945
299.5679
299.44625
299.32965
299.21817
299.11181
299.01059
298.91446
298.82338
298.73728
298.65608
298.57967
298.50798
298.44087
298.37825
298.31999
298.26596
298.21604
298.1701
298.128
298.08962
298.05481
298.02343
297.99537
297.97049
297.94868
297.92982
297.91379
297.9005
297.88987
297.88179
297.87611
297.87269
297.87168
297.87361
297.87887
297.88659
297.89522
297.90667
297.9298
297.97008
298.00462
296.5097
292.56606
295.58948
296.07387
297.31794
298.29242
299.23057
300.06523
300.80284
301.43476
301.96102
302.38457
302.71155
302.95017
303.10984
303.20047
303.23186
303.21332
303.15339
303.05971
302.939
302.79707
302.63887
302.4686
302.28976
302.10526
301.91753
301.72854
301.53991
301.35296
301.16874
300.98811
300.81173
300.64014
300.47373
300.3128
300.15759
300.00823
299.86482
299.72741
299.59599
299.47056
299.35105
299.23739
299.12949
299.02726
298.93056
298.83929
298.7533
298.67247
298.59664
298.52569
298.45947
298.39783
298.34061
298.28769
298.2389
298.1941
298.15313
298.11585
298.08211
298.05176
298.02466
298.00068
297.97969
297.96156
297.9462
297.93349
297.92332
297.91549
297.90989
297.90669
297.90631
297.90882
297.91313
297.91812
297.92655
297.94676
297.98164
298.00836
298.04515
295.23552
297.96744
298.79362
300.01245
301.04822
301.93264
302.67134
303.27339
303.74278
304.09005
304.3277
304.46968
304.53001
304.52211
304.45829
304.34946
304.20511
304.03331
303.84082
303.63326
303.41525
303.19054
302.9622
302.73266
302.50391
302.27751
302.05468
301.8364
301.62342
301.4163
301.21548
301.02126
300.83386
300.6534
300.47996
300.31356
300.15419
300.00177
299.85624
299.71748
299.58539
299.45982
299.34062
299.22766
299.12076
299.01977
298.92452
298.83484
298.75058
298.67155
298.59759
298.52854
298.46423
298.40449
298.34917
298.2981
298.25113
298.20808
298.16881
298.13315
298.10094
298.07203
298.04628
298.02354
298.00368
297.9866
297.97217
297.96023
297.95059
297.94318
297.93816
297.93579
297.93584
297.93712
297.93897
297.94466
297.96161
297.99064
298.01012
300.02614
298.55752
300.86377
301.98031
303.16889
304.03709
304.74675
305.27643
305.6487
305.88215
305.99812
306.01687
305.9571
305.83523
305.66529
305.45897
305.22589
304.97381
304.70897
304.43632
304.15976
303.88237
303.60652
303.33408
303.06646
302.80474
302.54973
302.30203
302.06206
301.8301
301.60633
301.39086
301.1837
300.98483
300.79418
300.61166
300.43713
300.27045
300.11145
299.95996
299.8158
299.67877
299.54869
299.42537
299.30859
299.19817
299.09392
298.99563
298.90311
298.81618
298.73465
298.65834
298.58705
298.52063
298.45888
298.40164
298.34873
298.3
298.25526
298.21436
298.17712
298.14339
298.11299
298.08578
298.0616
298.04032
298.0218
298.00591
297.99249
297.98135
297.97243
297.96588
297.96179
297.9597
297.95849
297.95788
297.96105
297.974
297.9965
298.01094
302.48152
302.51582
304.5275
305.5047
306.40232
307.01628
307.42529
307.65077
307.72927
307.69057
307.56159
307.36453
307.11751
306.8349
306.52799
306.20547
305.87405
305.53882
305.20365
304.87144
304.54434
304.22395
303.91143
303.60761
303.31305
303.02812
302.75304
302.48793
302.23278
301.98756
301.75214
301.5264
301.31015
301.10321
300.90536
300.71637
300.53603
300.36409
300.20033
300.04449
299.89635
299.75568
299.62223
299.49578
299.3761
299.26298
299.15619
299.05551
298.96075
298.8717
298.78816
298.70993
298.63682
298.56865
298.50524
298.44639
298.39195
298.34173
298.29556
298.25328
298.21471
298.17968
298.14802
298.11958
298.09419
298.0717
298.05197
298.03485
298.02015
298.00773
297.99754
297.98964
297.98398
297.98002
297.97688
297.97464
297.97594
297.98481
298.00003
298.00796
305.55409
306.95236
308.28345
308.98797
309.46835
309.68007
309.70565
309.58701
309.36493
309.06981
308.72515
308.34839
307.95245
307.54673
307.13807
306.73138
306.33014
305.93684
305.55318
305.18032
304.819
304.46968
304.13259
303.80779
303.49524
303.19482
302.90633
302.62954
302.36419
302.10999
301.86666
301.63388
301.41135
301.19878
300.99585
300.80226
300.61773
300.44195
300.27466
300.11556
299.9644
299.8209
299.68482
299.55589
299.43387
299.31854
299.20965
299.10699
299.01033
298.91946
298.83418
298.75428
298.67957
298.60985
298.54495
298.48467
298.42884
298.37729
298.32983
298.28629
298.24651
298.21032
298.17754
298.148
298.12155
298.09802
298.07724
298.05905
298.04327
298.02975
298.01845
298.00934
298.00225
297.99665
297.99189
297.98823
297.98769
297.99287
298.00224
298.00635
309.51325
311.30303
311.84623
312.03484
311.98194
311.74923
311.39917
310.9742
310.50455
310.01093
309.50741
309.00347
308.50541
308.01737
307.54202
307.081
306.63526
306.20527
305.7912
305.39297
305.01036
304.64307
304.2907
303.95285
303.62907
303.31893
303.02197
302.73776
302.46585
302.20584
301.9573
301.71984
301.49308
301.27664
301.07017
300.87332
300.68576
300.50716
300.33723
300.17565
300.02213
299.87641
299.7382
299.60725
299.48329
299.3661
299.25542
299.15103
299.05271
298.96023
298.8734
298.792
298.71583
298.64471
298.57844
298.51684
298.45973
298.40694
298.35828
298.31358
298.27269
298.23542
298.2016
298.17108
298.14367
298.11922
298.09754
298.07844
298.06176
298.04734
298.03509
298.02493
298.01662
298.00973
298.00383
297.99912
297.99685
297.99839
298.00248
298.00367
314.4795
314.85345
314.58485
314.21702
313.69483
313.10193
312.474
311.83664
311.20406
310.58488
309.9839
309.40369
308.84544
308.30949
307.79568
307.30353
306.8324
306.38154
305.95018
305.53751
305.14276
304.76516
304.404
304.05858
303.72823
303.41234
303.11032
302.8216
302.54565
302.28199
302.03012
301.78961
301.56003
301.34096
301.13203
300.93286
300.7431
300.56242
300.39048
300.22697
300.07161
299.92409
299.78415
299.65151
299.52592
299.40713
299.2949
299.18899
299.08919
298.99526
298.90702
298.82424
298.74672
298.67428
298.60673
298.54388
298.48555
298.43157
298.38176
298.33596
298.29398
298.25566
298.22084
298.18934
298.161
298.13565
298.11311
298.09321
298.07575
298.06058
298.04756
298.03652
298.0272
298.01928
298.01248
298.00691
298.0031
298.00161
298.00187
298.00157
316.48027
316.64876
316.07546
315.3132
314.53381
313.75325
312.99192
312.25741
311.55323
310.88035
310.2385
309.62671
309.04374
308.48817
307.9586
307.45361
306.97191
306.51222
306.07338
305.65431
305.254
304.87151
304.50599
304.15663
303.82269
303.50347
303.19834
302.90669
302.62797
302.36164
302.1072
301.86421
301.6322
301.41078
301.19953
300.99809
300.8061
300.62322
300.44912
300.28348
300.12601
299.97643
299.83444
299.69979
299.57222
299.45148
299.33733
299.22953
299.12787
299.03213
298.9421
298.85757
298.77834
298.70422
298.63503
298.57058
298.5107
298.4552
298.40392
298.35668
298.31332
298.27366
298.23753
298.20478
298.17523
298.14872
298.12509
298.10418
298.08582
298.06983
298.05603
298.04418
298.03402
298.02525
298.01769
298.01138
298.00649
298.00317
298.00131
298.00038
310.29089
308.9602
305.25849
302.34493
301.05675
300.76777
300.69997
300.69722
300.5848
300.52799
300.42522
300.35327
300.2665
300.17959
300.09313
300.00622
299.91866
299.83039
299.74143
299.65184
299.56172
299.47116
299.38029
299.28925
299.19817
299.10719
299.01646
298.9261
298.83625
298.74706
298.65864
298.57113
298.48466
298.39934
298.31532
298.2327
298.15161
298.07218
297.99454
297.9188
297.84509
297.77354
297.70429
297.63745
297.57315
297.51154
297.45273
297.39685
297.34404
297.2944
297.24807
297.20517
297.1658
297.13008
297.09812
297.07002
297.04588
297.02579
297.00984
296.99813
296.9908
296.988
296.98984
296.99647
297.00809
297.02484
297.04715
297.07478
297.10928
297.14823
297.19781
297.24638
297.31561
297.36432
297.46201
297.49101
297.63218
297.62841
297.82198
297.82162
309.49658
306.54854
302.34208
300.26512
299.69043
299.69206
299.79428
299.80514
299.7991
299.77265
299.74859
299.71116
299.66828
299.62051
299.5688
299.51328
299.45442
299.39249
299.32782
299.26071
299.19145
299.12032
299.04758
298.97345
298.89819
298.82201
298.74513
298.66775
298.59008
298.5123
298.43461
298.35719
298.28021
298.20386
298.1283
298.0537
297.98022
297.90803
297.83728
297.76814
297.70077
297.63531
297.57193
297.51078
297.45201
297.39576
297.3422
297.29144
297.24365
297.19894
297.15745
297.11931
297.08463
297.05353
297.02612
297.0025
296.98276
296.96699
296.95527
296.9477
296.94442
296.94555
296.95121
296.96154
296.97671
296.99687
297.02241
297.05315
297.09045
297.13223
297.18391
297.23496
297.3051
297.35633
297.45347
297.48492
297.62567
297.62227
297.82059
297.81494
308.07129
304.46141
301.3386
299.6263
299.29533
299.33618
299.3703
299.34377
299.31492
299.28211
299.25038
299.2153
299.17858
299.13894
299.09716
299.05298
299.00663
298.95807
298.9074
298.8547
298.80009
298.74369
298.68563
298.62603
298.56505
298.50284
298.43956
298.37538
298.31047
298.24499
298.17913
298.11307
298.04699
297.98106
297.91548
297.85043
297.78609
297.72265
297.66028
297.59917
297.5395
297.48145
297.42521
297.37093
297.31881
297.26899
297.22166
297.17697
297.13506
297.0961
297.06021
297.02754
296.99821
296.97233
296.95003
296.93139
296.91652
296.9055
296.8984
296.89532
296.89639
296.90173
296.91145
296.92567
296.94458
296.9683
296.99719
297.03113
297.07132
297.1159
297.16981
297.2232
297.29455
297.34791
297.44496
297.47853
297.6194
297.61642
297.81874
297.80901
306.87409
303.00555
300.15957
298.86702
298.81727
298.83349
298.85081
298.81442
298.79574
298.76659
298.74261
298.71348
298.68416
298.65288
298.62051
298.5865
298.55103
298.51396
298.4753
298.43504
298.3932
298.34981
298.30491
298.25855
298.21082
298.1618
298.11159
298.0603
298.00806
297.955
297.90126
297.84701
297.79239
297.73759
297.68278
297.62813
297.57383
297.52007
297.46705
297.41494
297.36396
297.31428
297.26611
297.21964
297.17506
297.13254
297.09228
297.05444
297.01918
296.98668
296.95707
296.93051
296.90712
296.88702
296.87034
296.85717
296.84761
296.84174
296.83963
296.84137
296.84709
296.8569
296.8709
296.88922
296.91203
296.93945
296.97182
297.00902
297.05217
297.09957
297.15579
297.21145
297.28416
297.33943
297.43678
297.47205
297.61326
297.61075
297.8166
297.80362
306.17035
301.78525
299.19266
298.23543
298.31382
298.28814
298.31455
298.27724
298.27033
298.24589
298.23057
298.2087
298.18818
298.16585
298.14294
298.11879
298.09357
298.06712
298.03942
298.01044
297.98014
297.94852
297.91557
297.88131
297.84576
297.80898
297.77101
297.73192
297.6918
297.65075
297.60887
297.56629
297.52314
297.47957
297.43574
297.3918
297.34794
297.30432
297.26116
297.21862
297.17692
297.13625
297.09681
297.0588
297.02242
296.98786
296.95531
296.92495
296.89696
296.87151
296.84876
296.82885
296.81192
296.7981
296.78749
296.78022
296.77637
296.776
296.7792
296.78606
296.79669
296.8112
296.82969
296.85229
296.87915
296.91039
296.94632
296.98687
297.03303
297.08325
297.1418
297.1997
297.27389
297.33094
297.42877
297.46555
297.60726
297.60529
297.81428
297.79874
305.59982
300.59111
298.38709
297.62914
297.77949
297.72379
297.7702
297.73346
297.74155
297.72383
297.71955
297.70639
297.69564
297.6828
297.66961
297.6553
297.64003
297.62368
297.60623
297.58765
297.56793
297.54704
297.52497
297.50173
297.47731
297.45174
297.42505
297.39728
297.36849
297.33875
297.30813
297.27673
297.24466
297.21203
297.179
297.14569
297.11227
297.0789
297.04577
297.01304
296.98093
296.94961
296.9193
296.89018
296.86245
296.83632
296.81197
296.7896
296.76937
296.75146
296.73604
296.72324
296.71322
296.70609
296.70197
296.70097
296.70317
296.70863
296.71744
296.72967
296.74545
296.76487
296.78804
296.81506
296.8461
296.88127
296.92085
296.9648
297.014
297.06706
297.12792
297.18807
297.26379
297.32253
297.42093
297.45911
297.60139
297.60007
297.81186
297.79433
305.01869
299.53757
297.73501
297.07663
297.27459
297.19274
297.25881
297.22047
297.24105
297.22789
297.23262
297.22662
297.22382
297.21869
297.21347
297.20734
297.20041
297.19263
297.18395
297.17436
297.16381
297.15229
297.13977
297.12624
297.11169
297.09614
297.07958
297.06205
297.04358
297.02421
297.00401
296.98304
296.9614
296.93917
296.91648
296.89344
296.8702
296.8469
296.82371
296.80079
296.77833
296.7565
296.7355
296.71551
296.69672
296.67933
296.66353
296.6495
296.6374
296.62742
296.61971
296.61441
296.61166
296.61158
296.61429
296.61987
296.62842
296.64
296.65467
296.67251
296.69364
296.71815
296.74614
296.77773
296.81305
296.85223
296.89552
296.9429
296.99517
297.05107
297.11421
297.17663
297.25388
297.31426
297.41325
297.45278
297.59564
297.5951
297.8094
297.79035
304.53687
298.58533
297.18577
296.57122
296.80775
296.70066
296.78553
296.7425
296.77421
296.76253