/*--------------------------------*- C++ -*----------------------------------*\
  =========                 |
  \\      /  F ield         | OpenFOAM: The Open Source CFD Toolbox
   \\    /   O peration     | Website:  https://openfoam.org
    \\  /    A nd           | Version:  12
     \\/     M anipulation  |
\*---------------------------------------------------------------------------*/
FoamFile
{
    format      ascii;
    class       volScalarField;
    location    "350";
    object      k;
}
// * * * * * * * * * * * * * * * * * * * * * * * * * * * * * * * * * * * * * //

dimensions      [0 2 -2 0 0 0 0];

internalField   nonuniform List<scalar> 
16200
(
429.2372315
487.2397149
443.7896547
402.6224471
350.122758
270.5971927
156.7081025
48.50229186
5.975017665
0.2273008847
0.002654934519
0.001032227145
0.00098518414
0.0009595894619
0.0009453155464
0.0009367283549
0.0009311476245
0.0009278067102
0.0009260984373
0.0009255087208
0.0009257778585
0.0009267493944
0.0009283272287
0.0009304514801
0.0009330881458
0.000936219064
0.0009398281445
0.0009438880384
0.0009483486182
0.0009531265333
0.0009580995377
0.0009631107468
0.000967985333
0.0009725563388
0.0009766902803
0.0009802993614
0.0009833426045
0.0009858142279
0.0009877337128
0.000989130971
0.0009900379547
0.000990473066
0.0009904267807
0.0009898384897
0.0009885667052
0.000986337468
0.0009845341983
0.0009837724124
0.0009834689314
0.0009833699443
0.0009833718026
0.0009834399868
0.0009835737203
0.000983792235
0.0009841306072
0.000984643925
0.0009854126375
0.0009865679567
0.0009883190883
0.0009910947327
446.8566889
502.3477866
451.6317896
402.9663202
340.3845938
246.9381687
122.5692375
29.33591617
2.575929665
0.06298086155
0.001222969973
0.001016280269
0.0009744357396
0.0009510883185
0.0009381162218
0.0009304275077
0.0009255140299
0.0009226902643
0.0009214120323
0.000921199805
0.0009218179504
0.0009231271881
0.0009250454753
0.0009275225986
0.0009305295892
0.0009340495155
0.0009380622485
0.0009425298556
0.0009473845694
0.0009525192537
0.0009577864623
0.0009630100678
0.0009680087473
0.0009726241134
0.0009767424018
0.0009803011064
0.0009832816174
0.0009856953485
0.000987570082
0.0009889392466
0.0009898340007
0.0009902729714
0.000990248736
0.0009897083978
0.0009885263253
0.0009864468292
0.0009846216499
0.0009838533332
0.000983551588
0.0009834582579
0.0009834671951
0.0009835423696
0.0009836819967
0.0009839043751
0.0009842439027
0.0009847547679
0.000985517901
0.0009866660166
0.0009884173327
0.0009912339944
464.0624309
516.4234728
457.9110508
400.9006993
326.4432843
218.0493123
88.82277939
15.8265088
0.9460983622
0.01527219044
0.00108787392
0.001002700102
0.0009647599973
0.0009435244045
0.000931792622
0.0009249576037
0.0009206901696
0.0009183755904
0.0009175267436
0.000917698043
0.0009186770552
0.0009203402586
0.000922618284
0.0009254695461
0.0009288689563
0.0009327990018
0.0009372325081
0.0009421161991
0.0009473582247
0.0009528216409
0.0009583309177
0.0009636927093
0.000968725743
0.0009732886693
0.0009772956737
0.0009807148038
0.0009835531907
0.0009858401147
0.0009876121147
0.0009889050395
0.0009897482512
0.0009901585223
0.0009901282882
0.0009896090961
0.0009884886098
0.0009865391122
0.0009847045486
0.0009839332092
0.000983633345
0.0009835448034
0.0009835598655
0.0009836413469
0.0009837865767
0.0009840129827
0.0009843542714
0.0009848638064
0.0009856227079
0.0009867650842
0.0009885168615
0.0009913710199
480.1684958
528.5232929
461.9768725
395.3802829
306.8074557
183.4201805
58.77138556
7.528729158
0.2953006655
0.003435450028
0.001054442682
0.0009904923955
0.0009561588472
0.0009369350062
0.0009263947298
0.0009203717746
0.0009167279863
0.0009149116663
0.0009144879266
0.0009150442428
0.0009163905362
0.0009184177727
0.0009210684051
0.0009243085967
0.0009281155655
0.0009324679214
0.0009373262429
0.0009426147967
0.0009482107403
0.0009539435483
0.0009596114721
0.0009650117814
0.0009699743091
0.0009743850426
0.0009781928602
0.0009813987014
0.0009840351861
0.0009861473068
0.0009877784731
0.0009889647526
0.000989732166
0.0009900937326
0.0009900399376
0.0009895240237
0.0009884431768
0.0009865950586
0.0009847715029
0.0009840051524
0.0009837099808
0.0009836269853
0.0009836482367
0.0009837359941
0.0009838869518
0.0009841178125
0.0009844616221
0.0009849709974
0.000985727115
0.0009868652877
0.0009886182222
0.0009915071982
495.2088724
539.0422382
463.8249422
386.4226219
282.4738089
145.3333815
34.79608149
3.26021452
0.08382385476
0.001378628639
0.00103544025
0.0009795991921
0.0009486288423
0.0009313144592
0.0009219185425
0.000916671898
0.0009136338317
0.0009123084525
0.000912308298
0.0009132532932
0.0009149756786
0.000917380681
0.0009204221044
0.000924072348
0.0009283073522
0.0009330958778
0.0009383783664
0.0009440484752
0.0009499465418
0.0009558680866
0.0009615919139
0.0009669178963
0.0009716998735
0.0009758606852
0.0009793882695
0.0009823163928
0.0009847005987
0.0009865984086
0.000988057388
0.0009891117642
0.000989782723
0.0009900781814
0.0009899853315
0.0009894570802
0.0009883967412
0.0009866266185
0.0009848282891
0.0009840722038
0.0009837832849
0.0009837059934
0.0009837331895
0.0009838270066
0.0009839836833
0.0009842193067
0.0009845662966
0.0009850765864
0.000985831288
0.0009869667622
0.0009887215962
0.000991642618
509.0577801
547.962509
463.0248093
372.8694146
252.120318
107.1332287
19.96328683
1.342251939
0.02342957035
0.001150442493
0.00101985926
0.0009699647657
0.0009421353446
0.0009266294183
0.0009183289671
0.0009138235838
0.0009113732546
0.0009105323994
0.0009109571586
0.0009123002992
0.0009144161525
0.0009172229979
0.0009206830771
0.0009247705731
0.0009294539589
0.0009346844189
0.0009403738672
0.0009463783889
0.0009524992327
0.0009585030625
0.0009641614828
0.0009692922576
0.0009737860213
0.0009776094424
0.0009807904131
0.0009833924793
0.0009854895043
0.0009871472601
0.0009884142603
0.0009893208237
0.0009898819997
0.0009900996479
0.0009899568025
0.0009894046786
0.0009883495969
0.0009866330798
0.0009848740339
0.0009841337442
0.0009838529298
0.000983781735
0.0009838147982
0.0009839145613
0.0009840770054
0.0009843177116
0.0009846685238
0.0009851807526
0.0009859353715
0.0009870696304
0.0009888272048
0.0009917776481
521.593035
555.2757676
459.397891
353.3497762
214.6312268
72.54523084
10.66486762
0.5282730306
0.006569704992
0.00109670586
0.001006070298
0.0009615078019
0.0009366089809
0.0009228146886
0.0009155656081
0.0009117766859
0.0009099074279
0.0009095577861
0.0009104231604
0.0009121883229
0.0009147278863
0.000917969383
0.0009218787082
0.0009264262146
0.0009315665747
0.0009372261194
0.0009432806455
0.0009495438894
0.0009557804348
0.000961739087
0.0009672007414
0.0009720169864
0.0009761254299
0.0009795394883
0.0009823243016
0.0009845678009
0.0009863564547
0.0009877597233
0.0009888239765
0.0009895738636
0.0009900173378
0.0009901496276
0.0009899491428
0.0009893646392
0.000988303126
0.0009866192
0.0009849105634
0.00098419053
0.0009839193267
0.0009838545383
0.0009838933888
0.0009839989958
0.0009841672559
0.0009844133447
0.000984768585
0.0009852837185
0.0009860395303
0.0009871740139
0.0009889351998
0.000991912486
532.4165477
560.6752162
452.5433177
327.9758784
172.4075732
44.61609457
5.367403217
0.2110930832
0.002401907703
0.001069974668
0.0009939159843
0.0009542166359
0.0009320485657
0.0009198772397
0.0009136442036
0.0009105598407
0.0009092762537
0.0009094332548
0.0009107604589
0.0009129717175
0.0009159595461
0.000919658223
0.0009240336179
0.0009290469228
0.0009346318663
0.0009406818743
0.0009470298541
0.0009534458557
0.0009596661867
0.0009654385427
0.0009705717101
0.0009749649007
0.0009786083571
0.0009815606151
0.0009839182222
0.0009857865827
0.000987258724
0.0009884034643
0.0009892623707
0.0009898530852
0.0009901758829
0.0009902191167
0.0009899564216
0.0009893337783
0.0009882574054
0.000986588129
0.0009849388922
0.0009842428713
0.0009839826189
0.0009839245594
0.0009839691729
0.0009840805704
0.000984254723
0.0009845064947
0.000984866746
0.000985385702
0.0009861439293
0.0009872800282
0.0009890457104
0.0009920473264
540.9909491
563.630628
440.6503726
295.7716372
129.5283429
26.07405482
2.606005491
0.08970708299
0.001607894703
0.001050170223
0.0009834384332
0.0009481751292
0.0009285434334
0.000917904937
0.0009126477054
0.0009102520373
0.0009095518199
0.0009102218795
0.0009120207884
0.0009146892182
0.0009181354568
0.0009222987587
0.0009271416244
0.0009326096824
0.0009386056349
0.0009449801642
0.0009515193586
0.0009579549136
0.0009640101955
0.0009694524569
0.0009741359284
0.0009780165335
0.0009811373454
0.0009835962968
0.0009855134193
0.0009870041895
0.0009881625427
0.0009890529929
0.0009897102852
0.0009901442112
0.0009903471544
0.0009903006251
0.0009899735635
0.0009893091654
0.0009882122082
0.0009865436961
0.0009849604079
0.0009842912712
0.0009840430452
0.0009839919991
0.000984042381
0.0009841595527
0.0009843396967
0.0009845974519
0.0009849632761
0.0009854869272
0.0009862487363
0.0009873877842
0.0009891588331
0.0009921823136
547.3256517
564.1549067
422.3462266
255.3987985
89.25961141
14.74193819
1.216621183
0.0388713578
0.001385984744
0.001033540068
0.0009746414517
0.0009434255306
0.0009261402375
0.0009169357593
0.0009125998077
0.0009108638861
0.0009107316071
0.0009119096242
0.0009141826064
0.000917316793
0.0009212316093
0.0009258645851
0.0009311679089
0.0009370638433
0.0009434138842
0.0009500173607
0.0009566158364
0.0009629170898
0.0009686527158
0.0009736303778
0.0009777629428
0.0009810658974
0.0009836301737
0.0009855844749
0.0009870635575
0.0009881859759
0.0009890418124
0.0009896884982
0.0009901526314
0.0009904357824
0.0009905225483
0.0009903878438
0.0009899961528
0.0009892880538
0.0009881668892
0.0009864892738
0.0009849763472
0.0009843361787
0.0009841008172
0.0009840570374
0.0009841132247
0.0009842361927
0.0009844224527
0.0009846864967
0.0009850584386
0.0009855876169
0.0009863541187
0.0009874973894
0.0009892746412
0.0009923175642
551.7738392
562.1208648
397.4451907
208.7484142
55.8875823
8.004521159
0.5674590557
0.01831903503
0.001300019214
0.001019410393
0.0009674190537
0.0009398859383
0.0009247662091
0.0009169021053
0.0009134374309
0.0009123376458
0.000912761665
0.0009144451422
0.0009171983187
0.0009208119822
0.0009252106339
0.0009303190837
0.0009360655958
0.0009423391761
0.0009489552586
0.0009556604866
0.0009621617811
0.0009681650843
0.0009734337067
0.0009778325547
0.0009813396166
0.000984026538
0.0009860232164
0.0009874791236
0.0009885352925
0.0009893074117
0.0009898780984
0.000990295853
0.0009905784521
0.0009907192791
0.0009906954971
0.0009904758238
0.0009900206245
0.0009892681067
0.0009881206222
0.0009864279589
0.000984987899
0.0009843780532
0.0009841561617
0.0009841198612
0.000984181914
0.0009843107345
0.0009845032585
0.0009847739023
0.0009851524919
0.0009856879915
0.0009864602432
0.0009876089471
0.0009893931853
0.0009924531638
554.3918594
556.4649471
365.4956015
160.829695
34.04157639
4.198405823
0.2679644159
0.009365821596
0.001218330908
0.001007338096
0.0009615399639
0.0009373780183
0.0009242794303
0.0009176963388
0.0009150863201
0.0009146243497
0.0009156153523
0.0009178204131
0.0009210658252
0.0009251653636
0.0009300480839
0.0009356208601
0.0009417720108
0.0009483415521
0.0009550994273
0.000961750774
0.0009679849705
0.0009735308073
0.0009782047029
0.0009819387676
0.0009847752342
0.0009868334843
0.0009882713429
0.0009892491112
0.0009899067984
0.0009903526671
0.0009906594449
0.0009908657057
0.0009909802718
0.0009909886835
0.0009908611944
0.0009905608182
0.0009900441939
0.0009892474171
0.0009880724916
0.0009863623793
0.0009849961146
0.0009844173242
0.0009842093028
0.0009841806567
0.0009842486547
0.0009843834139
0.0009845823718
0.0009848599321
0.0009852456864
0.0009857882663
0.0009865672728
0.0009877225528
0.0009895144937
0.0009925891727
555.0488081
545.8857935
324.03579
115.1057197
20.67841209
2.237927707
0.131630505
0.0053419127
0.00115052361
0.0009971427441
0.0009569035169
0.0009358319466
0.0009246220286
0.0009192640464
0.0009174936468
0.0009176919117
0.0009192824441
0.0009220443239
0.0009257976987
0.0009303806238
0.0009357208061
0.0009417105206
0.0009481938722
0.000954944999
0.0009616890786
0.000968112697
0.0009739111542
0.0009788581091
0.0009828385287
0.0009858539334
0.0009880035036
0.0009894428561
0.0009903463286
0.0009908762607
0.0009911659409
0.0009913130915
0.0009913792004
0.0009913926201
0.0009913534956
0.0009912400802
0.0009910163444
0.0009906401377
0.0009900647864
0.0009892245128
0.0009880215936
0.0009862947129
0.0009850019097
0.0009844543927
0.0009842604646
0.0009842396125
0.0009843136501
0.0009844544599
0.0009846600413
0.0009849448404
0.0009853382641
0.0009858886506
0.0009866753641
0.0009878382885
0.0009896385729
0.0009927256287
553.7042456
529.2578781
274.0722175
76.70736069
12.52811217
1.220647697
0.06920090271
0.003440368241
0.001102126245
0.0009886334259
0.0009536050777
0.0009353487227
0.0009258841382
0.0009216746497
0.0009207040135
0.0009215551645
0.0009237450598
0.000927066162
0.0009313454669
0.0009364198209
0.0009421801526
0.0009485041011
0.0009552041147
0.0009619925617
0.0009685493423
0.0009745677809
0.000979777378
0.0009840130644
0.0009872352617
0.0009895099639
0.0009909816017
0.0009918294968
0.0009922341097
0.0009923528001
0.0009923081537
0.0009921855509
0.0009920347675
0.0009918741631
0.0009916957609
0.0009914712081
0.0009911588635
0.0009907119601
0.0009900809249
0.0009891983138
0.000987967097
0.0009862266934
0.000985006056
0.0009844896232
0.0009843098668
0.000984296917
0.0009843771005
0.0009845240947
0.000984736506
0.0009850288711
0.0009854304575
0.0009859893453
0.0009867846659
0.0009879562209
0.000989765413
0.0009928625488
550.7924312
505.6077434
221.7730212
50.01213648
7.421276158
0.6707453108
0.03674558008
0.002333539969
0.001064763261
0.0009817267448
0.000951608483
0.0009359462888
0.0009280923525
0.000924958053
0.0009247480641
0.000926229493
0.0009290002039
0.0009328618448
0.0009376490207
0.0009431853026
0.0009493325682
0.0009558906057
0.0009626528276
0.0009693085354
0.0009755009576
0.0009809484335
0.000985442953
0.0009888904234
0.0009913242519
0.0009928645183
0.0009936872334
0.0009939835872
0.0009939316572
0.0009936787777
0.0009933344274
0.0009929709178
0.0009926264923
0.0009923101008
0.0009920063655
0.0009916810613
0.0009912876076
0.0009907751521
0.0009900916181
0.0009891680767
0.0009879082818
0.0009861596593
0.0009850091919
0.0009845233438
0.0009843577225
0.0009843527576
0.0009844392028
0.0009845925333
0.0009848119953
0.0009851122571
0.0009855224885
0.0009860905427
0.0009868953195
0.000988076408
0.0009898949888
0.0009929999304
547.102728
471.5148657
173.1932992
34.53075294
4.615307753
0.374240488
0.01962207861
0.001722943361
0.001038962686
0.0009765598762
0.000950762122
0.0009375361687
0.0009311847778
0.0009290722091
0.0009295991283
0.0009317032478
0.0009350446692
0.000939429278
0.0009446790051
0.0009506048968
0.00095704248
0.000963726262
0.0009703785753
0.0009767144643
0.0009823722197
0.0009871082273
0.0009907964485
0.0009934159349
0.000995062719
0.0009958975547
0.0009961146017
0.0009959069184
0.0009954439082
0.0009948596922
0.0009942495422
0.000993672775
0.000993156722
0.0009927017171
0.0009922857771
0.0009918695404
0.0009914021309
0.0009908291061
0.0009900962543
0.0009891333321
0.0009878445557
0.0009860946095
0.0009850118357
0.0009845558472
0.0009844042369
0.0009844073191
0.000984500149
0.000984659983
0.0009848867283
0.0009851952206
0.0009856145681
0.0009861924249
0.000987007457
0.0009881989028
0.0009900272607
0.0009931377522
543.6290241
424.8791663
129.7630679
24.36154593
2.920827398
0.2156411643
0.01110605878
0.001410705302
0.001022000058
0.0009730548716
0.0009510734991
0.0009400593011
0.0009351421086
0.0009340108864
0.000935257665
0.0009379699618
0.000941857244
0.0009467238297
0.0009523790901
0.0009586069584
0.000965189241
0.0009718364726
0.000978212653
0.0009840393564
0.0009890090004
0.0009929292109
0.0009957589196
0.0009975452394
0.0009984320623
0.000998606823
0.0009982701788
0.0009976094076
0.0009967810984
0.0009959045292
0.0009950606466
0.0009942963906
0.0009936290635
0.0009930512756
0.000992535244
0.000992037173
0.0009915024865
0.0009908736026
0.0009900945097
0.0009890938267
0.0009877754558
0.0009860322638
0.0009850144026
0.000984587393
0.0009844496057
0.0009844607818
0.0009845601256
0.0009847266425
0.0009849609136
0.0009852779716
0.0009857068952
0.0009862951622
0.0009871211978
0.0009883237454
0.0009901621741
0.0009932759764
541.6872771
368.0308511
94.98672439
16.14076359
1.800745657
0.1215662614
0.006285004537
0.001227370277
0.00101017724
0.000971094965
0.0009525186226
0.0009435210399
0.0009399385386
0.0009397383172
0.0009416788983
0.0009449894005
0.0009493977193
0.0009546868751
0.0009606550168
0.0009670618605
0.0009736352587
0.0009800472805
0.000985978465
0.0009911249517
0.0009952845528
0.0009983265059
0.001000283347
0.001001260062
0.001001432872
0.001001003097
0.001000168767
0.0009991061065
0.0009979565926
0.0009968242203
0.0009957761658
0.0009948479388
0.0009940478207
0.0009933616089
0.0009927564934
0.0009921848918
0.0009915890669
0.0009909086978
0.0009900862717
0.0009890494699
0.0009877006362
0.0009859731185
0.0009850172215
0.000984618211
0.0009844940146
0.0009845133204
0.0009846193127
0.0009847927018
0.0009850347491
0.0009853607082
0.0009857996564
0.000986398913
0.0009872366482
0.0009884509599
0.0009902996591
0.0009934145491
542.4198032
305.8119807
66.71401769
10.83245158
1.102907501
0.06625467663
0.003591215614
0.001125119982
0.001002470317
0.0009706151188
0.0009550712449
0.0009479134595
0.0009455640059
0.0009462354576
0.00094883195
0.0009527058691
0.0009575854765
0.0009632289845
0.0009693890634
0.0009758146651
0.0009821979534
0.0009881888275
0.0009934985671
0.0009978367653
0.001001107834
0.001003249087
0.001004350886
0.001004562929
0.001004079705
0.001003105824
0.001001830207
0.001000414849
0.0009989852507
0.0009976305148
0.0009964050167
0.0009953339436
0.0009944175918
0.0009936358218
0.0009929515105
0.000992313871
0.0009916624825
0.0009909346363
0.0009900715788
0.0009890002935
0.0009876198494
0.0009859174967
0.0009850205511
0.0009846485044
0.0009845376388
0.0009845651032
0.0009846778828
0.0009848583417
0.0009851084212
0.000985443616
0.000985893025
0.0009865038222
0.0009873539028
0.0009885805782
0.0009904396277
0.0009935534
545.4174728
243.3972965
50.13133628
7.605908107
0.6707953772
0.03469349825
0.002209902925
0.001073164772
0.0009979496847
0.0009715503671
0.0009587165003
0.0009532407221
0.0009520316267
0.0009535104033
0.0009567094801
0.0009610748887
0.0009663305507
0.0009722128611
0.0009784297043
0.0009846910525
0.0009906940004
0.0009960885508
0.00100062061
0.001004076953
0.001006424471
0.001007676023
0.001007965026
0.001007471398
0.001006396234
0.001004939457
0.001003276786
0.001001554491
0.0009998822502
0.0009983351879
0.000996956063
0.0009957608924
0.0009947429865
0.0009938770799
0.000993122378
0.0009924254031
0.0009917234698
0.0009909517834
0.0009900505722
0.0009889464169
0.0009875329198
0.0009858655902
0.0009850245933
0.0009846784533
0.0009845806427
0.0009846162906
0.0009847360002
0.0009849237328
0.0009851821049
0.0009855268682
0.0009859871614
0.0009866100214
0.0009874730469
0.0009887126317
0.000990581985
0.0009936924441
548.0478872
185.7275625
39.83418553
5.434634824
0.3992702382
0.01734991061
0.001546468077
0.001047687647
0.0009959033611
0.0009738819168
0.0009634640867
0.000959508522
0.0009593280352
0.0009615274537
0.0009652517637
0.0009700149908
0.0009755235028
0.0009814862987
0.000987593634
0.0009935082367
0.0009989513174
0.001003600719
0.001007250754
0.001009785547
0.001011211355
0.001011610539
0.001011145567
0.00101001287
0.001008411302
0.001006530687
0.001004531404
0.001002543727
0.001000662322
0.0009989495396
0.0009974377757
0.0009961349953
0.000995028449
0.0009940884738
0.0009932711703
0.0009925208173
0.0009917728269
0.0009909605769
0.000990023462
0.0009888880259
0.0009874397173
0.0009858174944
0.0009850295057
0.0009847082172
0.00098462318
0.000984667035
0.0009847938206
0.0009849890356
0.0009852559635
0.0009856106245
0.0009860822118
0.0009867176281
0.0009875941515
0.0009888471013
0.0009907266319
0.0009938315849
550.2524686
146.7707562
30.87589631
3.748875932
0.2187382724
0.007920591212
0.001240137577
0.001035227118
0.0009958714597
0.0009775361402
0.0009692618243
0.0009666616982
0.0009673785394
0.0009701989947
0.0009743511025
0.0009793938828
0.0009850115157
0.0009908871119
0.0009966922927
0.001002092753
0.001006823165
0.001010617278
0.001013332453
0.001014934198
0.001015470466
0.001015073694
0.001013923011
0.001012220228
0.001010155865
0.001007906445
0.001005616319
0.001003400315
0.001001339276
0.0009994840923
0.00099785803
0.0009964620407
0.0009952781472
0.000994272932
0.0009933998827
0.0009926014207
0.0009918113681
0.0009909614914
0.0009899905007
0.0009888253572
0.0009873401257
0.0009857732343
0.0009850354104
0.000984737938
0.0009846653937
0.0009847174798
0.0009848514902
0.0009850543999
0.0009853301479
0.0009856950316
0.0009861783079
0.0009868267448
0.0009877172683
0.0009889839409
0.0009908734507
0.0009939707136
549.9634625
125.7674369
25.0536784
2.49258919
0.104806695
0.003360088934
0.001121343914
0.001029623782
0.0009975469205
0.0009823834974
0.0009760099835
0.0009745785799
0.000976072223
0.000979404641
0.000983871813
0.000989057236
0.0009946234449
0.001000235458
0.001005560178
0.001010294775
0.00101419444
0.001017065067
0.001018830052
0.0010195223
0.001019223006
0.001018098341
0.001016333783
0.001014128449
0.0010116608
0.001009092562
0.001006552363
0.001004140628
0.001001925738
0.0009999484331
0.0009982240021
0.0009967473192
0.0009954959134
0.0009944331704
0.0009935103888
0.000992668463
0.0009918398928
0.0009909550142
0.0009899519641
0.0009887586909
0.0009872340125
0.0009857327863
0.0009850424022
0.0009847677417
0.0009847074162
0.0009847677593
0.0009849091456
0.0009851199647
0.0009854047971
0.0009857802224
0.0009862755668
0.0009869374583
0.0009878424319
0.0009891231019
0.0009910223032
0.0009941097088
545.5722259
116.6910974
20.61640836
1.540260504
0.04051991312
0.001639963708
0.001085705339
0.001027609704
0.00100072333
0.0009883164146
0.0009835586648
0.0009831460242
0.0009852931339
0.0009890150892
0.0009936657914
0.0009988387522
0.001004182922
0.001009359231
0.001014049755
0.001017993958
0.001020985426
0.00102290598
0.001023739719
0.001023570693
0.00102250339
0.001020724036
0.00101841663
0.001015772285
0.001012955531
0.001010113011
0.001007358552
0.001004779468
0.001002433063
0.001000351171
0.0009985421446
0.0009969956055
0.0009956852255
0.000994571673
0.0009936044195
0.0009927231155
0.0009918591679
0.00099094163
0.0009899081392
0.0009886883504
0.0009871211961
0.000985696093
0.0009850505542
0.0009847977404
0.0009847493693
0.000984817998
0.0009849669135
0.0009851858577
0.000985480037
0.0009858663157
0.00098637409
0.0009870498391
0.0009879696598
0.0009892645222
0.0009911730366
0.0009942484378
536.058922
115.6975619
16.76983518
0.87822917
0.01240187926
0.001221620452
0.001075483955
0.001027967936
0.001005241387
0.0009951616855
0.0009918123069
0.0009922632999
0.0009949234734
0.0009988925042
0.001003573788
0.001008566398
0.00101351853
0.001018103221
0.001022034602
0.001025103762
0.00102715258
0.001028133088
0.001028080683
0.001027114823
0.001025353655
0.001022992951
0.001020209982
0.001017184718
0.001014067198
0.001010989507
0.001008051917
0.001005330006
0.001002871331
0.001000699949
0.0009988181976
0.0009972111634
0.0009958492062
0.0009946906859
0.0009936835553
0.0009927664621
0.0009918699175
0.0009909218123
0.0009898593156
0.0009886147093
0.0009870014134
0.0009856630756
0.0009850599226
0.0009848280335
0.0009847913644
0.0009848683107
0.0009850249096
0.0009852521946
0.0009855559806
0.0009859534155
0.0009864739628
0.0009871639397
0.0009880989502
0.0009894081197
0.0009913254832
0.000994386756
521.3454256
108.8175547
12.81741842
0.4536211632
0.003329220816
0.001162619483
0.001070880782
0.00103004423
0.001010889803
0.001002826893
0.001000671892
0.001001813579
0.001004825468
0.001008880535
0.001013426034
0.001018070253
0.00102247504
0.001026340469
0.001029424528
0.001031573498
0.001032685457
0.00103276442
0.001031888476
0.00103019856
0.00102781889
0.001024946952
0.001021750239
0.001018396045
0.001015020243
0.001011741358
0.001008647491
0.001005803827
0.0010032494
0.001001001492
0.0009990572276
0.0009973977718
0.0009959906379
0.0009947922237
0.0009937492253
0.0009927994943
0.0009918728174
0.0009908960175
0.0009898057766
0.0009885382015
0.0009868884306
0.000985633641
0.0009850705495
0.0009848587087
0.0009848335029
0.000984918802
0.0009850832392
0.0009853190793
0.0009856327272
0.0009860416108
0.0009865752538
0.0009872797948
0.000988230282
0.0009895537936
0.0009914794599
0.0009945245107
501.6503583
97.41227992
9.114761998
0.2054345908
0.001675620297
0.001146787389
0.001068728036
0.001033614407
0.001017531441
0.001011182544
0.001010000198
0.001011645867
0.001014835055
0.001018807453
0.001023051853
0.001027194415
0.001030923944
0.001033978802
0.001036167024
0.001037390412
0.001037599879
0.001036835328
0.001035208056
0.001032869397
0.001029943981
0.001026625739
0.001023070806
0.00101943347
0.00101583631
0.001012385522
0.001009158416
0.001006211045
0.001003575006
0.001001261687
0.0009992636835
0.0009975587639
0.0009961119877
0.0009948780842
0.0009938027154
0.0009928231151
0.0009918684951
0.0009908646849
0.0009897477944
0.0009884587865
0.0009867840963
0.0009856076881
0.0009850824661
0.000984889843
0.0009848758757
0.0009849695664
0.0009851419963
0.0009853866035
0.0009857103626
0.0009861309751
0.000986678014
0.0009873974202
0.0009883636133
0.0009897014237
0.0009916347684
0.0009946615419
477.6095246
83.43775902
6.043316867
0.09167683666
0.001416336188
0.001136033462
0.001068675831
0.001038457295
0.001024986722
0.001020059794
0.001019627221
0.001021585739
0.00102477642
0.001028502813
0.001032296063
0.001035810489
0.001038772093
0.001040963964
0.001042245596
0.001042570969
0.001041930425
0.00104039205
0.00103808912
0.001035175313
0.001031771802
0.001028065882
0.001024201723
0.001020321068
0.001016534369
0.001012936774
0.001009596117
0.001006560447
0.001003854883
0.00100148567
0.0009994414631
0.0009976970728
0.0009962154381
0.0009949498679
0.0009938451797
0.0009928381445
0.0009918575327
0.0009908282384
0.0009896856473
0.0009883763661
0.0009866879774
0.0009855851115
0.0009850956941
0.0009849215034
0.0009849185639
0.0009850206877
0.000985201264
0.0009854548462
0.0009857889578
0.0009862215654
0.0009867822765
0.0009875168117
0.0009884988805
0.0009898508702
0.0009917911955
0.0009947976796
449.5063268
69.64539343
3.874716873
0.04072845486
0.001308271429
0.001128819098
0.001070382626
0.001044328218
0.001033051417
0.001029268811
0.001029367852
0.001031452044
0.001034477639
0.001037811495
0.001041029723
0.001043823632
0.001045962443
0.001047275684
0.001047671752
0.001047148941
0.001045723054
0.001043485581
0.001040581778
0.001037162018
0.001033341747
0.001029300091
0.001025169421
0.001021079791
0.001017130825
0.001013407857
0.001009970439
0.001006859617
0.001004094856
0.001001677902
0.0009995939643
0.0009978152681
0.000996302912
0.0009950089939
0.0009938776499
0.0009928453246
0.0009918404692
0.0009907870883
0.0009896196213
0.0009882908367
0.0009865996604
0.0009855658034
0.0009851102466
0.0009849537472
0.0009849616384
0.0009850722394
0.0009852611132
0.000985523873
0.0009858685694
0.000986313422
0.0009868880553
0.0009876379442
0.0009886359978
0.0009900019724
0.000991948513
0.0009949327429
417.1435829
56.45270394
2.471511202
0.01553205224
0.001258375668
0.001124526294
0.001073539254
0.001050988152
0.001041517546
0.001038615792
0.001039037677
0.001041072431
0.001043784908
0.001046605348
0.001049157374
0.001051174807
0.001052471706
0.001052921913
0.001052477322
0.001051170088
0.001049029318
0.001046167634
0.001042733987
0.001038871505
0.001034689104
0.001030357104
0.001025996862
0.00102172772
0.001017639784
0.001013809714
0.001010289847
0.001007115089
0.001004299963
0.001001842255
0.0009997241507
0.0009979156026
0.0009963761049
0.0009950567229
0.0009939010512
0.0009928453304
0.0009918178074
0.0009907416376
0.0009895500166
0.0009882020607
0.000986518754
0.0009855496561
0.0009851261296
0.000984986622
0.0009850051598
0.0009851242836
0.000985321603
0.0009855937363
0.0009859492382
0.0009864065674
0.0009869953447
0.000987760771
0.0009887748557
0.0009901545478
0.0009921064772
0.0009950665413
380.544676
44.44013309
1.516336828
0.00655170429
0.001233178162
0.001122581677
0.001077829159
0.001058197011
0.00105017802
0.001047912218
0.001048465507
0.001050296633
0.001052574324
0.001054791887
0.001056621276
0.001057840594
0.00105830673
0.001057933092
0.001056707822
0.001054685489
0.001051902781
0.001048488599
0.001044590429
0.001040341692
0.001035845127
0.001031262052
0.001026703945
0.001022280457
0.001018073391
0.001014151768
0.001010561639
0.001007332514
0.001004474572
0.001001982103
0.0009998346163
0.000998000058
0.000996436517
0.0009950941774
0.0009939162146
0.0009928387762
0.0009917900169
0.000990692284
0.0009894771531
0.0009881098308
0.0009864448866
0.0009855365614
0.0009851433421
0.0009850201668
0.0009850491789
0.0009851768719
0.0009853827802
0.0009856644741
0.0009860309891
0.000986501006
0.0009871041186
0.0009878852229
0.0009889153209
0.0009903083925
0.000992264827
0.0009951988801
340.8498548
33.43614571
0.8672962921
0.003227064171
0.001218149867
0.001122507179
0.001082951722
0.001065732134
0.001058841366
0.001056985802
0.001057502889
0.001059004381
0.001060756827
0.00106231511
0.001063398332
0.001063827177
0.001063496898
0.001062354344
0.001060415866
0.001057748175
0.001054395924
0.001050495563
0.001046191457
0.001041606135
0.001036837031
0.001032036654
0.001027307764
0.00102275137
0.001018442046
0.001014442102
0.001010792092
0.001007516769
0.001004622472
0.001002100382
0.0009999276311
0.0009980703785
0.0009964854773
0.0009951223603
0.0009939238905
0.0009928262259
0.0009917575418
0.000990639428
0.0009894013866
0.0009880138371
0.0009863777079
0.0009855264122
0.0009851618765
0.0009850544109
0.0009850937359
0.0009852300437
0.000985444678
0.0009857361095
0.0009861138295
0.000986596722
0.0009872143286
0.000988011206
0.0009890572343
0.0009904632803