/*--------------------------------*- C++ -*----------------------------------*\
  =========                 |
  \\      /  F ield         | OpenFOAM: The Open Source CFD Toolbox
   \\    /   O peration     | Website:  https://openfoam.org
    \\  /    A nd           | Version:  12
     \\/     M anipulation  |
\*---------------------------------------------------------------------------*/
FoamFile
{
    format      ascii;
    class       volScalarField;
    location    "350";
    object      nut;
}
// * * * * * * * * * * * * * * * * * * * * * * * * * * * * * * * * * * * * * //

dimensions      [0 2 -1 0 0 0 0];

internalField   nonuniform List<scalar> 
16200
(
0.0005045666641
0.001707821683
0.002843122551
0.003732891166
0.004028381426
0.003564489597
0.002620321264
0.001436473409
0.0007160145277
0.0002465964694
7.583578194e-06
2.785216781e-06
2.513896737e-06
2.415381126e-06
1.901888996e-06
1.630423954e-06
1.414891223e-06
1.265577154e-06
1.171853951e-06
1.113936419e-06
1.083007436e-06
1.075022746e-06
1.085979319e-06
1.11343621e-06
1.156733169e-06
1.217147797e-06
1.298174656e-06
1.406202968e-06
1.551849069e-06
1.752566851e-06
2.037517464e-06
2.457114093e-06
3.102092069e-06
4.143394233e-06
5.921172547e-06
9.146375936e-06
1.536004385e-05
2.796940389e-05
5.461600213e-05
0.0001126168866
0.0002417015038
0.0005338190436
0.001002398131
0.001002227856
0.001001523371
0.001000274379
0.0009992651222
0.0009988449995
0.0009986806407
0.0009986245954
0.0009986133829
0.0009986209331
0.0009986377043
0.0009986617465
0.000998694612
0.000998740952
0.0009988067516
0.000998904541
0.0009990484014
0.000999277099
0.000497246868
0.001671138116
0.002752230419
0.003547201768
0.003676570492
0.00308727261
0.00215135652
0.001057595223
0.0005764117657
5.287584136e-05
2.925453084e-06
2.34221301e-06
2.123976285e-06
2.086728434e-06
1.696196381e-06
1.450435581e-06
1.255526035e-06
1.120790424e-06
1.038362706e-06
9.88910016e-07
9.640273759e-07
9.596339613e-07
9.719703477e-07
9.987540919e-07
1.03946248e-06
1.095403195e-06
1.169996942e-06
1.269436567e-06
1.403902465e-06
1.58981065e-06
1.854019554e-06
2.2422887e-06
2.836578418e-06
3.791268359e-06
5.413315522e-06
8.343834437e-06
1.397088661e-05
2.536295132e-05
4.939414836e-05
0.0001016325432
0.0002177581426
0.0004803027284
0.001002251921
0.001002131042
0.001001474662
0.001000307723
0.0009992828092
0.000998855468
0.0009986884019
0.0009986318118
0.0009986209589
0.0009986291351
0.0009986465114
0.0009986709529
0.0009987039995
0.0009987500958
0.000998815488
0.0009989125629
0.0009990564712
0.0009992887726
0.0004907821356
0.001635262953
0.002661331025
0.00335828993
0.003321511312
0.002630633257
0.001697376278
0.0007782363278
0.0004031152453
1.564016818e-05
2.223118397e-06
1.970349096e-06
1.791906168e-06
1.755196928e-06
1.499827323e-06
1.279613785e-06
1.105618049e-06
9.855749037e-07
9.141245005e-07
8.726380305e-07
8.531809307e-07
8.516593019e-07
8.645468516e-07
8.897355944e-07
9.268720575e-07
9.773955032e-07
1.044829588e-06
1.135401002e-06
1.259100999e-06
1.431598671e-06
1.677871061e-06
2.039699649e-06
2.591408735e-06
3.472951114e-06
4.96271132e-06
7.641654206e-06
1.276538044e-05
2.31048659e-05
4.484978503e-05
9.198186167e-05
0.0001964407603
0.0004319325289
0.0009700123066
0.001002053383
0.001001429322
0.001000333373
0.0009993000826
0.0009988676755
0.0009986981225
0.0009986405943
0.0009986296017
0.0009986379761
0.000998655642
0.0009986802857
0.0009987134021
0.0009987592653
0.0009988242575
0.0009989207153
0.0009990645648
0.0009992998799
0.0004860189774
0.001600853683
0.002568271052
0.003136965779
0.002952965692
0.002204440783
0.001220949356
0.0005736431355
0.0002129025106
6.473314855e-06
1.854176514e-06
1.67123723e-06
1.524873629e-06
1.489348488e-06
1.326935052e-06
1.129026771e-06
9.735502934e-07
8.667839668e-07
8.050825734e-07
7.706306158e-07
7.558352747e-07
7.565894249e-07
7.69604417e-07
7.930547165e-07
8.268992959e-07
8.728757673e-07
9.347617393e-07
1.018943539e-06
1.135358561e-06
1.299168651e-06
1.53398835e-06
1.878696441e-06
2.402065811e-06
3.233765927e-06
4.632367294e-06
7.137776175e-06
1.191637243e-05
2.153969189e-05
4.174266962e-05
8.545568272e-05
0.0001821534486
0.0003997349002
0.000895963843
0.001001985329
0.00100138129
0.001000340214
0.0009993102731
0.0009988774993
0.000998707187
0.0009986492484
0.0009986381983
0.0009986467239
0.0009986646189
0.0009986894438
0.0009987226401
0.0009987683433
0.0009988330247
0.0009989289957
0.0009990728445
0.0009993110116
0.0004813911832
0.001566981147
0.002473553309
0.002900454567
0.00258361926
0.001829236092
0.0008699352383
0.0004442322135
5.767658144e-05
2.273129287e-06
1.566150131e-06
1.4194321e-06
1.299994707e-06
1.266963448e-06
1.168910119e-06
9.921743251e-07
8.543012663e-07
7.602141181e-07
7.075122565e-07
6.792724705e-07
6.683102263e-07
6.706469386e-07
6.833676903e-07
7.050774311e-07
7.36139627e-07
7.786334934e-07
8.365952935e-07
9.165600835e-07
1.028419369e-06
1.186910547e-06
1.414543658e-06
1.747871502e-06
2.251205211e-06
3.045996066e-06
4.375211523e-06
6.746706176e-06
1.125711078e-05
2.032064593e-05
3.931088567e-05
8.031436967e-05
0.0001708146368
0.0003739803253
0.0008362778187
0.001001928944
0.001001334215
0.001000334863
0.0009993164809
0.0009988864736
0.0009987164094
0.000998658242
0.0009986470405
0.0009986555714
0.0009986735728
0.0009986985129
0.0009987317719
0.0009987773678
0.0009988418104
0.0009989374114
0.000999081293
0.000999322057
0.0004764973514
0.001532647735
0.002375405971
0.00265666473
0.00221713778
0.001463022212
0.0006455117843
0.0003175945976
1.878631969e-05
1.637694087e-06
1.330302298e-06
1.210167995e-06
1.11270072e-06
1.08221195e-06
1.026901859e-06
8.692022245e-07
7.471727348e-07
6.64577742e-07
6.197653008e-07
5.968068774e-07
5.890162819e-07
5.926759957e-07
6.052974624e-07
6.259120923e-07
6.552417e-07
6.956856392e-07
7.515540777e-07
8.295525661e-07
9.395624836e-07
1.096022947e-06
1.320665963e-06
1.648382942e-06
2.140232856e-06
2.91169822e-06
4.194698473e-06
6.474868348e-06
1.080059814e-05
1.94764974e-05
3.762187932e-05
7.672293702e-05
0.0001628331872
0.00035569086
0.0007935066952
0.001001882058
0.001001288114
0.00100031676
0.0009993180399
0.0009988940645
0.0009987254117
0.000998667324
0.0009986559704
0.0009986644226
0.000998682451
0.0009987074661
0.0009987407879
0.0009987863323
0.0009988506188
0.000998945967
0.0009990899384
0.0009993330911
0.0004710009366
0.001496963271
0.002271814983
0.002397304115
0.001863420553
0.001067608454
0.0004819385311
0.0001946766753
7.364421239e-06
1.348498728e-06
1.132217549e-06
1.032371679e-06
9.523951308e-07
9.243291191e-07
8.961532619e-07
7.56196359e-07
6.49035294e-07
5.775003905e-07
5.402192071e-07
5.223498068e-07
5.177249358e-07
5.229298811e-07
5.359054776e-07
5.561076985e-07
5.846234739e-07
6.240884817e-07
6.793486002e-07
7.571673184e-07
8.674035998e-07
1.024258016e-06
1.249334534e-06
1.575783755e-06
2.062583315e-06
2.820895356e-06
4.074891311e-06
6.295096103e-06
1.049713156e-05
1.89100162e-05
3.647432615e-05
7.424638055e-05
0.0001572392201
0.0003426584953
0.0007625445815
0.001001843311
0.001001243637
0.001000288461
0.0009993158293
0.000998900532
0.0009987342475
0.0009986764933
0.0009986649818
0.0009986732795
0.0009986912639
0.000998716318
0.0009987497052
0.0009987952508
0.0009988594623
0.0009989546699
0.0009990987888
0.0009993441159
0.0004642521043
0.001458441601
0.002159964215
0.002123733109
0.001539842193
0.0007676467038
0.0003713371143
7.882814266e-05
2.682617818e-06
1.132858014e-06
9.626072324e-07
8.792726562e-07
8.135882072e-07
7.883282077e-07
7.76379154e-07
6.534726832e-07
5.60652061e-07
5.000087995e-07
4.700924933e-07
4.571763589e-07
4.556090862e-07
4.623227765e-07
4.75754586e-07
4.958823042e-07
5.24133221e-07
5.638322827e-07
6.197420756e-07
6.98876966e-07
8.110924459e-07
9.704740157e-07
1.197930364e-06
1.527144158e-06
2.014444841e-06
2.768462938e-06
4.008505292e-06
6.196214108e-06
1.032805609e-05
1.858745101e-05
3.580287833e-05
7.275137293e-05
0.000153749504
0.0003342642292
0.0007420092889
0.001001810782
0.001001200701
0.001000251618
0.0009993102789
0.0009989058938
0.0009987428297
0.0009986856619
0.0009986740136
0.0009986821084
0.0009986999992
0.0009987250692
0.0009987585325
0.0009988041323
0.0009988683509
0.000998963527
0.0009991078559
0.0009993551525
0.0004560509665
0.001414875489
0.002021262972
0.001844141495
0.001241005737
0.0005662763061
0.0002846729903
3.701533043e-05
1.529838336e-06
9.571549091e-07
8.212547007e-07
7.511400683e-07
6.970387014e-07
6.74670856e-07
6.711831784e-07
5.637967683e-07
4.840261099e-07
4.333658683e-07
4.100116944e-07
4.013620215e-07
4.02333749e-07
4.102757064e-07
4.240268705e-07
4.444037577e-07
4.732463602e-07
5.139530066e-07
5.715655927e-07
6.531789927e-07
7.686825203e-07
9.321703262e-07
1.164520742e-06
1.499036203e-06
1.991356302e-06
2.748320201e-06
3.986724632e-06
6.164424603e-06
1.026988479e-05
1.846542699e-05
3.552172467e-05
7.205887965e-05
0.0001519758749
0.0003296435159
0.0007299381273
0.001001782707
0.001001159061
0.001000208282
0.0009993020408
0.0009989102883
0.000998751136
0.0009986947777
0.0009986830247
0.0009986908875
0.0009987086518
0.0009987337255
0.0009987672815
0.0009988129889
0.0009988772955
0.0009989725456
0.0009991171468
0.000999366211
0.0004460896978
0.001365526423
0.001853939121
0.001565278505
0.000917813318
0.000422296009
0.0002017663422
1.881974083e-05
1.151193834e-06
8.118988218e-07
7.029641338e-07
6.438995243e-07
5.993342889e-07
5.799172054e-07
5.798507149e-07
4.863360558e-07
4.181612599e-07
3.76348083e-07
3.585528397e-07
3.533630303e-07
3.563711763e-07
3.652823984e-07
3.798968084e-07
4.010082209e-07
4.309834285e-07
4.734879443e-07
5.336588214e-07
6.18644278e-07
7.384379691e-07
9.072839818e-07
1.146227216e-06
1.488531186e-06
1.989674668e-06
2.75571792e-06
4.00297083e-06
6.189890822e-06
1.03065605e-05
1.851531398e-05
3.557574854e-05
7.205618666e-05
0.0001516773989
0.0003282648926
0.0007251327434
0.00100175743
0.001001118246
0.001000160251
0.0009992916911
0.0009989138334
0.0009987591394
0.0009987037867
0.0009986919728
0.0009986995939
0.0009987172153
0.0009987422917
0.0009987759634
0.0009988218324
0.000998886307
0.0009989817335
0.0009991266678
0.0009993773013
0.0004343206055
0.001310373499
0.00167097307
0.001298415027
0.000656801559
0.0003208127842
0.0001317927865
1.232842986e-05
9.361299731e-07
6.886763759e-07
6.017587382e-07
5.517145222e-07
5.14973717e-07
4.982794864e-07
4.985215981e-07
4.178398877e-07
3.604181151e-07
3.268325189e-07
3.14065717e-07
3.119166556e-07
3.165348275e-07
3.268001032e-07
3.424804783e-07
3.648582481e-07
3.965644724e-07
4.414667486e-07
5.0481322e-07
5.938306862e-07
7.186798593e-07
8.938798696e-07
1.140807321e-06
1.492965923e-06
2.006110823e-06
2.786392758e-06
4.051380195e-06
6.263927372e-06
1.042404644e-05
1.871228945e-05
3.591741702e-05
7.264635321e-05
0.0001526470866
0.0003296717568
0.0007265629568
0.00100173354
0.001001077689
0.001000109176
0.0009992797883
0.0009989166628
0.0009987668312
0.0009987126489
0.0009987008244
0.0009987082096
0.0009987256861
0.000998750774
0.0009987845901
0.0009988306751
0.0009988953966
0.0009989910996
0.0009991364232
0.0009993884299
0.000420801912
0.001248847637
0.001481501579
0.001039539058
0.0004860392123
0.0002487429811
6.328017414e-05
6.533911622e-06
7.589879617e-07
5.848575448e-07
5.146338233e-07
4.717781181e-07
4.410875528e-07
4.267026133e-07
4.253238278e-07
3.566435932e-07
3.094354182e-07
2.837285105e-07
2.757415663e-07
2.762875724e-07
2.828269269e-07
2.943083162e-07
3.11247972e-07
3.352926545e-07
3.691812915e-07
4.168956654e-07
4.838365284e-07
5.773735562e-07
7.078784204e-07
8.902371089e-07
1.146300479e-06
1.510043679e-06
2.037870142e-06
2.836784506e-06
4.12715953e-06
6.379611015e-06
1.061143974e-05
1.903750988e-05
3.651127875e-05
7.375796444e-05
0.0001547336413
0.0003335318359
0.0007334807399
0.001001709873
0.00100103678
0.001000056449
0.0009992668209
0.0009989189019
0.0009987742106
0.0009987213332
0.0009987095525
0.0009987167207
0.0009987340627
0.0009987591798
0.0009987931736
0.0009988395299
0.0009989045761
0.0009990006518
0.0009991464145
0.0009993996015
0.0004054451362
0.001179114121
0.001286118314
0.0007812049361
0.0003681578858
0.0001896119277
3.040261698e-05
3.164252254e-06
6.147314037e-07
4.96323774e-07
4.391994574e-07
4.028481532e-07
3.772816084e-07
3.652109276e-07
3.613921592e-07
3.036378824e-07
2.657167574e-07
2.470415296e-07
2.431812019e-07
2.462838119e-07
2.545538011e-07
2.673077042e-07
2.856499831e-07
3.115854914e-07
3.479528216e-07
3.987806635e-07
4.696140264e-07
5.680348886e-07
7.046730936e-07
8.948431314e-07
1.160993729e-06
1.537768013e-06
2.082539162e-06
2.903845928e-06
4.226258629e-06
6.531189614e-06
1.085984886e-05
1.947586783e-05
3.732928679e-05
7.533504108e-05
0.0001578191539
0.0003395869983
0.0007453057504
0.001001685521
0.001000994924
0.001000003216
0.0009992532084
0.0009989206685
0.0009987812857
0.0009987298189
0.0009987181377
0.0009987251178
0.000998742346
0.0009987675172
0.0009988017264
0.0009988484092
0.0009989138562
0.0009990103941
0.0009991566399
0.0009994108194
0.0003885171421
0.00110000863
0.001088746448
0.0005749112358
0.0002876856782
0.0001413827323
1.823216083e-05
1.735285952e-06
5.044487047e-07
4.216326324e-07
3.759673571e-07
3.451126218e-07
3.237854803e-07
3.137636944e-07
3.071541411e-07
2.590168995e-07
2.292367564e-07
2.165211668e-07
2.156970132e-07
2.211247003e-07
2.308985947e-07
2.450762767e-07
2.65019514e-07
2.929928171e-07
3.320218363e-07
3.861944796e-07
4.611499927e-07
5.647230161e-07
7.0787017e-07
9.063797359e-07
1.183460083e-06
1.57441801e-06
2.138056006e-06
2.985005062e-06
4.34531538e-06
6.713989532e-06
1.116222096e-05
2.001565108e-05
3.835009917e-05
7.733555541e-05
0.0001618158636
0.0003476460206
0.0007616089465
0.001001659803
0.001000951573
0.0009999503765
0.0009992392962
0.0009989220676
0.00099878807
0.0009987380935
0.0009987265673
0.0009987333959
0.000998750539
0.0009987757955
0.000998810261
0.0009988573258
0.000998923247
0.0009990203263
0.0009991670964
0.0009994220853
0.0003710567288
0.001014438453
0.0008795748252
0.0004355225524
0.0002305421483
0.0001012507397
1.271870422e-05
1.005490924e-06
4.184012227e-07
3.585558013e-07
3.223891265e-07
2.962693494e-07
2.78268558e-07
2.699879732e-07
2.607291949e-07
2.212640687e-07
1.987859765e-07
1.912087226e-07
1.93115443e-07
2.001932303e-07
2.112626363e-07
2.269199369e-07
2.486528159e-07
2.788344696e-07
3.206544419e-07
3.783229239e-07
4.575692087e-07
5.664841899e-07
7.164265458e-07
9.237000983e-07
1.212280546e-06
1.618511642e-06
2.202659821e-06
3.078090013e-06
4.481534611e-06
6.924204977e-06
1.151295086e-05
2.064777461e-05
3.955750039e-05
7.972806509e-05
0.0001666587766
0.0003575680704
0.0007820750612
0.001001632234
0.001000906248
0.0009998986114
0.0009992253605
0.0009989231907
0.0009987945813
0.0009987461521
0.0009987348347
0.0009987415536
0.0009987586468
0.0009987840247
0.0009988187899
0.0009988662921
0.0009989327583
0.0009990304479
0.0009991777807
0.0009994333996
0.000354004397
0.0009214267314
0.000706902849
0.0003504887717
0.000192320919
5.583982309e-05
7.662766935e-06
6.30139936e-07
3.483022295e-07
3.036921357e-07
2.74632206e-07
2.534101995e-07
2.384603396e-07
2.319786758e-07
2.207767293e-07
1.893689677e-07
1.734935156e-07
1.700154995e-07
1.744146215e-07
1.828866338e-07
1.952018443e-07
2.123457828e-07
2.359598501e-07
2.685215895e-07
3.132295128e-07
3.744520969e-07
4.580905065e-07
5.724787534e-07
7.29428565e-07
9.458053448e-07
1.246418859e-06
1.668777254e-06
2.274855337e-06
3.181280435e-06
4.632614547e-06
7.158775215e-06
1.190765895e-05
2.136535245e-05
4.093953269e-05
8.248987545e-05
0.0001723016552
0.0003692537495
0.0008064822775
0.001001602489
0.001000858547
0.0009998484157
0.0009992116155
0.0009989241161
0.00099880084
0.0009987539957
0.0009987429383
0.0009987495932
0.0009987666764
0.0009987922155
0.0009988273256
0.0009988753201
0.0009989423998
0.0009990407608
0.0009991886882
0.0009994447605
0.0003400148526
0.0008203323178
0.0005680980882
0.0002937093172
0.0001608426637
3.058022889e-05
3.646700966e-06
4.370627518e-07
2.916888687e-07
2.571616629e-07
2.337918871e-07
2.163923331e-07
2.044097855e-07
1.995199031e-07
1.869791611e-07
1.628504428e-07
1.527638146e-07
1.528677526e-07
1.589876121e-07
1.686778599e-07
1.822696105e-07
2.009544042e-07
2.265273547e-07
2.615312938e-07
3.091693791e-07
3.739427144e-07
4.620171864e-07
5.819703722e-07
7.460826032e-07
9.718374959e-07
1.284919535e-06
1.724134344e-06
2.353385766e-06
3.293067053e-06
4.79668256e-06
7.415275821e-06
1.234299489e-05
2.216332187e-05
4.248773781e-05
8.560544261e-05
0.0001787135415
0.0003826373296
0.0008346845726
0.001001570372
0.001000808148
0.0009998001308
0.0009991982228
0.0009989249093
0.0009988068677
0.0009987616298
0.0009987508808
0.0009987575193
0.0009987746358
0.0009988003787
0.0009988358803
0.0009988844213
0.0009989521792
0.0009990512652
0.0009991998137
0.0009994561652
0.0003320322764
0.000714731916
0.0004660809358
0.0002439983762
0.0001298282571
1.822110813e-05
1.75510329e-06
3.233473136e-07
2.460181682e-07
2.185711646e-07
1.995327507e-07
1.851011783e-07
1.754793633e-07
1.72001165e-07
1.587376723e-07
1.410888606e-07
1.356754379e-07
1.388427943e-07
1.463551801e-07
1.571901159e-07
1.72081251e-07
1.923617858e-07
2.199641954e-07
2.57349211e-07
3.079049423e-07
3.762150374e-07
4.687337073e-07
5.943137921e-07
7.657014247e-07
1.001042399e-06
1.326968898e-06
1.783672856e-06
2.43720594e-06
3.412214144e-06
4.972238772e-06
7.69182707e-06
1.281647698e-05
2.303814107e-05
4.419655355e-05
8.906510892e-05
0.0001858760128
0.000397680651
0.0008665979962
0.00100153578
0.0010007548
0.0009997539766
0.0009991853005
0.000998925625
0.0009988126869
0.0009987690637
0.0009987586681
0.000998765339
0.0009987825343
0.0009988085254
0.0009988444657
0.0009988936061
0.0009989621028
0.0009990619584
0.0009992111503
0.0009994676095
0.0003329335438
0.000609839168
0.0003757083814
0.000207625622
0.0001015419019
1.200813099e-05
8.520934585e-07
2.517980442e-07
2.078040733e-07
1.856708085e-07
1.70103443e-07
1.582340363e-07
1.506291017e-07
1.485212745e-07
1.353841171e-07
1.235491378e-07
1.222133249e-07
1.274341959e-07
1.361179015e-07
1.480849209e-07
1.642906968e-07
1.861917909e-07
2.157882283e-07
2.554869854e-07
3.089231848e-07
3.807624951e-07
4.777130208e-07
6.089542482e-07
7.87696859e-07
1.032797997e-06
1.3718845e-06
1.846637621e-06
2.525459449e-06
3.53772616e-06
5.158106319e-06
7.987016334e-06
1.332636284e-05
2.398755794e-05
4.606287148e-05
9.286420822e-05
0.0001937812847
0.0004143689658
0.0009021914662
0.001001498685
0.001000698309
0.0009997100789
0.0009991729317
0.0009989263083
0.0009988183198
0.000998776309
0.0009987663085
0.0009987730606
0.0009987903817
0.0009988166666
0.0009988530931
0.0009989028844
0.0009989721764
0.0009990728487
0.0009992226882
0.0009994790868
0.0003439234266
0.0005126341093
0.0003159249994
0.0001841919371
5.841525194e-05
7.73154003e-06
4.447592989e-07
2.030169976e-07
1.753892082e-07
1.575003023e-07
1.448746624e-07
1.353069821e-07
1.295667326e-07
1.28697525e-07
1.164837974e-07
1.097341616e-07
1.115848538e-07
1.182594764e-07
1.27949873e-07
1.410149339e-07
1.58533426e-07
1.820321034e-07
2.135260678e-07
2.555317679e-07
3.117954268e-07
3.871451219e-07
4.885019452e-07
6.254154763e-07
8.115715742e-07
1.066576843e-06
1.419102264e-06
1.912413344e-06
2.617459543e-06
3.66882157e-06
5.353392882e-06
8.299836673e-06
1.387154293e-05
2.501041015e-05
4.808563584e-05
9.700221711e-05
0.0002024303573
0.0004327067869
0.0009414773609
0.001001459113
0.001000638528
0.0009996684934
0.0009991611719
0.000998926996
0.0009988237882
0.0009987833791
0.000998773812
0.0009987806939
0.0009987981881
0.0009988248131
0.0009988617728
0.0009989122649
0.0009989824076
0.000999083951
0.0009992344205
0.0009994905891
0.0003627872323
0.0004756253326
0.0002779488928
0.0001662973215
3.114214758e-05
3.195775852e-06
2.646990918e-07
1.677878151e-07
1.48611151e-07
1.34054548e-07
1.238236897e-07
1.162140545e-07
1.121334587e-07
1.122278688e-07
1.015744093e-07
9.894545402e-08
1.032041114e-07
1.109433879e-07
1.215410083e-07
1.356624686e-07
1.544721525e-07
1.795191412e-07
2.128467336e-07
2.571422358e-07
3.161708365e-07
3.949863524e-07
5.00714927e-07
6.432968498e-07
8.369116182e-07
1.101946742e-06
1.468166534e-06
1.980510581e-06
2.712669854e-06
3.804906563e-06
5.557454133e-06
8.629633343e-06
1.445145626e-05
2.610648071e-05
5.026557513e-05
0.0001014822228
0.0002118318951
0.0004527154136
0.0009845046701
0.00100141713
0.00100057534
0.0009996292249
0.0009991500558
0.0009989277182
0.0009988291128
0.0009987902883
0.0009987811899
0.0009987882489
0.0009988059638
0.0009988329752
0.0009988705147
0.0009989217555
0.0009989928026
0.0009990952591
0.0009992463451
0.0009995021076
0.0003852706152
0.000415087774
0.0002487841573
0.0001472917318
1.686242037e-05
1.223500518e-06
1.815635489e-07
1.410098808e-07
1.266953157e-07
1.147367531e-07
1.063896667e-07
1.005351101e-07
9.767152497e-08
9.809200117e-08
9.003958852e-08
9.077599665e-08
9.655978701e-08
1.051452864e-07
1.165999118e-07
1.317566431e-07
1.518227044e-07
1.783715124e-07
2.134958177e-07
2.600107582e-07
3.21741539e-07
4.039632894e-07
5.140246253e-07
6.622636837e-07
8.633750662e-07
1.138555003e-06
1.518710017e-06
2.050540159e-06
2.810671611e-06
3.945532365e-06
5.769836165e-06
8.976021974e-06
1.506596518e-05
2.727629042e-05
5.26048306e-05
0.0001063102133
0.0002220008001
0.0004744299486
0.001002050724
0.001001372832
0.001000508636
0.0009995922421
0.000999139602
0.0009989284995
0.0009988343134
0.0009987970515
0.000998788454
0.0009987957361
0.0009988137187
0.0009988411627
0.0009988793275
0.0009989313632
0.0009990033649
0.0009991067591
0.0009992584566
0.0009995136326
0.0004120553337
0.0003800940265
0.0002348395397
0.0001261470957
9.822880022e-06
4.395669646e-07
1.406384203e-07
1.196234557e-07
1.084207728e-07
9.857470755e-08
9.193830293e-08
8.740496655e-08
8.561191813e-08
8.51333664e-08
8.125136252e-08
8.447472554e-08
9.127655156e-08
1.006043908e-07
1.128935835e-07
1.29065605e-07
1.503437296e-07
1.783428857e-07
2.152125754e-07
2.638675671e-07
3.282368109e-07
4.138050472e-07
5.281597081e-07
6.820431307e-07
8.906876164e-07
1.176123597e-06
1.570448555e-06
2.122207335e-06
2.911156849e-06
4.090386643e-06
5.9902633e-06
9.338869269e-06
1.571532121e-05
2.852103044e-05
5.510681281e-05
0.0001114947541
0.0002329574628
0.0004978975362
0.001002021423
0.001001326344
0.001000438305
0.0009995574891
0.0009991298174
0.0009989293596
0.0009988394085
0.0009988036833
0.0009987956161
0.0009988031661
0.0009988214626
0.0009988493844
0.0009988882188
0.0009989410937
0.000999014096
0.000999118444
0.0009992707449
0.0009995251528
0.0004402068312
0.0003658221493
0.0002298322711
8.380288487e-05
4.596059124e-06
1.827249212e-07
1.164040293e-07
1.019240971e-07
9.300218949e-08
8.507753267e-08
7.967180428e-08
7.63522176e-08
7.5596392e-08
7.50789886e-08
7.463973753e-08
7.952219178e-08
8.709988729e-08
9.712245423e-08
1.102281643e-07
1.273806493e-07
1.498164485e-07
1.792079769e-07
2.177602701e-07
2.684845872e-07
3.354300772e-07
4.242893866e-07
5.429012735e-07
7.024195145e-07
9.186372231e-07
1.21444314e-06
1.623174264e-06
2.195303777e-06
3.013918602e-06
4.239280702e-06
6.218620142e-06
9.718265417e-06
1.640011838e-05
2.984247496e-05
5.77760225e-05
0.0001170466022
0.0002447269093
0.0005231754843
0.001001989177
0.00100127782
0.001000364206
0.0009995248946
0.0009991207003
0.0009989303144
0.0009988444149
0.000998810198
0.0009988026881
0.0009988105487
0.0009988292045
0.0009988576486
0.0009988971953
0.0009989509516
0.000999024996
0.0009991303076
0.000999283199
0.0009995366552
0.000483794304
0.0003675233923
0.0002298456109
4.041786396e-05
1.198108436e-06
1.163520949e-07
9.866155582e-08
8.747044462e-08
8.011150622e-08
7.360742043e-08
6.934665592e-08
6.718264315e-08
6.742591344e-08
6.752392055e-08
6.968969126e-08
7.564507722e-08
8.384805145e-08
9.453303459e-08
1.08425769e-07
1.265113798e-07
1.500475519e-07
1.807717382e-07
2.209455409e-07
2.736728862e-07
3.431358717e-07
4.352346792e-07
5.580721977e-07
7.23220502e-07
9.470559966e-07
1.253349923e-06
1.676726842e-06
2.26967223e-06
3.118807301e-06
4.392095126e-06
6.454881879e-06
1.011442998e-05
1.71211569e-05
3.124276847e-05
6.06176967e-05
0.0001229780814
0.00025733764
0.0005503290327
0.001001954125
0.00100122744
0.001000286159
0.0009994943779
0.0009991122428
0.0009989313766
0.0009988493483
0.0009988166093
0.0009988096813
0.0009988178938
0.0009988369527
0.0009988659624
0.0009989062624
0.0009989609397
0.0009990360635
0.0009991423417
0.0009992958068
0.000999548125
0.000526409199
0.0003623962388
0.0002246946312
1.890141377e-05
2.801539427e-07
9.489721604e-08
8.461386137e-08
7.546684934e-08
6.930233642e-08
6.401096945e-08
6.0813179e-08
5.973715766e-08
6.090967527e-08
6.200761381e-08
6.595439814e-08
7.26161248e-08
8.136796283e-08
9.268184102e-08
1.07321304e-07
1.262855559e-07
1.508716279e-07
1.828690854e-07
2.246065652e-07
2.792762563e-07
3.512038088e-07
4.464951233e-07
5.735326305e-07
7.443131791e-07
9.758167696e-07
1.29272272e-06
1.730990683e-06
2.345203817e-06
3.225727765e-06
4.548775453e-06
6.69910693e-06
1.052769792e-05
1.787941445e-05
3.27243635e-05
6.363766713e-05
0.0001293027531
0.0002708208545
0.0005794294993
0.001001916404
0.001001175425
0.001000211946
0.0009994658533
0.0009991044324
0.000998932556
0.0009988542225
0.00099882293
0.0009988166064
0.00099882521
0.0009988447146
0.0009988743318
0.000998915424
0.00099897106
0.0009990472955
0.0009991545366
0.0009993085548
0.0009995595472
0.0005668411272
0.0003526561927
0.0002112792944
9.500144303e-06
1.240291992e-07
8.102370011e-08
7.303522987e-08
6.552541392e-08
6.032577218e-08
5.607398293e-08
5.387397289e-08
5.381127866e-08
5.581480663e-08
5.802644129e-08
6.309272755e-08
7.02685188e-08
7.952396643e-08
9.143001158e-08
1.067707226e-07
1.265607206e-07
1.521505539e-07
1.853660829e-07
2.28612504e-07
2.851696067e-07
3.595155512e-07
4.579611768e-07
5.891811516e-07
7.656059778e-07
1.004837214e-06
1.332489246e-06
1.78590453e-06
2.421851065e-06
3.334656341e-06
4.709354e-06
6.951463974e-06
1.095855277e-05
1.86760862e-05
3.429006354e-05
6.684238819e-05
0.0001360353708
0.0002852101716
0.0006105533102
0.001001876146
0.001001121727
0.001000142591
0.0009994392333
0.0009990972536
0.0009989338601
0.0009988590501
0.0009988291718
0.0009988234731
0.0009988325055
0.0009988524968
0.0009988827619
0.000998924683
0.0009989813126
0.000999058687
0.0009991668813
0.0009993214282
0.0009995709067
0.0005867904158
0.0003416615427
0.0001873363683
5.649620475e-06
9.248621608e-08
6.991711878e-08
6.348116276e-08
5.726410311e-08
5.286780044e-08
4.955054175e-08
4.831141124e-08
4.917378792e-08
5.188908006e-08
5.512235351e-08
6.087589851e-08
6.847420148e-08
7.819788764e-08
9.065808172e-08
1.066544818e-07
1.272238205e-07
1.537702356e-07
1.881541876e-07
2.328567138e-07
2.912523416e-07
3.679754068e-07
4.695460974e-07
6.049376289e-07
7.870261624e-07
1.034052188e-06
1.372592203e-06
1.841420019e-06
2.499577135e-06
3.445578554e-06
4.873872026e-06
7.212131015e-06
1.14074879e-05
1.951237946e-05
3.594269623e-05
7.023838188e-05
0.0001431908906
0.0003005397895
0.0006437784874
0.001001833488
0.001001066268
0.001000077823
0.0009994144307
0.0009990906889
0.0009989352943
0.0009988638421
0.0009988353454
0.0009988302905
0.0009988397873
0.0009988603048
0.0009988912561
0.0009989340405
0.0009989916963
0.0009990702309
0.0009991793638
0.0009993344109
0.0009995821862
0.0005741803012
0.0003363513205
0.0001550452579
2.187720483e-06
7.532495437e-08
6.081914192e-08
5.554405822e-08
5.036124846e-08
4.66651519e-08
4.423202057e-08
4.391907484e-08
4.559059724e-08
4.888770312e-08
5.294824923e-08
5.915316873e-08
6.712665117e-08
7.728627423e-08
9.026367743e-08
1.068741862e-07
1.281833978e-07
1.556387371e-07
1.911471934e-07
2.372579214e-07
2.974509463e-07
3.765162496e-07
4.811912601e-07
6.20751576e-07
8.085306302e-07
1.063427242e-06
1.413006005e-06
1.897521786e-06
2.578380087e-06
3.5585177e-06
5.042413e-06
7.481334102e-06
1.187505149e-05
2.038956433e-05
3.768516291e-05
7.383225967e-05
0.0001507843802
0.0003168440593
0.0006791833002
0.001001788576
0.00100100897
0.001000017385
0.0009993913601
0.0009990847189
0.0009989368623
0.0009988686079
0.0009988414602
0.0009988370664
0.0009988470616
0.0009988681428
0.0009988998169
0.0009989434964
0.000999002208
0.0009990819183
0.0009991919703
0.0009993474855
0.0009995933654
0.0005577911803
0.0003338795232
8.290597141e-05
7.375614336e-07
6.384302298e-08
5.335579855e-08
4.895708511e-08
4.460805928e-08
4.154389915e-08
3.996408701e-08
4.050768344e-08
4.284546125e-08
4.64887564e-08
5.128051055e-08
5.782227684e-08
6.613883534e-08
7.670338612e-08
9.016315496e-08
1.073510361e-07
1.293653865e-07
1.576819546e-07
1.942747333e-07
2.417517806e-07
3.037069371e-07
3.850860075e-07
4.928491637e-07
6.365819412e-07
8.300833825e-07
1.092932033e-06
1.453706018e-06
1.954191551e-06
2.6582507e-06
3.673484629e-06
5.215040942e-06
7.759267051e-06
1.236173331e-05
2.130879953e-05
3.952014731e-05
7.763020356e-05
0.0001588300477
0.0003341555931
0.0007168424573
0.001001741561
0.001000949735
0.0009999610367
0.0009993699384
0.0009990793237
0.000998938566
0.0009988733556
0.0009988475247
0.0009988438076
0.0009988543333
0.0009988760139
0.000998908445
0.0009989530488
0.000999012843
0.000999093738
0.0009992046851
0.000999360633
0.0009996044215
0.0005370804428
0.0003287064641
4.524521e-05
2.764685234e-07
5.539253076e-08
4.72090769e-08
4.346332211e-08
3.98044733e-08
3.734889022e-08
3.659599084e-08
3.788539368e-08
4.074178908e-08
4.472137288e-08
4.998096957e-08
5.680381211e-08
6.543631833e-08
7.637657124e-08
9.028684271e-08
1.080193962e-07
1.307038037e-07
1.598416167e-07
1.974827859e-07
2.462920136e-07
3.099789169e-07
3.936509342e-07
5.044912276e-07
6.524063515e-07
8.516684521e-07
1.122556869e-06
1.494689437e-06
2.011434156e-06
2.739204416e-06
3.790516611e-06
5.391847086e-06
8.046147261e-06
1.286803153e-05
2.227121022e-05
4.145019576e-05
8.163800662e-05
0.0001673411116
0.0003525045902
0.0007568249558
0.001001692612
0.001000888431
0.000999908549
0.0009993500855
0.0009990744823
0.0009989404062
0.0009988780919
0.000998853546
0.00099885052
0.0009988616061
0.0009988839201
0.00099891714
0.0009989626944
0.0009990235949